Protein in INSANE! Membrane UpperLeaflet>POPC=1.0 LowerLeaflet>POPC=1.0
239078
    1AU     AUC    1  34.076   8.921   7.504
    1AU     AUC    2  34.338   8.925   7.345
    1AU     AUC    3  34.329   8.911   7.654
    1AU     AUC    4  33.832   8.921   7.338
    1AU     AUC    5  33.809   8.940   7.644
    1AU     AUC    6  33.926   9.180   7.502
    1AU     AUC    7  34.231   9.178   7.481
    1AU     AUC    8  33.923   8.665   7.513
    1AU     AUC    9  34.221   8.667   7.529
    1AU     AUC   10  34.064   8.771   7.767
    1AU     AUC   11  34.095   9.088   7.754
    1AU     AUC   12  34.084   8.754   7.248
    1AU     AUC   13  34.068   9.060   7.239
    1AU     AUC   14  34.591   8.926   7.190
    1AU     AUC   15  34.596   8.928   7.493
    1AU     AUC   16  34.579   8.916   7.817
    1AU     AUC   17  33.574   8.907   7.179
    1AU     AUC   18  33.556   8.938   7.483
    1AU     AUC   19  33.561   8.956   7.806
    1AU     AUC   20  33.784   9.449   7.502
    1AU     AUC   21  34.088   9.448   7.495
    1AU     AUC   22  34.389   9.442   7.490
    1AU     AUC   23  33.738   8.410   7.523
    1AU     AUC   24  34.060   8.395   7.514
    1AU     AUC   25  34.375   8.401   7.537
    1AU     AUC   26  34.055   8.617   8.016
    1AU     AUC   27  34.074   8.926   8.033
    1AU     AUC   28  34.094   9.237   8.023
    1AU     AUC   29  34.092   8.576   7.016
    1AU     AUC   30  34.093   8.894   6.979
    1AU     AUC   31  34.066   9.208   6.972
    1AU     AUC   32  34.341   8.778   7.931
    1AU     AUC   33  34.330   9.072   7.935
    1AU     AUC   34  34.356   8.750   7.089
    1AU     AUC   35  34.345   9.064   7.071
    1AU     AUC   36  33.799   8.788   7.927
    1AU     AUC   37  33.817   9.098   7.929
    1AU     AUC   38  33.836   8.745   7.072
    1AU     AUC   39  33.820   9.060   7.072
    1AU     AUC   40  34.490   9.194   7.326
    1AU     AUC   41  34.495   9.167   7.658
    1AU     AUC   42  33.661   9.180   7.342
    1AU     AUC   43  33.667   9.204   7.664
    1AU     AUC   44  34.495   8.664   7.363
    1AU     AUC   45  34.491   8.662   7.681
    1AU     AUC   46  33.654   8.663   7.340
    1AU     AUC   47  33.652   8.681   7.675
    1AU     AUC   48  33.926   9.340   7.773
    1AU     AUC   49  34.246   9.351   7.743
    1AU     AUC   50  33.898   8.500   7.765
    1AU     AUC   51  34.220   8.506   7.788
    1AU     AUC   52  33.917   9.335   7.234
    1AU     AUC   53  34.235   9.327   7.222
    1AU     AUC   54  33.907   8.501   7.249
    1AU     AUC   55  34.239   8.493   7.273
    1AU    AUSL   56  34.420   8.888   8.180
    1AU    AUSL   57  34.408   8.442   8.135
    1AU     AUL   58  34.672   8.505   8.413
    1AU       S   59  34.675   8.170   8.053
    1AU     LIG   60  34.539   7.901   8.401
    1AU     LIG   61  34.593   7.464   8.566
    1AU     LIG   62  34.855   7.259   8.905
    1AU     LIG   63  35.136   6.921   9.079
    1AU     LIG   64  35.321   6.828   9.487
    1AU     LIG   65  35.519   6.718   9.899
    1AU       S   66  34.467   8.877   8.355
    1AU     LIG   67  34.595   8.789   8.812
    1AU     LIG   68  34.842   8.604   9.175
    1AU     LIG   69  35.082   8.503   9.577
    1AU     LIG   70  35.336   8.547   9.983
    1AU     LIG   71  35.685   8.701  10.277
    1AU     LIG   72  36.036   8.923  10.519
    1AU    AUSL   73  34.110   8.647   8.359
    1AU    AUSL   74  34.019   9.065   8.310
    1AU     AUL   75  34.167   9.018   8.683
    1AU       S   76  34.201   8.621   8.502
    1AU     LIG   77  34.387   8.302   8.780
    1AU     LIG   78  34.535   8.193   9.232
    1AU     LIG   79  34.685   8.185   9.696
    1AU     LIG   80  34.788   8.109  10.169
    1AU     LIG   81  34.804   8.015  10.647
    1AU     LIG   82  34.712   8.132  11.106
    1AU       S   83  33.744   8.848   8.652
    1AU     LIG   84  33.574   8.751   9.109
    1AU     LIG   85  33.404   8.680   9.541
    1AU     LIG   86  33.240   8.652   9.990
    1AU     LIG   87  33.295   8.887  10.413
    1AU     LIG   88  33.266   9.189  10.795
    1AU     LIG   89  33.004   9.521  11.032
    1AU    AUSL   90  34.362   9.300   8.293
    1AU    AUSL   91  34.721   9.140   8.034
    1AU     AUL   92  34.735   9.167   8.499
    1AU       S   93  34.339   9.365   8.427
    1AU     LIG   94  34.621   9.546   8.799
    1AU     LIG   95  34.824   9.666   9.245
    1AU     LIG   96  34.828   9.792   9.731
    1AU     LIG   97  34.905   9.769  10.227
    1AU     LIG   98  34.947   9.869  10.701
    1AU     LIG   99  34.843   9.745  11.171
    1AU       S  100  35.001   9.129   8.049
    1AU     LIG  101  35.363   9.124   8.310
    1AU     LIG  102  35.577   9.342   8.673
    1AU     LIG  103  35.771   9.650   8.966
    1AU     LIG  104  35.977   9.828   9.356
    1AU     LIG  105  36.300   9.918   9.701
    1AU     LIG  106  36.742  10.072   9.783
    1AU    AUSL  107  34.623   8.952   6.890
    1AU    AUSL  108  34.356   9.350   6.806
    1AU     AUL  109  34.711   9.286   6.447
    1AU       S  110  34.662   8.979   6.737
    1AU     LIG  111  34.949   8.881   6.337
    1AU     LIG  112  34.978   8.695   5.918
    1AU     LIG  113  35.090   8.559   5.473
    1AU     LIG  114  35.453   8.601   5.141
    1AU     LIG  115  35.889   8.713   4.925
    1AU     LIG  116  36.239   8.803   4.601
    1AU       S  117  34.342   9.412   6.638
    1AU     LIG  118  34.635   9.779   6.536
    1AU     LIG  119  35.004   9.866   6.237
    1AU     LIG  120  35.301   9.987   5.860
    1AU     LIG  121  35.430  10.243   5.475
    1AU     LIG  122  35.648  10.382   5.066
    1AU     LIG  123  35.763  10.627   4.677
    1AU    AUSL  124  34.373   8.632   6.708
    1AU    AUSL  125  34.705   8.560   7.007
    1AU     AUL  126  34.799   8.574   6.689
    1AU       S  127  34.721   8.142   6.833
    1AU     LIG  128  34.895   7.846   6.506
    1AU     LIG  129  35.135   7.465   6.350
    1AU     LIG  130  35.391   7.229   6.021
    1AU     LIG  131  35.815   7.235   5.779
    1AU     LIG  132  36.181   7.341   5.473
    1AU     LIG  133  36.518   7.258   5.132
    1AU       S  134  34.467   8.843   6.464
    1AU     LIG  135  34.582   8.491   6.210
    1AU     LIG  136  34.662   8.323   5.754
    1AU     LIG  137  34.679   8.257   5.270
    1AU     LIG  138  34.607   8.012   4.838
    1AU     LIG  139  34.720   7.868   4.385
    1AU     LIG  140  35.002   7.771   4.000
    1AU    AUSL  141  34.202   8.980   6.885
    1AU    AUSL  142  33.959   8.716   6.660
    1AU     AUL  143  34.169   8.504   6.571
    1AU       S  144  33.926   8.817   6.315
    1AU     LIG  145  33.866   8.563   5.941
    1AU     LIG  146  33.585   8.331   5.635
    1AU     LIG  147  33.324   8.180   5.262
    1AU     LIG  148  33.084   8.026   4.865
    1AU     LIG  149  33.165   7.807   4.439
    1AU     LIG  150  33.124   7.825   3.970
    1AU       S  151  34.352   8.953   6.520
    1AU     LIG  152  34.499   8.968   6.004
    1AU     LIG  153  34.619   8.800   5.563
    1AU     LIG  154  34.760   8.756   5.111
    1AU     LIG  155  34.775   8.950   4.673
    1AU     LIG  156  34.825   9.015   4.202
    1AU     LIG  157  34.878   9.210   3.766
    1AU    AUSL  158  33.625   8.970   8.208
    1AU    AUSL  159  33.784   9.374   8.149
    1AU     AUL  160  33.839   9.276   8.449
    1AU       S  161  33.542   8.981   8.663
    1AU     LIG  162  33.227   8.663   8.715
    1AU     LIG  163  33.101   8.499   9.136
    1AU     LIG  164  32.935   8.474   9.586
    1AU     LIG  165  32.743   8.390  10.012
    1AU     LIG  166  32.410   8.404  10.362
    1AU     LIG  167  32.108   8.676  10.624
    1AU       S  168  33.386   9.359   8.376
    1AU     LIG  169  33.342   9.472   8.811
    1AU     LIG  170  33.304   9.815   9.127
    1AU     LIG  171  33.081  10.107   9.418
    1AU     LIG  172  32.978  10.328   9.834
    1AU     LIG  173  32.763  10.555  10.202
    1AU     LIG  174  32.441  10.794  10.458
    1AU    AUSL  175  33.938   8.779   8.010
    1AU    AUSL  176  33.382   8.706   7.993
    1AU     AUL  177  33.433   8.838   8.243
    1AU       S  178  33.226   8.414   8.227
    1AU     LIG  179  32.817   8.199   8.127
    1AU     LIG  180  32.435   7.986   8.271
    1AU     LIG  181  32.241   7.719   8.584
    1AU     LIG  182  32.056   7.398   8.855
    1AU     LIG  183  31.781   7.184   9.156
    1AU     LIG  184  31.445   7.265   9.487
    1AU       S  185  33.722   8.712   8.595
    1AU     LIG  186  33.601   8.330   8.819
    1AU     LIG  187  33.516   8.236   9.284
    1AU     LIG  188  33.347   8.198   9.737
    1AU     LIG  189  33.166   8.145  10.180
    1AU     LIG  190  33.016   7.974  10.610
    1AU     LIG  191  33.090   7.915  11.082
    1AU    AUSL  192  33.698   8.864   6.950
    1AU    AUSL  193  33.837   8.437   6.939
    1AU     AUL  194  33.670   8.546   6.636
    1AU       S  195  33.676   8.891   6.313
    1AU     LIG  196  33.382   8.741   5.970
    1AU     LIG  197  33.155   8.601   5.556
    1AU     LIG  198  32.910   8.461   5.160
    1AU     LIG  199  32.576   8.316   4.845
    1AU     LIG  200  32.242   8.463   4.526
    1AU     LIG  201  31.942   8.808   4.347
    1AU       S  202  33.421   8.130   6.803
    1AU     LIG  203  33.138   7.766   6.801
    1AU     LIG  204  32.769   7.527   6.632
    1AU     LIG  205  32.536   7.280   6.285
    1AU     LIG  206  32.483   7.095   5.827
    1AU     LIG  207  32.547   6.827   5.404
    1AU     LIG  208  32.523   6.643   4.951
    1AU    AUSL  209  33.887   9.148   6.665
    1AU    AUSL  210  33.447   9.198   6.938
    1AU     AUL  211  33.481   8.978   6.711
    1AU       S  212  33.417   9.439   6.716
    1AU     LIG  213  33.133   9.506   6.326
    1AU     LIG  214  32.939   9.732   5.933
    1AU     LIG  215  32.710   9.846   5.521
    1AU     LIG  216  32.306   9.958   5.309
    1AU     LIG  217  31.916  10.045   5.048
    1AU     LIG  218  31.504  10.269   4.982
    1AU       S  219  33.889   9.076   6.457
    1AU     LIG  220  33.832   9.101   5.910
    1AU     LIG  221  33.629   8.842   5.531
    1AU     LIG  222  33.423   8.709   5.101
    1AU     LIG  223  33.468   8.846   4.612
    1AU     LIG  224  33.484   9.064   4.155
    1AU     LIG  225  33.312   9.305   3.755
    1AU    AUSL  226  34.724   9.480   7.444
    1AU    AUSL  227  34.715   9.330   7.037
    1AU     AUL  228  34.802   9.737   7.258
    1AU       S  229  34.827   9.448   6.859
    1AU     LIG  230  35.172   9.458   6.526
    1AU     LIG  231  35.460   9.597   6.159
    1AU     LIG  232  35.807   9.776   5.872
    1AU     LIG  233  36.246   9.826   5.666
    1AU     LIG  234  36.653   9.898   5.414
    1AU     LIG  235  36.870  10.064   5.019
    1AU       S  236  35.174   9.451   7.356
    1AU     LIG  237  35.655   9.453   7.525
    1AU     LIG  238  36.158   9.515   7.534
    1AU     LIG  239  36.656   9.582   7.554
    1AU     LIG  240  37.054   9.895   7.518
    1AU     LIG  241  37.243  10.356   7.517
    1AU     LIG  242  37.370  10.792   7.717
    1AU    AUSL  243  34.888   9.048   7.278
    1AU    AUSL  244  34.948   8.819   7.648
    1AU     AUL  245  35.103   8.785   7.244
    1AU       S  246  35.114   9.236   7.321
    1AU     LIG  247  35.558   9.011   7.292
    1AU     LIG  248  36.041   9.073   7.297
    1AU     LIG  249  36.511   9.193   7.241
    1AU     LIG  250  37.001   9.178   7.189
    1AU     LIG  251  37.453   9.383   7.165
    1AU     LIG  252  37.702   9.673   6.875
    1AU       S  253  35.293   8.601   7.627
    1AU     LIG  254  35.473   8.318   7.941
    1AU     LIG  255  35.845   8.035   7.889
    1AU     LIG  256  36.310   7.947   7.819
    1AU     LIG  257  36.748   7.842   7.950
    1AU     LIG  258  37.218   7.727   8.028
    1AU     LIG  259  37.680   7.787   7.947
    1AU    AUSL  260  34.651   9.107   7.630
    1AU    AUSL  261  34.594   9.499   7.846
    1AU     AUL  262  34.855   9.454   7.705
    1AU       S  263  34.839   9.456   8.154
    1AU     LIG  264  35.273   9.595   8.105
    1AU     LIG  265  35.509   9.818   8.483
    1AU     LIG  266  35.677  10.138   8.822
    1AU     LIG  267  35.940  10.551   8.927
    1AU     LIG  268  36.148  11.001   9.003
    1AU     LIG  269  36.391  11.428   9.056
    1AU       S  270  35.207   9.197   7.591
    1AU     LIG  271  35.504   9.031   7.821
    1AU     LIG  272  35.952   9.100   7.805
    1AU     LIG  273  36.415   9.120   7.745
    1AU     LIG  274  36.857   9.192   7.860
    1AU     LIG  275  37.284   9.253   8.055
    1AU     LIG  276  37.635   9.533   8.146
    1AU    AUSL  277  33.417   9.486   7.569
    1AU    AUSL  278  33.453   9.224   7.926
    1AU     AUL  279  33.416   9.656   7.866
    1AU       S  280  33.251   9.283   8.125
    1AU     LIG  281  32.921   9.466   8.476
    1AU     LIG  282  32.862   9.720   8.884
    1AU     LIG  283  32.650   9.825   9.320
    1AU     LIG  284  32.291   9.917   9.660
    1AU     LIG  285  31.858  10.139   9.791
    1AU     LIG  286  31.573  10.450  10.040
    1AU       S  287  33.064   9.523   7.608
    1AU     LIG  288  32.680   9.830   7.660
    1AU     LIG  289  32.313  10.155   7.668
    1AU     LIG  290  32.048  10.558   7.744
    1AU     LIG  291  31.768  10.940   7.762
    1AU     LIG  292  31.297  10.982   7.837
    1AU     LIG  293  30.806  10.945   7.845
    1AU    AUSL  294  33.497   9.142   7.343
    1AU    AUSL  295  33.581   9.551   7.182
    1AU     AUL  296  33.316   9.475   7.197
    1AU       S  297  32.937   9.426   7.479
    1AU     LIG  298  32.592   9.413   7.196
    1AU     LIG  299  32.216   9.660   7.015
    1AU     LIG  300  31.837   9.950   6.930
    1AU     LIG  301  31.446  10.156   6.775
    1AU     LIG  302  30.987  10.165   6.745
    1AU     LIG  303  30.550  10.047   6.883
    1AU       S  304  33.416   9.712   6.796
    1AU     LIG  305  33.339   9.964   6.404
    1AU     LIG  306  33.093  10.231   6.080
    1AU     LIG  307  32.864  10.651   5.948
    1AU     LIG  308  32.540  11.030   5.910
    1AU     LIG  309  32.129  11.310   5.877
    1AU     LIG  310  31.720  11.592   5.871
    1AU    AUSL  311  33.206   9.064   7.643
    1AU    AUSL  312  33.255   8.812   7.289
    1AU     AUL  313  33.104   9.072   7.250
    1AU       S  314  32.901   8.624   7.411
    1AU     LIG  315  32.440   8.598   7.619
    1AU     LIG  316  31.973   8.522   7.747
    1AU     LIG  317  31.549   8.317   7.801
    1AU     LIG  318  31.249   8.170   7.462
    1AU     LIG  319  30.810   8.185   7.290
    1AU     LIG  320  30.418   7.987   7.068
    1AU       S  321  33.015   9.136   7.721
    1AU     LIG  322  32.751   9.428   7.989
    1AU     LIG  323  32.354   9.674   8.124
    1AU     LIG  324  31.865   9.732   8.199
    1AU     LIG  325  31.426   9.960   8.155
    1AU     LIG  326  30.964  10.128   8.218
    1AU     LIG  327  30.577  10.271   8.456
    1AU    AUSL  328  34.787   8.416   7.599
    1AU    AUSL  329  34.695   8.686   7.945
    1AU     AUL  330  34.980   8.640   7.962
    1AU       S  331  35.040   8.291   7.642
    1AU     LIG  332  35.238   7.897   7.747
    1AU     LIG  333  35.643   7.668   7.595
    1AU     LIG  334  36.112   7.520   7.570
    1AU     LIG  335  36.527   7.254   7.524
    1AU     LIG  336  36.800   6.847   7.610
    1AU     LIG  337  37.211   6.698   7.398
    1AU       S  338  34.703   8.274   8.024
    1AU     LIG  339  35.051   7.932   8.250
    1AU     LIG  340  35.107   7.540   8.521
    1AU     LIG  341  35.373   7.313   8.845
    1AU     LIG  342  35.616   7.181   9.235
    1AU     LIG  343  35.991   7.245   9.531
    1AU     LIG  344  36.376   7.346   9.797
    1AU    AUSL  345  34.633   8.735   7.371
    1AU    AUSL  346  34.546   8.270   7.285
    1AU     AUL  347  34.838   8.394   7.222
    1AU       S  348  35.143   8.411   7.555
    1AU     LIG  349  35.557   8.179   7.450
    1AU     LIG  350  36.008   8.000   7.390
    1AU     LIG  351  36.470   7.837   7.343
    1AU     LIG  352  36.839   7.651   7.144
    1AU     LIG  353  37.286   7.798   7.074
    1AU     LIG  354  37.745   7.883   7.009
    1AU       S  355  34.772   7.987   6.994
    1AU     LIG  356  34.751   7.518   6.887
    1AU     LIG  357  34.897   7.127   6.663
    1AU     LIG  358  35.261   6.933   6.442
    1AU     LIG  359  35.337   6.472   6.316
    1AU     LIG  360  35.580   6.080   6.191
    1AU     LIG  361  35.955   5.812   6.046
    1AU    AUSL  362  33.351   8.430   7.469
    1AU    AUSL  363  33.448   8.546   7.041
    1AU     AUL  364  33.179   8.646   7.024
    1AU       S  365  33.391   8.238   7.020
    1AU     LIG  366  32.954   8.267   6.821
    1AU     LIG  367  32.610   8.039   6.681
    1AU     LIG  368  32.414   7.790   6.366
    1AU     LIG  369  32.081   7.512   6.222
    1AU     LIG  370  31.785   7.417   5.879
    1AU     LIG  371  31.401   7.386   5.590
    1AU       S  372  33.030   8.411   7.392
    1AU     LIG  373  32.699   8.177   7.612
    1AU     LIG  374  32.297   8.118   7.802
    1AU     LIG  375  31.883   7.980   7.616
    1AU     LIG  376  31.483   7.714   7.562
    1AU     LIG  377  31.057   7.458   7.620
    1AU     LIG  378  30.680   7.316   7.893
    1AU    AUSL  379  33.523   8.801   7.625
    1AU    AUSL  380  33.616   8.404   7.798
    1AU     AUL  381  33.233   8.553   7.781
    1AU       S  382  33.326   8.205   8.070
    1AU     LIG  383  33.121   7.958   7.772
    1AU     LIG  384  32.706   7.737   7.897
    1AU     LIG  385  32.436   7.454   8.186
    1AU     LIG  386  32.209   7.109   8.461
    1AU     LIG  387  31.980   6.818   8.784
    1AU     LIG  388  31.693   6.469   8.969
    1AU       S  389  32.949   8.699   7.464
    1AU     LIG  390  32.527   8.861   7.201
    1AU     LIG  391  32.064   8.660   7.254
    1AU     LIG  392  31.569   8.625   7.403
    1AU     LIG  393  31.131   8.601   7.681
    1AU     LIG  394  30.711   8.399   7.813
    1AU     LIG  395  30.407   8.027   7.872
    1AU    AUSL  396  34.109   9.608   8.030
    1AU    AUSL  397  33.786   9.387   7.732
    1AU     AUL  398  33.825   9.669   8.120
    1AU       S  399  33.445   9.493   8.296
    1AU     LIG  400  33.248   9.863   8.481
    1AU     LIG  401  33.124  10.180   8.800
    1AU     LIG  402  33.103  10.635   8.928
    1AU     LIG  403  32.845  11.015   9.064
    1AU     LIG  404  32.540  11.326   9.261
    1AU     LIG  405  32.325  11.629   9.556
    1AU       S  406  34.146  10.012   8.019
    1AU     LIG  407  34.293  10.290   8.346
    1AU     LIG  408  34.212  10.715   8.537
    1AU     LIG  409  34.271  11.093   8.799
    1AU     LIG  410  34.402  11.196   9.251
    1AU     LIG  411  34.554  11.471   9.618
    1AU     LIG  412  34.466  11.877   9.858
    1AU    AUSL  413  33.855   9.785   7.673
    1AU    AUSL  414  34.308   9.773   7.263
    1AU     AUL  415  33.939  10.012   7.430
    1AU       S  416  33.994  10.069   7.884
    1AU     LIG  417  34.065  10.552   7.967
    1AU     LIG  418  34.130  11.005   8.128
    1AU     LIG  419  34.195  11.415   8.345
    1AU     LIG  420  33.971  11.819   8.470
    1AU     LIG  421  33.602  12.149   8.426
    1AU     LIG  422  33.475  12.617   8.420
    1AU       S  423  34.349  10.081   7.201
    1AU     LIG  424  34.657  10.162   6.907
    1AU     LIG  425  34.737  10.587   6.712
    1AU     LIG  426  34.751  11.054   6.551
    1AU     LIG  427  34.822  11.547   6.583
    1AU     LIG  428  35.001  12.016   6.542
    1AU     LIG  429  35.153  12.483   6.469
    1AU    AUSL  430  34.260   9.620   7.643
    1AU    AUSL  431  34.263   9.241   7.906
    1AU     AUL  432  34.440   9.661   8.020
    1AU       S  433  34.861   9.190   8.077
    1AU     LIG  434  35.093   9.471   8.558
    1AU     LIG  435  35.252   9.704   8.928
    1AU     LIG  436  35.456   9.902   9.303
    1AU     LIG  437  35.677  10.125   9.662
    1AU     LIG  438  35.758  10.520   9.918
    1AU     LIG  439  35.770  10.994  10.009
    1AU       S  440  34.312   9.968   7.708
    1AU     LIG  441  34.533  10.316   7.876
    1AU     LIG  442  34.549  10.697   8.131
    1AU     LIG  443  34.588  11.083   8.380
    1AU     LIG  444  34.693  11.547   8.402
    1AU     LIG  445  34.803  12.013   8.417
    1AU     LIG  446  34.859  12.459   8.581
    1AU    AUSL  447  34.045   8.344   7.951
    1AU    AUSL  448  34.397   8.480   7.720
    1AU     AUL  449  34.242   8.224   8.182
    1AU       S  450  34.096   7.803   8.047
    1AU     LIG  451  34.206   7.386   8.195
    1AU     LIG  452  33.930   7.007   8.257
    1AU     LIG  453  33.861   6.569   8.429
    1AU     LIG  454  33.727   6.238   8.734
    1AU     LIG  455  33.723   6.106   9.197
    1AU     LIG  456  33.818   6.104   9.670
    1AU       S  457  34.711   8.075   7.914
    1AU     LIG  458  34.690   7.609   8.020
    1AU     LIG  459  34.856   7.205   8.206
    1AU     LIG  460  35.093   6.983   8.547
    1AU     LIG  461  35.336   6.610   8.707
    1AU     LIG  462  35.556   6.264   8.942
    1AU     LIG  463  35.849   5.916   9.073
    1AU    AUSL  464  33.866   8.100   7.664
    1AU    AUSL  465  33.729   8.477   8.198
    1AU     AUL  466  33.777   8.141   8.027
    1AU       S  467  33.899   7.726   7.868
    1AU     LIG  468  33.610   7.410   7.726
    1AU     LIG  469  33.591   6.958   7.789
    1AU     LIG  470  33.555   6.572   8.022
    1AU     LIG  471  33.515   6.165   8.253
    1AU     LIG  472  33.380   5.699   8.256
    1AU     LIG  473  33.366   5.215   8.209
    1AU       S  474  33.482   8.358   8.308
    1AU     LIG  475  33.172   8.030   8.527
    1AU     LIG  476  32.820   7.710   8.460
    1AU     LIG  477  32.592   7.361   8.690
    1AU     LIG  478  32.401   7.042   8.984
    1AU     LIG  479  32.333   6.820   9.397
    1AU     LIG  480  32.417   6.552   9.789
    1AU    AUSL  481  34.309   8.078   7.711
    1AU    AUSL  482  33.809   8.100   7.246
    1AU     AUL  483  34.109   7.843   7.477
    1AU       S  484  33.725   7.786   7.112
    1AU     LIG  485  33.455   7.458   7.164
    1AU     LIG  486  33.525   7.025   7.275
    1AU     LIG  487  33.538   6.585   7.088
    1AU     LIG  488  33.523   6.166   6.835
    1AU     LIG  489  33.479   5.682   6.744
    1AU     LIG  490  33.395   5.205   6.679
    1AU       S  491  34.246   7.861   7.904
    1AU     LIG  492  34.312   7.445   7.704
    1AU     LIG  493  34.087   7.062   7.755
    1AU     LIG  494  34.086   6.625   7.961
    1AU     LIG  495  34.162   6.211   8.184
    1AU     LIG  496  34.231   5.733   8.272
    1AU     LIG  497  34.325   5.267   8.396
    1AU    AUSL  498  34.053   9.599   6.947
    1AU    AUSL  499  34.371   9.363   7.258
    1AU     AUL  500  34.414   9.679   6.985
    1AU       S  501  34.104   9.970   6.805
    1AU     LIG  502  34.350  10.228   6.505
    1AU     LIG  503  34.388  10.672   6.351
    1AU     LIG  504  34.446  10.960   5.981
    1AU     LIG  505  34.378  11.206   5.574
    1AU     LIG  506  34.316  11.568   5.264
    1AU     LIG  507  34.414  11.969   5.010
    1AU       S  508  34.791   9.401   6.943
    1AU     LIG  509  35.072   9.854   6.830
    1AU     LIG  510  35.417   9.967   6.521
    1AU     LIG  511  35.683  10.181   6.185
    1AU     LIG  512  35.974  10.565   6.081
    1AU     LIG  513  36.178  11.016   6.035
    1AU     LIG  514  36.315  11.485   5.965
    1AU    AUSL  515  33.957   9.545   7.353
    1AU    AUSL  516  33.856   9.257   7.058
    1AU     AUL  517  33.791   9.737   7.077
    1AU       S  518  34.152  10.057   7.036
    1AU     LIG  519  34.244  10.501   6.920
    1AU     LIG  520  34.324  10.928   6.807
    1AU     LIG  521  34.326  11.352   6.639
    1AU     LIG  522  34.002  11.671   6.614
    1AU     LIG  523  33.667  11.988   6.534
    1AU     LIG  524  33.543  12.419   6.393
    1AU       S  525  33.656   9.542   6.676
    1AU     LIG  526  33.634   9.545   6.228
    1AU     LIG  527  33.434   9.845   5.903
    1AU     LIG  528  33.165  10.088   5.576
    1AU     LIG  529  33.058  10.301   5.145
    1AU     LIG  530  32.979  10.614   4.779
    1AU     LIG  531  32.796  10.978   4.543
    1AU    AUSL  532  34.169   8.192   6.987
    1AU    AUSL  533  33.740   8.491   7.346
    1AU     AUL  534  33.855   8.190   6.912
    1AU       S  535  33.334   8.106   7.139
    1AU     LIG  536  32.897   7.943   7.213
    1AU     LIG  537  32.519   7.716   7.055
    1AU     LIG  538  32.260   7.447   6.729
    1AU     LIG  539  32.079   7.051   6.483
    1AU     LIG  540  31.830   6.611   6.396
    1AU     LIG  541  31.549   6.245   6.207
    1AU       S  542  34.000   7.775   7.020
    1AU     LIG  543  33.889   7.376   6.842
    1AU     LIG  544  33.683   6.982   6.780
    1AU     LIG  545  33.647   6.584   6.557
    1AU     LIG  546  33.682   6.281   6.207
    1AU     LIG  547  33.772   6.174   5.751
    1AU     LIG  548  34.076   5.932   5.498
    1AU    AUSL  549  34.148   8.296   7.399
    1AU    AUSL  550  34.285   8.571   7.100
    1AU     AUL  551  34.351   8.075   7.156
    1AU       S  552  33.730   7.896   7.257
    1AU     LIG  553  33.935   7.398   7.351
    1AU     LIG  554  34.024   6.977   7.174
    1AU     LIG  555  34.021   6.590   6.917
    1AU     LIG  556  34.243   6.206   6.776
    1AU     LIG  557  34.268   5.732   6.657
    1AU     LIG  558  34.408   5.282   6.543
    1AU       S  559  34.545   8.186   6.736
    1AU     LIG  560  34.390   7.775   6.633
    1AU     LIG  561  34.603   7.420   6.370
    1AU     LIG  562  34.871   7.094   6.105
    1AU     LIG  563  35.054   6.999   5.658
    1AU     LIG  564  35.077   6.820   5.198
    1AU     LIG  565  35.289   6.590   4.828
    2AU     AUC  566  16.397   6.151   7.514
    2AU     AUC  567  16.660   6.152   7.352
    2AU     AUC  568  16.653   6.147   7.660
    2AU     AUC  569  16.150   6.146   7.354
    2AU     AUC  570  16.134   6.167   7.661
    2AU     AUC  571  16.248   6.410   7.513
    2AU     AUC  572  16.557   6.408   7.488
    2AU     AUC  573  16.243   5.895   7.529
    2AU     AUC  574  16.537   5.895   7.541
    2AU     AUC  575  16.390   6.007   7.778
    2AU     AUC  576  16.421   6.321   7.761
    2AU     AUC  577  16.400   5.983   7.259
    2AU     AUC  578  16.384   6.285   7.248
    2AU     AUC  579  16.906   6.144   7.184
    2AU     AUC  580  16.919   6.157   7.496
    2AU     AUC  581  16.915   6.153   7.803
    2AU     AUC  582  15.890   6.130   7.197
    2AU     AUC  583  15.877   6.163   7.499
    2AU     AUC  584  15.890   6.187   7.825
    2AU     AUC  585  16.102   6.677   7.510
    2AU     AUC  586  16.408   6.680   7.500
    2AU     AUC  587  16.701   6.678   7.495
    2AU     AUC  588  16.060   5.640   7.545
    2AU     AUC  589  16.382   5.625   7.530
    2AU     AUC  590  16.697   5.631   7.546
    2AU     AUC  591  16.375   5.855   8.036
    2AU     AUC  592  16.404   6.172   8.041
    2AU     AUC  593  16.423   6.481   8.025
    2AU     AUC  594  16.403   5.804   7.027
    2AU     AUC  595  16.407   6.122   6.989
    2AU     AUC  596  16.382   6.434   6.981
    2AU     AUC  597  16.671   6.009   7.937
    2AU     AUC  598  16.675   6.305   7.924
    2AU     AUC  599  16.668   5.975   7.095
    2AU     AUC  600  16.663   6.287   7.078
    2AU     AUC  601  16.133   6.028   7.946
    2AU     AUC  602  16.146   6.336   7.938
    2AU     AUC  603  16.149   5.971   7.087
    2AU     AUC  604  16.135   6.285   7.086
    2AU     AUC  605  16.811   6.420   7.326
    2AU     AUC  606  16.827   6.401   7.643
    2AU     AUC  607  15.979   6.406   7.356
    2AU     AUC  608  15.988   6.434   7.675
    2AU     AUC  609  16.810   5.886   7.365
    2AU     AUC  610  16.817   5.892   7.681
    2AU     AUC  611  15.974   5.888   7.361
    2AU     AUC  612  15.977   5.913   7.700
    2AU     AUC  613  16.248   6.578   7.776
    2AU     AUC  614  16.571   6.583   7.747
    2AU     AUC  615  16.222   5.734   7.783
    2AU     AUC  616  16.545   5.743   7.804
    2AU     AUC  617  16.233   6.562   7.243
    2AU     AUC  618  16.552   6.554   7.228
    2AU     AUC  619  16.225   5.728   7.266
    2AU     AUC  620  16.554   5.719   7.285
    2AU    AUSL  621  16.750   6.104   8.085
    2AU    AUSL  622  16.706   5.684   8.167
    2AU     AUL  623  16.931   5.759   8.423
    2AU       S  624  17.035   5.376   8.158
    2AU     LIG  625  16.903   5.043   8.404
    2AU     LIG  626  17.044   4.710   8.704
    2AU     LIG  627  17.164   4.387   9.004
    2AU     LIG  628  17.315   4.042   9.267
    2AU     LIG  629  17.500   3.880   9.681
    2AU     LIG  630  17.460   3.688  10.128
    2AU       S  631  16.821   6.140   8.678
    2AU     LIG  632  17.048   5.824   8.924
    2AU     LIG  633  17.277   5.633   9.294
    2AU     LIG  634  17.498   5.457   9.671
    2AU     LIG  635  17.829   5.505  10.003
    2AU     LIG  636  18.199   5.629  10.268
    2AU     LIG  637  18.505   5.656  10.627
    2AU    AUSL  638  16.483   5.976   8.386
    2AU    AUSL  639  16.347   6.370   8.288
    2AU     AUL  640  16.431   6.376   8.699
    2AU       S  641  16.562   5.995   8.514
    2AU     LIG  642  16.581   5.619   8.777
    2AU     LIG  643  16.809   5.421   9.172
    2AU     LIG  644  16.983   5.321   9.628
    2AU     LIG  645  17.027   5.213  10.111
    2AU     LIG  646  16.955   5.120  10.594
    2AU     LIG  647  17.058   5.109  11.070
    2AU       S  648  16.087   6.083   8.666
    2AU     LIG  649  16.042   5.976   9.133
    2AU     LIG  650  15.800   5.927   9.536
    2AU     LIG  651  15.664   5.917   9.989
    2AU     LIG  652  15.694   6.212  10.369
    2AU     LIG  653  15.770   6.481  10.758
    2AU     LIG  654  15.568   6.713  11.119
    2AU    AUSL  655  16.748   6.468   8.290
    2AU    AUSL  656  17.072   6.352   7.976
    2AU     AUL  657  17.035   6.188   8.288
    2AU       S  658  16.781   6.536   8.450
    2AU     LIG  659  16.932   6.595   8.886
    2AU     LIG  660  17.020   6.753   9.329
    2AU     LIG  661  17.018   6.816   9.806
    2AU     LIG  662  17.202   7.044  10.172
    2AU     LIG  663  17.244   7.024  10.637
    2AU     LIG  664  17.283   6.920  11.108
    2AU       S  665  17.349   6.411   8.024
    2AU     LIG  666  17.631   6.251   8.321
    2AU     LIG  667  17.929   6.472   8.618
    2AU     LIG  668  18.149   6.791   8.937
    2AU     LIG  669  18.368   7.114   9.231
    2AU     LIG  670  18.687   7.222   9.579
    2AU     LIG  671  19.000   7.313   9.942
    2AU    AUSL  672  16.934   6.182   6.877
    2AU    AUSL  673  16.695   6.577   6.830
    2AU     AUL  674  17.069   6.536   6.476
    2AU       S  675  16.961   6.207   6.724
    2AU     LIG  676  17.270   6.116   6.356
    2AU     LIG  677  17.338   6.020   5.919
    2AU     LIG  678  17.449   5.895   5.479
    2AU     LIG  679  17.756   5.837   5.118
    2AU     LIG  680  18.171   5.789   4.869
    2AU     LIG  681  18.569   5.778   4.601
    2AU       S  682  16.692   6.627   6.672
    2AU     LIG  683  17.003   6.998   6.596
    2AU     LIG  684  17.374   6.951   6.282
    2AU     LIG  685  17.669   7.078   5.905
    2AU     LIG  686  17.777   7.349   5.498
    2AU     LIG  687  17.902   7.690   5.148
    2AU     LIG  688  18.121   7.963   4.800
    2AU    AUSL  689  16.678   5.855   6.717
    2AU    AUSL  690  17.015   5.795   7.010
    2AU     AUL  691  17.084   5.796   6.676
    2AU       S  692  17.091   5.369   6.868
    2AU     LIG  693  17.221   4.987   6.636
    2AU     LIG  694  17.413   4.677   6.343
    2AU     LIG  695  17.676   4.409   6.033
    2AU     LIG  696  18.085   4.326   5.766
    2AU     LIG  697  18.471   4.330   5.447
    2AU     LIG  698  18.885   4.373   5.184
    2AU       S  699  16.764   6.087   6.453
    2AU     LIG  700  16.900   5.767   6.189
    2AU     LIG  701  17.030   5.637   5.756
    2AU     LIG  702  17.043   5.635   5.285
    2AU     LIG  703  17.150   5.654   4.817
    2AU     LIG  704  17.205   5.423   4.384
    2AU     LIG  705  17.416   5.262   3.970
    2AU    AUSL  706  16.513   6.212   6.889
    2AU    AUSL  707  16.265   5.944   6.675
    2AU     AUL  708  16.480   5.737   6.580
    2AU       S  709  16.221   6.044   6.339
    2AU     LIG  710  16.196   5.756   6.007
    2AU     LIG  711  15.906   5.536   5.711
    2AU     LIG  712  15.701   5.466   5.289
    2AU     LIG  713  15.471   5.348   4.881
    2AU     LIG  714  15.389   5.123   4.447
    2AU     LIG  715  15.300   5.094   3.966
    2AU       S  716  16.654   6.190   6.514
    2AU     LIG  717  16.854   6.259   6.015
    2AU     LIG  718  16.972   6.116   5.565
    2AU     LIG  719  17.120   6.116   5.114
    2AU     LIG  720  17.136   6.197   4.653
    2AU     LIG  721  17.235   6.461   4.274
    2AU     LIG  722  17.363   6.711   3.911
    2AU    AUSL  723  15.960   6.219   8.237
    2AU    AUSL  724  16.072   6.645   8.141
    2AU     AUL  725  16.099   6.521   8.425
    2AU       S  726  15.878   6.208   8.698
    2AU     LIG  727  15.617   5.861   8.861
    2AU     LIG  728  15.422   5.702   9.271
    2AU     LIG  729  15.247   5.746   9.717
    2AU     LIG  730  14.936   5.711  10.092
    2AU     LIG  731  14.521   5.780  10.352
    2AU     LIG  732  14.126   5.952  10.596
    2AU       S  733  15.645   6.568   8.363
    2AU     LIG  734  15.716   6.737   8.778
    2AU     LIG  735  15.698   7.154   9.002
    2AU     LIG  736  15.461   7.441   9.288
    2AU     LIG  737  15.307   7.542   9.735
    2AU     LIG  738  15.125   7.673  10.167
    2AU     LIG  739  14.921   7.971  10.486
    2AU    AUSL  740  16.269   6.025   8.038
    2AU    AUSL  741  15.725   5.946   8.027
    2AU     AUL  742  15.772   6.065   8.272
    2AU       S  743  15.586   5.617   8.213
    2AU     LIG  744  15.174   5.487   8.008
    2AU     LIG  745  14.848   5.189   8.206
    2AU     LIG  746  14.619   4.937   8.555
    2AU     LIG  747  14.401   4.680   8.890
    2AU     LIG  748  14.131   4.620   9.276
    2AU     LIG  749  13.892   4.821   9.650
    2AU       S  750  16.082   5.953   8.616
    2AU     LIG  751  16.036   5.566   8.810
    2AU     LIG  752  15.890   5.483   9.258
    2AU     LIG  753  15.674   5.454   9.695
    2AU     LIG  754  15.414   5.434  10.109
    2AU     LIG  755  15.264   5.209  10.522
    2AU     LIG  756  15.218   5.123  10.997
    2AU    AUSL  757  16.006   6.089   6.969
    2AU    AUSL  758  16.153   5.664   6.956
    2AU     AUL  759  15.979   5.771   6.655
    2AU       S  760  15.979   6.123   6.332
    2AU     LIG  761  15.717   5.950   6.007
    2AU     LIG  762  15.495   5.833   5.608
    2AU     LIG  763  15.236   5.703   5.240
    2AU     LIG  764  14.812   5.754   5.036
    2AU     LIG  765  14.590   5.854   4.628
    2AU     LIG  766  14.286   6.006   4.313
    2AU       S  767  15.721   5.364   6.823
    2AU     LIG  768  15.474   4.997   6.789
    2AU     LIG  769  15.195   4.718   6.549
    2AU     LIG  770  14.855   4.594   6.243
    2AU     LIG  771  14.641   4.366   5.878
    2AU     LIG  772  14.753   4.123   5.462
    2AU     LIG  773  14.970   3.883   5.088
    2AU    AUSL  774  16.189   6.377   6.680
    2AU    AUSL  775  15.762   6.427   6.953
    2AU     AUL  776  15.782   6.199   6.733
    2AU       S  777  15.736   6.664   6.733
    2AU     LIG  778  15.473   6.828   6.346
    2AU     LIG  779  15.256   7.085   5.975
    2AU     LIG  780  15.035   7.182   5.534
    2AU     LIG  781  14.709   7.308   5.182
    2AU     LIG  782  14.283   7.411   4.968
    2AU     LIG  783  13.859   7.617   5.007
    2AU       S  784  16.189   6.306   6.478
    2AU     LIG  785  16.191   6.306   5.930
    2AU     LIG  786  15.987   6.034   5.573
    2AU     LIG  787  15.733   5.974   5.160
    2AU     LIG  788  15.724   6.131   4.695
    2AU     LIG  789  15.786   6.359   4.264
    2AU     LIG  790  15.800   6.446   3.788
    2AU    AUSL  791  17.011   6.785   7.436
    2AU    AUSL  792  17.042   6.527   7.090
    2AU     AUL  793  17.165   6.984   7.234
    2AU       S  794  17.166   6.619   6.916
    2AU     LIG  795  17.521   6.431   6.704
    2AU     LIG  796  17.758   6.558   6.304
    2AU     LIG  797  18.092   6.795   6.046
    2AU     LIG  798  18.404   6.870   5.678
    2AU     LIG  799  18.733   7.090   5.392
    2AU     LIG  800  19.014   7.428   5.192
    2AU       S  801  17.475   6.646   7.344
    2AU     LIG  802  17.972   6.675   7.446
    2AU     LIG  803  18.471   6.668   7.518
    2AU     LIG  804  18.969   6.764   7.534
    2AU     LIG  805  19.286   7.123   7.623
    2AU     LIG  806  19.526   7.541   7.560
    2AU     LIG  807  19.955   7.730   7.646
    2AU    AUSL  808  17.246   6.199   7.237
    2AU    AUSL  809  17.239   6.048   7.662
    2AU     AUL  810  17.505   5.976   7.430
    2AU       S  811  17.457   6.413   7.283
    2AU     LIG  812  17.873   6.302   7.118
    2AU     LIG  813  18.329   6.492   7.062
    2AU     LIG  814  18.803   6.403   7.195
    2AU     LIG  815  19.289   6.490   7.150
    2AU     LIG  816  19.776   6.521   7.063
    2AU     LIG  817  20.075   6.842   7.211
    2AU       S  818  17.538   5.568   7.695
    2AU     LIG  819  17.920   5.392   7.756
    2AU     LIG  820  18.307   5.160   7.777
    2AU     LIG  821  18.750   5.069   7.669
    2AU     LIG  822  19.202   5.184   7.718
    2AU     LIG  823  19.671   5.095   7.718
    2AU     LIG  824  19.979   4.857   7.994
    2AU    AUSL  825  17.024   6.385   7.561
    2AU    AUSL  826  16.921   6.726   7.843
    2AU     AUL  827  17.179   6.704   7.702
    2AU       S  828  17.190   6.721   8.163
    2AU     LIG  829  17.667   6.771   8.230
    2AU     LIG  830  17.969   6.991   8.496
    2AU     LIG  831  18.124   7.311   8.807
    2AU     LIG  832  18.266   7.729   9.001
    2AU     LIG  833  18.435   8.192   9.033
    2AU     LIG  834  18.742   8.541   9.150
    2AU       S  835  17.515   6.435   7.557
    2AU     LIG  836  17.857   6.425   7.884
    2AU     LIG  837  18.324   6.442   7.965
    2AU     LIG  838  18.767   6.397   7.838
    2AU     LIG  839  19.229   6.429   7.906
    2AU     LIG  840  19.581   6.697   8.050
    2AU     LIG  841  20.054   6.761   8.102
    2AU    AUSL  842  15.729   6.705   7.583
    2AU    AUSL  843  15.784   6.430   7.925
    2AU     AUL  844  15.735   6.887   7.839
    2AU       S  845  15.577   6.510   8.107
    2AU     LIG  846  15.237   6.819   8.392
    2AU     LIG  847  15.229   7.006   8.847
    2AU     LIG  848  15.025   7.138   9.286
    2AU     LIG  849  14.670   7.227   9.626
    2AU     LIG  850  14.286   7.363   9.907
    2AU     LIG  851  13.865   7.562  10.038
    2AU       S  852  15.352   6.731   7.647
    2AU     LIG  853  15.315   7.171   7.539
    2AU     LIG  854  15.022   7.561   7.537
    2AU     LIG  855  14.636   7.832   7.649
    2AU     LIG  856  14.223   8.069   7.555
    2AU     LIG  857  13.867   8.368   7.489
    2AU     LIG  858  13.422   8.321   7.564
    2AU    AUSL  859  15.817   6.363   7.356
    2AU    AUSL  860  15.894   6.776   7.198
    2AU     AUL  861  15.627   6.697   7.220
    2AU       S  862  15.242   6.643   7.479
    2AU     LIG  863  14.823   6.530   7.289
    2AU     LIG  864  14.422   6.628   7.015
    2AU     LIG  865  13.978   6.766   6.879
    2AU     LIG  866  13.532   6.852   6.710
    2AU     LIG  867  13.061   6.945   6.701
    2AU     LIG  868  12.736   7.319   6.643
    2AU       S  869  15.730   6.940   6.821
    2AU     LIG  870  15.748   7.242   6.452
    2AU     LIG  871  15.537   7.537   6.119
    2AU     LIG  872  15.357   7.970   5.967
    2AU     LIG  873  14.995   8.282   5.888
    2AU     LIG  874  14.809   8.724   5.865
    2AU     LIG  875  14.390   8.959   5.885
    2AU    AUSL  876  15.520   6.293   7.650
    2AU    AUSL  877  15.574   6.032   7.308
    2AU     AUL  878  15.422   6.287   7.258
    2AU       S  879  15.218   5.832   7.441
    2AU     LIG  880  14.804   5.815   7.724
    2AU     LIG  881  14.306   5.903   7.714
    2AU     LIG  882  13.883   6.043   7.481
    2AU     LIG  883  13.474   5.880   7.235
    2AU     LIG  884  13.065   5.615   7.110
    2AU     LIG  885  12.693   5.305   7.050
    2AU       S  886  15.330   6.343   7.728
    2AU     LIG  887  15.005   6.560   7.985
    2AU     LIG  888  14.537   6.662   8.110
    2AU     LIG  889  14.067   6.703   8.265
    2AU     LIG  890  13.670   6.926   8.392
    2AU     LIG  891  13.265   7.185   8.430
    2AU     LIG  892  12.814   7.078   8.303
    2AU    AUSL  893  17.099   5.648   7.579
    2AU    AUSL  894  17.055   5.849   7.974
    2AU     AUL  895  17.349   5.923   7.915
    2AU       S  896  17.243   5.391   7.561
    2AU     LIG  897  17.488   5.052   7.684
    2AU     LIG  898  17.907   4.853   7.649
    2AU     LIG  899  18.362   4.749   7.482
    2AU     LIG  900  18.795   4.519   7.513
    2AU     LIG  901  19.155   4.164   7.522
    2AU     LIG  902  19.576   3.902   7.538
    2AU       S  903  17.081   5.554   8.042
    2AU     LIG  904  17.501   5.273   8.142
    2AU     LIG  905  17.478   4.903   8.467
    2AU     LIG  906  17.607   4.661   8.877
    2AU     LIG  907  17.953   4.457   9.151
    2AU     LIG  908  18.368   4.422   9.407
    2AU     LIG  909  18.748   4.323   9.685
    2AU    AUSL  910  16.931   5.976   7.371
    2AU    AUSL  911  16.860   5.497   7.275
    2AU     AUL  912  17.199   5.708   7.193
    2AU       S  913  17.288   5.565   7.607
    2AU     LIG  914  17.644   5.346   7.275
    2AU     LIG  915  18.096   5.178   7.305
    2AU     LIG  916  18.577   5.194   7.210
    2AU     LIG  917  19.071   5.139   7.223
    2AU     LIG  918  19.577   5.105   7.192
    2AU     LIG  919  19.983   5.171   6.910
    2AU       S  920  17.111   5.258   7.084
    2AU     LIG  921  16.939   4.835   7.058
    2AU     LIG  922  17.054   4.500   6.735
    2AU     LIG  923  17.360   4.194   6.500
    2AU     LIG  924  17.699   3.934   6.254
    2AU     LIG  925  18.090   3.630   6.167
    2AU     LIG  926  18.514   3.398   6.029
    2AU    AUSL  927  15.674   5.656   7.501
    2AU    AUSL  928  15.765   5.764   7.065
    2AU     AUL  929  15.491   5.847   7.052
    2AU       S  930  15.704   5.441   7.058
    2AU     LIG  931  15.214   5.407   6.986
    2AU     LIG  932  14.920   5.134   6.710
    2AU     LIG  933  14.546   4.967   6.439
    2AU     LIG  934  14.171   4.781   6.187
    2AU     LIG  935  14.043   4.562   5.797
    2AU     LIG  936  13.925   4.636   5.346
    2AU       S  937  15.374   5.619   7.442
    2AU     LIG  938  14.971   5.379   7.506
    2AU     LIG  939  14.461   5.420   7.577
    2AU     LIG  940  13.993   5.268   7.738
    2AU     LIG  941  13.547   4.998   7.775
    2AU     LIG  942  13.100   4.744   7.748
    2AU     LIG  943  12.784   4.365   7.886
    2AU    AUSL  944  15.840   6.030   7.646
    2AU    AUSL  945  15.939   5.638   7.831
    2AU     AUL  946  15.545   5.834   7.812
    2AU       S  947  15.688   5.429   7.971
    2AU     LIG  948  15.467   5.124   7.790
    2AU     LIG  949  15.139   4.846   7.962
    2AU     LIG  950  14.801   4.604   8.211
    2AU     LIG  951  14.509   4.352   8.502
    2AU     LIG  952  14.344   3.984   8.765
    2AU     LIG  953  14.229   3.519   8.851
    2AU       S  954  15.262   5.914   7.473
    2AU     LIG  955  14.787   6.005   7.261
    2AU     LIG  956  14.331   5.826   7.215
    2AU     LIG  957  13.928   5.567   7.322
    2AU     LIG  958  13.528   5.498   7.594
    2AU     LIG  959  13.136   5.294   7.839
    2AU     LIG  960  12.664   5.307   7.961
    2AU    AUSL  961  16.432   6.838   8.045
    2AU    AUSL  962  16.108   6.614   7.728
    2AU     AUL  963  16.130   6.912   8.124
    2AU       S  964  15.723   6.740   8.264
    2AU     LIG  965  15.657   7.145   8.468
    2AU     LIG  966  15.745   7.568   8.677
    2AU     LIG  967  15.577   7.941   8.901
    2AU     LIG  968  15.361   8.346   9.033
    2AU     LIG  969  14.999   8.608   9.173
    2AU     LIG  970  14.614   8.886   9.224
    2AU       S  971  16.475   7.230   8.006
    2AU     LIG  972  16.607   7.446   8.359
    2AU     LIG  973  16.550   7.874   8.507
    2AU     LIG  974  16.508   8.236   8.779
    2AU     LIG  975  16.656   8.456   9.156
    2AU     LIG  976  16.849   8.804   9.419
    2AU     LIG  977  16.767   9.213   9.647
    2AU    AUSL  978  16.174   7.016   7.680
    2AU    AUSL  979  16.629   7.000   7.263
    2AU     AUL  980  16.313   7.251   7.431
    2AU       S  981  16.295   7.297   7.889
    2AU     LIG  982  16.234   7.711   8.115
    2AU     LIG  983  16.434   8.121   8.066
    2AU     LIG  984  16.446   8.500   8.332
    2AU     LIG  985  16.417   8.953   8.445
    2AU     LIG  986  16.128   9.320   8.357
    2AU     LIG  987  15.987   9.771   8.523
    2AU       S  988  16.634   7.337   7.086
    2AU     LIG  989  16.914   7.646   6.932
    2AU     LIG  990  16.928   8.098   6.842
    2AU     LIG  991  17.211   8.471   6.751
    2AU     LIG  992  17.519   8.845   6.716
    2AU     LIG  993  17.599   9.302   6.616
    2AU     LIG  994  17.468   9.752   6.582
    2AU    AUSL  995  16.580   6.860   7.653
    2AU    AUSL  996  16.590   6.483   7.913
    2AU     AUL  997  16.757   6.870   8.055
    2AU       S  998  17.198   6.586   8.172
    2AU     LIG  999  17.378   6.590   8.615
    2AU     LIG 1000  17.642   6.872   8.889
    2AU     LIG 1001  17.850   7.163   9.218
    2AU     LIG 1002  17.983   7.530   9.517
    2AU     LIG 1003  17.940   7.882   9.873
    2AU     LIG 1004  18.034   8.171  10.250
    2AU       S 1005  16.656   7.191   7.737
    2AU     LIG 1006  16.709   7.672   7.904
    2AU     LIG 1007  16.919   8.035   8.181
    2AU     LIG 1008  16.985   8.506   8.326
    2AU     LIG 1009  17.238   8.950   8.354
    2AU     LIG 1010  17.492   9.396   8.346
    2AU     LIG 1011  17.509   9.890   8.362
    2AU    AUSL 1012  16.366   5.588   7.951
    2AU    AUSL 1013  16.726   5.715   7.745
    2AU     AUL 1014  16.586   5.460   8.190
    2AU       S 1015  16.377   5.041   8.049
    2AU     LIG 1016  16.124   4.736   8.246
    2AU     LIG 1017  16.222   4.285   8.241
    2AU     LIG 1018  16.181   3.873   8.457
    2AU     LIG 1019  16.079   3.516   8.741
    2AU     LIG 1020  16.096   3.365   9.198
    2AU     LIG 1021  16.031   3.048   9.548
    2AU       S 1022  17.012   5.365   7.969
    2AU     LIG 1023  16.966   4.922   7.903
    2AU     LIG 1024  17.133   4.610   8.202
    2AU     LIG 1025  17.393   4.367   8.523
    2AU     LIG 1026  17.614   4.026   8.787
    2AU     LIG 1027  17.942   3.631   8.766
    2AU     LIG 1028  18.353   3.338   8.707
    2AU    AUSL 1029  16.181   5.333   7.682
    2AU    AUSL 1030  16.080   5.719   8.230
    2AU     AUL 1031  16.122   5.411   8.099
    2AU       S 1032  16.102   5.077   7.792
    2AU     LIG 1033  15.847   4.775   7.633
    2AU     LIG 1034  15.870   4.355   7.833
    2AU     LIG 1035  15.898   3.921   8.026
    2AU     LIG 1036  15.925   3.469   8.218
    2AU     LIG 1037  15.782   2.994   8.250
    2AU     LIG 1038  15.715   2.497   8.202
    2AU       S 1039  15.757   5.568   8.315
    2AU     LIG 1040  15.449   5.152   8.319
    2AU     LIG 1041  15.139   4.861   8.501
    2AU     LIG 1042  14.902   4.548   8.763
    2AU     LIG 1043  14.663   4.266   9.070
    2AU     LIG 1044  14.612   3.985   9.463
    2AU     LIG 1045  14.595   3.705   9.863
    2AU    AUSL 1046  16.633   5.312   7.730
    2AU    AUSL 1047  16.136   5.325   7.266
    2AU     AUL 1048  16.456   5.065   7.496
    2AU       S 1049  16.052   5.009   7.148
    2AU     LIG 1050  15.749   4.698   7.116
    2AU     LIG 1051  15.700   4.244   7.072
    2AU     LIG 1052  15.851   3.819   6.890
    2AU     LIG 1053  15.731   3.360   6.769
    2AU     LIG 1054  15.546   2.896   6.753
    2AU     LIG 1055  15.434   2.413   6.770
    2AU       S 1056  16.466   5.088   7.940
    2AU     LIG 1057  16.316   4.617   7.806
    2AU     LIG 1058  16.340   4.134   7.760
    2AU     LIG 1059  16.364   3.695   8.001
    2AU     LIG 1060  16.392   3.205   8.127
    2AU     LIG 1061  16.629   2.743   8.124
    2AU     LIG 1062  17.011   2.459   8.243
    2AU    AUSL 1063  16.374   6.813   6.947
    2AU    AUSL 1064  16.682   6.589   7.274
    2AU     AUL 1065  16.754   6.903   7.012
    2AU       S 1066  16.410   7.094   6.762
    2AU     LIG 1067  16.660   7.413   6.553
    2AU     LIG 1068  16.665   7.869   6.459
    2AU     LIG 1069  16.609   8.222   6.151
    2AU     LIG 1070  16.573   8.562   5.817
    2AU     LIG 1071  16.448   8.854   5.466
    2AU     LIG 1072  16.415   9.238   5.205
    2AU       S 1073  17.116   6.607   6.981
    2AU     LIG 1074  17.501   6.938   6.796
    2AU     LIG 1075  17.845   7.044   6.462
    2AU     LIG 1076  18.079   7.321   6.156
    2AU     LIG 1077  18.330   7.730   6.097
    2AU     LIG 1078  18.571   8.136   5.999
    2AU     LIG 1079  18.859   8.472   5.821
    2AU    AUSL 1080  16.277   6.783   7.355
    2AU    AUSL 1081  16.170   6.482   7.075
    2AU     AUL 1082  16.102   6.970   7.104
    2AU       S 1083  16.444   7.272   6.994
    2AU     LIG 1084  16.406   7.758   6.902
    2AU     LIG 1085  16.399   8.231   6.819
    2AU     LIG 1086  16.221   8.691   6.861
    2AU     LIG 1087  16.343   9.111   6.757
    2AU     LIG 1088  16.148   9.447   6.517
    2AU     LIG 1089  15.944   9.859   6.495
    2AU       S 1090  15.968   6.778   6.699
    2AU     LIG 1091  15.979   6.793   6.261
    2AU     LIG 1092  15.770   7.091   5.945
    2AU     LIG 1093  15.525   7.358   5.614
    2AU     LIG 1094  15.303   7.473   5.186
    2AU     LIG 1095  15.162   7.805   4.866
    2AU     LIG 1096  14.921   8.123   4.606
    2AU    AUSL 1097  16.484   5.418   7.002
    2AU    AUSL 1098  16.060   5.715   7.366
    2AU     AUL 1099  16.161   5.414   6.933
    2AU       S 1100  15.672   5.324   7.177
    2AU     LIG 1101  15.389   5.038   7.298
    2AU     LIG 1102  15.081   4.795   7.070
    2AU     LIG 1103  14.745   4.633   6.781
    2AU     LIG 1104  14.430   4.452   6.490
    2AU     LIG 1105  14.214   4.226   6.157
    2AU     LIG 1106  14.040   3.804   6.044
    2AU       S 1107  16.317   4.998   7.042
    2AU     LIG 1108  16.183   4.636   6.811
    2AU     LIG 1109  15.978   4.272   6.637
    2AU     LIG 1110  16.139   3.882   6.450
    2AU     LIG 1111  16.064   3.555   6.107
    2AU     LIG 1112  16.097   3.204   5.777
    2AU     LIG 1113  16.180   2.853   5.452
    2AU    AUSL 1114  16.472   5.526   7.418
    2AU    AUSL 1115  16.591   5.800   7.109
    2AU     AUL 1116  16.660   5.303   7.161
    2AU       S 1117  16.073   5.108   7.279
    2AU     LIG 1118  16.217   4.582   7.320
    2AU     LIG 1119  16.201   4.154   7.102
    2AU     LIG 1120  16.423   3.764   6.907
    2AU     LIG 1121  16.601   3.272   6.890
    2AU     LIG 1122  16.728   2.765   6.862
    2AU     LIG 1123  17.033   2.386   6.749
    2AU       S 1124  16.873   5.397   6.764
    2AU     LIG 1125  16.709   4.970   6.622
    2AU     LIG 1126  16.882   4.654   6.290
    2AU     LIG 1127  17.145   4.358   6.033
    2AU     LIG 1128  17.306   4.074   5.701
    2AU     LIG 1129  17.438   3.923   5.260
    2AU     LIG 1130  17.748   3.800   4.913
    3AU     AUC 1131  41.246  35.722   7.505
    3AU     AUC 1132  41.504  35.718   7.339
    3AU     AUC 1133  41.502  35.709   7.649
    3AU     AUC 1134  41.000  35.724   7.344
    3AU     AUC 1135  40.983  35.745   7.650
    3AU     AUC 1136  41.103  35.983   7.505
    3AU     AUC 1137  41.404  35.975   7.480
    3AU     AUC 1138  41.088  35.469   7.518
    3AU     AUC 1139  41.387  35.464   7.528
    3AU     AUC 1140  41.236  35.574   7.768
    3AU     AUC 1141  41.273  35.889   7.755
    3AU     AUC 1142  41.247  35.554   7.249
    3AU     AUC 1143  41.237  35.860   7.240
    3AU     AUC 1144  41.756  35.713   7.179
    3AU     AUC 1145  41.767  35.713   7.484
    3AU     AUC 1146  41.760  35.707   7.803
    3AU     AUC 1147  40.740  35.716   7.188
    3AU     AUC 1148  40.727  35.748   7.490
    3AU     AUC 1149  40.737  35.768   7.813
    3AU     AUC 1150  40.966  36.255   7.506
    3AU     AUC 1151  41.272  36.249   7.495
    3AU     AUC 1152  41.573  36.237   7.485
    3AU     AUC 1153  40.898  35.218   7.532
    3AU     AUC 1154  41.220  35.196   7.518
    3AU     AUC 1155  41.536  35.195   7.535
    3AU     AUC 1156  41.218  35.419   8.020
    3AU     AUC 1157  41.250  35.733   8.034
    3AU     AUC 1158  41.276  36.044   8.023
    3AU     AUC 1159  41.246  35.373   7.017
    3AU     AUC 1160  41.254  35.692   6.979
    3AU     AUC 1161  41.235  36.008   6.973
    3AU     AUC 1162  41.518  35.573   7.929
    3AU     AUC 1163  41.515  35.867   7.927
    3AU     AUC 1164  41.515  35.542   7.085
    3AU     AUC 1165  41.511  35.857   7.067
    3AU     AUC 1166  40.975  35.599   7.934
    3AU     AUC 1167  40.998  35.907   7.932
    3AU     AUC 1168  40.996  35.548   7.077
    3AU     AUC 1169  40.987  35.864   7.077
    3AU     AUC 1170  41.664  35.983   7.317
    3AU     AUC 1171  41.669  35.959   7.645
    3AU     AUC 1172  40.835  35.988   7.348
    3AU     AUC 1173  40.844  36.014   7.669
    3AU     AUC 1174  41.657  35.454   7.356
    3AU     AUC 1175  41.660  35.450   7.672
    3AU     AUC 1176  40.818  35.470   7.349
    3AU     AUC 1177  40.821  35.491   7.685
    3AU     AUC 1178  41.108  36.147   7.773
    3AU     AUC 1179  41.430  36.148   7.741
    3AU     AUC 1180  41.064  35.307   7.770
    3AU     AUC 1181  41.387  35.307   7.791
    3AU     AUC 1182  41.093  36.138   7.237
    3AU     AUC 1183  41.411  36.122   7.220
    3AU     AUC 1184  41.066  35.303   7.255
    3AU     AUC 1185  41.397  35.288   7.274
    3AU    AUSL 1186  41.587  35.673   8.109
    3AU    AUSL 1187  41.565  35.239   8.142
    3AU     AUL 1188  41.795  35.330   8.397
    3AU       S 1189  41.844  34.957   8.082
    3AU     LIG 1190  41.706  34.736   8.439
    3AU     LIG 1191  41.787  34.369   8.680
    3AU     LIG 1192  42.032  34.065   8.901
    3AU     LIG 1193  42.268  33.737   9.124
    3AU     LIG 1194  42.563  33.558   9.438
    3AU     LIG 1195  42.573  33.381   9.876
    3AU       S 1196  41.648  35.680   8.662
    3AU     LIG 1197  41.874  35.462   8.965
    3AU     LIG 1198  42.230  35.245   9.168
    3AU     LIG 1199  42.637  35.288   9.406
    3AU     LIG 1200  42.800  35.356   9.840
    3AU     LIG 1201  43.046  35.504  10.204
    3AU     LIG 1202  43.159  35.590  10.649
    3AU    AUSL 1203  41.309  35.492   8.371
    3AU    AUSL 1204  41.194  35.900   8.301
    3AU     AUL 1205  41.242  35.864   8.713
    3AU       S 1206  41.389  35.494   8.514
    3AU     LIG 1207  41.511  35.133   8.762
    3AU     LIG 1208  41.734  35.000   9.174
    3AU     LIG 1209  41.774  34.887   9.648
    3AU     LIG 1210  41.789  34.801  10.126
    3AU     LIG 1211  41.834  34.686  10.598
    3AU     LIG 1212  42.151  34.571  10.936
    3AU       S 1213  40.871  35.618   8.648
    3AU     LIG 1214  40.769  35.532   9.114
    3AU     LIG 1215  40.554  35.489   9.531
    3AU     LIG 1216  40.397  35.537   9.976
    3AU     LIG 1217  40.373  35.870  10.342
    3AU     LIG 1218  40.372  36.145  10.749
    3AU     LIG 1219  40.185  36.337  11.159
    3AU    AUSL 1220  41.577  36.051   8.292
    3AU    AUSL 1221  41.923  35.912   8.009
    3AU     AUL 1222  41.874  35.775   8.288
    3AU       S 1223  41.595  36.070   8.502
    3AU     LIG 1224  41.869  36.094   8.880
    3AU     LIG 1225  42.002  36.328   9.285
    3AU     LIG 1226  41.967  36.450   9.760
    3AU     LIG 1227  42.019  36.618  10.207
    3AU     LIG 1228  41.999  36.738  10.674
    3AU     LIG 1229  42.076  36.580  11.113
    3AU       S 1230  42.235  35.964   8.071
    3AU     LIG 1231  42.397  35.933   8.467
    3AU     LIG 1232  42.683  36.161   8.744
    3AU     LIG 1233  42.943  36.398   9.059
    3AU     LIG 1234  43.256  36.452   9.414
    3AU     LIG 1235  43.605  36.519   9.730
    3AU     LIG 1236  43.894  36.827   9.940
    3AU    AUSL 1237  41.784  35.737   6.880
    3AU    AUSL 1238  41.522  36.144   6.804
    3AU     AUL 1239  41.883  36.080   6.444
    3AU       S 1240  41.815  35.766   6.722
    3AU     LIG 1241  42.111  35.666   6.338
    3AU     LIG 1242  42.088  35.535   5.896
    3AU     LIG 1243  42.231  35.419   5.455
    3AU     LIG 1244  42.568  35.464   5.100
    3AU     LIG 1245  42.990  35.507   4.844
    3AU     LIG 1246  43.324  35.566   4.488
    3AU       S 1247  41.517  36.208   6.643
    3AU     LIG 1248  41.816  36.583   6.545
    3AU     LIG 1249  42.184  36.707   6.235
    3AU     LIG 1250  42.361  36.891   5.798
    3AU     LIG 1251  42.528  37.152   5.402
    3AU     LIG 1252  42.837  37.426   5.138
    3AU     LIG 1253  43.131  37.517   4.747
    3AU    AUSL 1254  41.522  35.423   6.704
    3AU    AUSL 1255  41.859  35.344   6.995
    3AU     AUL 1256  41.951  35.360   6.681
    3AU       S 1257  41.864  34.930   6.820
    3AU     LIG 1258  42.108  34.728   6.468
    3AU     LIG 1259  42.355  34.338   6.307
    3AU     LIG 1260  42.607  34.003   6.058
    3AU     LIG 1261  42.927  33.901   5.700
    3AU     LIG 1262  43.270  33.915   5.341
    3AU     LIG 1263  43.567  34.048   4.975
    3AU       S 1264  41.624  35.637   6.452
    3AU     LIG 1265  41.738  35.272   6.221
    3AU     LIG 1266  41.780  35.150   5.756
    3AU     LIG 1267  41.811  35.151   5.272
    3AU     LIG 1268  41.856  35.149   4.784
    3AU     LIG 1269  41.852  34.967   4.331
    3AU     LIG 1270  42.059  34.834   3.923
    3AU    AUSL 1271  41.364  35.776   6.882
    3AU    AUSL 1272  41.110  35.518   6.663
    3AU     AUL 1273  41.318  35.303   6.571
    3AU       S 1274  41.073  35.617   6.326
    3AU     LIG 1275  41.014  35.331   5.983
    3AU     LIG 1276  40.713  35.117   5.679
    3AU     LIG 1277  40.462  34.993   5.283
    3AU     LIG 1278  40.341  34.672   4.928
    3AU     LIG 1279  40.333  34.495   4.471
    3AU     LIG 1280  40.278  34.642   4.019
    3AU       S 1281  41.507  35.749   6.514
    3AU     LIG 1282  41.550  35.693   5.978
    3AU     LIG 1283  41.733  35.614   5.520
    3AU     LIG 1284  41.932  35.609   5.069
    3AU     LIG 1285  41.961  35.652   4.592
    3AU     LIG 1286  42.003  35.909   4.177
    3AU     LIG 1287  42.091  36.168   3.777
    3AU    AUSL 1288  40.802  35.788   8.217
    3AU    AUSL 1289  40.952  36.201   8.143
    3AU     AUL 1290  40.969  36.091   8.424
    3AU       S 1291  40.709  35.788   8.675
    3AU     LIG 1292  40.404  35.429   8.761
    3AU     LIG 1293  40.228  35.277   9.195
    3AU     LIG 1294  40.049  35.272   9.666
    3AU     LIG 1295  39.711  35.209  10.033
    3AU     LIG 1296  39.339  35.320  10.368
    3AU     LIG 1297  38.938  35.351  10.673
    3AU       S 1298  40.517  36.161   8.368
    3AU     LIG 1299  40.559  36.310   8.790
    3AU     LIG 1300  40.464  36.715   9.021
    3AU     LIG 1301  40.298  37.105   9.250
    3AU     LIG 1302  40.192  37.305   9.686
    3AU     LIG 1303  40.034  37.386  10.147
    3AU     LIG 1304  39.806  37.557  10.541
    3AU    AUSL 1305  41.112  35.589   8.022
    3AU    AUSL 1306  40.558  35.522   8.008
    3AU     AUL 1307  40.608  35.652   8.248
    3AU       S 1308  40.403  35.222   8.239
    3AU     LIG 1309  39.998  34.975   8.224
    3AU     LIG 1310  39.602  34.739   8.323
    3AU     LIG 1311  39.374  34.440   8.609
    3AU     LIG 1312  39.136  34.141   8.898
    3AU     LIG 1313  38.772  34.002   9.176
    3AU     LIG 1314  38.373  34.107   9.441
    3AU       S 1315  40.908  35.517   8.600
    3AU     LIG 1316  40.811  35.118   8.807
    3AU     LIG 1317  40.677  35.032   9.253
    3AU     LIG 1318  40.489  35.007   9.689
    3AU     LIG 1319  40.239  34.915  10.081
    3AU     LIG 1320  40.204  34.637  10.477
    3AU     LIG 1321  40.166  34.574  10.945
    3AU    AUSL 1322  40.855  35.670   6.958
    3AU    AUSL 1323  40.993  35.242   6.946
    3AU     AUL 1324  40.818  35.354   6.644
    3AU       S 1325  40.830  35.702   6.318
    3AU     LIG 1326  40.553  35.567   5.964
    3AU     LIG 1327  40.313  35.421   5.569
    3AU     LIG 1328  39.969  35.196   5.311
    3AU     LIG 1329  39.583  35.220   5.020
    3AU     LIG 1330  39.230  35.209   4.697
    3AU     LIG 1331  39.143  35.420   4.280
    3AU       S 1332  40.553  34.948   6.816
    3AU     LIG 1333  40.284  34.584   6.795
    3AU     LIG 1334  39.984  34.335   6.530
    3AU     LIG 1335  39.709  34.089   6.230
    3AU     LIG 1336  39.597  33.826   5.852
    3AU     LIG 1337  39.698  33.577   5.443
    3AU     LIG 1338  39.622  33.296   5.057
    3AU    AUSL 1339  41.047  35.953   6.670
    3AU    AUSL 1340  40.617  36.014   6.948
    3AU     AUL 1341  40.641  35.792   6.720
    3AU       S 1342  40.562  36.250   6.745
    3AU     LIG 1343  40.165  36.359   6.498
    3AU     LIG 1344  39.952  36.367   6.061
    3AU     LIG 1345  39.849  36.589   5.653
    3AU     LIG 1346  39.553  36.820   5.352
    3AU     LIG 1347  39.314  37.009   4.975
    3AU     LIG 1348  38.909  37.195   4.816
    3AU       S 1349  41.049  35.876   6.460
    3AU     LIG 1350  41.045  35.862   5.907
    3AU     LIG 1351  40.842  35.605   5.543
    3AU     LIG 1352  40.578  35.583   5.141
    3AU     LIG 1353  40.463  35.849   4.738
    3AU     LIG 1354  40.257  36.122   4.384
    3AU     LIG 1355  40.118  36.257   3.941
    3AU    AUSL 1356  41.914  36.260   7.431
    3AU    AUSL 1357  41.884  36.114   7.025
    3AU     AUL 1358  41.991  36.516   7.253
    3AU       S 1359  41.988  36.236   6.859
    3AU     LIG 1360  42.368  36.005   6.701
    3AU     LIG 1361  42.788  36.125   6.470
    3AU     LIG 1362  43.078  36.291   6.101
    3AU     LIG 1363  43.356  36.472   5.722
    3AU     LIG 1364  43.698  36.684   5.433
    3AU     LIG 1365  43.926  36.972   5.107
    3AU       S 1366  42.364  36.226   7.332
    3AU     LIG 1367  42.845  36.218   7.494
    3AU     LIG 1368  43.309  36.315   7.581
    3AU     LIG 1369  43.766  36.468   7.553
    3AU     LIG 1370  44.079  36.859   7.544
    3AU     LIG 1371  44.284  37.271   7.711
    3AU     LIG 1372  44.658  37.560   7.849
    3AU    AUSL 1373  42.058  35.830   7.265
    3AU    AUSL 1374  42.112  35.603   7.638
    3AU     AUL 1375  42.265  35.566   7.233
    3AU       S 1376  42.305  36.024   7.264
    3AU     LIG 1377  42.743  35.933   7.087
    3AU     LIG 1378  43.210  36.090   7.115
    3AU     LIG 1379  43.657  35.854   7.072
    3AU     LIG 1380  44.168  35.864   7.009
    3AU     LIG 1381  44.652  36.013   7.068
    3AU     LIG 1382  44.936  36.417   7.126
    3AU       S 1383  42.468  35.361   7.596
    3AU     LIG 1384  42.716  35.171   7.897
    3AU     LIG 1385  42.985  34.817   7.901
    3AU     LIG 1386  43.345  34.521   7.881
    3AU     LIG 1387  43.816  34.499   7.841
    3AU     LIG 1388  44.264  34.626   7.987
    3AU     LIG 1389  44.673  34.558   8.216
    3AU    AUSL 1390  41.817  35.890   7.614
    3AU    AUSL 1391  41.792  36.280   7.833
    3AU     AUL 1392  42.068  36.169   7.695
    3AU       S 1393  42.074  36.243   8.140
    3AU     LIG 1394  42.512  36.379   8.222
    3AU     LIG 1395  42.690  36.641   8.570
    3AU     LIG 1396  42.903  36.939   8.861
    3AU     LIG 1397  43.138  37.369   8.863
    3AU     LIG 1398  43.365  37.798   8.891
    3AU     LIG 1399  43.669  38.087   9.106
    3AU       S 1400  42.425  35.936   7.544
    3AU     LIG 1401  42.718  35.966   7.928
    3AU     LIG 1402  43.185  36.006   7.989
    3AU     LIG 1403  43.660  35.904   7.966
    3AU     LIG 1404  44.164  35.863   7.972
    3AU     LIG 1405  44.624  36.039   8.018
    3AU     LIG 1406  44.996  36.281   8.210
    3AU    AUSL 1407  40.595  36.297   7.576
    3AU    AUSL 1408  40.635  36.031   7.924
    3AU     AUL 1409  40.606  36.479   7.842
    3AU       S 1410  40.443  36.105   8.101
    3AU     LIG 1411  40.077  36.366   8.327
    3AU     LIG 1412  40.030  36.506   8.782
    3AU     LIG 1413  39.695  36.556   9.135
    3AU     LIG 1414  39.393  36.766   9.445
    3AU     LIG 1415  39.055  36.975   9.714
    3AU     LIG 1416  38.658  37.143   9.914
    3AU       S 1417  40.216  36.329   7.654
    3AU     LIG 1418  40.000  36.749   7.490
    3AU     LIG 1419  39.713  37.172   7.474
    3AU     LIG 1420  39.349  37.527   7.512
    3AU     LIG 1421  38.894  37.666   7.638
    3AU     LIG 1422  38.472  37.804   7.871
    3AU     LIG 1423  37.981  37.842   7.899
    3AU    AUSL 1424  40.671  35.953   7.352
    3AU    AUSL 1425  40.764  36.361   7.192
    3AU     AUL 1426  40.492  36.293   7.223
    3AU       S 1427  40.115  36.245   7.493
    3AU     LIG 1428  39.896  36.311   7.095
    3AU     LIG 1429  39.517  36.482   6.822
    3AU     LIG 1430  39.064  36.649   6.727
    3AU     LIG 1431  38.608  36.823   6.704
    3AU     LIG 1432  38.140  36.845   6.838
    3AU     LIG 1433  37.671  36.721   6.874
    3AU       S 1434  40.592  36.522   6.817
    3AU     LIG 1435  40.544  36.842   6.482
    3AU     LIG 1436  40.479  37.184   6.156
    3AU     LIG 1437  40.189  37.429   5.883
    3AU     LIG 1438  39.979  37.848   5.934
    3AU     LIG 1439  39.685  38.205   6.026
    3AU     LIG 1440  39.216  38.250   5.960
    3AU    AUSL 1441  40.376  35.879   7.649
    3AU    AUSL 1442  40.424  35.627   7.297
    3AU     AUL 1443  40.274  35.890   7.254
    3AU       S 1444  40.075  35.460   7.429
    3AU     LIG 1445  39.654  35.449   7.690
    3AU     LIG 1446  39.174  35.514   7.702
    3AU     LIG 1447  38.717  35.519   7.523
    3AU     LIG 1448  38.293  35.406   7.323
    3AU     LIG 1449  37.891  35.133   7.262
    3AU     LIG 1450  37.640  34.755   7.131
    3AU       S 1451  40.196  35.930   7.727
    3AU     LIG 1452  39.846  36.102   7.944
    3AU     LIG 1453  39.497  36.365   8.113
    3AU     LIG 1454  39.158  36.565   8.380
    3AU     LIG 1455  38.691  36.656   8.331
    3AU     LIG 1456  38.230  36.783   8.305
    3AU     LIG 1457  37.771  36.838   8.128
    3AU    AUSL 1458  41.949  35.200   7.583
    3AU    AUSL 1459  41.888  35.442   7.947
    3AU     AUL 1460  42.173  35.450   7.938
    3AU       S 1461  42.202  35.072   7.636
    3AU     LIG 1462  42.445  34.716   7.807
    3AU     LIG 1463  42.794  34.396   7.676
    3AU     LIG 1464  43.215  34.188   7.517
    3AU     LIG 1465  43.679  34.039   7.583
    3AU     LIG 1466  44.030  33.713   7.729
    3AU     LIG 1467  44.275  33.342   7.955
    3AU       S 1468  41.895  35.086   8.027
    3AU     LIG 1469  42.271  34.842   8.283
    3AU     LIG 1470  42.294  34.414   8.534
    3AU     LIG 1471  42.524  34.060   8.766
    3AU     LIG 1472  42.791  33.868   9.097
    3AU     LIG 1473  43.138  33.836   9.426
    3AU     LIG 1474  43.506  33.923   9.728
    3AU    AUSL 1475  41.797  35.522   7.359
    3AU    AUSL 1476  41.698  35.058   7.276
    3AU     AUL 1477  41.996  35.177   7.211
    3AU       S 1478  42.302  35.190   7.543
    3AU     LIG 1479  42.689  34.923   7.413
    3AU     LIG 1480  43.121  34.697   7.427
    3AU     LIG 1481  43.563  34.561   7.394
    3AU     LIG 1482  44.038  34.505   7.359
    3AU     LIG 1483  44.476  34.510   7.141
    3AU     LIG 1484  44.784  34.571   6.791
    3AU       S 1485  41.916  34.778   6.973
    3AU     LIG 1486  41.947  34.351   6.777
    3AU     LIG 1487  42.104  33.958   6.550
    3AU     LIG 1488  42.341  33.617   6.321
    3AU     LIG 1489  42.684  33.306   6.350
    3AU     LIG 1490  43.079  33.048   6.256
    3AU     LIG 1491  43.393  32.740   6.093
    3AU    AUSL 1492  40.513  35.246   7.486
    3AU    AUSL 1493  40.606  35.352   7.053
    3AU     AUL 1494  40.341  35.458   7.032
    3AU       S 1495  40.537  35.042   7.043
    3AU     LIG 1496  40.056  35.046   6.956
    3AU     LIG 1497  39.759  34.754   6.751
    3AU     LIG 1498  39.485  34.504   6.446
    3AU     LIG 1499  39.197  34.253   6.153
    3AU     LIG 1500  38.819  34.223   5.846
    3AU     LIG 1501  38.737  34.153   5.388
    3AU       S 1502  40.203  35.235   7.412
    3AU     LIG 1503  39.800  35.024   7.422
    3AU     LIG 1504  39.334  35.043   7.511
    3AU     LIG 1505  38.954  34.765   7.634
    3AU     LIG 1506  38.528  34.518   7.677
    3AU     LIG 1507  38.204  34.178   7.833
    3AU     LIG 1508  37.891  33.794   7.756
    3AU    AUSL 1509  40.692  35.613   7.636
    3AU    AUSL 1510  40.779  35.215   7.813
    3AU     AUL 1511  40.396  35.388   7.801
    3AU       S 1512  40.487  35.020   8.064
    3AU     LIG 1513  40.205  34.860   7.765
    3AU     LIG 1514  39.885  34.544   7.924
    3AU     LIG 1515  39.654  34.227   8.221
    3AU     LIG 1516  39.369  33.926   8.488
    3AU     LIG 1517  39.104  33.596   8.747
    3AU     LIG 1518  38.919  33.134   8.714
    3AU       S 1519  40.120  35.512   7.466
    3AU     LIG 1520  39.665  35.483   7.176
    3AU     LIG 1521  39.192  35.437   7.195
    3AU     LIG 1522  38.845  35.114   7.263
    3AU     LIG 1523  38.522  35.035   7.597
    3AU     LIG 1524  38.089  35.032   7.725
    3AU     LIG 1525  37.678  34.813   7.642
    3AU    AUSL 1526  41.300  36.408   8.036
    3AU    AUSL 1527  40.968  36.193   7.727
    3AU     AUL 1528  41.003  36.483   8.118
    3AU       S 1529  40.597  36.332   8.272
    3AU     LIG 1530  40.445  36.716   8.493
    3AU     LIG 1531  40.483  37.148   8.719
    3AU     LIG 1532  40.274  37.549   8.831
    3AU     LIG 1533  39.981  37.716   9.157
    3AU     LIG 1534  39.603  37.784   9.430
    3AU     LIG 1535  39.197  38.026   9.490
    3AU       S 1536  41.354  36.795   8.007
    3AU     LIG 1537  41.437  37.045   8.362
    3AU     LIG 1538  41.309  37.463   8.472
    3AU     LIG 1539  41.395  37.845   8.685
    3AU     LIG 1540  41.418  38.197   9.006
    3AU     LIG 1541  41.528  38.467   9.383
    3AU     LIG 1542  41.621  38.850   9.653
    3AU    AUSL 1543  41.051  36.591   7.675
    3AU    AUSL 1544  41.498  36.566   7.260
    3AU     AUL 1545  41.176  36.816   7.431
    3AU       S 1546  41.189  36.873   7.888
    3AU     LIG 1547  41.355  37.325   7.945
    3AU     LIG 1548  41.376  37.794   8.061
    3AU     LIG 1549  41.287  38.193   8.316
    3AU     LIG 1550  41.076  38.622   8.384
    3AU     LIG 1551  40.920  39.057   8.200
    3AU     LIG 1552  40.782  39.500   8.316
    3AU       S 1553  41.513  36.910   7.110
    3AU     LIG 1554  41.768  37.158   6.864
    3AU     LIG 1555  41.711  37.588   6.718
    3AU     LIG 1556  41.849  38.030   6.632
    3AU     LIG 1557  42.079  38.452   6.597
    3AU     LIG 1558  42.140  38.923   6.520
    3AU     LIG 1559  42.018  39.382   6.437
    3AU    AUSL 1560  41.454  36.421   7.646
    3AU    AUSL 1561  41.449  36.047   7.906
    3AU     AUL 1562  41.633  36.433   8.038
    3AU       S 1563  42.005  36.212   8.245
    3AU     LIG 1564  42.212  36.389   8.637
    3AU     LIG 1565  42.442  36.543   9.023
    3AU     LIG 1566  42.719  36.779   9.337
    3AU     LIG 1567  42.795  37.008   9.758
    3AU     LIG 1568  42.785  37.325  10.134
    3AU     LIG 1569  42.888  37.733  10.369
    3AU       S 1570  41.533  36.751   7.721
    3AU     LIG 1571  41.790  37.061   7.977
    3AU     LIG 1572  41.767  37.482   8.228
    3AU     LIG 1573  41.776  37.961   8.348
    3AU     LIG 1574  41.925  38.431   8.396
    3AU     LIG 1575  42.134  38.891   8.408
    3AU     LIG 1576  42.307  39.366   8.405
    3AU    AUSL 1577  41.207  35.154   7.945
    3AU    AUSL 1578  41.566  35.276   7.724
    3AU     AUL 1579  41.406  35.024   8.181
    3AU       S 1580  41.214  34.608   8.031
    3AU     LIG 1581  40.993  34.336   8.278
    3AU     LIG 1582  41.004  33.893   8.296
    3AU     LIG 1583  41.088  33.510   8.527
    3AU     LIG 1584  40.925  33.105   8.694
    3AU     LIG 1585  40.818  32.827   9.072
    3AU     LIG 1586  40.794  32.495   9.421
    3AU       S 1587  41.864  34.886   7.926
    3AU     LIG 1588  41.979  34.450   8.120
    3AU     LIG 1589  41.976  34.015   8.359
    3AU     LIG 1590  42.227  33.669   8.603
    3AU     LIG 1591  42.579  33.437   8.848
    3AU     LIG 1592  42.931  33.122   8.918
    3AU     LIG 1593  43.311  32.844   8.788
    3AU    AUSL 1594  41.018  34.906   7.670
    3AU    AUSL 1595  40.910  35.289   8.212
    3AU     AUL 1596  40.940  34.968   8.055
    3AU       S 1597  40.961  34.584   7.809
    3AU     LIG 1598  40.686  34.259   7.720
    3AU     LIG 1599  40.687  33.824   7.853
    3AU     LIG 1600  40.771  33.429   8.119
    3AU     LIG 1601  40.643  32.976   8.267
    3AU     LIG 1602  40.441  32.519   8.335
    3AU     LIG 1603  40.284  32.046   8.410
    3AU       S 1604  40.638  35.176   8.327
    3AU     LIG 1605  40.395  34.815   8.534
    3AU     LIG 1606  40.027  34.498   8.493
    3AU     LIG 1607  39.782  34.146   8.722
    3AU     LIG 1608  39.534  33.820   8.977
    3AU     LIG 1609  39.382  33.555   9.347
    3AU     LIG 1610  39.358  33.402   9.802
    3AU    AUSL 1611  41.465  34.876   7.715
    3AU    AUSL 1612  40.964  34.904   7.254
    3AU     AUL 1613  41.276  34.643   7.483
    3AU       S 1614  40.869  34.593   7.134
    3AU     LIG 1615  40.549  34.304   7.197
    3AU     LIG 1616  40.594  33.841   7.230
    3AU     LIG 1617  40.613  33.377   7.057
    3AU     LIG 1618  40.563  32.928   6.850
    3AU     LIG 1619  40.377  32.454   6.810
    3AU     LIG 1620  40.201  31.977   6.858
    3AU       S 1621  41.341  34.638   7.926
    3AU     LIG 1622  41.185  34.136   7.849
    3AU     LIG 1623  41.175  33.684   7.865
    3AU     LIG 1624  41.288  33.310   8.090
    3AU     LIG 1625  41.544  32.941   8.222
    3AU     LIG 1626  41.882  32.608   8.284
    3AU     LIG 1627  41.931  32.132   8.269
    3AU    AUSL 1628  41.227  36.399   6.947
    3AU    AUSL 1629  41.550  36.155   7.257
    3AU     AUL 1630  41.592  36.475   6.991
    3AU       S 1631  41.264  36.713   6.766
    3AU     LIG 1632  41.472  36.987   6.485
    3AU     LIG 1633  41.388  37.424   6.345
    3AU     LIG 1634  41.367  37.795   6.068
    3AU     LIG 1635  41.497  38.049   5.700
    3AU     LIG 1636  41.652  38.372   5.392
    3AU     LIG 1637  41.596  38.778   5.158
    3AU       S 1638  41.958  36.181   6.936
    3AU     LIG 1639  42.380  36.503   6.839
    3AU     LIG 1640  42.661  36.660   6.482
    3AU     LIG 1641  42.924  37.007   6.267
    3AU     LIG 1642  43.165  37.428   6.192
    3AU     LIG 1643  43.352  37.868   6.103
    3AU     LIG 1644  43.585  38.264   5.976
    3AU    AUSL 1645  41.144  36.349   7.355
    3AU    AUSL 1646  41.030  36.059   7.064
    3AU     AUL 1647  40.966  36.548   7.097
    3AU       S 1648  41.312  36.856   6.999
    3AU     LIG 1649  41.261  37.291   6.842
    3AU     LIG 1650  41.202  37.735   6.721
    3AU     LIG 1651  41.114  38.129   6.529
    3AU     LIG 1652  40.951  38.514   6.353
    3AU     LIG 1653  40.804  38.959   6.373
    3AU     LIG 1654  40.600  39.413   6.430
    3AU       S 1655  40.826  36.355   6.688
    3AU     LIG 1656  40.624  36.386   6.258
    3AU     LIG 1657  40.355  36.691   5.992
    3AU     LIG 1658  40.242  36.957   5.599
    3AU     LIG 1659  40.212  37.171   5.161
    3AU     LIG 1660  39.970  37.423   4.820
    3AU     LIG 1661  39.799  37.862   4.718
    3AU    AUSL 1662  41.317  34.987   6.992
    3AU    AUSL 1663  40.900  35.296   7.355
    3AU     AUL 1664  40.994  34.992   6.920
    3AU       S 1665  40.494  34.915   7.163
    3AU     LIG 1666  40.154  34.657   7.283
    3AU     LIG 1667  39.879  34.349   7.049
    3AU     LIG 1668  39.581  34.100   6.754
    3AU     LIG 1669  39.311  33.840   6.451
    3AU     LIG 1670  39.033  33.507   6.242
    3AU     LIG 1671  38.799  33.183   5.973
    3AU       S 1672  41.139  34.573   7.032
    3AU     LIG 1673  40.937  34.167   6.869
    3AU     LIG 1674  40.807  33.739   6.749
    3AU     LIG 1675  40.777  33.314   6.547
    3AU     LIG 1676  40.860  33.043   6.162
    3AU     LIG 1677  40.983  32.904   5.711
    3AU     LIG 1678  41.112  32.568   5.403
    3AU    AUSL 1679  41.306  35.097   7.404
    3AU    AUSL 1680  41.440  35.364   7.097
    3AU     AUL 1681  41.501  34.870   7.150
    3AU       S 1682  40.890  34.696   7.272
    3AU     LIG 1683  41.046  34.196   7.367
    3AU     LIG 1684  41.096  33.756   7.184
    3AU     LIG 1685  41.121  33.332   6.941
    3AU     LIG 1686  41.316  32.894   6.812
    3AU     LIG 1687  41.671  32.534   6.782
    3AU     LIG 1688  41.926  32.115   6.725
    3AU       S 1689  41.685  34.977   6.726
    3AU     LIG 1690  41.602  34.615   6.490
    3AU     LIG 1691  41.843  34.295   6.252
    3AU     LIG 1692  42.091  33.961   6.014
    3AU     LIG 1693  42.213  33.661   5.647
    3AU     LIG 1694  42.349  33.524   5.199
    3AU     LIG 1695  42.702  33.372   4.922
    4AU     AUC 1696  26.131  31.155   7.510
    4AU     AUC 1697  26.394  31.150   7.352
    4AU     AUC 1698  26.383  31.138   7.662
    4AU     AUC 1699  25.888  31.160   7.343
    4AU     AUC 1700  25.865  31.184   7.650
    4AU     AUC 1701  25.990  31.418   7.506
    4AU     AUC 1702  26.294  31.406   7.487
    4AU     AUC 1703  25.971  30.903   7.520
    4AU     AUC 1704  26.268  30.896   7.538
    4AU     AUC 1705  26.115  31.006   7.774
    4AU     AUC 1706  26.154  31.323   7.760
    4AU     AUC 1707  26.134  30.985   7.256
    4AU     AUC 1708  26.128  31.292   7.244
    4AU     AUC 1709  26.647  31.142   7.200
    4AU     AUC 1710  26.651  31.146   7.501
    4AU     AUC 1711  26.633  31.136   7.826
    4AU     AUC 1712  25.628  31.153   7.184
    4AU     AUC 1713  25.613  31.188   7.489
    4AU     AUC 1714  25.618  31.210   7.812
    4AU     AUC 1715  25.857  31.692   7.504
    4AU     AUC 1716  26.160  31.681   7.496
    4AU     AUC 1717  26.461  31.664   7.493
    4AU     AUC 1718  25.777  30.655   7.532
    4AU     AUC 1719  26.099  30.629   7.524
    4AU     AUC 1720  26.415  30.626   7.547
    4AU     AUC 1721  26.102  30.853   8.025
    4AU     AUC 1722  26.128  31.162   8.040
    4AU     AUC 1723  26.157  31.473   8.027
    4AU     AUC 1724  26.136  30.805   7.025
    4AU     AUC 1725  26.150  31.123   6.986
    4AU     AUC 1726  26.132  31.438   6.975
    4AU     AUC 1727  26.390  31.007   7.938
    4AU     AUC 1728  26.387  31.301   7.942
    4AU     AUC 1729  26.408  30.972   7.098
    4AU     AUC 1730  26.406  31.286   7.078
    4AU     AUC 1731  25.849  31.033   7.934
    4AU     AUC 1732  25.877  31.342   7.934
    4AU     AUC 1733  25.887  30.984   7.079
    4AU     AUC 1734  25.881  31.298   7.078
    4AU     AUC 1735  26.554  31.414   7.332
    4AU     AUC 1736  26.556  31.389   7.665
    4AU     AUC 1737  25.725  31.424   7.346
    4AU     AUC 1738  25.731  31.452   7.668
    4AU     AUC 1739  26.543  30.884   7.372
    4AU     AUC 1740  26.538  30.884   7.690
    4AU     AUC 1741  25.702  30.909   7.347
    4AU     AUC 1742  25.699  30.929   7.682
    4AU     AUC 1743  25.994  31.579   7.776
    4AU     AUC 1744  26.314  31.581   7.746
    4AU     AUC 1745  25.939  30.741   7.773
    4AU     AUC 1746  26.262  30.737   7.798
    4AU     AUC 1747  25.985  31.570   7.236
    4AU     AUC 1748  26.304  31.552   7.225
    4AU     AUC 1749  25.950  30.739   7.258
    4AU     AUC 1750  26.282  30.720   7.283
    4AU    AUSL 1751  26.471  31.116   8.189
    4AU    AUSL 1752  26.452  30.670   8.143
    4AU     AUL 1753  26.711  30.729   8.431
    4AU       S 1754  26.729  30.404   8.055
    4AU     LIG 1755  26.677  30.214   8.456
    4AU     LIG 1756  26.779  29.815   8.661
    4AU     LIG 1757  26.923  29.420   8.879
    4AU     LIG 1758  27.166  29.097   9.136
    4AU     LIG 1759  27.220  28.905   9.574
    4AU     LIG 1760  27.272  28.897  10.060
    4AU       S 1761  26.518  31.104   8.360
    4AU     LIG 1762  26.643  31.021   8.825
    4AU     LIG 1763  26.877  30.818   9.191
    4AU     LIG 1764  27.079  30.638   9.594
    4AU     LIG 1765  27.301  30.554  10.013
    4AU     LIG 1766  27.711  30.558  10.268
    4AU     LIG 1767  28.078  30.617  10.564
    4AU    AUSL 1768  26.156  30.878   8.365
    4AU    AUSL 1769  26.074  31.299   8.320
    4AU     AUL 1770  26.223  31.252   8.688
    4AU       S 1771  26.243  30.852   8.509
    4AU     LIG 1772  26.427  30.545   8.815
    4AU     LIG 1773  26.565  30.417   9.270
    4AU     LIG 1774  26.642  30.408   9.757
    4AU     LIG 1775  26.802  30.309  10.205
    4AU     LIG 1776  26.885  30.117  10.645
    4AU     LIG 1777  26.790  30.112  11.121
    4AU       S 1778  25.795  31.094   8.655
    4AU     LIG 1779  25.631  30.990   9.109
    4AU     LIG 1780  25.462  30.912   9.539
    4AU     LIG 1781  25.323  30.915   9.987
    4AU     LIG 1782  25.310  31.206  10.377
    4AU     LIG 1783  25.268  31.512  10.750
    4AU     LIG 1784  25.115  31.707  11.151
    4AU    AUSL 1785  26.419  31.531   8.300
    4AU    AUSL 1786  26.778  31.361   8.045
    4AU     AUL 1787  26.779  31.395   8.516
    4AU       S 1788  26.391  31.602   8.432
    4AU     LIG 1789  26.643  31.759   8.824
    4AU     LIG 1790  26.818  31.832   9.281
    4AU     LIG 1791  26.763  31.909   9.763
    4AU     LIG 1792  26.871  31.989  10.221
    4AU     LIG 1793  26.725  32.043  10.665
    4AU     LIG 1794  26.687  31.890  11.108
    4AU       S 1795  27.055  31.338   8.068
    4AU     LIG 1796  27.433  31.435   8.277
    4AU     LIG 1797  27.626  31.691   8.638
    4AU     LIG 1798  27.766  32.009   8.963
    4AU     LIG 1799  28.005  32.118   9.358
    4AU     LIG 1800  28.269  32.288   9.720
    4AU     LIG 1801  28.660  32.491   9.916
    4AU    AUSL 1802  26.684  31.165   6.902
    4AU    AUSL 1803  26.427  31.569   6.808
    4AU     AUL 1804  26.787  31.480   6.451
    4AU       S 1805  26.727  31.189   6.752
    4AU     LIG 1806  27.005  31.064   6.340
    4AU     LIG 1807  27.045  30.877   5.924
    4AU     LIG 1808  27.171  30.733   5.482
    4AU     LIG 1809  27.515  30.632   5.144
    4AU     LIG 1810  27.865  30.698   4.807
    4AU     LIG 1811  28.110  30.883   4.438
    4AU       S 1812  26.431  31.644   6.640
    4AU     LIG 1813  26.757  31.958   6.416
    4AU     LIG 1814  27.104  32.098   6.094
    4AU     LIG 1815  27.332  32.279   5.687
    4AU     LIG 1816  27.585  32.432   5.302
    4AU     LIG 1817  27.787  32.762   5.058
    4AU     LIG 1818  27.900  33.059   4.714
    4AU    AUSL 1819  26.426  30.853   6.718
    4AU    AUSL 1820  26.751  30.770   7.019
    4AU     AUL 1821  26.857  30.782   6.707
    4AU       S 1822  26.749  30.357   6.843
    4AU     LIG 1823  26.985  30.179   6.481
    4AU     LIG 1824  27.193  29.766   6.355
    4AU     LIG 1825  27.435  29.494   6.058
    4AU     LIG 1826  27.766  29.526   5.722
    4AU     LIG 1827  28.139  29.602   5.444
    4AU     LIG 1828  28.404  29.547   5.054
    4AU       S 1829  26.528  31.052   6.477
    4AU     LIG 1830  26.646  30.670   6.248
    4AU     LIG 1831  26.712  30.512   5.790
    4AU     LIG 1832  26.744  30.485   5.303
    4AU     LIG 1833  26.711  30.269   4.855
    4AU     LIG 1834  26.794  30.050   4.420
    4AU     LIG 1835  26.918  30.097   3.962
    4AU    AUSL 1836  26.263  31.205   6.895
    4AU    AUSL 1837  26.015  30.946   6.669
    4AU     AUL 1838  26.215  30.728   6.582
    4AU       S 1839  25.986  31.043   6.320
    4AU     LIG 1840  25.911  30.767   5.956
    4AU     LIG 1841  25.712  30.523   5.594
    4AU     LIG 1842  25.397  30.421   5.241
    4AU     LIG 1843  25.185  30.152   4.896
    4AU     LIG 1844  25.161  29.979   4.447
    4AU     LIG 1845  24.926  30.028   4.034
    4AU       S 1846  26.415  31.172   6.530
    4AU     LIG 1847  26.546  31.127   6.004
    4AU     LIG 1848  26.696  30.976   5.558
    4AU     LIG 1849  26.856  30.963   5.103
    4AU     LIG 1850  26.834  31.129   4.639
    4AU     LIG 1851  26.942  31.303   4.199
    4AU     LIG 1852  27.079  31.565   3.823
    4AU    AUSL 1853  25.677  31.221   8.213
    4AU    AUSL 1854  25.857  31.617   8.153
    4AU     AUL 1855  25.900  31.522   8.453
    4AU       S 1856  25.599  31.229   8.663
    4AU     LIG 1857  25.260  30.955   8.734
    4AU     LIG 1858  25.120  30.799   9.158
    4AU     LIG 1859  24.970  30.739   9.616
    4AU     LIG 1860  24.607  30.686   9.936
    4AU     LIG 1861  24.257  30.682  10.274
    4AU     LIG 1862  24.030  30.822  10.674
    4AU       S 1863  25.452  31.617   8.378
    4AU     LIG 1864  25.459  31.708   8.815
    4AU     LIG 1865  25.383  32.086   9.083
    4AU     LIG 1866  25.191  32.434   9.337
    4AU     LIG 1867  24.957  32.672   9.671
    4AU     LIG 1868  24.758  32.866  10.067
    4AU     LIG 1869  24.414  33.067  10.346
    4AU    AUSL 1870  25.986  31.020   8.018
    4AU    AUSL 1871  25.428  30.964   7.998
    4AU     AUL 1872  25.475  31.087   8.245
    4AU       S 1873  25.277  30.645   8.197
    4AU     LIG 1874  24.880  30.511   8.023
    4AU     LIG 1875  24.549  30.224   8.172
    4AU     LIG 1876  24.332  29.977   8.519
    4AU     LIG 1877  24.095  29.663   8.773
    4AU     LIG 1878  23.883  29.501   9.164
    4AU     LIG 1879  23.631  29.538   9.558
    4AU       S 1880  25.767  30.961   8.599
    4AU     LIG 1881  25.613  30.585   8.798
    4AU     LIG 1882  25.509  30.476   9.259
    4AU     LIG 1883  25.387  30.429   9.730
    4AU     LIG 1884  25.337  30.189  10.153
    4AU     LIG 1885  25.144  30.023  10.573
    4AU     LIG 1886  24.948  30.104  11.004
    4AU    AUSL 1887  25.751  31.107   6.949
    4AU    AUSL 1888  25.877  30.675   6.948
    4AU     AUL 1889  25.715  30.791   6.645
    4AU       S 1890  25.742  31.125   6.315
    4AU     LIG 1891  25.425  30.927   6.029
    4AU     LIG 1892  25.229  30.652   5.677
    4AU     LIG 1893  24.889  30.517   5.348
    4AU     LIG 1894  24.494  30.643   5.100
    4AU     LIG 1895  24.228  30.792   4.743
    4AU     LIG 1896  24.051  30.744   4.299
    4AU       S 1897  25.438  30.398   6.808
    4AU     LIG 1898  25.196  30.018   6.789
    4AU     LIG 1899  24.916  29.739   6.531
    4AU     LIG 1900  24.640  29.496   6.225
    4AU     LIG 1901  24.443  29.412   5.794
    4AU     LIG 1902  24.423  29.347   5.321
    4AU     LIG 1903  24.407  29.165   4.881
    4AU    AUSL 1904  25.961  31.383   6.666
    4AU    AUSL 1905  25.503  31.444   6.947
    4AU     AUL 1906  25.554  31.239   6.709
    4AU       S 1907  25.432  31.687   6.741
    4AU     LIG 1908  25.048  31.739   6.486
    4AU     LIG 1909  24.849  31.802   6.059
    4AU     LIG 1910  24.598  31.840   5.643
    4AU     LIG 1911  24.373  32.089   5.292
    4AU     LIG 1912  23.988  32.251   5.056
    4AU     LIG 1913  23.601  32.518   4.993
    4AU       S 1914  25.961  31.303   6.449
    4AU     LIG 1915  25.899  31.293   5.894
    4AU     LIG 1916  25.624  31.036   5.568
    4AU     LIG 1917  25.382  30.961   5.156
    4AU     LIG 1918  25.330  31.170   4.701
    4AU     LIG 1919  25.261  31.460   4.299
    4AU     LIG 1920  25.108  31.723   3.913
    4AU    AUSL 1921  26.799  31.687   7.449
    4AU    AUSL 1922  26.784  31.544   7.040
    4AU     AUL 1923  26.880  31.939   7.273
    4AU       S 1924  26.892  31.686   6.848
    4AU     LIG 1925  27.221  31.771   6.554
    4AU     LIG 1926  27.560  31.917   6.270
    4AU     LIG 1927  27.771  32.109   5.899
    4AU     LIG 1928  28.028  32.168   5.510
    4AU     LIG 1929  28.429  32.253   5.266
    4AU     LIG 1930  28.767  32.483   5.021
    4AU       S 1931  27.254  31.649   7.361
    4AU     LIG 1932  27.745  31.617   7.498
    4AU     LIG 1933  28.242  31.642   7.484
    4AU     LIG 1934  28.723  31.731   7.466
    4AU     LIG 1935  29.127  32.016   7.494
    4AU     LIG 1936  29.408  32.437   7.566
    4AU     LIG 1937  29.475  32.928   7.541
    4AU    AUSL 1938  26.946  31.261   7.289
    4AU    AUSL 1939  27.001  31.029   7.655
    4AU     AUL 1940  27.151  30.989   7.252
    4AU       S 1941  27.186  31.442   7.314
    4AU     LIG 1942  27.611  31.196   7.251
    4AU     LIG 1943  28.096  31.230   7.220
    4AU     LIG 1944  28.608  31.218   7.194
    4AU     LIG 1945  29.058  31.407   7.242
    4AU     LIG 1946  29.504  31.579   7.214
    4AU     LIG 1947  29.921  31.808   7.123
    4AU       S 1948  27.342  30.798   7.632
    4AU     LIG 1949  27.608  30.516   7.859
    4AU     LIG 1950  27.982  30.238   7.798
    4AU     LIG 1951  28.405  30.028   7.886
    4AU     LIG 1952  28.840  29.911   7.930
    4AU     LIG 1953  29.256  30.091   7.862
    4AU     LIG 1954  29.570  30.298   8.138
    4AU    AUSL 1955  26.708  31.321   7.642
    4AU    AUSL 1956  26.668  31.721   7.848
    4AU     AUL 1957  26.937  31.645   7.710
    4AU       S 1958  26.911  31.669   8.160
    4AU     LIG 1959  27.292  31.924   8.172
    4AU     LIG 1960  27.475  32.181   8.540
    4AU     LIG 1961  27.641  32.620   8.697
    4AU     LIG 1962  27.937  33.000   8.743
    4AU     LIG 1963  28.285  33.272   8.909
    4AU     LIG 1964  28.596  33.589   9.088
    4AU       S 1965  27.287  31.384   7.596
    4AU     LIG 1966  27.645  31.182   7.783
    4AU     LIG 1967  28.098  31.234   7.779
    4AU     LIG 1968  28.557  31.308   7.728
    4AU     LIG 1969  29.005  31.389   7.763
    4AU     LIG 1970  29.446  31.528   7.722
    4AU     LIG 1971  29.875  31.648   7.858
    4AU    AUSL 1972  25.490  31.741   7.573
    4AU    AUSL 1973  25.519  31.482   7.930
    4AU     AUL 1974  25.496  31.917   7.863
    4AU       S 1975  25.322  31.546   8.121
    4AU     LIG 1976  24.978  31.682   8.457
    4AU     LIG 1977  24.960  31.877   8.874
    4AU     LIG 1978  24.767  32.195   9.165
    4AU     LIG 1979  24.535  32.351   9.552
    4AU     LIG 1980  24.125  32.397   9.815
    4AU     LIG 1981  23.832  32.561  10.171
    4AU       S 1982  25.129  31.777   7.631
    4AU     LIG 1983  24.801  32.103   7.715
    4AU     LIG 1984  24.415  32.308   7.540
    4AU     LIG 1985  24.084  32.643   7.486
    4AU     LIG 1986  23.756  32.953   7.606
    4AU     LIG 1987  23.406  33.215   7.614
    4AU     LIG 1988  22.997  33.275   7.528
    4AU    AUSL 1989  25.560  31.394   7.351
    4AU    AUSL 1990  25.654  31.798   7.185
    4AU     AUL 1991  25.388  31.732   7.216
    4AU       S 1992  25.005  31.690   7.486
    4AU     LIG 1993  24.936  31.689   7.010
    4AU     LIG 1994  24.582  31.806   6.751
    4AU     LIG 1995  24.133  31.824   6.622
    4AU     LIG 1996  23.668  31.915   6.615
    4AU     LIG 1997  23.214  32.025   6.577
    4AU     LIG 1998  22.810  32.116   6.791
    4AU       S 1999  25.484  31.954   6.805
    4AU     LIG 2000  25.280  32.210   6.461
    4AU     LIG 2001  25.207  32.595   6.170
    4AU     LIG 2002  25.100  33.073   6.079
    4AU     LIG 2003  24.788  33.408   5.929
    4AU     LIG 2004  24.362  33.604   5.842
    4AU     LIG 2005  24.094  33.926   5.623
    4AU    AUSL 2006  25.266  31.325   7.650
    4AU    AUSL 2007  25.308  31.072   7.295
    4AU     AUL 2008  25.167  31.332   7.263
    4AU       S 2009  24.947  30.888   7.409
    4AU     LIG 2010  24.603  30.838   7.741
    4AU     LIG 2011  24.144  30.921   7.731
    4AU     LIG 2012  23.705  30.877   7.544
    4AU     LIG 2013  23.346  30.849   7.210
    4AU     LIG 2014  22.895  30.684   7.221
    4AU     LIG 2015  22.662  30.334   7.021
    4AU       S 2016  25.077  31.382   7.734
    4AU     LIG 2017  24.776  31.658   7.973
    4AU     LIG 2018  24.428  31.904   8.197
    4AU     LIG 2019  23.934  31.988   8.194
    4AU     LIG 2020  23.453  32.038   8.227
    4AU     LIG 2021  23.023  32.249   8.123
    4AU     LIG 2022  22.592  32.453   8.246
    4AU    AUSL 2023  26.829  30.631   7.608
    4AU    AUSL 2024  26.742  30.909   7.952
    4AU     AUL 2025  27.034  30.860   7.967
    4AU       S 2026  27.083  30.496   7.661
    4AU     LIG 2027  27.319  30.113   7.716
    4AU     LIG 2028  27.715  29.934   7.498
    4AU     LIG 2029  28.203  29.879   7.445
    4AU     LIG 2030  28.619  29.624   7.540
    4AU     LIG 2031  28.980  29.259   7.534
    4AU     LIG 2032  29.351  28.927   7.485
    4AU       S 2033  26.742  30.515   8.036
    4AU     LIG 2034  27.190  30.340   8.182
    4AU     LIG 2035  27.252  29.982   8.494
    4AU     LIG 2036  27.387  29.613   8.765
    4AU     LIG 2037  27.644  29.340   9.054
    4AU     LIG 2038  28.049  29.364   9.323
    4AU     LIG 2039  28.435  29.428   9.604
    4AU    AUSL 2040  26.683  30.953   7.380
    4AU    AUSL 2041  26.582  30.487   7.298
    4AU     AUL 2042  26.880  30.602   7.237
    4AU       S 2043  27.184  30.616   7.569
    4AU     LIG 2044  27.544  30.411   7.354
    4AU     LIG 2045  28.001  30.330   7.274
    4AU     LIG 2046  28.432  30.196   7.087
    4AU     LIG 2047  28.923  30.197   6.968
    4AU     LIG 2048  29.371  30.049   7.021
    4AU     LIG 2049  29.821  29.896   6.904
    4AU       S 2050  26.803  30.207   6.995
    4AU     LIG 2051  26.808  29.796   6.772
    4AU     LIG 2052  26.941  29.379   6.585
    4AU     LIG 2053  27.256  29.105   6.365
    4AU     LIG 2054  27.528  28.755   6.187
    4AU     LIG 2055  27.791  28.346   6.131
    4AU     LIG 2056  28.163  28.064   5.993
    4AU    AUSL 2057  25.390  30.690   7.479
    4AU    AUSL 2058  25.492  30.800   7.050
    4AU     AUL 2059  25.226  30.903   7.027
    4AU       S 2060  25.421  30.486   7.038
    4AU     LIG 2061  24.939  30.474   6.955
    4AU     LIG 2062  24.674  30.153   6.752
    4AU     LIG 2063  24.420  29.918   6.431
    4AU     LIG 2064  24.149  29.663   6.140
    4AU     LIG 2065  23.960  29.620   5.699
    4AU     LIG 2066  23.647  29.725   5.357
    4AU       S 2067  25.087  30.672   7.406
    4AU     LIG 2068  24.736  30.405   7.524
    4AU     LIG 2069  24.294  30.416   7.719
    4AU     LIG 2070  23.806  30.355   7.739
    4AU     LIG 2071  23.409  30.061   7.598
    4AU     LIG 2072  23.043  29.721   7.567
    4AU     LIG 2073  22.803  29.297   7.671
    4AU    AUSL 2074  25.577  31.054   7.632
    4AU    AUSL 2075  25.654  30.656   7.807
    4AU     AUL 2076  25.266  30.853   7.788
    4AU       S 2077  25.387  30.442   7.951
    4AU     LIG 2078  25.122  30.112   7.798
    4AU     LIG 2079  24.787  29.820   7.964
    4AU     LIG 2080  24.486  29.559   8.256
    4AU     LIG 2081  24.281  29.218   8.555
    4AU     LIG 2082  24.076  28.793   8.720
    4AU     LIG 2083  23.722  28.469   8.834
    4AU       S 2084  24.987  30.961   7.453
    4AU     LIG 2085  24.475  30.937   7.266
    4AU     LIG 2086  24.084  30.647   7.280
    4AU     LIG 2087  23.632  30.445   7.279
    4AU     LIG 2088  23.266  30.550   7.596
    4AU     LIG 2089  22.838  30.646   7.745
    4AU     LIG 2090  22.520  30.334   7.906
    4AU    AUSL 2091  26.184  31.846   8.028
    4AU    AUSL 2092  25.856  31.634   7.735
    4AU     AUL 2093  25.904  31.916   8.116
    4AU       S 2094  25.517  31.759   8.295
    4AU     LIG 2095  25.286  32.099   8.527
    4AU     LIG 2096  25.082  32.414   8.817
    4AU     LIG 2097  25.029  32.840   9.042
    4AU     LIG 2098  24.941  33.322   9.053
    4AU     LIG 2099  24.753  33.758   9.137
    4AU     LIG 2100  24.363  34.002   9.187
    4AU       S 2101  26.239  32.245   8.002
    4AU     LIG 2102  26.485  32.414   8.335
    4AU     LIG 2103  26.545  32.848   8.514
    4AU     LIG 2104  26.476  33.184   8.854
    4AU     LIG 2105  26.443  33.443   9.270
    4AU     LIG 2106  26.516  33.846   9.516
    4AU     LIG 2107  26.568  34.214   9.808
    4AU    AUSL 2108  25.939  32.028   7.666
    4AU    AUSL 2109  26.388  31.997   7.261
    4AU     AUL 2110  26.055  32.246   7.420
    4AU       S 2111  26.082  32.311   7.877
    4AU     LIG 2112  26.261  32.763   8.031
    4AU     LIG 2113  26.342  33.214   8.202
    4AU     LIG 2114  26.198  33.676   8.292
    4AU     LIG 2115  25.925  34.098   8.296
    4AU     LIG 2116  25.850  34.568   8.408
    4AU     LIG 2117  25.797  34.983   8.677
    4AU       S 2118  26.430  32.339   7.132
    4AU     LIG 2119  26.765  32.651   7.007
    4AU     LIG 2120  26.854  33.104   6.853
    4AU     LIG 2121  27.041  33.526   6.713
    4AU     LIG 2122  27.216  33.971   6.700
    4AU     LIG 2123  27.310  34.460   6.650
    4AU     LIG 2124  27.261  34.867   6.368
    4AU    AUSL 2125  26.338  31.847   7.641
    4AU    AUSL 2126  26.329  31.473   7.911
    4AU     AUL 2127  26.517  31.883   8.025
    4AU       S 2128  26.910  31.407   8.097
    4AU     LIG 2129  27.122  31.704   8.587
    4AU     LIG 2130  27.255  31.924   8.980
    4AU     LIG 2131  27.472  32.022   9.406
    4AU     LIG 2132  27.719  32.230   9.768
    4AU     LIG 2133  27.936  32.526  10.059
    4AU     LIG 2134  27.969  32.965  10.226
    4AU       S 2135  26.415  32.196   7.708
    4AU     LIG 2136  26.693  32.527   7.872
    4AU     LIG 2137  26.786  32.959   8.054
    4AU     LIG 2138  26.843  33.401   8.226
    4AU     LIG 2139  27.020  33.859   8.196
    4AU     LIG 2140  27.259  34.219   8.392
    4AU     LIG 2141  27.162  34.662   8.564
    4AU    AUSL 2142  26.083  30.584   7.963
    4AU    AUSL 2143  26.439  30.704   7.728
    4AU     AUL 2144  26.294  30.446   8.186
    4AU       S 2145  26.066  30.042   8.037
    4AU     LIG 2146  26.086  29.720   8.321
    4AU     LIG 2147  25.812  29.364   8.270
    4AU     LIG 2148  25.766  28.912   8.303
    4AU     LIG 2149  25.787  28.545   8.597
    4AU     LIG 2150  25.810  28.277   8.995
    4AU     LIG 2151  25.848  27.943   9.334
    4AU       S 2152  26.736  30.296   7.929
    4AU     LIG 2153  26.905  29.896   8.119
    4AU     LIG 2154  27.063  29.499   8.366
    4AU     LIG 2155  27.259  29.130   8.615
    4AU     LIG 2156  27.541  28.844   8.876
    4AU     LIG 2157  27.686  28.384   8.905
    4AU     LIG 2158  28.075  28.089   8.830
    4AU    AUSL 2159  25.894  30.345   7.677
    4AU    AUSL 2160  25.767  30.728   8.206
    4AU     AUL 2161  25.823  30.419   8.083
    4AU       S 2162  25.807  30.063   7.794
    4AU     LIG 2163  25.529  29.725   7.699
    4AU     LIG 2164  25.522  29.268   7.821
    4AU     LIG 2165  25.345  28.849   7.997
    4AU     LIG 2166  25.052  28.468   8.106
    4AU     LIG 2167  24.793  28.056   8.108
    4AU     LIG 2168  24.729  27.734   8.443
    4AU       S 2169  25.456  30.589   8.286
    4AU     LIG 2170  25.158  30.180   8.327
    4AU     LIG 2171  24.839  29.882   8.478
    4AU     LIG 2172  24.609  29.582   8.760
    4AU     LIG 2173  24.361  29.324   9.067
    4AU     LIG 2174  24.166  29.194   9.487
    4AU     LIG 2175  24.160  28.935   9.890
    4AU    AUSL 2176  26.336  30.306   7.724
    4AU    AUSL 2177  25.842  30.338   7.259
    4AU     AUL 2178  26.150  30.069   7.485
    4AU       S 2179  25.739  30.032   7.138
    4AU     LIG 2180  25.415  29.729   7.178
    4AU     LIG 2181  25.426  29.276   7.253
    4AU     LIG 2182  25.359  28.841   7.032
    4AU     LIG 2183  25.069  28.455   6.891
    4AU     LIG 2184  24.960  27.995   6.749
    4AU     LIG 2185  25.022  27.522   6.732
    4AU       S 2186  26.174  30.080   7.929
    4AU     LIG 2187  26.029  29.592   7.830
    4AU     LIG 2188  26.018  29.115   7.868
    4AU     LIG 2189  26.188  28.705   8.054
    4AU     LIG 2190  26.456  28.315   8.122
    4AU     LIG 2191  26.507  27.830   8.141
    4AU     LIG 2192  26.499  27.339   8.089
    4AU    AUSL 2193  26.130  31.825   6.946
    4AU    AUSL 2194  26.442  31.585   7.261
    4AU     AUL 2195  26.490  31.903   6.996
    4AU       S 2196  26.178  32.161   6.770
    4AU     LIG 2197  26.565  32.367   6.629
    4AU     LIG 2198  26.705  32.774   6.472
    4AU     LIG 2199  26.736  33.015   6.049
    4AU     LIG 2200  26.743  33.315   5.677
    4AU     LIG 2201  26.642  33.723   5.461
    4AU     LIG 2202  26.714  34.180   5.348
    4AU       S 2203  26.862  31.617   6.943
    4AU     LIG 2204  26.987  32.152   6.838
    4AU     LIG 2205  27.300  32.299   6.525
    4AU     LIG 2206  27.569  32.663   6.365
    4AU     LIG 2207  28.003  32.878   6.364
    4AU     LIG 2208  28.261  33.234   6.171
    4AU     LIG 2209  28.623  33.526   6.026
    4AU    AUSL 2210  26.032  31.777   7.352
    4AU    AUSL 2211  25.916  31.494   7.058
    4AU     AUL 2212  25.866  31.975   7.078
    4AU       S 2213  26.219  32.286   7.002
    4AU     LIG 2214  26.290  32.741   6.832
    4AU     LIG 2215  26.350  33.186   6.670
    4AU     LIG 2216  26.062  33.594   6.620
    4AU     LIG 2217  25.731  33.962   6.566
    4AU     LIG 2218  25.620  34.435   6.589
    4AU     LIG 2219  25.610  34.861   6.345
    4AU       S 2220  25.718  31.772   6.681
    4AU     LIG 2221  25.518  31.805   6.249
    4AU     LIG 2222  25.282  32.103   5.937
    4AU     LIG 2223  25.226  32.347   5.504
    4AU     LIG 2224  25.215  32.592   5.064
    4AU     LIG 2225  24.998  32.915   4.762
    4AU     LIG 2226  24.711  33.265   4.581
    4AU    AUSL 2227  26.201  30.421   6.997
    4AU    AUSL 2228  25.782  30.732   7.355
    4AU     AUL 2229  25.878  30.427   6.925
    4AU       S 2230  25.378  30.362   7.152
    4AU     LIG 2231  25.063  30.089   7.278
    4AU     LIG 2232  24.817  29.753   7.050
    4AU     LIG 2233  24.503  29.520   6.749
    4AU     LIG 2234  24.241  29.234   6.451
    4AU     LIG 2235  23.963  28.843   6.331
    4AU     LIG 2236  23.591  28.543   6.230
    4AU       S 2237  26.014  30.007   7.035
    4AU     LIG 2238  25.795  29.633   6.836
    4AU     LIG 2239  25.576  29.237   6.753
    4AU     LIG 2240  25.616  28.814   6.567
    4AU     LIG 2241  25.762  28.561   6.197
    4AU     LIG 2242  25.837  28.469   5.734
    4AU     LIG 2243  26.021  28.177   5.421
    4AU    AUSL 2244  26.185  30.526   7.409
    4AU    AUSL 2245  26.330  30.795   7.109
    4AU     AUL 2246  26.382  30.301   7.161
    4AU       S 2247  25.764  30.133   7.278
    4AU     LIG 2248  25.888  29.620   7.347
    4AU     LIG 2249  25.924  29.196   7.137
    4AU     LIG 2250  25.981  28.760   6.937
    4AU     LIG 2251  26.212  28.336   6.831
    4AU     LIG 2252  26.407  27.898   6.723
    4AU     LIG 2253  26.434  27.405   6.767
    4AU       S 2254  26.579  30.406   6.744
    4AU     LIG 2255  26.479  30.077   6.477
    4AU     LIG 2256  26.691  29.723   6.264
    4AU     LIG 2257  26.928  29.367   6.060
    4AU     LIG 2258  27.050  29.077   5.709
    4AU     LIG 2259  27.155  28.844   5.312
    4AU     LIG 2260  27.361  28.656   4.925
    5AU     AUC 2261  26.752   2.111   7.507
    5AU     AUC 2262  27.014   2.111   7.347
    5AU     AUC 2263  27.006   2.098   7.656
    5AU     AUC 2264  26.508   2.114   7.343
    5AU     AUC 2265  26.487   2.136   7.649
    5AU     AUC 2266  26.607   2.373   7.506
    5AU     AUC 2267  26.911   2.365   7.483
    5AU     AUC 2268  26.596   1.857   7.517
    5AU     AUC 2269  26.894   1.855   7.531
    5AU     AUC 2270  26.741   1.962   7.770
    5AU     AUC 2271  26.775   2.279   7.757
    5AU     AUC 2272  26.756   1.944   7.252
    5AU     AUC 2273  26.745   2.250   7.242
    5AU     AUC 2274  27.266   2.108   7.191
    5AU     AUC 2275  27.273   2.111   7.493
    5AU     AUC 2276  27.258   2.099   7.817
    5AU     AUC 2277  26.247   2.104   7.186
    5AU     AUC 2278  26.233   2.136   7.490
    5AU     AUC 2279  26.241   2.156   7.812
    5AU     AUC 2280  26.469   2.643   7.507
    5AU     AUC 2281  26.774   2.638   7.496
    5AU     AUC 2282  27.075   2.626   7.491
    5AU     AUC 2283  26.407   1.606   7.528
    5AU     AUC 2284  26.729   1.585   7.517
    5AU     AUC 2285  27.044   1.586   7.538
    5AU     AUC 2286  26.731   1.807   8.020
    5AU     AUC 2287  26.754   2.116   8.036
    5AU     AUC 2288  26.778   2.427   8.025
    5AU     AUC 2289  26.759   1.764   7.018
    5AU     AUC 2290  26.767   2.083   6.982
    5AU     AUC 2291  26.744   2.398   6.974
    5AU     AUC 2292  27.018   1.965   7.932
    5AU     AUC 2293  27.011   2.259   7.937
    5AU     AUC 2294  27.028   1.936   7.091
    5AU     AUC 2295  27.021   2.249   7.073
    5AU     AUC 2296  26.476   1.983   7.932
    5AU     AUC 2297  26.500   2.292   7.934
    5AU     AUC 2298  26.507   1.939   7.076
    5AU     AUC 2299  26.496   2.254   7.077
    5AU     AUC 2300  27.170   2.377   7.327
    5AU     AUC 2301  27.175   2.351   7.659
    5AU     AUC 2302  26.341   2.376   7.348
    5AU     AUC 2303  26.349   2.402   7.670
    5AU     AUC 2304  27.167   1.848   7.363
    5AU     AUC 2305  27.165   1.846   7.682
    5AU     AUC 2306  26.326   1.859   7.346
    5AU     AUC 2307  26.327   1.878   7.681
    5AU     AUC 2308  26.612   2.533   7.776
    5AU     AUC 2309  26.931   2.539   7.744
    5AU     AUC 2310  26.570   1.693   7.769
    5AU     AUC 2311  26.892   1.694   7.790
    5AU     AUC 2312  26.598   2.526   7.237
    5AU     AUC 2313  26.917   2.513   7.223
    5AU     AUC 2314  26.576   1.694   7.253
    5AU     AUC 2315  26.908   1.681   7.275
    5AU    AUSL 2316  27.099   2.074   8.182
    5AU    AUSL 2317  27.084   1.627   8.135
    5AU     AUL 2318  27.341   1.684   8.420
    5AU       S 2319  27.351   1.363   8.039
    5AU     LIG 2320  27.252   1.117   8.412
    5AU     LIG 2321  27.294   0.670   8.544
    5AU     LIG 2322  27.534   0.382   8.836
    5AU     LIG 2323  27.782   0.354   9.262
    5AU     LIG 2324  28.068   0.250   9.648
    5AU     LIG 2325  28.070  44.964  10.041
    5AU       S 2326  27.150   2.062   8.353
    5AU     LIG 2327  27.276   1.975   8.815
    5AU     LIG 2328  27.512   1.761   9.170
    5AU     LIG 2329  27.790   1.640   9.548
    5AU     LIG 2330  28.169   1.650   9.857
    5AU     LIG 2331  28.533   1.645  10.176
    5AU     LIG 2332  28.788   1.554  10.570
    5AU    AUSL 2333  26.790   1.833   8.361
    5AU    AUSL 2334  26.701   2.252   8.317
    5AU     AUL 2335  26.854   2.205   8.684
    5AU       S 2336  26.876   1.807   8.503
    5AU     LIG 2337  27.061   1.493   8.800
    5AU     LIG 2338  27.204   1.349   9.251
    5AU     LIG 2339  27.315   1.230   9.720
    5AU     LIG 2340  27.361   1.074  10.195
    5AU     LIG 2341  27.548   1.134  10.656
    5AU     LIG 2342  27.645   1.079  11.133
    5AU       S 2343  26.428   2.040   8.655
    5AU     LIG 2344  26.273   1.917   9.108
    5AU     LIG 2345  26.113   1.823   9.540
    5AU     LIG 2346  25.927   1.882   9.973
    5AU     LIG 2347  25.959   2.150  10.372
    5AU     LIG 2348  25.825   2.493  10.678
    5AU     LIG 2349  25.643   2.707  11.065
    5AU    AUSL 2350  27.043   2.487   8.296
    5AU    AUSL 2351  27.403   2.322   8.036
    5AU     AUL 2352  27.409   2.357   8.507
    5AU       S 2353  27.015   2.557   8.427
    5AU     LIG 2354  27.222   2.677   8.841
    5AU     LIG 2355  27.328   2.775   9.311
    5AU     LIG 2356  27.355   2.906   9.783
    5AU     LIG 2357  27.310   2.941  10.256
    5AU     LIG 2358  27.505   2.973  10.690
    5AU     LIG 2359  27.684   2.867  11.114
    5AU       S 2360  27.682   2.303   8.058
    5AU     LIG 2361  28.066   2.352   8.292
    5AU     LIG 2362  28.276   2.573   8.668
    5AU     LIG 2363  28.511   2.847   8.988
    5AU     LIG 2364  28.766   3.021   9.375
    5AU     LIG 2365  29.138   3.116   9.696
    5AU     LIG 2366  29.421   3.440   9.942
    5AU    AUSL 2367  27.298   2.134   6.892
    5AU    AUSL 2368  27.034   2.536   6.808
    5AU     AUL 2369  27.383   2.460   6.442
    5AU       S 2370  27.339   2.161   6.740
    5AU     LIG 2371  27.643   2.068   6.365
    5AU     LIG 2372  27.678   1.931   5.937
    5AU     LIG 2373  27.811   1.778   5.512
    5AU     LIG 2374  28.145   1.716   5.170
    5AU     LIG 2375  28.485   1.662   4.831
    5AU     LIG 2376  28.788   1.622   4.457
    5AU       S 2377  27.028   2.607   6.643
    5AU     LIG 2378  27.367   2.950   6.501
    5AU     LIG 2379  27.719   3.023   6.170
    5AU     LIG 2380  28.053   3.128   5.822
    5AU     LIG 2381  28.159   3.290   5.368
    5AU     LIG 2382  28.337   3.575   5.026
    5AU     LIG 2383  28.512   4.009   4.933
    5AU    AUSL 2384  27.043   1.818   6.710
    5AU    AUSL 2385  27.374   1.740   7.007
    5AU     AUL 2386  27.470   1.754   6.693
    5AU       S 2387  27.388   1.323   6.833
    5AU     LIG 2388  27.563   1.048   6.490
    5AU     LIG 2389  27.805   0.644   6.388
    5AU     LIG 2390  28.071   0.368   6.096
    5AU     LIG 2391  28.327   0.240   5.706
    5AU     LIG 2392  28.749   0.232   5.462
    5AU     LIG 2393  29.180   0.246   5.239
    5AU       S 2394  27.141   2.024   6.466
    5AU     LIG 2395  27.278   1.687   6.218
    5AU     LIG 2396  27.368   1.556   5.768
    5AU     LIG 2397  27.384   1.576   5.293
    5AU     LIG 2398  27.421   1.448   4.834
    5AU     LIG 2399  27.456   1.261   4.390
    5AU     LIG 2400  27.599   1.270   3.938
    5AU    AUSL 2401  26.877   2.168   6.888
    5AU    AUSL 2402  26.630   1.907   6.665
    5AU     AUL 2403  26.836   1.692   6.574
    5AU       S 2404  26.597   2.009   6.327
    5AU     LIG 2405  26.529   1.694   6.027
    5AU     LIG 2406  26.241   1.521   5.703
    5AU     LIG 2407  26.060   1.473   5.273
    5AU     LIG 2408  25.806   1.280   4.918
    5AU     LIG 2409  25.720   1.135   4.471
    5AU     LIG 2410  25.765   1.231   4.007
    5AU       S 2411  27.025   2.140   6.524
    5AU     LIG 2412  27.190   2.165   6.011
    5AU     LIG 2413  27.336   2.034   5.564
    5AU     LIG 2414  27.552   2.049   5.143
    5AU     LIG 2415  27.497   2.286   4.735
    5AU     LIG 2416  27.562   2.608   4.394
    5AU     LIG 2417  27.573   2.627   3.919
    5AU    AUSL 2418  26.305   2.168   8.212
    5AU    AUSL 2419  26.476   2.567   8.155
    5AU     AUL 2420  26.522   2.468   8.454
    5AU       S 2421  26.225   2.172   8.670
    5AU     LIG 2422  25.917   1.838   8.727
    5AU     LIG 2423  25.793   1.662   9.150
    5AU     LIG 2424  25.633   1.637   9.609
    5AU     LIG 2425  25.334   1.716   9.989
    5AU     LIG 2426  24.936   1.674  10.283
    5AU     LIG 2427  24.649   1.848  10.642
    5AU       S 2428  26.073   2.559   8.384
    5AU     LIG 2429  26.056   2.653   8.819
    5AU     LIG 2430  26.037   3.043   9.075
    5AU     LIG 2431  25.813   3.359   9.338
    5AU     LIG 2432  25.694   3.516   9.762
    5AU     LIG 2433  25.601   3.843  10.084
    5AU     LIG 2434  25.312   4.060  10.385
    5AU    AUSL 2435  26.616   1.971   8.014
    5AU    AUSL 2436  26.057   1.907   8.000
    5AU     AUL 2437  26.109   2.039   8.248
    5AU       S 2438  25.904   1.608   8.228
    5AU     LIG 2439  25.487   1.430   8.182
    5AU     LIG 2440  25.112   1.188   8.252
    5AU     LIG 2441  24.947   0.919   8.581
    5AU     LIG 2442  24.730   0.594   8.817
    5AU     LIG 2443  24.466   0.359   9.118
    5AU     LIG 2444  24.071   0.355   9.391
    5AU       S 2445  26.403   1.910   8.598
    5AU     LIG 2446  26.309   1.512   8.802
    5AU     LIG 2447  26.216   1.392   9.260
    5AU     LIG 2448  26.062   1.329   9.719
    5AU     LIG 2449  26.081   1.144  10.170
    5AU     LIG 2450  26.026   1.105  10.652
    5AU     LIG 2451  25.910   0.908  11.080
    5AU    AUSL 2452  26.370   2.060   6.952
    5AU    AUSL 2453  26.501   1.631   6.943
    5AU     AUL 2454  26.335   1.745   6.641
    5AU       S 2455  26.352   2.092   6.317
    5AU     LIG 2456  26.077   1.948   5.973
    5AU     LIG 2457  25.821   1.814   5.585
    5AU     LIG 2458  25.581   1.677   5.188
    5AU     LIG 2459  25.192   1.611   4.895
    5AU     LIG 2460  24.814   1.739   4.604
    5AU     LIG 2461  24.633   1.998   4.229
    5AU       S 2462  26.063   1.348   6.801
    5AU     LIG 2463  25.812   0.959   6.782
    5AU     LIG 2464  25.452   0.711   6.593
    5AU     LIG 2465  25.228   0.474   6.238
    5AU     LIG 2466  25.132   0.400   5.760
    5AU     LIG 2467  25.159   0.122   5.373
    5AU     LIG 2468  25.217   0.078   4.897
    5AU    AUSL 2469  26.566   2.343   6.668
    5AU    AUSL 2470  26.121   2.396   6.947
    5AU     AUL 2471  26.158   2.182   6.715
    5AU       S 2472  26.095   2.642   6.728
    5AU     LIG 2473  25.832   2.737   6.341
    5AU     LIG 2474  25.604   2.850   5.925
    5AU     LIG 2475  25.272   2.976   5.599
    5AU     LIG 2476  24.999   3.143   5.253
    5AU     LIG 2477  24.588   3.353   5.152
    5AU     LIG 2478  24.283   3.632   4.914
    5AU       S 2479  26.567   2.267   6.456
    5AU     LIG 2480  26.546   2.231   5.893
    5AU     LIG 2481  26.312   2.003   5.516
    5AU     LIG 2482  26.021   1.979   5.124
    5AU     LIG 2483  25.912   2.157   4.680
    5AU     LIG 2484  25.916   2.336   4.219
    5AU     LIG 2485  25.784   2.558   3.804
    5AU    AUSL 2486  27.411   2.658   7.443
    5AU    AUSL 2487  27.394   2.512   7.035
    5AU     AUL 2488  27.490   2.914   7.261
    5AU       S 2489  27.498   2.636   6.851
    5AU     LIG 2490  27.844   2.603   6.525
    5AU     LIG 2491  28.119   2.700   6.146
    5AU     LIG 2492  28.490   2.881   5.917
    5AU     LIG 2493  28.819   3.046   5.623
    5AU     LIG 2494  29.201   3.193   5.380
    5AU     LIG 2495  29.585   3.355   5.155
    5AU       S 2496  27.859   2.625   7.339
    5AU     LIG 2497  28.332   2.655   7.466
    5AU     LIG 2498  28.825   2.707   7.520
    5AU     LIG 2499  29.310   2.800   7.483
    5AU     LIG 2500  29.700   3.076   7.432
    5AU     LIG 2501  29.950   3.500   7.498
    5AU     LIG 2502  30.312   3.763   7.657
    5AU    AUSL 2503  27.565   2.229   7.278
    5AU    AUSL 2504  27.625   1.996   7.645
    5AU     AUL 2505  27.777   1.961   7.245
    5AU       S 2506  27.794   2.415   7.306
    5AU     LIG 2507  28.194   2.258   7.158
    5AU     LIG 2508  28.655   2.294   7.239
    5AU     LIG 2509  29.128   2.359   7.280
    5AU     LIG 2510  29.534   2.542   7.086
    5AU     LIG 2511  29.954   2.780   7.051
    5AU     LIG 2512  30.430   2.849   6.992
    5AU       S 2513  27.973   1.768   7.622
    5AU     LIG 2514  28.137   1.480   7.947
    5AU     LIG 2515  28.490   1.165   7.905
    5AU     LIG 2516  28.930   0.967   7.840
    5AU     LIG 2517  29.397   0.853   7.815
    5AU     LIG 2518  29.823   0.816   8.051
    5AU     LIG 2519  30.221   1.047   8.180
    5AU    AUSL 2520  27.330   2.286   7.632
    5AU    AUSL 2521  27.284   2.682   7.845
    5AU     AUL 2522  27.556   2.609   7.700
    5AU       S 2523  27.520   2.629   8.149
    5AU     LIG 2524  27.918   2.801   8.083
    5AU     LIG 2525  28.170   3.019   8.431
    5AU     LIG 2526  28.344   3.305   8.785
    5AU     LIG 2527  28.583   3.714   8.894
    5AU     LIG 2528  28.778   4.128   9.051
    5AU     LIG 2529  28.722   4.601   9.042
    5AU       S 2530  27.911   2.354   7.580
    5AU     LIG 2531  28.337   2.174   7.660
    5AU     LIG 2532  28.822   2.230   7.721
    5AU     LIG 2533  29.276   2.385   7.789
    5AU     LIG 2534  29.705   2.406   8.036
    5AU     LIG 2535  30.179   2.528   8.041
    5AU     LIG 2536  30.567   2.813   7.951
    5AU    AUSL 2537  26.103   2.686   7.576
    5AU    AUSL 2538  26.139   2.429   7.934
    5AU     AUL 2539  26.110   2.864   7.870
    5AU       S 2540  25.942   2.491   8.128
    5AU     LIG 2541  25.611   2.673   8.472
    5AU     LIG 2542  25.580   2.908   8.886
    5AU     LIG 2543  25.429   3.000   9.333
    5AU     LIG 2544  25.073   3.083   9.650
    5AU     LIG 2545  24.628   3.226   9.791
    5AU     LIG 2546  24.209   3.379   9.968
    5AU       S 2547  25.750   2.724   7.628
    5AU     LIG 2548  25.599   3.183   7.532
    5AU     LIG 2549  25.412   3.668   7.508
    5AU     LIG 2550  25.052   4.029   7.484
    5AU     LIG 2551  24.585   4.200   7.472
    5AU     LIG 2552  24.133   4.373   7.495
    5AU     LIG 2553  23.694   4.445   7.615
    5AU    AUSL 2554  26.175   2.341   7.351
    5AU    AUSL 2555  26.265   2.748   7.189
    5AU     AUL 2556  25.997   2.677   7.209
    5AU       S 2557  25.620   2.634   7.494
    5AU     LIG 2558  25.329   2.625   7.139
    5AU     LIG 2559  24.905   2.711   6.908
    5AU     LIG 2560  24.457   2.797   6.736
    5AU     LIG 2561  24.043   2.991   6.605
    5AU     LIG 2562  23.576   3.005   6.660
    5AU     LIG 2563  23.340   3.265   6.968
    5AU       S 2564  26.102   2.911   6.807
    5AU     LIG 2565  26.014   3.209   6.465
    5AU     LIG 2566  25.968   3.601   6.200
    5AU     LIG 2567  25.809   4.056   6.162
    5AU     LIG 2568  25.440   4.284   5.965
    5AU     LIG 2569  25.033   4.488   5.958
    5AU     LIG 2570  24.758   4.842   5.892
    5AU    AUSL 2571  25.887   2.267   7.655
    5AU    AUSL 2572  25.928   2.015   7.299
    5AU     AUL 2573  25.782   2.276   7.263
    5AU       S 2574  25.582   1.832   7.420
    5AU     LIG 2575  25.280   1.671   7.768
    5AU     LIG 2576  24.801   1.607   7.775
    5AU     LIG 2577  24.320   1.646   7.708
    5AU     LIG 2578  23.969   1.433   7.458
    5AU     LIG 2579  23.504   1.277   7.409
    5AU     LIG 2580  23.140   1.312   7.099
    5AU       S 2581  25.701   2.329   7.734
    5AU     LIG 2582  25.416   2.592   7.998
    5AU     LIG 2583  24.991   2.740   8.203
    5AU     LIG 2584  24.501   2.834   8.284
    5AU     LIG 2585  24.017   2.922   8.380
    5AU     LIG 2586  23.547   3.032   8.369
    5AU     LIG 2587  23.095   3.092   8.253
    5AU    AUSL 2588  27.457   1.596   7.597
    5AU    AUSL 2589  27.370   1.870   7.943
    5AU     AUL 2590  27.660   1.822   7.955
    5AU       S 2591  27.712   1.461   7.643
    5AU     LIG 2592  27.901   1.055   7.770
    5AU     LIG 2593  28.292   0.778   7.635
    5AU     LIG 2594  28.744   0.559   7.583
    5AU     LIG 2595  29.209   0.351   7.605
    5AU     LIG 2596  29.519   0.003   7.811
    5AU     LIG 2597  29.940  44.731   7.889
    5AU       S 2598  27.376   1.468   8.026
    5AU     LIG 2599  27.761   1.219   8.256
    5AU     LIG 2600  27.795   0.826   8.535
    5AU     LIG 2601  28.030   0.497   8.808
    5AU     LIG 2602  28.300   0.362   9.184
    5AU     LIG 2603  28.676   0.317   9.480
    5AU     LIG 2604  29.140   0.243   9.598
    5AU    AUSL 2605  27.306   1.918   7.371
    5AU    AUSL 2606  27.212   1.453   7.286
    5AU     AUL 2607  27.507   1.573   7.224
    5AU       S 2608  27.816   1.584   7.552
    5AU     LIG 2609  28.230   1.312   7.465
    5AU     LIG 2610  28.669   1.058   7.404
    5AU     LIG 2611  29.129   0.828   7.364
    5AU     LIG 2612  29.571   0.630   7.225
    5AU     LIG 2613  29.952   0.658   6.909
    5AU     LIG 2614  30.292   0.744   6.558
    5AU       S 2615  27.437   1.169   6.991
    5AU     LIG 2616  27.485   0.708   6.865
    5AU     LIG 2617  27.567   0.280   6.673
    5AU     LIG 2618  27.806   0.022   6.380
    5AU     LIG 2619  27.997  44.771   6.033
    5AU     LIG 2620  28.330  44.420   5.954
    5AU     LIG 2621  28.805  44.334   5.862
    5AU    AUSL 2622  26.020   1.632   7.478
    5AU    AUSL 2623  26.115   1.749   7.050
    5AU     AUL 2624  25.847   1.847   7.030
    5AU       S 2625  26.044   1.431   7.032
    5AU     LIG 2626  25.561   1.399   6.930
    5AU     LIG 2627  25.240   1.180   6.642
    5AU     LIG 2628  24.970   0.894   6.378
    5AU     LIG 2629  24.773   0.630   6.046
    5AU     LIG 2630  24.551   0.535   5.647
    5AU     LIG 2631  24.245   0.798   5.390
    5AU       S 2632  25.708   1.612   7.405
    5AU     LIG 2633  25.339   1.346   7.388
    5AU     LIG 2634  24.891   1.313   7.361
    5AU     LIG 2635  24.478   1.194   7.562
    5AU     LIG 2636  24.057   0.965   7.671
    5AU     LIG 2637  23.636   0.731   7.576
    5AU     LIG 2638  23.317   0.366   7.495
    5AU    AUSL 2639  26.200   2.000   7.632
    5AU    AUSL 2640  26.285   1.602   7.805
    5AU     AUL 2641  25.902   1.771   7.791
    5AU       S 2642  25.993   1.397   8.041
    5AU     LIG 2643  25.684   1.223   7.763
    5AU     LIG 2644  25.369   0.891   7.924
    5AU     LIG 2645  25.097   0.583   8.216
    5AU     LIG 2646  24.867   0.215   8.487
    5AU     LIG 2647  24.636  44.816   8.710
    5AU     LIG 2648  24.326  44.423   8.814
    5AU       S 2649  25.618   1.901   7.469
    5AU     LIG 2650  25.110   1.799   7.299
    5AU     LIG 2651  24.627   1.760   7.297
    5AU     LIG 2652  24.161   1.909   7.299
    5AU     LIG 2653  23.754   1.924   7.543
    5AU     LIG 2654  23.391   1.683   7.736
    5AU     LIG 2655  23.093   1.329   7.866
    5AU    AUSL 2656  26.799   2.800   8.027
    5AU    AUSL 2657  26.472   2.586   7.737
    5AU     AUL 2658  26.520   2.865   8.121
    5AU       S 2659  26.136   2.704   8.301
    5AU     LIG 2660  25.945   3.069   8.538
    5AU     LIG 2661  25.779   3.426   8.818
    5AU     LIG 2662  25.708   3.904   8.923
    5AU     LIG 2663  25.430   4.258   9.090
    5AU     LIG 2664  25.042   4.313   9.355
    5AU     LIG 2665  24.605   4.449   9.500
    5AU       S 2666  26.844   3.201   7.991
    5AU     LIG 2667  27.020   3.315   8.366
    5AU     LIG 2668  27.120   3.746   8.515
    5AU     LIG 2669  27.090   4.154   8.757
    5AU     LIG 2670  27.086   4.440   9.146
    5AU     LIG 2671  27.011   4.785   9.472
    5AU     LIG 2672  26.836   5.173   9.692
    5AU    AUSL 2673  26.549   2.982   7.670
    5AU    AUSL 2674  26.997   2.957   7.258
    5AU     AUL 2675  26.681   3.205   7.423
    5AU       S 2676  26.674   3.264   7.882
    5AU     LIG 2677  26.801   3.703   8.088
    5AU     LIG 2678  26.850   4.144   8.283
    5AU     LIG 2679  26.646   4.585   8.379
    5AU     LIG 2680  26.429   5.034   8.323
    5AU     LIG 2681  26.563   5.496   8.402
    5AU     LIG 2682  26.421   5.816   8.725
    5AU       S 2683  27.011   3.308   7.088
    5AU     LIG 2684  27.323   3.588   6.883
    5AU     LIG 2685  27.422   4.040   6.763
    5AU     LIG 2686  27.693   4.437   6.701
    5AU     LIG 2687  27.856   4.889   6.634
    5AU     LIG 2688  27.885   5.366   6.609
    5AU     LIG 2689  27.565   5.731   6.516
    5AU    AUSL 2690  26.952   2.810   7.641
    5AU    AUSL 2691  26.949   2.431   7.908
    5AU     AUL 2692  27.128   2.845   8.023
    5AU       S 2693  27.535   2.369   8.086
    5AU     LIG 2694  27.771   2.669   8.556
    5AU     LIG 2695  27.986   2.934   8.917
    5AU     LIG 2696  28.225   3.146   9.295
    5AU     LIG 2697  28.344   3.231   9.759
    5AU     LIG 2698  28.337   3.549  10.127
    5AU     LIG 2699  28.353   4.011  10.255
    5AU       S 2700  27.033   3.167   7.715
    5AU     LIG 2701  27.261   3.520   7.956
    5AU     LIG 2702  27.378   3.972   8.115
    5AU     LIG 2703  27.711   4.356   8.131
    5AU     LIG 2704  27.843   4.821   8.237
    5AU     LIG 2705  27.810   5.314   8.248
    5AU     LIG 2706  27.751   5.802   8.232
    5AU    AUSL 2707  26.715   1.536   7.955
    5AU    AUSL 2708  27.068   1.665   7.720
    5AU     AUL 2709  26.920   1.406   8.180
    5AU       S 2710  26.725   0.994   8.035
    5AU     LIG 2711  26.826   0.641   8.276
    5AU     LIG 2712  26.558   0.268   8.268
    5AU     LIG 2713  26.371  44.859   8.373
    5AU     LIG 2714  26.462  44.435   8.570
    5AU     LIG 2715  26.515  44.101   8.920
    5AU     LIG 2716  26.580  43.698   9.176
    5AU       S 2717  27.374   1.257   7.915
    5AU     LIG 2718  27.476   0.827   8.056
    5AU     LIG 2719  27.644   0.426   8.248
    5AU     LIG 2720  27.830   0.093   8.511
    5AU     LIG 2721  28.039  44.704   8.649
    5AU     LIG 2722  28.337  44.397   8.815
    5AU     LIG 2723  28.739  44.195   8.713
    5AU    AUSL 2724  26.530   1.296   7.669
    5AU    AUSL 2725  26.402   1.676   8.204
    5AU     AUL 2726  26.448   1.354   8.054
    5AU       S 2727  26.484   0.963   7.815
    5AU     LIG 2728  26.275   0.569   7.725
    5AU     LIG 2729  26.210   0.135   7.890
    5AU     LIG 2730  26.113  44.680   7.953
    5AU     LIG 2731  25.800  44.309   7.939
    5AU     LIG 2732  25.642  43.910   8.127
    5AU     LIG 2733  25.403  43.521   8.276
    5AU       S 2734  26.131   1.555   8.313
    5AU     LIG 2735  25.840   1.187   8.487
    5AU     LIG 2736  25.471   0.871   8.467
    5AU     LIG 2737  25.244   0.511   8.709
    5AU     LIG 2738  25.008   0.198   8.993
    5AU     LIG 2739  24.978  44.954   9.394
    5AU     LIG 2740  24.995  44.745   9.820
    5AU    AUSL 2741  26.972   1.265   7.714
    5AU    AUSL 2742  26.474   1.293   7.252
    5AU     AUL 2743  26.785   1.028   7.474
    5AU       S 2744  26.371   0.978   7.126
    5AU     LIG 2745  26.088   0.613   7.144
    5AU     LIG 2746  26.087   0.122   7.197
    5AU     LIG 2747  26.045  44.655   7.003
    5AU     LIG 2748  25.885  44.173   6.878
    5AU     LIG 2749  25.900  43.698   6.707
    5AU     LIG 2750  25.932  43.212   6.764
    5AU       S 2751  26.860   1.036   7.915
    5AU     LIG 2752  26.804   0.566   7.770
    5AU     LIG 2753  26.718   0.102   7.808
    5AU     LIG 2754  26.712  44.675   8.032
    5AU     LIG 2755  26.941  44.262   8.154
    5AU     LIG 2756  26.931  43.833   8.337
    5AU     LIG 2757  27.194  43.479   8.445
    5AU    AUSL 2758  26.733   2.786   6.948
    5AU    AUSL 2759  27.054   2.547   7.260
    5AU     AUL 2760  27.097   2.868   6.995
    5AU       S 2761  26.763   3.088   6.757
    5AU     LIG 2762  27.046   3.347   6.521
    5AU     LIG 2763  27.146   3.789   6.398
    5AU     LIG 2764  27.158   4.147   6.069
    5AU     LIG 2765  27.210   4.404   5.646
    5AU     LIG 2766  27.164   4.750   5.305
    5AU     LIG 2767  27.053   5.156   5.087
    5AU       S 2768  27.472   2.581   6.942
    5AU     LIG 2769  27.846   2.958   6.892
    5AU     LIG 2770  28.110   3.075   6.512
    5AU     LIG 2771  28.336   3.349   6.194
    5AU     LIG 2772  28.491   3.804   6.104
    5AU     LIG 2773  28.681   4.248   6.126
    5AU     LIG 2774  28.891   4.633   5.930
    5AU    AUSL 2775  26.645   2.734   7.355
    5AU    AUSL 2776  26.532   2.449   7.062
    5AU     AUL 2777  26.469   2.934   7.097
    5AU       S 2778  26.808   3.245   6.988
    5AU     LIG 2779  26.822   3.697   6.818
    5AU     LIG 2780  26.862   4.143   6.688
    5AU     LIG 2781  26.583   4.542   6.705
    5AU     LIG 2782  26.644   5.003   6.707
    5AU     LIG 2783  26.751   5.448   6.541
    5AU     LIG 2784  26.564   5.858   6.403
    5AU       S 2785  26.336   2.739   6.689
    5AU     LIG 2786  26.322   2.851   6.254
    5AU     LIG 2787  26.054   3.114   5.944
    5AU     LIG 2788  25.911   3.277   5.497
    5AU     LIG 2789  25.857   3.533   5.076
    5AU     LIG 2790  25.682   3.872   4.774
    5AU     LIG 2791  25.326   4.119   4.552
    5AU    AUSL 2792  26.830   1.382   6.988
    5AU    AUSL 2793  26.409   1.685   7.351
    5AU     AUL 2794  26.502   1.383   6.922
    5AU       S 2795  26.008   1.309   7.146
    5AU     LIG 2796  25.711   1.020   7.273
    5AU     LIG 2797  25.280   0.924   7.083
    5AU     LIG 2798  24.995   0.644   6.818
    5AU     LIG 2799  24.660   0.441   6.532
    5AU     LIG 2800  24.367   0.016   6.482
    5AU     LIG 2801  24.174  44.550   6.425
    5AU       S 2802  26.657   0.970   7.021
    5AU     LIG 2803  26.483   0.622   6.791
    5AU     LIG 2804  26.223   0.266   6.725
    5AU     LIG 2805  26.329  44.839   6.596
    5AU     LIG 2806  26.396  44.592   6.189
    5AU     LIG 2807  26.395  44.260   5.846
    5AU     LIG 2808  26.459  43.933   5.501
    5AU    AUSL 2809  26.815   1.484   7.401
    5AU    AUSL 2810  26.954   1.757   7.102
    5AU     AUL 2811  27.016   1.265   7.151
    5AU       S 2812  26.397   1.081   7.270
    5AU     LIG 2813  26.571   0.573   7.312
    5AU     LIG 2814  26.594   0.162   7.072
    5AU     LIG 2815  26.781  44.750   6.898
    5AU     LIG 2816  27.097  44.378   6.843
    5AU     LIG 2817  27.257  44.001   6.585
    5AU     LIG 2818  27.257  43.670   6.253
    5AU       S 2819  27.206   1.370   6.733
    5AU     LIG 2820  27.073   0.944   6.654
    5AU     LIG 2821  27.280   0.598   6.384
    5AU     LIG 2822  27.536   0.333   6.070
    5AU     LIG 2823  27.801   0.149   5.723
    5AU     LIG 2824  28.021   0.013   5.338
    5AU     LIG 2825  28.059  44.827   4.913
    6AU     AUC 2826  19.690  19.633   7.502
    6AU     AUC 2827  19.953  19.631   7.342
    6AU     AUC 2828  19.945  19.624   7.649
    6AU     AUC 2829  19.445  19.632   7.339
    6AU     AUC 2830  19.426  19.652   7.646
    6AU     AUC 2831  19.544  19.893   7.502
    6AU     AUC 2832  19.851  19.887   7.480
    6AU     AUC 2833  19.534  19.378   7.514
    6AU     AUC 2834  19.829  19.375   7.528
    6AU     AUC 2835  19.679  19.486   7.765
    6AU     AUC 2836  19.713  19.800   7.751
    6AU     AUC 2837  19.695  19.465   7.247
    6AU     AUC 2838  19.680  19.768   7.237
    6AU     AUC 2839  20.202  19.624   7.178
    6AU     AUC 2840  20.212  19.632   7.487
    6AU     AUC 2841  20.203  19.627   7.800
    6AU     AUC 2842  19.187  19.621   7.181
    6AU     AUC 2843  19.171  19.653   7.482
    6AU     AUC 2844  19.179  19.674   7.807
    6AU     AUC 2845  19.404  20.163   7.500
    6AU     AUC 2846  19.709  20.161   7.493
    6AU     AUC 2847  20.002  20.155   7.489
    6AU     AUC 2848  19.346  19.126   7.526
    6AU     AUC 2849  19.668  19.107   7.514
    6AU     AUC 2850  19.982  19.107   7.535
    6AU     AUC 2851  19.660  19.331   8.018
    6AU     AUC 2852  19.691  19.645   8.031
    6AU     AUC 2853  19.714  19.957   8.019
    6AU     AUC 2854  19.698  19.287   7.014
    6AU     AUC 2855  19.704  19.605   6.977
    6AU     AUC 2856  19.681  19.919   6.971
    6AU     AUC 2857  19.959  19.485   7.928
    6AU     AUC 2858  19.960  19.780   7.921
    6AU     AUC 2859  19.964  19.457   7.085
    6AU     AUC 2860  19.959  19.770   7.069
    6AU     AUC 2861  19.418  19.508   7.930
    6AU     AUC 2862  19.436  19.816   7.927
    6AU     AUC 2863  19.445  19.457   7.072
    6AU     AUC 2864  19.433  19.773   7.073
    6AU     AUC 2865  20.108  19.898   7.319
    6AU     AUC 2866  20.118  19.874   7.642
    6AU     AUC 2867  19.277  19.895   7.342
    6AU     AUC 2868  19.284  19.920   7.662
    6AU     AUC 2869  20.103  19.368   7.356
    6AU     AUC 2870  20.106  19.368   7.673
    6AU     AUC 2871  19.265  19.376   7.343
    6AU     AUC 2872  19.265  19.398   7.681
    6AU     AUC 2873  19.545  20.058   7.768
    6AU     AUC 2874  19.868  20.060   7.740
    6AU     AUC 2875  19.508  19.216   7.766
    6AU     AUC 2876  19.831  19.220   7.790
    6AU     AUC 2877  19.534  20.048   7.233
    6AU     AUC 2878  19.852  20.035   7.220
    6AU     AUC 2879  19.515  19.213   7.250
    6AU     AUC 2880  19.846  19.200   7.272
    6AU    AUSL 2881  20.029  19.583   8.101
    6AU    AUSL 2882  20.000  19.152   8.144
    6AU     AUL 2883  20.230  19.244   8.404
    6AU       S 2884  20.294  18.864   8.105
    6AU     LIG 2885  20.159  18.596   8.413
    6AU     LIG 2886  20.347  18.288   8.704
    6AU     LIG 2887  20.541  17.904   8.894
    6AU     LIG 2888  20.649  17.514   9.144
    6AU     LIG 2889  20.767  17.228   9.513
    6AU     LIG 2890  20.867  17.027   9.944
    6AU       S 2891  20.096  19.605   8.663
    6AU     LIG 2892  20.280  19.293   8.958
    6AU     LIG 2893  20.474  19.136   9.368
    6AU     LIG 2894  20.829  19.052   9.671
    6AU     LIG 2895  21.204  19.075   9.962
    6AU     LIG 2896  21.516  19.128  10.305
    6AU     LIG 2897  21.604  19.169  10.768
    6AU    AUSL 2898  19.752  19.416   8.372
    6AU    AUSL 2899  19.634  19.821   8.292
    6AU     AUL 2900  19.689  19.795   8.707
    6AU       S 2901  19.830  19.422   8.510
    6AU     LIG 2902  19.775  19.204   8.906
    6AU     LIG 2903  19.973  18.993   9.309
    6AU     LIG 2904  20.196  18.807   9.719
    6AU     LIG 2905  20.368  18.620  10.149
    6AU     LIG 2906  20.366  18.627  10.632
    6AU     LIG 2907  20.609  18.759  11.015
    6AU       S 2908  19.337  19.527   8.639
    6AU     LIG 2909  19.357  19.446   9.114
    6AU     LIG 2910  19.171  19.380   9.547
    6AU     LIG 2911  18.987  19.353   9.988
    6AU     LIG 2912  18.928  19.636  10.385
    6AU     LIG 2913  18.780  19.983  10.700
    6AU     LIG 2914  18.574  20.242  11.060
    6AU    AUSL 2915  20.023  19.958   8.286
    6AU    AUSL 2916  20.361  19.818   7.985
    6AU     AUL 2917  20.322  19.685   8.284
    6AU       S 2918  20.037  19.990   8.478
    6AU     LIG 2919  20.215  20.117   8.869
    6AU     LIG 2920  20.258  20.348   9.290
    6AU     LIG 2921  20.191  20.437   9.765
    6AU     LIG 2922  20.302  20.541  10.219
    6AU     LIG 2923  20.310  20.611  10.678
    6AU     LIG 2924  20.609  20.449  10.995
    6AU       S 2925  20.661  19.879   8.034
    6AU     LIG 2926  20.815  19.859   8.468
    6AU     LIG 2927  21.111  20.125   8.712
    6AU     LIG 2928  21.399  20.425   8.945
    6AU     LIG 2929  21.652  20.629   9.294
    6AU     LIG 2930  22.024  20.693   9.587
    6AU     LIG 2931  22.289  20.970   9.863
    6AU    AUSL 2932  20.232  19.663   6.874
    6AU    AUSL 2933  19.986  20.059   6.815
    6AU     AUL 2934  20.342  20.004   6.448
    6AU       S 2935  20.262  19.690   6.721
    6AU     LIG 2936  20.560  19.587   6.333
    6AU     LIG 2937  20.611  19.384   5.927
    6AU     LIG 2938  20.748  19.232   5.495
    6AU     LIG 2939  21.013  19.227   5.088
    6AU     LIG 2940  21.374  19.088   4.778
    6AU     LIG 2941  21.712  19.033   4.433
    6AU       S 2942  19.978  20.112   6.656
    6AU     LIG 2943  20.263  20.479   6.563
    6AU     LIG 2944  20.627  20.548   6.263
    6AU     LIG 2945  20.948  20.714   5.924
    6AU     LIG 2946  21.168  20.823   5.490
    6AU     LIG 2947  21.252  21.007   5.043
    6AU     LIG 2948  21.365  21.360   4.736
    6AU    AUSL 2949  19.978  19.341   6.705
    6AU    AUSL 2950  20.312  19.273   7.003
    6AU     AUL 2951  20.414  19.288   6.692
    6AU       S 2952  20.313  18.858   6.818
    6AU     LIG 2953  20.548  18.688   6.449
    6AU     LIG 2954  20.781  18.299   6.287
    6AU     LIG 2955  21.035  18.033   5.980
    6AU     LIG 2956  21.411  18.045   5.675
    6AU     LIG 2957  21.821  18.006   5.423
    6AU     LIG 2958  22.124  17.861   5.086
    6AU       S 2959  20.079  19.546   6.450
    6AU     LIG 2960  20.211  19.164   6.231
    6AU     LIG 2961  20.284  19.024   5.766
    6AU     LIG 2962  20.327  19.015   5.274
    6AU     LIG 2963  20.285  18.831   4.814
    6AU     LIG 2964  20.342  18.694   4.347
    6AU     LIG 2965  20.683  18.573   4.024
    6AU    AUSL 2966  19.811  19.693   6.880
    6AU    AUSL 2967  19.564  19.430   6.660
    6AU     AUL 2968  19.773  19.217   6.569
    6AU       S 2969  19.523  19.529   6.327
    6AU     LIG 2970  19.494  19.222   6.007
    6AU     LIG 2971  19.228  18.972   5.702
    6AU     LIG 2972  19.035  18.834   5.288
    6AU     LIG 2973  18.846  18.587   4.916
    6AU     LIG 2974  18.594  18.517   4.502
    6AU     LIG 2975  18.498  18.576   4.026
    6AU       S 2976  19.959  19.665   6.504
    6AU     LIG 2977  20.103  19.614   5.977
    6AU     LIG 2978  20.289  19.492   5.534
    6AU     LIG 2979  20.509  19.487   5.097
    6AU     LIG 2980  20.590  19.692   4.657
    6AU     LIG 2981  20.591  19.980   4.254
    6AU     LIG 2982  20.682  20.090   3.787
    6AU    AUSL 2983  19.243  19.698   8.216
    6AU    AUSL 2984  19.382  20.114   8.134
    6AU     AUL 2985  19.399  19.998   8.419
    6AU       S 2986  19.160  19.685   8.677
    6AU     LIG 2987  18.903  19.348   8.881
    6AU     LIG 2988  18.781  19.149   9.300
    6AU     LIG 2989  18.550  19.121   9.724
    6AU     LIG 2990  18.164  19.170  10.009
    6AU     LIG 2991  17.756  19.198  10.261
    6AU     LIG 2992  17.534  19.420  10.620
    6AU       S 2993  18.948  20.064   8.354
    6AU     LIG 2994  18.985  20.178   8.786
    6AU     LIG 2995  18.892  20.530   9.083
    6AU     LIG 2996  18.730  20.865   9.379
    6AU     LIG 2997  18.670  21.097   9.800
    6AU     LIG 2998  18.484  21.441  10.084
    6AU     LIG 2999  18.162  21.740  10.288
    6AU    AUSL 3000  19.554  19.501   8.020
    6AU    AUSL 3001  19.004  19.430   8.003
    6AU     AUL 3002  19.052  19.554   8.247
    6AU       S 3003  18.857  19.117   8.207
    6AU     LIG 3004  18.432  18.983   8.068
    6AU     LIG 3005  18.102  18.684   8.231
    6AU     LIG 3006  17.884  18.400   8.548
    6AU     LIG 3007  17.635  18.036   8.731
    6AU     LIG 3008  17.317  17.802   8.988
    6AU     LIG 3009  16.913  17.908   9.208
    6AU       S 3010  19.347  19.418   8.599
    6AU     LIG 3011  19.296  19.025   8.815
    6AU     LIG 3012  19.265  18.940   9.283
    6AU     LIG 3013  19.030  18.904   9.709
    6AU     LIG 3014  18.764  18.828  10.112
    6AU     LIG 3015  18.650  18.629  10.548
    6AU     LIG 3016  18.616  18.476  11.007
    6AU    AUSL 3017  19.303  19.577   6.953
    6AU    AUSL 3018  19.447  19.151   6.941
    6AU     AUL 3019  19.273  19.260   6.638
    6AU       S 3020  19.280  19.610   6.315
    6AU     LIG 3021  19.012  19.407   5.983
    6AU     LIG 3022  18.805  19.240   5.573
    6AU     LIG 3023  18.590  19.083   5.162
    6AU     LIG 3024  18.187  19.013   4.881
    6AU     LIG 3025  17.872  19.119   4.510
    6AU     LIG 3026  17.710  19.395   4.132
    6AU       S 3027  19.012  18.847   6.811
    6AU     LIG 3028  18.729  18.485   6.782
    6AU     LIG 3029  18.431  18.218   6.509
    6AU     LIG 3030  18.139  17.967   6.209
    6AU     LIG 3031  17.992  17.840   5.757
    6AU     LIG 3032  18.042  17.588   5.329
    6AU     LIG 3033  18.023  17.313   4.921
    6AU    AUSL 3034  19.492  19.863   6.668
    6AU    AUSL 3035  19.066  19.920   6.937
    6AU     AUL 3036  19.083  19.691   6.716
    6AU       S 3037  19.050  20.156   6.722
    6AU     LIG 3038  18.774  20.237   6.330
    6AU     LIG 3039  18.542  20.501   5.978
    6AU     LIG 3040  18.307  20.535   5.548
    6AU     LIG 3041  17.918  20.558   5.259
    6AU     LIG 3042  17.495  20.722   5.101
    6AU     LIG 3043  17.182  21.066   4.985
    6AU       S 3044  19.496  19.787   6.463
    6AU     LIG 3045  19.507  19.762   5.906
    6AU     LIG 3046  19.301  19.473   5.564
    6AU     LIG 3047  19.071  19.380   5.148
    6AU     LIG 3048  19.040  19.586   4.703
    6AU     LIG 3049  19.016  19.844   4.284
    6AU     LIG 3050  18.774  20.031   3.899
    6AU    AUSL 3051  20.322  20.240   7.437
    6AU    AUSL 3052  20.337  20.022   7.062
    6AU     AUL 3053  20.450  20.458   7.238
    6AU       S 3054  20.463  20.127   6.874
    6AU     LIG 3055  20.811  20.121   6.552
    6AU     LIG 3056  21.072  20.275   6.185
    6AU     LIG 3057  21.390  20.458   5.883
    6AU     LIG 3058  21.665  20.552   5.518
    6AU     LIG 3059  22.083  20.708   5.387
    6AU     LIG 3060  22.415  20.989   5.251
    6AU       S 3061  20.780  20.134   7.333
    6AU     LIG 3062  21.273  20.143   7.477
    6AU     LIG 3063  21.774  20.181   7.496
    6AU     LIG 3064  22.210  20.388   7.530
    6AU     LIG 3065  22.381  20.842   7.560
    6AU     LIG 3066  22.807  21.049   7.576
    6AU     LIG 3067  23.050  21.437   7.496
    6AU    AUSL 3068  20.524  19.700   7.237
    6AU    AUSL 3069  20.548  19.521   7.648
    6AU     AUL 3070  20.733  19.468   7.257
    6AU       S 3071  20.718  19.924   7.326
    6AU     LIG 3072  21.136  19.759   7.171
    6AU     LIG 3073  21.605  19.749   7.276
    6AU     LIG 3074  22.105  19.806   7.263
    6AU     LIG 3075  22.590  19.816   7.230
    6AU     LIG 3076  22.933  19.993   6.927
    6AU     LIG 3077  23.324  20.223   6.775
    6AU       S 3078  20.911  19.269   7.631
    6AU     LIG 3079  21.129  19.059   7.934
    6AU     LIG 3080  21.457  18.754   7.888
    6AU     LIG 3081  21.908  18.669   7.940
    6AU     LIG 3082  22.374  18.689   7.909
    6AU     LIG 3083  22.840  18.703   7.956
    6AU     LIG 3084  23.273  18.716   8.103
    6AU    AUSL 3085  20.300  19.843   7.575
    6AU    AUSL 3086  20.219  20.191   7.843
    6AU     AUL 3087  20.484  20.154   7.698
    6AU       S 3088  20.507  20.110   8.143
    6AU     LIG 3089  20.934  20.308   8.227
    6AU     LIG 3090  21.126  20.619   8.544
    6AU     LIG 3091  21.346  20.951   8.833
    6AU     LIG 3092  21.492  21.427   8.922
    6AU     LIG 3093  21.688  21.893   8.909
    6AU     LIG 3094  22.108  22.148   8.984
    6AU       S 3095  20.827  19.883   7.560
    6AU     LIG 3096  21.235  19.666   7.678
    6AU     LIG 3097  21.684  19.772   7.794
    6AU     LIG 3098  22.147  19.897   7.761
    6AU     LIG 3099  22.635  19.942   7.772
    6AU     LIG 3100  23.060  19.834   8.017
    6AU     LIG 3101  23.495  20.040   8.158
    6AU    AUSL 3102  19.031  20.198   7.567
    6AU    AUSL 3103  19.074  19.928   7.914
    6AU     AUL 3104  19.038  20.379   7.834
    6AU       S 3105  18.874  20.000   8.088
    6AU     LIG 3106  18.497  20.244   8.331
    6AU     LIG 3107  18.476  20.401   8.792
    6AU     LIG 3108  18.357  20.522   9.245
    6AU     LIG 3109  18.040  20.564   9.627
    6AU     LIG 3110  17.687  20.712   9.936
    6AU     LIG 3111  17.362  20.932  10.222
    6AU       S 3112  18.658  20.229   7.628
    6AU     LIG 3113  18.336  20.568   7.604
    6AU     LIG 3114  17.994  20.849   7.518
    6AU     LIG 3115  17.673  21.114   7.737
    6AU     LIG 3116  17.300  21.363   7.899
    6AU     LIG 3117  16.929  21.618   7.762
    6AU     LIG 3118  16.454  21.724   7.806
    6AU    AUSL 3119  19.115  19.856   7.341
    6AU    AUSL 3120  19.202  20.266   7.185
    6AU     AUL 3121  18.932  20.194   7.204
    6AU       S 3122  18.541  20.136   7.461
    6AU     LIG 3123  18.166  20.275   7.205
    6AU     LIG 3124  17.745  20.489   7.094
    6AU     LIG 3125  17.339  20.735   6.960
    6AU     LIG 3126  16.894  20.592   6.843
    6AU     LIG 3127  16.467  20.761   6.701
    6AU     LIG 3128  16.028  20.734   6.519
    6AU       S 3129  19.042  20.433   6.805
    6AU     LIG 3130  18.902  20.713   6.445
    6AU     LIG 3131  18.680  20.997   6.131
    6AU     LIG 3132  18.619  21.464   6.079
    6AU     LIG 3133  18.411  21.870   6.120
    6AU     LIG 3134  18.023  22.073   5.959
    6AU     LIG 3135  17.720  22.424   5.868
    6AU    AUSL 3136  18.816  19.784   7.634
    6AU    AUSL 3137  18.871  19.528   7.286
    6AU     AUL 3138  18.723  19.787   7.239
    6AU       S 3139  18.520  19.359   7.408
    6AU     LIG 3140  18.206  19.440   7.783
    6AU     LIG 3141  17.737  19.485   7.761
    6AU     LIG 3142  17.336  19.238   7.712
    6AU     LIG 3143  16.919  19.057   7.571
    6AU     LIG 3144  16.483  18.898   7.549
    6AU     LIG 3145  16.112  18.857   7.276
    6AU       S 3146  18.618  19.835   7.710
    6AU     LIG 3147  18.252  20.067   7.896
    6AU     LIG 3148  17.940  20.277   8.181
    6AU     LIG 3149  17.464  20.308   8.182
    6AU     LIG 3150  17.006  20.408   8.159
    6AU     LIG 3151  16.528  20.359   8.158
    6AU     LIG 3152  16.157  20.658   8.132
    6AU    AUSL 3153  20.395  19.115   7.585
    6AU    AUSL 3154  20.332  19.344   7.955
    6AU     AUL 3155  20.609  19.367   7.954
    6AU       S 3156  20.638  18.993   7.644
    6AU     LIG 3157  20.881  18.633   7.758
    6AU     LIG 3158  21.253  18.417   7.567
    6AU     LIG 3159  21.718  18.394   7.530
    6AU     LIG 3160  22.106  18.133   7.428
    6AU     LIG 3161  22.450  17.796   7.514
    6AU     LIG 3162  22.792  17.651   7.805
    6AU       S 3163  20.326  19.004   8.029
    6AU     LIG 3164  20.757  18.840   8.221
    6AU     LIG 3165  20.806  18.466   8.506
    6AU     LIG 3166  20.981  18.168   8.828
    6AU     LIG 3167  21.299  18.079   9.183
    6AU     LIG 3168  21.683  17.956   9.441
    6AU     LIG 3169  21.984  17.986   9.809
    6AU    AUSL 3170  20.235  19.440   7.370
    6AU    AUSL 3171  20.150  18.975   7.273
    6AU     AUL 3172  20.447  19.099   7.214
    6AU       S 3173  20.734  19.102   7.566
    6AU     LIG 3174  21.189  18.915   7.440
    6AU     LIG 3175  21.472  18.691   7.156
    6AU     LIG 3176  21.904  18.575   7.079
    6AU     LIG 3177  22.346  18.567   7.081
    6AU     LIG 3178  22.766  18.362   7.058
    6AU     LIG 3179  23.182  18.559   7.091
    6AU       S 3180  20.373  18.708   6.968
    6AU     LIG 3181  20.350  18.311   6.737
    6AU     LIG 3182  20.520  17.925   6.525
    6AU     LIG 3183  20.822  17.647   6.292
    6AU     LIG 3184  20.963  17.189   6.218
    6AU     LIG 3185  21.258  16.837   6.079
    6AU     LIG 3186  21.662  16.637   5.926
    6AU    AUSL 3187  18.961  19.149   7.478
    6AU    AUSL 3188  19.058  19.254   7.045
    6AU     AUL 3189  18.794  19.353   7.021
    6AU       S 3190  18.993  18.940   7.036
    6AU     LIG 3191  18.513  18.947   6.930
    6AU     LIG 3192  18.219  18.661   6.691
    6AU     LIG 3193  17.972  18.441   6.342
    6AU     LIG 3194  17.698  18.188   6.040
    6AU     LIG 3195  17.431  18.156   5.645
    6AU     LIG 3196  17.148  18.288   5.260
    6AU       S 3197  18.656  19.130   7.406
    6AU     LIG 3198  18.267  18.944   7.571
    6AU     LIG 3199  17.780  18.980   7.587
    6AU     LIG 3200  17.336  18.744   7.555
    6AU     LIG 3201  16.884  18.516   7.605
    6AU     LIG 3202  16.484  18.271   7.770
    6AU     LIG 3203  16.100  17.994   7.827
    6AU    AUSL 3204  19.134  19.519   7.628
    6AU    AUSL 3205  19.222  19.122   7.808
    6AU     AUL 3206  18.834  19.313   7.789
    6AU       S 3207  18.943  18.921   7.998
    6AU     LIG 3208  18.698  18.656   7.769
    6AU     LIG 3209  18.372  18.361   7.938
    6AU     LIG 3210  18.063  18.071   8.191
    6AU     LIG 3211  17.851  17.686   8.422
    6AU     LIG 3212  17.532  17.438   8.677
    6AU     LIG 3213  17.204  17.085   8.750
    6AU       S 3214  18.562  19.411   7.445
    6AU     LIG 3215  18.045  19.348   7.307
    6AU     LIG 3216  17.569  19.398   7.270
    6AU     LIG 3217  17.098  19.499   7.347
    6AU     LIG 3218  16.784  19.537   7.698
    6AU     LIG 3219  16.332  19.385   7.769
    6AU     LIG 3220  15.997  19.027   7.763
    6AU    AUSL 3221  19.734  20.319   8.037
    6AU    AUSL 3222  19.405  20.100   7.719
    6AU     AUL 3223  19.433  20.392   8.116
    6AU       S 3224  19.026  20.231   8.261
    6AU     LIG 3225  18.862  20.594   8.510
    6AU     LIG 3226  18.667  20.913   8.822
    6AU     LIG 3227  18.608  21.379   8.960
    6AU     LIG 3228  18.484  21.860   8.983
    6AU     LIG 3229  18.185  22.229   9.103
    6AU     LIG 3230  17.725  22.351   9.203
    6AU       S 3231  19.786  20.705   8.000
    6AU     LIG 3232  19.962  20.831   8.373
    6AU     LIG 3233  20.032  21.262   8.531
    6AU     LIG 3234  20.013  21.658   8.788
    6AU     LIG 3235  20.007  21.894   9.213
    6AU     LIG 3236  19.926  22.258   9.511
    6AU     LIG 3237  19.810  22.716   9.577
    6AU    AUSL 3238  19.482  20.499   7.674
    6AU    AUSL 3239  19.938  20.478   7.259
    6AU     AUL 3240  19.623  20.731   7.427
    6AU       S 3241  19.621  20.779   7.886
    6AU     LIG 3242  19.720  21.207   8.101
    6AU     LIG 3243  19.755  21.641   8.284
    6AU     LIG 3244  19.498  22.048   8.311
    6AU     LIG 3245  19.426  22.466   8.498
    6AU     LIG 3246  19.571  22.893   8.651
    6AU     LIG 3247  19.340  23.301   8.666
    6AU       S 3248  19.955  20.819   7.096
    6AU     LIG 3249  20.299  20.960   6.849
    6AU     LIG 3250  20.373  21.424   6.775
    6AU     LIG 3251  20.548  21.866   6.750
    6AU     LIG 3252  20.730  22.277   6.594
    6AU     LIG 3253  20.870  22.722   6.555
    6AU     LIG 3254  21.019  23.165   6.451
    6AU    AUSL 3255  19.887  20.335   7.646
    6AU    AUSL 3256  19.877  19.957   7.906
    6AU     AUL 3257  20.066  20.346   8.042
    6AU       S 3258  20.444  20.136   8.243
    6AU     LIG 3259  20.626  20.324   8.631
    6AU     LIG 3260  20.873  20.500   8.985
    6AU     LIG 3261  21.145  20.746   9.268
    6AU     LIG 3262  21.354  21.018   9.583
    6AU     LIG 3263  21.379  21.258   9.993
    6AU     LIG 3264  21.327  21.502  10.395
    6AU       S 3265  19.973  20.665   7.724
    6AU     LIG 3266  20.184  21.048   7.958
    6AU     LIG 3267  20.306  21.499   8.152
    6AU     LIG 3268  20.641  21.886   8.232
    6AU     LIG 3269  20.865  22.328   8.358
    6AU     LIG 3270  21.000  22.791   8.422
    6AU     LIG 3271  20.960  23.246   8.309
    6AU    AUSL 3272  19.650  19.066   7.938
    6AU    AUSL 3273  20.011  19.191   7.725
    6AU     AUL 3274  19.852  18.937   8.180
    6AU       S 3275  19.656  18.517   8.026
    6AU     LIG 3276  19.593  18.203   8.320
    6AU     LIG 3277  19.372  17.801   8.269
    6AU     LIG 3278  19.353  17.335   8.346
    6AU     LIG 3279  19.090  17.010   8.600
    6AU     LIG 3280  19.015  16.757   9.003
    6AU     LIG 3281  19.186  16.542   9.382
    6AU       S 3282  20.306  18.810   7.935
    6AU     LIG 3283  20.506  18.395   8.087
    6AU     LIG 3284  20.603  17.996   8.365
    6AU     LIG 3285  20.610  17.535   8.539
    6AU     LIG 3286  20.839  17.202   8.779
    6AU     LIG 3287  21.095  16.873   8.970
    6AU     LIG 3288  21.549  16.789   9.061
    6AU    AUSL 3289  19.465  18.816   7.664
    6AU    AUSL 3290  19.355  19.197   8.208
    6AU     AUL 3291  19.390  18.882   8.060
    6AU       S 3292  19.395  18.512   7.789
    6AU     LIG 3293  19.109  18.180   7.711
    6AU     LIG 3294  19.136  17.720   7.790
    6AU     LIG 3295  18.954  17.330   8.023
    6AU     LIG 3296  18.736  16.940   8.221
    6AU     LIG 3297  18.688  16.491   8.358
    6AU     LIG 3298  18.684  16.030   8.418
    6AU       S 3299  19.057  19.066   8.310
    6AU     LIG 3300  18.732  18.663   8.372
    6AU     LIG 3301  18.407  18.336   8.476
    6AU     LIG 3302  18.164  17.990   8.703
    6AU     LIG 3303  17.918  17.676   8.968
    6AU     LIG 3304  17.896  17.498   9.411
    6AU     LIG 3305  17.869  17.288   9.839
    6AU    AUSL 3306  19.913  18.790   7.716
    6AU    AUSL 3307  19.418  18.812   7.247
    6AU     AUL 3308  19.730  18.549   7.476
    6AU       S 3309  19.322  18.505   7.125
    6AU     LIG 3310  18.981  18.232   7.191
    6AU     LIG 3311  18.999  17.762   7.233
    6AU     LIG 3312  19.001  17.291   7.070
    6AU     LIG 3313  18.900  16.852   6.846
    6AU     LIG 3314  18.792  16.375   6.806
    6AU     LIG 3315  18.786  15.906   6.726
    6AU       S 3316  19.766  18.560   7.921
    6AU     LIG 3317  19.621  18.052   7.837
    6AU     LIG 3318  19.633  17.562   7.900
    6AU     LIG 3319  19.850  17.152   8.071
    6AU     LIG 3320  20.032  16.700   8.129
    6AU     LIG 3321  20.082  16.226   8.136
    6AU     LIG 3322  20.075  15.817   8.348
    6AU    AUSL 3323  19.675  20.305   6.942
    6AU    AUSL 3324  19.985  20.065   7.264
    6AU     AUL 3325  20.047  20.385   6.998
    6AU       S 3326  19.712  20.601   6.760
    6AU     LIG 3327  19.942  20.868   6.491
    6AU     LIG 3328  20.099  21.277   6.366
    6AU     LIG 3329  20.031  21.671   6.115
    6AU     LIG 3330  19.978  21.924   5.706
    6AU     LIG 3331  20.024  22.354   5.512
    6AU     LIG 3332  19.950  22.825   5.446
    6AU       S 3333  20.414  20.096   6.957
    6AU     LIG 3334  20.705  20.543   6.812
    6AU     LIG 3335  21.054  20.696   6.498
    6AU     LIG 3336  21.317  21.002   6.220
    6AU     LIG 3337  21.548  21.456   6.183
    6AU     LIG 3338  21.753  21.919   6.125
    6AU     LIG 3339  22.031  22.273   5.911
    6AU    AUSL 3340  19.581  20.265   7.349
    6AU    AUSL 3341  19.474  19.969   7.062
    6AU     AUL 3342  19.409  20.459   7.096
    6AU       S 3343  19.757  20.764   6.990
    6AU     LIG 3344  19.855  21.239   6.835
    6AU     LIG 3345  19.913  21.684   6.648
    6AU     LIG 3346  19.714  22.133   6.585
    6AU     LIG 3347  19.552  22.601   6.545
    6AU     LIG 3348  19.372  23.004   6.352
    6AU     LIG 3349  19.059  23.360   6.281
    6AU       S 3350  19.279  20.269   6.686
    6AU     LIG 3351  19.264  20.377   6.262
    6AU     LIG 3352  19.033  20.635   5.938
    6AU     LIG 3353  18.790  20.754   5.537
    6AU     LIG 3354  18.756  20.939   5.077
    6AU     LIG 3355  18.618  21.296   4.782
    6AU     LIG 3356  18.330  21.667   4.656
    6AU    AUSL 3357  19.773  18.900   6.988
    6AU    AUSL 3358  19.349  19.203   7.349
    6AU     AUL 3359  19.453  18.903   6.913
    6AU       S 3360  18.944  18.816   7.157
    6AU     LIG 3361  18.580  18.576   7.269
    6AU     LIG 3362  18.303  18.272   7.021
    6AU     LIG 3363  17.976  18.074   6.709
    6AU     LIG 3364  17.645  17.831   6.438
    6AU     LIG 3365  17.251  17.516   6.385
    6AU     LIG 3366  17.041  17.120   6.186
    6AU       S 3367  19.590  18.482   7.025
    6AU     LIG 3368  19.358  18.080   6.856
    6AU     LIG 3369  19.196  17.652   6.749
    6AU     LIG 3370  19.132  17.223   6.565
    6AU     LIG 3371  19.012  16.848   6.305
    6AU     LIG 3372  19.077  16.677   5.862
    6AU     LIG 3373  19.333  16.536   5.482
    6AU    AUSL 3374  19.757  19.007   7.402
    6AU    AUSL 3375  19.888  19.279   7.097
    6AU     AUL 3376  19.954  18.783   7.148
    6AU       S 3377  19.346  18.606   7.263
    6AU     LIG 3378  19.462  18.098   7.356
    6AU     LIG 3379  19.495  17.650   7.173
    6AU     LIG 3380  19.509  17.221   6.931
    6AU     LIG 3381  19.713  16.780   6.799
    6AU     LIG 3382  19.995  16.369   6.704
    6AU     LIG 3383  20.175  15.903   6.674
    6AU       S 3384  20.146  18.903   6.730
    6AU     LIG 3385  20.039  18.609   6.434
    6AU     LIG 3386  20.266  18.269   6.220
    6AU     LIG 3387  20.519  17.950   5.988
    6AU     LIG 3388  20.716  17.766   5.598
    6AU     LIG 3389  20.908  17.542   5.218
    6AU     LIG 3390  21.137  17.403   4.817
    7AU     AUC 3391  41.859  17.476   7.512
    7AU     AUC 3392  42.122  17.480   7.355
    7AU     AUC 3393  42.112  17.465   7.663
    7AU     AUC 3394  41.616  17.476   7.345
    7AU     AUC 3395  41.592  17.495   7.651
    7AU     AUC 3396  41.710  17.735   7.511
    7AU     AUC 3397  42.015  17.732   7.491
    7AU     AUC 3398  41.707  17.220   7.519
    7AU     AUC 3399  42.003  17.221   7.537
    7AU     AUC 3400  41.846  17.325   7.775
    7AU     AUC 3401  41.877  17.642   7.763
    7AU     AUC 3402  41.868  17.310   7.257
    7AU     AUC 3403  41.852  17.615   7.248
    7AU     AUC 3404  42.376  17.481   7.200
    7AU     AUC 3405  42.379  17.482   7.504
    7AU     AUC 3406  42.361  17.468   7.827
    7AU     AUC 3407  41.357  17.463   7.186
    7AU     AUC 3408  41.340  17.493   7.490
    7AU     AUC 3409  41.344  17.510   7.813
    7AU     AUC 3410  41.568  18.005   7.512
    7AU     AUC 3411  41.872  18.003   7.505
    7AU     AUC 3412  42.173  17.996   7.502
    7AU     AUC 3413  41.521  16.965   7.528
    7AU     AUC 3414  41.843  16.950   7.520
    7AU     AUC 3415  42.157  16.954   7.545
    7AU     AUC 3416  41.836  17.170   8.025
    7AU     AUC 3417  41.855  17.479   8.041
    7AU     AUC 3418  41.875  17.790   8.031
    7AU     AUC 3419  41.875  17.132   7.023
    7AU     AUC 3420  41.879  17.451   6.987
    7AU     AUC 3421  41.851  17.765   6.982
    7AU     AUC 3422  42.122  17.331   7.940
    7AU     AUC 3423  42.113  17.624   7.945
    7AU     AUC 3424  42.141  17.306   7.098
    7AU     AUC 3425  42.131  17.620   7.082
    7AU     AUC 3426  41.581  17.342   7.934
    7AU     AUC 3427  41.600  17.651   7.937
    7AU     AUC 3428  41.620  17.302   7.078
    7AU     AUC 3429  41.605  17.617   7.081
    7AU     AUC 3430  42.275  17.748   7.337
    7AU     AUC 3431  42.278  17.720   7.669
    7AU     AUC 3432  41.444  17.736   7.351
    7AU     AUC 3433  41.450  17.759   7.673
    7AU     AUC 3434  42.279  17.218   7.372
    7AU     AUC 3435  42.273  17.215   7.690
    7AU     AUC 3436  41.438  17.219   7.346
    7AU     AUC 3437  41.435  17.236   7.681
    7AU     AUC 3438  41.709  17.894   7.782
    7AU     AUC 3439  42.029  17.904   7.753
    7AU     AUC 3440  41.680  17.054   7.771
    7AU     AUC 3441  42.001  17.059   7.796
    7AU     AUC 3442  41.701  17.890   7.243
    7AU     AUC 3443  42.020  17.882   7.232
    7AU     AUC 3444  41.691  17.057   7.255
    7AU     AUC 3445  42.023  17.048   7.280
    7AU    AUSL 3446  42.201  17.441   8.190
    7AU    AUSL 3447  42.189  16.994   8.144
    7AU     AUL 3448  42.460  17.065   8.423
    7AU       S 3449  42.470  16.721   8.088
    7AU     LIG 3450  42.310  16.442   8.413
    7AU     LIG 3451  42.311  16.000   8.553
    7AU     LIG 3452  42.504  15.636   8.760
    7AU     LIG 3453  42.758  15.417   9.087
    7AU     LIG 3454  42.972  15.092   9.365
    7AU     LIG 3455  43.069  14.975   9.823
    7AU       S 3456  42.246  17.431   8.366
    7AU     LIG 3457  42.383  17.348   8.827
    7AU     LIG 3458  42.652  17.121   9.170
    7AU     LIG 3459  43.001  17.037   9.520
    7AU     LIG 3460  43.369  17.063   9.855
    7AU     LIG 3461  43.661  17.010  10.238
    7AU     LIG 3462  43.985  17.056  10.576
    7AU    AUSL 3463  41.890  17.198   8.367
    7AU    AUSL 3464  41.800  17.617   8.319
    7AU     AUL 3465  41.947  17.571   8.693
    7AU       S 3466  41.987  17.171   8.516
    7AU     LIG 3467  42.195  16.856   8.807
    7AU     LIG 3468  42.318  16.721   9.273
    7AU     LIG 3469  42.336  16.556   9.752
    7AU     LIG 3470  42.409  16.449  10.235
    7AU     LIG 3471  42.538  16.574  10.691
    7AU     LIG 3472  42.695  16.651  11.137
    7AU       S 3473  41.524  17.399   8.659
    7AU     LIG 3474  41.349  17.306   9.115
    7AU     LIG 3475  41.140  17.266   9.533
    7AU     LIG 3476  41.081  17.229  10.001
    7AU     LIG 3477  41.249  17.436  10.416
    7AU     LIG 3478  41.306  17.780  10.757
    7AU     LIG 3479  41.131  18.108  11.069
    7AU    AUSL 3480  42.143  17.854   8.303
    7AU    AUSL 3481  42.504  17.690   8.044
    7AU     AUL 3482  42.518  17.720   8.508
    7AU       S 3483  42.120  17.915   8.433
    7AU     LIG 3484  42.294  17.993   8.859
    7AU     LIG 3485  42.378  18.121   9.315
    7AU     LIG 3486  42.352  18.292   9.763
    7AU     LIG 3487  42.425  18.280  10.232
    7AU     LIG 3488  42.509  18.184  10.691
    7AU     LIG 3489  42.569  18.023  11.151
    7AU       S 3490  42.792  17.684   8.066
    7AU     LIG 3491  43.209  17.735   8.251
    7AU     LIG 3492  43.407  17.944   8.650
    7AU     LIG 3493  43.602  18.213   9.005
    7AU     LIG 3494  43.904  18.286   9.383
    7AU     LIG 3495  44.315  18.393   9.621
    7AU     LIG 3496  44.697  18.560   9.850
    7AU    AUSL 3497  42.410  17.510   6.899
    7AU    AUSL 3498  42.143  17.907   6.818
    7AU     AUL 3499  42.513  17.857   6.470
    7AU       S 3500  42.445  17.539   6.743
    7AU     LIG 3501  42.737  17.443   6.347
    7AU     LIG 3502  42.751  17.271   5.913
    7AU     LIG 3503  42.890  17.177   5.457
    7AU     LIG 3504  43.225  17.182   5.093
    7AU     LIG 3505  43.619  17.160   4.792
    7AU     LIG 3506  43.867  17.147   4.370
    7AU       S 3507  42.133  17.965   6.652
    7AU     LIG 3508  42.426  18.344   6.567
    7AU     LIG 3509  42.805  18.374   6.261
    7AU     LIG 3510  43.122  18.515   5.911
    7AU     LIG 3511  43.350  18.773   5.560
    7AU     LIG 3512  43.376  19.071   5.176
    7AU     LIG 3513  43.314  19.396   4.830
    7AU    AUSL 3514  42.160  17.190   6.717
    7AU    AUSL 3515  42.491  17.118   7.016
    7AU     AUL 3516  42.589  17.135   6.703
    7AU       S 3517  42.506  16.701   6.839
    7AU     LIG 3518  42.677  16.413   6.511
    7AU     LIG 3519  42.920  16.044   6.355
    7AU     LIG 3520  43.192  15.819   6.026
    7AU     LIG 3521  43.586  15.756   5.745
    7AU     LIG 3522  43.968  15.731   5.447
    7AU     LIG 3523  44.287  15.706   5.098
    7AU       S 3524  42.258  17.406   6.471
    7AU     LIG 3525  42.374  17.040   6.249
    7AU     LIG 3526  42.406  16.906   5.801
    7AU     LIG 3527  42.468  16.888   5.330
    7AU     LIG 3528  42.495  16.865   4.855
    7AU     LIG 3529  42.625  16.645   4.452
    7AU     LIG 3530  42.662  16.678   3.974
    7AU    AUSL 3531  41.989  17.537   6.897
    7AU    AUSL 3532  41.748  17.275   6.667
    7AU     AUL 3533  41.958  17.064   6.579
    7AU       S 3534  41.717  17.377   6.330
    7AU     LIG 3535  41.673  17.064   6.024
    7AU     LIG 3536  41.382  16.863   5.713
    7AU     LIG 3537  41.195  16.807   5.281
    7AU     LIG 3538  40.969  16.648   4.894
    7AU     LIG 3539  40.924  16.402   4.479
    7AU     LIG 3540  40.863  16.394   4.012
    7AU       S 3541  42.145  17.510   6.526
    7AU     LIG 3542  42.213  17.462   5.994
    7AU     LIG 3543  42.396  17.363   5.548
    7AU     LIG 3544  42.546  17.349   5.086
    7AU     LIG 3545  42.553  17.559   4.650
    7AU     LIG 3546  42.552  17.864   4.278
    7AU     LIG 3547  42.744  18.129   3.939
    7AU    AUSL 3548  41.406  17.523   8.216
    7AU    AUSL 3549  41.566  17.926   8.157
    7AU     AUL 3550  41.620  17.829   8.458
    7AU       S 3551  41.324  17.532   8.669
    7AU     LIG 3552  41.001  17.219   8.735
    7AU     LIG 3553  40.828  17.085   9.165
    7AU     LIG 3554  40.645  17.088   9.626
    7AU     LIG 3555  40.275  17.102   9.950
    7AU     LIG 3556  40.010  17.183  10.347
    7AU     LIG 3557  39.946  17.024  10.789
    7AU       S 3558  41.167  17.910   8.384
    7AU     LIG 3559  41.129  18.075   8.806
    7AU     LIG 3560  41.057  18.403   9.140
    7AU     LIG 3561  40.892  18.694   9.468
    7AU     LIG 3562  40.836  18.848   9.916
    7AU     LIG 3563  40.644  19.132  10.248
    7AU     LIG 3564  40.313  19.412  10.455
    7AU    AUSL 3565  41.719  17.332   8.018
    7AU    AUSL 3566  41.163  17.261   7.998
    7AU     AUL 3567  41.210  17.391   8.248
    7AU       S 3568  41.006  16.961   8.222
    7AU     LIG 3569  40.598  16.763   8.113
    7AU     LIG 3570  40.256  16.523   8.322
    7AU     LIG 3571  40.049  16.243   8.618
    7AU     LIG 3572  39.867  15.934   8.902
    7AU     LIG 3573  39.532  15.760   9.169
    7AU     LIG 3574  39.167  15.761   9.471
    7AU       S 3575  41.501  17.264   8.601
    7AU     LIG 3576  41.383  16.888   8.816
    7AU     LIG 3577  41.253  16.810   9.268
    7AU     LIG 3578  41.062  16.783   9.702
    7AU     LIG 3579  40.907  16.630  10.125
    7AU     LIG 3580  40.883  16.439  10.569
    7AU     LIG 3581  41.014  16.480  11.026
    7AU    AUSL 3582  41.481  17.423   6.952
    7AU    AUSL 3583  41.622  16.996   6.944
    7AU     AUL 3584  41.454  17.110   6.640
    7AU       S 3585  41.474  17.457   6.316
    7AU     LIG 3586  41.204  17.287   5.983
    7AU     LIG 3587  40.963  17.154   5.585
    7AU     LIG 3588  40.695  16.980   5.220
    7AU     LIG 3589  40.277  16.950   4.956
    7AU     LIG 3590  39.877  17.051   4.686
    7AU     LIG 3591  39.642  17.148   4.272
    7AU       S 3592  41.192  16.701   6.801
    7AU     LIG 3593  40.934  16.321   6.788
    7AU     LIG 3594  40.640  16.045   6.527
    7AU     LIG 3595  40.345  15.805   6.249
    7AU     LIG 3596  40.124  15.652   5.862
    7AU     LIG 3597  40.203  15.466   5.424
    7AU     LIG 3598  40.315  15.361   4.966
    7AU    AUSL 3599  41.680  17.710   6.673
    7AU    AUSL 3600  41.226  17.754   6.951
    7AU     AUL 3601  41.278  17.549   6.712
    7AU       S 3602  41.177  18.002   6.735
    7AU     LIG 3603  40.940  18.074   6.324
    7AU     LIG 3604  40.726  18.329   5.963
    7AU     LIG 3605  40.425  18.405   5.584
    7AU     LIG 3606  40.061  18.470   5.254
    7AU     LIG 3607  39.667  18.625   5.007
    7AU     LIG 3608  39.380  18.986   4.857
    7AU       S 3609  41.688  17.635   6.457
    7AU     LIG 3610  41.679  17.597   5.897
    7AU     LIG 3611  41.456  17.346   5.536
    7AU     LIG 3612  41.244  17.297   5.104
    7AU     LIG 3613  41.293  17.467   4.641
    7AU     LIG 3614  41.247  17.788   4.276
    7AU     LIG 3615  41.037  18.097   3.972
    7AU    AUSL 3616  42.507  18.038   7.457
    7AU    AUSL 3617  42.500  17.886   7.052
    7AU     AUL 3618  42.585  18.297   7.275
    7AU       S 3619  42.609  18.001   6.893
    7AU     LIG 3620  42.967  17.810   6.684
    7AU     LIG 3621  43.176  17.986   6.297
    7AU     LIG 3622  43.512  18.196   6.022
    7AU     LIG 3623  43.739  18.452   5.683
    7AU     LIG 3624  44.033  18.581   5.318
    7AU     LIG 3625  44.363  18.815   5.037
    7AU       S 3626  42.958  18.006   7.356
    7AU     LIG 3627  43.451  18.022   7.498
    7AU     LIG 3628  43.962  18.076   7.545
    7AU     LIG 3629  44.457  18.167   7.561
    7AU     LIG 3630  44.901  18.379   7.492
    7AU     LIG 3631   0.114  18.825   7.446
    7AU     LIG 3632   0.147  19.308   7.432
    7AU    AUSL 3633  42.675  17.599   7.288
    7AU    AUSL 3634  42.731  17.371   7.661
    7AU     AUL 3635  42.901  17.335   7.285
    7AU       S 3636  42.894  17.792   7.324
    7AU     LIG 3637  43.309  17.650   7.172
    7AU     LIG 3638  43.793  17.693   7.238
    7AU     LIG 3639  44.287  17.805   7.226
    7AU     LIG 3640  44.774  17.957   7.205
    7AU     LIG 3641   0.219  18.175   7.108
    7AU     LIG 3642   0.637  18.270   6.855
    7AU       S 3643  43.076  17.096   7.650
    7AU     LIG 3644  43.285  16.714   7.851
    7AU     LIG 3645  43.703  16.476   7.834
    7AU     LIG 3646  44.137  16.275   7.823
    7AU     LIG 3647  44.610  16.235   7.890
    7AU     LIG 3648   0.032  16.288   8.114
    7AU     LIG 3649   0.519  16.294   8.230
    7AU    AUSL 3650  42.436  17.661   7.639
    7AU    AUSL 3651  42.378  18.051   7.859
    7AU     AUL 3652  42.649  17.993   7.713
    7AU       S 3653  42.612  18.007   8.160
    7AU     LIG 3654  43.012  18.176   8.070
    7AU     LIG 3655  43.295  18.382   8.402
    7AU     LIG 3656  43.497  18.672   8.742
    7AU     LIG 3657  43.722  19.100   8.878
    7AU     LIG 3658  43.947  19.548   8.940
    7AU     LIG 3659  44.247  19.870   9.148
    7AU       S 3660  43.006  17.741   7.596
    7AU     LIG 3661  43.401  17.539   7.683
    7AU     LIG 3662  43.873  17.606   7.743
    7AU     LIG 3663  44.353  17.677   7.721
    7AU     LIG 3664  44.826  17.785   7.698
    7AU     LIG 3665   0.225  18.048   7.746
    7AU     LIG 3666   0.616  18.229   7.908
    7AU    AUSL 3667  41.199  18.042   7.581
    7AU    AUSL 3668  41.236  17.777   7.932
    7AU     AUL 3669  41.202  18.216   7.874
    7AU       S 3670  41.036  17.839   8.125
    7AU     LIG 3671  40.701  18.032   8.458
    7AU     LIG 3672  40.633  18.228   8.893
    7AU     LIG 3673  40.486  18.402   9.321
    7AU     LIG 3674  40.173  18.500   9.694
    7AU     LIG 3675  39.865  18.654  10.045
    7AU     LIG 3676  39.584  18.995  10.216
    7AU       S 3677  40.843  18.062   7.639
    7AU     LIG 3678  40.786  18.478   7.450
    7AU     LIG 3679  40.449  18.821   7.410
    7AU     LIG 3680  40.034  19.081   7.406
    7AU     LIG 3681  39.686  19.417   7.382
    7AU     LIG 3682  39.335  19.566   7.638
    7AU     LIG 3683  38.881  19.702   7.564
    7AU    AUSL 3684  41.280  17.700   7.355
    7AU    AUSL 3685  41.364  18.108   7.194
    7AU     AUL 3686  41.095  18.034   7.218
    7AU       S 3687  40.712  17.977   7.493
    7AU     LIG 3688  40.380  18.076   7.168
    7AU     LIG 3689  39.985  18.257   6.907
    7AU     LIG 3690  39.594  18.507   6.693
    7AU     LIG 3691  39.155  18.726   6.559
    7AU     LIG 3692  38.686  18.609   6.599
    7AU     LIG 3693  38.218  18.522   6.728
    7AU       S 3694  41.192  18.272   6.814
    7AU     LIG 3695  41.123  18.538   6.423
    7AU     LIG 3696  40.903  18.811   6.088
    7AU     LIG 3697  40.684  19.206   5.908
    7AU     LIG 3698  40.380  19.593   5.848
    7AU     LIG 3699  40.011  19.912   5.768
    7AU     LIG 3700  39.642  20.217   5.833
    7AU    AUSL 3701  40.987  17.615   7.652
    7AU    AUSL 3702  41.040  17.370   7.293
    7AU     AUL 3703  40.888  17.628   7.264
    7AU       S 3704  40.687  17.182   7.406
    7AU     LIG 3705  40.346  17.151   7.786
    7AU     LIG 3706  39.868  17.072   7.851
    7AU     LIG 3707  39.489  16.874   7.611
    7AU     LIG 3708  39.088  16.756   7.339
    7AU     LIG 3709  38.610  16.685   7.262
    7AU     LIG 3710  38.175  16.691   7.028
    7AU       S 3711  40.793  17.671   7.737
    7AU     LIG 3712  40.477  17.942   7.988
    7AU     LIG 3713  40.017  18.127   8.128
    7AU     LIG 3714  39.520  18.274   8.184
    7AU     LIG 3715  39.049  18.424   8.251
    7AU     LIG 3716  38.576  18.366   8.270
    7AU     LIG 3717  38.219  18.698   8.268
    7AU    AUSL 3718  42.568  16.968   7.610
    7AU    AUSL 3719  42.475  17.238   7.955
    7AU     AUL 3720  42.760  17.195   7.974
    7AU       S 3721  42.793  16.837   7.651
    7AU     LIG 3722  42.894  16.417   7.678
    7AU     LIG 3723  43.316  16.221   7.601
    7AU     LIG 3724  43.762  16.037   7.546
    7AU     LIG 3725  44.211  15.855   7.520
    7AU     LIG 3726  44.528  15.515   7.415
    7AU     LIG 3727  44.947  15.345   7.518
    7AU       S 3728  42.481  16.828   8.034
    7AU     LIG 3729  42.850  16.452   8.206
    7AU     LIG 3730  42.820  16.084   8.502
    7AU     LIG 3731  43.017  15.787   8.817
    7AU     LIG 3732  43.388  15.741   9.125
    7AU     LIG 3733  43.791  15.841   9.385
    7AU     LIG 3734  44.182  15.897   9.662
    7AU    AUSL 3735  42.417  17.289   7.383
    7AU    AUSL 3736  42.330  16.825   7.291
    7AU     AUL 3737  42.626  16.957   7.224
    7AU       S 3738  42.897  16.945   7.583
    7AU     LIG 3739  43.215  16.682   7.347
    7AU     LIG 3740  43.668  16.498   7.317
    7AU     LIG 3741  44.125  16.322   7.293
    7AU     LIG 3742  44.555  16.116   7.231
    7AU     LIG 3743  44.975  16.211   7.045
    7AU     LIG 3744   0.359  16.295   6.774
    7AU       S 3745  42.559  16.544   7.005
    7AU     LIG 3746  42.521  16.073   6.888
    7AU     LIG 3747  42.682  15.691   6.664
    7AU     LIG 3748  42.746  15.247   6.531
    7AU     LIG 3749  43.011  14.847   6.425
    7AU     LIG 3750  43.316  14.564   6.172
    7AU     LIG 3751  43.672  14.256   6.029
    7AU    AUSL 3752  41.133  16.988   7.473
    7AU    AUSL 3753  41.233  17.105   7.046
    7AU     AUL 3754  40.966  17.208   7.022
    7AU       S 3755  41.171  16.795   7.029
    7AU     LIG 3756  40.700  16.791   6.917
    7AU     LIG 3757  40.470  16.523   6.625
    7AU     LIG 3758  40.232  16.302   6.294
    7AU     LIG 3759  39.892  16.055   6.109
    7AU     LIG 3760  39.642  15.859   5.753
    7AU     LIG 3761  39.361  15.779   5.365
    7AU       S 3762  40.829  16.969   7.393
    7AU     LIG 3763  40.521  16.730   7.584
    7AU     LIG 3764  40.166  16.645   7.842
    7AU     LIG 3765  39.767  16.459   7.719
    7AU     LIG 3766  39.289  16.376   7.626
    7AU     LIG 3767  38.860  16.165   7.486
    7AU     LIG 3768  38.654  15.715   7.444
    7AU    AUSL 3769  41.307  17.356   7.631
    7AU    AUSL 3770  41.395  16.958   7.803
    7AU     AUL 3771  41.010  17.125   7.786
    7AU       S 3772  41.104  16.755   8.040
    7AU     LIG 3773  40.892  16.461   7.804
    7AU     LIG 3774  40.497  16.261   7.933
    7AU     LIG 3775  40.201  15.993   8.197
    7AU     LIG 3776  39.954  15.671   8.468
    7AU     LIG 3777  39.759  15.277   8.686
    7AU     LIG 3778  39.571  14.808   8.697
    7AU       S 3779  40.727  17.248   7.460
    7AU     LIG 3780  40.220  17.315   7.322
    7AU     LIG 3781  39.729  17.296   7.391
    7AU     LIG 3782  39.239  17.263   7.408
    7AU     LIG 3783  38.827  17.102   7.598
    7AU     LIG 3784  38.546  16.793   7.764
    7AU     LIG 3785  38.265  16.643   8.101
    7AU    AUSL 3786  41.891  18.160   8.040
    7AU    AUSL 3787  41.568  17.942   7.740
    7AU     AUL 3788  41.607  18.221   8.129
    7AU       S 3789  41.227  18.042   8.300
    7AU     LIG 3790  41.040  18.422   8.415
    7AU     LIG 3791  40.855  18.675   8.753
    7AU     LIG 3792  40.733  19.022   9.039
    7AU     LIG 3793  40.512  19.447   9.076
    7AU     LIG 3794  40.197  19.796   9.158
    7AU     LIG 3795  39.900  20.161   9.231
    7AU       S 3796  41.923  18.566   8.048
    7AU     LIG 3797  42.070  18.852   8.375
    7AU     LIG 3798  42.120  19.278   8.573
    7AU     LIG 3799  42.228  19.673   8.785
    7AU     LIG 3800  42.233  19.934   9.156
    7AU     LIG 3801  41.970  20.193   9.435
    7AU     LIG 3802  41.733  20.521   9.673
    7AU    AUSL 3803  41.641  18.340   7.683
    7AU    AUSL 3804  42.091  18.328   7.274
    7AU     AUL 3805  41.721  18.567   7.437
    7AU       S 3806  41.790  18.612   7.888
    7AU     LIG 3807  41.994  19.045   7.903
    7AU     LIG 3808  42.049  19.460   8.102
    7AU     LIG 3809  42.066  19.875   8.321
    7AU     LIG 3810  41.748  20.219   8.313
    7AU     LIG 3811  41.466  20.573   8.502
    7AU     LIG 3812  41.316  20.981   8.694
    7AU       S 3813  42.133  18.636   7.212
    7AU     LIG 3814  42.453  18.759   6.939
    7AU     LIG 3815  42.495  19.207   6.761
    7AU     LIG 3816  42.396  19.670   6.576
    7AU     LIG 3817  42.542  20.154   6.565
    7AU     LIG 3818  42.746  20.621   6.516
    7AU     LIG 3819  42.963  21.067   6.432
    7AU    AUSL 3820  42.046  18.173   7.653
    7AU    AUSL 3821  42.046  17.794   7.916
    7AU     AUL 3822  42.218  18.217   8.029
    7AU       S 3823  42.644  17.735   8.086
    7AU     LIG 3824  42.902  18.010   8.543
    7AU     LIG 3825  43.099  18.310   8.879
    7AU     LIG 3826  43.301  18.589   9.223
    7AU     LIG 3827  43.361  18.907   9.586
    7AU     LIG 3828  43.394  19.195   9.978
    7AU     LIG 3829  43.281  19.487  10.346
    7AU       S 3830  42.095  18.528   7.719
    7AU     LIG 3831  42.402  18.728   7.979
    7AU     LIG 3832  42.455  19.146   8.182
    7AU     LIG 3833  42.496  19.585   8.350
    7AU     LIG 3834  42.519  20.030   8.529
    7AU     LIG 3835  42.618  20.496   8.603
    7AU     LIG 3836  42.647  20.929   8.825
    7AU    AUSL 3837  41.825  16.898   7.959
    7AU    AUSL 3838  42.177  17.033   7.729
    7AU     AUL 3839  42.026  16.774   8.186
    7AU       S 3840  41.852  16.362   8.036
    7AU     LIG 3841  41.854  16.080   8.325
    7AU     LIG 3842  41.609  15.719   8.331
    7AU     LIG 3843  41.657  15.275   8.353
    7AU     LIG 3844  41.667  14.915   8.644
    7AU     LIG 3845  41.615  14.649   9.044
    7AU     LIG 3846  41.661  14.394   9.450
    7AU       S 3847  42.477  16.626   7.937
    7AU     LIG 3848  42.436  16.132   8.034
    7AU     LIG 3849  42.606  15.706   8.235
    7AU     LIG 3850  42.862  15.393   8.501
    7AU     LIG 3851  43.017  15.072   8.816
    7AU     LIG 3852  43.288  14.790   9.044
    7AU     LIG 3853  43.617  14.458   8.980
    7AU    AUSL 3854  41.647  16.657   7.669
    7AU    AUSL 3855  41.508  17.032   8.204
    7AU     AUL 3856  41.557  16.708   8.047
    7AU       S 3857  41.624  16.305   7.834
    7AU     LIG 3858  41.441  15.883   7.839
    7AU     LIG 3859  41.289  15.459   8.013
    7AU     LIG 3860  41.208  15.005   8.161
    7AU     LIG 3861  40.936  14.580   8.149
    7AU     LIG 3862  40.755  14.118   8.168
    7AU     LIG 3863  40.752  13.653   8.293
    7AU       S 3864  41.240  16.907   8.310
    7AU     LIG 3865  40.943  16.528   8.459
    7AU     LIG 3866  40.616  16.188   8.456
    7AU     LIG 3867  40.378  15.856   8.693
    7AU     LIG 3868  40.225  15.600   9.059
    7AU     LIG 3869  40.282  15.491   9.521
    7AU     LIG 3870  40.227  15.340   9.966
    7AU    AUSL 3871  42.089  16.631   7.717
    7AU    AUSL 3872  41.595  16.655   7.251
    7AU     AUL 3873  41.904  16.395   7.481
    7AU       S 3874  41.509  16.348   7.129
    7AU     LIG 3875  41.213  16.037   7.170
    7AU     LIG 3876  41.348  15.591   7.181
    7AU     LIG 3877  41.379  15.145   7.015
    7AU     LIG 3878  41.350  14.718   6.795
    7AU     LIG 3879  41.344  14.242   6.705
    7AU     LIG 3880  41.383  13.754   6.703
    7AU       S 3881  41.995  16.400   7.919
    7AU     LIG 3882  41.960  15.922   7.842
    7AU     LIG 3883  41.787  15.504   7.887
    7AU     LIG 3884  42.012  15.123   8.009
    7AU     LIG 3885  42.224  14.707   8.109
    7AU     LIG 3886  42.215  14.227   8.175
    7AU     LIG 3887  42.159  13.751   8.228
    7AU    AUSL 3888  41.838  18.153   6.956
    7AU    AUSL 3889  42.156  17.918   7.270
    7AU     AUL 3890  42.198  18.235   6.998
    7AU       S 3891  41.887  18.524   6.817
    7AU     LIG 3892  42.120  18.811   6.562
    7AU     LIG 3893  42.130  19.243   6.414
    7AU     LIG 3894  42.264  19.504   6.060
    7AU     LIG 3895  42.364  19.731   5.671
    7AU     LIG 3896  42.255  20.125   5.462
    7AU     LIG 3897  42.028  20.503   5.301
    7AU       S 3898  42.574  17.956   6.963
    7AU     LIG 3899  42.933  18.324   6.763
    7AU     LIG 3900  43.279  18.473   6.440
    7AU     LIG 3901  43.555  18.705   6.122
    7AU     LIG 3902  43.805  19.060   5.940
    7AU     LIG 3903  43.982  19.514   5.938
    7AU     LIG 3904  44.185  19.952   5.920
    7AU    AUSL 3905  41.742  18.099   7.362
    7AU    AUSL 3906  41.636  17.814   7.065
    7AU     AUL 3907  41.574  18.292   7.084
    7AU       S 3908  41.937  18.614   7.045
    7AU     LIG 3909  42.016  19.080   6.990
    7AU     LIG 3910  42.141  19.515   6.994
    7AU     LIG 3911  41.948  19.897   6.820
    7AU     LIG 3912  41.692  20.290   6.709
    7AU     LIG 3913  41.460  20.696   6.594
    7AU     LIG 3914  41.203  21.051   6.399
    7AU       S 3915  41.432  18.094   6.689
    7AU     LIG 3916  41.440  18.153   6.246
    7AU     LIG 3917  41.228  18.433   5.911
    7AU     LIG 3918  40.973  18.695   5.576
    7AU     LIG 3919  40.899  19.002   5.187
    7AU     LIG 3920  40.791  19.258   4.778
    7AU     LIG 3921  40.483  19.523   4.545
    7AU    AUSL 3922  41.952  16.750   6.992
    7AU    AUSL 3923  41.524  17.046   7.351
    7AU     AUL 3924  41.630  16.748   6.916
    7AU       S 3925  41.127  16.662   7.143
    7AU     LIG 3926  40.770  16.416   7.265
    7AU     LIG 3927  40.485  16.142   7.009
    7AU     LIG 3928  40.142  16.007   6.701
    7AU     LIG 3929  39.906  15.643   6.463
    7AU     LIG 3930  39.742  15.184   6.371
    7AU     LIG 3931  39.501  14.909   6.061
    7AU       S 3932  41.782  16.333   7.027
    7AU     LIG 3933  41.619  15.948   6.844
    7AU     LIG 3934  41.562  15.525   6.699
    7AU     LIG 3935  41.528  15.115   6.508
    7AU     LIG 3936  41.656  14.842   6.162
    7AU     LIG 3937  41.627  14.559   5.796
    7AU     LIG 3938  41.898  14.302   5.508
    7AU    AUSL 3939  41.932  16.851   7.404
    7AU    AUSL 3940  42.070  17.127   7.108
    7AU     AUL 3941  42.135  16.633   7.158
    7AU       S 3942  41.521  16.452   7.267
    7AU     LIG 3943  41.694  15.959   7.375
    7AU     LIG 3944  41.864  15.590   7.119
    7AU     LIG 3945  41.877  15.171   6.898
    7AU     LIG 3946  41.859  14.741   6.696
    7AU     LIG 3947  41.977  14.272   6.648
    7AU     LIG 3948  42.335  13.943   6.581
    7AU       S 3949  42.332  16.746   6.743
    7AU     LIG 3950  42.173  16.339   6.627
    7AU     LIG 3951  42.392  15.990   6.359
    7AU     LIG 3952  42.662  15.779   5.992
    7AU     LIG 3953  42.801  15.546   5.579
    7AU     LIG 3954  42.979  15.402   5.126
    7AU     LIG 3955  43.247  15.275   4.730
    8AU     AUC 3956  40.651  25.883   7.486
    8AU     AUC 3957  40.905  25.874   7.316
    8AU     AUC 3958  40.898  25.875   7.640
    8AU     AUC 3959  40.404  25.891   7.316
    8AU     AUC 3960  40.399  25.899   7.640
    8AU     AUC 3961  40.502  26.141   7.487
    8AU     AUC 3962  40.810  26.130   7.466
    8AU     AUC 3963  40.493  25.632   7.499
    8AU     AUC 3964  40.785  25.617   7.491
    8AU     AUC 3965  40.650  25.729   7.749
    8AU     AUC 3966  40.662  26.038   7.753
    8AU     AUC 3967  40.639  25.725   7.217
    8AU     AUC 3968  40.642  26.022   7.220
    8AU     AUC 3969  41.168  25.882   7.162
    8AU     AUC 3970  41.169  25.888   7.465
    8AU     AUC 3971  41.169  25.894   7.790
    8AU     AUC 3972  40.153  25.905   7.160
    8AU     AUC 3973  40.131  25.921   7.482
    8AU     AUC 3974  40.142  25.921   7.802
    8AU     AUC 3975  40.356  26.405   7.489
    8AU     AUC 3976  40.665  26.408   7.495
    8AU     AUC 3977  40.977  26.402   7.469
    8AU     AUC 3978  40.323  25.373   7.513
    8AU     AUC 3979  40.632  25.359   7.500
    8AU     AUC 3980  40.944  25.355   7.496
    8AU     AUC 3981  40.658  25.587   8.006
    8AU     AUC 3982  40.673  25.897   8.016
    8AU     AUC 3983  40.669  26.202   8.008
    8AU     AUC 3984  40.614  25.543   6.984
    8AU     AUC 3985  40.623  25.841   6.959
    8AU     AUC 3986  40.643  26.172   6.955
    8AU     AUC 3987  40.918  25.738   7.912
    8AU     AUC 3988  40.930  26.055   7.900
    8AU     AUC 3989  40.908  25.702   7.062
    8AU     AUC 3990  40.911  26.009   7.042
    8AU     AUC 3991  40.393  25.747   7.919
    8AU     AUC 3992  40.407  26.048   7.929
    8AU     AUC 3993  40.377  25.717   7.064
    8AU     AUC 3994  40.390  26.048   7.055
    8AU     AUC 3995  41.065  26.136   7.292
    8AU     AUC 3996  41.073  26.134   7.628
    8AU     AUC 3997  40.237  26.149   7.319
    8AU     AUC 3998  40.241  26.170   7.645
    8AU     AUC 3999  41.059  25.619   7.340
    8AU     AUC 4000  41.048  25.600   7.643
    8AU     AUC 4001  40.233  25.614   7.349
    8AU     AUC 4002  40.223  25.648   7.646
    8AU     AUC 4003  40.494  26.296   7.765
    8AU     AUC 4004  40.818  26.314   7.727
    8AU     AUC 4005  40.488  25.463   7.747
    8AU     AUC 4006  40.804  25.463   7.756
    8AU     AUC 4007  40.501  26.300   7.227
    8AU     AUC 4008  40.818  26.284   7.219
    8AU     AUC 4009  40.469  25.457   7.247
    8AU     AUC 4010  40.797  25.460   7.232
    8AU    AUSL 4011  41.227  25.824   8.163
    8AU    AUSL 4012  41.021  25.431   8.157
    8AU     AUL 4013  41.438  25.567   8.330
    8AU       S 4014  41.126  25.238   8.297
    8AU     LIG 4015  41.010  24.862   8.493
    8AU     LIG 4016  41.254  24.562   8.749
    8AU     LIG 4017  41.517  24.229   8.969
    8AU     LIG 4018  41.789  23.953   9.259
    8AU     LIG 4019  41.854  23.676   9.655
    8AU     LIG 4020  41.829  23.497  10.108
    8AU       S 4021  41.082  25.776   8.548
    8AU     LIG 4022  41.408  25.654   8.854
    8AU     LIG 4023  41.553  25.433   9.261
    8AU     LIG 4024  41.804  25.374   9.668
    8AU     LIG 4025  42.174  25.513   9.961
    8AU     LIG 4026  42.540  25.490  10.278
    8AU     LIG 4027  42.780  25.306  10.658
    8AU    AUSL 4028  40.801  25.781   8.124
    8AU    AUSL 4029  40.567  26.081   8.302
    8AU     AUL 4030  40.664  25.966   8.584
    8AU       S 4031  40.976  25.657   8.542
    8AU     LIG 4032  41.061  25.277   8.807
    8AU     LIG 4033  41.202  25.053   9.211
    8AU     LIG 4034  41.358  25.003   9.678
    8AU     LIG 4035  41.336  24.892  10.158
    8AU     LIG 4036  41.447  24.750  10.601
    8AU     LIG 4037  41.641  24.878  11.008
    8AU       S 4038  40.203  25.902   8.616
    8AU     LIG 4039  40.244  25.984   9.040
    8AU     LIG 4040  39.999  25.806   9.384
    8AU     LIG 4041  39.916  25.708   9.837
    8AU     LIG 4042  39.920  26.006  10.230
    8AU     LIG 4043  39.994  26.294  10.614
    8AU     LIG 4044  39.775  26.342  11.025
    8AU    AUSL 4045  40.974  26.158   8.272
    8AU    AUSL 4046  41.306  26.190   7.975
    8AU     AUL 4047  41.400  26.042   8.365
    8AU       S 4048  41.000  26.241   8.437
    8AU     LIG 4049  41.218  26.296   8.851
    8AU     LIG 4050  41.271  26.507   9.308
    8AU     LIG 4051  41.248  26.733   9.761
    8AU     LIG 4052  41.284  26.964  10.204
    8AU     LIG 4053  41.310  26.915  10.682
    8AU     LIG 4054  41.451  26.669  11.067
    8AU       S 4055  41.631  26.275   8.045
    8AU     LIG 4056  41.935  26.185   8.340
    8AU     LIG 4057  42.131  26.382   8.714
    8AU     LIG 4058  42.407  26.624   9.031
    8AU     LIG 4059  42.738  26.611   9.412
    8AU     LIG 4060  43.105  26.661   9.749
    8AU     LIG 4061  43.457  26.949   9.934
    8AU    AUSL 4062  41.164  25.836   6.828
    8AU    AUSL 4063  40.919  26.314   6.798
    8AU     AUL 4064  41.229  26.183   6.425
    8AU       S 4065  41.191  25.841   6.681
    8AU     LIG 4066  41.524  25.765   6.413
    8AU     LIG 4067  41.583  25.618   5.981
    8AU     LIG 4068  41.663  25.521   5.520
    8AU     LIG 4069  41.968  25.512   5.146
    8AU     LIG 4070  42.368  25.491   4.862
    8AU     LIG 4071  42.653  25.365   4.487
    8AU       S 4072  40.909  26.418   6.611
    8AU     LIG 4073  41.280  26.695   6.489
    8AU     LIG 4074  41.630  26.760   6.156
    8AU     LIG 4075  41.871  26.927   5.744
    8AU     LIG 4076  42.011  27.243   5.369
    8AU     LIG 4077  42.154  27.607   5.066
    8AU     LIG 4078  42.239  27.931   4.719
    8AU    AUSL 4079  40.834  25.559   6.642
    8AU    AUSL 4080  41.360  25.528   7.036
    8AU     AUL 4081  41.308  25.426   6.725
    8AU       S 4082  41.584  25.083   6.918
    8AU     LIG 4083  41.681  24.774   6.554
    8AU     LIG 4084  41.857  24.442   6.268
    8AU     LIG 4085  42.048  24.173   5.936
    8AU     LIG 4086  42.306  23.961   5.606
    8AU     LIG 4087  42.653  24.091   5.303
    8AU     LIG 4088  43.063  24.153   5.065
    8AU       S 4089  40.915  25.527   6.562
    8AU     LIG 4090  41.199  25.331   6.245
    8AU     LIG 4091  41.270  25.261   5.776
    8AU     LIG 4092  41.283  25.221   5.300
    8AU     LIG 4093  41.193  24.953   4.903
    8AU     LIG 4094  41.243  24.887   4.437
    8AU     LIG 4095  41.437  24.913   4.005
    8AU    AUSL 4096  40.757  25.940   6.810
    8AU    AUSL 4097  40.441  25.657   6.752
    8AU     AUL 4098  40.640  25.696   6.275
    8AU       S 4099  40.336  25.634   6.565
    8AU     LIG 4100  40.116  25.516   6.163
    8AU     LIG 4101  39.931  25.373   5.731
    8AU     LIG 4102  39.852  25.223   5.272
    8AU     LIG 4103  39.869  24.900   4.886
    8AU     LIG 4104  39.848  24.789   4.410
    8AU     LIG 4105  39.805  25.012   3.992
    8AU       S 4106  40.852  25.942   6.548
    8AU     LIG 4107  41.095  25.814   6.128
    8AU     LIG 4108  41.206  25.760   5.653
    8AU     LIG 4109  41.324  25.755   5.184
    8AU     LIG 4110  41.399  25.944   4.743
    8AU     LIG 4111  41.396  26.061   4.280
    8AU     LIG 4112  41.561  26.068   3.832
    8AU    AUSL 4113  40.240  25.916   8.117
    8AU    AUSL 4114  40.309  26.359   8.129
    8AU     AUL 4115  40.375  26.285   8.413
    8AU       S 4116  40.056  25.952   8.493
    8AU     LIG 4117  39.768  25.910   8.886
    8AU     LIG 4118  39.587  25.575   9.146
    8AU     LIG 4119  39.464  25.402   9.563
    8AU     LIG 4120  39.121  25.395   9.892
    8AU     LIG 4121  38.919  25.459  10.317
    8AU     LIG 4122  38.680  25.425  10.741
    8AU       S 4123  39.928  26.385   8.322
    8AU     LIG 4124  39.968  26.377   8.775
    8AU     LIG 4125  39.843  26.697   9.100
    8AU     LIG 4126  39.676  27.039   9.393
    8AU     LIG 4127  39.592  27.214   9.841
    8AU     LIG 4128  39.418  27.503  10.189
    8AU     LIG 4129  39.186  27.771  10.513
    8AU    AUSL 4130  40.475  25.620   8.324
    8AU    AUSL 4131  39.968  25.633   7.980
    8AU     AUL 4132  40.075  25.568   8.258
    8AU       S 4133  39.768  25.237   8.099
    8AU     LIG 4134  39.366  25.324   7.956
    8AU     LIG 4135  39.028  25.019   8.094
    8AU     LIG 4136  38.848  24.668   8.392
    8AU     LIG 4137  38.563  24.361   8.657
    8AU     LIG 4138  38.439  24.273   9.117
    8AU     LIG 4139  38.064  24.128   9.347
    8AU       S 4140  40.321  25.657   8.634
    8AU     LIG 4141  40.065  25.489   8.969
    8AU     LIG 4142  39.953  25.296   9.399
    8AU     LIG 4143  39.842  25.165   9.843
    8AU     LIG 4144  39.765  24.861  10.213
    8AU     LIG 4145  39.681  24.798  10.679
    8AU     LIG 4146  39.522  24.896  11.124
    8AU    AUSL 4147  40.059  25.832   6.842
    8AU    AUSL 4148  40.246  25.342   6.937
    8AU     AUL 4149  40.042  25.352   6.714
    8AU       S 4150  39.988  25.783   6.710
    8AU     LIG 4151  39.731  25.800   6.353
    8AU     LIG 4152  39.617  25.759   5.925
    8AU     LIG 4153  39.520  25.603   5.499
    8AU     LIG 4154  39.167  25.527   5.192
    8AU     LIG 4155  38.879  25.498   4.805
    8AU     LIG 4156  38.786  25.507   4.327
    8AU       S 4157  39.891  25.040   7.051
    8AU     LIG 4158  39.756  24.632   6.920
    8AU     LIG 4159  39.398  24.461   6.672
    8AU     LIG 4160  39.137  24.339   6.301
    8AU     LIG 4161  39.124  24.148   5.865
    8AU     LIG 4162  38.970  23.900   5.490
    8AU     LIG 4163  38.981  23.636   5.086
    8AU    AUSL 4164  40.395  26.084   6.660
    8AU    AUSL 4165  40.062  26.240   6.925
    8AU     AUL 4166  39.984  26.197   6.580
    8AU       S 4167  40.108  26.603   6.730
    8AU     LIG 4168  39.670  26.567   6.535
    8AU     LIG 4169  39.533  26.556   6.085
    8AU     LIG 4170  39.374  26.804   5.711
    8AU     LIG 4171  39.170  26.898   5.284
    8AU     LIG 4172  38.780  27.031   5.020
    8AU     LIG 4173  38.455  27.359   4.902
    8AU       S 4174  40.364  25.949   6.530
    8AU     LIG 4175  40.154  26.024   6.135
    8AU     LIG 4176  40.063  25.867   5.695
    8AU     LIG 4177  39.961  25.753   5.239
    8AU     LIG 4178  39.893  25.986   4.806
    8AU     LIG 4179  39.822  26.185   4.360
    8AU     LIG 4180  39.802  26.246   3.875
    8AU    AUSL 4181  41.350  26.404   7.364
    8AU    AUSL 4182  41.279  26.196   6.996
    8AU     AUL 4183  41.446  26.634   7.189
    8AU       S 4184  41.398  26.341   6.816
    8AU     LIG 4185  41.711  26.284   6.460
    8AU     LIG 4186  42.042  26.448   6.154
    8AU     LIG 4187  42.347  26.715   5.902
    8AU     LIG 4188  42.751  26.721   5.626
    8AU     LIG 4189  43.170  26.859   5.432
    8AU     LIG 4190  43.530  27.091   5.216
    8AU       S 4191  41.795  26.328   7.160
    8AU     LIG 4192  42.294  26.407   7.303
    8AU     LIG 4193  42.725  26.486   7.497
    8AU     LIG 4194  43.189  26.577   7.564
    8AU     LIG 4195  43.493  26.959   7.515
    8AU     LIG 4196  43.655  27.432   7.495
    8AU     LIG 4197  43.932  27.837   7.455
    8AU    AUSL 4198  41.499  25.969   7.272
    8AU    AUSL 4199  41.489  25.748   7.682
    8AU     AUL 4200  41.712  25.957   7.653
    8AU       S 4201  41.701  26.036   7.176
    8AU     LIG 4202  42.133  25.910   7.364
    8AU     LIG 4203  42.609  25.991   7.378
    8AU     LIG 4204  43.057  26.135   7.287
    8AU     LIG 4205  43.505  26.251   7.302
    8AU     LIG 4206  43.926  26.315   7.124
    8AU     LIG 4207  44.307  26.509   6.926
    8AU       S 4208  41.818  25.498   7.552
    8AU     LIG 4209  42.173  25.130   7.618
    8AU     LIG 4210  42.564  24.857   7.680
    8AU     LIG 4211  43.025  24.717   7.746
    8AU     LIG 4212  43.509  24.786   7.785
    8AU     LIG 4213  43.874  24.770   8.085
    8AU     LIG 4214  44.299  24.965   8.069
    8AU    AUSL 4215  41.238  26.071   7.592
    8AU    AUSL 4216  41.156  26.506   7.719
    8AU     AUL 4217  41.466  26.370   7.633
    8AU       S 4218  41.463  26.599   8.029
    8AU     LIG 4219  41.902  26.675   8.156
    8AU     LIG 4220  42.081  26.857   8.536
    8AU     LIG 4221  42.358  27.123   8.796
    8AU     LIG 4222  42.608  27.540   8.810
    8AU     LIG 4223  42.802  27.991   8.803
    8AU     LIG 4224  42.751  28.411   9.005
    8AU       S 4225  41.817  26.299   7.355
    8AU     LIG 4226  42.059  26.298   7.754
    8AU     LIG 4227  42.494  26.175   7.849
    8AU     LIG 4228  42.965  26.126   7.789
    8AU     LIG 4229  43.436  26.135   7.801
    8AU     LIG 4230  43.869  26.191   7.974
    8AU     LIG 4231  44.242  26.441   8.112
    8AU    AUSL 4232  39.984  26.431   7.543
    8AU    AUSL 4233  39.998  26.182   7.911
    8AU     AUL 4234  39.942  26.585   7.826
    8AU       S 4235  39.844  26.192   8.112
    8AU     LIG 4236  39.542  26.177   8.513
    8AU     LIG 4237  39.459  26.416   8.910
    8AU     LIG 4238  39.226  26.647   9.259
    8AU     LIG 4239  38.841  26.757   9.554
    8AU     LIG 4240  38.447  26.918   9.823
    8AU     LIG 4241  38.058  27.132  10.030
    8AU       S 4242  39.599  26.479   7.546
    8AU     LIG 4243  39.442  26.888   7.380
    8AU     LIG 4244  39.118  27.203   7.568
    8AU     LIG 4245  38.789  27.523   7.738
    8AU     LIG 4246  38.491  27.921   7.796
    8AU     LIG 4247  38.069  28.007   7.603
    8AU     LIG 4248  37.768  28.101   7.267
    8AU    AUSL 4249  40.078  26.096   7.309
    8AU    AUSL 4250  40.195  26.543   7.194
    8AU     AUL 4251  39.908  26.460   7.178
    8AU       S 4252  39.502  26.378   7.424
    8AU     LIG 4253  39.403  26.494   6.996
    8AU     LIG 4254  38.985  26.364   6.773
    8AU     LIG 4255  38.523  26.534   6.694
    8AU     LIG 4256  38.098  26.724   6.890
    8AU     LIG 4257  37.627  26.859   6.822
    8AU     LIG 4258  37.152  26.974   6.727
    8AU       S 4259  40.029  26.780   6.847
    8AU     LIG 4260  40.001  27.007   6.435
    8AU     LIG 4261  39.864  27.313   6.123
    8AU     LIG 4262  39.690  27.745   6.059
    8AU     LIG 4263  39.275  27.964   5.925
    8AU     LIG 4264  38.895  28.258   5.825
    8AU     LIG 4265  38.650  28.659   5.897
    8AU    AUSL 4266  39.781  26.023   7.600
    8AU    AUSL 4267  39.804  25.792   7.222
    8AU     AUL 4268  39.703  26.046   7.199
    8AU       S 4269  39.450  25.666   7.376
    8AU     LIG 4270  39.001  25.443   7.585
    8AU     LIG 4271  38.529  25.584   7.675
    8AU     LIG 4272  38.057  25.701   7.633
    8AU     LIG 4273  37.754  25.450   7.379
    8AU     LIG 4274  37.621  25.009   7.380
    8AU     LIG 4275  37.354  24.740   7.103
    8AU       S 4276  39.581  26.130   7.679
    8AU     LIG 4277  39.439  26.448   8.037
    8AU     LIG 4278  39.012  26.602   8.214
    8AU     LIG 4279  38.543  26.563   8.109
    8AU     LIG 4280  38.095  26.764   8.073
    8AU     LIG 4281  37.637  26.964   8.107
    8AU     LIG 4282  37.307  27.228   8.343
    8AU    AUSL 4283  41.306  25.372   7.552
    8AU    AUSL 4284  41.099  25.687   7.803
    8AU     AUL 4285  41.460  25.517   7.861
    8AU       S 4286  41.692  25.242   7.569
    8AU     LIG 4287  41.769  24.868   7.357
    8AU     LIG 4288  42.137  24.602   7.444
    8AU     LIG 4289  42.542  24.376   7.493
    8AU     LIG 4290  42.987  24.246   7.510
    8AU     LIG 4291  43.387  23.994   7.514
    8AU     LIG 4292  43.798  23.796   7.673
    8AU       S 4293  41.255  25.198   8.111
    8AU     LIG 4294  41.513  24.897   8.394
    8AU     LIG 4295  41.767  24.574   8.653
    8AU     LIG 4296  42.032  24.280   8.918
    8AU     LIG 4297  42.316  24.045   9.205
    8AU     LIG 4298  42.711  24.102   9.474
    8AU     LIG 4299  43.060  24.177   9.799
    8AU    AUSL 4300  41.184  25.719   7.347
    8AU    AUSL 4301  41.114  25.192   7.216
    8AU     AUL 4302  41.379  25.325   7.248
    8AU       S 4303  41.742  25.560   7.346
    8AU     LIG 4304  42.035  25.252   7.141
    8AU     LIG 4305  42.418  24.946   7.186
    8AU     LIG 4306  42.850  24.719   7.258
    8AU     LIG 4307  43.316  24.597   7.335
    8AU     LIG 4308  43.744  24.607   7.212
    8AU     LIG 4309  44.147  24.453   7.030
    8AU       S 4310  41.276  24.883   7.131
    8AU     LIG 4311  41.444  24.495   6.916
    8AU     LIG 4312  41.567  24.171   6.589
    8AU     LIG 4313  41.834  23.887   6.306
    8AU     LIG 4314  42.137  23.651   6.013
    8AU     LIG 4315  42.471  23.315   5.924
    8AU     LIG 4316  42.856  23.034   5.905
    8AU    AUSL 4317  39.906  25.495   7.500
    8AU    AUSL 4318  40.198  25.668   7.189
    8AU     AUL 4319  39.832  25.523   7.109
    8AU       S 4320  39.811  25.095   7.245
    8AU     LIG 4321  39.389  25.003   7.002
    8AU     LIG 4322  39.007  24.785   6.805
    8AU     LIG 4323  38.711  24.552   6.493
    8AU     LIG 4324  38.419  24.526   6.125
    8AU     LIG 4325  38.202  24.682   5.730
    8AU     LIG 4326  38.036  24.575   5.310
    8AU       S 4327  39.520  25.462   7.439
    8AU     LIG 4328  39.354  25.094   7.492
    8AU     LIG 4329  38.948  24.959   7.330
    8AU     LIG 4330  38.500  24.816   7.454
    8AU     LIG 4331  38.046  24.768   7.614
    8AU     LIG 4332  37.643  24.564   7.760
    8AU     LIG 4333  37.377  24.204   7.922
    8AU    AUSL 4334  40.131  25.814   7.648
    8AU    AUSL 4335  40.121  25.280   7.787
    8AU     AUL 4336  39.789  25.586   7.789
    8AU       S 4337  39.821  25.096   7.791
    8AU     LIG 4338  39.463  24.804   7.891
    8AU     LIG 4339  39.081  24.513   7.948
    8AU     LIG 4340  38.736  24.231   8.137
    8AU     LIG 4341  38.628  23.899   8.420
    8AU     LIG 4342  38.311  23.542   8.499
    8AU     LIG 4343  38.059  23.396   8.875
    8AU       S 4344  39.495  25.696   7.441
    8AU     LIG 4345  39.087  25.529   7.102
    8AU     LIG 4346  38.625  25.457   7.186
    8AU     LIG 4347  38.234  25.261   7.407
    8AU     LIG 4348  37.939  25.224   7.787
    8AU     LIG 4349  37.500  25.110   7.895
    8AU     LIG 4350  37.040  25.087   8.031
    8AU    AUSL 4351  40.693  26.518   8.108
    8AU    AUSL 4352  40.351  26.339   7.721
    8AU     AUL 4353  40.374  26.637   8.062
    8AU       S 4354  39.986  26.497   8.265
    8AU     LIG 4355  39.659  26.734   8.550
    8AU     LIG 4356  39.575  27.082   8.869
    8AU     LIG 4357  39.467  27.530   9.018
    8AU     LIG 4358  39.197  27.938   9.068
    8AU     LIG 4359  38.841  28.274   9.106
    8AU     LIG 4360  38.585  28.689   9.111
    8AU       S 4361  40.710  26.956   8.125
    8AU     LIG 4362  40.790  27.339   8.385
    8AU     LIG 4363  40.868  27.772   8.584
    8AU     LIG 4364  41.042  28.156   8.804
    8AU     LIG 4365  41.277  28.538   8.999
    8AU     LIG 4366  41.424  28.822   9.351
    8AU     LIG 4367  41.316  29.075   9.744
    8AU    AUSL 4368  40.353  26.738   7.615
    8AU    AUSL 4369  40.926  26.714   7.332
    8AU     AUL 4370  40.524  26.972   7.432
    8AU       S 4371  40.526  27.045   7.890
    8AU     LIG 4372  40.705  27.481   7.900
    8AU     LIG 4373  40.663  27.898   8.129
    8AU     LIG 4374  40.704  28.264   8.403
    8AU     LIG 4375  40.450  28.687   8.455
    8AU     LIG 4376  40.273  29.084   8.602
    8AU     LIG 4377  40.313  29.509   8.469
    8AU       S 4378  41.019  26.948   7.325
    8AU     LIG 4379  41.245  27.226   6.936
    8AU     LIG 4380  41.236  27.655   6.682
    8AU     LIG 4381  41.312  28.142   6.551
    8AU     LIG 4382  41.405  28.607   6.440
    8AU     LIG 4383  41.471  29.092   6.452
    8AU     LIG 4384  41.479  29.565   6.574
    8AU    AUSL 4385  40.759  26.619   7.708
    8AU    AUSL 4386  40.876  26.228   7.882
    8AU     AUL 4387  40.993  26.594   8.043
    8AU       S 4388  41.395  26.403   8.104
    8AU     LIG 4389  41.581  26.506   8.532
    8AU     LIG 4390  41.773  26.694   8.926
    8AU     LIG 4391  42.052  26.970   9.196
    8AU     LIG 4392  42.167  27.262   9.561
    8AU     LIG 4393  42.170  27.556   9.945
    8AU     LIG 4394  42.259  27.901  10.262
    8AU       S 4395  40.800  26.926   7.798
    8AU     LIG 4396  41.130  27.191   7.970
    8AU     LIG 4397  41.172  27.609   8.183
    8AU     LIG 4398  41.159  28.067   8.272
    8AU     LIG 4399  41.297  28.463   8.457
    8AU     LIG 4400  41.266  28.920   8.562
    8AU     LIG 4401  41.250  29.351   8.716
    8AU    AUSL 4402  40.640  25.259   8.080
    8AU    AUSL 4403  40.951  25.303   7.775
    8AU     AUL 4404  40.818  25.039   8.035
    8AU       S 4405  40.430  24.776   7.976
    8AU     LIG 4406  40.313  24.381   8.135
    8AU     LIG 4407  40.140  23.982   8.270
    8AU     LIG 4408  40.070  23.579   8.458
    8AU     LIG 4409  40.220  23.259   8.746
    8AU     LIG 4410  40.441  22.937   9.018
    8AU     LIG 4411  40.408  22.462   8.991
    8AU       S 4412  41.256  25.077   7.909
    8AU     LIG 4413  41.200  24.658   8.059
    8AU     LIG 4414  41.447  24.341   8.321
    8AU     LIG 4415  41.757  24.041   8.553
    8AU     LIG 4416  42.034  23.751   8.842
    8AU     LIG 4417  42.245  23.325   8.994
    8AU     LIG 4418  42.569  22.964   9.025
    8AU    AUSL 4419  40.508  25.164   7.688
    8AU    AUSL 4420  40.404  25.556   7.920
    8AU     AUL 4421  40.338  25.208   8.104
    8AU       S 4422  40.275  24.827   7.700
    8AU     LIG 4423  39.973  24.441   7.760
    8AU     LIG 4424  39.854  23.959   7.846
    8AU     LIG 4425  39.726  23.515   8.069
    8AU     LIG 4426  39.562  23.022   8.116
    8AU     LIG 4427  39.676  22.584   8.371
    8AU     LIG 4428  39.584  22.095   8.422
    8AU       S 4429  39.964  25.158   7.864
    8AU     LIG 4430  39.886  24.749   8.160
    8AU     LIG 4431  39.438  24.527   8.338
    8AU     LIG 4432  39.066  24.222   8.548
    8AU     LIG 4433  38.805  23.958   8.893
    8AU     LIG 4434  38.833  23.798   9.331
    8AU     LIG 4435  38.930  23.670   9.775
    8AU    AUSL 4436  40.882  24.984   7.543
    8AU    AUSL 4437  40.517  25.005   7.292
    8AU     AUL 4438  40.778  24.782   7.611
    8AU       S 4439  40.479  24.742   7.257
    8AU     LIG 4440  40.120  24.521   7.281
    8AU     LIG 4441  40.013  24.066   7.283
    8AU     LIG 4442  39.940  23.635   7.035
    8AU     LIG 4443  39.792  23.179   6.901
    8AU     LIG 4444  39.775  22.718   6.730
    8AU     LIG 4445  39.555  22.506   6.390
    8AU       S 4446  40.382  24.899   7.749
    8AU     LIG 4447  40.470  24.381   7.639
    8AU     LIG 4448  40.368  23.934   7.801
    8AU     LIG 4449  40.320  23.473   8.007
    8AU     LIG 4450  40.435  22.969   8.041
    8AU     LIG 4451  40.673  22.607   8.296
    8AU     LIG 4452  40.823  22.258   8.586
    8AU    AUSL 4453  40.675  26.596   6.978
    8AU    AUSL 4454  40.964  26.314   7.238
    8AU     AUL 4455  41.032  26.615   6.989
    8AU       S 4456  40.778  26.998   6.929
    8AU     LIG 4457  40.859  27.314   6.548
    8AU     LIG 4458  41.085  27.570   6.175
    8AU     LIG 4459  41.194  28.051   6.044
    8AU     LIG 4460  41.241  28.529   5.953
    8AU     LIG 4461  41.287  28.893   5.643
    8AU     LIG 4462  41.200  28.929   5.169
    8AU       S 4463  41.360  26.280   6.891
    8AU     LIG 4464  41.730  26.685   6.765
    8AU     LIG 4465  42.048  26.884   6.438
    8AU     LIG 4466  42.365  27.180   6.206
    8AU     LIG 4467  42.635  27.605   6.166
    8AU     LIG 4468  42.849  28.045   6.049
    8AU     LIG 4469  42.886  28.397   5.715
    8AU    AUSL 4470  40.563  26.486   7.361
    8AU    AUSL 4471  40.472  26.238   7.031
    8AU     AUL 4472  40.430  26.711   7.067
    8AU       S 4473  40.875  27.004   7.166
    8AU     LIG 4474  40.799  27.482   7.030
    8AU     LIG 4475  40.542  27.728   6.719
    8AU     LIG 4476  40.537  28.258   6.655
    8AU     LIG 4477  40.581  28.768   6.561
    8AU     LIG 4478  40.627  29.236   6.420
    8AU     LIG 4479  40.318  29.588   6.312
    8AU       S 4480  40.333  26.544   6.646
    8AU     LIG 4481  40.081  26.552   6.215
    8AU     LIG 4482  39.895  26.832   5.848
    8AU     LIG 4483  39.762  26.863   5.371
    8AU     LIG 4484  39.674  27.058   4.948
    8AU     LIG 4485  39.584  27.417   4.654
    8AU     LIG 4486  39.390  27.804   4.479
    8AU    AUSL 4487  40.650  25.239   6.950
    8AU    AUSL 4488  40.218  25.273   7.350
    8AU     AUL 4489  40.344  25.083   6.986
    8AU       S 4490  40.013  25.037   7.337
    8AU     LIG 4491  39.650  24.678   7.421
    8AU     LIG 4492  39.257  24.515   7.172
    8AU     LIG 4493  38.944  24.258   6.847
    8AU     LIG 4494  38.565  24.041   6.583
    8AU     LIG 4495  38.589  23.624   6.272
    8AU     LIG 4496  38.269  23.358   6.073
    8AU       S 4497  40.691  24.780   6.980
    8AU     LIG 4498  40.297  24.581   6.809
    8AU     LIG 4499  40.165  24.117   6.781
    8AU     LIG 4500  40.220  23.656   6.594
    8AU     LIG 4501  40.247  23.325   6.225
    8AU     LIG 4502  40.438  22.977   5.947
    8AU     LIG 4503  40.690  22.823   5.569
    8AU    AUSL 4504  40.759  25.334   7.365
    8AU    AUSL 4505  40.933  25.528   7.034
    8AU     AUL 4506  40.945  25.170   6.928
    8AU       S 4507  40.720  24.811   7.148
    8AU     LIG 4508  40.576  24.282   7.127
    8AU     LIG 4509  40.431  23.805   7.097
    8AU     LIG 4510  40.387  23.330   6.965
    8AU     LIG 4511  40.620  22.916   6.838
    8AU     LIG 4512  40.506  22.449   6.742
    8AU     LIG 4513  40.701  22.003   6.618
    8AU       S 4514  41.365  24.996   6.883
    8AU     LIG 4515  41.148  24.793   6.591
    8AU     LIG 4516  41.319  24.500   6.276
    8AU     LIG 4517  41.503  24.156   6.017
    8AU     LIG 4518  41.711  23.827   5.763
    8AU     LIG 4519  41.944  23.630   5.415
    8AU     LIG 4520  42.144  23.641   4.992
    9AU     AUC 4521   7.204   5.895   7.506
    9AU     AUC 4522   7.466   5.896   7.347
    9AU     AUC 4523   7.457   5.884   7.656
    9AU     AUC 4524   6.960   5.894   7.341
    9AU     AUC 4525   6.937   5.919   7.647
    9AU     AUC 4526   7.056   6.155   7.502
    9AU     AUC 4527   7.361   6.150   7.482
    9AU     AUC 4528   7.050   5.640   7.517
    9AU     AUC 4529   7.347   5.640   7.533
    9AU     AUC 4530   7.192   5.747   7.770
    9AU     AUC 4531   7.224   6.064   7.755
    9AU     AUC 4532   7.210   5.725   7.252
    9AU     AUC 4533   7.196   6.031   7.240
    9AU     AUC 4534   7.719   5.894   7.192
    9AU     AUC 4535   7.724   5.899   7.495
    9AU     AUC 4536   7.707   5.889   7.819
    9AU     AUC 4537   6.700   5.881   7.182
    9AU     AUC 4538   6.684   5.916   7.487
    9AU     AUC 4539   6.691   5.939   7.809
    9AU     AUC 4540   6.916   6.424   7.501
    9AU     AUC 4541   7.221   6.422   7.492
    9AU     AUC 4542   7.521   6.412   7.488
    9AU     AUC 4543   6.863   5.387   7.531
    9AU     AUC 4544   7.184   5.369   7.521
    9AU     AUC 4545   7.500   5.372   7.542
    9AU     AUC 4546   7.183   5.593   8.022
    9AU     AUC 4547   7.203   5.902   8.036
    9AU     AUC 4548   7.225   6.214   8.023
    9AU     AUC 4549   7.215   5.544   7.021
    9AU     AUC 4550   7.221   5.863   6.982
    9AU     AUC 4551   7.195   6.177   6.971
    9AU     AUC 4552   7.469   5.753   7.934
    9AU     AUC 4553   7.459   6.047   7.937
    9AU     AUC 4554   7.483   5.719   7.093
    9AU     AUC 4555   7.474   6.032   7.072
    9AU     AUC 4556   6.926   5.768   7.932
    9AU     AUC 4557   6.948   6.077   7.931
    9AU     AUC 4558   6.962   5.717   7.076
    9AU     AUC 4559   6.949   6.032   7.074
    9AU     AUC 4560   7.620   6.163   7.326
    9AU     AUC 4561   7.624   6.139   7.658
    9AU     AUC 4562   6.791   6.155   7.343
    9AU     AUC 4563   6.798   6.184   7.665
    9AU     AUC 4564   7.621   5.634   7.366
    9AU     AUC 4565   7.618   5.634   7.685
    9AU     AUC 4566   6.780   5.638   7.346
    9AU     AUC 4567   6.779   5.660   7.680
    9AU     AUC 4568   7.059   6.317   7.772
    9AU     AUC 4569   7.378   6.326   7.741
    9AU     AUC 4570   7.023   5.477   7.771
    9AU     AUC 4571   7.345   5.480   7.794
    9AU     AUC 4572   7.048   6.306   7.232
    9AU     AUC 4573   7.366   6.297   7.220
    9AU     AUC 4574   7.032   5.474   7.256
    9AU     AUC 4575   7.363   5.463   7.278
    9AU    AUSL 4576   7.547   5.865   8.183
    9AU    AUSL 4577   7.539   5.417   8.139
    9AU     AUL 4578   7.795   5.483   8.428
    9AU       S 4579   7.816   5.161   8.043
    9AU     LIG 4580   7.766   4.982   8.460
    9AU     LIG 4581   7.859   4.597   8.691
    9AU     LIG 4582   8.043   4.236   8.932
    9AU     LIG 4583   8.191   3.917   9.258
    9AU     LIG 4584   8.138   3.727   9.713
    9AU     LIG 4585   8.158   3.592  10.181
    9AU       S 4586   7.595   5.854   8.356
    9AU     LIG 4587   7.730   5.776   8.819
    9AU     LIG 4588   7.971   5.528   9.162
    9AU     LIG 4589   8.266   5.397   9.540
    9AU     LIG 4590   8.632   5.338   9.877
    9AU     LIG 4591   8.959   5.256  10.240
    9AU     LIG 4592   9.134   5.285  10.697
    9AU    AUSL 4593   7.240   5.619   8.361
    9AU    AUSL 4594   7.146   6.037   8.318
    9AU     AUL 4595   7.297   5.993   8.686
    9AU       S 4596   7.325   5.595   8.504
    9AU     LIG 4597   7.503   5.300   8.813
    9AU     LIG 4598   7.633   5.143   9.257
    9AU     LIG 4599   7.724   5.039   9.727
    9AU     LIG 4600   7.889   4.942  10.172
    9AU     LIG 4601   7.916   4.839  10.636
    9AU     LIG 4602   8.017   4.772  11.095
    9AU       S 4603   6.873   5.824   8.652
    9AU     LIG 4604   6.782   5.700   9.114
    9AU     LIG 4605   6.559   5.607   9.526
    9AU     LIG 4606   6.389   5.613   9.969
    9AU     LIG 4607   6.352   5.916  10.350
    9AU     LIG 4608   6.342   6.133  10.783
    9AU     LIG 4609   6.226   6.318  11.219
    9AU    AUSL 4610   7.485   6.278   8.295
    9AU    AUSL 4611   7.849   6.116   8.036
    9AU     AUL 4612   7.853   6.156   8.495
    9AU       S 4613   7.453   6.350   8.433
    9AU     LIG 4614   7.733   6.509   8.813
    9AU     LIG 4615   7.932   6.567   9.263
    9AU     LIG 4616   7.911   6.590   9.760
    9AU     LIG 4617   7.914   6.732  10.227
    9AU     LIG 4618   7.873   6.860  10.684
    9AU     LIG 4619   8.027   6.727  11.116
    9AU       S 4620   8.140   6.113   8.056
    9AU     LIG 4621   8.537   6.142   8.263
    9AU     LIG 4622   8.740   6.371   8.640
    9AU     LIG 4623   8.904   6.698   8.955
    9AU     LIG 4624   9.112   6.798   9.384
    9AU     LIG 4625   9.447   6.752   9.736
    9AU     LIG 4626   9.838   6.953   9.918
    9AU    AUSL 4627   7.752   5.920   6.893
    9AU    AUSL 4628   7.487   6.317   6.806
    9AU     AUL 4629   7.846   6.248   6.446
    9AU       S 4630   7.790   5.946   6.739
    9AU     LIG 4631   8.077   5.834   6.333
    9AU     LIG 4632   8.083   5.637   5.912
    9AU     LIG 4633   8.208   5.495   5.465
    9AU     LIG 4634   8.540   5.426   5.100
    9AU     LIG 4635   8.931   5.352   4.793
    9AU     LIG 4636   9.162   5.342   4.364
    9AU       S 4637   7.483   6.381   6.645
    9AU     LIG 4638   7.804   6.740   6.528
    9AU     LIG 4639   8.164   6.865   6.223
    9AU     LIG 4640   8.452   6.997   5.843
    9AU     LIG 4641   8.511   7.189   5.389
    9AU     LIG 4642   8.569   7.569   5.089
    9AU     LIG 4643   8.630   7.989   4.871
    9AU    AUSL 4644   7.503   5.600   6.713
    9AU    AUSL 4645   7.831   5.528   7.012
    9AU     AUL 4646   7.937   5.544   6.701
    9AU       S 4647   7.830   5.118   6.832
    9AU     LIG 4648   8.064   5.032   6.432
    9AU     LIG 4649   8.276   4.648   6.238
    9AU     LIG 4650   8.563   4.348   6.003
    9AU     LIG 4651   8.938   4.294   5.699
    9AU     LIG 4652   9.331   4.243   5.416
    9AU     LIG 4653   9.712   4.251   5.120
    9AU       S 4654   7.602   5.805   6.465
    9AU     LIG 4655   7.718   5.416   6.253
    9AU     LIG 4656   7.762   5.249   5.804
    9AU     LIG 4657   7.771   5.237   5.319
    9AU     LIG 4658   7.769   5.126   4.847
    9AU     LIG 4659   7.898   4.976   4.409
    9AU     LIG 4660   8.269   4.834   4.128
    9AU    AUSL 4661   7.331   5.949   6.888
    9AU    AUSL 4662   7.089   5.681   6.668
    9AU     AUL 4663   7.296   5.472   6.578
    9AU       S 4664   7.055   5.779   6.320
    9AU     LIG 4665   7.052   5.544   5.926
    9AU     LIG 4666   6.816   5.305   5.578
    9AU     LIG 4667   6.519   5.088   5.259
    9AU     LIG 4668   6.229   4.885   4.919
    9AU     LIG 4669   6.168   4.791   4.448
    9AU     LIG 4670   6.256   4.988   4.024
    9AU       S 4671   7.480   5.918   6.523
    9AU     LIG 4672   7.504   5.827   5.993
    9AU     LIG 4673   7.713   5.708   5.558
    9AU     LIG 4674   7.880   5.707   5.100
    9AU     LIG 4675   7.894   5.955   4.679
    9AU     LIG 4676   7.949   6.161   4.251
    9AU     LIG 4677   8.066   6.289   3.809
    9AU    AUSL 4678   6.752   5.952   8.207
    9AU    AUSL 4679   6.924   6.351   8.151
    9AU     AUL 4680   6.962   6.249   8.451
    9AU       S 4681   6.665   5.950   8.672
    9AU     LIG 4682   6.394   5.576   8.796
    9AU     LIG 4683   6.194   5.421   9.214
    9AU     LIG 4684   6.004   5.414   9.664
    9AU     LIG 4685   5.678   5.329  10.009
    9AU     LIG 4686   5.284   5.469  10.252
    9AU     LIG 4687   5.070   5.645  10.636
    9AU       S 4688   6.513   6.338   8.382
    9AU     LIG 4689   6.492   6.456   8.816
    9AU     LIG 4690   6.476   6.854   9.077
    9AU     LIG 4691   6.311   7.232   9.324
    9AU     LIG 4692   6.209   7.436   9.750
    9AU     LIG 4693   6.013   7.578  10.173
    9AU     LIG 4694   5.846   7.892  10.494
    9AU    AUSL 4695   7.067   5.758   8.014
    9AU    AUSL 4696   6.505   5.690   7.997
    9AU     AUL 4697   6.555   5.823   8.244
    9AU       S 4698   6.350   5.387   8.222
    9AU     LIG 4699   5.949   5.152   8.103
    9AU     LIG 4700   5.551   4.918   8.220
    9AU     LIG 4701   5.332   4.641   8.549
    9AU     LIG 4702   5.098   4.354   8.857
    9AU     LIG 4703   4.790   4.067   9.081
    9AU     LIG 4704   4.439   3.982   9.386
    9AU       S 4705   6.852   5.704   8.595
    9AU     LIG 4706   6.835   5.305   8.779
    9AU     LIG 4707   6.655   5.190   9.210
    9AU     LIG 4708   6.422   5.123   9.641
    9AU     LIG 4709   6.194   5.116  10.075
    9AU     LIG 4710   6.111   4.869  10.501
    9AU     LIG 4711   6.133   4.809  10.990
    9AU    AUSL 4712   6.825   5.835   6.951
    9AU    AUSL 4713   6.956   5.406   6.945
    9AU     AUL 4714   6.794   5.513   6.646
    9AU       S 4715   6.828   5.835   6.312
    9AU     LIG 4716   6.552   5.690   5.972
    9AU     LIG 4717   6.344   5.507   5.569
    9AU     LIG 4718   6.028   5.247   5.300
    9AU     LIG 4719   5.795   5.190   4.891
    9AU     LIG 4720   5.557   5.396   4.530
    9AU     LIG 4721   5.341   5.444   4.107
    9AU       S 4722   6.526   5.117   6.813
    9AU     LIG 4723   6.244   4.759   6.784
    9AU     LIG 4724   5.952   4.474   6.549
    9AU     LIG 4725   5.659   4.204   6.287
    9AU     LIG 4726   5.449   4.053   5.890
    9AU     LIG 4727   5.446   3.814   5.481
    9AU     LIG 4728   5.321   3.504   5.145
    9AU    AUSL 4729   7.018   6.115   6.664
    9AU    AUSL 4730   6.575   6.170   6.937
    9AU     AUL 4731   6.616   5.952   6.703
    9AU       S 4732   6.560   6.414   6.719
    9AU     LIG 4733   6.258   6.592   6.380
    9AU     LIG 4734   6.105   6.703   5.938
    9AU     LIG 4735   5.876   6.813   5.527
    9AU     LIG 4736   5.438   6.877   5.333
    9AU     LIG 4737   5.016   7.088   5.267
    9AU     LIG 4738   4.586   7.236   5.144
    9AU       S 4739   7.024   6.046   6.459
    9AU     LIG 4740   6.998   6.083   5.929
    9AU     LIG 4741   6.811   5.829   5.554
    9AU     LIG 4742   6.659   5.718   5.117
    9AU     LIG 4743   6.629   5.928   4.666
    9AU     LIG 4744   6.476   6.226   4.304
    9AU     LIG 4745   6.236   6.493   3.976
    9AU    AUSL 4746   7.856   6.449   7.442
    9AU    AUSL 4747   7.845   6.299   7.036
    9AU     AUL 4748   7.935   6.706   7.260
    9AU       S 4749   7.959   6.413   6.860
    9AU     LIG 4750   8.299   6.447   6.521
    9AU     LIG 4751   8.614   6.602   6.182
    9AU     LIG 4752   8.949   6.797   5.899
    9AU     LIG 4753   9.358   6.771   5.624
    9AU     LIG 4754   9.774   6.817   5.372
    9AU     LIG 4755   9.964   7.142   5.090
    9AU       S 4756   8.302   6.415   7.351
    9AU     LIG 4757   8.764   6.445   7.524
    9AU     LIG 4758   9.234   6.566   7.542
    9AU     LIG 4759   9.694   6.716   7.554
    9AU     LIG 4760  10.150   6.892   7.599
    9AU     LIG 4761  10.403   7.228   7.853
    9AU     LIG 4762  10.619   7.654   7.856
    9AU    AUSL 4763   8.016   6.015   7.277
    9AU    AUSL 4764   8.077   5.788   7.648
    9AU     AUL 4765   8.233   5.749   7.254
    9AU       S 4766   8.239   6.203   7.318
    9AU     LIG 4767   8.670   6.025   7.239
    9AU     LIG 4768   9.129   6.123   7.288
    9AU     LIG 4769   9.582   6.285   7.263
    9AU     LIG 4770  10.029   6.453   7.268
    9AU     LIG 4771  10.467   6.602   7.250
    9AU     LIG 4772  10.880   6.574   7.023
    9AU       S 4773   8.426   5.547   7.628
    9AU     LIG 4774   8.636   5.248   7.914
    9AU     LIG 4775   8.989   4.928   7.863
    9AU     LIG 4776   9.439   4.758   7.783
    9AU     LIG 4777   9.924   4.654   7.749
    9AU     LIG 4778  10.347   4.550   7.980
    9AU     LIG 4779  10.727   4.646   8.266
    9AU    AUSL 4780   7.782   6.078   7.632
    9AU    AUSL 4781   7.728   6.473   7.844
    9AU     AUL 4782   7.988   6.420   7.705
    9AU       S 4783   7.987   6.440   8.154
    9AU     LIG 4784   8.409   6.630   8.147
    9AU     LIG 4785   8.640   6.861   8.515
    9AU     LIG 4786   8.900   7.216   8.748
    9AU     LIG 4787   9.131   7.669   8.798
    9AU     LIG 4788   9.429   8.014   8.988
    9AU     LIG 4789   9.493   8.497   8.962
    9AU       S 4790   8.339   6.162   7.590
    9AU     LIG 4791   8.682   5.990   7.774
    9AU     LIG 4792   9.126   6.127   7.805
    9AU     LIG 4793   9.587   6.251   7.777
    9AU     LIG 4794  10.047   6.397   7.776
    9AU     LIG 4795  10.500   6.549   7.774
    9AU     LIG 4796  10.816   6.833   7.996
    9AU    AUSL 4797   6.551   6.465   7.566
    9AU    AUSL 4798   6.585   6.215   7.930
    9AU     AUL 4799   6.554   6.646   7.863
    9AU       S 4800   6.388   6.275   8.123
    9AU     LIG 4801   6.060   6.498   8.450
    9AU     LIG 4802   6.024   6.732   8.859
    9AU     LIG 4803   5.818   6.850   9.276
    9AU     LIG 4804   5.430   6.848   9.583
    9AU     LIG 4805   5.070   7.003   9.873
    9AU     LIG 4806   4.696   7.114  10.161
    9AU       S 4807   6.205   6.502   7.607
    9AU     LIG 4808   5.981   6.915   7.514
    9AU     LIG 4809   5.700   7.315   7.468
    9AU     LIG 4810   5.354   7.665   7.432
    9AU     LIG 4811   4.948   7.899   7.531
    9AU     LIG 4812   4.542   8.066   7.693
    9AU     LIG 4813   4.102   8.022   7.485
    9AU    AUSL 4814   6.625   6.119   7.343
    9AU    AUSL 4815   6.713   6.525   7.179
    9AU     AUL 4816   6.447   6.452   7.193
    9AU       S 4817   6.068   6.407   7.478
    9AU     LIG 4818   5.746   6.396   7.139
    9AU     LIG 4819   5.345   6.562   6.885
    9AU     LIG 4820   4.926   6.771   6.684
    9AU     LIG 4821   4.478   6.970   6.537
    9AU     LIG 4822   3.984   7.038   6.525
    9AU     LIG 4823   3.723   7.287   6.846
    9AU       S 4824   6.556   6.693   6.791
    9AU     LIG 4825   6.502   7.033   6.444
    9AU     LIG 4826   6.338   7.330   6.091
    9AU     LIG 4827   6.235   7.760   5.888
    9AU     LIG 4828   6.064   8.221   5.889
    9AU     LIG 4829   5.724   8.567   5.857
    9AU     LIG 4830   5.267   8.673   5.732
    9AU    AUSL 4831   6.339   6.048   7.650
    9AU    AUSL 4832   6.379   5.790   7.299
    9AU     AUL 4833   6.234   6.050   7.253
    9AU       S 4834   6.030   5.598   7.429
    9AU     LIG 4835   5.577   5.576   7.648
    9AU     LIG 4836   5.071   5.573   7.655
    9AU     LIG 4837   4.613   5.647   7.464
    9AU     LIG 4838   4.308   5.303   7.215
    9AU     LIG 4839   3.818   5.277   7.119
    9AU     LIG 4840   3.351   5.077   7.039
    9AU       S 4841   6.155   6.109   7.724
    9AU     LIG 4842   5.887   6.382   7.983
    9AU     LIG 4843   5.550   6.617   8.230
    9AU     LIG 4844   5.099   6.819   8.259
    9AU     LIG 4845   4.639   6.993   8.207
    9AU     LIG 4846   4.186   6.918   8.281
    9AU     LIG 4847   3.822   7.215   8.289
    9AU    AUSL 4848   7.912   5.386   7.603
    9AU    AUSL 4849   7.822   5.663   7.946
    9AU     AUL 4850   8.116   5.627   7.959
    9AU       S 4851   8.158   5.262   7.652
    9AU     LIG 4852   8.317   4.868   7.768
    9AU     LIG 4853   8.682   4.605   7.609
    9AU     LIG 4854   9.116   4.409   7.566
    9AU     LIG 4855   9.490   4.148   7.441
    9AU     LIG 4856   9.932   4.024   7.463
    9AU     LIG 4857  10.356   3.909   7.339
    9AU       S 4858   7.832   5.274   8.034
    9AU     LIG 4859   8.251   5.104   8.242
    9AU     LIG 4860   8.336   4.744   8.531
    9AU     LIG 4861   8.522   4.402   8.812
    9AU     LIG 4862   8.847   4.315   9.169
    9AU     LIG 4863   9.186   4.415   9.519
    9AU     LIG 4864   9.481   4.409   9.904
    9AU    AUSL 4865   7.759   5.705   7.375
    9AU    AUSL 4866   7.669   5.239   7.290
    9AU     AUL 4867   7.964   5.362   7.227
    9AU       S 4868   8.263   5.371   7.564
    9AU     LIG 4869   8.653   5.098   7.429
    9AU     LIG 4870   9.102   4.877   7.360
    9AU     LIG 4871   9.556   4.645   7.300
    9AU     LIG 4872  10.042   4.495   7.265
    9AU     LIG 4873  10.467   4.332   7.069
    9AU     LIG 4874  10.916   4.381   6.895
    9AU       S 4875   7.893   4.968   6.980
    9AU     LIG 4876   7.954   4.602   6.690
    9AU     LIG 4877   8.126   4.213   6.474
    9AU     LIG 4878   8.393   3.896   6.243
    9AU     LIG 4879   8.655   3.485   6.231
    9AU     LIG 4880   9.015   3.182   6.145
    9AU     LIG 4881   9.407   3.114   5.893
    9AU    AUSL 4882   6.476   5.410   7.480
    9AU    AUSL 4883   6.570   5.525   7.050
    9AU     AUL 4884   6.299   5.618   7.034
    9AU       S 4885   6.507   5.208   7.038
    9AU     LIG 4886   6.022   5.209   6.949
    9AU     LIG 4887   5.728   4.914   6.736
    9AU     LIG 4888   5.486   4.683   6.401
    9AU     LIG 4889   5.185   4.400   6.172
    9AU     LIG 4890   4.919   4.287   5.792
    9AU     LIG 4891   4.649   4.367   5.398
    9AU       S 4892   6.167   5.382   7.411
    9AU     LIG 4893   5.822   5.130   7.582
    9AU     LIG 4894   5.343   5.104   7.638
    9AU     LIG 4895   4.913   4.888   7.696
    9AU     LIG 4896   4.503   4.772   7.446
    9AU     LIG 4897   4.051   4.591   7.400
    9AU     LIG 4898   3.692   4.273   7.472
    9AU    AUSL 4899   6.653   5.782   7.631
    9AU    AUSL 4900   6.740   5.386   7.808
    9AU     AUL 4901   6.354   5.558   7.791
    9AU       S 4902   6.458   5.180   8.027
    9AU     LIG 4903   6.264   4.901   7.770
    9AU     LIG 4904   5.867   4.669   7.890
    9AU     LIG 4905   5.576   4.387   8.170
    9AU     LIG 4906   5.284   4.103   8.451
    9AU     LIG 4907   5.016   3.783   8.714
    9AU     LIG 4908   4.855   3.322   8.751
    9AU       S 4909   6.072   5.679   7.463
    9AU     LIG 4910   5.645   5.691   7.159
    9AU     LIG 4911   5.229   5.450   7.184
    9AU     LIG 4912   4.834   5.222   7.329
    9AU     LIG 4913   4.481   5.218   7.682
    9AU     LIG 4914   4.001   5.249   7.642
    9AU     LIG 4915   3.603   5.323   7.901
    9AU    AUSL 4916   7.244   6.588   8.023
    9AU    AUSL 4917   6.919   6.369   7.733
    9AU     AUL 4918   6.963   6.648   8.115
    9AU       S 4919   6.579   6.490   8.297
    9AU     LIG 4920   6.415   6.872   8.525
    9AU     LIG 4921   6.238   7.224   8.803
    9AU     LIG 4922   6.203   7.670   9.002
    9AU     LIG 4923   5.955   8.090   9.027
    9AU     LIG 4924   5.770   8.505   9.194
    9AU     LIG 4925   5.397   8.752   9.364
    9AU       S 4926   7.286   6.985   7.992
    9AU     LIG 4927   7.404   7.187   8.365
    9AU     LIG 4928   7.460   7.608   8.552
    9AU     LIG 4929   7.412   7.983   8.836
    9AU     LIG 4930   7.378   8.186   9.274
    9AU     LIG 4931   7.404   8.489   9.643
    9AU     LIG 4932   7.249   8.808   9.952
    9AU    AUSL 4933   6.993   6.765   7.663
    9AU    AUSL 4934   7.442   6.742   7.254
    9AU     AUL 4935   7.123   6.988   7.414
    9AU       S 4936   7.111   7.044   7.872
    9AU     LIG 4937   7.172   7.502   8.020
    9AU     LIG 4938   7.219   7.931   8.217
    9AU     LIG 4939   7.340   8.323   8.437
    9AU     LIG 4940   7.166   8.758   8.555
    9AU     LIG 4941   7.038   9.205   8.668
    9AU     LIG 4942   6.882   9.641   8.832
    9AU       S 4943   7.449   7.091   7.078
    9AU     LIG 4944   7.787   7.334   6.889
    9AU     LIG 4945   7.901   7.773   6.759
    9AU     LIG 4946   8.233   8.134   6.763
    9AU     LIG 4947   8.417   8.573   6.742
    9AU     LIG 4948   8.375   9.030   6.625
    9AU     LIG 4949   8.058   9.398   6.582
    9AU    AUSL 4950   7.397   6.594   7.636
    9AU    AUSL 4951   7.396   6.218   7.906
    9AU     AUL 4952   7.577   6.631   8.020
    9AU       S 4953   7.993   6.156   8.077
    9AU     LIG 4954   8.235   6.416   8.566
    9AU     LIG 4955   8.380   6.654   8.947
    9AU     LIG 4956   8.584   6.815   9.353
    9AU     LIG 4957   8.775   7.085   9.702
    9AU     LIG 4958   8.772   7.446  10.028
    9AU     LIG 4959   8.918   7.831  10.265
    9AU       S 4960   7.472   6.950   7.712
    9AU     LIG 4961   7.655   7.338   7.934
    9AU     LIG 4962   7.721   7.773   8.138
    9AU     LIG 4963   7.950   8.175   8.306
    9AU     LIG 4964   8.198   8.602   8.348
    9AU     LIG 4965   8.121   9.092   8.371
    9AU     LIG 4966   7.843   9.501   8.431
    9AU    AUSL 4967   7.170   5.323   7.962
    9AU    AUSL 4968   7.522   5.452   7.724
    9AU     AUL 4969   7.382   5.190   8.182
    9AU       S 4970   7.165   4.778   8.037
    9AU     LIG 4971   6.997   4.447   8.268
    9AU     LIG 4972   6.816   4.028   8.230
    9AU     LIG 4973   6.719   3.637   8.442
    9AU     LIG 4974   6.852   3.215   8.533
    9AU     LIG 4975   6.907   2.894   8.859
    9AU     LIG 4976   6.983   2.719   9.291
    9AU       S 4977   7.829   5.047   7.928
    9AU     LIG 4978   7.995   4.653   8.141
    9AU     LIG 4979   8.156   4.273   8.413
    9AU     LIG 4980   8.354   3.912   8.671
    9AU     LIG 4981   8.588   3.500   8.783
    9AU     LIG 4982   8.997   3.313   8.949
    9AU     LIG 4983   9.425   3.142   9.080
    9AU    AUSL 4984   6.987   5.081   7.675
    9AU    AUSL 4985   6.852   5.465   8.206
    9AU     AUL 4986   6.910   5.150   8.074
    9AU       S 4987   6.907   4.788   7.794
    9AU     LIG 4988   6.622   4.476   7.672
    9AU     LIG 4989   6.575   4.019   7.766
    9AU     LIG 4990   6.587   3.572   7.951
    9AU     LIG 4991   6.488   3.129   8.167
    9AU     LIG 4992   6.368   2.662   8.341
    9AU     LIG 4993   6.308   2.170   8.421
    9AU       S 4994   6.574   5.341   8.315
    9AU     LIG 4995   6.306   4.945   8.450
    9AU     LIG 4996   5.933   4.650   8.446
    9AU     LIG 4997   5.696   4.305   8.686
    9AU     LIG 4998   5.451   3.991   8.953
    9AU     LIG 4999   5.433   3.750   9.362
    9AU     LIG 5000   5.418   3.596   9.814
    9AU    AUSL 5001   7.428   5.051   7.721
    9AU    AUSL 5002   6.933   5.071   7.258
    9AU     AUL 5003   7.248   4.810   7.483
    9AU       S 5004   6.842   4.765   7.146
    9AU     LIG 5005   6.499   4.498   7.159
    9AU     LIG 5006   6.509   4.060   7.254
    9AU     LIG 5007   6.544   3.607   7.120
    9AU     LIG 5008   6.509   3.173   6.928
    9AU     LIG 5009   6.423   2.795   6.677
    9AU     LIG 5010   6.337   2.346   6.698
    9AU       S 5011   7.270   4.819   7.927
    9AU     LIG 5012   7.145   4.335   7.795
    9AU     LIG 5013   7.061   3.857   7.813
    9AU     LIG 5014   7.073   3.463   8.101
    9AU     LIG 5015   7.283   3.059   8.277
    9AU     LIG 5016   7.562   2.665   8.342
    9AU     LIG 5017   7.967   2.424   8.436
    9AU    AUSL 5018   7.183   6.566   6.942
    9AU    AUSL 5019   7.502   6.331   7.257
    9AU     AUL 5020   7.545   6.653   6.991
    9AU       S 5021   7.208   6.864   6.748
    9AU     LIG 5022   7.484   7.140   6.529
    9AU     LIG 5023   7.605   7.553   6.363
    9AU     LIG 5024   7.618   7.769   5.925
    9AU     LIG 5025   7.648   8.097   5.575
    9AU     LIG 5026   7.681   8.542   5.423
    9AU     LIG 5027   7.982   8.846   5.242
    9AU       S 5028   7.919   6.371   6.944
    9AU     LIG 5029   8.218   6.817   6.857
    9AU     LIG 5030   8.552   6.966   6.545
    9AU     LIG 5031   8.765   7.241   6.202
    9AU     LIG 5032   8.968   7.697   6.119
    9AU     LIG 5033   9.310   8.051   6.128
    9AU     LIG 5034   9.646   8.366   6.008
    9AU    AUSL 5035   7.090   6.516   7.349
    9AU    AUSL 5036   6.985   6.227   7.056
    9AU     AUL 5037   6.915   6.712   7.089
    9AU       S 5038   7.250   7.028   6.979
    9AU     LIG 5039   7.290   7.515   6.837
    9AU     LIG 5040   7.163   8.000   6.832
    9AU     LIG 5041   6.992   8.473   6.784
    9AU     LIG 5042   7.089   8.940   6.659
    9AU     LIG 5043   7.152   9.387   6.463
    9AU     LIG 5044   6.897   9.586   6.113
    9AU       S 5045   6.790   6.513   6.679
    9AU     LIG 5046   6.788   6.651   6.257
    9AU     LIG 5047   6.573   6.903   5.917
    9AU     LIG 5048   6.316   7.154   5.577
    9AU     LIG 5049   6.241   7.403   5.144
    9AU     LIG 5050   6.068   7.746   4.824
    9AU     LIG 5051   5.787   8.098   4.631
    9AU    AUSL 5052   7.289   5.163   6.994
    9AU    AUSL 5053   6.865   5.464   7.352
    9AU     AUL 5054   6.967   5.158   6.926
    9AU       S 5055   6.467   5.083   7.151
    9AU     LIG 5056   6.126   4.833   7.279
    9AU     LIG 5057   5.845   4.529   7.060
    9AU     LIG 5058   5.504   4.323   6.772
    9AU     LIG 5059   5.220   3.993   6.533
    9AU     LIG 5060   4.917   3.576   6.560
    9AU     LIG 5061   4.594   3.231   6.411
    9AU       S 5062   7.110   4.741   7.035
    9AU     LIG 5063   6.881   4.376   6.823
    9AU     LIG 5064   6.653   3.981   6.761
    9AU     LIG 5065   6.613   3.553   6.593
    9AU     LIG 5066   6.739   3.138   6.422
    9AU     LIG 5067   6.793   2.918   5.997
    9AU     LIG 5068   6.891   2.733   5.566
    9AU    AUSL 5069   7.272   5.267   7.405
    9AU    AUSL 5070   7.409   5.540   7.104
    9AU     AUL 5071   7.473   5.046   7.157
    9AU       S 5072   6.856   4.863   7.281
    9AU     LIG 5073   6.966   4.332   7.325
    9AU     LIG 5074   6.989   3.883   7.146
    9AU     LIG 5075   6.997   3.436   6.915
    9AU     LIG 5076   7.184   3.022   6.706
    9AU     LIG 5077   7.538   2.667   6.586
    9AU     LIG 5078   7.773   2.305   6.323
    9AU       S 5079   7.665   5.159   6.739
    9AU     LIG 5080   7.580   4.859   6.429
    9AU     LIG 5081   7.784   4.505   6.197
    9AU     LIG 5082   8.060   4.200   5.951
    9AU     LIG 5083   8.116   3.872   5.592
    9AU     LIG 5084   8.274   3.593   5.220
    9AU     LIG 5085   8.643   3.419   4.984
   10AU     AUC 5086  15.988  28.042   7.505
   10AU     AUC 5087  16.251  28.047   7.345
   10AU     AUC 5088  16.243  28.030   7.650
   10AU     AUC 5089  15.741  28.043   7.346
   10AU     AUC 5090  15.724  28.048   7.652
   10AU     AUC 5091  15.840  28.300   7.512
   10AU     AUC 5092  16.148  28.300   7.485
   10AU     AUC 5093  15.832  27.787   7.514
   10AU     AUC 5094  16.127  27.784   7.527
   10AU     AUC 5095  15.978  27.892   7.765
   10AU     AUC 5096  16.014  28.203   7.757
   10AU     AUC 5097  15.992  27.881   7.246
   10AU     AUC 5098  15.976  28.184   7.245
   10AU     AUC 5099  16.497  28.041   7.178
   10AU     AUC 5100  16.510  28.044   7.491
   10AU     AUC 5101  16.506  28.033   7.796
   10AU     AUC 5102  15.485  28.032   7.187
   10AU     AUC 5103  15.468  28.058   7.490
   10AU     AUC 5104  15.477  28.071   7.818
   10AU     AUC 5105  15.695  28.571   7.517
   10AU     AUC 5106  16.002  28.572   7.508
   10AU     AUC 5107  16.292  28.567   7.501
   10AU     AUC 5108  15.647  27.532   7.521
   10AU     AUC 5109  15.970  27.516   7.507
   10AU     AUC 5110  16.283  27.519   7.526
   10AU     AUC 5111  15.962  27.735   8.023
   10AU     AUC 5112  15.989  28.053   8.032
   10AU     AUC 5113  16.012  28.356   8.018
   10AU     AUC 5114  15.995  27.709   7.010
   10AU     AUC 5115  15.999  28.028   6.980
   10AU     AUC 5116  15.975  28.341   6.981
   10AU     AUC 5117  16.259  27.887   7.925
   10AU     AUC 5118  16.266  28.184   7.920
   10AU     AUC 5119  16.259  27.877   7.083
   10AU     AUC 5120  16.255  28.190   7.076
   10AU     AUC 5121  15.720  27.910   7.934
   10AU     AUC 5122  15.734  28.219   7.933
   10AU     AUC 5123  15.741  27.875   7.074
   10AU     AUC 5124  15.728  28.191   7.082
   10AU     AUC 5125  16.403  28.314   7.326
   10AU     AUC 5126  16.420  28.287   7.642
   10AU     AUC 5127  15.573  28.303   7.352
   10AU     AUC 5128  15.576  28.320   7.672
   10AU     AUC 5129  16.400  27.779   7.351
   10AU     AUC 5130  16.405  27.775   7.667
   10AU     AUC 5131  15.563  27.785   7.345
   10AU     AUC 5132  15.566  27.801   7.684
   10AU     AUC 5133  15.839  28.465   7.779
   10AU     AUC 5134  16.164  28.466   7.751
   10AU     AUC 5135  15.810  27.619   7.763
   10AU     AUC 5136  16.131  27.626   7.787
   10AU     AUC 5137  15.826  28.465   7.247
   10AU     AUC 5138  16.145  28.454   7.233
   10AU     AUC 5139  15.814  27.626   7.246
   10AU     AUC 5140  16.144  27.616   7.266
   10AU    AUSL 5141  16.341  27.980   8.062
   10AU    AUSL 5142  16.282  27.566   8.155
   10AU     AUL 5143  16.506  27.637   8.413
   10AU       S 5144  16.614  27.262   8.134
   10AU     LIG 5145  16.686  27.136   8.527
   10AU     LIG 5146  16.733  26.733   8.744
   10AU     LIG 5147  16.774  26.290   8.888
   10AU     LIG 5148  16.999  25.951   9.118
   10AU     LIG 5149  17.132  25.815   9.552
   10AU     LIG 5150  17.168  25.645  10.006
   10AU       S 5151  16.393  28.045   8.674
   10AU     LIG 5152  16.666  27.732   8.892
   10AU     LIG 5153  16.915  27.551   9.262
   10AU     LIG 5154  17.169  27.461   9.659
   10AU     LIG 5155  17.440  27.454  10.059
   10AU     LIG 5156  17.831  27.531  10.317
   10AU     LIG 5157  18.166  27.649  10.626
   10AU    AUSL 5158  16.079  27.875   8.374
   10AU    AUSL 5159  15.917  28.262   8.276
   10AU     AUL 5160  15.973  28.281   8.656
   10AU       S 5161  16.164  27.906   8.510
   10AU     LIG 5162  16.153  27.607   8.852
   10AU     LIG 5163  16.419  27.395   9.215
   10AU     LIG 5164  16.661  27.258   9.633
   10AU     LIG 5165  16.651  27.063  10.089
   10AU     LIG 5166  16.682  26.986  10.566
   10AU     LIG 5167  16.870  26.917  11.006
   10AU       S 5168  15.686  27.933   8.649
   10AU     LIG 5169  15.681  27.798   9.118
   10AU     LIG 5170  15.384  27.807   9.499
   10AU     LIG 5171  15.179  27.808   9.922
   10AU     LIG 5172  15.214  28.025  10.362
   10AU     LIG 5173  15.091  28.271  10.767
   10AU     LIG 5174  14.952  28.436  11.200
   10AU    AUSL 5175  16.326  28.328   8.289
   10AU    AUSL 5176  16.668  28.227   7.975
   10AU     AUL 5177  16.621  28.067   8.281
   10AU       S 5178  16.355  28.409   8.450
   10AU     LIG 5179  16.583  28.506   8.835
   10AU     LIG 5180  16.729  28.713   9.250
   10AU     LIG 5181  16.689  28.778   9.739
   10AU     LIG 5182  16.727  28.954  10.191
   10AU     LIG 5183  16.874  29.028  10.646
   10AU     LIG 5184  16.941  28.915  11.111
   10AU       S 5185  16.940  28.285   8.016
   10AU     LIG 5186  17.205  28.272   8.390
   10AU     LIG 5187  17.443  28.533   8.693
   10AU     LIG 5188  17.698  28.852   8.924
   10AU     LIG 5189  17.937  29.087   9.262
   10AU     LIG 5190  18.320  29.152   9.540
   10AU     LIG 5191  18.744  29.254   9.742
   10AU    AUSL 5192  16.526  28.091   6.870
   10AU    AUSL 5193  16.289  28.485   6.834
   10AU     AUL 5194  16.646  28.443   6.463
   10AU       S 5195  16.555  28.120   6.723
   10AU     LIG 5196  16.848  28.022   6.321
   10AU     LIG 5197  16.900  27.781   5.930
   10AU     LIG 5198  17.017  27.629   5.496
   10AU     LIG 5199  17.262  27.544   5.088
   10AU     LIG 5200  17.628  27.547   4.765
   10AU     LIG 5201  17.879  27.639   4.364
   10AU       S 5202  16.279  28.538   6.672
   10AU     LIG 5203  16.561  28.911   6.583
   10AU     LIG 5204  16.909  29.011   6.269
   10AU     LIG 5205  17.170  29.123   5.859
   10AU     LIG 5206  17.457  29.261   5.482
   10AU     LIG 5207  17.539  29.531   5.088
   10AU     LIG 5208  17.789  29.686   4.713
   10AU    AUSL 5209  16.269  27.770   6.701
   10AU    AUSL 5210  16.606  27.700   6.993
   10AU     AUL 5211  16.697  27.717   6.669
   10AU       S 5212  16.662  27.286   6.830
   10AU     LIG 5213  16.816  27.170   6.400
   10AU     LIG 5214  17.044  26.782   6.250
   10AU     LIG 5215  17.339  26.531   5.975
   10AU     LIG 5216  17.718  26.562   5.668
   10AU     LIG 5217  18.083  26.471   5.365
   10AU     LIG 5218  18.534  26.544   5.224
   10AU       S 5219  16.369  27.994   6.442
   10AU     LIG 5220  16.493  27.593   6.230
   10AU     LIG 5221  16.597  27.384   5.805
   10AU     LIG 5222  16.615  27.358   5.315
   10AU     LIG 5223  16.618  27.124   4.877
   10AU     LIG 5224  16.693  26.954   4.421
   10AU     LIG 5225  16.793  26.880   3.959
   10AU    AUSL 5226  16.105  28.121   6.883
   10AU    AUSL 5227  15.855  27.861   6.661
   10AU     AUL 5228  16.068  27.655   6.561
   10AU       S 5229  15.811  27.971   6.326
   10AU     LIG 5230  15.779  27.703   5.967
   10AU     LIG 5231  15.473  27.478   5.677
   10AU     LIG 5232  15.216  27.375   5.283
   10AU     LIG 5233  14.947  27.122   4.958
   10AU     LIG 5234  14.944  26.919   4.517
   10AU     LIG 5235  14.941  26.925   4.048
   10AU       S 5236  16.244  28.101   6.508
   10AU     LIG 5237  16.241  27.980   5.978
   10AU     LIG 5238  16.518  27.845   5.577
   10AU     LIG 5239  16.710  27.852   5.122
   10AU     LIG 5240  16.720  28.047   4.663
   10AU     LIG 5241  16.737  28.223   4.199
   10AU     LIG 5242  16.818  28.415   3.759
   10AU    AUSL 5243  15.542  28.091   8.228
   10AU    AUSL 5244  15.668  28.552   8.112
   10AU     AUL 5245  15.593  28.377   8.406
   10AU       S 5246  15.482  28.026   8.701
   10AU     LIG 5247  15.173  27.879   9.018
   10AU     LIG 5248  14.910  27.656   9.338
   10AU     LIG 5249  14.711  27.572   9.753
   10AU     LIG 5250  14.404  27.517  10.109
   10AU     LIG 5251  14.176  27.815  10.377
   10AU     LIG 5252  14.069  28.055  10.761
   10AU       S 5253  15.344  28.710   8.205
   10AU     LIG 5254  15.359  28.763   8.665
   10AU     LIG 5255  15.220  28.967   9.072
   10AU     LIG 5256  14.979  29.296   9.318
   10AU     LIG 5257  14.907  29.623   9.673
   10AU     LIG 5258  14.740  29.788  10.108
   10AU     LIG 5259  14.488  29.941  10.495
   10AU    AUSL 5260  15.856  27.903   8.030
   10AU    AUSL 5261  15.310  27.823   8.010
   10AU     AUL 5262  15.358  27.931   8.264
   10AU       S 5263  15.172  27.477   8.181
   10AU     LIG 5264  14.755  27.313   8.035
   10AU     LIG 5265  14.395  27.052   8.205
   10AU     LIG 5266  14.197  26.789   8.555
   10AU     LIG 5267  13.989  26.480   8.852
   10AU     LIG 5268  13.662  26.293   9.136
   10AU     LIG 5269  13.273  26.342   9.420
   10AU       S 5270  15.683  27.806   8.600
   10AU     LIG 5271  15.430  27.491   8.785
   10AU     LIG 5272  15.333  27.377   9.226
   10AU     LIG 5273  15.155  27.304   9.668
   10AU     LIG 5274  15.059  26.995  10.036
   10AU     LIG 5275  15.019  26.816  10.474
   10AU     LIG 5276  14.834  26.890  10.907
   10AU    AUSL 5277  15.601  27.997   6.964
   10AU    AUSL 5278  15.745  27.572   6.934
   10AU     AUL 5279  15.568  27.690   6.636
   10AU       S 5280  15.568  28.051   6.326
   10AU     LIG 5281  15.291  27.865   6.006
   10AU     LIG 5282  15.034  27.750   5.612
   10AU     LIG 5283  14.724  27.525   5.315
   10AU     LIG 5284  14.497  27.481   4.906
   10AU     LIG 5285  14.164  27.593   4.580
   10AU     LIG 5286  13.829  27.693   4.251
   10AU       S 5287  15.312  27.268   6.804
   10AU     LIG 5288  15.050  26.902   6.766
   10AU     LIG 5289  14.765  26.625   6.511
   10AU     LIG 5290  14.497  26.380   6.201
   10AU     LIG 5291  14.303  26.335   5.762
   10AU     LIG 5292  14.334  26.236   5.296
   10AU     LIG 5293  14.256  26.147   4.837
   10AU    AUSL 5294  15.778  28.293   6.684
   10AU    AUSL 5295  15.362  28.338   6.948
   10AU     AUL 5296  15.373  28.115   6.729
   10AU       S 5297  15.287  28.576   6.749
   10AU     LIG 5298  14.955  28.662   6.399
   10AU     LIG 5299  14.711  28.913   6.051
   10AU     LIG 5300  14.498  29.130   5.670
   10AU     LIG 5301  14.175  29.233   5.311
   10AU     LIG 5302  13.742  29.259   5.075
   10AU     LIG 5303  13.500  29.504   4.735
   10AU       S 5304  15.780  28.224   6.475
   10AU     LIG 5305  15.757  28.238   5.920
   10AU     LIG 5306  15.526  27.984   5.563
   10AU     LIG 5307  15.250  27.917   5.159
   10AU     LIG 5308  15.176  28.079   4.690
   10AU     LIG 5309  15.161  28.234   4.209
   10AU     LIG 5310  15.015  28.479   3.805
   10AU    AUSL 5311  16.604  28.674   7.449
   10AU    AUSL 5312  16.634  28.426   7.096
   10AU     AUL 5313  16.750  28.877   7.259
   10AU       S 5314  16.765  28.547   6.894
   10AU     LIG 5315  17.108  28.590   6.551
   10AU     LIG 5316  17.385  28.796   6.210
   10AU     LIG 5317  17.632  28.872   5.792
   10AU     LIG 5318  17.920  28.981   5.414
   10AU     LIG 5319  18.219  29.183   5.100
   10AU     LIG 5320  18.544  29.536   5.045
   10AU       S 5321  17.052  28.531   7.365
   10AU     LIG 5322  17.502  28.604   7.578
   10AU     LIG 5323  18.001  28.613   7.562
   10AU     LIG 5324  18.485  28.687   7.470
   10AU     LIG 5325  18.872  28.961   7.579
   10AU     LIG 5326  19.115  29.365   7.636
   10AU     LIG 5327  19.185  29.832   7.508
   10AU    AUSL 5328  16.835  28.090   7.230
   10AU    AUSL 5329  16.827  27.927   7.656
   10AU     AUL 5330  17.098  27.872   7.422
   10AU       S 5331  17.072  28.304   7.249
   10AU     LIG 5332  17.540  28.176   7.300
   10AU     LIG 5333  18.033  28.176   7.298
   10AU     LIG 5334  18.522  28.174   7.311
   10AU     LIG 5335  18.999  28.274   7.278
   10AU     LIG 5336  19.378  28.421   7.008
   10AU     LIG 5337  19.677  28.592   6.704
   10AU       S 5338  17.138  27.463   7.662
   10AU     LIG 5339  17.549  27.292   7.700
   10AU     LIG 5340  17.911  27.031   7.782
   10AU     LIG 5341  18.323  26.893   7.672
   10AU     LIG 5342  18.698  27.107   7.669
   10AU     LIG 5343  19.112  27.092   7.801
   10AU     LIG 5344  19.470  27.133   8.097
   10AU    AUSL 5345  16.617  28.270   7.561
   10AU    AUSL 5346  16.511  28.599   7.853
   10AU     AUL 5347  16.756  28.611   7.718
   10AU       S 5348  16.816  28.476   8.139
   10AU     LIG 5349  17.222  28.722   8.134
   10AU     LIG 5350  17.416  29.005   8.482
   10AU     LIG 5351  17.548  29.333   8.813
   10AU     LIG 5352  17.837  29.702   8.900
   10AU     LIG 5353  17.885  30.179   8.851
   10AU     LIG 5354  17.986  30.620   8.949
   10AU       S 5355  17.072  28.333   7.550
   10AU     LIG 5356  17.403  28.135   7.794
   10AU     LIG 5357  17.893  28.158   7.794
   10AU     LIG 5358  18.380  28.300   7.792
   10AU     LIG 5359  18.870  28.472   7.762
   10AU     LIG 5360  19.292  28.705   7.959
   10AU     LIG 5361  19.742  28.881   8.133
   10AU    AUSL 5362  15.319  28.600   7.587
   10AU    AUSL 5363  15.368  28.320   7.930
   10AU     AUL 5364  15.092  28.666   7.782
   10AU       S 5365  15.191  28.411   8.150
   10AU     LIG 5366  14.903  28.620   8.476
   10AU     LIG 5367  14.781  28.758   8.907
   10AU     LIG 5368  14.564  28.911   9.303
   10AU     LIG 5369  14.176  29.035   9.577
   10AU     LIG 5370  13.811  29.284   9.808
   10AU     LIG 5371  13.445  29.364  10.117
   10AU       S 5372  14.770  28.511   7.514
   10AU     LIG 5373  14.797  29.019   7.441
   10AU     LIG 5374  14.411  29.323   7.444
   10AU     LIG 5375  14.049  29.661   7.488
   10AU     LIG 5376  13.677  29.959   7.614
   10AU     LIG 5377  13.327  30.178   7.869
   10AU     LIG 5378  12.844  30.247   7.871
   10AU    AUSL 5379  15.410  28.263   7.351
   10AU    AUSL 5380  15.487  28.677   7.204
   10AU     AUL 5381  15.226  28.598   7.238
   10AU       S 5382  14.794  28.540   7.360
   10AU     LIG 5383  14.744  28.698   6.890
   10AU     LIG 5384  14.275  28.785   6.709
   10AU     LIG 5385  13.791  28.899   6.751
   10AU     LIG 5386  13.319  28.844   6.744
   10AU     LIG 5387  12.973  29.169   6.677
   10AU     LIG 5388  12.613  29.474   6.642
   10AU       S 5389  15.321  28.846   6.845
   10AU     LIG 5390  15.232  29.086   6.463
   10AU     LIG 5391  14.978  29.358   6.162
   10AU     LIG 5392  14.843  29.728   5.872
   10AU     LIG 5393  14.655  30.184   5.800
   10AU     LIG 5394  14.337  30.548   5.692
   10AU     LIG 5395  13.993  30.875   5.567
   10AU    AUSL 5396  15.112  28.189   7.642
   10AU    AUSL 5397  15.167  27.933   7.294
   10AU     AUL 5398  15.030  28.179   7.249
   10AU       S 5399  14.815  27.745   7.417
   10AU     LIG 5400  14.460  27.677   7.766
   10AU     LIG 5401  13.980  27.629   7.872
   10AU     LIG 5402  13.511  27.543   7.765
   10AU     LIG 5403  13.157  27.402   7.467
   10AU     LIG 5404  12.734  27.520   7.271
   10AU     LIG 5405  12.342  27.369   7.041
   10AU       S 5406  14.906  28.225   7.715
   10AU     LIG 5407  14.678  28.480   8.038
   10AU     LIG 5408  14.423  28.805   8.314
   10AU     LIG 5409  13.919  28.879   8.279
   10AU     LIG 5410  13.438  28.873   8.156
   10AU     LIG 5411  12.986  28.803   8.086
   10AU     LIG 5412  12.536  28.892   8.007
   10AU    AUSL 5413  16.686  27.529   7.565
   10AU    AUSL 5414  16.644  27.719   7.966
   10AU     AUL 5415  16.939  27.795   7.907
   10AU       S 5416  16.830  27.271   7.539
   10AU     LIG 5417  17.104  26.962   7.727
   10AU     LIG 5418  17.505  26.765   7.602
   10AU     LIG 5419  17.944  26.601   7.480
   10AU     LIG 5420  18.397  26.393   7.481
   10AU     LIG 5421  18.706  25.995   7.550
   10AU     LIG 5422  19.051  25.766   7.809
   10AU       S 5423  16.656  27.436   8.028
   10AU     LIG 5424  17.094  27.246   8.157
   10AU     LIG 5425  17.159  26.887   8.474
   10AU     LIG 5426  17.231  26.537   8.801
   10AU     LIG 5427  17.531  26.412   9.158
   10AU     LIG 5428  17.939  26.426   9.426
   10AU     LIG 5429  18.316  26.474   9.712
   10AU    AUSL 5430  16.524  27.863   7.363
   10AU    AUSL 5431  16.450  27.394   7.250
   10AU     AUL 5432  16.790  27.599   7.183
   10AU       S 5433  16.879  27.444   7.594
   10AU     LIG 5434  17.255  27.190   7.279
   10AU     LIG 5435  17.751  27.074   7.264
   10AU     LIG 5436  18.211  26.920   7.166
   10AU     LIG 5437  18.682  26.825   7.246
   10AU     LIG 5438  19.167  26.753   7.174
   10AU     LIG 5439  19.550  26.550   6.944
   10AU       S 5440  16.699  27.163   7.024
   10AU     LIG 5441  16.779  26.782   6.737
   10AU     LIG 5442  16.912  26.361   6.549
   10AU     LIG 5443  17.019  25.925   6.363
   10AU     LIG 5444  17.312  25.539   6.342
   10AU     LIG 5445  17.513  25.128   6.145
   10AU     LIG 5446  17.897  24.877   5.977
   10AU    AUSL 5447  15.263  27.553   7.477
   10AU    AUSL 5448  15.356  27.670   7.044
   10AU     AUL 5449  15.086  27.754   7.026
   10AU       S 5450  15.297  27.347   7.032
   10AU     LIG 5451  14.803  27.337   6.971
   10AU     LIG 5452  14.523  27.011   6.781
   10AU     LIG 5453  14.248  26.716   6.512
   10AU     LIG 5454  13.998  26.538   6.142
   10AU     LIG 5455  13.790  26.462   5.718
   10AU     LIG 5456  13.613  26.487   5.274
   10AU       S 5457  14.972  27.529   7.416
   10AU     LIG 5458  14.637  27.262   7.522
   10AU     LIG 5459  14.176  27.250   7.581
   10AU     LIG 5460  13.703  27.132   7.549
   10AU     LIG 5461  13.271  26.981   7.741
   10AU     LIG 5462  12.922  26.635   7.811
   10AU     LIG 5463  12.656  26.219   7.851
   10AU    AUSL 5464  15.430  27.922   7.634
   10AU    AUSL 5465  15.527  27.523   7.805
   10AU     AUL 5466  15.132  27.725   7.798
   10AU       S 5467  15.268  27.308   7.930
   10AU     LIG 5468  15.055  26.997   7.754
   10AU     LIG 5469  14.713  26.748   7.940
   10AU     LIG 5470  14.383  26.478   8.190
   10AU     LIG 5471  14.102  26.168   8.455
   10AU     LIG 5472  13.830  25.847   8.713
   10AU     LIG 5473  13.666  25.368   8.750
   10AU       S 5474  14.855  27.805   7.453
   10AU     LIG 5475  14.362  27.655   7.269
   10AU     LIG 5476  13.880  27.623   7.358
   10AU     LIG 5477  13.461  27.854   7.359
   10AU     LIG 5478  13.064  27.869   7.640
   10AU     LIG 5479  12.714  27.599   7.789
   10AU     LIG 5480  12.453  27.251   7.985
   10AU    AUSL 5481  16.057  28.712   8.068
   10AU    AUSL 5482  15.696  28.480   7.706
   10AU     AUL 5483  15.841  28.753   8.197
   10AU       S 5484  15.426  28.785   8.046
   10AU     LIG 5485  15.116  29.106   8.352
   10AU     LIG 5486  14.997  29.321   8.770
   10AU     LIG 5487  14.951  29.737   9.030
   10AU     LIG 5488  14.818  30.200   9.095
   10AU     LIG 5489  14.599  30.615   9.175
   10AU     LIG 5490  14.166  30.788   9.273
   10AU       S 5491  16.107  29.113   8.006
   10AU     LIG 5492  16.304  29.278   8.368
   10AU     LIG 5493  16.494  29.683   8.515
   10AU     LIG 5494  16.505  30.120   8.707
   10AU     LIG 5495  16.377  30.330   9.132
   10AU     LIG 5496  16.226  30.559   9.535
   10AU     LIG 5497  16.070  30.930   9.791
   10AU    AUSL 5498  15.767  28.882   7.734
   10AU    AUSL 5499  16.230  28.900   7.283
   10AU     AUL 5500  15.894  29.152   7.478
   10AU       S 5501  15.884  29.155   7.939
   10AU     LIG 5502  16.048  29.615   8.063
   10AU     LIG 5503  16.255  30.028   8.223
   10AU     LIG 5504  16.212  30.464   8.411
   10AU     LIG 5505  15.912  30.857   8.468
   10AU     LIG 5506  15.648  31.272   8.496
   10AU     LIG 5507  15.469  31.717   8.488
   10AU       S 5508  16.267  29.224   7.183
   10AU     LIG 5509  16.616  29.348   6.910
   10AU     LIG 5510  16.716  29.790   6.733
   10AU     LIG 5511  16.894  30.255   6.787
   10AU     LIG 5512  16.796  30.739   6.683
   10AU     LIG 5513  16.900  31.192   6.553
   10AU     LIG 5514  17.064  31.633   6.681
   10AU    AUSL 5515  16.173  28.743   7.665
   10AU    AUSL 5516  16.176  28.357   7.909
   10AU     AUL 5517  16.370  28.736   8.064
   10AU       S 5518  16.756  28.516   8.233
   10AU     LIG 5519  16.971  28.721   8.581
   10AU     LIG 5520  17.174  28.919   8.944
   10AU     LIG 5521  17.418  29.108   9.287
   10AU     LIG 5522  17.630  29.267   9.673
   10AU     LIG 5523  17.634  29.584  10.025
   10AU     LIG 5524  17.572  30.035  10.168
   10AU       S 5525  16.259  29.055   7.749
   10AU     LIG 5526  16.515  29.442   7.924
   10AU     LIG 5527  16.733  29.859   8.081
   10AU     LIG 5528  16.747  30.311   8.239
   10AU     LIG 5529  17.139  30.622   8.281
   10AU     LIG 5530  17.218  31.103   8.351
   10AU     LIG 5531  17.079  31.463   8.633
   10AU    AUSL 5532  15.951  27.466   7.925
   10AU    AUSL 5533  16.314  27.598   7.732
   10AU     AUL 5534  16.164  27.327   8.159
   10AU       S 5535  15.941  26.910   7.997
   10AU     LIG 5536  15.541  26.717   8.158
   10AU     LIG 5537  15.463  26.251   8.193
   10AU     LIG 5538  15.571  25.804   8.341
   10AU     LIG 5539  15.586  25.447   8.658
   10AU     LIG 5540  15.543  25.204   9.074
   10AU     LIG 5541  15.600  25.008   9.507
   10AU       S 5542  16.597  27.231   7.950
   10AU     LIG 5543  16.787  26.799   8.125
   10AU     LIG 5544  16.934  26.412   8.388
   10AU     LIG 5545  17.084  26.000   8.602
   10AU     LIG 5546  17.212  25.574   8.791
   10AU     LIG 5547  17.481  25.184   8.854
   10AU     LIG 5548  17.798  24.842   8.777
   10AU    AUSL 5549  15.767  27.221   7.649
   10AU    AUSL 5550  15.666  27.589   8.207
   10AU     AUL 5551  15.701  27.284   8.061
   10AU       S 5552  15.674  26.956   7.739
   10AU     LIG 5553  15.388  26.605   7.664
   10AU     LIG 5554  15.388  26.138   7.697
   10AU     LIG 5555  15.217  25.758   7.957
   10AU     LIG 5556  14.941  25.358   8.072
   10AU     LIG 5557  14.826  24.940   8.281
   10AU     LIG 5558  14.720  24.500   8.442
   10AU       S 5559  15.337  27.433   8.280
   10AU     LIG 5560  15.092  26.990   8.287
   10AU     LIG 5561  14.731  26.740   8.470
   10AU     LIG 5562  14.495  26.391   8.708
   10AU     LIG 5563  14.260  26.041   8.943
   10AU     LIG 5564  14.136  25.849   9.355
   10AU     LIG 5565  14.079  25.872   9.835
   10AU    AUSL 5566  16.219  27.196   7.699
   10AU    AUSL 5567  15.725  27.226   7.233
   10AU     AUL 5568  16.042  26.961   7.457
   10AU       S 5569  15.633  26.919   7.099
   10AU     LIG 5570  15.312  26.627   7.141
   10AU     LIG 5571  15.261  26.182   7.185
   10AU     LIG 5572  15.098  25.791   6.953
   10AU     LIG 5573  14.820  25.428   6.797
   10AU     LIG 5574  14.782  24.976   6.691
   10AU     LIG 5575  14.790  24.515   6.613
   10AU       S 5576  16.034  26.958   7.902
   10AU     LIG 5577  15.856  26.452   7.846
   10AU     LIG 5578  15.836  25.978   7.930
   10AU     LIG 5579  16.026  25.557   8.105
   10AU     LIG 5580  16.194  25.094   8.095
   10AU     LIG 5581  16.299  24.609   8.044
   10AU     LIG 5582  16.505  24.180   8.128
   10AU    AUSL 5583  15.973  28.725   6.961
   10AU    AUSL 5584  16.273  28.488   7.278
   10AU     AUL 5585  16.350  28.804   7.018
   10AU       S 5586  16.026  29.063   6.812
   10AU     LIG 5587  16.274  29.333   6.522
   10AU     LIG 5588  16.384  29.753   6.322
   10AU     LIG 5589  16.439  30.015   5.904
   10AU     LIG 5590  16.419  30.335   5.524
   10AU     LIG 5591  16.461  30.805   5.364
   10AU     LIG 5592  16.389  31.292   5.330
   10AU       S 5593  16.714  28.513   6.980
   10AU     LIG 5594  16.989  28.975   6.850
   10AU     LIG 5595  17.291  29.194   6.571
   10AU     LIG 5596  17.526  29.554   6.375
   10AU     LIG 5597  17.822  29.860   6.172
   10AU     LIG 5598  18.193  30.110   5.999
   10AU     LIG 5599  18.290  30.582   6.008
   10AU    AUSL 5600  15.865  28.704   7.367
   10AU    AUSL 5601  15.771  28.391   7.082
   10AU     AUL 5602  15.706  28.881   7.116
   10AU       S 5603  16.067  29.185   7.054
   10AU     LIG 5604  16.202  29.659   6.904
   10AU     LIG 5605  16.279  30.117   6.716
   10AU     LIG 5606  16.102  30.593   6.633
   10AU     LIG 5607  15.880  31.055   6.572
   10AU     LIG 5608  15.871  31.561   6.538
   10AU     LIG 5609  15.509  31.891   6.487
   10AU       S 5610  15.562  28.697   6.709
   10AU     LIG 5611  15.465  28.641   6.269
   10AU     LIG 5612  15.221  28.925   5.962
   10AU     LIG 5613  15.007  29.245   5.662
   10AU     LIG 5614  14.881  29.531   5.290
   10AU     LIG 5615  14.784  29.795   4.885
   10AU     LIG 5616  14.551  30.151   4.661
   10AU    AUSL 5617  16.074  27.323   6.975
   10AU    AUSL 5618  15.650  27.612   7.345
   10AU     AUL 5619  15.754  27.326   6.897
   10AU       S 5620  15.254  27.226   7.151
   10AU     LIG 5621  14.929  26.936   7.259
   10AU     LIG 5622  14.707  26.590   7.032
   10AU     LIG 5623  14.446  26.293   6.748
   10AU     LIG 5624  14.116  26.132   6.453
   10AU     LIG 5625  13.771  25.859   6.286
   10AU     LIG 5626  13.664  25.408   6.183
   10AU       S 5627  15.897  26.903   7.003
   10AU     LIG 5628  15.710  26.490   6.838
   10AU     LIG 5629  15.506  26.078   6.742
   10AU     LIG 5630  15.481  25.662   6.537
   10AU     LIG 5631  15.506  25.437   6.106
   10AU     LIG 5632  15.574  25.129   5.743
   10AU     LIG 5633  15.705  24.727   5.540
   10AU    AUSL 5634  16.061  27.422   7.393
   10AU    AUSL 5635  16.182  27.702   7.092
   10AU     AUL 5636  16.251  27.204   7.128
   10AU       S 5637  15.662  27.020   7.237
   10AU     LIG 5638  15.779  26.526   7.349
   10AU     LIG 5639  15.782  26.079   7.181
   10AU     LIG 5640  15.939  25.674   6.940
   10AU     LIG 5641  16.266  25.285   6.909
   10AU     LIG 5642  16.486  24.890   6.702
   10AU     LIG 5643  16.636  24.428   6.751
   10AU       S 5644  16.457  27.327   6.730
   10AU     LIG 5645  16.348  26.967   6.515
   10AU     LIG 5646  16.556  26.627   6.270
   10AU     LIG 5647  16.849  26.327   6.037
   10AU     LIG 5648  16.957  25.996   5.716
   10AU     LIG 5649  17.128  25.819   5.311
   10AU     LIG 5650  17.395  25.684   4.956
   11POPC   NC3 5651  40.321  30.869   9.523
   11POPC   PO4 5652  40.921  30.690   9.412
   11POPC   GL1 5653  40.777  30.803   9.032
   11POPC   GL2 5654  40.435  30.844   9.026
   11POPC   C1A 5655  40.830  30.844   8.621
   11POPC   D2A 5656  40.519  30.962   8.351
   11POPC   C3A 5657  40.697  30.923   7.969
   11POPC   C4A 5658  40.988  30.923   7.676
   11POPC   C1B 5659  40.391  30.592   8.677
   11POPC   C2B 5660  40.615  30.425   8.337
   11POPC   C3B 5661  40.630  30.421   7.915
   11POPC   C4B 5662  40.468  30.673   7.582
   12POPC   NC3 5663  35.727  20.060   9.665
   12POPC   PO4 5664  35.926  19.445   9.706
   12POPC   GL1 5665  36.003  19.457   9.271
   12POPC   GL2 5666  35.958  19.834   9.191
   12POPC   C1A 5667  36.026  19.481   8.807
   12POPC   D2A 5668  35.980  19.778   8.431
   12POPC   C3A 5669  36.113  19.621   8.013
   12POPC   C4A 5670  36.169  19.358   7.653
   12POPC   C1B 5671  35.938  20.139   8.801
   12POPC   C2B 5672  36.092  20.293   8.402
   12POPC   C3B 5673  36.025  20.116   7.972
   12POPC   C4B 5674  36.187  19.872   7.577
   13POPC   NC3 5675  28.642  22.012   9.525
   13POPC   PO4 5676  28.266  22.510   9.786
   13POPC   GL1 5677  28.197  22.381   9.267
   13POPC   GL2 5678  28.235  22.005   9.187
   13POPC   C1A 5679  28.351  22.293   8.803
   13POPC   D2A 5680  28.161  22.076   8.460
   13POPC   C3A 5681  28.244  22.299   8.118
   13POPC   C4A 5682  28.604  22.322   7.861
   13POPC   C1B 5683  28.513  21.798   8.829
   13POPC   C2B 5684  28.534  21.652   8.356
   13POPC   C3B 5685  28.512  21.804   7.894
   13POPC   C4B 5686  28.163  22.072   7.683
   14POPC   NC3 5687   3.997  34.031   9.479
   14POPC   PO4 5688   4.365  33.592   9.469
   14POPC   GL1 5689   4.322  33.770   9.125
   14POPC   GL2 5690   3.960  33.689   9.082
   14POPC   C1A 5691   4.406  33.619   8.727
   14POPC   D2A 5692   4.277  33.274   8.431
   14POPC   C3A 5693   4.140  33.487   8.059
   14POPC   C4A 5694   4.403  33.690   7.778
   14POPC   C1B 5695   4.058  34.047   8.803
   14POPC   C2B 5696   4.233  33.987   8.420
   14POPC   C3B 5697   4.156  34.150   8.064
   14POPC   C4B 5698   3.983  34.021   7.753
   15POPC   NC3 5699   8.047  33.294   9.390
   15POPC   PO4 5700   7.988  33.970   9.422
   15POPC   GL1 5701   8.182  33.980   9.054
   15POPC   GL2 5702   8.081  33.616   8.964
   15POPC   C1A 5703   8.359  33.923   8.663
   15POPC   D2A 5704   8.169  33.675   8.385
   15POPC   C3A 5705   8.083  33.954   8.051
   15POPC   C4A 5706   8.359  33.964   7.728
   15POPC   C1B 5707   8.409  33.371   8.721
   15POPC   C2B 5708   8.569  33.337   8.284
   15POPC   C3B 5709   8.339  33.503   7.943
   15POPC   C4B 5710   8.485  33.516   7.520
   16POPC   NC3 5711  10.085  40.552   9.471
   16POPC   PO4 5712   9.600  41.008   9.440
   16POPC   GL1 5713   9.677  40.672   9.129
   16POPC   GL2 5714  10.027  40.720   8.985
   16POPC   C1A 5715   9.559  40.545   8.684
   16POPC   D2A 5716   9.458  40.720   8.249
   16POPC   C3A 5717   9.685  40.617   7.832
   16POPC   C4A 5718   9.565  40.472   7.357
   16POPC   C1B 5719  10.034  40.757   8.523
   16POPC   C2B 5720   9.894  40.997   8.163
   16POPC   C3B 5721   9.995  41.064   7.738
   16POPC   C4B 5722  10.128  41.155   7.321
   17POPC   NC3 5723  32.286  13.054   9.806
   17POPC   PO4 5724  31.963  12.572   9.444
   17POPC   GL1 5725  32.290  12.880   9.302
   17POPC   GL2 5726  32.098  13.192   9.326
   17POPC   C1A 5727  32.451  12.953   8.874
   17POPC   D2A 5728  32.561  12.850   8.435
   17POPC   C3A 5729  32.444  12.998   8.012
   17POPC   C4A 5730  32.418  12.762   7.630
   17POPC   C1B 5731  31.931  12.992   8.945
   17POPC   C2B 5732  32.027  12.788   8.564
   17POPC   C3B 5733  31.947  12.869   8.130
   17POPC   C4B 5734  31.949  12.942   7.692
   18POPC   NC3 5735  29.978  14.015   9.465
   18POPC   PO4 5736  30.216  14.675   9.475
   18POPC   GL1 5737  29.972  14.457   9.173
   18POPC   GL2 5738  30.271  14.238   9.118
   18POPC   C1A 5739  29.659  14.474   8.813
   18POPC   D2A 5740  29.784  14.658   8.409
   18POPC   C3A 5741  29.587  14.622   7.974
   18POPC   C4A 5742  29.776  14.507   7.549
   18POPC   C1B 5743  30.080  14.215   8.714
   18POPC   C2B 5744  30.197  14.360   8.326
   18POPC   C3B 5745  30.102  14.541   7.946
   18POPC   C4B 5746  30.306  14.400   7.556
   19POPC   NC3 5747   7.825  31.877   9.552
   19POPC   PO4 5748   8.196  32.378   9.407
   19POPC   GL1 5749   8.020  32.359   9.045
   19POPC   GL2 5750   7.748  32.129   9.074
   19POPC   C1A 5751   8.286  32.182   8.694
   19POPC   D2A 5752   8.478  31.974   8.351
   19POPC   C3A 5753   8.371  32.195   8.005
   19POPC   C4A 5754   8.017  32.382   7.777
   19POPC   C1B 5755   7.777  32.257   8.614
   19POPC   C2B 5756   7.920  32.058   8.239
   19POPC   C3B 5757   7.673  31.964   7.868
   19POPC   C4B 5758   7.754  32.064   7.439
   20POPC   NC3 5759  18.649   2.902   9.495
   20POPC   PO4 5760  19.234   2.565   9.517
   20POPC   GL1 5761  19.150   2.790   9.162
   20POPC   GL2 5762  18.866   2.717   9.066
   20POPC   C1A 5763  19.320   2.949   8.778
   20POPC   D2A 5764  19.189   3.042   8.342
   20POPC   C3A 5765  19.420   2.984   7.922
   20POPC   C4A 5766  19.263   2.842   7.478
   20POPC   C1B 5767  19.015   2.559   8.682
   20POPC   C2B 5768  18.874   2.630   8.293
   20POPC   C3B 5769  18.925   2.823   7.938
   20POPC   C4B 5770  18.787   2.695   7.565
   21POPC   NC3 5771  42.453  44.258   9.952
   21POPC   PO4 5772  42.331  44.723   9.474
   21POPC   GL1 5773  42.064  44.613   9.118
   21POPC   GL2 5774  42.353  44.456   9.049
   21POPC   C1A 5775  42.111  44.493   8.625
   21POPC   D2A 5776  42.348  44.423   8.222
   21POPC   C3A 5777  42.144  44.585   7.836
   21POPC   C4A 5778  42.262  44.451   7.442
   21POPC   C1B 5779  42.429  44.858   8.808
   21POPC   C2B 5780  42.601  44.829   8.393
   21POPC   C3B 5781  42.527  44.869   7.944
   21POPC   C4B 5782  42.706  44.725   7.539
   22POPC   NC3 5783  29.795  14.875   9.512
   22POPC   PO4 5784  30.198  15.464   9.464
   22POPC   GL1 5785  30.028  15.180   9.179
   22POPC   GL2 5786  29.649  15.248   9.161
   22POPC   C1A 5787  29.925  14.902   8.858
   22POPC   D2A 5788  29.883  15.151   8.525
   22POPC   C3A 5789  29.847  15.052   8.110
   22POPC   C4A 5790  29.893  14.985   7.731
   22POPC   C1B 5791  29.607  15.511   8.749
   22POPC   C2B 5792  29.659  15.523   8.260
   22POPC   C3B 5793  29.639  15.434   7.794
   22POPC   C4B 5794  29.638  15.386   7.306
   23POPC   NC3 5795   0.642  41.145   9.427
   23POPC   PO4 5796   0.638  41.891   9.508
   23POPC   GL1 5797   0.521  41.616   9.182
   23POPC   GL2 5798   0.839  41.500   9.132
   23POPC   C1A 5799   0.275  41.637   8.790
   23POPC   D2A 5800   0.197  41.360   8.465
   23POPC   C3A 5801   0.281  41.374   8.013
   23POPC   C4A 5802   0.290  41.510   7.550
   23POPC   C1B 5803   0.660  41.276   8.778
   23POPC   C2B 5804   0.727  41.371   8.369
   23POPC   C3B 5805   0.760  41.196   7.994
   23POPC   C4B 5806   0.735  41.511   7.741
   24POPC   NC3 5807  32.260  18.699   9.454
   24POPC   PO4 5808  32.079  19.375   9.447
   24POPC   GL1 5809  32.069  19.091   9.115
   24POPC   GL2 5810  31.823  18.825   9.167
   24POPC   C1A 5811  32.296  19.127   8.717
   24POPC   D2A 5812  32.531  19.163   8.325
   24POPC   C3A 5813  32.321  19.246   7.936
   24POPC   C4A 5814  32.240  19.004   7.566
   24POPC   C1B 5815  32.074  18.648   8.820
   24POPC   C2B 5816  32.327  18.673   8.465
   24POPC   C3B 5817  32.328  18.754   8.048
   24POPC   C4B 5818  31.913  18.745   7.860
   25POPC   NC3 5819  18.807  42.192   9.547
   25POPC   PO4 5820  19.325  41.926   9.188
   25POPC   GL1 5821  19.133  42.296   9.071
   25POPC   GL2 5822  18.767  42.366   9.092
   25POPC   C1A 5823  19.336  42.373   8.684
   25POPC   D2A 5824  19.415  42.137   8.312
   25POPC   C3A 5825  19.476  42.478   8.060
   25POPC   C4A 5826  19.462  42.549   7.667
   25POPC   C1B 5827  18.826  42.420   8.689
   25POPC   C2B 5828  19.007  42.448   8.281
   25POPC   C3B 5829  18.948  42.290   7.871
   25POPC   C4B 5830  18.707  42.537   7.573
   26POPC   NC3 5831   2.351  13.805   9.618
   26POPC   PO4 5832   2.002  13.245   9.818
   26POPC   GL1 5833   1.904  13.562   9.384
   26POPC   GL2 5834   2.124  13.819   9.185
   26POPC   C1A 5835   1.786  13.593   8.894
   26POPC   D2A 5836   1.653  13.545   8.444
   26POPC   C3A 5837   1.922  13.354   8.135
   26POPC   C4A 5838   1.976  13.395   7.698
   26POPC   C1B 5839   2.115  14.055   8.819
   26POPC   C2B 5840   1.927  14.009   8.436
   26POPC   C3B 5841   2.075  14.129   8.038
   26POPC   C4B 5842   1.847  13.886   7.732
   27POPC   NC3 5843   9.163  37.769   9.352
   27POPC   PO4 5844   9.832  37.580   9.494
   27POPC   GL1 5845   9.717  37.626   9.116
   27POPC   GL2 5846   9.633  37.968   9.158
   27POPC   C1A 5847   9.945  37.612   8.724
   27POPC   D2A 5848   9.897  37.850   8.372
   27POPC   C3A 5849   9.777  37.616   7.967
   27POPC   C4A 5850   9.671  37.729   7.530
   27POPC   C1B 5851   9.485  37.844   8.722
   27POPC   C2B 5852   9.409  37.826   8.282
   27POPC   C3B 5853   9.314  37.882   7.876
   27POPC   C4B 5854   9.134  37.942   7.473
   28POPC   NC3 5855  11.290  18.823   9.509
   28POPC   PO4 5856  11.494  19.420   9.484
   28POPC   GL1 5857  11.366  19.174   9.153
   28POPC   GL2 5858  11.462  18.844   9.023
   28POPC   C1A 5859  11.397  19.275   8.754
   28POPC   D2A 5860  11.361  18.933   8.478
   28POPC   C3A 5861  11.335  19.067   8.081
   28POPC   C4A 5862  11.200  18.954   7.658
   28POPC   C1B 5863  11.632  18.538   8.674
   28POPC   C2B 5864  11.795  18.669   8.269
   28POPC   C3B 5865  11.546  18.669   7.878
   28POPC   C4B 5866  11.508  18.625   7.419
   29POPC   NC3 5867  10.873  43.840   9.560
   29POPC   PO4 5868  11.492  43.610   9.685
   29POPC   GL1 5869  11.379  43.886   9.341
   29POPC   GL2 5870  11.558  43.656   9.119
   29POPC   C1A 5871  11.214  43.957   8.920
   29POPC   D2A 5872  11.377  43.845   8.541
   29POPC   C3A 5873  11.110  43.884   8.222
   29POPC   C4A 5874  11.053  43.852   7.791
   29POPC   C1B 5875  11.596  43.414   8.753
   29POPC   C2B 5876  11.734  43.534   8.350
   29POPC   C3B 5877  11.593  43.828   8.028
   29POPC   C4B 5878  11.740  43.829   7.621
   30POPC   NC3 5879  26.539  40.682   9.560
   30POPC   PO4 5880  27.112  40.392   9.716
   30POPC   GL1 5881  26.959  40.611   9.276
   30POPC   GL2 5882  26.653  40.620   9.065
   30POPC   C1A 5883  27.000  40.960   8.893
   30POPC   D2A 5884  27.177  41.068   8.467
   30POPC   C3A 5885  26.988  41.202   8.068
   30POPC   C4A 5886  27.053  40.997   7.706
   30POPC   C1B 5887  26.753  40.517   8.634
   30POPC   C2B 5888  26.811  40.786   8.291
   30POPC   C3B 5889  26.590  40.873   7.921
   30POPC   C4B 5890  26.348  40.507   7.758
   31POPC   NC3 5891  32.489  16.282   9.529
   31POPC   PO4 5892  31.974  16.796   9.576
   31POPC   GL1 5893  32.121  16.732   9.170
   31POPC   GL2 5894  32.466  16.689   9.168
   31POPC   C1A 5895  32.194  16.900   8.750
   31POPC   D2A 5896  32.272  16.987   8.330
   31POPC   C3A 5897  32.181  16.661   8.001
   31POPC   C4A 5898  31.824  16.665   7.755
   31POPC   C1B 5899  32.644  16.575   8.728
   31POPC   C2B 5900  32.637  16.617   8.243
   31POPC   C3B 5901  32.593  16.453   7.797
   31POPC   C4B 5902  32.606  16.643   7.381
   32POPC   NC3 5903  34.207   1.075   9.766
   32POPC   PO4 5904  34.720   1.231   9.431
   32POPC   GL1 5905  34.717   1.234   9.032
   32POPC   GL2 5906  34.392   1.427   9.052
   32POPC   C1A 5907  34.905   1.118   8.638
   32POPC   D2A 5908  34.941   1.360   8.249
   32POPC   C3A 5909  35.037   1.265   7.795
   32POPC   C4A 5910  34.991   1.033   7.380
   32POPC   C1B 5911  34.471   1.396   8.618
   32POPC   C2B 5912  34.420   1.390   8.207
   32POPC   C3B 5913  34.525   1.306   7.827
   32POPC   C4B 5914  34.278   1.480   7.541
   33POPC   NC3 5915   2.257  33.117   9.633
   33POPC   PO4 5916   1.615  32.908   9.468
   33POPC   GL1 5917   1.710  33.125   9.120
   33POPC   GL2 5918   2.071  33.146   9.155
   33POPC   C1A 5919   1.871  32.978   8.731
   33POPC   D2A 5920   2.016  32.840   8.361
   33POPC   C3A 5921   1.823  33.021   8.008
   33POPC   C4A 5922   1.903  33.070   7.558
   33POPC   C1B 5923   2.260  33.310   8.762
   33POPC   C2B 5924   2.472  33.088   8.456
   33POPC   C3B 5925   2.342  33.110   8.053
   33POPC   C4B 5926   2.344  33.289   7.686
   34POPC   NC3 5927  14.562  39.127   9.656
   34POPC   PO4 5928  14.706  39.708   9.403
   34POPC   GL1 5929  14.351  39.579   9.163
   34POPC   GL2 5930  14.265  39.213   9.116
   34POPC   C1A 5931  14.342  39.565   8.724
   34POPC   D2A 5932  14.167  39.339   8.380
   34POPC   C3A 5933  14.387  39.391   8.000
   34POPC   C4A 5934  14.427  39.322   7.543
   34POPC   C1B 5935  14.555  39.109   8.732
   34POPC   C2B 5936  14.633  38.971   8.288
   34POPC   C3B 5937  14.519  38.919   7.852
   34POPC   C4B 5938  14.740  38.939   7.412
   35POPC   NC3 5939  14.463  32.708   9.459
   35POPC   PO4 5940  14.053  33.235   9.371
   35POPC   GL1 5941  14.415  33.321   9.109
   35POPC   GL2 5942  14.719  33.116   9.163
   35POPC   C1A 5943  14.503  33.222   8.673
   35POPC   D2A 5944  14.258  33.046   8.331
   35POPC   C3A 5945  14.398  33.140   7.916
   35POPC   C4A 5946  14.359  32.882   7.518
   35POPC   C1B 5947  14.721  32.749   8.851
   35POPC   C2B 5948  14.569  32.533   8.469
   35POPC   C3B 5949  14.555  32.674   8.054
   35POPC   C4B 5950  14.800  32.839   7.738
   36POPC   NC3 5951  27.035  10.976   9.415
   36POPC   PO4 5952  27.184  10.268   9.515
   36POPC   GL1 5953  26.897  10.504   9.170
   36POPC   GL2 5954  26.670  10.234   9.012
   36POPC   C1A 5955  26.794  10.630   8.711
   36POPC   D2A 5956  26.850  10.375   8.335
   36POPC   C3A 5957  26.831  10.561   7.922
   36POPC   C4A 5958  26.639  10.364   7.530
   36POPC   C1B 5959  27.062  10.194   8.785
   36POPC   C2B 5960  27.344  10.335   8.507
   36POPC   C3B 5961  27.312  10.399   8.086
   36POPC   C4B 5962  27.168  10.235   7.696
   37POPC   NC3 5963  29.987  10.188  10.020
   37POPC   PO4 5964  29.711   9.827   9.520
   37POPC   GL1 5965  29.776   9.735   9.098
   37POPC   GL2 5966  29.490   9.544   9.094
   37POPC   C1A 5967  29.839   9.821   8.638
   37POPC   D2A 5968  29.645  10.027   8.267
   37POPC   C3A 5969  29.862   9.927   7.860
   37POPC   C4A 5970  30.217   9.653   7.722
   37POPC   C1B 5971  29.642   9.370   8.740
   37POPC   C2B 5972  29.754   9.229   8.352
   37POPC   C3B 5973  29.846   9.418   7.996
   37POPC   C4B 5974  29.701   9.526   7.597
   38POPC   NC3 5975  24.913  19.261   9.372
   38POPC   PO4 5976  24.381  18.707   9.501
   38POPC   GL1 5977  24.273  18.953   9.129
   38POPC   GL2 5978  24.622  19.015   9.061
   38POPC   C1A 5979  24.367  19.004   8.656
   38POPC   D2A 5980  24.574  18.998   8.285
   38POPC   C3A 5981  24.362  19.124   7.928
   38POPC   C4A 5982  24.186  18.980   7.535
   38POPC   C1B 5983  24.870  19.186   8.691
   38POPC   C2B 5984  25.075  19.045   8.269
   38POPC   C3B 5985  24.872  19.007   7.849
   38POPC   C4B 5986  24.631  19.215   7.495
   39POPC   NC3 5987  28.942  12.399   9.411
   39POPC   PO4 5988  29.049  11.716   9.529
   39POPC   GL1 5989  29.221  12.019   9.213
   39POPC   GL2 5990  28.968  11.966   8.981
   39POPC   C1A 5991  29.402  12.154   8.797
   39POPC   D2A 5992  29.259  12.002   8.398
   39POPC   C3A 5993  29.484  12.068   8.046
   39POPC   C4A 5994  29.375  12.020   7.628
   39POPC   C1B 5995  28.904  12.294   8.656
   39POPC   C2B 5996  29.060  12.435   8.229
   39POPC   C3B 5997  29.224  12.444   7.827
   39POPC   C4B 5998  29.132  12.414   7.375
   40POPC   NC3 5999   3.098  28.062   9.358
   40POPC   PO4 6000   2.825  28.463   9.835
   40POPC   GL1 6001   2.714  28.420   9.366
   40POPC   GL2 6002   3.003  28.561   9.191
   40POPC   C1A 6003   2.606  28.318   8.914
   40POPC   D2A 6004   2.685  28.110   8.492
   40POPC   C3A 6005   2.538  28.352   8.129
   40POPC   C4A 6006   2.615  28.512   7.715
   40POPC   C1B 6007   3.124  28.381   8.778
   40POPC   C2B 6008   3.035  28.485   8.347
   40POPC   C3B 6009   3.018  28.292   7.937
   40POPC   C4B 6010   3.013  28.314   7.443
   41POPC   NC3 6011  17.428  15.795   9.559
   41POPC   PO4 6012  17.906  16.223   9.444
   41POPC   GL1 6013  17.777  15.837   9.157
   41POPC   GL2 6014  17.393  15.782   9.053
   41POPC   C1A 6015  17.745  15.738   8.693
   41POPC   D2A 6016  17.511  15.812   8.319
   41POPC   C3A 6017  17.652  16.028   7.954
   41POPC   C4A 6018  17.388  16.360   7.809
   41POPC   C1B 6019  17.219  15.523   8.695
   41POPC   C2B 6020  17.111  15.533   8.237
   41POPC   C3B 6021  17.325  15.646   7.850
   41POPC   C4B 6022  17.238  15.500   7.444
   42POPC   NC3 6023  18.237  31.375   9.532
   42POPC   PO4 6024  18.044  31.940   9.350
   42POPC   GL1 6025  18.208  31.688   9.075
   42POPC   GL2 6026  18.513  31.647   9.144
   42POPC   C1A 6027  18.021  31.803   8.687
   42POPC   D2A 6028  18.162  31.689   8.323
   42POPC   C3A 6029  18.043  31.852   7.941
   42POPC   C4A 6030  18.205  31.590   7.629
   42POPC   C1B 6031  18.451  31.437   8.698
   42POPC   C2B 6032  18.559  31.312   8.234
   42POPC   C3B 6033  18.624  31.270   7.737
   42POPC   C4B 6034  18.555  31.453   7.286
   43POPC   NC3 6035  38.535  39.040   9.679
   43POPC   PO4 6036  38.248  39.642   9.763
   43POPC   GL1 6037  38.524  39.399   9.351
   43POPC   GL2 6038  38.350  39.075   9.202
   43POPC   C1A 6039  38.629  39.381   8.881
   43POPC   D2A 6040  38.500  39.584   8.483
   43POPC   C3A 6041  38.607  39.412   8.076
   43POPC   C4A 6042  38.335  39.382   7.751
   43POPC   C1B 6043  38.169  39.036   8.772
   43POPC   C2B 6044  38.415  39.041   8.417
   43POPC   C3B 6045  38.334  38.955   7.996
   43POPC   C4B 6046  38.290  38.963   7.496
   44POPC   NC3 6047  36.612  38.954   9.366
   44POPC   PO4 6048  36.139  39.397   9.510
   44POPC   GL1 6049  36.188  39.165   9.153
   44POPC   GL2 6050  36.136  38.805   9.247
   44POPC   C1A 6051  36.341  39.246   8.763
   44POPC   D2A 6052  36.396  39.392   8.343
   44POPC   C3A 6053  36.007  39.339   8.079
   44POPC   C4A 6054  36.166  39.254   7.687
   44POPC   C1B 6055  36.040  38.784   8.813
   44POPC   C2B 6056  36.079  38.973   8.414
   44POPC   C3B 6057  36.286  38.878   8.039
   44POPC   C4B 6058  36.108  38.733   7.657
   45POPC   NC3 6059  21.973  41.225   9.435
   45POPC   PO4 6060  22.328  41.815   9.501
   45POPC   GL1 6061  22.289  41.552   9.179
   45POPC   GL2 6062  21.943  41.650   9.123
   45POPC   C1A 6063  22.335  41.713   8.794
   45POPC   D2A 6064  22.450  41.554   8.433
   45POPC   C3A 6065  22.287  41.668   8.057
   45POPC   C4A 6066  22.150  41.466   7.671
   45POPC   C1B 6067  21.934  41.376   8.759
   45POPC   C2B 6068  22.057  41.255   8.339
   45POPC   C3B 6069  21.879  41.164   7.970
   45POPC   C4B 6070  21.726  41.135   7.523
   46POPC   NC3 6071   5.125  34.737   9.521
   46POPC   PO4 6072   4.713  34.374   9.730
   46POPC   GL1 6073   4.810  34.436   9.245
   46POPC   GL2 6074   5.176  34.527   9.064
   46POPC   C1A 6075   4.775  34.374   8.795
   46POPC   D2A 6076   4.952  34.604   8.438
   46POPC   C3A 6077   4.883  34.411   8.017
   46POPC   C4A 6078   4.924  34.399   7.575
   46POPC   C1B 6079   5.352  34.798   8.725
   46POPC   C2B 6080   5.288  34.941   8.282
   46POPC   C3B 6081   5.280  34.718   7.906
   46POPC   C4B 6082   5.569  34.495   7.698
   47POPC   NC3 6083  14.144  40.905   9.443
   47POPC   PO4 6084  14.802  41.166   9.291
   47POPC   GL1 6085  14.536  40.898   9.111
   47POPC   GL2 6086  14.581  40.589   9.323
   47POPC   C1A 6087  14.197  40.784   8.800
   47POPC   D2A 6088  13.989  40.771   8.396
   47POPC   C3A 6089  14.333  40.769   8.094
   47POPC   C4A 6090  14.443  40.994   7.732
   47POPC   C1B 6091  14.662  40.476   8.891
   47POPC   C2B 6092  14.542  40.458   8.478
   47POPC   C3B 6093  14.599  40.328   8.083
   47POPC   C4B 6094  14.559  40.495   7.704
   48POPC   NC3 6095   9.342  28.135   9.719
   48POPC   PO4 6096   9.868  28.561   9.542
   48POPC   GL1 6097   9.757  28.374   9.167
   48POPC   GL2 6098   9.422  28.287   9.194
   48POPC   C1A 6099   9.625  28.601   8.800
   48POPC   D2A 6100   9.814  28.723   8.413
   48POPC   C3A 6101   9.635  28.744   8.017
   48POPC   C4A 6102   9.811  28.547   7.678
   48POPC   C1B 6103   9.538  28.092   8.804
   48POPC   C2B 6104   9.831  28.196   8.512
   48POPC   C3B 6105   9.771  28.230   8.090
   48POPC   C4B 6106   9.799  28.039   7.706
   49POPC   NC3 6107   6.481  38.103   9.854
   49POPC   PO4 6108   6.405  38.766   9.670
   49POPC   GL1 6109   6.654  38.624   9.285
   49POPC   GL2 6110   6.643  38.296   9.198
   49POPC   C1A 6111   6.465  38.608   8.833
   49POPC   D2A 6112   6.236  38.521   8.450
   49POPC   C3A 6113   6.411  38.678   8.061
   49POPC   C4A 6114   6.643  38.860   7.710
   49POPC   C1B 6115   6.841  38.225   8.784
   49POPC   C2B 6116   6.911  38.069   8.371
   49POPC   C3B 6117   6.756  38.002   7.953
   49POPC   C4B 6118   6.946  38.177   7.593
   50POPC   NC3 6119   1.629  26.106   9.632
   50POPC   PO4 6120   2.242  25.713   9.524
   50POPC   GL1 6121   2.134  25.937   9.168
   50POPC   GL2 6122   1.794  26.080   9.161
   50POPC   C1A 6123   2.109  25.943   8.733
   50POPC   D2A 6124   2.269  25.998   8.292
   50POPC   C3A 6125   1.951  25.935   8.004
   50POPC   C4A 6126   1.937  25.734   7.571
   50POPC   C1B 6127   1.609  26.338   8.842
   50POPC   C2B 6128   1.829  26.241   8.441
   50POPC   C3B 6129   1.879  26.447   8.093
   50POPC   C4B 6130   1.829  26.324   7.713
   51POPC   NC3 6131  26.385   7.480   9.509
   51POPC   PO4 6132  25.741   7.597   9.559
   51POPC   GL1 6133  25.901   7.697   9.178
   51POPC   GL2 6134  26.227   7.818   9.165
   51POPC   C1A 6135  25.815   7.437   8.841
   51POPC   D2A 6136  26.037   7.259   8.544
   51POPC   C3A 6137  26.040   7.562   8.242
   51POPC   C4A 6138  25.917   7.541   7.842
   51POPC   C1B 6139  26.356   7.647   8.766
   51POPC   C2B 6140  26.497   7.423   8.413
   51POPC   C3B 6141  26.277   7.137   8.100
   51POPC   C4B 6142  26.390   7.083   7.673
   52POPC   NC3 6143  20.205  42.891   9.467
   52POPC   PO4 6144  19.759  43.403   9.418
   52POPC   GL1 6145  20.001  43.311   9.061
   52POPC   GL2 6146  20.371  43.156   9.070
   52POPC   C1A 6147  19.741  43.126   8.721
   52POPC   D2A 6148  19.845  42.858   8.377
   52POPC   C3A 6149  19.631  42.974   7.979
   52POPC   C4A 6150  19.767  43.395   7.836
   52POPC   C1B 6151  20.248  43.101   8.655
   52POPC   C2B 6152  20.007  43.359   8.351
   52POPC   C3B 6153  20.119  43.125   8.052
   52POPC   C4B 6154  20.421  42.970   7.885
   53POPC   NC3 6155  35.712  44.048   9.433
   53POPC   PO4 6156  35.122  43.658   9.540
   53POPC   GL1 6157  35.290  43.555   9.139
   53POPC   GL2 6158  35.353  43.915   9.079
   53POPC   C1A 6159  35.118  43.612   8.712
   53POPC   D2A 6160  34.953  43.819   8.384
   53POPC   C3A 6161  35.134  43.883   7.978
   53POPC   C4A 6162  35.299  44.278   7.804
   53POPC   C1B 6163  35.598  43.729   8.748
   53POPC   C2B 6164  35.565  43.852   8.311
   53POPC   C3B 6165  35.713  44.016   7.913
   53POPC   C4B 6166  35.470  43.845   7.594
   54POPC   NC3 6167  37.822  22.474   9.550
   54POPC   PO4 6168  37.360  23.048   9.605
   54POPC   GL1 6169  37.633  22.980   9.264
   54POPC   GL2 6170  37.927  22.810   9.194
   54POPC   C1A 6171  37.616  22.906   8.823
   54POPC   D2A 6172  37.330  22.835   8.545
   54POPC   C3A 6173  37.465  22.768   8.138
   54POPC   C4A 6174  37.535  22.642   7.730
   54POPC   C1B 6175  37.993  22.540   8.811
   54POPC   C2B 6176  37.879  22.432   8.369
   54POPC   C3B 6177  38.004  22.672   7.987
   54POPC   C4B 6178  37.834  23.068   7.827
   55POPC   NC3 6179  11.365   7.838   9.658
   55POPC   PO4 6180  11.185   8.445   9.534
   55POPC   GL1 6181  11.420   8.265   9.263
   55POPC   GL2 6182  11.200   7.998   9.176
   55POPC   C1A 6183  11.462   8.273   8.830
   55POPC   D2A 6184  11.286   8.104   8.442
   55POPC   C3A 6185  11.281   8.292   8.053
   55POPC   C4A 6186  11.612   8.267   7.765
   55POPC   C1B 6187  10.956   7.963   8.795
   55POPC   C2B 6188  10.802   8.035   8.354
   55POPC   C3B 6189  11.045   7.843   8.051
   55POPC   C4B 6190  11.209   7.895   7.682
   56POPC   NC3 6191  15.848  41.346   9.586
   56POPC   PO4 6192  15.974  40.718   9.774
   56POPC   GL1 6193  15.979  40.795   9.313
   56POPC   GL2 6194  16.332  40.779   9.144
   56POPC   C1A 6195  15.910  40.749   8.869
   56POPC   D2A 6196  15.940  40.882   8.447
   56POPC   C3A 6197  16.021  40.581   8.140
   56POPC   C4A 6198  15.940  40.745   7.755
   56POPC   C1B 6199  16.341  41.034   8.755
   56POPC   C2B 6200  16.541  41.008   8.371
   56POPC   C3B 6201  16.335  40.987   7.983
   56POPC   C4B 6202  16.209  41.139   7.569
   57POPC   NC3 6203  21.154  37.134   9.461
   57POPC   PO4 6204  21.647  36.799   9.505
   57POPC   GL1 6205  21.349  36.838   9.118
   57POPC   GL2 6206  21.144  36.612   8.999
   57POPC   C1A 6207  21.209  37.014   8.701
   57POPC   D2A 6208  21.474  37.227   8.392
   57POPC   C3A 6209  21.496  36.993   8.027
   57POPC   C4A 6210  21.353  36.958   7.632
   57POPC   C1B 6211  21.251  36.472   8.588
   57POPC   C2B 6212  21.290  36.519   8.138
   57POPC   C3B 6213  21.020  36.627   7.773
   57POPC   C4B 6214  21.073  36.567   7.313
   58POPC   NC3 6215  31.823  20.793   9.509
   58POPC   PO4 6216  31.179  20.601   9.353
   58POPC   GL1 6217  31.421  20.820   9.034
   58POPC   GL2 6218  31.809  20.791   8.991
   58POPC   C1A 6219  31.478  20.569   8.652
   58POPC   D2A 6220  31.346  20.348   8.331
   58POPC   C3A 6221  31.478  20.531   7.982
   58POPC   C4A 6222  31.577  20.197   7.718
   58POPC   C1B 6223  31.885  20.830   8.527
   58POPC   C2B 6224  31.667  21.083   8.177
   58POPC   C3B 6225  31.688  21.068   7.717
   58POPC   C4B 6226  31.489  20.744   7.505
   59POPC   NC3 6227  36.423   0.574   9.582
   59POPC   PO4 6228  35.826   0.230   9.736
   59POPC   GL1 6229  36.031   0.261   9.330
   59POPC   GL2 6230  36.003   0.616   9.230
   59POPC   C1A 6231  36.124   0.224   8.876
   59POPC   D2A 6232  36.217   0.409   8.449
   59POPC   C3A 6233  35.989   0.369   8.054
   59POPC   C4A 6234  36.190   0.492   7.669
   59POPC   C1B 6235  35.964   0.697   8.768
   59POPC   C2B 6236  35.757   0.749   8.337
   59POPC   C3B 6237  35.875   0.859   7.882
   59POPC   C4B 6238  35.838   0.815   7.419
   60POPC   NC3 6239  12.704  39.559   9.812
   60POPC   PO4 6240  13.132  39.174   9.567
   60POPC   GL1 6241  12.883  39.196   9.162
   60POPC   GL2 6242  12.927  39.506   8.955
   60POPC   C1A 6243  13.014  39.092   8.701
   60POPC   D2A 6244  13.014  39.368   8.310
   60POPC   C3A 6245  12.964  39.070   7.988
   60POPC   C4A 6246  12.764  39.050   7.594
   60POPC   C1B 6247  12.623  39.668   8.658
   60POPC   C2B 6248  12.580  39.668   8.198
   60POPC   C3B 6249  12.795  39.534   7.799
   60POPC   C4B 6250  12.753  39.705   7.330
   61POPC   NC3 6251  10.943  28.930   9.429
   61POPC   PO4 6252  10.326  29.211   9.686
   61POPC   GL1 6253  10.495  29.145   9.263
   61POPC   GL2 6254  10.509  29.481   9.152
   61POPC   C1A 6255  10.600  28.979   8.829
   61POPC   D2A 6256  10.777  29.103   8.406
   61POPC   C3A 6257  10.617  28.880   8.047
   61POPC   C4A 6258  10.491  29.003   7.624
   61POPC   C1B 6259  10.716  29.489   8.744
   61POPC   C2B 6260  10.702  29.658   8.318
   61POPC   C3B 6261  10.679  29.389   7.938
   61POPC   C4B 6262  10.913  29.256   7.566
   62POPC   NC3 6263  31.068  16.503   9.451
   62POPC   PO4 6264  30.552  16.980   9.397
   62POPC   GL1 6265  30.737  16.729   9.123
   62POPC   GL2 6266  31.086  16.840   9.071
   62POPC   C1A 6267  30.519  16.653   8.762
   62POPC   D2A 6268  30.568  16.905   8.394
   62POPC   C3A 6269  30.507  16.699   7.997
   62POPC   C4A 6270  30.377  16.769   7.574
   62POPC   C1B 6271  30.996  16.709   8.657
   62POPC   C2B 6272  30.944  16.601   8.243
   62POPC   C3B 6273  30.958  16.978   8.005
   62POPC   C4B 6274  30.840  16.959   7.593
   63POPC   NC3 6275  31.396  27.204   9.589
   63POPC   PO4 6276  31.440  26.522   9.586
   63POPC   GL1 6277  31.621  26.821   9.316
   63POPC   GL2 6278  31.305  26.871   9.193
   63POPC   C1A 6279  31.686  27.101   8.929
   63POPC   D2A 6280  31.754  27.004   8.481
   63POPC   C3A 6281  31.503  27.133   8.166
   63POPC   C4A 6282  31.400  26.996   7.760
   63POPC   C1B 6283  31.486  26.642   8.835
   63POPC   C2B 6284  31.430  26.538   8.447
   63POPC   C3B 6285  31.581  26.627   8.052
   63POPC   C4B 6286  31.556  26.400   7.689
   64POPC   NC3 6287  31.558  34.532   9.633
   64POPC   PO4 6288  32.080  34.913   9.467
   64POPC   GL1 6289  32.023  34.751   9.059
   64POPC   GL2 6290  32.091  34.411   8.861
   64POPC   C1A 6291  32.221  34.832   8.645
   64POPC   D2A 6292  32.303  34.474   8.362
   64POPC   C3A 6293  32.073  34.517   7.976
   64POPC   C4A 6294  32.133  34.638   7.558
   64POPC   C1B 6295  32.539  34.201   8.754
   64POPC   C2B 6296  32.590  33.985   8.344
   64POPC   C3B 6297  32.358  34.069   7.954
   64POPC   C4B 6298  32.423  34.216   7.519
   65POPC   NC3 6299  40.901   6.823   9.623
   65POPC   PO4 6300  40.330   6.349   9.542
   65POPC   GL1 6301  40.572   6.589   9.248
   65POPC   GL2 6302  40.782   6.897   9.127
   65POPC   C1A 6303  40.700   6.471   8.855
   65POPC   D2A 6304  40.880   6.567   8.469
   65POPC   C3A 6305  40.705   6.560   8.061
   65POPC   C4A 6306  40.988   6.790   7.769
   65POPC   C1B 6307  40.544   6.994   8.737
   65POPC   C2B 6308  40.539   7.035   8.257
   65POPC   C3B 6309  40.498   6.962   7.791
   65POPC   C4B 6310  40.459   6.993   7.326
   66POPC   NC3 6311  36.538   2.253   9.647
   66POPC   PO4 6312  37.120   1.851   9.624
   66POPC   GL1 6313  37.027   2.117   9.260
   66POPC   GL2 6314  36.658   2.133   9.167
   66POPC   C1A 6315  37.011   1.963   8.830
   66POPC   D2A 6316  36.903   1.736   8.454
   66POPC   C3A 6317  36.891   1.969   8.068
   66POPC   C4A 6318  37.094   1.919   7.702
   66POPC   C1B 6319  36.507   1.901   8.800
   66POPC   C2B 6320  36.490   2.065   8.383
   66POPC   C3B 6321  36.402   2.056   7.927
   66POPC   C4B 6322  36.607   1.985   7.529
   67POPC   NC3 6323  31.888  22.399   9.468
   67POPC   PO4 6324  32.266  21.842   9.507
   67POPC   GL1 6325  32.221  22.146   9.180
   67POPC   GL2 6326  31.910  21.997   9.134
   67POPC   C1A 6327  32.439  22.273   8.780
   67POPC   D2A 6328  32.388  22.412   8.327
   67POPC   C3A 6329  32.212  22.333   7.917
   67POPC   C4A 6330  32.381  22.045   7.589
   67POPC   C1B 6331  31.944  22.172   8.755
   67POPC   C2B 6332  31.870  22.270   8.348
   67POPC   C3B 6333  31.893  21.968   8.044
   67POPC   C4B 6334  31.870  22.029   7.634
   68POPC   NC3 6335   7.848  20.304   9.560
   68POPC   PO4 6336   8.516  20.412   9.635
   68POPC   GL1 6337   8.390  20.461   9.191
   68POPC   GL2 6338   8.064  20.573   9.164
   68POPC   C1A 6339   8.322  20.669   8.766
   68POPC   D2A 6340   8.085  20.680   8.418
   68POPC   C3A 6341   8.328  20.592   8.085
   68POPC   C4A 6342   8.337  20.206   7.857
   68POPC   C1B 6343   7.822  20.440   8.811
   68POPC   C2B 6344   7.597  20.559   8.457
   68POPC   C3B 6345   7.755  20.511   8.055
   68POPC   C4B 6346   7.992  20.600   7.705
   69POPC   NC3 6347   2.655  41.660   9.558
   69POPC   PO4 6348   3.068  41.169   9.426
   69POPC   GL1 6349   3.001  41.596   9.155
   69POPC   GL2 6350   2.657  41.755   9.077
   69POPC   C1A 6351   3.007  41.831   8.730
   69POPC   D2A 6352   2.905  41.627   8.349
   69POPC   C3A 6353   2.916  41.752   7.918
   69POPC   C4A 6354   3.038  41.348   7.726
   69POPC   C1B 6355   2.569  41.490   8.791
   69POPC   C2B 6356   2.394  41.579   8.405
   69POPC   C3B 6357   2.524  41.408   8.029
   69POPC   C4B 6358   2.564  41.180   7.674
   70POPC   NC3 6359  40.908  38.768   9.402
   70POPC   PO4 6360  40.476  38.313   9.506
   70POPC   GL1 6361  40.754  38.328   9.160
   70POPC   GL2 6362  40.950  38.046   9.186
   70POPC   C1A 6363  40.690  38.543   8.761
   70POPC   D2A 6364  40.547  38.771   8.405
   70POPC   C3A 6365  40.705  38.616   8.028
   70POPC   C4A 6366  40.564  38.395   7.707
   70POPC   C1B 6367  40.982  38.131   8.731
   70POPC   C2B 6368  40.748  38.235   8.344
   70POPC   C3B 6369  40.955  38.152   7.925
   70POPC   C4B 6370  41.020  38.328   7.491
   71POPC   NC3 6371  42.252   0.838   9.786
   71POPC   PO4 6372  42.088   1.415   9.468
   71POPC   GL1 6373  42.239   1.298   9.088
   71POPC   GL2 6374  42.438   1.026   9.175
   71POPC   C1A 6375  42.489   1.240   8.716
   71POPC   D2A 6376  42.425   0.967   8.379
   71POPC   C3A 6377  42.452   1.109   7.993
   71POPC   C4A 6378  42.247   1.310   7.676
   71POPC   C1B 6379  42.144   0.879   8.802
   71POPC   C2B 6380  42.016   0.674   8.448
   71POPC   C3B 6381  42.101   0.725   8.053
   71POPC   C4B 6382  42.239   0.785   7.656
   72POPC   NC3 6383  32.762  28.634   9.809
   72POPC   PO4 6384  33.131  28.151   9.439
   72POPC   GL1 6385  32.991  28.424   9.110
   72POPC   GL2 6386  33.244  28.278   8.953
   72POPC   C1A 6387  32.960  28.599   8.666
   72POPC   D2A 6388  33.035  28.530   8.209
   72POPC   C3A 6389  32.721  28.439   7.916
   72POPC   C4A 6390  32.739  28.532   7.444
   72POPC   C1B 6391  33.444  28.422   8.647
   72POPC   C2B 6392  33.501  28.269   8.297
   72POPC   C3B 6393  33.435  28.293   7.916
   72POPC   C4B 6394  33.169  28.406   7.675
   73POPC   NC3 6395  17.958  33.987   9.967
   73POPC   PO4 6396  18.354  33.507   9.665
   73POPC   GL1 6397  18.312  33.764   9.320
   73POPC   GL2 6398  17.987  33.691   9.150
   73POPC   C1A 6399  18.418  33.809   8.900
   73POPC   D2A 6400  18.285  33.831   8.479
   73POPC   C3A 6401  18.524  33.743   8.108
   73POPC   C4A 6402  18.452  33.699   7.664
   73POPC   C1B 6403  17.920  34.004   8.795
   73POPC   C2B 6404  18.023  34.282   8.404
   73POPC   C3B 6405  18.141  34.265   7.937
   73POPC   C4B 6406  18.013  34.142   7.494
   74POPC   NC3 6407  31.725  36.049   9.439
   74POPC   PO4 6408  31.038  36.121   9.760
   74POPC   GL1 6409  31.241  36.292   9.301
   74POPC   GL2 6410  31.452  36.080   9.003
   74POPC   C1A 6411  31.200  36.503   8.862
   74POPC   D2A 6412  31.266  36.246   8.448
   74POPC   C3A 6413  31.410  36.426   8.037
   74POPC   C4A 6414  31.086  36.562   7.735
   74POPC   C1B 6415  31.799  35.783   8.815
   74POPC   C2B 6416  31.985  35.721   8.382
   74POPC   C3B 6417  31.846  35.849   7.976
   74POPC   C4B 6418  31.423  35.939   7.817
   75POPC   NC3 6419  11.675  19.819   9.358
   75POPC   PO4 6420  11.074  20.084   9.458
   75POPC   GL1 6421  11.178  19.990   9.071
   75POPC   GL2 6422  11.238  19.657   9.094
   75POPC   C1A 6423  11.281  19.988   8.651
   75POPC   D2A 6424  11.289  20.150   8.259
   75POPC   C3A 6425  11.371  19.869   7.976
   75POPC   C4A 6426  11.442  19.929   7.579
   75POPC   C1B 6427  10.997  19.553   8.742
   75POPC   C2B 6428  11.200  19.554   8.358
   75POPC   C3B 6429  11.041  19.448   7.969
   75POPC   C4B 6430  11.385  19.428   7.691
   76POPC   NC3 6431  18.336  14.379   9.465
   76POPC   PO4 6432  17.708  14.103   9.530
   76POPC   GL1 6433  18.030  14.054   9.170
   76POPC   GL2 6434  18.408  14.084   9.086
   76POPC   C1A 6435  18.101  14.338   8.784
   76POPC   D2A 6436  18.036  14.561   8.397
   76POPC   C3A 6437  18.260  14.423   8.030
   76POPC   C4A 6438  18.044  14.309   7.660
   76POPC   C1B 6439  18.537  14.045   8.678
   76POPC   C2B 6440  18.656  14.161   8.265
   76POPC   C3B 6441  18.577  14.025   7.860
   76POPC   C4B 6442  18.548  14.278   7.569
   77POPC   NC3 6443  20.340  42.065   9.520
   77POPC   PO4 6444  20.492  42.655   9.203
   77POPC   GL1 6445  20.783  42.430   8.996
   77POPC   GL2 6446  20.697  42.124   9.143
   77POPC   C1A 6447  20.638  42.404   8.599
   77POPC   D2A 6448  20.408  42.637   8.295
   77POPC   C3A 6449  20.638  42.497   7.929
   77POPC   C4A 6450  20.731  42.246   7.546
   77POPC   C1B 6451  20.335  42.079   8.824
   77POPC   C2B 6452  20.328  42.092   8.334
   77POPC   C3B 6453  20.244  42.176   7.864
   77POPC   C4B 6454  20.238  42.137   7.374
   78POPC   NC3 6455   7.212  27.677   9.438
   78POPC   PO4 6456   7.805  27.445   9.380
   78POPC   GL1 6457   7.534  27.424   9.039
   78POPC   GL2 6458   7.149  27.380   9.014
   78POPC   C1A 6459   7.613  27.457   8.600
   78POPC   D2A 6460   7.296  27.359   8.309
   78POPC   C3A 6461   7.436  27.481   7.899
   78POPC   C4A 6462   7.218  27.324   7.527
   78POPC   C1B 6463   7.228  27.759   8.747
   78POPC   C2B 6464   7.362  27.869   8.300
   78POPC   C3B 6465   7.123  27.866   7.853
   78POPC   C4B 6466   7.086  27.782   7.311
   79POPC   NC3 6467   0.143  40.606   9.501
   79POPC   PO4 6468   0.184  41.226   9.281
   79POPC   GL1 6469   0.438  40.878   9.063
   79POPC   GL2 6470   0.375  40.536   9.068
   79POPC   C1A 6471   0.589  40.755   8.672
   79POPC   D2A 6472   0.440  40.942   8.328
   79POPC   C3A 6473   0.370  40.813   7.944
   79POPC   C4A 6474   0.505  41.036   7.571
   79POPC   C1B 6475   0.076  40.412   8.744
   79POPC   C2B 6476   0.240  40.435   8.331
   79POPC   C3B 6477   0.138  40.316   7.913
   79POPC   C4B 6478   0.170  40.588   7.541
   80POPC   NC3 6479   4.605  19.878   9.494
   80POPC   PO4 6480   3.920  19.774   9.474
   80POPC   GL1 6481   4.230  19.749   9.151
   80POPC   GL2 6482   3.956  19.588   8.990
   80POPC   C1A 6483   4.366  19.611   8.696
   80POPC   D2A 6484   4.155  19.748   8.309
   80POPC   C3A 6485   4.160  19.607   7.873
   80POPC   C4A 6486   4.168  19.868   7.501
   80POPC   C1B 6487   4.014  20.006   8.773
   80POPC   C2B 6488   3.847  20.194   8.413
   80POPC   C3B 6489   3.934  20.082   7.987
   80POPC   C4B 6490   3.835  20.278   7.617
   81POPC   NC3 6491  36.505  18.553   9.591
   81POPC   PO4 6492  35.848  18.483   9.873
   81POPC   GL1 6493  36.004  18.424   9.333
   81POPC   GL2 6494  36.331  18.479   9.125
   81POPC   C1A 6495  36.073  18.120   8.892
   81POPC   D2A 6496  36.368  18.072   8.529
   81POPC   C3A 6497  36.243  18.333   8.200
   81POPC   C4A 6498  35.985  18.168   7.860
   81POPC   C1B 6499  36.281  18.572   8.691
   81POPC   C2B 6500  36.557  18.783   8.374
   81POPC   C3B 6501  36.666  18.658   7.980
   81POPC   C4B 6502  36.413  18.423   7.736
   82POPC   NC3 6503  41.813  22.367   9.448
   82POPC   PO4 6504  41.442  21.953   9.330
   82POPC   GL1 6505  41.728  22.092   9.005
   82POPC   GL2 6506  42.086  22.137   9.074
   82POPC   C1A 6507  41.688  22.309   8.614
   82POPC   D2A 6508  41.772  22.371   8.173
   82POPC   C3A 6509  41.580  22.039   7.893
   82POPC   C4A 6510  41.238  21.858   7.603
   82POPC   C1B 6511  42.168  22.153   8.617
   82POPC   C2B 6512  42.191  22.081   8.151
   82POPC   C3B 6513  42.049  22.241   7.765
   82POPC   C4B 6514  41.815  22.112   7.416
   83POPC   NC3 6515  22.367  34.027   9.598
   83POPC   PO4 6516  21.937  33.610   9.403
   83POPC   GL1 6517  22.078  33.948   9.162
   83POPC   GL2 6518  21.797  34.110   9.034
   83POPC   C1A 6519  22.367  33.987   8.827
   83POPC   D2A 6520  22.342  33.684   8.480
   83POPC   C3A 6521  22.120  33.785   8.093
   83POPC   C4A 6522  22.396  33.739   7.715
   83POPC   C1B 6523  21.896  33.940   8.622
   83POPC   C2B 6524  21.737  34.165   8.296
   83POPC   C3B 6525  21.778  34.198   7.902
   83POPC   C4B 6526  21.902  33.858   7.631
   84POPC   NC3 6527  15.137  33.442   9.548
   84POPC   PO4 6528  15.403  34.027   9.656
   84POPC   GL1 6529  15.203  33.961   9.212
   84POPC   GL2 6530  15.035  33.632   9.094
   84POPC   C1A 6531  15.027  34.041   8.780
   84POPC   D2A 6532  15.047  33.725   8.490
   84POPC   C3A 6533  15.188  33.909   8.130
   84POPC   C4A 6534  15.173  33.771   7.717
   84POPC   C1B 6535  15.420  33.553   8.857
   84POPC   C2B 6536  15.571  33.669   8.442
   84POPC   C3B 6537  15.541  33.550   8.006
   84POPC   C4B 6538  15.552  33.461   7.541
   85POPC   NC3 6539  27.449   0.104   9.858
   85POPC   PO4 6540  27.663  44.690   9.571
   85POPC   GL1 6541  27.628  44.592   9.124
   85POPC   GL2 6542  27.753  44.906   9.017
   85POPC   C1A 6543  27.634  44.407   8.702
   85POPC   D2A 6544  27.662  44.596   8.298
   85POPC   C3A 6545  27.597  44.311   7.941
   85POPC   C4A 6546  27.350  44.231   7.569
   85POPC   C1B 6547  27.416  44.880   8.718
   85POPC   C2B 6548  27.343   0.003   8.286
   85POPC   C3B 6549  27.485  44.837   7.868
   85POPC   C4B 6550  27.373  44.720   7.431
   86POPC   NC3 6551  34.991  36.231   9.373
   86POPC   PO4 6552  35.339  35.633   9.462
   86POPC   GL1 6553  35.197  35.854   9.081
   86POPC   GL2 6554  35.405  36.190   9.050
   86POPC   C1A 6555  35.150  36.011   8.646
   86POPC   D2A 6556  35.486  36.089   8.333
   86POPC   C3A 6557  35.248  36.035   8.014
   86POPC   C4A 6558  35.294  35.949   7.638
   86POPC   C1B 6559  35.409  36.462   8.657
   86POPC   C2B 6560  35.138  36.461   8.307
   86POPC   C3B 6561  35.316  36.513   7.897
   86POPC   C4B 6562  35.381  36.401   7.444
   87POPC   NC3 6563  30.135  23.687   9.513
   87POPC   PO4 6564  29.753  24.173   9.395
   87POPC   GL1 6565  29.848  23.908   9.093
   87POPC   GL2 6566  29.820  23.560   9.125
   87POPC   C1A 6567  29.831  23.863   8.682
   87POPC   D2A 6568  29.609  23.748   8.360
   87POPC   C3A 6569  29.683  23.984   7.992
   87POPC   C4A 6570  29.669  23.820   7.615
   87POPC   C1B 6571  30.160  23.486   8.824
   87POPC   C2B 6572  30.022  23.451   8.408
   87POPC   C3B 6573  29.919  23.532   7.999
   87POPC   C4B 6574  30.118  23.508   7.603
   88POPC   NC3 6575  44.783  23.173   9.708
   88POPC   PO4 6576  44.596  22.565   9.531
   88POPC   GL1 6577  44.648  22.939   9.193
   88POPC   GL2 6578  44.597  22.714   8.926
   88POPC   C1A 6579  44.944  23.021   8.759
   88POPC   D2A 6580   0.082  22.854   8.306
   88POPC   C3A 6581  44.897  23.075   7.918
   88POPC   C4A 6582  44.760  23.130   7.477
   88POPC   C1B 6583  44.883  22.491   8.641
   88POPC   C2B 6584  44.898  22.286   8.272
   88POPC   C3B 6585  44.779  22.559   7.959
   88POPC   C4B 6586  44.443  22.823   7.771
   89POPC   NC3 6587  44.699  10.979   9.560
   89POPC   PO4 6588   0.137  11.462   9.504
   89POPC   GL1 6589   0.036  11.249   9.123
   89POPC   GL2 6590  44.658  11.234   9.112
   89POPC   C1A 6591  44.935  11.480   8.742
   89POPC   D2A 6592  44.654  11.637   8.424
   89POPC   C3A 6593  44.874  11.535   8.044
   89POPC   C4A 6594  44.983  11.347   7.673
   89POPC   C1B 6595  44.494  11.225   8.694
   89POPC   C2B 6596  44.674  11.130   8.316
   89POPC   C3B 6597  44.591  11.117   7.911
   89POPC   C4B 6598  44.257  10.922   7.712
   90POPC   NC3 6599  22.859  12.869   9.799
   90POPC   PO4 6600  22.793  12.199   9.565
   90POPC   GL1 6601  22.766  12.517   9.191
   90POPC   GL2 6602  22.882  12.865   9.181
   90POPC   C1A 6603  22.828  12.631   8.756
   90POPC   D2A 6604  22.994  12.846   8.421
   90POPC   C3A 6605  22.809  12.789   8.045
   90POPC   C4A 6606  23.087  12.698   7.739
   90POPC   C1B 6607  22.670  13.107   8.782
   90POPC   C2B 6608  22.739  13.290   8.376
   90POPC   C3B 6609  22.645  13.287   7.947
   90POPC   C4B 6610  22.787  13.080   7.598
   91POPC   NC3 6611  21.590  21.911   9.881
   91POPC   PO4 6612  21.810  22.395   9.577
   91POPC   GL1 6613  21.691  22.387   9.121
   91POPC   GL2 6614  21.369  22.485   9.038
   91POPC   C1A 6615  21.754  22.375   8.683
   91POPC   D2A 6616  21.682  22.055   8.374
   91POPC   C3A 6617  21.504  22.150   7.958
   91POPC   C4A 6618  21.147  22.267   7.674
   91POPC   C1B 6619  21.273  22.173   8.690
   91POPC   C2B 6620  21.179  21.936   8.291
   91POPC   C3B 6621  21.059  21.803   7.861
   91POPC   C4B 6622  20.940  21.885   7.400
   92POPC   NC3 6623  34.799  15.082   9.485
   92POPC   PO4 6624  34.178  15.060   9.515
   92POPC   GL1 6625  34.420  15.161   9.104
   92POPC   GL2 6626  34.800  15.249   9.021
   92POPC   C1A 6627  34.513  15.093   8.646
   92POPC   D2A 6628  34.634  14.949   8.234
   92POPC   C3A 6629  34.305  15.000   7.923
   92POPC   C4A 6630  34.239  15.400   7.686
   92POPC   C1B 6631  34.897  15.537   8.694
   92POPC   C2B 6632  35.067  15.528   8.300
   92POPC   C3B 6633  34.814  15.443   7.962
   92POPC   C4B 6634  34.769  15.092   7.727
   93POPC   NC3 6635  25.849  26.397   9.474
   93POPC   PO4 6636  26.098  26.989   9.647
   93POPC   GL1 6637  26.076  26.805   9.214
   93POPC   GL2 6638  26.062  26.484   9.039
   93POPC   C1A 6639  25.960  26.893   8.781
   93POPC   D2A 6640  25.992  26.636   8.437
   93POPC   C3A 6641  26.134  26.871   8.094
   93POPC   C4A 6642  26.080  26.838   7.678
   93POPC   C1B 6643  25.756  26.301   8.771
   93POPC   C2B 6644  25.649  26.260   8.338
   93POPC   C3B 6645  25.712  26.569   7.993
   93POPC   C4B 6646  25.796  26.429   7.585
   94POPC   NC3 6647   9.867  35.529   9.634
   94POPC   PO4 6648  10.000  34.957   9.564
   94POPC   GL1 6649   9.758  35.177   9.230
   94POPC   GL2 6650   9.640  35.533   9.178
   94POPC   C1A 6651   9.657  35.212   8.788
   94POPC   D2A 6652   9.818  35.340   8.398
   94POPC   C3A 6653   9.919  35.085   8.100
   94POPC   C4A 6654   9.689  35.268   7.790
   94POPC   C1B 6655   9.855  35.684   8.757
   94POPC   C2B 6656   9.995  35.828   8.307
   94POPC   C3B 6657   9.962  35.732   7.831
   94POPC   C4B 6658   9.962  35.610   7.349
   95POPC   NC3 6659   7.006  33.219   9.531
   95POPC   PO4 6660   7.640  33.090   9.424
   95POPC   GL1 6661   7.535  32.810   9.108
   95POPC   GL2 6662   7.178  32.815   9.202
   95POPC   C1A 6663   7.650  32.763   8.635
   95POPC   D2A 6664   7.634  33.117   8.353
   95POPC   C3A 6665   7.557  33.076   7.941
   95POPC   C4A 6666   7.752  32.830   7.705
   95POPC   C1B 6667   7.203  32.957   8.772
   95POPC   C2B 6668   7.202  32.877   8.346
   95POPC   C3B 6669   7.183  32.713   7.972
   95POPC   C4B 6670   6.914  32.623   7.682
   96POPC   NC3 6671  30.909   6.383   9.416
   96POPC   PO4 6672  30.300   6.364   9.453
   96POPC   GL1 6673  30.506   6.379   9.051
   96POPC   GL2 6674  30.830   6.255   8.917
   96POPC   C1A 6675  30.435   6.369   8.614
   96POPC   D2A 6676  30.676   6.443   8.261
   96POPC   C3A 6677  30.358   6.629   8.041
   96POPC   C4A 6678  30.334   6.950   7.739
   96POPC   C1B 6679  30.778   6.713   8.721
   96POPC   C2B 6680  30.658   6.951   8.305
   96POPC   C3B 6681  30.814   6.814   7.870
   96POPC   C4B 6682  31.149   6.840   7.539
   97POPC   NC3 6683  38.636   9.287   9.371
   97POPC   PO4 6684  38.438   8.806   9.943
   97POPC   GL1 6685  38.398   8.862   9.427
   97POPC   GL2 6686  38.632   8.790   9.171
   97POPC   C1A 6687  38.279   9.008   8.898
   97POPC   D2A 6688  38.286   8.996   8.407
   97POPC   C3A 6689  38.446   9.281   8.074
   97POPC   C4A 6690  38.352   9.223   7.638
   97POPC   C1B 6691  38.619   8.638   8.730
   97POPC   C2B 6692  38.702   8.722   8.277
   97POPC   C3B 6693  38.702   8.899   7.874
   97POPC   C4B 6694  38.692   8.683   7.480
   98POPC   NC3 6695  39.810  40.892   9.669
   98POPC   PO4 6696  40.432  40.635   9.590
   98POPC   GL1 6697  40.172  40.851   9.284
   98POPC   GL2 6698  39.880  40.628   9.234
   98POPC   C1A 6699  40.013  41.080   8.916
   98POPC   D2A 6700  39.781  41.001   8.559
   98POPC   C3A 6701  39.829  40.774   8.206
   98POPC   C4A 6702  39.794  40.951   7.802
   98POPC   C1B 6703  39.830  40.555   8.805
   98POPC   C2B 6704  40.054  40.382   8.441
   98POPC   C3B 6705  40.118  40.382   8.003
   98POPC   C4B 6706  40.089  40.578   7.611
   99POPC   NC3 6707  22.412   4.180   9.420
   99POPC   PO4 6708  21.892   4.563   9.631
   99POPC   GL1 6709  21.913   4.304   9.233
   99POPC   GL2 6710  21.863   3.913   9.225
   99POPC   C1A 6711  22.077   4.481   8.831
   99POPC   D2A 6712  22.127   4.651   8.407
   99POPC   C3A 6713  22.231   4.540   7.942
   99POPC   C4A 6714  22.560   4.185   7.819
   99POPC   C1B 6715  21.843   4.030   8.765
   99POPC   C2B 6716  22.063   4.139   8.361
   99POPC   C3B 6717  22.062   4.062   7.906
   99POPC   C4B 6718  21.838   4.347   7.677
  100POPC   NC3 6719  31.805  30.283   9.381
  100POPC   PO4 6720  31.509  29.684   9.499
  100POPC   GL1 6721  31.413  29.847   9.132
  100POPC   GL2 6722  31.292  30.147   9.296
  100POPC   C1A 6723  31.470  29.686   8.726
  100POPC   D2A 6724  31.221  29.590   8.365
  100POPC   C3A 6725  31.406  29.660   7.997
  100POPC   C4A 6726  31.205  29.834   7.658
  100POPC   C1B 6727  31.189  30.239   8.878
  100POPC   C2B 6728  31.374  30.209   8.509
  100POPC   C3B 6729  31.316  30.158   8.100
  100POPC   C4B 6730  31.398  30.301   7.729
  101POPC   NC3 6731  21.199  31.950   9.836
  101POPC   PO4 6732  21.611  31.538   9.455
  101POPC   GL1 6733  21.194  31.428   9.233
  101POPC   GL2 6734  21.197  31.671   9.070
  101POPC   C1A 6735  21.081  31.245   8.803
  101POPC   D2A 6736  21.279  31.248   8.410
  101POPC   C3A 6737  21.080  31.448   8.069
  101POPC   C4A 6738  21.366  31.604   7.753
  101POPC   C1B 6739  21.535  31.496   8.801
  101POPC   C2B 6740  21.577  31.678   8.408
  101POPC   C3B 6741  21.622  31.950   8.087
  101POPC   C4B 6742  21.751  31.956   7.687
  102POPC   NC3 6743  16.073  39.451   9.839
  102POPC   PO4 6744  15.985  38.971   9.363
  102POPC   GL1 6745  15.771  39.204   9.074
  102POPC   GL2 6746  16.034  39.079   8.865
  102POPC   C1A 6747  15.588  39.150   8.652
  102POPC   D2A 6748  15.707  39.355   8.330
  102POPC   C3A 6749  15.800  39.151   7.985
  102POPC   C4A 6750  15.729  39.515   7.775
  102POPC   C1B 6751  16.100  39.462   8.634
  102POPC   C2B 6752  16.155  39.530   8.172
  102POPC   C3B 6753  16.311  39.314   7.809
  102POPC   C4B 6754  16.235  38.893   7.665
  103POPC   NC3 6755  14.157  38.090   9.417
  103POPC   PO4 6756  14.445  38.680   9.646
  103POPC   GL1 6757  14.540  38.590   9.196
  103POPC   GL2 6758  14.210  38.471   9.082
  103POPC   C1A 6759  14.526  38.596   8.717
  103POPC   D2A 6760  14.283  38.580   8.322
  103POPC   C3A 6761  14.539  38.380   8.030
  103POPC   C4A 6762  14.649  38.492   7.632
  103POPC   C1B 6763  14.093  38.273   8.690
  103POPC   C2B 6764  14.046  38.099   8.250
  103POPC   C3B 6765  14.145  38.173   7.797
  103POPC   C4B 6766  14.018  37.931   7.461
  104POPC   NC3 6767  33.355  41.697   9.589
  104POPC   PO4 6768  32.667  41.482   9.431
  104POPC   GL1 6769  32.838  41.713   9.121
  104POPC   GL2 6770  33.194  41.622   9.121
  104POPC   C1A 6771  32.917  41.633   8.696
  104POPC   D2A 6772  33.164  41.435   8.406
  104POPC   C3A 6773  33.027  41.605   8.024
  104POPC   C4A 6774  32.914  41.396   7.661
  104POPC   C1B 6775  33.417  41.781   8.769
  104POPC   C2B 6776  33.378  41.887   8.335
  104POPC   C3B 6777  33.446  41.902   7.892
  104POPC   C4B 6778  33.160  41.828   7.531
  105POPC   NC3 6779   0.772  43.962   9.361
  105POPC   PO4 6780   0.105  44.086   9.498
  105POPC   GL1 6781   0.233  43.884   9.139
  105POPC   GL2 6782   0.461  43.586   9.153
  105POPC   C1A 6783   0.248  43.741   8.738
  105POPC   D2A 6784   0.433  43.769   8.334
  105POPC   C3A 6785   0.288  44.043   7.990
  105POPC   C4A 6786   0.081  43.802   7.671
  105POPC   C1B 6787   0.757  43.693   8.751
  105POPC   C2B 6788   0.951  43.687   8.340
  105POPC   C3B 6789   0.773  43.896   7.976
  105POPC   C4B 6790   0.578  43.686   7.656
  106POPC   NC3 6791   7.401   9.581   9.443
  106POPC   PO4 6792   7.259  10.176   9.508
  106POPC   GL1 6793   7.154  10.056   9.123
  106POPC   GL2 6794   7.495   9.912   9.059
  106POPC   C1A 6795   7.230  10.126   8.696
  106POPC   D2A 6796   7.544   9.957   8.413
  106POPC   C3A 6797   7.294   9.977   8.071
  106POPC   C4A 6798   7.226  10.284   7.810
  106POPC   C1B 6799   7.384   9.596   8.745
  106POPC   C2B 6800   7.330   9.499   8.298
  106POPC   C3B 6801   7.642   9.626   7.956
  106POPC   C4B 6802   7.841   9.755   7.549
  107POPC   NC3 6803  39.895  22.740   9.499
  107POPC   PO4 6804  39.949  23.275   9.430
  107POPC   GL1 6805  39.932  22.977   9.061
  107POPC   GL2 6806  39.692  22.695   8.996
  107POPC   C1A 6807  40.113  22.760   8.681
  107POPC   D2A 6808  40.174  22.578   8.290
  107POPC   C3A 6809  39.944  22.686   7.934
  107POPC   C4A 6810  40.189  22.783   7.554
  107POPC   C1B 6811  39.703  23.036   8.625
  107POPC   C2B 6812  40.017  23.101   8.280
  107POPC   C3B 6813  39.970  23.168   7.802
  107POPC   C4B 6814  40.047  23.240   7.354
  108POPC   NC3 6815  35.018  17.552   9.352
  108POPC   PO4 6816  35.649  17.561   9.541
  108POPC   GL1 6817  35.507  17.371   9.184
  108POPC   GL2 6818  35.414  17.719   9.055
  108POPC   C1A 6819  35.414  17.308   8.766
  108POPC   D2A 6820  35.500  17.624   8.459
  108POPC   C3A 6821  35.623  17.472   8.054
  108POPC   C4A 6822  35.388  17.333   7.727
  108POPC   C1B 6823  35.060  17.681   8.734
  108POPC   C2B 6824  35.061  17.872   8.351
  108POPC   C3B 6825  34.984  17.736   7.954
  108POPC   C4B 6826  35.022  17.975   7.586
  109POPC   NC3 6827  34.602  14.280   9.573
  109POPC   PO4 6828  34.200  14.155   9.088
  109POPC   GL1 6829  34.622  14.341   9.046
  109POPC   GL2 6830  34.950  14.206   9.186
  109POPC   C1A 6831  34.601  14.594   8.667
  109POPC   D2A 6832  34.244  14.597   8.345
  109POPC   C3A 6833  34.333  14.465   7.936
  109POPC   C4A 6834  34.723  14.611   7.848
  109POPC   C1B 6835  35.053  14.324   8.764
  109POPC   C2B 6836  34.855  14.252   8.390
  109POPC   C3B 6837  34.921  14.112   8.012
  109POPC   C4B 6838  34.671  14.140   7.666
  110POPC   NC3 6839  23.702  12.371   9.369
  110POPC   PO4 6840  23.254  12.896   9.555
  110POPC   GL1 6841  23.402  12.786   9.164
  110POPC   GL2 6842  23.655  12.988   8.986
  110POPC   C1A 6843  23.339  12.618   8.781
  110POPC   D2A 6844  23.515  12.880   8.483
  110POPC   C3A 6845  23.421  12.704   8.117
  110POPC   C4A 6846  23.601  12.737   7.719
  110POPC   C1B 6847  23.851  12.630   8.785
  110POPC   C2B 6848  23.981  12.622   8.378
  110POPC   C3B 6849  24.261  12.613   8.069
  110POPC   C4B 6850  24.083  12.568   7.704
  111POPC   NC3 6851  29.704   9.368   9.522
  111POPC   PO4 6852  30.062   8.862   9.568
  111POPC   GL1 6853  29.908   8.886   9.171
  111POPC   GL2 6854  29.944   9.221   9.108
  111POPC   C1A 6855  29.787   8.884   8.734
  111POPC   D2A 6856  29.629   8.730   8.356
  111POPC   C3A 6857  29.812   8.813   7.992
  111POPC   C4A 6858  29.555   8.728   7.639
  111POPC   C1B 6859  30.182   9.190   8.732
  111POPC   C2B 6860  30.183   8.935   8.362
  111POPC   C3B 6861  30.250   9.127   7.955
  111POPC   C4B 6862  29.934   9.096   7.595
  112POPC   NC3 6863   5.702  23.905   9.346
  112POPC   PO4 6864   6.401  23.859   9.404
  112POPC   GL1 6865   6.145  23.950   9.110
  112POPC   GL2 6866   6.048  23.582   9.118
  112POPC   C1A 6867   5.925  23.935   8.733
  112POPC   D2A 6868   5.967  23.779   8.346
  112POPC   C3A 6869   5.884  24.032   7.983
  112POPC   C4A 6870   6.104  23.939   7.601
  112POPC   C1B 6871   5.770  23.456   8.819
  112POPC   C2B 6872   5.724  23.314   8.419
  112POPC   C3B 6873   5.828  23.425   8.016
  112POPC   C4B 6874   5.651  23.671   7.711
  113POPC   NC3 6875  22.441   7.421   9.855
  113POPC   PO4 6876  23.044   7.469   9.566
  113POPC   GL1 6877  22.978   7.491   9.167
  113POPC   GL2 6878  22.652   7.484   9.199
  113POPC   C1A 6879  23.174   7.424   8.791
  113POPC   D2A 6880  23.284   7.443   8.373
  113POPC   C3A 6881  23.012   7.229   8.110
  113POPC   C4A 6882  23.082   7.324   7.697
  113POPC   C1B 6883  22.650   7.250   8.805
  113POPC   C2B 6884  22.527   7.230   8.377
  113POPC   C3B 6885  22.493   7.510   8.072
  113POPC   C4B 6886  22.601   7.528   7.680
  114POPC   NC3 6887  32.716  21.863   9.634
  114POPC   PO4 6888  33.105  22.380   9.428
  114POPC   GL1 6889  32.854  22.237   9.096
  114POPC   GL2 6890  32.654  21.911   9.133
  114POPC   C1A 6891  33.141  22.231   8.742
  114POPC   D2A 6892  33.350  22.003   8.422
  114POPC   C3A 6893  33.124  21.836   8.075
  114POPC   C4A 6894  33.213  22.007   7.691
  114POPC   C1B 6895  32.776  21.852   8.702
  114POPC   C2B 6896  32.813  22.141   8.360
  114POPC   C3B 6897  32.738  22.145   7.926
  114POPC   C4B 6898  32.771  21.720   7.680
  115POPC   NC3 6899  19.967  25.688   9.611
  115POPC   PO4 6900  19.984  26.260   9.258
  115POPC   GL1 6901  20.049  25.849   9.108
  115POPC   GL2 6902  19.713  25.725   9.180
  115POPC   C1A 6903  20.223  25.849   8.694
  115POPC   D2A 6904  20.255  25.679   8.282
  115POPC   C3A 6905  20.082  25.906   7.913
  115POPC   C4A 6906  19.991  25.844   7.480
  115POPC   C1B 6907  19.596  25.568   8.800
  115POPC   C2B 6908  19.706  25.651   8.408
  115POPC   C3B 6909  19.533  25.823   8.061
  115POPC   C4B 6910  19.530  25.774   7.648
  116POPC   NC3 6911  30.479  38.101   9.428
  116POPC   PO4 6912  30.717  38.774   9.591
  116POPC   GL1 6913  30.673  38.515   9.194
  116POPC   GL2 6914  30.984  38.330   9.123
  116POPC   C1A 6915  30.438  38.472   8.774
  116POPC   D2A 6916  30.599  38.604   8.365
  116POPC   C3A 6917  30.481  38.398   7.964
  116POPC   C4A 6918  30.664  38.640   7.622
  116POPC   C1B 6919  30.812  38.134   8.782
  116POPC   C2B 6920  30.839  38.145   8.358
  116POPC   C3B 6921  30.674  37.917   8.045
  116POPC   C4B 6922  30.482  37.896   7.690
  117POPC   NC3 6923   2.521   7.176   9.492
  117POPC   PO4 6924   2.599   7.832   9.379
  117POPC   GL1 6925   2.514   7.511   9.049
  117POPC   GL2 6926   2.449   7.127   9.004
  117POPC   C1A 6927   2.611   7.567   8.616
  117POPC   D2A 6928   2.860   7.366   8.299
  117POPC   C3A 6929   2.669   7.339   7.921
  117POPC   C4A 6930   2.575   7.555   7.562
  117POPC   C1B 6931   2.804   7.091   8.738
  117POPC   C2B 6932   2.944   6.832   8.368
  117POPC   C3B 6933   3.049   6.968   7.914
  117POPC   C4B 6934   2.965   7.246   7.508
  118POPC   NC3 6935  21.439  15.387   9.581
  118POPC   PO4 6936  21.335  14.776   9.576
  118POPC   GL1 6937  21.470  15.021   9.204
  118POPC   GL2 6938  21.589  15.328   9.105
  118POPC   C1A 6939  21.619  14.908   8.795
  118POPC   D2A 6940  21.760  14.952   8.363
  118POPC   C3A 6941  21.459  14.968   8.018
  118POPC   C4A 6942  21.755  14.869   7.741
  118POPC   C1B 6943  21.228  15.302   8.856
  118POPC   C2B 6944  21.281  15.152   8.466
  118POPC   C3B 6945  21.349  15.460   8.151
  118POPC   C4B 6946  21.294  15.417   7.729
  119POPC   NC3 6947  30.849  44.176   9.624
  119POPC   PO4 6948  30.624  43.511   9.670
  119POPC   GL1 6949  30.795  43.603   9.234
  119POPC   GL2 6950  30.776  43.932   9.196
  119POPC   C1A 6951  31.009  43.662   8.798
  119POPC   D2A 6952  30.995  43.450   8.358
  119POPC   C3A 6953  30.960  43.702   7.983
  119POPC   C4A 6954  30.639  43.912   7.703
  119POPC   C1B 6955  30.599  43.960   8.802
  119POPC   C2B 6956  30.599  43.791   8.389
  119POPC   C3B 6957  30.346  43.991   8.086
  119POPC   C4B 6958  30.412  44.389   7.850
  120POPC   NC3 6959  28.899  13.884   9.455
  120POPC   PO4 6960  29.102  13.243   9.467
  120POPC   GL1 6961  28.983  13.497   9.103
  120POPC   GL2 6962  28.658  13.638   9.021
  120POPC   C1A 6963  29.071  13.496   8.668
  120POPC   D2A 6964  28.848  13.421   8.273
  120POPC   C3A 6965  29.153  13.398   8.006
  120POPC   C4A 6966  29.411  13.656   7.839
  120POPC   C1B 6967  28.846  13.952   8.771
  120POPC   C2B 6968  29.145  13.969   8.434
  120POPC   C3B 6969  28.949  13.898   8.093
  120POPC   C4B 6970  28.893  13.746   7.709
  121POPC   NC3 6971  36.364  19.305   9.815
  121POPC   PO4 6972  36.253  18.885   9.407
  121POPC   GL1 6973  36.131  18.979   9.068
  121POPC   GL2 6974  35.817  18.889   9.082
  121POPC   C1A 6975  36.325  19.083   8.712
  121POPC   D2A 6976  36.221  19.280   8.361
  121POPC   C3A 6977  36.444  19.128   8.008
  121POPC   C4A 6978  36.463  18.939   7.609
  121POPC   C1B 6979  35.832  18.926   8.658
  121POPC   C2B 6980  36.041  18.804   8.293
  121POPC   C3B 6981  36.061  18.778   7.855
  121POPC   C4B 6982  35.821  18.979   7.499
  122POPC   NC3 6983  33.576  13.108   9.389
  122POPC   PO4 6984  32.992  12.865   9.599
  122POPC   GL1 6985  32.854  13.000   9.214
  122POPC   GL2 6986  33.133  13.216   9.117
  122POPC   C1A 6987  32.953  12.796   8.795
  122POPC   D2A 6988  33.061  12.934   8.369
  122POPC   C3A 6989  32.921  12.726   7.939
  122POPC   C4A 6990  33.276  12.595   7.658
  122POPC   C1B 6991  32.838  13.287   8.778
  122POPC   C2B 6992  32.690  13.329   8.373
  122POPC   C3B 6993  32.909  13.228   7.991
  122POPC   C4B 6994  32.812  13.096   7.564
  123POPC   NC3 6995  24.742  17.477   9.642
  123POPC   PO4 6996  24.203  17.759   9.764
  123POPC   GL1 6997  24.404  17.673   9.300
  123POPC   GL2 6998  24.705  17.529   9.134
  123POPC   C1A 6999  24.348  17.755   8.851
  123POPC   D2A 7000  24.246  17.687   8.421
  123POPC   C3A 7001  24.226  17.309   8.186
  123POPC   C4A 7002  24.472  17.539   7.863
  123POPC   C1B 7003  24.663  17.401   8.664
  123POPC   C2B 7004  24.726  17.273   8.214
  123POPC   C3B 7005  24.849  17.199   7.776
  123POPC   C4B 7006  24.964  17.311   7.342
  124POPC   NC3 7007   7.685  34.966   9.415
  124POPC   PO4 7008   7.275  34.471   9.380
  124POPC   GL1 7009   7.576  34.570   9.081
  124POPC   GL2 7010   7.653  34.253   8.903
  124POPC   C1A 7011   7.384  34.802   8.758
  124POPC   D2A 7012   7.219  34.659   8.361
  124POPC   C3A 7013   7.488  34.656   8.025
  124POPC   C4A 7014   7.500  34.311   7.751
  124POPC   C1B 7015   7.192  34.310   8.758
  124POPC   C2B 7016   6.840  34.280   8.464
  124POPC   C3B 7017   7.034  34.266   8.057
  124POPC   C4B 7018   7.001  34.363   7.639
  125POPC   NC3 7019  11.486  44.529   9.575
  125POPC   PO4 7020  10.915  44.381   9.535
  125POPC   GL1 7021  11.182  44.381   9.172
  125POPC   GL2 7022  11.221  44.675   9.112
  125POPC   C1A 7023  11.327  44.391   8.698
  125POPC   D2A 7024  11.416  44.288   8.253
  125POPC   C3A 7025  11.283  44.586   7.933
  125POPC   C4A 7026  11.123  44.650   7.493
  125POPC   C1B 7027  11.471  44.863   8.797
  125POPC   C2B 7028  11.297  44.818   8.405
  125POPC   C3B 7029  11.231   0.096   8.106
  125POPC   C4B 7030  11.365   0.051   7.705
  126POPC   NC3 7031   6.504  15.792   9.570
  126POPC   PO4 7032   6.858  16.348   9.497
  126POPC   GL1 7033   6.837  15.951   9.205
  126POPC   GL2 7034   6.470  15.954   9.078
  126POPC   C1A 7035   6.815  15.708   8.781
  126POPC   D2A 7036   6.635  15.939   8.395
  126POPC   C3A 7037   6.735  16.143   7.967
  126POPC   C4A 7038   6.764  16.214   7.500
  126POPC   C1B 7039   6.245  15.772   8.715
  126POPC   C2B 7040   6.302  15.536   8.331
  126POPC   C3B 7041   6.601  15.628   7.979
  126POPC   C4B 7042   6.481  15.816   7.618
  127POPC   NC3 7043  13.492  21.108   9.626
  127POPC   PO4 7044  13.568  20.488   9.489
  127POPC   GL1 7045  13.570  20.536   9.079
  127POPC   GL2 7046  13.510  20.893   9.143
  127POPC   C1A 7047  13.688  20.420   8.652
  127POPC   D2A 7048  13.932  20.535   8.287
  127POPC   C3A 7049  13.734  20.388   7.909
  127POPC   C4A 7050  13.655  20.565   7.496
  127POPC   C1B 7051  13.383  20.867   8.728
  127POPC   C2B 7052  13.618  20.924   8.378
  127POPC   C3B 7053  13.641  20.879   7.949
  127POPC   C4B 7054  13.353  21.050   7.656
  128POPC   NC3 7055   9.729  21.666   9.531
  128POPC   PO4 7056   9.351  21.192   9.408
  128POPC   GL1 7057   9.769  21.272   9.172
  128POPC   GL2 7058   9.856  21.626   9.037
  128POPC   C1A 7059  10.008  21.212   8.783
  128POPC   D2A 7060  10.033  21.470   8.411
  128POPC   C3A 7061   9.918  21.206   8.079
  128POPC   C4A 7062   9.659  21.136   7.723
  128POPC   C1B 7063   9.434  21.548   8.809
  128POPC   C2B 7064   9.301  21.703   8.396
  128POPC   C3B 7065   9.626  21.739   8.093
  128POPC   C4B 7066   9.900  21.605   7.774
  129POPC   NC3 7067  28.647  10.541   9.416
  129POPC   PO4 7068  28.137  10.133   9.380
  129POPC   GL1 7069  28.187  10.467   9.064
  129POPC   GL2 7070  28.415  10.782   9.059
  129POPC   C1A 7071  28.254  10.367   8.637
  129POPC   D2A 7072  28.503  10.324   8.286
  129POPC   C3A 7073  28.203  10.378   7.982
  129POPC   C4A 7074  28.380  10.504   7.620
  129POPC   C1B 7075  28.209  10.881   8.673
  129POPC   C2B 7076  28.297  10.821   8.249
  129POPC   C3B 7077  28.539  10.914   7.890
  129POPC   C4B 7078  28.460  10.970   7.447
  130POPC   NC3 7079   9.540  15.658   9.410
  130POPC   PO4 7080  10.107  15.890   9.679
  130POPC   GL1 7081   9.976  15.916   9.216
  130POPC   GL2 7082   9.651  16.083   9.133
  130POPC   C1A 7083  10.014  15.732   8.777
  130POPC   D2A 7084   9.925  15.947   8.410
  130POPC   C3A 7085   9.845  15.747   8.029
  130POPC   C4A 7086   9.584  15.820   7.729
  130POPC   C1B 7087   9.513  15.854   8.759
  130POPC   C2B 7088   9.423  15.879   8.327
  130POPC   C3B 7089   9.569  16.186   8.085
  130POPC   C4B 7090   9.475  16.315   7.675
  131POPC   NC3 7091   5.185  14.934   9.642
  131POPC   PO4 7092   4.794  15.369   9.313
  131POPC   GL1 7093   5.087  15.123   9.136
  131POPC   GL2 7094   4.933  14.805   9.201
  131POPC   C1A 7095   5.212  15.256   8.719
  131POPC   D2A 7096   4.931  15.387   8.388
  131POPC   C3A 7097   5.087  15.341   7.994
  131POPC   C4A 7098   5.478  15.219   7.907
  131POPC   C1B 7099   4.819  14.842   8.780
  131POPC   C2B 7100   5.078  14.855   8.423
  131POPC   C3B 7101   5.028  14.807   8.013
  131POPC   C4B 7102   5.135  14.958   7.629
  132POPC   NC3 7103   3.684  42.822   9.412
  132POPC   PO4 7104   3.577  43.491   9.443
  132POPC   GL1 7105   3.574  43.244   9.066
  132POPC   GL2 7106   3.414  42.947   9.008
  132POPC   C1A 7107   3.684  43.218   8.627
  132POPC   D2A 7108   3.939  43.441   8.319
  132POPC   C3A 7109   3.865  43.172   7.959
  132POPC   C4A 7110   3.451  43.092   7.770
  132POPC   C1B 7111   3.544  42.700   8.687
  132POPC   C2B 7112   3.652  42.797   8.279
  132POPC   C3B 7113   3.394  42.612   7.951
  132POPC   C4B 7114   3.219  42.706   7.536
  133POPC   NC3 7115   2.977   5.670   9.428
  133POPC   PO4 7116   2.476   6.019   9.750
  133POPC   GL1 7117   2.679   6.084   9.263
  133POPC   GL2 7118   3.010   6.020   9.048
  133POPC   C1A 7119   2.557   6.029   8.794
  133POPC   D2A 7120   2.366   6.143   8.398
  133POPC   C3A 7121   2.261   5.786   8.144
  133POPC   C4A 7122   2.519   5.581   7.878
  133POPC   C1B 7123   2.966   5.734   8.714
  133POPC   C2B 7124   2.764   5.810   8.306
  133POPC   C3B 7125   2.917   5.931   7.877
  133POPC   C4B 7126   3.117   5.764   7.487
  134POPC   NC3 7127  34.700  40.899   9.480
  134POPC   PO4 7128  34.017  40.710   9.448
  134POPC   GL1 7129  34.328  40.722   9.105
  134POPC   GL2 7130  34.480  41.044   9.039
  134POPC   C1A 7131  34.476  40.644   8.677
  134POPC   D2A 7132  34.234  40.687   8.284
  134POPC   C3A 7133  34.475  40.643   7.902
  134POPC   C4A 7134  34.523  40.777   7.487
  134POPC   C1B 7135  34.731  41.091   8.666
  134POPC   C2B 7136  34.712  40.968   8.215
  134POPC   C3B 7137  34.684  41.172   7.783
  134POPC   C4B 7138  34.919  41.105   7.374
  135POPC   NC3 7139  21.674   8.613   9.475
  135POPC   PO4 7140  21.555   9.314   9.405
  135POPC   GL1 7141  21.828   9.110   9.078
  135POPC   GL2 7142  21.748   8.772   9.020
  135POPC   C1A 7143  21.816   9.042   8.597
  135POPC   D2A 7144  21.673   9.308   8.228
  135POPC   C3A 7145  21.256   9.219   8.002
  135POPC   C4A 7146  21.201   9.006   7.599
  135POPC   C1B 7147  21.353   8.960   8.889
  135POPC   C2B 7148  21.308   9.030   8.472
  135POPC   C3B 7149  21.559   8.814   8.142
  135POPC   C4B 7150  21.414   8.569   7.804
  136POPC   NC3 7151  42.580   3.340   9.506
  136POPC   PO4 7152  42.065   3.784   9.417
  136POPC   GL1 7153  42.216   3.482   9.108
  136POPC   GL2 7154  42.546   3.593   9.077
  136POPC   C1A 7155  42.237   3.606   8.671
  136POPC   D2A 7156  42.515   3.751   8.344
  136POPC   C3A 7157  42.219   3.640   8.052
  136POPC   C4A 7158  41.976   3.719   7.714
  136POPC   C1B 7159  42.662   3.344   8.722
  136POPC   C2B 7160  42.839   3.362   8.300
  136POPC   C3B 7161  42.669   3.490   7.887
  136POPC   C4B 7162  42.316   3.337   7.638
  137POPC   NC3 7163   8.158  13.950   9.518
  137POPC   PO4 7164   8.741  13.665   9.450
  137POPC   GL1 7165   8.422  13.740   9.129
  137POPC   GL2 7166   8.071  13.597   9.156
  137POPC   C1A 7167   8.300  13.791   8.715
  137POPC   D2A 7168   8.155  13.891   8.347
  137POPC   C3A 7169   8.458  13.862   8.038
  137POPC   C4A 7170   8.352  13.730   7.612
  137POPC   C1B 7171   8.010  13.352   8.791
  137POPC   C2B 7172   8.135  13.371   8.382
  137POPC   C3B 7173   8.068  13.507   7.977
  137POPC   C4B 7174   7.940  13.362   7.578
  138POPC   NC3 7175  10.199  22.101   9.650
  138POPC   PO4 7176  10.845  22.381   9.478
  138POPC   GL1 7177  10.495  22.272   9.176
  138POPC   GL2 7178  10.341  21.927   9.164
  138POPC   C1A 7179  10.640  22.156   8.767
  138POPC   D2A 7180  10.865  22.093   8.398
  138POPC   C3A 7181  10.632  22.083   8.026
  138POPC   C4A 7182  10.721  21.787   7.719
  138POPC   C1B 7183  10.157  21.996   8.780
  138POPC   C2B 7184  10.284  22.180   8.393
  138POPC   C3B 7185  10.097  22.011   8.075
  138POPC   C4B 7186  10.238  22.007   7.710
  139POPC   NC3 7187  39.510  21.924   9.577
  139POPC   PO4 7188  38.887  21.845   9.611
  139POPC   GL1 7189  39.164  21.959   9.214
  139POPC   GL2 7190  39.447  22.197   9.136
  139POPC   C1A 7191  39.295  21.819   8.795
  139POPC   D2A 7192  39.091  21.917   8.395
  139POPC   C3A 7193  39.326  21.936   7.995
  139POPC   C4A 7194  39.255  22.191   7.636
  139POPC   C1B 7195  39.271  22.341   8.726
  139POPC   C2B 7196  39.232  22.401   8.242
  139POPC   C3B 7197  39.435  22.572   7.907
  139POPC   C4B 7198  39.344  22.686   7.495
  140POPC   NC3 7199   8.194  27.544   9.573
  140POPC   PO4 7200   8.792  27.574   9.294
  140POPC   GL1 7201   8.395  27.775   9.172
  140POPC   GL2 7202   8.131  27.580   9.033
  140POPC   C1A 7203   8.319  27.971   8.777
  140POPC   D2A 7204   8.349  27.737   8.402
  140POPC   C3A 7205   8.460  27.896   7.999
  140POPC   C4A 7206   8.437  27.614   7.661
  140POPC   C1B 7207   7.814  27.881   8.869
  140POPC   C2B 7208   7.851  27.917   8.427
  140POPC   C3B 7209   7.914  27.557   8.133
  140POPC   C4B 7210   7.934  27.453   7.693
  141POPC   NC3 7211  10.710  31.465   9.342
  141POPC   PO4 7212  10.142  31.477   9.648
  141POPC   GL1 7213  10.202  31.301   9.211
  141POPC   GL2 7214  10.481  31.209   8.985
  141POPC   C1A 7215  10.199  31.591   8.821
  141POPC   D2A 7216  10.513  31.650   8.482
  141POPC   C3A 7217  10.575  31.667   8.022
  141POPC   C4A 7218  11.012  31.790   7.882
  141POPC   C1B 7219  10.500  31.105   8.569
  141POPC   C2B 7220  10.635  31.176   8.157
  141POPC   C3B 7221  10.682  31.256   7.733
  141POPC   C4B 7222  10.714  31.056   7.333
  142POPC   NC3 7223   8.551  10.300   9.682
  142POPC   PO4 7224   8.016  10.615   9.706
  142POPC   GL1 7225   7.994  10.691   9.261
  142POPC   GL2 7226   8.343  10.721   9.134
  142POPC   C1A 7227   7.923  10.776   8.815
  142POPC   D2A 7228   8.204  10.812   8.472
  142POPC   C3A 7229   8.108  10.733   8.049
  142POPC   C4A 7230   8.416  10.807   7.747
  142POPC   C1B 7231   8.281  10.405   8.794
  142POPC   C2B 7232   8.415  10.334   8.341
  142POPC   C3B 7233   8.356  10.308   7.871
  142POPC   C4B 7234   8.600  10.419   7.469
  143POPC   NC3 7235   5.011  17.347   9.533
  143POPC   PO4 7236   4.641  17.873   9.463
  143POPC   GL1 7237   4.805  17.696   9.113
  143POPC   GL2 7238   5.153  17.632   9.138
  143POPC   C1A 7239   4.900  17.545   8.713
  143POPC   D2A 7240   4.796  17.267   8.425
  143POPC   C3A 7241   4.918  17.424   8.033
  143POPC   C4A 7242   4.707  17.452   7.647
  143POPC   C1B 7243   5.475  17.619   8.831
  143POPC   C2B 7244   5.507  17.762   8.437
  143POPC   C3B 7245   5.416  17.603   8.040
  143POPC   C4B 7246   5.543  17.394   7.650
  144POPC   NC3 7247  31.529  41.697   9.427
  144POPC   PO4 7248  31.762  41.097   9.250
  144POPC   GL1 7249  31.506  41.410   9.006
  144POPC   GL2 7250  31.156  41.476   9.085
  144POPC   C1A 7251  31.431  41.808   8.752
  144POPC   D2A 7252  31.487  41.906   8.314
  144POPC   C3A 7253  31.627  41.524   8.109
  144POPC   C4A 7254  31.713  41.598   7.682
  144POPC   C1B 7255  30.967  41.543   8.672
  144POPC   C2B 7256  31.063  41.615   8.241
  144POPC   C3B 7257  31.239  41.738   7.854
  144POPC   C4B 7258  31.263  41.506   7.480
  145POPC   NC3 7259   8.882  35.698   9.642
  145POPC   PO4 7260   8.652  36.307   9.620
  145POPC   GL1 7261   9.028  36.177   9.326
  145POPC   GL2 7262   9.173  35.841   9.269
  145POPC   C1A 7263   9.110  36.173   8.869
  145POPC   D2A 7264   9.385  36.082   8.533
  145POPC   C3A 7265   9.168  36.096   8.162
  145POPC   C4A 7266   9.341  36.126   7.765
  145POPC   C1B 7267   8.775  35.827   9.004
  145POPC   C2B 7268   8.789  35.886   8.549
  145POPC   C3B 7269   8.787  35.713   8.120
  145POPC   C4B 7270   8.821  35.987   7.784
  146POPC   NC3 7271  25.784  23.299   9.227
  146POPC   PO4 7272  25.970  22.662   9.487
  146POPC   GL1 7273  26.101  22.892   9.099
  146POPC   GL2 7274  26.427  23.058   9.017
  146POPC   C1A 7275  25.950  22.968   8.690
  146POPC   D2A 7276  25.787  22.700   8.370
  146POPC   C3A 7277  25.804  22.900   7.978
  146POPC   C4A 7278  25.956  22.844   7.568
  146POPC   C1B 7279  26.465  23.193   8.598
  146POPC   C2B 7280  26.176  23.129   8.251
  146POPC   C3B 7281  26.235  23.192   7.814
  146POPC   C4B 7282  26.226  23.237   7.369
  147POPC   NC3 7283  26.853  12.499   9.646
  147POPC   PO4 7284  26.457  11.976   9.722
  147POPC   GL1 7285  26.626  12.144   9.335
  147POPC   GL2 7286  26.479  11.945   9.128
  147POPC   C1A 7287  26.904  12.178   8.948
  147POPC   D2A 7288  26.929  12.352   8.486
  147POPC   C3A 7289  26.775  12.050   8.131
  147POPC   C4A 7290  26.981  11.844   7.789
  147POPC   C1B 7291  26.440  12.298   8.817
  147POPC   C2B 7292  26.424  12.299   8.385
  147POPC   C3B 7293  26.580  12.578   8.088
  147POPC   C4B 7294  26.860  12.406   7.768
  148POPC   NC3 7295  19.440  25.001   9.459
  148POPC   PO4 7296  20.140  25.030   9.536
  148POPC   GL1 7297  20.047  25.331   9.234
  148POPC   GL2 7298  19.758  25.207   9.136
  148POPC   C1A 7299  20.062  25.376   8.772
  148POPC   D2A 7300  19.988  25.240   8.343
  148POPC   C3A 7301  19.868  25.433   7.968
  148POPC   C4A 7302  19.949  25.274   7.568
  148POPC   C1B 7303  19.459  25.078   8.800
  148POPC   C2B 7304  19.473  25.179   8.361
  148POPC   C3B 7305  19.382  25.338   7.948
  148POPC   C4B 7306  19.423  25.273   7.551
  149POPC   NC3 7307  31.888  36.996   9.388
  149POPC   PO4 7308  32.486  37.114   9.666
  149POPC   GL1 7309  32.507  37.009   9.133
  149POPC   GL2 7310  32.232  36.748   9.102
  149POPC   C1A 7311  32.291  37.129   8.653
  149POPC   D2A 7312  32.366  37.003   8.229
  149POPC   C3A 7313  32.227  37.277   7.888
  149POPC   C4A 7314  32.102  37.198   7.471
  149POPC   C1B 7315  32.168  36.638   8.701
  149POPC   C2B 7316  32.426  36.485   8.375
  149POPC   C3B 7317  32.504  36.518   7.963
  149POPC   C4B 7318  32.265  36.780   7.730
  150POPC   NC3 7319   6.086   1.935   9.407
  150POPC   PO4 7320   5.393   1.771   9.449
  150POPC   GL1 7321   5.665   1.732   9.133
  150POPC   GL2 7322   5.647   2.063   9.071
  150POPC   C1A 7323   5.855   1.726   8.730
  150POPC   D2A 7324   5.707   1.932   8.373
  150POPC   C3A 7325   5.976   1.872   8.082
  150POPC   C4A 7326   5.903   1.958   7.676
  150POPC   C1B 7327   5.897   2.243   8.746
  150POPC   C2B 7328   5.885   2.440   8.356
  150POPC   C3B 7329   6.107   2.359   7.985
  150POPC   C4B 7330   6.013   2.455   7.597
  151POPC   NC3 7331   1.484  34.913   9.665
  151POPC   PO4 7332   1.540  35.592   9.562
  151POPC   GL1 7333   1.523  35.369   9.166
  151POPC   GL2 7334   1.687  35.643   9.000
  151POPC   C1A 7335   1.305  35.292   8.760
  151POPC   D2A 7336   1.026  35.113   8.430
  151POPC   C3A 7337   1.009  35.319   8.049
  151POPC   C4A 7338   0.973  35.517   7.645
  151POPC   C1B 7339   1.774  35.470   8.580
  151POPC   C2B 7340   1.454  35.432   8.280
  151POPC   C3B 7341   1.436  35.522   7.845
  151POPC   C4B 7342   1.689  35.329   7.539
  152POPC   NC3 7343  23.333   4.569   9.383
  152POPC   PO4 7344  22.860   4.197   9.371
  152POPC   GL1 7345  22.827   4.577   9.095
  152POPC   GL2 7346  23.122   4.679   8.900
  152POPC   C1A 7347  22.576   4.623   8.711
  152POPC   D2A 7348  22.605   4.512   8.258
  152POPC   C3A 7349  22.921   4.547   7.899
  152POPC   C4A 7350  22.921   4.353   7.437
  152POPC   C1B 7351  23.005   4.377   8.564
  152POPC   C2B 7352  22.931   4.108   8.176
  152POPC   C3B 7353  23.086   3.979   7.754
  152POPC   C4B 7354  23.318   3.657   7.493
  153POPC   NC3 7355  43.758   0.976   9.445
  153POPC   PO4 7356  44.297   1.442   9.550
  153POPC   GL1 7357  44.115   1.255   9.204
  153POPC   GL2 7358  43.817   1.423   9.136
  153POPC   C1A 7359  44.037   1.157   8.774
  153POPC   D2A 7360  43.841   1.039   8.377
  153POPC   C3A 7361  44.035   1.226   8.037
  153POPC   C4A 7362  44.180   1.212   7.637
  153POPC   C1B 7363  43.682   1.518   8.741
  153POPC   C2B 7364  43.834   1.570   8.346
  153POPC   C3B 7365  43.661   1.579   7.903
  153POPC   C4B 7366  43.614   1.685   7.411
  154POPC   NC3 7367   6.517   0.125   9.622
  154POPC   PO4 7368   6.662   0.742   9.726
  154POPC   GL1 7369   6.435   0.423   9.252
  154POPC   GL2 7370   6.413   0.084   9.135
  154POPC   C1A 7371   6.390   0.470   8.809
  154POPC   D2A 7372   6.621   0.321   8.486
  154POPC   C3A 7373   6.565   0.411   8.089
  154POPC   C4A 7374   6.619   0.294   7.710
  154POPC   C1B 7375   6.794   0.094   8.919
  154POPC   C2B 7376   7.086   0.178   8.565
  154POPC   C3B 7377   7.071   0.368   8.190
  154POPC   C4B 7378   7.103   0.212   7.781
  155POPC   NC3 7379  21.966  37.363   9.545
  155POPC   PO4 7380  21.946  38.041   9.510
  155POPC   GL1 7381  22.072  37.832   9.164
  155POPC   GL2 7382  22.375  37.699   9.136
  155POPC   C1A 7383  22.193  37.928   8.711
  155POPC   D2A 7384  22.266  37.627   8.390
  155POPC   C3A 7385  22.302  37.717   7.978
  155POPC   C4A 7386  22.046  37.715   7.625
  155POPC   C1B 7387  22.077  37.443   8.838
  155POPC   C2B 7388  21.996  37.207   8.454
  155POPC   C3B 7389  21.865  37.370   8.055
  155POPC   C4B 7390  21.702  37.306   7.645
  156POPC   NC3 7391  35.163  42.423   9.558
  156POPC   PO4 7392  35.766  42.732   9.585
  156POPC   GL1 7393  35.622  42.437   9.224
  156POPC   GL2 7394  35.261  42.466   9.065
  156POPC   C1A 7395  35.660  42.212   8.818
  156POPC   D2A 7396  35.429  42.232   8.435
  156POPC   C3A 7397  35.615  42.180   8.018
  156POPC   C4A 7398  35.531  42.548   7.794
  156POPC   C1B 7399  35.147  42.763   8.744
  156POPC   C2B 7400  35.269  42.712   8.337
  156POPC   C3B 7401  35.213  42.917   7.966
  156POPC   C4B 7402  35.060  42.756   7.606
  157POPC   NC3 7403  18.543  11.751   9.403
  157POPC   PO4 7404  18.241  12.351   9.529
  157POPC   GL1 7405  18.300  12.153   9.171
  157POPC   GL2 7406  18.075  11.872   9.155
  157POPC   C1A 7407  18.318  12.135   8.754
  157POPC   D2A 7408  18.173  11.944   8.387
  157POPC   C3A 7409  18.340  12.170   8.077
  157POPC   C4A 7410  18.203  12.246   7.716
  157POPC   C1B 7411  18.231  11.629   8.804
  157POPC   C2B 7412  18.522  11.558   8.501
  157POPC   C3B 7413  18.579  11.679   8.076
  157POPC   C4B 7414  18.544  11.860   7.707
  158POPC   NC3 7415  10.728  31.589   9.932
  158POPC   PO4 7416  11.389  31.701   9.580
  158POPC   GL1 7417  11.288  31.539   9.176
  158POPC   GL2 7418  11.224  31.184   9.195
  158POPC   C1A 7419  11.429  31.481   8.736
  158POPC   D2A 7420  11.416  31.730   8.342
  158POPC   C3A 7421  11.513  31.582   7.917
  158POPC   C4A 7422  11.383  31.757   7.512
  158POPC   C1B 7423  10.984  31.210   8.798
  158POPC   C2B 7424  10.995  31.433   8.400
  158POPC   C3B 7425  11.119  31.280   7.983
  158POPC   C4B 7426  11.148  31.310   7.519
  159POPC   NC3 7427  33.987  23.373   9.498
  159POPC   PO4 7428  33.572  23.961   9.424
  159POPC   GL1 7429  33.659  23.668   9.104
  159POPC   GL2 7430  34.022  23.592   9.053
  159POPC   C1A 7431  33.697  23.705   8.664
  159POPC   D2A 7432  33.633  23.495   8.276
  159POPC   C3A 7433  33.602  23.793   7.932
  159POPC   C4A 7434  33.425  24.100   7.636
  159POPC   C1B 7435  34.204  23.630   8.673
  159POPC   C2B 7436  34.060  23.754   8.252
  159POPC   C3B 7437  34.022  23.486   7.914
  159POPC   C4B 7438  34.272  23.382   7.566
  160POPC   NC3 7439  42.965   5.730   9.456
  160POPC   PO4 7440  43.520   6.158   9.242
  160POPC   GL1 7441  43.134   5.910   9.000
  160POPC   GL2 7442  42.740   5.970   9.049
  160POPC   C1A 7443  42.914   5.589   8.710
  160POPC   D2A 7444  42.952   5.338   8.294
  160POPC   C3A 7445  43.124   5.641   8.009
  160POPC   C4A 7446  43.359   6.035   7.868
  160POPC   C1B 7447  42.694   6.213   8.648
  160POPC   C2B 7448  42.913   6.174   8.232
  160POPC   C3B 7449  42.822   6.008   7.817
  160POPC   C4B 7450  42.753   6.048   7.360
  161POPC   NC3 7451  39.464  39.396   9.582
  161POPC   PO4 7452  38.875  39.316   9.777
  161POPC   GL1 7453  39.050  39.366   9.255
  161POPC   GL2 7454  39.378  39.607   9.132
  161POPC   C1A 7455  39.143  39.334   8.777
  161POPC   D2A 7456  39.022  39.510   8.363
  161POPC   C3A 7457  39.166  39.215   8.006
  161POPC   C4A 7458  39.344  38.801   7.813
  161POPC   C1B 7459  39.615  39.567   8.743
  161POPC   C2B 7460  39.524  39.514   8.286
  161POPC   C3B 7461  39.705  39.577   7.863
  161POPC   C4B 7462  39.632  39.380   7.441
  162POPC   NC3 7463  17.211  13.087   9.475
  162POPC   PO4 7464  17.571  12.508   9.563
  162POPC   GL1 7465  17.454  12.719   9.175
  162POPC   GL2 7466  17.738  12.917   9.058
  162POPC   C1A 7467  17.516  12.531   8.752
  162POPC   D2A 7468  17.591  12.609   8.303
  162POPC   C3A 7469  17.285  12.520   7.967
  162POPC   C4A 7470  17.272  12.653   7.549
  162POPC   C1B 7471  17.462  13.052   8.705
  162POPC   C2B 7472  17.522  13.234   8.268
  162POPC   C3B 7473  17.566  12.949   7.908
  162POPC   C4B 7474  17.900  12.928   7.636
  163POPC   NC3 7475  42.161   5.303   9.478
  163POPC   PO4 7476  42.392   4.728   9.369
  163POPC   GL1 7477  42.533   4.942   9.042
  163POPC   GL2 7478  42.419   5.273   9.047
  163POPC   C1A 7479  42.623   5.136   8.621
  163POPC   D2A 7480  42.378   5.299   8.317
  163POPC   C3A 7481  42.539   5.178   7.954
  163POPC   C4A 7482  42.368   5.168   7.573
  163POPC   C1B 7483  42.140   5.049   8.752
  163POPC   C2B 7484  41.903   5.085   8.397
  163POPC   C3B 7485  41.993   5.120   7.976
  163POPC   C4B 7486  41.895   5.018   7.551
  164POPC   NC3 7487  12.990  32.892   9.543
  164POPC   PO4 7488  12.402  33.183   9.419
  164POPC   GL1 7489  12.767  33.091   9.136
  164POPC   GL2 7490  13.030  33.329   9.040
  164POPC   C1A 7491  12.830  32.894   8.741
  164POPC   D2A 7492  12.648  32.770   8.334
  164POPC   C3A 7493  12.856  32.860   7.962
  164POPC   C4A 7494  12.709  33.045   7.567
  164POPC   C1B 7495  13.251  33.198   8.680
  164POPC   C2B 7496  13.223  32.893   8.367
  164POPC   C3B 7497  13.349  33.010   7.984
  164POPC   C4B 7498  13.170  33.172   7.628
  165POPC   NC3 7499  17.899  33.380   9.566
  165POPC   PO4 7500  17.227  33.205   9.491
  165POPC   GL1 7501  17.446  33.087   9.133
  165POPC   GL2 7502  17.790  33.149   9.146
  165POPC   C1A 7503  17.268  33.085   8.734
  165POPC   D2A 7504  17.169  32.788   8.416
  165POPC   C3A 7505  17.230  33.041   8.082
  165POPC   C4A 7506  17.315  33.104   7.697
  165POPC   C1B 7507  17.839  33.015   8.749
  165POPC   C2B 7508  17.655  33.120   8.380
  165POPC   C3B 7509  17.752  33.000   7.981
  165POPC   C4B 7510  18.049  32.772   7.780
  166POPC   NC3 7511  22.089  34.978   9.734
  166POPC   PO4 7512  22.499  35.470   9.478
  166POPC   GL1 7513  22.362  35.200   9.175
  166POPC   GL2 7514  22.006  35.179   9.266
  166POPC   C1A 7515  22.490  35.177   8.728
  166POPC   D2A 7516  22.611  35.314   8.302
  166POPC   C3A 7517  22.342  35.182   7.967
  166POPC   C4A 7518  22.041  35.527   7.895
  166POPC   C1B 7519  22.030  35.417   8.852
  166POPC   C2B 7520  22.050  35.344   8.403
  166POPC   C3B 7521  21.841  35.083   8.086
  166POPC   C4B 7522  21.832  35.139   7.670
  167POPC   NC3 7523  38.770   8.532   9.671
  167POPC   PO4 7524  39.191   7.964   9.605
  167POPC   GL1 7525  39.152   8.123   9.189
  167POPC   GL2 7526  38.938   8.375   9.195
  167POPC   C1A 7527  39.099   8.005   8.778
  167POPC   D2A 7528  39.175   7.921   8.383
  167POPC   C3A 7529  39.211   8.208   8.082
  167POPC   C4A 7530  38.921   8.293   7.723
  167POPC   C1B 7531  39.113   8.500   8.806
  167POPC   C2B 7532  39.174   8.660   8.411
  167POPC   C3B 7533  39.165   8.691   7.965
  167POPC   C4B 7534  39.374   8.542   7.593
  168POPC   NC3 7535  14.799  11.619   9.361
  168POPC   PO4 7536  14.215  11.374   9.645
  168POPC   GL1 7537  14.300  11.162   9.241
  168POPC   GL2 7538  14.374  11.487   9.131
  168POPC   C1A 7539  14.433  11.107   8.775
  168POPC   D2A 7540  14.349  11.253   8.331
  168POPC   C3A 7541  14.597  11.116   7.938
  168POPC   C4A 7542  14.489  11.174   7.471
  168POPC   C1B 7543  14.262  11.589   8.744
  168POPC   C2B 7544  14.540  11.714   8.449
  168POPC   C3B 7545  14.485  11.635   8.022
  168POPC   C4B 7546  14.766  11.554   7.695
  169POPC   NC3 7547  11.573   8.753   9.518
  169POPC   PO4 7548  11.027   9.091   9.659
  169POPC   GL1 7549  11.267   9.180   9.290
  169POPC   GL2 7550  11.190   8.844   9.208
  169POPC   C1A 7551  11.151   9.251   8.843
  169POPC   D2A 7552  11.146   9.020   8.459
  169POPC   C3A 7553  11.060   9.206   8.080
  169POPC   C4A 7554  11.324   9.089   7.792
  169POPC   C1B 7555  11.411   8.791   8.843
  169POPC   C2B 7556  11.461   8.594   8.447
  169POPC   C3B 7557  11.532   8.728   8.060
  169POPC   C4B 7558  11.701   8.739   7.654
  170POPC   NC3 7559  40.895   2.482   9.557
  170POPC   PO4 7560  40.445   3.011   9.679
  170POPC   GL1 7561  40.515   2.657   9.301
  170POPC   GL2 7562  40.829   2.800   9.152
  170POPC   C1A 7563  40.560   2.617   8.782
  170POPC   D2A 7564  40.750   2.622   8.361
  170POPC   C3A 7565  40.559   2.473   8.002
  170POPC   C4A 7566  40.439   2.689   7.636
  170POPC   C1B 7567  41.068   2.811   8.756
  170POPC   C2B 7568  41.254   2.656   8.367
  170POPC   C3B 7569  41.137   2.684   7.897
  170POPC   C4B 7570  41.182   2.757   7.410
  171POPC   NC3 7571  13.077  24.555   9.460
  171POPC   PO4 7572  13.614  24.207   9.390
  171POPC   GL1 7573  13.760  24.507   9.122
  171POPC   GL2 7574  14.065  24.362   9.102
  171POPC   C1A 7575  13.791  24.806   8.743
  171POPC   D2A 7576  13.536  24.945   8.382
  171POPC   C3A 7577  13.613  24.818   7.952
  171POPC   C4A 7578  13.339  24.519   7.672
  171POPC   C1B 7579  13.901  24.292   8.693
  171POPC   C2B 7580  13.855  24.098   8.318
  171POPC   C3B 7581  13.708  24.322   7.992
  171POPC   C4B 7582  13.848  24.487   7.620
  172POPC   NC3 7583  41.268  13.543   9.505
  172POPC   PO4 7584  41.765  13.675   9.351
  172POPC   GL1 7585  41.601  13.385   9.015
  172POPC   GL2 7586  41.242  13.305   9.042
  172POPC   C1A 7587  41.769  13.363   8.597
  172POPC   D2A 7588  41.643  13.669   8.300
  172POPC   C3A 7589  41.747  13.592   7.885
  172POPC   C4A 7590  41.852  13.290   7.570
  172POPC   C1B 7591  41.297  13.711   8.787
  172POPC   C2B 7592  41.199  13.898   8.380
  172POPC   C3B 7593  41.192  13.699   7.970
  172POPC   C4B 7594  41.015  13.717   7.540
  173POPC   NC3 7595  26.510  25.120   9.701
  173POPC   PO4 7596  26.779  25.621   9.512
  173POPC   GL1 7597  26.651  25.395   9.154
  173POPC   GL2 7598  26.415  25.111   9.184
  173POPC   C1A 7599  26.761  25.295   8.729
  173POPC   D2A 7600  26.542  25.238   8.338
  173POPC   C3A 7601  26.771  25.231   7.954
  173POPC   C4A 7602  26.659  25.378   7.555
  173POPC   C1B 7603  26.555  24.849   8.841
  173POPC   C2B 7604  26.582  24.733   8.426
  173POPC   C3B 7605  26.471  24.808   8.002
  173POPC   C4B 7606  26.688  24.857   7.597
  174POPC   NC3 7607  10.684  21.216   9.535
  174POPC   PO4 7608  10.192  21.649   9.562
  174POPC   GL1 7609  10.303  21.391   9.189
  174POPC   GL2 7610  10.259  21.012   9.197
  174POPC   C1A 7611  10.432  21.530   8.775
  174POPC   D2A 7612  10.494  21.727   8.386
  174POPC   C3A 7613  10.349  21.558   8.000
  174POPC   C4A 7614  10.343  21.499   7.535
  174POPC   C1B 7615  10.498  21.016   8.795
  174POPC   C2B 7616  10.508  21.159   8.336
  174POPC   C3B 7617  10.611  21.148   7.869
  174POPC   C4B 7618  10.671  21.106   7.421
  175POPC   NC3 7619  22.725  41.580   9.497
  175POPC   PO4 7620  23.187  41.055   9.604
  175POPC   GL1 7621  23.279  41.242   9.173
  175POPC   GL2 7622  23.135  41.569   9.170
  175POPC   C1A 7623  23.142  41.279   8.764
  175POPC   D2A 7624  23.202  41.581   8.459
  175POPC   C3A 7625  23.254  41.409   8.078
  175POPC   C4A 7626  23.025  41.296   7.745
  175POPC   C1B 7627  22.848  41.724   8.845
  175POPC   C2B 7628  22.809  41.906   8.448
  175POPC   C3B 7629  22.805  41.670   8.090
  175POPC   C4B 7630  22.613  41.683   7.678
  176POPC   NC3 7631  42.954  11.277   9.734
  176POPC   PO4 7632  43.534  10.919   9.617
  176POPC   GL1 7633  43.374  11.169   9.248
  176POPC   GL2 7634  43.023  11.322   9.231
  176POPC   C1A 7635  43.227  11.055   8.817
  176POPC   D2A 7636  43.414  11.120   8.404
  176POPC   C3A 7637  43.175  11.174   8.037
  176POPC   C4A 7638  43.348  11.236   7.647
  176POPC   C1B 7639  42.917  11.465   8.814
  176POPC   C2B 7640  43.124  11.553   8.452
  176POPC   C3B 7641  43.123  11.672   8.029
  176POPC   C4B 7642  42.875  11.480   7.707
  177POPC   NC3 7643  34.247  17.004   9.300
  177POPC   PO4 7644  34.639  16.496   9.462
  177POPC   GL1 7645  34.406  16.574   9.070
  177POPC   GL2 7646  34.538  16.910   8.885
  177POPC   C1A 7647  34.429  16.445   8.657
  177POPC   D2A 7648  34.617  16.692   8.327
  177POPC   C3A 7649  34.412  16.849   7.964
  177POPC   C4A 7650  34.159  16.549   7.720
  177POPC   C1B 7651  34.928  17.145   8.706
  177POPC   C2B 7652  35.093  17.334   8.307
  177POPC   C3B 7653  34.927  17.164   7.897
  177POPC   C4B 7654  34.670  17.052   7.542
  178POPC   NC3 7655  11.411  25.427   9.692
  178POPC   PO4 7656  10.934  25.892   9.542
  178POPC   GL1 7657  11.257  25.635   9.234
  178POPC   GL2 7658  11.171  25.304   9.214
  178POPC   C1A 7659  11.410  25.386   8.768
  178POPC   D2A 7660  11.481  25.103   8.366
  178POPC   C3A 7661  11.531  25.289   7.924
  178POPC   C4A 7662  11.840  25.560   7.787
  178POPC   C1B 7663  10.958  25.557   8.865
  178POPC   C2B 7664  11.075  25.699   8.445
  178POPC   C3B 7665  11.069  25.469   8.046
  178POPC   C4B 7666  11.108  24.994   7.972
  179POPC   NC3 7667   1.644   5.258   9.497
  179POPC   PO4 7668   1.080   4.985   9.466
  179POPC   GL1 7669   1.160   4.983   9.047
  179POPC   GL2 7670   1.425   5.196   9.053
  179POPC   C1A 7671   1.338   4.902   8.631
  179POPC   D2A 7672   1.191   4.956   8.247
  179POPC   C3A 7673   1.231   4.822   7.846
  179POPC   C4A 7674   1.014   5.167   7.649
  179POPC   C1B 7675   1.227   5.392   8.721
  179POPC   C2B 7676   1.350   5.414   8.328
  179POPC   C3B 7677   1.445   5.324   7.922
  179POPC   C4B 7678   1.360   5.592   7.599
  180POPC   NC3 7679  18.487  36.484   9.568
  180POPC   PO4 7680  18.517  35.883   9.553
  180POPC   GL1 7681  18.375  36.029   9.179
  180POPC   GL2 7682  18.380  35.726   8.977
  180POPC   C1A 7683  18.444  36.369   8.895
  180POPC   D2A 7684  18.636  36.350   8.491
  180POPC   C3A 7685  18.459  36.260   8.065
  180POPC   C4A 7686  18.590  36.408   7.657
  180POPC   C1B 7687  18.196  35.997   8.656
  180POPC   C2B 7688  17.919  36.205   8.353
  180POPC   C3B 7689  17.976  36.268   7.917
  180POPC   C4B 7690  18.227  36.039   7.578
  181POPC   NC3 7691  15.730  16.334   9.367
  181POPC   PO4 7692  15.798  16.929   9.255
  181POPC   GL1 7693  15.975  16.593   9.024
  181POPC   GL2 7694  16.311  16.546   9.022
  181POPC   C1A 7695  15.850  16.466   8.638
  181POPC   D2A 7696  15.751  16.193   8.274
  181POPC   C3A 7697  15.755  16.466   7.938
  181POPC   C4A 7698  15.693  16.918   7.904
  181POPC   C1B 7699  16.255  16.838   8.686
  181POPC   C2B 7700  16.072  16.781   8.272
  181POPC   C3B 7701  16.177  16.748   7.850
  181POPC   C4B 7702  16.118  16.386   7.575
  182POPC   NC3 7703   5.388  26.476   9.508
  182POPC   PO4 7704   4.883  26.970   9.575
  182POPC   GL1 7705   5.057  26.891   9.208
  182POPC   GL2 7706   5.086  27.236   9.113
  182POPC   C1A 7707   5.275  26.861   8.820
  182POPC   D2A 7708   5.324  26.659   8.437
  182POPC   C3A 7709   5.478  26.899   8.105
  182POPC   C4A 7710   5.260  26.757   7.768
  182POPC   C1B 7711   4.817  27.032   8.753
  182POPC   C2B 7712   4.966  27.068   8.339
  182POPC   C3B 7713   4.812  26.886   8.011
  182POPC   C4B 7714   4.768  26.894   7.632
  183POPC   NC3 7715  20.241   3.140   9.595
  183POPC   PO4 7716  20.765   2.735   9.458
  183POPC   GL1 7717  20.420   2.833   9.144
  183POPC   GL2 7718  20.681   2.662   8.970
  183POPC   C1A 7719  20.304   2.769   8.675
  183POPC   D2A 7720  20.656   2.668   8.411
  183POPC   C3A 7721  20.605   2.578   7.986
  183POPC   C4A 7722  20.421   2.603   7.607
  183POPC   C1B 7723  20.972   2.396   8.803
  183POPC   C2B 7724  20.957   2.148   8.418
  183POPC   C3B 7725  20.909   2.194   7.993
  183POPC   C4B 7726  20.916   2.468   7.568
  184POPC   NC3 7727   5.603  43.977   9.488
  184POPC   PO4 7728   6.078  43.540   9.631
  184POPC   GL1 7729   6.105  43.706   9.154
  184POPC   GL2 7730   5.787  43.861   9.045
  184POPC   C1A 7731   5.963  43.513   8.750
  184POPC   D2A 7732   5.793  43.676   8.391
  184POPC   C3A 7733   5.976  43.546   8.011
  184POPC   C4A 7734   6.260  43.756   7.734
  184POPC   C1B 7735   5.617  44.128   8.751
  184POPC   C2B 7736   5.699  44.285   8.337
  184POPC   C3B 7737   5.616  44.117   7.955
  184POPC   C4B 7738   5.767  43.865   7.672
  185POPC   NC3 7739  21.325  32.911   9.441
  185POPC   PO4 7740  21.054  32.346   9.670
  185POPC   GL1 7741  21.034  32.175   9.231
  185POPC   GL2 7742  21.131  32.514   9.117
  185POPC   C1A 7743  21.231  32.084   8.810
  185POPC   D2A 7744  21.078  32.145   8.424
  185POPC   C3A 7745  21.119  31.964   8.033
  185POPC   C4A 7746  21.303  32.202   7.711
  185POPC   C1B 7747  21.285  32.576   8.672
  185POPC   C2B 7748  21.466  32.428   8.260
  185POPC   C3B 7749  21.569  32.603   7.865
  185POPC   C4B 7750  21.787  32.442   7.508
  186POPC   NC3 7751  30.959  26.540   9.520
  186POPC   PO4 7752  30.938  27.204   9.484
  186POPC   GL1 7753  30.805  26.882   9.180
  186POPC   GL2 7754  30.502  26.699   9.250
  186POPC   C1A 7755  30.985  26.778   8.772
  186POPC   D2A 7756  31.082  26.909   8.344
  186POPC   C3A 7757  30.810  26.883   7.982
  186POPC   C4A 7758  30.648  27.240   7.742
  186POPC   C1B 7759  30.433  26.929   8.867
  186POPC   C2B 7760  30.548  26.863   8.475
  186POPC   C3B 7761  30.329  26.725   8.138
  186POPC   C4B 7762  30.251  26.912   7.761
  187POPC   NC3 7763   3.118  28.114   9.917
  187POPC   PO4 7764   3.555  28.126   9.410
  187POPC   GL1 7765   3.520  28.506   9.134
  187POPC   GL2 7766   3.865  28.637   9.108
  187POPC   C1A 7767   3.574  28.631   8.679
  187POPC   D2A 7768   3.866  28.610   8.350
  187POPC   C3A 7769   3.699  28.403   8.015
  187POPC   C4A 7770   3.444  28.368   7.695
  187POPC   C1B 7771   3.827  28.219   8.841
  187POPC   C2B 7772   3.700  28.102   8.454
  187POPC   C3B 7773   3.902  27.894   8.138
  187POPC   C4B 7774   3.878  27.993   7.721
  188POPC   NC3 7775  10.354   1.299   9.435
  188POPC   PO4 7776  10.940   1.615   9.714
  188POPC   GL1 7777  10.770   1.549   9.248
  188POPC   GL2 7778  10.671   1.167   9.075
  188POPC   C1A 7779  10.653   1.610   8.804
  188POPC   D2A 7780  10.687   1.385   8.401
  188POPC   C3A 7781  10.608   1.442   7.938
  188POPC   C4A 7782  10.625   1.125   7.593
  188POPC   C1B 7783  10.338   1.182   8.735
  188POPC   C2B 7784  10.212   1.031   8.341
  188POPC   C3B 7785  10.172   1.133   7.885
  188POPC   C4B 7786  10.156   0.963   7.455
  189POPC   NC3 7787  11.999  37.190   9.794
  189POPC   PO4 7788  12.220  36.696   9.379
  189POPC   GL1 7789  12.065  36.718   9.006
  189POPC   GL2 7790  11.770  36.564   9.111
  189POPC   C1A 7791  12.131  37.026   8.707
  189POPC   D2A 7792  12.009  37.097   8.309
  189POPC   C3A 7793  12.352  37.055   8.063
  189POPC   C4A 7794  12.461  36.885   7.664
  189POPC   C1B 7795  11.624  36.636   8.684
  189POPC   C2B 7796  11.696  36.673   8.249
  189POPC   C3B 7797  11.783  36.914   7.891
  189POPC   C4B 7798  11.814  36.623   7.578
  190POPC   NC3 7799  18.046  15.394   9.601
  190POPC   PO4 7800  18.027  14.714   9.574
  190POPC   GL1 7801  18.243  14.807   9.167
  190POPC   GL2 7802  18.476  14.592   8.985
  190POPC   C1A 7803  18.211  14.943   8.723
  190POPC   D2A 7804  18.005  15.061   8.331
  190POPC   C3A 7805  18.238  15.282   8.010
  190POPC   C4A 7806  18.200  15.417   7.584
  190POPC   C1B 7807  18.520  14.548   8.560
  190POPC   C2B 7808  18.483  14.852   8.237
  190POPC   C3B 7809  18.456  14.864   7.776
  190POPC   C4B 7810  18.483  15.033   7.365
  191POPC   NC3 7811  30.096  35.683   9.624
  191POPC   PO4 7812  29.661  35.370   9.251
  191POPC   GL1 7813  29.994  35.645   9.114
  191POPC   GL2 7814  30.358  35.693   9.174
  191POPC   C1A 7815  30.049  35.662   8.688
  191POPC   D2A 7816  29.696  35.650   8.420
  191POPC   C3A 7817  29.807  35.576   8.019
  191POPC   C4A 7818  29.770  35.245   7.743
  191POPC   C1B 7819  30.286  35.267   8.918
  191POPC   C2B 7820  30.027  35.188   8.505
  191POPC   C3B 7821  30.180  35.199   8.065
  191POPC   C4B 7822  30.274  35.517   7.775
  192POPC   NC3 7823  35.262  30.536   9.401
  192POPC   PO4 7824  35.869  30.322   9.473
  192POPC   GL1 7825  35.699  30.454   9.110
  192POPC   GL2 7826  35.691  30.812   9.169
  192POPC   C1A 7827  35.458  30.482   8.746
  192POPC   D2A 7828  35.121  30.573   8.479
  192POPC   C3A 7829  35.283  30.565   8.085
  192POPC   C4A 7830  35.226  30.886   7.804
  192POPC   C1B 7831  35.830  30.860   8.737
  192POPC   C2B 7832  35.633  30.939   8.335
  192POPC   C3B 7833  35.727  30.828   7.917
  192POPC   C4B 7834  35.650  31.053   7.550
  193POPC   NC3 7835  34.407  36.437   9.408
  193POPC   PO4 7836  34.746  35.838   9.458
  193POPC   GL1 7837  34.552  36.034   9.126
  193POPC   GL2 7838  34.192  35.947   9.125
  193POPC   C1A 7839  34.675  36.228   8.745
  193POPC   D2A 7840  34.623  36.440   8.394
  193POPC   C3A 7841  34.772  36.136   8.132
  193POPC   C4A 7842  34.807  36.084   7.704
  193POPC   C1B 7843  34.177  36.196   8.708
  193POPC   C2B 7844  34.262  36.116   8.284
  193POPC   C3B 7845  34.349  36.288   7.895
  193POPC   C4B 7846  34.111  36.252   7.570
  194POPC   NC3 7847  37.356  15.963   9.493
  194POPC   PO4 7848  36.821  15.631   9.665
  194POPC   GL1 7849  36.906  15.851   9.278
  194POPC   GL2 7850  36.973  15.560   9.150
  194POPC   C1A 7851  36.871  15.963   8.816
  194POPC   D2A 7852  36.939  16.207   8.433
  194POPC   C3A 7853  36.883  16.044   8.001
  194POPC   C4A 7854  36.939  16.129   7.538
  194POPC   C1B 7855  36.751  15.445   8.771
  194POPC   C2B 7856  36.766  15.642   8.363
  194POPC   C3B 7857  36.981  15.517   7.994
  194POPC   C4B 7858  36.841  15.613   7.594
  195POPC   NC3 7859   5.673  17.036   9.527
  195POPC   PO4 7860   6.109  16.478   9.640
  195POPC   GL1 7861   5.860  16.622   9.255
  195POPC   GL2 7862   5.473  16.654   9.245
  195POPC   C1A 7863   5.914  16.713   8.818
  195POPC   D2A 7864   6.073  16.808   8.407
  195POPC   C3A 7865   6.000  16.531   8.078
  195POPC   C4A 7866   6.155  16.769   7.746
  195POPC   C1B 7867   5.408  16.653   8.787
  195POPC   C2B 7868   5.565  16.701   8.335
  195POPC   C3B 7869   5.584  16.697   7.861
  195POPC   C4B 7870   5.528  16.888   7.447
  196POPC   NC3 7871   9.941  30.003   9.522
  196POPC   PO4 7872   9.396  30.295   9.635
  196POPC   GL1 7873   9.542  30.197   9.226
  196POPC   GL2 7874   9.838  30.385   9.166
  196POPC   C1A 7875   9.725  29.878   8.913
  196POPC   D2A 7876   9.591  29.618   8.561
  196POPC   C3A 7877   9.519  29.790   8.142
  196POPC   C4A 7878   9.603  29.742   7.708
  196POPC   C1B 7879  10.009  30.250   8.746
  196POPC   C2B 7880   9.941  29.984   8.361
  196POPC   C3B 7881   9.933  30.102   7.884
  196POPC   C4B 7882  10.030  30.265   7.398
  197POPC   NC3 7883  13.787  11.104   9.509
  197POPC   PO4 7884  13.254  11.509   9.408
  197POPC   GL1 7885  13.528  11.622   9.124
  197POPC   GL2 7886  13.861  11.460   9.135
  197POPC   C1A 7887  13.526  11.430   8.727
  197POPC   D2A 7888  13.362  11.237   8.403
  197POPC   C3A 7889  13.597  11.325   8.058
  197POPC   C4A 7890  13.678  11.389   7.638
  197POPC   C1B 7891  13.909  11.091   8.833
  197POPC   C2B 7892  13.779  10.906   8.422
  197POPC   C3B 7893  13.965  10.939   8.021
  197POPC   C4B 7894  14.134  11.304   7.826
  198POPC   NC3 7895   2.452  33.787   9.570
  198POPC   PO4 7896   2.865  34.226   9.719
  198POPC   GL1 7897   2.940  34.128   9.210
  198POPC   GL2 7898   2.849  33.743   9.108
  198POPC   C1A 7899   2.798  34.080   8.742
  198POPC   D2A 7900   2.730  33.921   8.310
  198POPC   C3A 7901   2.992  33.976   7.962
  198POPC   C4A 7902   2.832  33.921   7.565
  198POPC   C1B 7903   2.743  33.533   8.664
  198POPC   C2B 7904   2.813  33.372   8.215
  198POPC   C3B 7905   2.837  33.406   7.738
  198POPC   C4B 7906   2.997  33.314   7.297
  199POPC   NC3 7907  24.225  26.695   9.583
  199POPC   PO4 7908  23.649  26.818   9.539
  199POPC   GL1 7909  23.858  26.785   9.144
  199POPC   GL2 7910  24.058  26.466   9.141
  199POPC   C1A 7911  23.646  26.958   8.748
  199POPC   D2A 7912  23.320  27.079   8.403
  199POPC   C3A 7913  23.412  26.941   7.967
  199POPC   C4A 7914  23.440  26.490   7.834
  199POPC   C1B 7915  23.878  26.505   8.711
  199POPC   C2B 7916  23.683  26.596   8.328
  199POPC   C3B 7917  23.878  26.726   7.975
  199POPC   C4B 7918  23.846  26.520   7.548
  200POPC   NC3 7919   3.098   4.906   9.491
  200POPC   PO4 7920   2.578   5.309   9.441
  200POPC   GL1 7921   2.605   5.223   9.076
  200POPC   GL2 7922   2.775   4.889   9.053
  200POPC   C1A 7923   2.576   5.388   8.685
  200POPC   D2A 7924   2.621   5.001   8.463
  200POPC   C3A 7925   2.646   5.118   8.053
  200POPC   C4A 7926   2.925   4.942   7.801
  200POPC   C1B 7927   3.030   5.187   8.798
  200POPC   C2B 7928   2.996   5.348   8.357
  200POPC   C3B 7929   3.075   5.435   7.911
  200POPC   C4B 7930   3.251   5.244   7.511
  201POPC   NC3 7931  14.814  38.297   9.556
  201POPC   PO4 7932  15.279  38.748   9.488
  201POPC   GL1 7933  15.206  38.406   9.191
  201POPC   GL2 7934  15.520  38.224   9.230
  201POPC   C1A 7935  14.992  38.340   8.777
  201POPC   D2A 7936  14.903  38.511   8.375
  201POPC   C3A 7937  15.057  38.371   7.979
  201POPC   C4A 7938  15.028  38.797   7.812
  201POPC   C1B 7939  15.603  38.264   8.792
  201POPC   C2B 7940  15.373  38.243   8.394
  201POPC   C3B 7941  15.557  38.135   7.971
  201POPC   C4B 7942  15.588  38.220   7.524
  202POPC   NC3 7943  10.192  38.811   9.410
  202POPC   PO4 7944  10.770  39.094   9.519
  202POPC   GL1 7945  10.487  39.217   9.217
  202POPC   GL2 7946  10.719  39.072   8.996
  202POPC   C1A 7947  10.557  39.520   8.875
  202POPC   D2A 7948  10.717  39.345   8.476
  202POPC   C3A 7949  10.638  39.565   8.076
  202POPC   C4A 7950  10.780  39.596   7.665
  202POPC   C1B 7951  10.317  39.101   8.762
  202POPC   C2B 7952  10.215  39.248   8.398
  202POPC   C3B 7953  10.439  39.085   8.113
  202POPC   C4B 7954  10.573  39.123   7.747
  203POPC   NC3 7955  29.063  23.190   9.478
  203POPC   PO4 7956  29.493  22.694   9.504
  203POPC   GL1 7957  29.187  22.735   9.185
  203POPC   GL2 7958  29.291  23.085   9.040
  203POPC   C1A 7959  28.887  22.850   8.839
  203POPC   D2A 7960  28.759  23.072   8.460
  203POPC   C3A 7961  28.696  22.770   8.135
  203POPC   C4A 7962  28.723  22.839   7.711
  203POPC   C1B 7963  29.405  22.784   8.734
  203POPC   C2B 7964  29.190  22.779   8.348
  203POPC   C3B 7965  29.106  23.079   8.041
  203POPC   C4B 7966  29.289  22.918   7.698
  204POPC   NC3 7967  20.432   5.573   9.523
  204POPC   PO4 7968  20.903   5.982   9.641
  204POPC   GL1 7969  20.941   5.789   9.216
  204POPC   GL2 7970  20.620   5.899   9.160
  204POPC   C1A 7971  20.768   5.650   8.759
  204POPC   D2A 7972  20.408   5.613   8.434
  204POPC   C3A 7973  20.502   5.630   7.980
  204POPC   C4A 7974  20.910   5.700   7.802
  204POPC   C1B 7975  20.379   6.007   8.788
  204POPC   C2B 7976  20.509   6.115   8.372
  204POPC   C3B 7977  20.657   6.121   7.962
  204POPC   C4B 7978  20.287   6.083   7.746
  205POPC   NC3 7979  36.373  14.581   9.539
  205POPC   PO4 7980  35.719  14.362   9.466
  205POPC   GL1 7981  36.067  14.441   9.142
  205POPC   GL2 7982  36.353  14.730   9.071
  205POPC   C1A 7983  36.183  14.395   8.719
  205POPC   D2A 7984  36.063  14.098   8.411
  205POPC   C3A 7985  36.070  14.101   7.989
  205POPC   C4A 7986  36.001  14.192   7.555
  205POPC   C1B 7987  36.393  14.861   8.644
  205POPC   C2B 7988  36.278  14.634   8.284
  205POPC   C3B 7989  36.191  14.576   7.863
  205POPC   C4B 7990  35.833  14.680   7.633
  206POPC   NC3 7991  21.426  44.845   9.529
  206POPC   PO4 7992  21.448  44.144   9.387
  206POPC   GL1 7993  21.521  44.486   9.053
  206POPC   GL2 7994  21.614  44.865   9.048
  206POPC   C1A 7995  21.200  44.534   8.713
  206POPC   D2A 7996  20.942  44.498   8.298
  206POPC   C3A 7997  21.246  44.318   8.016
  206POPC   C4A 7998  21.527  44.310   7.668
  206POPC   C1B 7999  21.617  44.879   8.595
  206POPC   C2B 8000  21.346  44.786   8.293
  206POPC   C3B 8001  21.211  44.817   7.909
  206POPC   C4B 8002  21.560   0.001   7.846
  207POPC   NC3 8003   1.451  17.094   9.394
  207POPC   PO4 8004   1.040  17.723   9.476
  207POPC   GL1 8005   1.124  17.417   9.183
  207POPC   GL2 8006   0.969  17.125   9.113
  207POPC   C1A 8007   1.291  17.411   8.797
  207POPC   D2A 8008   1.201  17.663   8.465
  207POPC   C3A 8009   1.295  17.528   8.086
  207POPC   C4A 8010   1.211  17.579   7.683
  207POPC   C1B 8011   1.182  16.927   8.766
  207POPC   C2B 8012   1.196  17.116   8.355
  207POPC   C3B 8013   1.084  17.081   7.902
  207POPC   C4B 8014   1.147  17.088   7.441
  208POPC   NC3 8015   3.311  29.204   9.644
  208POPC   PO4 8016   3.889  29.069   9.415
  208POPC   GL1 8017   3.513  29.060   9.165
  208POPC   GL2 8018   3.304  29.365   9.158
  208POPC   C1A 8019   3.289  29.043   8.778
  208POPC   D2A 8020   3.513  29.088   8.411
  208POPC   C3A 8021   3.378  28.815   8.120
  208POPC   C4A 8022   3.575  28.840   7.761
  208POPC   C1B 8023   3.150  29.550   8.753
  208POPC   C2B 8024   3.330  29.659   8.357
  208POPC   C3B 8025   3.368  29.387   7.992
  208POPC   C4B 8026   2.996  29.260   7.821
  209POPC   NC3 8027  11.414  23.567   9.623
  209POPC   PO4 8028  11.129  22.960   9.564
  209POPC   GL1 8029  11.148  23.113   9.174
  209POPC   GL2 8030  11.502  23.160   9.164
  209POPC   C1A 8031  10.988  23.194   8.771
  209POPC   D2A 8032  11.152  23.059   8.401
  209POPC   C3A 8033  11.031  23.177   8.008
  209POPC   C4A 8034  10.855  22.899   7.697
  209POPC   C1B 8035  11.460  22.877   8.792
  209POPC   C2B 8036  11.573  22.745   8.382
  209POPC   C3B 8037  11.379  22.784   7.996
  209POPC   C4B 8038  11.391  23.035   7.641
  210POPC   NC3 8039  28.004  22.161   9.662
  210POPC   PO4 8040  27.417  21.923   9.472
  210POPC   GL1 8041  27.716  22.057   9.228
  210POPC   GL2 8042  27.556  21.817   8.988
  210POPC   C1A 8043  27.839  22.214   8.842
  210POPC   D2A 8044  27.634  22.230   8.445
  210POPC   C3A 8045  27.792  22.044   8.070
  210POPC   C4A 8046  27.736  22.377   7.761
  210POPC   C1B 8047  27.548  21.727   8.564
  210POPC   C2B 8048  27.229  21.885   8.355
  210POPC   C3B 8049  27.291  22.143   8.063
  210POPC   C4B 8050  27.371  22.002   7.703
  211POPC   NC3 8051  24.597   7.741   9.256
  211POPC   PO4 8052  24.483   7.203   9.663
  211POPC   GL1 8053  24.376   7.225   9.200
  211POPC   GL2 8054  24.644   7.307   8.973
  211POPC   C1A 8055  24.202   7.400   8.776
  211POPC   D2A 8056  24.184   7.578   8.364
  211POPC   C3A 8057  24.400   7.539   7.967
  211POPC   C4A 8058  24.603   7.871   7.716
  211POPC   C1B 8059  24.715   7.575   8.582
  211POPC   C2B 8060  24.877   7.656   8.139
  211POPC   C3B 8061  24.834   7.380   7.757
  211POPC   C4B 8062  24.791   7.023   7.429
  212POPC   NC3 8063  17.155  41.797   9.490
  212POPC   PO4 8064  16.983  41.191   9.500
  212POPC   GL1 8065  17.323  41.229   9.198
  212POPC   GL2 8066  17.395  41.581   9.088
  212POPC   C1A 8067  17.431  41.171   8.779
  212POPC   D2A 8068  17.268  41.485   8.538
  212POPC   C3A 8069  17.301  41.481   8.098
  212POPC   C4A 8070  17.399  41.273   7.739
  212POPC   C1B 8071  17.554  41.890   8.793
  212POPC   C2B 8072  17.797  41.916   8.440
  212POPC   C3B 8073  17.657  41.920   8.038
  212POPC   C4B 8074  17.527  41.766   7.651
  213POPC   NC3 8075   6.966  12.689   9.381
  213POPC   PO4 8076   7.484  12.925   9.511
  213POPC   GL1 8077   7.423  12.960   9.124
  213POPC   GL2 8078   7.262  13.306   9.186
  213POPC   C1A 8079   7.625  12.766   8.790
  213POPC   D2A 8080   7.477  12.623   8.402
  213POPC   C3A 8081   7.642  12.630   8.003
  213POPC   C4A 8082   7.247  12.649   7.772
  213POPC   C1B 8083   7.492  13.359   8.807
  213POPC   C2B 8084   7.665  13.136   8.452
  213POPC   C3B 8085   7.640  13.230   8.047
  213POPC   C4B 8086   7.560  13.028   7.683
  214POPC   NC3 8087  13.901  43.654   9.431
  214POPC   PO4 8088  13.526  44.239   9.315
  214POPC   GL1 8089  13.669  43.982   9.068
  214POPC   GL2 8090  13.463  43.696   9.149
  214POPC   C1A 8091  13.564  44.010   8.646
  214POPC   D2A 8092  13.622  44.183   8.252
  214POPC   C3A 8093  13.538  43.966   7.858
  214POPC   C4A 8094  13.451  43.902   7.417
  214POPC   C1B 8095  13.753  43.558   8.782
  214POPC   C2B 8096  13.788  43.427   8.351
  214POPC   C3B 8097  13.894  43.467   7.919
  214POPC   C4B 8098  13.905  43.740   7.566
  215POPC   NC3 8099   9.967  17.919   9.445
  215POPC   PO4 8100   9.534  18.386   9.683
  215POPC   GL1 8101   9.516  18.372   9.225
  215POPC   GL2 8102   9.497  18.024   9.207
  215POPC   C1A 8103   9.624  18.501   8.785
  215POPC   D2A 8104   9.838  18.450   8.364
  215POPC   C3A 8105   9.637  18.402   7.988
  215POPC   C4A 8106   9.794  18.256   7.590
  215POPC   C1B 8107   9.397  18.030   8.775
  215POPC   C2B 8108   9.405  18.092   8.332
  215POPC   C3B 8109   9.342  17.994   7.899
  215POPC   C4B 8110   9.299  18.376   7.613
  216POPC   NC3 8111   2.069  38.412   9.668
  216POPC   PO4 8112   2.385  38.911   9.238
  216POPC   GL1 8113   2.035  38.656   8.940
  216POPC   GL2 8114   1.892  38.335   9.052
  216POPC   C1A 8115   2.017  38.447   8.560
  216POPC   D2A 8116   1.968  38.218   8.204
  216POPC   C3A 8117   2.006  38.514   7.902
  216POPC   C4A 8118   2.276  38.861   7.806
  216POPC   C1B 8119   1.591  38.231   8.733
  216POPC   C2B 8120   1.590  37.948   8.397
  216POPC   C3B 8121   1.580  37.977   7.955
  216POPC   C4B 8122   1.624  38.279   7.650
  217POPC   NC3 8123  34.832  23.156   9.425
  217POPC   PO4 8124  34.234  22.898   9.565
  217POPC   GL1 8125  34.507  22.845   9.143
  217POPC   GL2 8126  34.691  23.095   8.953
  217POPC   C1A 8127  34.551  22.648   8.723
  217POPC   D2A 8128  34.493  22.817   8.305
  217POPC   C3A 8129  34.637  22.651   7.928
  217POPC   C4A 8130  34.547  22.902   7.573
  217POPC   C1B 8131  34.342  23.137   8.698
  217POPC   C2B 8132  34.291  23.279   8.292
  217POPC   C3B 8133  34.596  23.250   7.948
  217POPC   C4B 8134  34.800  23.352   7.513
  218POPC   NC3 8135   2.228  23.555   9.428
  218POPC   PO4 8136   1.681  23.882   9.538
  218POPC   GL1 8137   1.922  23.917   9.150
  218POPC   GL2 8138   1.883  23.580   9.058
  218POPC   C1A 8139   1.805  23.882   8.691
  218POPC   D2A 8140   1.939  23.932   8.278
  218POPC   C3A 8141   1.766  23.739   7.930
  218POPC   C4A 8142   1.896  23.583   7.516
  218POPC   C1B 8143   2.244  23.568   8.734
  218POPC   C2B 8144   2.375  23.665   8.292
  218POPC   C3B 8145   2.228  23.503   7.906
  218POPC   C4B 8146   2.327  23.233   7.574
  219POPC   NC3 8147  22.383  42.980   9.347
  219POPC   PO4 8148  22.275  43.613   9.562
  219POPC   GL1 8149  22.126  43.396   9.186
  219POPC   GL2 8150  21.908  43.112   9.177
  219POPC   C1A 8151  22.144  43.267   8.729
  219POPC   D2A 8152  22.453  43.222   8.393
  219POPC   C3A 8153  22.346  43.173   7.976
  219POPC   C4A 8154  22.138  42.944   7.673
  219POPC   C1B 8155  21.832  42.844   8.828
  219POPC   C2B 8156  21.823  43.025   8.420
  219POPC   C3B 8157  21.794  42.853   8.035
  219POPC   C4B 8158  21.663  42.777   7.639
  220POPC   NC3 8159  14.718  43.300   9.492
  220POPC   PO4 8160  14.463  42.686   9.686
  220POPC   GL1 8161  14.463  42.885   9.214
  220POPC   GL2 8162  14.406  43.228   9.096
  220POPC   C1A 8163  14.241  42.888   8.767
  220POPC   D2A 8164  14.123  43.049   8.340
  220POPC   C3A 8165  14.314  43.171   7.928
  220POPC   C4A 8166  14.403  42.973   7.559
  220POPC   C1B 8167  14.266  43.425   8.692
  220POPC   C2B 8168  14.300  43.554   8.246
  220POPC   C3B 8169  14.395  43.666   7.815
  220POPC   C4B 8170  14.662  43.445   7.560
  221POPC   NC3 8171  21.763   6.694   9.750
  221POPC   PO4 8172  21.062   6.681   9.646
  221POPC   GL1 8173  21.259   6.747   9.220
  221POPC   GL2 8174  21.596   6.677   9.134
  221POPC   C1A 8175  21.230   6.571   8.810
  221POPC   D2A 8176  21.320   6.325   8.488
  221POPC   C3A 8177  21.368   6.554   8.086
  221POPC   C4A 8178  21.382   6.814   7.720
  221POPC   C1B 8179  21.631   6.895   8.718
  221POPC   C2B 8180  21.692   6.954   8.265
  221POPC   C3B 8181  21.849   6.728   7.917
  221POPC   C4B 8182  21.838   6.710   7.474
  222POPC   NC3 8183   4.372   2.059   9.451
  222POPC   PO4 8184   4.219   1.516   9.252
  222POPC   GL1 8185   4.547   1.786   9.064
  222POPC   GL2 8186   4.582   2.185   9.006
  222POPC   C1A 8187   4.326   1.905   8.693
  222POPC   D2A 8188   4.069   2.060   8.407
  222POPC   C3A 8189   4.190   1.899   8.033
  222POPC   C4A 8190   4.523   1.723   7.803
  222POPC   C1B 8191   4.403   2.406   8.605
  222POPC   C2B 8192   4.336   2.411   8.134
  222POPC   C3B 8193   4.429   2.250   7.715
  222POPC   C4B 8194   4.313   2.313   7.266
  223POPC   NC3 8195  44.306  44.490   9.459
  223POPC   PO4 8196  44.757  44.875   9.595
  223POPC   GL1 8197  44.640  44.791   9.196
  223POPC   GL2 8198  44.755  44.448   9.201
  223POPC   C1A 8199  44.484  44.967   8.808
  223POPC   D2A 8200  44.378  44.817   8.387
  223POPC   C3A 8201  44.728  44.769   8.072
  223POPC   C4A 8202  44.493  44.789   7.686
  223POPC   C1B 8203  44.501  44.449   8.827
  223POPC   C2B 8204  44.637  44.397   8.424
  223POPC   C3B 8205  44.506  44.329   7.998
  223POPC   C4B 8206  44.886  44.323   7.758
  224POPC   NC3 8207  14.735  23.142   9.382
  224POPC   PO4 8208  15.310  22.839   9.503
  224POPC   GL1 8209  15.196  22.796   9.140
  224POPC   GL2 8210  15.302  23.147   9.063
  224POPC   C1A 8211  15.414  22.736   8.781
  224POPC   D2A 8212  15.414  23.115   8.524
  224POPC   C3A 8213  15.373  23.063   8.073
  224POPC   C4A 8214  15.321  22.650   7.872
  224POPC   C1B 8215  14.966  23.060   8.756
  224POPC   C2B 8216  14.867  23.177   8.338
  224POPC   C3B 8217  14.902  23.033   7.893
  224POPC   C4B 8218  14.931  23.268   7.491
  225POPC   NC3 8219  27.004  26.032   9.520
  225POPC   PO4 8220  26.322  26.296   9.454
  225POPC   GL1 8221  26.635  26.044   9.177
  225POPC   GL2 8222  26.921  26.205   9.056
  225POPC   C1A 8223  26.665  25.825   8.778
  225POPC   D2A 8224  26.751  25.967   8.349
  225POPC   C3A 8225  26.686  25.741   7.995
  225POPC   C4A 8226  26.877  25.831   7.603
  225POPC   C1B 8227  26.827  26.363   8.655
  225POPC   C2B 8228  26.900  26.442   8.192
  225POPC   C3B 8229  26.708  26.238   7.873
  225POPC   C4B 8230  26.665  26.256   7.438
  226POPC   NC3 8231  43.496  44.407   9.524
  226POPC   PO4 8232  44.037  44.885   9.439
  226POPC   GL1 8233  43.840  44.761   9.108
  226POPC   GL2 8234  43.887  44.440   9.184
  226POPC   C1A 8235  44.017  44.678   8.713
  226POPC   D2A 8236  43.821  44.697   8.312
  226POPC   C3A 8237  44.092  44.641   7.969
  226POPC   C4A 8238  44.042  44.611   7.519
  226POPC   C1B 8239  43.685  44.314   8.830
  226POPC   C2B 8240  43.917  44.213   8.437
  226POPC   C3B 8241  43.768  44.241   8.012
  226POPC   C4B 8242  43.574  44.394   7.636
  227POPC   NC3 8243  36.732  42.098   9.419
  227POPC   PO4 8244  37.046  42.634   9.566
  227POPC   GL1 8245  36.998  42.490   9.145
  227POPC   GL2 8246  36.652  42.445   9.065
  227POPC   C1A 8247  37.082  42.468   8.709
  227POPC   D2A 8248  37.058  42.714   8.338
  227POPC   C3A 8249  36.980  42.448   8.002
  227POPC   C4A 8250  37.061  42.531   7.562
  227POPC   C1B 8251  36.663  42.154   8.739
  227POPC   C2B 8252  36.699  41.825   8.423
  227POPC   C3B 8253  36.627  41.830   7.982
  227POPC   C4B 8254  36.848  42.076   7.671
  228POPC   NC3 8255  26.119   5.615   9.470
  228POPC   PO4 8256  25.802   5.096   9.543
  228POPC   GL1 8257  26.008   5.132   9.133
  228POPC   GL2 8258  25.947   5.457   9.012
  228POPC   C1A 8259  26.066   4.915   8.710
  228POPC   D2A 8260  25.896   5.012   8.281
  228POPC   C3A 8261  26.119   4.987   7.870
  228POPC   C4A 8262  26.178   5.053   7.401
  228POPC   C1B 8263  26.098   5.411   8.585
  228POPC   C2B 8264  26.134   5.448   8.118
  228POPC   C3B 8265  26.025   5.475   7.688
  228POPC   C4B 8266  26.140   5.557   7.261
  229POPC   NC3 8267  24.995  38.433   9.784
  229POPC   PO4 8268  24.461  38.630   9.395
  229POPC   GL1 8269  24.453  38.574   8.960
  229POPC   GL2 8270  24.767  38.559   8.811
  229POPC   C1A 8271  24.360  38.659   8.508
  229POPC   D2A 8272  24.070  38.320   8.393
  229POPC   C3A 8273  24.092  38.165   8.005
  229POPC   C4A 8274  24.426  38.192   7.700
  229POPC   C1B 8275  24.567  38.197   8.643
  229POPC   C2B 8276  24.566  38.240   8.209
  229POPC   C3B 8277  24.801  38.475   7.933
  229POPC   C4B 8278  24.681  38.666   7.567
  230POPC   NC3 8279  25.055  39.968   9.495
  230POPC   PO4 8280  25.721  39.883   9.424
  230POPC   GL1 8281  25.513  40.223   9.114
  230POPC   GL2 8282  25.141  40.331   9.164
  230POPC   C1A 8283  25.459  40.133   8.653
  230POPC   D2A 8284  25.307  39.779   8.332
  230POPC   C3A 8285  25.287  39.934   7.908
  230POPC   C4A 8286  25.436  39.863   7.459
  230POPC   C1B 8287  24.965  40.058   8.829
  230POPC   C2B 8288  24.996  40.171   8.414
  230POPC   C3B 8289  24.811  40.065   8.036
  230POPC   C4B 8290  24.905  40.195   7.638
  231POPC   NC3 8291   5.344  27.215   9.577
  231POPC   PO4 8292   5.898  27.671   9.657
  231POPC   GL1 8293   5.998  27.681   9.207
  231POPC   GL2 8294   6.297  27.531   9.265
  231POPC   C1A 8295   5.833  27.714   8.755
  231POPC   D2A 8296   5.600  27.707   8.350
  231POPC   C3A 8297   5.821  27.558   8.003
  231POPC   C4A 8298   5.944  27.941   7.856
  231POPC   C1B 8299   6.267  27.389   8.842
  231POPC   C2B 8300   6.172  27.451   8.423
  231POPC   C3B 8301   6.367  27.489   8.045
  231POPC   C4B 8302   6.283  27.631   7.682
  232POPC   NC3 8303   8.151  42.181   9.363
  232POPC   PO4 8304   8.291  42.784   9.540
  232POPC   GL1 8305   8.342  42.598   9.151
  232POPC   GL2 8306   8.013  42.569   9.053
  232POPC   C1A 8307   8.377  42.412   8.719
  232POPC   D2A 8308   8.205  42.270   8.346
  232POPC   C3A 8309   8.280  42.528   8.000
  232POPC   C4A 8310   8.551  42.369   7.704
  232POPC   C1B 8311   7.869  42.221   8.770
  232POPC   C2B 8312   7.724  42.102   8.372
  232POPC   C3B 8313   7.833  42.255   7.986
  232POPC   C4B 8314   8.089  42.184   7.626
  233POPC   NC3 8315  43.749  31.044   9.800
  233POPC   PO4 8316  43.954  30.482   9.524
  233POPC   GL1 8317  44.059  30.627   9.142
  233POPC   GL2 8318  43.973  31.002   9.134
  233POPC   C1A 8319  43.946  30.673   8.715
  233POPC   D2A 8320  43.984  30.914   8.357
  233POPC   C3A 8321  43.812  30.611   8.130
  233POPC   C4A 8322  43.767  30.482   7.747
  233POPC   C1B 8323  43.693  31.121   8.770
  233POPC   C2B 8324  43.480  31.139   8.369
  233POPC   C3B 8325  43.643  31.067   7.962
  233POPC   C4B 8326  44.046  30.928   7.770
  234POPC   NC3 8327  37.921   5.220   9.574
  234POPC   PO4 8328  37.416   4.831   9.294
  234POPC   GL1 8329  37.727   5.027   9.147
  234POPC   GL2 8330  37.560   5.320   9.230
  234POPC   C1A 8331  37.837   4.888   8.763
  234POPC   D2A 8332  37.546   4.787   8.452
  234POPC   C3A 8333  37.638   4.959   8.058
  234POPC   C4A 8334  37.356   5.207   7.774
  234POPC   C1B 8335  37.634   5.365   8.780
  234POPC   C2B 8336  37.551   5.387   8.338
  234POPC   C3B 8337  37.762   5.469   7.956
  234POPC   C4B 8338  37.696   5.547   7.518
  235POPC   NC3 8339   3.100  13.027   9.564
  235POPC   PO4 8340   3.602  12.537   9.584
  235POPC   GL1 8341   3.542  12.830   9.240
  235POPC   GL2 8342   3.703  13.158   9.189
  235POPC   C1A 8343   3.350  12.772   8.837
  235POPC   D2A 8344   3.455  12.859   8.394
  235POPC   C3A 8345   3.613  12.541   8.089
  235POPC   C4A 8346   3.356  12.552   7.713
  235POPC   C1B 8347   3.841  12.947   8.789
  235POPC   C2B 8348   3.970  12.908   8.320
  235POPC   C3B 8349   3.727  13.051   7.958
  235POPC   C4B 8350   3.751  13.204   7.539
  236POPC   NC3 8351  34.149  16.478   9.508
  236POPC   PO4 8352  33.786  16.981   9.270
  236POPC   GL1 8353  33.850  16.643   9.097
  236POPC   GL2 8354  33.491  16.557   9.105
  236POPC   C1A 8355  33.994  16.698   8.683
  236POPC   D2A 8356  34.082  16.586   8.259
  236POPC   C3A 8357  33.881  16.883   7.951
  236POPC   C4A 8358  33.758  16.811   7.499
  236POPC   C1B 8359  33.529  16.474   8.674
  236POPC   C2B 8360  33.558  16.736   8.307
  236POPC   C3B 8361  33.451  16.608   7.877
  236POPC   C4B 8362  33.655  16.301   7.602
  237POPC   NC3 8363   1.231  35.966   9.611
  237POPC   PO4 8364   1.638  36.454   9.495
  237POPC   GL1 8365   1.322  36.394   9.129
  237POPC   GL2 8366   1.293  36.012   9.054
  237POPC   C1A 8367   1.170  36.311   8.652
  237POPC   D2A 8368   1.054  35.934   8.383
  237POPC   C3A 8369   0.926  35.931   7.974
  237POPC   C4A 8370   0.919  36.352   7.767
  237POPC   C1B 8371   1.490  35.896   8.621
  237POPC   C2B 8372   1.524  35.929   8.149
  237POPC   C3B 8373   1.365  36.052   7.742
  237POPC   C4B 8374   1.394  35.758   7.378
  238POPC   NC3 8375  37.129   0.483   9.608
  238POPC   PO4 8376  36.504   0.121   9.543
  238POPC   GL1 8377  36.633   0.214   9.163
  238POPC   GL2 8378  36.784   0.504   9.226
  238POPC   C1A 8379  36.881   0.290   8.765
  238POPC   D2A 8380  36.697   0.193   8.390
  238POPC   C3A 8381  36.912   0.176   8.036
  238POPC   C4A 8382  36.789   0.062   7.642
  238POPC   C1B 8383  36.496   0.617   8.886
  238POPC   C2B 8384  36.647   0.688   8.464
  238POPC   C3B 8385  36.536   0.569   8.055
  238POPC   C4B 8386  36.796   0.586   7.718
  239POPC   NC3 8387  25.703  41.087   9.547
  239POPC   PO4 8388  25.095  41.329   9.349
  239POPC   GL1 8389  25.175  41.659   9.075
  239POPC   GL2 8390  25.517  41.680   9.171
  239POPC   C1A 8391  25.084  41.801   8.677
  239POPC   D2A 8392  25.187  41.583   8.319
  239POPC   C3A 8393  25.107  41.771   7.940
  239POPC   C4A 8394  25.065  41.505   7.567
  239POPC   C1B 8395  25.550  41.530   8.755
  239POPC   C2B 8396  25.734  41.673   8.397
  239POPC   C3B 8397  25.644  41.648   8.020
  239POPC   C4B 8398  25.514  41.716   7.643
  240POPC   NC3 8399   6.055  19.272   9.477
  240POPC   PO4 8400   5.643  18.671   9.531
  240POPC   GL1 8401   5.634  18.947   9.171
  240POPC   GL2 8402   5.957  19.050   9.051
  240POPC   C1A 8403   5.616  18.984   8.696
  240POPC   D2A 8404   5.918  18.886   8.395
  240POPC   C3A 8405   5.844  19.127   8.039
  240POPC   C4A 8406   5.947  18.956   7.652
  240POPC   C1B 8407   6.186  19.187   8.726
  240POPC   C2B 8408   6.238  19.323   8.335
  240POPC   C3B 8409   6.319  19.201   7.915
  240POPC   C4B 8410   6.213  19.396   7.535
  241POPC   NC3 8411   8.767  31.459   9.441
  241POPC   PO4 8412   8.088  31.402   9.593
  241POPC   GL1 8413   8.282  31.248   9.218
  241POPC   GL2 8414   8.408  31.548   9.080
  241POPC   C1A 8415   8.247  31.144   8.758
  241POPC   D2A 8416   8.084  31.055   8.314
  241POPC   C3A 8417   8.261  31.233   7.909
  241POPC   C4A 8418   8.294  31.469   7.465
  241POPC   C1B 8419   8.179  31.667   8.708
  241POPC   C2B 8420   8.170  31.577   8.270
  241POPC   C3B 8421   8.140  31.754   7.855
  241POPC   C4B 8422   8.409  31.951   7.542
  242POPC   NC3 8423   4.233  38.805   9.477
  242POPC   PO4 8424   4.511  38.169   9.698
  242POPC   GL1 8425   4.287  38.299   9.249
  242POPC   GL2 8426   4.215  38.006   9.075
  242POPC   C1A 8427   4.278  38.585   8.860
  242POPC   D2A 8428   4.475  38.724   8.487
  242POPC   C3A 8429   4.231  38.526   8.182
  242POPC   C4A 8430   4.360  38.341   7.816
  242POPC   C1B 8431   4.106  38.165   8.644
  242POPC   C2B 8432   3.878  38.125   8.249
  242POPC   C3B 8433   3.874  38.076   7.783
  242POPC   C4B 8434   3.843  38.297   7.396
  243POPC   NC3 8435  42.581  12.522   9.492
  243POPC   PO4 8436  43.248  12.583   9.430
  243POPC   GL1 8437  43.132  12.870   9.102
  243POPC   GL2 8438  42.772  12.860   9.132
  243POPC   C1A 8439  43.051  12.883   8.672
  243POPC   D2A 8440  42.925  12.935   8.283
  243POPC   C3A 8441  43.233  12.825   7.992
  243POPC   C4A 8442  43.209  12.896   7.565
  243POPC   C1B 8443  42.850  12.465   8.882
  243POPC   C2B 8444  42.884  12.434   8.413
  243POPC   C3B 8445  42.778  12.574   7.943
  243POPC   C4B 8446  42.873  12.491   7.483
  244POPC   NC3 8447  16.057  21.106   9.507
  244POPC   PO4 8448  15.705  21.602   9.735
  244POPC   GL1 8449  15.755  21.520   9.275
  244POPC   GL2 8450  15.619  21.183   9.244
  244POPC   C1A 8451  15.804  21.708   8.832
  244POPC   D2A 8452  15.874  21.835   8.397
  244POPC   C3A 8453  16.095  21.541   8.133
  244POPC   C4A 8454  16.199  21.275   7.780
  244POPC   C1B 8455  15.576  21.263   8.796
  244POPC   C2B 8456  15.584  21.318   8.329
  244POPC   C3B 8457  15.727  21.162   7.897
  244POPC   C4B 8458  15.739  21.151   7.421
  245POPC   NC3 8459   5.254  23.358   9.432
  245POPC   PO4 8460   4.754  22.932   9.424
  245POPC   GL1 8461   4.968  23.039   9.069
  245POPC   GL2 8462   4.898  23.358   9.085
  245POPC   C1A 8463   5.061  22.907   8.651
  245POPC   D2A 8464   4.996  22.696   8.238
  245POPC   C3A 8465   5.272  22.819   7.905
  245POPC   C4A 8466   5.191  22.993   7.472
  245POPC   C1B 8467   4.763  23.385   8.671
  245POPC   C2B 8468   4.751  23.143   8.277
  245POPC   C3B 8469   4.825  23.054   7.838
  245POPC   C4B 8470   4.715  23.359   7.513
  246POPC   NC3 8471  15.028  20.662   9.514
  246POPC   PO4 8472  15.684  20.471   9.546
  246POPC   GL1 8473  15.368  20.466   9.167
  246POPC   GL2 8474  15.056  20.256   9.165
  246POPC   C1A 8475  15.070  20.669   8.852
  246POPC   D2A 8476  14.857  20.683   8.432
  246POPC   C3A 8477  15.149  20.812   8.105
  246POPC   C4A 8478  15.414  20.810   7.702
  246POPC   C1B 8479  14.880  20.211   8.725
  246POPC   C2B 8480  15.137  20.252   8.352
  246POPC   C3B 8481  15.441  20.351   8.054
  246POPC   C4B 8482  15.108  20.386   7.795
  247POPC   NC3 8483  22.480  14.898   9.334
  247POPC   PO4 8484  21.863  15.173   9.497
  247POPC   GL1 8485  22.006  15.006   9.133
  247POPC   GL2 8486  22.159  15.320   9.059
  247POPC   C1A 8487  22.172  14.961   8.716
  247POPC   D2A 8488  22.213  15.212   8.355
  247POPC   C3A 8489  22.175  15.072   7.956
  247POPC   C4A 8490  22.491  15.104   7.673
  247POPC   C1B 8491  21.864  15.365   8.699
  247POPC   C2B 8492  21.829  15.531   8.281
  247POPC   C3B 8493  21.804  15.407   7.852
  247POPC   C4B 8494  22.148  15.428   7.493
  248POPC   NC3 8495   0.709  18.045   9.420
  248POPC   PO4 8496   1.171  18.486   9.541
  248POPC   GL1 8497   1.191  18.258   9.127
  248POPC   GL2 8498   1.300  17.892   9.071
  248POPC   C1A 8499   1.430  18.212   8.716
  248POPC   D2A 8500   1.476  18.053   8.319
  248POPC   C3A 8501   1.483  18.383   8.045
  248POPC   C4A 8502   1.555  18.385   7.634
  248POPC   C1B 8503   0.956  17.999   8.765
  248POPC   C2B 8504   0.790  17.939   8.343
  248POPC   C3B 8505   1.064  17.983   7.998
  248POPC   C4B 8506   1.080  18.217   7.637
  249POPC   NC3 8507  44.191  13.521   9.662
  249POPC   PO4 8508  43.538  13.482   9.456
  249POPC   GL1 8509  43.898  13.257   9.206
  249POPC   GL2 8510  44.238  13.433   9.159
  249POPC   C1A 8511  43.983  13.320   8.749
  249POPC   D2A 8512  43.801  13.485   8.353
  249POPC   C3A 8513  43.939  13.594   7.935
  249POPC   C4A 8514  43.690  13.666   7.570
  249POPC   C1B 8515  44.401  13.663   8.782
  249POPC   C2B 8516  44.307  13.755   8.324
  249POPC   C3B 8517  44.229  14.019   7.957
  249POPC   C4B 8518  44.095  13.962   7.521
  250POPC   NC3 8519  39.771  31.704   9.540
  250POPC   PO4 8520  40.287  32.019   9.355
  250POPC   GL1 8521  40.212  31.609   9.084
  250POPC   GL2 8522  40.110  31.241   9.061
  250POPC   C1A 8523  39.914  31.544   8.712
  250POPC   D2A 8524  39.823  31.748   8.321
  250POPC   C3A 8525  40.149  31.748   8.002
  250POPC   C4A 8526  40.156  31.655   7.545
  250POPC   C1B 8527  40.124  31.058   8.666
  250POPC   C2B 8528  39.957  31.218   8.279
  250POPC   C3B 8529  39.975  31.287   7.850
  250POPC   C4B 8530  39.780  31.316   7.459
  251POPC   NC3 8531  27.039  19.977   9.448
  251POPC   PO4 8532  26.829  19.403   9.229
  251POPC   GL1 8533  26.783  19.780   9.054
  251POPC   GL2 8534  26.616  20.119   9.159
  251POPC   C1A 8535  27.045  19.952   8.772
  251POPC   D2A 8536  27.285  19.814   8.424
  251POPC   C3A 8537  27.020  19.742   8.085
  251POPC   C4A 8538  26.696  19.470   7.964
  251POPC   C1B 8539  26.527  20.053   8.740
  251POPC   C2B 8540  26.604  19.774   8.412
  251POPC   C3B 8541  26.391  19.881   8.045
  251POPC   C4B 8542  26.567  19.886   7.632
  252POPC   NC3 8543   4.754  24.222   9.368
  252POPC   PO4 8544   4.234  23.782   9.581
  252POPC   GL1 8545   4.208  23.622   9.192
  252POPC   GL2 8546   4.553  23.716   9.147
  252POPC   C1A 8547   4.249  23.527   8.770
  252POPC   D2A 8548   4.326  23.387   8.380
  252POPC   C3A 8549   4.158  23.693   8.087
  252POPC   C4A 8550   4.083  23.622   7.643
  252POPC   C1B 8551   4.595  23.910   8.741
  252POPC   C2B 8552   4.842  23.796   8.356
  252POPC   C3B 8553   4.658  23.753   7.932
  252POPC   C4B 8554   4.380  24.064   7.745
  253POPC   NC3 8555  33.328  19.635   9.403
  253POPC   PO4 8556  32.754  19.967   9.492
  253POPC   GL1 8557  32.999  19.969   9.162
  253POPC   GL2 8558  32.910  19.617   9.116
  253POPC   C1A 8559  33.137  20.173   8.808
  253POPC   D2A 8560  32.944  20.111   8.428
  253POPC   C3A 8561  33.076  19.898   8.068
  253POPC   C4A 8562  33.218  20.097   7.704
  253POPC   C1B 8563  33.090  19.674   8.724
  253POPC   C2B 8564  32.809  19.603   8.404
  253POPC   C3B 8565  32.740  19.516   8.004
  253POPC   C4B 8566  32.873  19.695   7.630
  254POPC   NC3 8567   1.977  35.506   9.393
  254POPC   PO4 8568   1.774  34.854   9.319
  254POPC   GL1 8569   2.137  34.922   9.038
  254POPC   GL2 8570   1.985  35.226   8.972
  254POPC   C1A 8571   2.233  35.054   8.587
  254POPC   D2A 8572   1.976  35.011   8.226
  254POPC   C3A 8573   1.908  35.381   8.023
  254POPC   C4A 8574   2.218  35.580   7.825
  254POPC   C1B 8575   1.716  34.968   8.686
  254POPC   C2B 8576   1.475  34.903   8.321
  254POPC   C3B 8577   1.528  35.024   7.928
  254POPC   C4B 8578   1.910  34.907   7.724
  255POPC   NC3 8579  14.589  16.875   9.618
  255POPC   PO4 8580  14.083  17.322   9.555
  255POPC   GL1 8581  14.234  16.985   9.220
  255POPC   GL2 8582  14.448  16.672   9.171
  255POPC   C1A 8583  14.406  16.984   8.783
  255POPC   D2A 8584  14.432  16.749   8.426
  255POPC   C3A 8585  14.288  16.947   8.066
  255POPC   C4A 8586  14.320  16.750   7.698
  255POPC   C1B 8587  14.308  16.410   8.809
  255POPC   C2B 8588  14.009  16.459   8.419
  255POPC   C3B 8589  14.179  16.359   8.002
  255POPC   C4B 8590  14.151  16.267   7.529
  256POPC   NC3 8591  35.942  17.206   9.454
  256POPC   PO4 8592  36.256  17.886   9.451
  256POPC   GL1 8593  36.070  17.613   9.189
  256POPC   GL2 8594  36.324  17.325   9.112
  256POPC   C1A 8595  35.886  17.521   8.822
  256POPC   D2A 8596  36.006  17.665   8.434
  256POPC   C3A 8597  36.132  17.357   8.137
  256POPC   C4A 8598  36.071  17.482   7.749
  256POPC   C1B 8599  36.438  17.626   8.803
  256POPC   C2B 8600  36.508  17.578   8.381
  256POPC   C3B 8601  36.343  17.822   8.068
  256POPC   C4B 8602  36.413  17.919   7.690
  257POPC   NC3 8603  22.658   6.322   9.591
  257POPC   PO4 8604  23.117   5.790   9.498
  257POPC   GL1 8605  22.864   5.867   9.103
  257POPC   GL2 8606  22.618   5.586   9.015
  257POPC   C1A 8607  22.953   6.025   8.662
  257POPC   D2A 8608  22.845   5.866   8.215
  257POPC   C3A 8609  23.149   5.914   7.868
  257POPC   C4A 8610  23.083   6.020   7.433
  257POPC   C1B 8611  22.510   5.824   8.624
  257POPC   C2B 8612  22.599   6.267   8.387
  257POPC   C3B 8613  22.677   6.274   7.953
  257POPC   C4B 8614  22.668   5.895   7.706
  258POPC   NC3 8615  34.845  24.735   9.390
  258POPC   PO4 8616  34.461  24.284   9.569
  258POPC   GL1 8617  34.467  24.436   9.173
  258POPC   GL2 8618  34.791  24.307   9.075
  258POPC   C1A 8619  34.195  24.577   8.858
  258POPC   D2A 8620  34.080  24.545   8.434
  258POPC   C3A 8621  34.446  24.700   8.173
  258POPC   C4A 8622  34.799  24.812   7.904
  258POPC   C1B 8623  34.732  24.572   8.728
  258POPC   C2B 8624  34.808  24.376   8.343
  258POPC   C3B 8625  35.049  24.184   8.047
  258POPC   C4B 8626  35.103  24.425   7.712
  259POPC   NC3 8627   0.741  13.358   9.415
  259POPC   PO4 8628   0.379  13.832   9.774
  259POPC   GL1 8629   0.594  13.813   9.308
  259POPC   GL2 8630   0.386  13.630   9.097
  259POPC   C1A 8631   0.798  13.961   8.923
  259POPC   D2A 8632   0.880  13.941   8.472
  259POPC   C3A 8633   0.679  13.650   8.126
  259POPC   C4A 8634   0.405  13.364   7.842
  259POPC   C1B 8635   0.411  13.709   8.684
  259POPC   C2B 8636   0.198  13.788   8.323
  259POPC   C3B 8637   0.213  13.817   7.908
  259POPC   C4B 8638  44.943  13.583   7.668
  260POPC   NC3 8639  40.402   3.434   9.460
  260POPC   PO4 8640  39.940   3.890   9.542
  260POPC   GL1 8641  40.087   3.712   9.177
  260POPC   GL2 8642  39.934   3.390   9.264
  260POPC   C1A 8643  40.348   3.681   8.788
  260POPC   D2A 8644  40.388   3.723   8.322
  260POPC   C3A 8645  40.155   3.444   8.060
  260POPC   C4A 8646  39.989   3.547   7.691
  260POPC   C1B 8647  39.840   3.399   8.836
  260POPC   C2B 8648  39.833   3.605   8.435
  260POPC   C3B 8649  39.600   3.565   8.034
  260POPC   C4B 8650  39.545   3.768   7.621
  261POPC   NC3 8651  36.692  13.421   9.352
  261POPC   PO4 8652  36.524  14.104   9.460
  261POPC   GL1 8653  36.784  13.977   9.083
  261POPC   GL2 8654  36.841  13.647   8.940
  261POPC   C1A 8655  37.121  14.028   8.785
  261POPC   D2A 8656  37.230  13.904   8.346
  261POPC   C3A 8657  36.961  14.012   7.970
  261POPC   C4A 8658  36.924  14.022   7.522
  261POPC   C1B 8659  37.167  13.520   8.682
  261POPC   C2B 8660  37.101  13.387   8.237
  261POPC   C3B 8661  36.863  13.409   7.856
  261POPC   C4B 8662  36.771  13.175   7.467
  262POPC   NC3 8663   8.891  21.587   9.389
  262POPC   PO4 8664   8.864  20.885   9.585
  262POPC   GL1 8665   8.712  21.118   9.204
  262POPC   GL2 8666   9.025  21.244   9.034
  262POPC   C1A 8667   8.613  21.306   8.778
  262POPC   D2A 8668   8.955  21.322   8.509
  262POPC   C3A 8669   8.896  21.482   8.124
  262POPC   C4A 8670   8.757  21.650   7.745
  262POPC   C1B 8671   9.280  20.997   8.766
  262POPC   C2B 8672   9.218  20.906   8.336
  262POPC   C3B 8673   9.399  21.244   8.152
  262POPC   C4B 8674   9.275  21.485   7.810
  263POPC   NC3 8675  25.611  25.484   9.525
  263POPC   PO4 8676  25.643  24.770   9.487
  263POPC   GL1 8677  25.409  25.109   9.238
  263POPC   GL2 8678  25.038  25.138   9.208
  263POPC   C1A 8679  25.414  25.051   8.813
  263POPC   D2A 8680  25.662  25.075   8.463
  263POPC   C3A 8681  25.621  25.360   8.139
  263POPC   C4A 8682  25.616  25.228   7.754
  263POPC   C1B 8683  25.117  25.457   8.901
  263POPC   C2B 8684  25.281  25.451   8.510
  263POPC   C3B 8685  25.099  25.320   8.163
  263POPC   C4B 8686  25.123  25.403   7.743
  264POPC   NC3 8687   9.240  17.242   9.566
  264POPC   PO4 8688   8.670  17.677   9.401
  264POPC   GL1 8689   8.994  17.472   9.184
  264POPC   GL2 8690   8.924  17.180   9.053
  264POPC   C1A 8691   9.154  17.590   8.801
  264POPC   D2A 8692   9.277  17.581   8.375
  264POPC   C3A 8693   8.949  17.560   8.038
  264POPC   C4A 8694   9.117  17.557   7.604
  264POPC   C1B 8695   8.718  17.324   8.680
  264POPC   C2B 8696   8.567  17.231   8.251
  264POPC   C3B 8697   8.495  17.190   7.802
  264POPC   C4B 8698   8.769  17.227   7.412
  265POPC   NC3 8699  24.646   9.438   9.152
  265POPC   PO4 8700  24.839  10.029   9.474
  265POPC   GL1 8701  24.559  10.085   9.111
  265POPC   GL2 8702  24.285   9.879   9.132
  265POPC   C1A 8703  24.502  10.006   8.672
  265POPC   D2A 8704  24.629   9.791   8.315
  265POPC   C3A 8705  24.566  10.025   7.959
  265POPC   C4A 8706  24.608   9.742   7.650
  265POPC   C1B 8707  24.083   9.694   8.766
  265POPC   C2B 8708  24.135   9.572   8.307
  265POPC   C3B 8709  24.140   9.723   7.877
  265POPC   C4B 8710  24.137   9.588   7.453
  266POPC   NC3 8711   7.847  12.518   9.530
  266POPC   PO4 8712   7.245  12.014   9.476
  266POPC   GL1 8713   7.314  12.369   9.225
  266POPC   GL2 8714   7.611  12.377   9.116
  266POPC   C1A 8715   7.216  12.436   8.805
  266POPC   D2A 8716   7.209  12.119   8.500
  266POPC   C3A 8717   7.248  12.259   8.109
  266POPC   C4A 8718   7.132  12.169   7.702
  266POPC   C1B 8719   7.555  11.964   8.860
  266POPC   C2B 8720   7.548  11.689   8.476
  266POPC   C3B 8721   7.534  11.840   8.049
  266POPC   C4B 8722   7.619  12.175   7.750
  267POPC   NC3 8723  34.623  32.167   9.502
  267POPC   PO4 8724  35.015  31.685   9.232
  267POPC   GL1 8725  34.709  31.936   9.017
  267POPC   GL2 8726  34.603  32.306   9.002
  267POPC   C1A 8727  34.738  32.026   8.586
  267POPC   D2A 8728  34.555  31.866   8.251
  267POPC   C3A 8729  34.725  32.010   7.877
  267POPC   C4A 8730  34.719  32.090   7.409
  267POPC   C1B 8731  34.366  32.365   8.594
  267POPC   C2B 8732  34.390  32.538   8.170
  267POPC   C3B 8733  34.481  32.429   7.745
  267POPC   C4B 8734  34.565  32.651   7.341
  268POPC   NC3 8735  21.300  35.244   9.651
  268POPC   PO4 8736  21.865  35.368   9.805
  268POPC   GL1 8737  21.601  35.486   9.331
  268POPC   GL2 8738  21.269  35.344   9.162
  268POPC   C1A 8739  21.549  35.633   8.855
  268POPC   D2A 8740  21.349  35.526   8.453
  268POPC   C3A 8741  21.535  35.574   8.024
  268POPC   C4A 8742  21.352  35.628   7.599
  268POPC   C1B 8743  21.605  35.139   8.946
  268POPC   C2B 8744  21.602  35.077   8.528
  268POPC   C3B 8745  21.306  35.107   8.166
  268POPC   C4B 8746  21.334  35.162   7.741
  269POPC   NC3 8747   2.510  20.326   9.435
  269POPC   PO4 8748   2.857  20.863   9.655
  269POPC   GL1 8749   2.820  20.704   9.227
  269POPC   GL2 8750   2.517  20.731   9.092
  269POPC   C1A 8751   2.892  20.702   8.769
  269POPC   D2A 8752   2.670  20.730   8.367
  269POPC   C3A 8753   2.935  20.947   8.053
  269POPC   C4A 8754   3.055  20.900   7.591
  269POPC   C1B 8755   2.502  20.344   8.786
  269POPC   C2B 8756   2.557  20.166   8.370
  269POPC   C3B 8757   2.483  20.325   7.956
  269POPC   C4B 8758   2.365  20.176   7.554
  270POPC   NC3 8759  12.250  27.789   9.410
  270POPC   PO4 8760  11.533  27.800   9.494
  270POPC   GL1 8761  11.805  27.815   9.120
  270POPC   GL2 8762  11.915  27.482   9.129
  270POPC   C1A 8763  11.958  27.752   8.675
  270POPC   D2A 8764  11.938  27.900   8.226
  270POPC   C3A 8765  12.171  27.684   7.916
  270POPC   C4A 8766  12.294  27.452   7.538
  270POPC   C1B 8767  11.845  27.265   8.715
  270POPC   C2B 8768  11.888  27.376   8.253
  270POPC   C3B 8769  11.943  27.195   7.818
  270POPC   C4B 8770  11.849  27.268   7.351
  271POPC   NC3 8771  35.242  43.203   9.554
  271POPC   PO4 8772  35.854  43.510   9.411
  271POPC   GL1 8773  35.716  43.243   9.074
  271POPC   GL2 8774  35.503  42.938   9.155
  271POPC   C1A 8775  35.443  43.207   8.721
  271POPC   D2A 8776  35.136  43.195   8.417
  271POPC   C3A 8777  35.327  43.412   8.114
  271POPC   C4A 8778  35.347  43.368   7.691
  271POPC   C1B 8779  35.648  42.736   8.729
  271POPC   C2B 8780  35.698  42.938   8.288
  271POPC   C3B 8781  35.684  43.034   7.848
  271POPC   C4B 8782  35.484  42.945   7.409
  272POPC   NC3 8783  27.209  37.185   9.793
  272POPC   PO4 8784  26.937  37.740   9.461
  272POPC   GL1 8785  26.621  37.631   9.116
  272POPC   GL2 8786  26.530  37.292   9.194
  272POPC   C1A 8787  26.610  37.750   8.695
  272POPC   D2A 8788  26.888  37.747   8.333
  272POPC   C3A 8789  26.671  37.691   7.965
  272POPC   C4A 8790  26.721  37.887   7.597
  272POPC   C1B 8791  26.794  37.266   8.805
  272POPC   C2B 8792  26.665  37.284   8.367
  272POPC   C3B 8793  26.959  37.279   8.032
  272POPC   C4B 8794  26.957  37.422   7.629
  273POPC   NC3 8795  27.093  39.379   9.391
  273POPC   PO4 8796  27.757  39.190   9.552
  273POPC   GL1 8797  27.550  39.158   9.140
  273POPC   GL2 8798  27.429  39.496   9.025
  273POPC   C1A 8799  27.626  38.993   8.706
  273POPC   D2A 8800  27.785  38.858   8.251
  273POPC   C3A 8801  27.509  39.030   7.948
  273POPC   C4A 8802  27.233  39.410   7.994
  273POPC   C1B 8803  27.834  39.459   8.799
  273POPC   C2B 8804  27.922  39.337   8.374
  273POPC   C3B 8805  27.777  39.463   7.947
  273POPC   C4B 8806  27.965  39.828   7.722
  274POPC   NC3 8807   4.926  41.566   9.754
  274POPC   PO4 8808   5.522  41.472   9.471
  274POPC   GL1 8809   5.177  41.620   9.261
  274POPC   GL2 8810   5.270  41.459   9.008
  274POPC   C1A 8811   4.836  41.723   8.972
  274POPC   D2A 8812   4.812  41.778   8.507
  274POPC   C3A 8813   4.892  41.469   8.179
  274POPC   C4A 8814   4.921  41.410   7.730
  274POPC   C1B 8815   5.286  41.822   8.741
  274POPC   C2B 8816   5.301  41.923   8.306
  274POPC   C3B 8817   5.293  41.723   7.885
  274POPC   C4B 8818   5.623  41.730   7.533
  275POPC   NC3 8819  44.379  10.371   9.280
  275POPC   PO4 8820   0.024  10.614   9.545
  275POPC   GL1 8821  44.819  10.716   9.152
  275POPC   GL2 8822  44.730  10.440   8.937
  275POPC   C1A 8823  44.851  10.881   8.758
  275POPC   D2A 8824  44.764  10.631   8.395
  275POPC   C3A 8825  44.492  10.602   8.051
  275POPC   C4A 8826  44.763  10.684   7.731
  275POPC   C1B 8827  44.386  10.360   8.630
  275POPC   C2B 8828  44.259  10.180   8.270
  275POPC   C3B 8829  44.416   9.966   7.932
  275POPC   C4B 8830  44.428  10.232   7.590
  276POPC   NC3 8831   4.004  43.738   9.653
  276POPC   PO4 8832   4.509  44.240   9.498
  276POPC   GL1 8833   4.264  44.004   9.263
  276POPC   GL2 8834   4.542  43.774   9.241
  276POPC   C1A 8835   4.210  44.092   8.839
  276POPC   D2A 8836   4.417  44.266   8.508
  276POPC   C3A 8837   4.307  44.096   8.120
  276POPC   C4A 8838   4.276  44.087   7.702
  276POPC   C1B 8839   4.649  43.793   8.827
  276POPC   C2B 8840   4.466  43.707   8.439
  276POPC   C3B 8841   4.662  43.752   8.059
  276POPC   C4B 8842   4.587  43.628   7.658
  277POPC   NC3 8843  35.823  44.785   9.566
  277POPC   PO4 8844  36.092  44.219   9.666
  277POPC   GL1 8845  36.011  44.444   9.251
  277POPC   GL2 8846  36.221  44.761   9.239
  277POPC   C1A 8847  35.979  44.531   8.795
  277POPC   D2A 8848  36.135  44.400   8.366
  277POPC   C3A 8849  36.064  44.645   7.981
  277POPC   C4A 8850  36.051  44.541   7.537
  277POPC   C1B 8851  36.425  44.812   8.844
  277POPC   C2B 8852  36.278  44.898   8.419
  277POPC   C3B 8853  36.401   0.044   7.995
  277POPC   C4B 8854  36.287   0.000   7.563
  278POPC   NC3 8855   3.920  13.584   9.434
  278POPC   PO4 8856   3.292  13.419   9.424
  278POPC   GL1 8857   3.321  13.520   9.047
  278POPC   GL2 8858   3.646  13.647   8.984
  278POPC   C1A 8859   3.407  13.265   8.728
  278POPC   D2A 8860   3.674  13.325   8.419
  278POPC   C3A 8861   3.562  13.563   8.110
  278POPC   C4A 8862   3.329  13.362   7.802
  278POPC   C1B 8863   3.382  13.787   8.603
  278POPC   C2B 8864   3.400  14.096   8.243
  278POPC   C3B 8865   3.661  14.007   7.889
  278POPC   C4B 8866   3.683  13.688   7.610
  279POPC   NC3 8867  13.267  23.434   9.554
  279POPC   PO4 8868  13.378  22.740   9.516
  279POPC   GL1 8869  13.042  22.837   9.207
  279POPC   GL2 8870  12.939  23.205   9.187
  279POPC   C1A 8871  12.939  22.689   8.797
  279POPC   D2A 8872  13.036  22.886   8.405
  279POPC   C3A 8873  13.004  22.758   8.014
  279POPC   C4A 8874  12.671  22.669   7.763
  279POPC   C1B 8875  12.806  23.205   8.757
  279POPC   C2B 8876  12.670  23.353   8.351
  279POPC   C3B 8877  12.817  23.239   7.966
  279POPC   C4B 8878  12.857  23.412   7.569
  280POPC   NC3 8879   6.966  27.027   9.360
  280POPC   PO4 8880   6.447  26.875   9.818
  280POPC   GL1 8881   6.361  26.845   9.335
  280POPC   GL2 8882   6.503  27.087   9.173
  280POPC   C1A 8883   6.548  26.669   8.895
  280POPC   D2A 8884   6.761  26.670   8.504
  280POPC   C3A 8885   6.597  26.467   8.146
  280POPC   C4A 8886   6.710  26.604   7.734
  280POPC   C1B 8887   6.731  27.124   8.781
  280POPC   C2B 8888   6.651  27.199   8.381
  280POPC   C3B 8889   6.525  26.999   8.022
  280POPC   C4B 8890   6.542  27.149   7.608
  281POPC   NC3 8891   6.600  22.649   9.525
  281POPC   PO4 8892   6.937  22.149   9.573
  281POPC   GL1 8893   6.613  22.196   9.228
  281POPC   GL2 8894   6.312  21.935   9.248
  281POPC   C1A 8895   6.683  22.252   8.793
  281POPC   D2A 8896   6.741  21.977   8.452
  281POPC   C3A 8897   6.814  22.180   8.075
  281POPC   C4A 8898   6.867  21.932   7.729
  281POPC   C1B 8899   6.189  22.132   8.869
  281POPC   C2B 8900   6.278  22.209   8.461
  281POPC   C3B 8901   6.303  22.009   8.074
  281POPC   C4B 8902   6.417  22.235   7.749
  282POPC   NC3 8903   3.799   0.420   9.322
  282POPC   PO4 8904   3.095   0.591   9.553
  282POPC   GL1 8905   3.307   0.774   9.213
  282POPC   GL2 8906   3.405   0.475   9.025
  282POPC   C1A 8907   3.315   0.895   8.776
  282POPC   D2A 8908   3.392   0.803   8.375
  282POPC   C3A 8909   3.298   0.460   8.182
  282POPC   C4A 8910   3.458   0.634   7.819
  282POPC   C1B 8911   3.690   0.493   8.638
  282POPC   C2B 8912   3.811   0.462   8.171
  282POPC   C3B 8913   3.936   0.440   7.714
  282POPC   C4B 8914   3.997   0.200   7.306
  283POPC   NC3 8915  14.718  18.585   9.513
  283POPC   PO4 8916  15.415  18.674   9.576
  283POPC   GL1 8917  15.271  18.400   9.247
  283POPC   GL2 8918  14.957  18.255   9.217
  283POPC   C1A 8919  15.320  18.293   8.835
  283POPC   D2A 8920  15.172  18.429   8.439
  283POPC   C3A 8921  15.154  18.093   8.165
  283POPC   C4A 8922  15.168  18.104   7.738
  283POPC   C1B 8923  14.810  18.373   8.803
  283POPC   C2B 8924  14.677  18.304   8.376
  283POPC   C3B 8925  14.849  18.463   8.014
  283POPC   C4B 8926  14.815  18.693   7.670
  284POPC   NC3 8927  21.025   7.121   9.480
  284POPC   PO4 8928  21.748   7.061   9.459
  284POPC   GL1 8929  21.500   7.201   9.141
  284POPC   GL2 8930  21.221   7.419   9.100
  284POPC   C1A 8931  21.613   7.421   8.765
  284POPC   D2A 8932  21.796   7.680   8.460
  284POPC   C3A 8933  21.635   7.547   8.037
  284POPC   C4A 8934  21.730   7.192   7.767
  284POPC   C1B 8935  21.163   7.080   8.797
  284POPC   C2B 8936  21.201   6.929   8.388
  284POPC   C3B 8937  21.218   7.214   7.999
  284POPC   C4B 8938  21.171   7.671   7.826
  285POPC   NC3 8939  10.605  42.900   9.538
  285POPC   PO4 8940  10.565  43.584   9.310
  285POPC   GL1 8941  10.690  43.222   9.149
  285POPC   GL2 8942  10.394  43.029   9.115
  285POPC   C1A 8943  10.700  43.165   8.740
  285POPC   D2A 8944  10.568  43.361   8.396
  285POPC   C3A 8945  10.793  43.226   8.040
  285POPC   C4A 8946  10.987  43.363   7.694
  285POPC   C1B 8947  10.299  42.791   8.781
  285POPC   C2B 8948  10.235  42.972   8.402
  285POPC   C3B 8949  10.281  43.191   8.026
  285POPC   C4B 8950  10.285  43.002   7.673
  286POPC   NC3 8951  10.761  40.224   9.626
  286POPC   PO4 8952  10.583  40.825   9.478
  286POPC   GL1 8953  10.574  40.711   9.074
  286POPC   GL2 8954  10.828  40.437   9.110
  286POPC   C1A 8955  10.615  40.984   8.709
  286POPC   D2A 8956  10.406  41.097   8.326
  286POPC   C3A 8957  10.349  40.809   8.002
  286POPC   C4A 8958  10.215  40.429   7.873
  286POPC   C1B 8959  10.767  40.460   8.659
  286POPC   C2B 8960  10.781  40.678   8.243
  286POPC   C3B 8961  10.755  40.522   7.793
  286POPC   C4B 8962  10.880  40.521   7.309
  287POPC   NC3 8963  18.443  10.139   9.609
  287POPC   PO4 8964  18.115  10.678   9.520
  287POPC   GL1 8965  18.320  10.588   9.134
  287POPC   GL2 8966  18.234  10.268   9.163
  287POPC   C1A 8967  18.237  10.718   8.699
  287POPC   D2A 8968  17.901  10.749   8.386
  287POPC   C3A 8969  18.096  10.834   7.976
  287POPC   C4A 8970  18.432  10.649   7.730
  287POPC   C1B 8971  18.348  10.210   8.726
  287POPC   C2B 8972  18.385  10.418   8.319
  287POPC   C3B 8973  18.264  10.225   7.965
  287POPC   C4B 8974  18.410  10.078   7.596
  288POPC   NC3 8975  33.353  26.248   9.413
  288POPC   PO4 8976  33.277  25.636   9.415
  288POPC   GL1 8977  33.238  25.874   9.031
  288POPC   GL2 8978  32.868  25.921   8.997
  288POPC   C1A 8979  33.273  25.867   8.574
  288POPC   D2A 8980  32.877  25.775   8.422
  288POPC   C3A 8981  32.759  26.032   8.144
  288POPC   C4A 8982  32.923  25.958   7.721
  288POPC   C1B 8983  32.912  26.220   8.645
  288POPC   C2B 8984  32.925  26.562   8.374
  288POPC   C3B 8985  33.012  26.439   7.931
  288POPC   C4B 8986  32.890  26.400   7.445
  289POPC   NC3 8987   6.337  39.172   9.875
  289POPC   PO4 8988   5.843  39.221   9.394
  289POPC   GL1 8989   5.690  39.231   9.025
  289POPC   GL2 8990   5.363  39.116   9.070
  289POPC   C1A 8991   5.830  39.430   8.678
  289POPC   D2A 8992   6.025  39.752   8.473
  289POPC   C3A 8993   5.986  39.609   8.097
  289POPC   C4A 8994   5.819  39.278   7.846
  289POPC   C1B 8995   5.445  39.046   8.628
  289POPC   C2B 8996   5.763  39.034   8.308
  289POPC   C3B 8997   5.463  38.940   7.968
  289POPC   C4B 8998   5.497  39.007   7.543
  290POPC   NC3 8999  38.615   6.682   9.679
  290POPC   PO4 9000  38.221   6.364   9.210
  290POPC   GL1 9001  38.479   6.598   9.001
  290POPC   GL2 9002  38.648   6.832   9.161
  290POPC   C1A 9003  38.537   6.747   8.596
  290POPC   D2A 9004  38.693   6.504   8.289
  290POPC   C3A 9005  38.447   6.478   7.923
  290POPC   C4A 9006  37.994   6.515   7.858
  290POPC   C1B 9007  38.813   7.088   8.850
  290POPC   C2B 9008  38.766   7.173   8.396
  290POPC   C3B 9009  38.670   6.980   8.005
  290POPC   C4B 9010  38.260   6.957   7.800
  291POPC   NC3 9011  37.327  16.886   9.784
  291POPC   PO4 9012  37.960  16.900   9.583
  291POPC   GL1 9013  37.690  16.901   9.177
  291POPC   GL2 9014  37.303  16.835   9.191
  291POPC   C1A 9015  37.698  16.790   8.708
  291POPC   D2A 9016  37.798  16.897   8.255
  291POPC   C3A 9017  37.815  16.603   7.890
  291POPC   C4A 9018  38.102  16.646   7.532
  291POPC   C1B 9019  37.232  17.004   8.774
  291POPC   C2B 9020  37.270  16.795   8.406
  291POPC   C3B 9021  37.370  16.862   7.974
  291POPC   C4B 9022  37.616  17.146   7.735
  292POPC   NC3 9023   7.774  18.603   9.324
  292POPC   PO4 9024   7.266  19.018   9.479
  292POPC   GL1 9025   7.298  19.061   9.085
  292POPC   GL2 9026   7.656  19.069   9.089
  292POPC   C1A 9027   7.114  19.189   8.725
  292POPC   D2A 9028   7.341  19.268   8.386
  292POPC   C3A 9029   7.182  19.244   7.973
  292POPC   C4A 9030   7.188  19.330   7.533
  292POPC   C1B 9031   7.626  18.953   8.659
  292POPC   C2B 9032   7.861  19.116   8.317
  292POPC   C3B 9033   7.931  19.157   7.895
  292POPC   C4B 9034   7.911  18.706   7.820
  293POPC   NC3 9035  35.853  39.599   9.221
  293POPC   PO4 9036  35.309  39.924   9.330
  293POPC   GL1 9037  35.565  40.005   9.025
  293POPC   GL2 9038  35.531  39.721   8.834
  293POPC   C1A 9039  35.493  40.232   8.673
  293POPC   D2A 9040  35.643  40.003   8.347
  293POPC   C3A 9041  35.476  40.058   7.979
  293POPC   C4A 9042  35.164  40.266   7.743
  293POPC   C1B 9043  35.095  39.920   8.721
  293POPC   C2B 9044  34.995  40.021   8.283
  293POPC   C3B 9045  35.022  39.802   7.926
  293POPC   C4B 9046  34.855  39.848   7.494
  294POPC   NC3 9047  35.597   5.195   9.500
  294POPC   PO4 9048  36.270   4.989   9.399
  294POPC   GL1 9049  35.976   5.093   9.130
  294POPC   GL2 9050  35.970   5.436   9.237
  294POPC   C1A 9051  35.975   5.007   8.691
  294POPC   D2A 9052  36.360   5.008   8.421
  294POPC   C3A 9053  36.300   5.099   7.996
  294POPC   C4A 9054  35.966   4.905   7.786
  294POPC   C1B 9055  36.005   5.509   8.783
  294POPC   C2B 9056  36.010   5.405   8.340
  294POPC   C3B 9057  35.995   5.544   7.905
  294POPC   C4B 9058  35.838   5.659   7.465
  295POPC   NC3 9059  27.369  41.208   9.516
  295POPC   PO4 9060  27.699  41.847   9.456
  295POPC   GL1 9061  27.639  41.635   9.145
  295POPC   GL2 9062  27.271  41.640   9.192
  295POPC   C1A 9063  27.822  41.639   8.753
  295POPC   D2A 9064  28.054  41.578   8.386
  295POPC   C3A 9065  27.901  41.644   7.976
  295POPC   C4A 9066  27.723  41.629   7.558
  295POPC   C1B 9067  27.351  41.406   8.809
  295POPC   C2B 9068  27.576  41.357   8.395
  295POPC   C3B 9069  27.415  41.472   7.956
  295POPC   C4B 9070  27.267  41.427   7.505
  296POPC   NC3 9071  19.117  25.019   9.933
  296POPC   PO4 9072  19.574  25.414   9.599
  296POPC   GL1 9073  19.289  25.410   9.194
  296POPC   GL2 9074  19.036  25.142   9.192
  296POPC   C1A 9075  19.100  25.422   8.754
  296POPC   D2A 9076  19.120  25.557   8.317
  296POPC   C3A 9077  18.878  25.317   7.985
  296POPC   C4A 9078  18.925  25.334   7.545
  296POPC   C1B 9079  18.946  24.908   8.826
  296POPC   C2B 9080  18.978  25.043   8.406
  296POPC   C3B 9081  19.162  24.885   8.028
  296POPC   C4B 9082  18.974  24.832   7.655
  297POPC   NC3 9083  18.806  13.388   9.360
  297POPC   PO4 9084  19.138  12.792   9.569
  297POPC   GL1 9085  19.155  12.912   9.158
  297POPC   GL2 9086  18.802  12.942   9.102
  297POPC   C1A 9087  19.123  12.657   8.791
  297POPC   D2A 9088  18.977  12.595   8.381
  297POPC   C3A 9089  19.230  12.891   8.146
  297POPC   C4A 9090  19.287  12.907   7.704
  297POPC   C1B 9091  18.930  13.161   8.720
  297POPC   C2B 9092  18.771  13.156   8.296
  297POPC   C3B 9093  18.805  13.052   7.880
  297POPC   C4B 9094  18.835  13.336   7.551
  298POPC   NC3 9095  33.216  16.338   9.475
  298POPC   PO4 9096  32.737  15.858   9.488
  298POPC   GL1 9097  33.076  15.863   9.177
  298POPC   GL2 9098  33.141  15.512   9.064
  298POPC   C1A 9099  33.260  15.837   8.713
  298POPC   D2A 9100  33.564  15.899   8.401
  298POPC   C3A 9101  33.455  16.060   8.028
  298POPC   C4A 9102  33.304  15.814   7.728
  298POPC   C1B 9103  32.770  15.681   8.824
  298POPC   C2B 9104  32.671  15.690   8.407
  298POPC   C3B 9105  32.969  15.792   8.127
  298POPC   C4B 9106  32.800  15.951   7.790
  299POPC   NC3 9107   7.079  13.727   9.557
  299POPC   PO4 9108   7.749  13.737   9.551
  299POPC   GL1 9109   7.515  13.786   9.220
  299POPC   GL2 9110   7.756  14.062   9.155
  299POPC   C1A 9111   7.239  13.828   8.864
  299POPC   D2A 9112   7.280  13.956   8.419
  299POPC   C3A 9113   7.278  13.630   8.087
  299POPC   C4A 9114   7.402  13.513   7.686
  299POPC   C1B 9115   7.766  13.807   8.784
  299POPC   C2B 9116   7.697  13.646   8.405
  299POPC   C3B 9117   7.728  13.865   8.051
  299POPC   C4B 9118   7.816  13.841   7.634
  300POPC   NC3 9119  13.230  18.412  10.034
  300POPC   PO4 9120  12.996  18.256   9.435
  300POPC   GL1 9121  12.847  18.297   9.046
  300POPC   GL2 9122  12.518  18.385   8.995
  300POPC   C1A 9123  12.841  18.420   8.622
  300POPC   D2A 9124  12.902  18.522   8.267
  300POPC   C3A 9125  12.807  18.321   7.928
  300POPC   C4A 9126  13.031  18.369   7.593
  300POPC   C1B 9127  12.414  18.166   8.709
  300POPC   C2B 9128  12.574  18.059   8.313
  300POPC   C3B 9129  12.563  17.878   7.904
  300POPC   C4B 9130  12.640  18.044   7.496
  301POPC   NC3 9131   4.704   5.684   9.758
  301POPC   PO4 9132   4.178   5.770   9.645
  301POPC   GL1 9133   4.076   5.979   9.241
  301POPC   GL2 9134   4.096   5.672   9.047
  301POPC   C1A 9135   3.950   6.138   8.836
  301POPC   D2A 9136   4.192   6.044   8.442
  301POPC   C3A 9137   4.221   6.175   8.007
  301POPC   C4A 9138   4.379   6.116   7.588
  301POPC   C1B 9139   3.876   5.683   8.617
  301POPC   C2B 9140   3.890   5.732   8.146
  301POPC   C3B 9141   4.195   5.683   7.797
  301POPC   C4B 9142   4.112   5.736   7.340
  302POPC   NC3 9143  28.167  41.803   9.422
  302POPC   PO4 9144  28.476  41.236   9.611
  302POPC   GL1 9145  28.426  41.405   9.188
  302POPC   GL2 9146  28.088  41.305   9.098
  302POPC   C1A 9147  28.380  41.696   8.795
  302POPC   D2A 9148  28.423  41.922   8.374
  302POPC   C3A 9149  28.420  41.829   7.954
  302POPC   C4A 9150  28.218  41.734   7.568
  302POPC   C1B 9151  28.345  41.190   8.728
  302POPC   C2B 9152  28.383  41.202   8.293
  302POPC   C3B 9153  28.498  41.323   7.896
  302POPC   C4B 9154  28.886  41.212   7.727
  303POPC   NC3 9155  41.037   9.250   9.459
  303POPC   PO4 9156  40.635   8.668   9.439
  303POPC   GL1 9157  40.716   8.966   9.156
  303POPC   GL2 9158  41.053   8.851   9.101
  303POPC   C1A 9159  40.601   8.954   8.725
  303POPC   D2A 9160  40.611   8.658   8.409
  303POPC   C3A 9161  40.689   8.816   8.002
  303POPC   C4A 9162  40.504   9.170   7.818
  303POPC   C1B 9163  41.066   9.158   8.802
  303POPC   C2B 9164  41.046   8.972   8.384
  303POPC   C3B 9165  41.038   9.199   8.011
  303POPC   C4B 9166  41.160   9.141   7.607
  304POPC   NC3 9167  35.037  35.714   9.795
  304POPC   PO4 9168  35.162  35.073   9.468
  304POPC   GL1 9169  35.357  35.276   9.053
  304POPC   GL2 9170  35.651  35.525   9.074
  304POPC   C1A 9171  35.226  35.179   8.633
  304POPC   D2A 9172  35.344  34.984   8.240
  304POPC   C3A 9173  35.254  35.299   7.915
  304POPC   C4A 9174  34.947  35.627   7.892
  304POPC   C1B 9175  35.514  35.644   8.693
  304POPC   C2B 9176  35.303  35.613   8.314
  304POPC   C3B 9177  35.606  35.687   7.966
  304POPC   C4B 9178  35.585  35.566   7.545
  305POPC   NC3 9179   4.820   0.912  10.014
  305POPC   PO4 9180   5.108   1.102   9.445
  305POPC   GL1 9181   5.165   1.105   9.049
  305POPC   GL2 9182   5.479   0.950   9.080
  305POPC   C1A 9183   4.976   1.319   8.697
  305POPC   D2A 9184   4.825   1.484   8.307
  305POPC   C3A 9185   4.937   1.130   8.122
  305POPC   C4A 9186   4.971   0.992   7.721
  305POPC   C1B 9187   5.600   0.903   8.649
  305POPC   C2B 9188   5.447   1.039   8.255
  305POPC   C3B 9189   5.471   1.024   7.804
  305POPC   C4B 9190   5.488   0.767   7.397
  306POPC   NC3 9191  23.633  19.627   9.546
  306POPC   PO4 9192  23.912  20.232   9.475
  306POPC   GL1 9193  23.700  19.998   9.157
  306POPC   GL2 9194  23.946  19.781   9.114
  306POPC   C1A 9195  23.649  19.897   8.695
  306POPC   D2A 9196  23.781  19.598   8.372
  306POPC   C3A 9197  23.541  19.591   7.948
  306POPC   C4A 9198  23.385  19.854   7.618
  306POPC   C1B 9199  24.164  19.983   8.798
  306POPC   C2B 9200  24.218  19.942   8.376
  306POPC   C3B 9201  24.115  20.157   8.015
  306POPC   C4B 9202  23.874  19.960   7.727
  307POPC   NC3 9203  11.056  34.494   9.407
  307POPC   PO4 9204  10.411  34.421   9.543
  307POPC   GL1 9205  10.350  34.509   9.138
  307POPC   GL2 9206  10.668  34.616   9.071
  307POPC   C1A 9207  10.397  34.502   8.679
  307POPC   D2A 9208  10.231  34.774   8.398
  307POPC   C3A 9209  10.254  34.505   8.093
  307POPC   C4A 9210  10.330  34.531   7.703
  307POPC   C1B 9211  10.585  34.964   8.797
  307POPC   C2B 9212  10.734  34.939   8.431
  307POPC   C3B 9213  10.767  34.603   8.174
  307POPC   C4B 9214  10.841  34.636   7.732
  308POPC   NC3 9215  31.102   1.517   9.585
  308POPC   PO4 9216  30.528   1.710   9.704
  308POPC   GL1 9217  30.711   1.740   9.244
  308POPC   GL2 9218  31.091   1.737   9.103
  308POPC   C1A 9219  30.539   1.827   8.801
  308POPC   D2A 9220  30.640   1.755   8.343
  308POPC   C3A 9221  30.563   2.099   8.055
  308POPC   C4A 9222  30.747   2.257   7.695
  308POPC   C1B 9223  31.038   1.915   8.652
  308POPC   C2B 9224  31.084   1.995   8.184
  308POPC   C3B 9225  30.961   1.795   7.783
  308POPC   C4B 9226  30.931   1.928   7.328
  309POPC   NC3 9227   3.035  22.145   9.465
  309POPC   PO4 9228   3.756  21.945   9.421
  309POPC   GL1 9229   3.614  22.183   9.105
  309POPC   GL2 9230   3.280  22.290   9.034
  309POPC   C1A 9231   3.513  21.969   8.715
  309POPC   D2A 9232   3.704  22.083   8.365
  309POPC   C3A 9233   3.525  22.044   8.003
  309POPC   C4A 9234   3.680  22.197   7.648
  309POPC   C1B 9235   3.135  22.627   8.784
  309POPC   C2B 9236   2.962  22.521   8.411
  309POPC   C3B 9237   2.967  22.499   7.990
  309POPC   C4B 9238   3.172  22.268   7.712
  310POPC   NC3 9239  33.157  44.767   9.792
  310POPC   PO4 9240  32.824  44.304   9.367
  310POPC   GL1 9241  32.926  44.611   9.126
  310POPC   GL2 9242  33.253  44.708   9.254
  310POPC   C1A 9243  32.812  44.780   8.716
  310POPC   D2A 9244  33.014   0.011   8.376
  310POPC   C3A 9245  32.933  44.772   8.024
  310POPC   C4A 9246  32.581  44.743   7.782
  310POPC   C1B 9247  33.274  44.454   8.830
  310POPC   C2B 9248  33.175  44.531   8.453
  310POPC   C3B 9249  33.448  44.712   8.181
  310POPC   C4B 9250  33.382  44.894   7.821
  311POPC   NC3 9251   0.933  11.902   9.444
  311POPC   PO4 9252   1.483  12.195   9.531
  311POPC   GL1 9253   1.233  12.275   9.199
  311POPC   GL2 9254   1.316  11.933   9.081
  311POPC   C1A 9255   1.241  12.336   8.767
  311POPC   D2A 9256   1.185  12.084   8.396
  311POPC   C3A 9257   1.193  12.290   7.969
  311POPC   C4A 9258   1.047  12.355   7.574
  311POPC   C1B 9259   1.333  11.669   8.705
  311POPC   C2B 9260   1.212  11.557   8.303
  311POPC   C3B 9261   1.298  11.783   7.994
  311POPC   C4B 9262   1.195  11.854   7.616
  312POPC   NC3 9263  20.066  40.499   9.591
  312POPC   PO4 9264  19.575  40.993   9.449
  312POPC   GL1 9265  19.757  40.664   9.180
  312POPC   GL2 9266  20.055  40.867   9.231
  312POPC   C1A 9267  19.860  40.493   8.751
  312POPC   D2A 9268  19.984  40.353   8.319
  312POPC   C3A 9269  19.838  40.546   7.943
  312POPC   C4A 9270  19.753  40.753   7.540
  312POPC   C1B 9271  19.976  40.996   8.820
  312POPC   C2B 9272  20.030  40.857   8.390
  312POPC   C3B 9273  19.879  41.045   8.005
  312POPC   C4B 9274  19.931  41.228   7.625
  313POPC   NC3 9275   7.698  41.439   9.581
  313POPC   PO4 9276   7.014  41.659   9.530
  313POPC   GL1 9277   7.283  41.500   9.241
  313POPC   GL2 9278   7.527  41.767   9.224
  313POPC   C1A 9279   7.433  41.363   8.847
  313POPC   D2A 9280   7.206  41.320   8.458
  313POPC   C3A 9281   7.469  41.417   8.086
  313POPC   C4A 9282   7.357  41.473   7.656
  313POPC   C1B 9283   7.462  41.893   8.802
  313POPC   C2B 9284   7.293  41.835   8.378
  313POPC   C3B 9285   7.331  41.899   7.943
  313POPC   C4B 9286   7.666  41.914   7.635
  314POPC   NC3 9287  13.740  17.038   9.373
  314POPC   PO4 9288  13.400  16.592   9.516
  314POPC   GL1 9289  13.588  16.586   9.107
  314POPC   GL2 9290  13.953  16.512   9.200
  314POPC   C1A 9291  13.479  16.704   8.634
  314POPC   D2A 9292  13.490  16.429   8.236
  314POPC   C3A 9293  13.708  16.456   7.837
  314POPC   C4A 9294  13.559  16.783   7.590
  314POPC   C1B 9295  13.955  16.776   8.825
  314POPC   C2B 9296  13.901  16.981   8.453
  314POPC   C3B 9297  13.787  16.917   8.040
  314POPC   C4B 9298  13.964  17.110   7.654
  315POPC   NC3 9299  23.625  13.197   9.451
  315POPC   PO4 9300  24.198  13.465   9.365
  315POPC   GL1 9301  23.838  13.699   9.141
  315POPC   GL2 9302  23.452  13.725   9.197
  315POPC   C1A 9303  23.689  13.948   8.788
  315POPC   D2A 9304  23.764  13.928   8.365
  315POPC   C3A 9305  23.459  13.805   8.120
  315POPC   C4A 9306  23.470  13.550   7.800
  315POPC   C1B 9307  23.536  13.468   8.818
  315POPC   C2B 9308  23.760  13.394   8.446
  315POPC   C3B 9309  23.670  13.167   8.077
  315POPC   C4B 9310  23.985  13.055   7.828
  316POPC   NC3 9311  13.914  20.183   9.461
  316POPC   PO4 9312  14.564  20.536   9.421
  316POPC   GL1 9313  14.393  20.656   9.036
  316POPC   GL2 9314  14.114  20.403   9.003
  316POPC   C1A 9315  14.359  20.621   8.587
  316POPC   D2A 9316  14.374  20.255   8.335
  316POPC   C3A 9317  14.679  20.305   8.070
  316POPC   C4A 9318  14.643  20.733   7.938
  316POPC   C1B 9319  13.947  20.809   8.846
  316POPC   C2B 9320  14.092  21.070   8.506
  316POPC   C3B 9321  14.182  20.964   8.106
  316POPC   C4B 9322  14.090  20.755   7.717
  317POPC   NC3 9323  27.910  36.601   9.375
  317POPC   PO4 9324  28.331  37.047   9.823
  317POPC   GL1 9325  28.332  37.082   9.346
  317POPC   GL2 9326  28.369  36.790   9.082
  317POPC   C1A 9327  28.358  37.230   8.873
  317POPC   D2A 9328  28.503  36.900   8.570
  317POPC   C3A 9329  28.479  36.936   8.136
  317POPC   C4A 9330  28.425  37.024   7.700
  317POPC   C1B 9331  28.143  36.586   8.748
  317POPC   C2B 9332  28.065  36.657   8.333
  317POPC   C3B 9333  28.162  36.602   7.895
  317POPC   C4B 9334  28.107  36.516   7.431
  318POPC   NC3 9335  38.884  32.157   9.630
  318POPC   PO4 9336  38.749  32.751   9.325
  318POPC   GL1 9337  39.014  32.365   9.173
  318POPC   GL2 9338  38.872  32.006   9.138
  318POPC   C1A 9339  39.340  32.408   8.857
  318POPC   D2A 9340  39.157  32.512   8.444
  318POPC   C3A 9341  39.123  32.297   8.043
  318POPC   C4A 9342  38.786  32.163   7.796
  318POPC   C1B 9343  39.060  32.031   8.714
  318POPC   C2B 9344  39.243  31.874   8.295
  318POPC   C3B 9345  39.175  31.822   7.833
  318POPC   C4B 9346  38.978  31.922   7.385
  319POPC   NC3 9347  11.697  32.902   9.553
  319POPC   PO4 9348  11.252  33.309   9.766
  319POPC   GL1 9349  11.299  33.256   9.265
  319POPC   GL2 9350  11.465  33.015   9.085
  319POPC   C1A 9351  11.024  33.103   8.854
  319POPC   D2A 9352  11.225  33.122   8.404
  319POPC   C3A 9353  11.201  32.834   8.053
  319POPC   C4A 9354  11.009  32.850   7.667
  319POPC   C1B 9355  11.372  32.750   8.725
  319POPC   C2B 9356  11.614  32.719   8.346
  319POPC   C3B 9357  11.609  32.556   7.921
  319POPC   C4B 9358  11.487  32.713   7.517
  320POPC   NC3 9359  34.705  27.728   9.484
  320POPC   PO4 9360  34.186  27.355   9.428
  320POPC   GL1 9361  34.449  27.486   9.111
  320POPC   GL2 9362  34.443  27.166   9.002
  320POPC   C1A 9363  34.680  27.770   8.824
  320POPC   D2A 9364  34.580  27.904   8.399
  320POPC   C3A 9365  34.796  27.730   8.004
  320POPC   C4A 9366  34.622  27.705   7.589
  320POPC   C1B 9367  34.517  27.344   8.612
  320POPC   C2B 9368  34.580  27.314   8.206
  320POPC   C3B 9369  34.304  27.266   7.924
  320POPC   C4B 9370  34.310  27.311   7.505
  321POPC   NC3 9371  10.175  43.546   9.559
  321POPC   PO4 9372   9.537  43.842   9.486
  321POPC   GL1 9373   9.598  44.046   9.127
  321POPC   GL2 9374   9.961  44.052   9.213
  321POPC   C1A 9375   9.416  43.968   8.727
  321POPC   D2A 9376   9.448  43.637   8.413
  321POPC   C3A 9377   9.632  43.812   8.042
  321POPC   C4A 9378   9.729  43.679   7.642
  321POPC   C1B 9379   9.930  43.769   8.856
  321POPC   C2B 9380  10.207  43.712   8.511
  321POPC   C3B 9381  10.138  43.693   8.091
  321POPC   C4B 9382  10.167  43.952   7.769
  322POPC   NC3 9383  42.274  15.261  10.007
  322POPC   PO4 9384  42.436  14.827   9.704
  322POPC   GL1 9385  42.473  14.999   9.241
  322POPC   GL2 9386  42.241  15.298   9.125
  322POPC   C1A 9387  42.510  15.081   8.764
  322POPC   D2A 9388  42.389  15.227   8.354
  322POPC   C3A 9389  42.540  15.093   7.953
  322POPC   C4A 9390  42.585  15.231   7.517
  322POPC   C1B 9391  42.045  15.421   8.691
  322POPC   C2B 9392  42.103  15.626   8.269
  322POPC   C3B 9393  42.297  15.538   7.859
  322POPC   C4B 9394  42.085  15.349   7.505
  323POPC   NC3 9395  38.192  17.322   9.686
  323POPC   PO4 9396  38.767  17.481   9.689
  323POPC   GL1 9397  38.489  17.470   9.287
  323POPC   GL2 9398  38.259  17.182   9.181
  323POPC   C1A 9399  38.426  17.562   8.823
  323POPC   D2A 9400  38.183  17.717   8.445
  323POPC   C3A 9401  38.386  17.761   8.023
  323POPC   C4A 9402  38.464  17.448   7.720
  323POPC   C1B 9403  38.073  17.204   8.707
  323POPC   C2B 9404  38.215  17.221   8.252
  323POPC   C3B 9405  38.118  17.078   7.819
  323POPC   C4B 9406  38.318  17.090   7.380
  324POPC   NC3 9407  12.291  17.348   9.583
  324POPC   PO4 9408  12.033  18.014   9.558
  324POPC   GL1 9409  12.238  17.744   9.176
  324POPC   GL2 9410  12.289  17.366   9.090
  324POPC   C1A 9411  12.342  17.685   8.717
  324POPC   D2A 9412  12.542  17.552   8.360
  324POPC   C3A 9413  12.253  17.384   8.098
  324POPC   C4A 9414  12.081  17.542   7.745
  324POPC   C1B 9415  12.320  17.160   8.679
  324POPC   C2B 9416  12.635  17.045   8.373
  324POPC   C3B 9417  12.589  16.995   7.958
  324POPC   C4B 9418  12.265  17.059   7.670
  325POPC   NC3 9419  32.403  19.685   9.365
  325POPC   PO4 9420  31.964  20.263   9.441
  325POPC   GL1 9421  32.093  20.039   9.142
  325POPC   GL2 9422  32.411  20.119   9.120
  325POPC   C1A 9423  32.095  19.808   8.773
  325POPC   D2A 9424  32.099  19.525   8.423
  325POPC   C3A 9425  32.116  19.736   8.031
  325POPC   C4A 9426  32.374  19.688   7.702
  325POPC   C1B 9427  32.610  19.909   8.786
  325POPC   C2B 9428  32.422  19.962   8.401
  325POPC   C3B 9429  32.596  20.001   8.031
  325POPC   C4B 9430  32.574  20.150   7.630
  326POPC   NC3 9431   3.697  30.167   9.602
  326POPC   PO4 9432   3.608  29.546   9.733
  326POPC   GL1 9433   3.577  29.759   9.309
  326POPC   GL2 9434   3.883  29.817   9.127
  326POPC   C1A 9435   3.448  29.985   8.906
  326POPC   D2A 9436   3.728  29.988   8.535
  326POPC   C3A 9437   3.667  30.207   8.151
  326POPC   C4A 9438   3.771  30.133   7.732
  326POPC   C1B 9439   3.671  29.521   8.819
  326POPC   C2B 9440   3.824  29.488   8.406
  326POPC   C3B 9441   3.763  29.714   8.038
  326POPC   C4B 9442   3.359  29.897   7.888
  327POPC   NC3 9443  21.470  31.078   9.428
  327POPC   PO4 9444  20.806  30.951   9.367
  327POPC   GL1 9445  21.004  30.747   9.025
  327POPC   GL2 9446  21.298  30.593   9.183
  327POPC   C1A 9447  21.058  30.781   8.578
  327POPC   D2A 9448  20.946  30.951   8.170
  327POPC   C3A 9449  21.312  31.048   7.868
  327POPC   C4A 9450  21.527  30.842   7.500
  327POPC   C1B 9451  21.517  30.648   8.799
  327POPC   C2B 9452  21.520  30.789   8.355
  327POPC   C3B 9453  21.450  30.563   7.982
  327POPC   C4B 9454  21.719  30.247   7.859
  328POPC   NC3 9455  30.433  34.097   9.430
  328POPC   PO4 9456  30.984  33.724   9.481
  328POPC   GL1 9457  30.776  33.761   9.131
  328POPC   GL2 9458  30.948  33.419   9.038
  328POPC   C1A 9459  30.733  33.996   8.730
  328POPC   D2A 9460  30.897  33.947   8.291
  328POPC   C3A 9461  30.647  33.953   7.885
  328POPC   C4A 9462  30.292  34.116   7.661
  328POPC   C1B 9463  30.613  33.496   8.737
  328POPC   C2B 9464  30.528  33.576   8.330
  328POPC   C3B 9465  30.824  33.499   8.010
  328POPC   C4B 9466  30.713  33.544   7.569
  329POPC   NC3 9467  20.600  15.338   9.497
  329POPC   PO4 9468  20.592  14.700   9.446
  329POPC   GL1 9469  20.692  14.957   9.106
  329POPC   GL2 9470  20.381  15.131   9.058
  329POPC   C1A 9471  20.769  15.116   8.688
  329POPC   D2A 9472  20.874  15.444   8.423
  329POPC   C3A 9473  20.877  15.318   8.037
  329POPC   C4A 9474  20.940  14.943   7.827
  329POPC   C1B 9475  20.283  14.967   8.632
  329POPC   C2B 9476  20.468  14.903   8.199
  329POPC   C3B 9477  20.464  15.173   7.808
  329POPC   C4B 9478  20.393  15.509   7.471
  330POPC   NC3 9479  28.265  21.093   9.644
  330POPC   PO4 9480  28.262  21.760   9.648
  330POPC   GL1 9481  28.240  21.488   9.288
  330POPC   GL2 9482  27.926  21.561   9.205
  330POPC   C1A 9483  28.303  21.304   8.866
  330POPC   D2A 9484  28.422  21.109   8.495
  330POPC   C3A 9485  28.313  21.228   8.109
  330POPC   C4A 9486  28.504  21.236   7.734
  330POPC   C1B 9487  28.010  21.715   8.792
  330POPC   C2B 9488  28.005  21.598   8.334
  330POPC   C3B 9489  28.051  21.612   7.881
  330POPC   C4B 9490  28.098  21.655   7.402
  331POPC   NC3 9491  41.176   4.068   9.432
  331POPC   PO4 9492  41.717   4.478   9.596
  331POPC   GL1 9493  41.752   4.583   9.173
  331POPC   GL2 9494  41.434   4.412   9.083
  331POPC   C1A 9495  41.843   4.506   8.724
  331POPC   D2A 9496  41.589   4.281   8.409
  331POPC   C3A 9497  41.522   4.426   7.981
  331POPC   C4A 9498  41.640   4.095   7.698
  331POPC   C1B 9499  41.188   4.229   8.737
  331POPC   C2B 9500  41.076   4.288   8.294
  331POPC   C3B 9501  41.227   4.014   7.986
  331POPC   C4B 9502  41.205   3.826   7.608
  332POPC   NC3 9503   0.668  39.049   9.631
  332POPC   PO4 9504   0.061  39.265   9.533
  332POPC   GL1 9505   0.330  39.075   9.174
  332POPC   GL2 9506   0.681  39.153   9.140
  332POPC   C1A 9507   0.481  39.042   8.706
  332POPC   D2A 9508   0.684  39.257   8.366
  332POPC   C3A 9509   0.433  39.267   8.002
  332POPC   C4A 9510   0.557  38.927   7.757
  332POPC   C1B 9511   0.600  39.518   8.852
  332POPC   C2B 9512   0.644  39.755   8.455
  332POPC   C3B 9513   0.797  39.650   8.001
  332POPC   C4B 9514   0.710  39.441   7.584
  333POPC   NC3 9515  10.127  15.181   9.508
  333POPC   PO4 9516   9.405  15.190   9.547
  333POPC   GL1 9517   9.689  15.203   9.240
  333POPC   GL2 9518   9.768  14.889   9.262
  333POPC   C1A 9519   9.729  15.289   8.825
  333POPC   D2A 9520   9.697  15.465   8.440
  333POPC   C3A 9521   9.823  15.226   8.101
  333POPC   C4A 9522   9.949  15.275   7.676
  333POPC   C1B 9523   9.404  14.895   8.953
  333POPC   C2B 9524   9.472  14.967   8.493
  333POPC   C3B 9525   9.482  14.840   8.054
  333POPC   C4B 9526   9.437  15.085   7.661
  334POPC   NC3 9527  13.738  37.273   9.533
  334POPC   PO4 9528  13.286  36.812   9.385
  334POPC   GL1 9529  13.498  37.089   9.116
  334POPC   GL2 9530  13.884  37.005   9.134
  334POPC   C1A 9531  13.611  37.209   8.719
  334POPC   D2A 9532  13.885  37.061   8.421
  334POPC   C3A 9533  13.752  37.242   8.048
  334POPC   C4A 9534  13.499  37.099   7.745
  334POPC   C1B 9535  13.746  36.707   8.859
  334POPC   C2B 9536  13.556  36.670   8.499
  334POPC   C3B 9537  13.607  36.715   8.077
  334POPC   C4B 9538  13.305  36.539   7.844
  335POPC   NC3 9539   8.010  29.355   9.512
  335POPC   PO4 9540   8.057  28.715   9.425
  335POPC   GL1 9541   8.278  29.043   9.170
  335POPC   GL2 9542   8.292  29.409   9.106
  335POPC   C1A 9543   8.402  29.012   8.761
  335POPC   D2A 9544   8.246  28.739   8.474
  335POPC   C3A 9545   8.222  28.872   8.084
  335POPC   C4A 9546   8.136  28.886   7.721
  335POPC   C1B 9547   8.250  29.495   8.700
  335POPC   C2B 9548   8.244  29.296   8.343
  335POPC   C3B 9549   8.067  29.374   7.993
  335POPC   C4B 9550   7.921  29.376   7.596
  336POPC   NC3 9551   6.751  21.748   9.455
  336POPC   PO4 9552   6.295  21.252   9.516
  336POPC   GL1 9553   6.550  21.359   9.158
  336POPC   GL2 9554   6.905  21.258   9.182
  336POPC   C1A 9555   6.578  21.180   8.736
  336POPC   D2A 9556   6.557  20.973   8.324
  336POPC   C3A 9557   6.383  21.239   7.954
  336POPC   C4A 9558   6.462  21.632   7.695
  336POPC   C1B 9559   6.899  21.574   8.816
  336POPC   C2B 9560   6.870  21.444   8.359
  336POPC   C3B 9561   6.870  21.421   7.897
  336POPC   C4B 9562   6.959  21.515   7.462
  337POPC   NC3 9563  14.638  10.827   9.562
  337POPC   PO4 9564  14.026  10.730   9.386
  337POPC   GL1 9565  14.195  10.512   9.086
  337POPC   GL2 9566  14.492  10.691   9.081
  337POPC   C1A 9567  14.157  10.610   8.675
  337POPC   D2A 9568  14.350  10.755   8.320
  337POPC   C3A 9569  14.377  10.637   7.896
  337POPC   C4A 9570  14.677  10.696   7.587
  337POPC   C1B 9571  14.715  10.695   8.690
  337POPC   C2B 9572  14.788  10.490   8.292
  337POPC   C3B 9573  14.725  10.257   7.906
  337POPC   C4B 9574  14.841  10.227   7.463
  338POPC   NC3 9575  19.694   6.191   9.581
  338POPC   PO4 9576  20.308   6.034   9.536
  338POPC   GL1 9577  20.097   5.821   9.185
  338POPC   GL2 9578  19.740   5.885   9.158
  338POPC   C1A 9579  19.987   5.652   8.755
  338POPC   D2A 9580  19.723   5.778   8.382
  338POPC   C3A 9581  19.929   5.789   7.964
  338POPC   C4A 9582  19.809   5.954   7.525
  338POPC   C1B 9583  19.860   6.139   8.766
  338POPC   C2B 9584  20.002   6.206   8.311
  338POPC   C3B 9585  19.849   6.301   7.895
  338POPC   C4B 9586  19.623   6.475   7.550
  339POPC   NC3 9587  12.292  41.832   9.376
  339POPC   PO4 9588  11.967  41.311   9.490
  339POPC   GL1 9589  12.165  41.392   9.108
  339POPC   GL2 9590  11.938  41.679   9.015
  339POPC   C1A 9591  12.346  41.536   8.713
  339POPC   D2A 9592  12.310  41.750   8.320
  339POPC   C3A 9593  11.975  41.528   8.162
  339POPC   C4A 9594  12.046  41.187   7.922
  339POPC   C1B 9595  11.887  42.009   8.689
  339POPC   C2B 9596  11.839  42.048   8.257
  339POPC   C3B 9597  12.063  41.940   7.890
  339POPC   C4B 9598  11.892  41.866   7.465
  340POPC   NC3 9599  19.222   2.087   9.577
  340POPC   PO4 9600  19.364   1.621   9.215
  340POPC   GL1 9601  19.079   1.888   9.064
  340POPC   GL2 9602  19.044   2.250   9.125
  340POPC   C1A 9603  19.194   2.068   8.673
  340POPC   D2A 9604  19.103   2.184   8.270
  340POPC   C3A 9605  19.365   1.989   8.007
  340POPC   C4A 9606  19.389   1.786   7.629
  340POPC   C1B 9607  18.721   2.159   8.801
  340POPC   C2B 9608  18.624   1.996   8.368
  340POPC   C3B 9609  18.683   2.225   7.985
  340POPC   C4B 9610  18.986   2.111   7.686
  341POPC   NC3 9611   1.082   2.687   9.566
  341POPC   PO4 9612   1.580   2.273   9.831
  341POPC   GL1 9613   1.535   2.578   9.353
  341POPC   GL2 9614   1.337   2.854   9.148
  341POPC   C1A 9615   1.555   2.514   8.847
  341POPC   D2A 9616   1.247   2.608   8.490
  341POPC   C3A 9617   1.299   2.630   8.019
  341POPC   C4A 9618   1.028   2.450   7.675
  341POPC   C1B 9619   0.942   2.752   8.917
  341POPC   C2B 9620   0.723   2.757   8.522
  341POPC   C3B 9621   0.787   2.727   8.057
  341POPC   C4B 9622   0.957   2.974   7.716
  342POPC   NC3 9623  36.684  31.134   9.360
  342POPC   PO4 9624  36.952  30.420   9.482
  342POPC   GL1 9625  36.722  30.601   9.176
  342POPC   GL2 9626  36.669  30.280   9.072
  342POPC   C1A 9627  36.801  30.820   8.789
  342POPC   D2A 9628  37.188  30.937   8.531
  342POPC   C3A 9629  37.149  30.948   8.089
  342POPC   C4A 9630  37.133  30.830   7.675
  342POPC   C1B 9631  36.610  30.362   8.666
  342POPC   C2B 9632  36.806  30.340   8.280
  342POPC   C3B 9633  36.700  30.698   8.075
  342POPC   C4B 9634  36.583  30.793   7.668
  343POPC   NC3 9635   0.947  30.913   9.514
  343POPC   PO4 9636   1.475  30.457   9.545
  343POPC   GL1 9637   1.293  30.674   9.212
  343POPC   GL2 9638   0.989  30.511   9.173
  343POPC   C1A 9639   1.230  30.868   8.810
  343POPC   D2A 9640   1.356  30.707   8.382
  343POPC   C3A 9641   1.223  30.878   7.973
  343POPC   C4A 9642   1.366  30.692   7.598
  343POPC   C1B 9643   0.889  30.496   8.774
  343POPC   C2B 9644   0.848  30.757   8.436
  343POPC   C3B 9645   0.908  30.520   8.124
  343POPC   C4B 9646   0.913  30.512   7.707
  344POPC   NC3 9647  18.896  31.803   9.465
  344POPC   PO4 9648  18.666  31.173   9.506
  344POPC   GL1 9649  18.933  31.354   9.172
  344POPC   GL2 9650  19.266  31.411   9.303
  344POPC   C1A 9651  18.901  31.664   8.808
  344POPC   D2A 9652  18.991  31.795   8.391
  344POPC   C3A 9653  19.002  31.490   8.057
  344POPC   C4A 9654  19.184  31.155   7.788
  344POPC   C1B 9655  19.361  31.501   8.873
  344POPC   C2B 9656  19.390  31.457   8.434
  344POPC   C3B 9657  19.524  31.479   8.017
  344POPC   C4B 9658  19.282  31.637   7.666
  345POPC   NC3 9659  38.514  23.195   9.521
  345POPC   PO4 9660  38.241  22.588   9.786
  345POPC   GL1 9661  38.389  22.711   9.366
  345POPC   GL2 9662  38.262  22.421   9.253
  345POPC   C1A 9663  38.330  22.963   8.922
  345POPC   D2A 9664  38.522  23.072   8.498
  345POPC   C3A 9665  38.292  23.133   8.094
  345POPC   C4A 9666  38.342  22.980   7.663
  345POPC   C1B 9667  38.535  22.513   8.906
  345POPC   C2B 9668  38.373  22.588   8.469
  345POPC   C3B 9669  38.548  22.677   8.046
  345POPC   C4B 9670  38.899  22.607   7.746
  346POPC   NC3 9671  36.819  28.764   9.639
  346POPC   PO4 9672  36.801  28.067   9.599
  346POPC   GL1 9673  36.883  28.352   9.282
  346POPC   GL2 9674  36.923  28.102   9.045
  346POPC   C1A 9675  36.978  28.633   8.960
  346POPC   D2A 9676  37.044  28.670   8.526
  346POPC   C3A 9677  36.864  28.422   8.216
  346POPC   C4A 9678  36.872  28.500   7.791
  346POPC   C1B 9679  37.103  28.179   8.646
  346POPC   C2B 9680  37.380  28.342   8.332
  346POPC   C3B 9681  37.339  28.305   7.905
  346POPC   C4B 9682  37.308  28.269   7.440
  347POPC   NC3 9683  38.047  18.307   9.782
  347POPC   PO4 9684  38.337  18.881   9.587
  347POPC   GL1 9685  38.248  18.915   9.158
  347POPC   GL2 9686  38.591  18.898   9.001
  347POPC   C1A 9687  38.159  19.016   8.716
  347POPC   D2A 9688  38.387  19.195   8.386
  347POPC   C3A 9689  38.319  19.158   7.946
  347POPC   C4A 9690  38.572  19.271   7.572
  347POPC   C1B 9691  38.660  18.795   8.542
  347POPC   C2B 9692  38.704  18.826   8.074
  347POPC   C3B 9693  38.729  18.472   7.787
  347POPC   C4B 9694  38.689  18.470   7.300
  348POPC   NC3 9695  30.338  43.365   9.342
  348POPC   PO4 9696  30.839  42.936   9.511
  348POPC   GL1 9697  30.841  43.096   9.143
  348POPC   GL2 9698  31.078  42.849   9.061
  348POPC   C1A 9699  30.672  43.270   8.759
  348POPC   D2A 9700  30.672  43.071   8.359
  348POPC   C3A 9701  30.607  43.310   7.993
  348POPC   C4A 9702  30.326  43.103   7.733
  348POPC   C1B 9703  30.778  42.760   8.745
  348POPC   C2B 9704  30.835  42.572   8.317
  348POPC   C3B 9705  30.710  42.791   7.933
  348POPC   C4B 9706  30.799  43.028   7.566
  349POPC   NC3 9707  17.076  42.556   9.494
  349POPC   PO4 9708  17.577  41.993   9.438
  349POPC   GL1 9709  17.272  42.181   9.160
  349POPC   GL2 9710  17.457  42.499   9.163
  349POPC   C1A 9711  17.235  42.323   8.734
  349POPC   D2A 9712  17.528  42.389   8.375
  349POPC   C3A 9713  17.388  42.366   7.929
  349POPC   C4A 9714  17.361  42.466   7.478
  349POPC   C1B 9715  17.553  42.745   8.803
  349POPC   C2B 9716  17.824  42.819   8.470
  349POPC   C3B 9717  17.646  42.787   8.065
  349POPC   C4B 9718  17.837  42.749   7.649
  350POPC   NC3 9719  20.281  14.411   9.298
  350POPC   PO4 9720  19.760  14.132   9.518
  350POPC   GL1 9721  19.766  14.293   9.137
  350POPC   GL2 9722  19.715  14.633   9.209
  350POPC   C1A 9723  19.932  14.119   8.766
  350POPC   D2A 9724  19.848  14.159   8.329
  350POPC   C3A 9725  19.891  14.185   7.900
  350POPC   C4A 9726  19.520  14.268   7.691
  350POPC   C1B 9727  19.925  14.638   8.800
  350POPC   C2B 9728  19.858  14.670   8.371
  350POPC   C3B 9729  19.812  14.681   7.962
  350POPC   C4B 9730  20.159  14.788   7.753
  351POPC   NC3 9731  15.558  39.122   9.572
  351POPC   PO4 9732  14.921  39.397   9.822
  351POPC   GL1 9733  15.029  39.188   9.414
  351POPC   GL2 9734  14.774  39.260   9.176
  351POPC   C1A 9735  15.230  39.194   8.992
  351POPC   D2A 9736  15.056  39.090   8.573
  351POPC   C3A 9737  15.260  39.192   8.170
  351POPC   C4A 9738  15.338  39.194   7.717
  351POPC   C1B 9739  14.882  39.528   8.790
  351POPC   C2B 9740  14.791  39.463   8.350
  351POPC   C3B 9741  14.860  39.315   7.893
  351POPC   C4B 9742  14.918  39.418   7.471
  352POPC   NC3 9743  19.431  27.804   9.927
  352POPC   PO4 9744  18.885  27.587   9.611
  352POPC   GL1 9745  18.967  27.398   9.179
  352POPC   GL2 9746  19.338  27.366   9.109
  352POPC   C1A 9747  18.963  27.390   8.710
  352POPC   D2A 9748  19.011  27.318   8.254
  352POPC   C3A 9749  18.793  27.551   7.924
  352POPC   C4A 9750  18.782  27.959   7.705
  352POPC   C1B 9751  19.406  27.643   8.733
  352POPC   C2B 9752  19.431  27.640   8.285
  352POPC   C3B 9753  19.305  27.570   7.874
  352POPC   C4B 9754  19.483  27.320   7.545
  353POPC   NC3 9755   7.586  40.461   9.760
  353POPC   PO4 9756   8.326  40.570   9.731
  353POPC   GL1 9757   8.287  40.470   9.211
  353POPC   GL2 9758   8.411  40.816   9.103
  353POPC   C1A 9759   8.249  40.472   8.728
  353POPC   D2A 9760   7.945  40.692   8.427
  353POPC   C3A 9761   7.962  40.943   8.023
  353POPC   C4A 9762   7.906  40.682   7.652
  353POPC   C1B 9763   8.260  41.003   8.717
  353POPC   C2B 9764   8.435  40.813   8.339
  353POPC   C3B 9765   8.346  40.619   7.937
  353POPC   C4B 9766   8.337  40.890   7.538
  354POPC   NC3 9767  28.158   4.858   9.390
  354POPC   PO4 9768  28.398   5.418   9.544
  354POPC   GL1 9769  28.419   5.381   9.114
  354POPC   GL2 9770  28.103   5.519   9.069
  354POPC   C1A 9771  28.526   5.035   8.816
  354POPC   D2A 9772  28.712   4.834   8.450
  354POPC   C3A 9773  28.647   5.027   8.015
  354POPC   C4A 9774  28.527   4.999   7.565
  354POPC   C1B 9775  28.058   5.216   8.731
  354POPC   C2B 9776  28.268   5.113   8.348
  354POPC   C3B 9777  28.147   5.088   7.905
  354POPC   C4B 9778  28.003   4.921   7.492
  355POPC   NC3 9779  11.742   2.638   9.443
  355POPC   PO4 9780  12.340   3.021   9.417
  355POPC   GL1 9781  12.136   2.736   9.114
  355POPC   GL2 9782  11.777   2.872   9.003
  355POPC   C1A 9783  12.298   2.464   8.775
  355POPC   D2A 9784  12.094   2.319   8.397
  355POPC   C3A 9785  11.866   2.611   8.146
  355POPC   C4A 9786  11.800   2.616   7.758
  355POPC   C1B 9787  11.918   2.753   8.624
  355POPC   C2B 9788  12.297   2.807   8.375
  355POPC   C3B 9789  12.232   2.963   7.990
  355POPC   C4B 9790  11.834   3.130   7.915
  356POPC   NC3 9791  28.700  43.919   9.316
  356POPC   PO4 9792  29.044  43.409   9.495
  356POPC   GL1 9793  29.094  43.471   9.084
  356POPC   GL2 9794  29.434  43.601   9.021
  356POPC   C1A 9795  28.955  43.719   8.712
  356POPC   D2A 9796  28.897  43.918   8.290
  356POPC   C3A 9797  28.996  43.807   7.856
  356POPC   C4A 9798  29.046  44.134   7.483
  356POPC   C1B 9799  29.344  43.399   8.642
  356POPC   C2B 9800  29.199  43.500   8.254
  356POPC   C3B 9801  29.407  43.489   7.865
  356POPC   C4B 9802  29.430  43.824   7.584
  357POPC   NC3 9803   4.868  15.695   9.639
  357POPC   PO4 9804   5.262  16.233   9.502
  357POPC   GL1 9805   5.150  15.884   9.211
  357POPC   GL2 9806   4.845  16.033   9.192
  357POPC   C1A 9807   4.917  15.741   8.794
  357POPC   D2A 9808   4.856  15.910   8.399
  357POPC   C3A 9809   5.223  15.809   8.202
  357POPC   C4A 9810   5.335  15.827   7.798
  357POPC   C1B 9811   5.099  16.238   8.836
  357POPC   C2B 9812   5.204  16.302   8.383
  357POPC   C3B 9813   4.990  16.186   7.962
  357POPC   C4B 9814   4.710  16.339   7.634
  358POPC   NC3 9815  44.286  25.410   9.756
  358POPC   PO4 9816  44.094  24.870   9.558
  358POPC   GL1 9817  44.109  25.054   9.113
  358POPC   GL2 9818  44.102  25.404   9.181
  358POPC   C1A 9819  43.959  25.051   8.629
  358POPC   D2A 9820  43.763  25.264   8.241
  358POPC   C3A 9821  43.881  25.187   7.800
  358POPC   C4A 9822  43.701  25.101   7.391
  358POPC   C1B 9823  43.963  25.555   8.758
  358POPC   C2B 9824  43.874  25.770   8.336
  358POPC   C3B 9825  43.802  25.687   7.888
  358POPC   C4B 9826  43.586  25.754   7.473
  359POPC   NC3 9827   6.405  29.814   9.563
  359POPC   PO4 9828   5.757  29.948   9.463
  359POPC   GL1 9829   6.054  29.969   9.136
  359POPC   GL2 9830   5.977  29.655   9.100
  359POPC   C1A 9831   5.866  30.056   8.731
  359POPC   D2A 9832   5.710  30.054   8.325
  359POPC   C3A 9833   5.916  30.235   7.970
  359POPC   C4A 9834   5.684  30.142   7.573
  359POPC   C1B 9835   5.547  29.676   8.838
  359POPC   C2B 9836   5.359  29.689   8.376
  359POPC   C3B 9837   5.494  29.811   7.924
  359POPC   C4B 9838   5.952  29.775   7.788
  360POPC   NC3 9839   0.197  32.304   9.462
  360POPC   PO4 9840   0.677  31.898   9.489
  360POPC   GL1 9841   0.534  32.078   9.108
  360POPC   GL2 9842   0.203  31.954   9.073
  360POPC   C1A 9843   0.344  32.380   8.792
  360POPC   D2A 9844   0.150  32.406   8.382
  360POPC   C3A 9845   0.406  32.472   8.019
  360POPC   C4A 9846   0.589  32.444   7.587
  360POPC   C1B 9847   0.402  31.874   8.656
  360POPC   C2B 9848   0.360  31.946   8.209
  360POPC   C3B 9849   0.114  32.083   7.860
  360POPC   C4B 9850   0.309  32.023   7.467
  361POPC   NC3 9851  16.270  33.030   9.508
  361POPC   PO4 9852  15.618  33.337   9.620
  361POPC   GL1 9853  15.924  33.362   9.268
  361POPC   GL2 9854  15.977  33.041   9.096
  361POPC   C1A 9855  15.946  33.447   8.790
  361POPC   D2A 9856  15.840  33.253   8.366
  361POPC   C3A 9857  16.062  33.251   7.957
  361POPC   C4A 9858  16.001  33.177   7.496
  361POPC   C1B 9859  16.198  32.991   8.685
  361POPC   C2B 9860  16.122  32.835   8.264
  361POPC   C3B 9861  15.956  32.753   7.862
  361POPC   C4B 9862  16.075  32.677   7.453
  362POPC   NC3 9863  19.485  41.558   9.418
  362POPC   PO4 9864  20.097  41.670   9.500
  362POPC   GL1 9865  19.986  41.808   9.105
  362POPC   GL2 9866  19.670  41.650   8.947
  362POPC   C1A 9867  20.098  41.642   8.703
  362POPC   D2A 9868  19.985  41.379   8.376
  362POPC   C3A 9869  20.097  41.574   7.969
  362POPC   C4A 9870  19.996  41.726   7.543
  362POPC   C1B 9871  19.320  41.683   8.610
  362POPC   C2B 9872  19.233  41.376   8.318
  362POPC   C3B 9873  19.564  41.480   8.034
  362POPC   C4B 9874  19.531  41.562   7.630
  363POPC   NC3 9875   5.631   9.070   9.910
  363POPC   PO4 9876   6.122   9.020   9.521
  363POPC   GL1 9877   5.902   9.027   9.102
  363POPC   GL2 9878   5.562   9.190   9.119
  363POPC   C1A 9879   6.058   8.969   8.680
  363POPC   D2A 9880   6.247   8.985   8.290
  363POPC   C3A 9881   6.022   8.808   7.932
  363POPC   C4A 9882   5.984   8.999   7.502
  363POPC   C1B 9883   5.633   9.298   8.677
  363POPC   C2B 9884   5.758   9.192   8.247
  363POPC   C3B 9885   5.585   9.069   7.811
  363POPC   C4B 9886   5.560   9.239   7.376
  364POPC   NC3 9887   9.915  33.045   9.389
  364POPC   PO4 9888   9.343  33.446   9.202
  364POPC   GL1 9889   9.714  33.291   8.988
  364POPC   GL2 9890  10.096  33.264   8.953
  364POPC   C1A 9891   9.676  33.030   8.655
  364POPC   D2A 9892   9.475  33.040   8.277
  364POPC   C3A 9893   9.754  33.212   8.004
  364POPC   C4A 9894   9.638  33.010   7.676
  364POPC   C1B 9895  10.109  32.786   8.798
  364POPC   C2B 9896   9.869  32.590   8.470
  364POPC   C3B 9897   9.848  32.692   8.050
  364POPC   C4B 9898  10.120  32.807   7.710
  365POPC   NC3 9899  37.849  16.439   9.523
  365POPC   PO4 9900  37.806  15.768   9.555
  365POPC   GL1 9901  37.710  15.926   9.123
  365POPC   GL2 9902  37.353  15.936   8.986
  365POPC   C1A 9903  37.794  16.047   8.690
  365POPC   D2A 9904  37.983  16.169   8.290
  365POPC   C3A 9905  37.810  16.006   7.913
  365POPC   C4A 9906  37.858  16.212   7.512
  365POPC   C1B 9907  37.373  16.329   8.713
  365POPC   C2B 9908  37.513  16.389   8.264
  365POPC   C3B 9909  37.369  16.287   7.855
  365POPC   C4B 9910  37.304  15.855   7.753
  366POPC   NC3 9911  16.855  36.406   9.514
  366POPC   PO4 9912  16.587  35.850   9.388
  366POPC   GL1 9913  16.634  36.219   9.082
  366POPC   GL2 9914  16.994  36.403   9.019
  366POPC   C1A 9915  16.701  36.254   8.639
  366POPC   D2A 9916  16.781  36.119   8.244
  366POPC   C3A 9917  16.371  36.061   8.122
  366POPC   C4A 9918  16.207  36.058   7.750
  366POPC   C1B 9919  17.087  35.962   8.810
  366POPC   C2B 9920  17.073  35.705   8.405
  366POPC   C3B 9921  17.110  35.820   7.951
  366POPC   C4B 9922  16.746  36.021   7.717
  367POPC   NC3 9923  22.533  44.706   9.609
  367POPC   PO4 9924  21.864  44.773   9.692
  367POPC   GL1 9925  22.017  44.651   9.270
  367POPC   GL2 9926  22.326  44.835   9.148
  367POPC   C1A 9927  22.000  44.623   8.811
  367POPC   D2A 9928  22.021  44.544   8.368
  367POPC   C3A 9929  21.748  44.570   8.055
  367POPC   C4A 9930  21.926  44.693   7.692
  367POPC   C1B 9931  22.507  44.795   8.750
  367POPC   C2B 9932  22.532  44.583   8.353
  367POPC   C3B 9933  22.401  44.600   7.943
  367POPC   C4B 9934  22.429  44.996   7.729
  368POPC   NC3 9935  36.163  43.779   9.620
  368POPC   PO4 9936  36.510  44.240   9.239
  368POPC   GL1 9937  36.174  43.974   9.118
  368POPC   GL2 9938  36.262  43.636   9.104
  368POPC   C1A 9939  36.012  44.015   8.688
  368POPC   D2A 9940  36.085  43.844   8.256
  368POPC   C3A 9941  36.213  44.142   7.907
  368POPC   C4A 9942  36.310  44.100   7.473
  368POPC   C1B 9943  36.058  43.511   8.732
  368POPC   C2B 9944  35.808  43.412   8.378
  368POPC   C3B 9945  35.799  43.525   7.935
  368POPC   C4B 9946  36.201  43.616   7.771
  369POPC   NC3 9947   6.249  39.436   9.352
  369POPC   PO4 9948   6.764  39.306   9.761
  369POPC   GL1 9949   6.652  39.126   9.336
  369POPC   GL2 9950   6.294  38.960   9.207
  369POPC   C1A 9951   6.666  39.157   8.872
  369POPC   D2A 9952   6.621  38.948   8.464
  369POPC   C3A 9953   6.789  39.160   8.092
  369POPC   C4A 9954   6.692  39.370   7.654
  369POPC   C1B 9955   6.163  39.043   8.776
  369POPC   C2B 9956   6.263  39.299   8.407
  369POPC   C3B 9957   6.293  39.170   7.975
  369POPC   C4B 9958   6.223  39.128   7.536
  370POPC   NC3 9959  12.314  33.629   9.521
  370POPC   PO4 9960  12.949  34.015   9.337
  370POPC   GL1 9961  12.761  33.886   9.004
  370POPC   GL2 9962  12.625  33.605   9.126
  370POPC   C1A 9963  12.963  33.722   8.653
  370POPC   D2A 9964  13.077  33.918   8.281
  370POPC   C3A 9965  12.732  33.865   8.027
  370POPC   C4A 9966  12.764  33.878   7.607
  370POPC   C1B 9967  12.615  33.366   8.739
  370POPC   C2B 9968  12.844  33.258   8.372
  370POPC   C3B 9969  12.853  33.370   7.973
  370POPC   C4B 9970  12.514  33.462   7.746
  371POPC   NC3 9971  37.542  41.513   9.468
  371POPC   PO4 9972  37.151  41.990   9.170
  371POPC   GL1 9973  37.465  41.713   8.993
  371POPC   GL2 9974  37.711  41.408   8.963
  371POPC   C1A 9975  37.443  41.604   8.575
  371POPC   D2A 9976  37.604  41.776   8.269
  371POPC   C3A 9977  37.612  41.472   7.996
  371POPC   C4A 9978  37.555  41.405   7.594
  371POPC   C1B 9979  37.937  41.743   8.667
  371POPC   C2B 9980  38.117  41.836   8.206
  371POPC   C3B 9981  38.065  41.603   7.777
  371POPC   C4B 9982  37.914  41.728   7.376
  372POPC   NC3 9983  18.686  37.330   9.204
  372POPC   PO4 9984  18.254  36.880   9.552
  372POPC   GL1 9985  18.096  36.906   9.147
  372POPC   GL2 9986  18.214  37.221   9.086
  372POPC   C1A 9987  18.256  36.830   8.728
  372POPC   D2A 9988  18.229  36.612   8.337
  372POPC   C3A 9989  18.240  36.731   7.883
  372POPC   C4A 9990  18.108  36.526   7.485
  372POPC   C1B 9991  18.292  37.317   8.650
  372POPC   C2B 9992  18.076  37.098   8.334
  372POPC   C3B 9993  17.964  37.191   7.958
  372POPC   C4B 9994  18.341  37.232   7.744
  373POPC   NC3 9995  43.765  11.334   9.598
  373POPC   PO4 9996  44.257  10.843   9.476
  373POPC   GL1 9997  44.132  11.252   9.208
  373POPC   GL2 9998  43.799  11.482   9.143
  373POPC   C1A 9999  44.011  11.273   8.770
  373POPC   D2A10000  43.897  11.289   8.412
  373POPC   C3A10001  44.171  11.344   8.077
  373POPC   C4A10002  43.949  11.366   7.714
  373POPC   C1B10003  43.532  11.477   8.785
  373POPC   C2B10004  43.601  11.690   8.403
  373POPC   C3B10005  43.593  11.487   8.049
  373POPC   C4B10006  43.541  11.717   7.696
  374POPC   NC310007   7.300  40.455   9.259
  374POPC   PO410008   7.600  40.979   9.592
  374POPC   GL110009   7.579  40.866   9.151
  374POPC   GL210010   7.887  40.739   8.971
  374POPC   C1A10011   7.445  40.843   8.724
  374POPC   D2A10012   7.535  40.968   8.339
  374POPC   C3A10013   7.241  40.970   8.027
  374POPC   C4A10014   7.491  40.966   7.704
  374POPC   C1B10015   7.707  40.367   8.728
  374POPC   C2B10016   7.433  40.413   8.411
  374POPC   C3B10017   7.599  40.553   8.047
  374POPC   C4B10018   7.493  40.404   7.683
  375POPC   NC310019  11.113  13.954   9.509
  375POPC   PO410020  11.682  13.878   9.524
  375POPC   GL110021  11.424  13.736   9.156
  375POPC   GL210022  11.061  13.648   9.083
  375POPC   C1A10023  11.445  13.690   8.721
  375POPC   D2A10024  11.319  13.588   8.313
  375POPC   C3A10025  11.436  13.748   7.955
  375POPC   C4A10026  11.365  13.363   7.763
  375POPC   C1B10027  10.917  13.717   8.660
  375POPC   C2B10028  10.841  13.701   8.217
  375POPC   C3B10029  10.946  13.697   7.756
  375POPC   C4B10030  10.804  13.781   7.321
  376POPC   NC310031  10.879  38.622   9.465
  376POPC   PO410032  11.382  38.184   9.372
  376POPC   GL110033  11.350  38.459   9.065
  376POPC   GL210034  11.656  38.657   9.003
  376POPC   C1A10035  11.143  38.575   8.695
  376POPC   D2A10036  11.340  38.562   8.296
  376POPC   C3A10037  11.162  38.699   7.884
  376POPC   C4A10038  11.033  38.377   7.509
  376POPC   C1B10039  11.766  38.255   8.800
  376POPC   C2B10040  11.693  38.049   8.413
  376POPC   C3B10041  11.646  38.248   8.034
  376POPC   C4B10042  11.508  38.424   7.668
  377POPC   NC310043  28.926  15.467   9.535
  377POPC   PO410044  29.347  14.952   9.577
  377POPC   GL110045  29.135  15.023   9.197
  377POPC   GL210046  29.336  14.727   9.107
  377POPC   C1A10047  29.039  15.339   8.839
  377POPC   D2A10048  29.166  15.469   8.418
  377POPC   C3A10049  28.932  15.381   8.047
  377POPC   C4A10050  28.906  15.302   7.627
  377POPC   C1B10051  29.436  14.993   8.772
  377POPC   C2B10052  29.418  15.042   8.375
  377POPC   C3B10053  29.325  15.074   7.990
  377POPC   C4B10054  29.403  15.030   7.590
  378POPC   NC310055  38.319  44.133   9.486
  378POPC   PO410056  38.964  43.979   9.568
  378POPC   GL110057  38.656  43.803   9.269
  378POPC   GL210058  38.599  44.092   9.048
  378POPC   C1A10059  38.481  43.645   8.843
  378POPC   D2A10060  38.354  43.843   8.435
  378POPC   C3A10061  38.496  43.777   8.011
  378POPC   C4A10062  38.489  43.489   7.678
  378POPC   C1B10063  38.223  44.170   8.808
  378POPC   C2B10064  38.071  44.324   8.398
  378POPC   C3B10065  38.144  44.296   7.952
  378POPC   C4B10066  38.509  44.227   7.709
  379POPC   NC310067  21.260   0.820   9.383
  379POPC   PO410068  21.614   0.249   9.386
  379POPC   GL110069  21.442   0.401   9.013
  379POPC   GL210070  21.117   0.532   8.986
  379POPC   C1A10071  21.448   0.432   8.568
  379POPC   D2A10072  21.752   0.321   8.276
  379POPC   C3A10073  21.617   0.489   7.925
  379POPC   C4A10074  21.163   0.354   7.983
  379POPC   C1B10075  21.289   0.904   8.758
  379POPC   C2B10076  21.272   1.091   8.385
  379POPC   C3B10077  21.256   0.852   8.001
  379POPC   C4B10078  21.348   0.658   7.541
  380POPC   NC310079  44.213  42.968   9.719
  380POPC   PO410080  43.565  43.288   9.712
  380POPC   GL110081  43.842  43.173   9.289
  380POPC   GL210082  43.789  43.486   9.103
  380POPC   C1A10083  43.988  42.913   8.862
  380POPC   D2A10084  43.768  42.828   8.427
  380POPC   C3A10085  43.994  42.880   8.035
  380POPC   C4A10086  43.955  43.066   7.604
  380POPC   C1B10087  44.088  43.415   8.816
  380POPC   C2B10088  44.141  43.203   8.431
  380POPC   C3B10089  44.072  43.367   8.011
  380POPC   C4B10090  44.056  43.577   7.627
  381POPC   NC310091  33.458  36.502   9.718
  381POPC   PO410092  33.773  35.876   9.522
  381POPC   GL110093  33.663  36.029   9.141
  381POPC   GL210094  33.857  36.336   9.069
  381POPC   C1A10095  33.811  35.864   8.768
  381POPC   D2A10096  33.770  36.015   8.328
  381POPC   C3A10097  33.930  35.843   7.987
  381POPC   C4A10098  33.725  35.781   7.605
  381POPC   C1B10099  33.597  36.322   8.672
  381POPC   C2B10100  33.442  36.388   8.257
  381POPC   C3B10101  33.501  36.220   7.853
  381POPC   C4B10102  33.426  36.551   7.583
  382POPC   NC310103  20.711  33.614   9.543
  382POPC   PO410104  20.340  34.242   9.450
  382POPC   GL110105  20.268  33.849   9.265
  382POPC   GL210106  20.599  33.878   9.111
  382POPC   C1A10107  20.224  33.651   8.868
  382POPC   D2A10108  20.419  33.838   8.527
  382POPC   C3A10109  20.476  33.641   8.156
  382POPC   C4A10110  20.428  33.710   7.753
  382POPC   C1B10111  20.868  33.956   8.762
  382POPC   C2B10112  20.914  33.790   8.388
  382POPC   C3B10113  20.857  33.985   8.079
  382POPC   C4B10114  20.967  34.047   7.698
  383POPC   NC310115  19.679  15.219   9.471
  383POPC   PO410116  20.171  15.533   9.504
  383POPC   GL110117  19.980  15.446   9.109
  383POPC   GL210118  19.842  15.092   9.007
  383POPC   C1A10119  19.974  15.437   8.681
  383POPC   D2A10120  19.876  15.173   8.390
  383POPC   C3A10121  19.889  15.419   8.059
  383POPC   C4A10122  19.987  15.290   7.691
  383POPC   C1B10123  19.510  14.914   8.704
  383POPC   C2B10124  19.423  14.926   8.254
  383POPC   C3B10125  19.549  15.094   7.849
  383POPC   C4B10126  19.598  15.080   7.389
  384POPC   NC310127   6.234  23.478   9.591
  384POPC   PO410128   6.942  23.844   9.522
  384POPC   GL110129   6.772  23.870   9.070
  384POPC   GL210130   6.870  23.582   8.872
  384POPC   C1A10131   6.390  23.699   8.755
  384POPC   D2A10132   6.514  23.508   8.392
  384POPC   C3A10133   6.323  23.530   8.011
  384POPC   C4A10134   6.532  23.632   7.657
  384POPC   C1B10135   6.744  23.999   8.610
  384POPC   C2B10136   6.371  24.109   8.405
  384POPC   C3B10137   6.411  24.038   7.974
  384POPC   C4B10138   6.650  24.100   7.569
  385POPC   NC310139  30.286  23.064   9.344
  385POPC   PO410140  30.822  22.808   9.585
  385POPC   GL110141  30.764  22.919   9.140
  385POPC   GL210142  30.806  22.606   9.020
  385POPC   C1A10143  30.835  23.166   8.728
  385POPC   D2A10144  30.965  23.345   8.268
  385POPC   C3A10145  30.809  23.120   7.856
  385POPC   C4A10146  30.953  23.027   7.385
  385POPC   C1B10147  30.654  22.688   8.615
  385POPC   C2B10148  30.551  23.026   8.327
  385POPC   C3B10149  30.322  23.211   8.000
  385POPC   C4B10150  30.325  23.026   7.629
  386POPC   NC310151  37.025  24.725  10.190
  386POPC   PO410152  37.293  24.643   9.567
  386POPC   GL110153  37.457  24.498   9.167
  386POPC   GL210154  37.828  24.538   9.137
  386POPC   C1A10155  37.372  24.273   8.781
  386POPC   D2A10156  37.206  24.361   8.386
  386POPC   C3A10157  37.416  24.715   8.201
  386POPC   C4A10158  37.878  24.829   8.122
  386POPC   C1B10159  37.898  24.344   8.724
  386POPC   C2B10160  37.765  24.341   8.261
  386POPC   C3B10161  38.072  24.303   7.897
  386POPC   C4B10162  38.250  24.326   7.451
  387POPC   NC310163  29.718  15.706   9.445
  387POPC   PO410164  29.783  16.367   9.582
  387POPC   GL110165  29.723  16.165   9.206
  387POPC   GL210166  30.063  16.010   9.191
  387POPC   C1A10167  29.749  16.027   8.778
  387POPC   D2A10168  29.973  15.984   8.390
  387POPC   C3A10169  29.776  16.275   8.062
  387POPC   C4A10170  29.461  16.165   7.727
  387POPC   C1B10171  30.156  15.708   8.840
  387POPC   C2B10172  30.294  15.424   8.513
  387POPC   C3B10173  30.146  15.456   8.084
  387POPC   C4B10174  29.948  15.825   7.907
  388POPC   NC310175  42.476   9.898   9.595
  388POPC   PO410176  42.219   9.349   9.477
  388POPC   GL110177  42.063   9.461   9.125
  388POPC   GL210178  42.158   9.798   9.175
  388POPC   C1A10179  42.242   9.493   8.742
  388POPC   D2A10180  42.049   9.514   8.376
  388POPC   C3A10181  42.366   9.536   8.096
  388POPC   C4A10182  42.393   9.701   7.690
  388POPC   C1B10183  42.096   9.984   8.767
  388POPC   C2B10184  42.338   9.949   8.393
  388POPC   C3B10185  42.639   9.964   8.060
  388POPC   C4B10186  42.516  10.206   7.712
  389POPC   NC310187  41.077   7.603   9.510
  389POPC   PO410188  40.554   7.129   9.527
  389POPC   GL110189  40.586   7.392   9.160
  389POPC   GL210190  40.625   7.731   9.277
  389POPC   C1A10191  40.856   7.438   8.815
  389POPC   D2A10192  41.161   7.647   8.506
  389POPC   C3A10193  41.096   7.450   8.119
  389POPC   C4A10194  40.870   7.324   7.741
  389POPC   C1B10195  40.546   7.873   8.875
  389POPC   C2B10196  40.677   7.775   8.476
  389POPC   C3B10197  40.890   7.951   8.156
  389POPC   C4B10198  40.661   7.856   7.826
  390POPC   NC310199  36.894  31.902   9.463
  390POPC   PO410200  37.120  31.288   9.350
  390POPC   GL110201  36.994  31.373   9.002
  390POPC   GL210202  36.758  31.574   9.075
  390POPC   C1A10203  36.826  31.293   8.629
  390POPC   D2A10204  36.947  31.381   8.258
  390POPC   C3A10205  36.671  31.202   7.993
  390POPC   C4A10206  36.795  31.252   7.591
  390POPC   C1B10207  36.527  31.677   8.718
  390POPC   C2B10208  36.638  31.764   8.295
  390POPC   C3B10209  36.725  31.690   7.855
  390POPC   C4B10210  36.470  31.623   7.456
  391POPC   NC310211   5.919  22.743   9.495
  391POPC   PO410212   5.706  23.455   9.491
  391POPC   GL110213   5.691  23.120   9.204
  391POPC   GL210214   6.020  23.047   9.094
  391POPC   C1A10215   5.605  22.939   8.801
  391POPC   D2A10216   5.514  22.789   8.410
  391POPC   C3A10217   5.748  22.924   8.081
  391POPC   C4A10218   5.659  23.102   7.678
  391POPC   C1B10219   6.129  23.120   8.650
  391POPC   C2B10220   6.249  23.045   8.205
  391POPC   C3B10221   6.160  22.963   7.758
  391POPC   C4B10222   6.047  22.959   7.314
  392POPC   NC310223  30.863  39.247   9.561
  392POPC   PO410224  30.325  39.347   9.166
  392POPC   GL110225  30.758  39.322   9.054
  392POPC   GL210226  30.831  38.995   9.106
  392POPC   C1A10227  30.994  39.260   8.648
  392POPC   D2A10228  30.745  39.118   8.264
  392POPC   C3A10229  30.870  39.074   7.851
  392POPC   C4A10230  30.851  39.406   7.556
  392POPC   C1B10231  30.575  38.962   8.726
  392POPC   C2B10232  30.257  39.028   8.384
  392POPC   C3B10233  30.354  38.902   7.948
  392POPC   C4B10234  30.442  39.066   7.496
  393POPC   NC310235   5.632  31.979   9.605
  393POPC   PO410236   6.015  32.557   9.516
  393POPC   GL110237   5.753  32.353   9.230
  393POPC   GL210238   5.952  32.092   9.179
  393POPC   C1A10239   5.485  32.397   8.856
  393POPC   D2A10240   5.440  32.198   8.463
  393POPC   C3A10241   5.681  32.401   8.143
  393POPC   C4A10242   5.694  32.236   7.715
  393POPC   C1B10243   5.986  32.291   8.773
  393POPC   C2B10244   6.169  32.397   8.381
  393POPC   C3B10245   6.106  32.127   8.043
  393POPC   C4B10246   6.194  32.118   7.653
  394POPC   NC310247  12.100  14.108   9.471
  394POPC   PO410248  11.744  14.697   9.486
  394POPC   GL110249  11.934  14.476   9.163
  394POPC   GL210250  12.304  14.486   9.161
  394POPC   C1A10251  11.898  14.228   8.794
  394POPC   D2A10252  11.674  14.351   8.417
  394POPC   C3A10253  11.810  14.242   8.002
  394POPC   C4A10254  11.849  14.443   7.599
  394POPC   C1B10255  12.221  14.658   8.755
  394POPC   C2B10256  12.392  14.615   8.338
  394POPC   C3B10257  12.265  14.518   7.930
  394POPC   C4B10258  12.284  14.723   7.542
  395POPC   NC310259  32.996  39.161   9.646
  395POPC   PO410260  32.862  39.619   9.234
  395POPC   GL110261  33.112  39.289   9.150
  395POPC   GL210262  33.201  38.943   9.174
  395POPC   C1A10263  32.910  39.106   8.781
  395POPC   D2A10264  32.855  39.347   8.413
  395POPC   C3A10265  32.964  39.164   8.020
  395POPC   C4A10266  33.056  39.451   7.734
  395POPC   C1B10267  33.419  39.112   8.801
  395POPC   C2B10268  33.316  39.094   8.407
  395POPC   C3B10269  33.452  38.927   8.043
  395POPC   C4B10270  33.385  39.074   7.652
  396POPC   NC310271  11.127  32.113   9.466
  396POPC   PO410272  11.311  32.686   9.420
  396POPC   GL110273  11.396  32.377   9.111
  396POPC   GL210274  11.580  32.040   9.213
  396POPC   C1A10275  11.094  32.312   8.791
  396POPC   D2A10276  10.970  32.580   8.441
  396POPC   C3A10277  10.966  32.327   8.078
  396POPC   C4A10278  11.137  32.373   7.690
  396POPC   C1B10279  11.581  32.038   8.752
  396POPC   C2B10280  11.403  32.253   8.381
  396POPC   C3B10281  11.433  32.086   7.973
  396POPC   C4B10282  11.772  31.987   7.736
  397POPC   NC310283  43.887   1.646   9.581
  397POPC   PO410284  43.637   2.189   9.464
  397POPC   GL110285  43.841   1.952   9.136
  397POPC   GL210286  44.191   1.831   9.215
  397POPC   C1A10287  43.711   2.018   8.694
  397POPC   D2A10288  43.464   1.915   8.322
  397POPC   C3A10289  43.690   2.081   7.995
  397POPC   C4A10290  44.040   2.279   7.831
  397POPC   C1B10291  44.156   1.726   8.789
  397POPC   C2B10292  44.141   1.997   8.400
  397POPC   C3B10293  44.155   1.802   8.025
  397POPC   C4B10294  44.046   1.775   7.646
  398POPC   NC310295  38.124  38.287   9.703
  398POPC   PO410296  38.583  38.593   9.620
  398POPC   GL110297  38.315  38.562   9.207
  398POPC   GL210298  38.013  38.344   9.195
  398POPC   C1A10299  38.442  38.600   8.719
  398POPC   D2A10300  38.618  38.588   8.246
  398POPC   C3A10301  38.547  38.577   7.752
  398POPC   C4A10302  38.750  38.757   7.366
  398POPC   C1B10303  37.942  38.517   8.760
  398POPC   C2B10304  38.095  38.584   8.329
  398POPC   C3B10305  38.268  38.260   8.048
  398POPC   C4B10306  38.221  38.179   7.605
  399POPC   NC310307  44.830  35.198   9.626
  399POPC   PO410308  44.941  35.761   9.417
  399POPC   GL110309  44.828  35.423   9.093
  399POPC   GL210310  44.456  35.316   9.051
  399POPC   C1A10311  44.786  35.384   8.617
  399POPC   D2A10312  44.513  35.562   8.266
  399POPC   C3A10313  44.646  35.569   7.835
  399POPC   C4A10314  44.440  35.735   7.449
  399POPC   C1B10315  44.306  35.198   8.608
  399POPC   C2B10316  44.520  35.061   8.209
  399POPC   C3B10317  44.511  35.043   7.756
  399POPC   C4B10318  44.360  35.041   7.289
  400POPC   NC310319   7.822  42.841   9.503
  400POPC   PO410320   7.247  43.197   9.647
  400POPC   GL110321   7.550  43.292   9.280
  400POPC   GL210322   7.285  43.383   9.082
  400POPC   C1A10323   7.700  43.266   8.846
  400POPC   D2A10324   7.659  43.092   8.470
  400POPC   C3A10325   7.712  43.322   8.118
  400POPC   C4A10326   7.581  43.162   7.734
  400POPC   C1B10327   7.170  43.069   8.779
  400POPC   C2B10328   7.213  42.825   8.387
  400POPC   C3B10329   7.202  42.845   7.919
  400POPC   C4B10330   7.086  43.138   7.576
  401POPC   NC310331   2.010   2.495   9.886
  401POPC   PO410332   2.213   2.867   9.374
  401POPC   GL110333   1.925   2.801   9.101
  401POPC   GL210334   2.006   2.447   9.153
  401POPC   C1A10335   1.843   2.911   8.691
  401POPC   D2A10336   1.615   2.940   8.315
  401POPC   C3A10337   1.908   3.033   8.002
  401POPC   C4A10338   1.896   2.890   7.581
  401POPC   C1B10339   2.271   2.578   8.763
  401POPC   C2B10340   2.131   2.674   8.334
  401POPC   C3B10341   1.859   2.537   8.019
  401POPC   C4B10342   1.994   2.396   7.642
  402POPC   NC310343  31.774  29.304   9.581
  402POPC   PO410344  31.489  28.684   9.490
  402POPC   GL110345  31.587  28.989   9.174
  402POPC   GL210346  31.351  29.288   9.214
  402POPC   C1A10347  31.657  29.188   8.771
  402POPC   D2A10348  31.695  29.363   8.342
  402POPC   C3A10349  31.558  29.076   8.005
  402POPC   C4A10350  31.376  29.004   7.597
  402POPC   C1B10351  31.167  29.271   8.807
  402POPC   C2B10352  31.228  29.079   8.426
  402POPC   C3B10353  31.053  29.014   8.037
  402POPC   C4B10354  31.068  29.352   7.753
  403POPC   NC310355  24.239  35.893   9.652
  403POPC   PO410356  24.897  35.977   9.537
  403POPC   GL110357  24.612  36.119   9.202
  403POPC   GL210358  24.409  35.860   9.091
  403POPC   C1A10359  24.528  36.222   8.745
  403POPC   D2A10360  24.553  36.047   8.305
  403POPC   C3A10361  24.409  36.038   7.856
  403POPC   C4A10362  24.336  36.171   7.416
  403POPC   C1B10363  24.702  35.729   8.705
  403POPC   C2B10364  24.925  35.731   8.255
  403POPC   C3B10365  24.666  35.564   7.882
  403POPC   C4B10366  24.484  35.696   7.447
  404POPC   NC310367  38.106  39.902   9.409
  404POPC   PO410368  37.511  40.254   9.566
  404POPC   GL110369  37.546  40.040   9.165
  404POPC   GL210370  37.843  40.166   9.048
  404POPC   C1A10371  37.632  39.766   8.782
  404POPC   D2A10372  37.421  39.631   8.369
  404POPC   C3A10373  37.675  39.643   7.988
  404POPC   C4A10374  37.604  39.876   7.612
  404POPC   C1B10375  37.608  40.239   8.667
  404POPC   C2B10376  37.574  40.100   8.254
  404POPC   C3B10377  37.903  40.129   7.978
  404POPC   C4B10378  37.964  40.269   7.544
  405POPC   NC310379  40.136   7.279   9.407
  405POPC   PO410380  39.988   7.905   9.436
  405POPC   GL110381  40.051   7.676   9.089
  405POPC   GL210382  39.735   7.516   9.195
  405POPC   C1A10383  40.246   7.511   8.700
  405POPC   D2A10384  40.203   7.689   8.285
  405POPC   C3A10385  40.350   7.454   7.936
  405POPC   C4A10386  40.143   7.280   7.586
  405POPC   C1B10387  39.805   7.295   8.820
  405POPC   C2B10388  39.658   7.177   8.430
  405POPC   C3B10389  39.849   7.343   8.080
  405POPC   C4B10390  39.845   7.633   7.747
  406POPC   NC310391  10.169  42.148   9.712
  406POPC   PO410392   9.540  42.269   9.545
  406POPC   GL110393   9.529  42.326   9.120
  406POPC   GL210394   9.749  42.052   8.979
  406POPC   C1A10395   9.413  42.390   8.709
  406POPC   D2A10396   9.675  42.291   8.352
  406POPC   C3A10397   9.536  42.381   7.931
  406POPC   C4A10398   9.726  42.179   7.582
  406POPC   C1B10399   9.908  42.456   8.802
  406POPC   C2B10400   9.769  42.780   8.499
  406POPC   C3B10401   9.857  42.816   8.050
  406POPC   C4B10402   9.915  42.649   7.633
  407POPC   NC310403  27.016   7.891   9.494
  407POPC   PO410404  26.723   7.413   9.798
  407POPC   GL110405  26.849   7.435   9.299
  407POPC   GL210406  26.731   7.703   9.112
  407POPC   C1A10407  26.863   7.272   8.855
  407POPC   D2A10408  27.005   7.389   8.423
  407POPC   C3A10409  26.789   7.187   8.082
  407POPC   C4A10410  26.846   7.319   7.684
  407POPC   C1B10411  26.934   7.807   8.722
  407POPC   C2B10412  27.087   7.913   8.313
  407POPC   C3B10413  26.848   7.715   8.011
  407POPC   C4B10414  26.433   7.568   7.876
  408POPC   NC310415  27.259  34.820  10.013
  408POPC   PO410416  27.633  34.548   9.517
  408POPC   GL110417  27.721  34.570   9.089
  408POPC   GL210418  27.862  34.892   8.981
  408POPC   C1A10419  27.634  34.462   8.666
  408POPC   D2A10420  27.562  34.627   8.255
  408POPC   C3A10421  27.462  34.386   7.940
  408POPC   C4A10422  27.242  34.329   7.556
  408POPC   C1B10423  27.570  34.961   8.701
  408POPC   C2B10424  27.484  35.123   8.338
  408POPC   C3B10425  27.373  34.970   7.927
  408POPC   C4B10426  27.602  34.768   7.612
  409POPC   NC310427  32.978  12.397   9.567
  409POPC   PO410428  32.930  11.884   9.416
  409POPC   GL110429  32.906  12.225   9.092
  409POPC   GL210430  32.670  12.520   9.149
  409POPC   C1A10431  33.147  12.318   8.724
  409POPC   D2A10432  33.018  12.412   8.317
  409POPC   C3A10433  33.137  12.185   7.926
  409POPC   C4A10434  33.455  12.039   7.597
  409POPC   C1B10435  32.622  12.410   8.679
  409POPC   C2B10436  32.526  12.411   8.190
  409POPC   C3B10437  32.642  12.317   7.749
  409POPC   C4B10438  32.464  12.335   7.296
  410POPC   NC310439   4.040  38.151   9.650
  410POPC   PO410440   3.396  37.852   9.492
  410POPC   GL110441   3.477  37.610   9.086
  410POPC   GL210442   3.772  37.734   9.083
  410POPC   C1A10443   3.662  37.418   8.660
  410POPC   D2A10444   3.818  37.603   8.259
  410POPC   C3A10445   3.680  37.391   7.900
  410POPC   C4A10446   3.602  37.384   7.454
  410POPC   C1B10447   3.678  37.912   8.697
  410POPC   C2B10448   3.388  37.827   8.435
  410POPC   C3B10449   3.446  37.908   8.023
  410POPC   C4B10450   3.306  37.717   7.692
  411POPC   NC310451  33.222  34.790   9.457
  411POPC   PO410452  32.864  35.460   9.503
  411POPC   GL110453  33.096  35.263   9.202
  411POPC   GL210454  32.886  34.992   9.132
  411POPC   C1A10455  33.033  35.464   8.814
  411POPC   D2A10456  33.210  35.391   8.409
  411POPC   C3A10457  32.995  35.477   8.030
  411POPC   C4A10458  33.082  35.670   7.633
  411POPC   C1B10459  33.172  34.973   8.778
  411POPC   C2B10460  33.117  34.881   8.367
  411POPC   C3B10461  33.215  35.022   7.988
  411POPC   C4B10462  32.858  35.045   7.760
  412POPC   NC310463   6.435  20.803   9.529
  412POPC   PO410464   7.112  20.677   9.464
  412POPC   GL110465   6.785  20.716   9.162
  412POPC   GL210466   6.541  20.415   9.138
  412POPC   C1A10467   6.722  20.672   8.745
  412POPC   D2A10468   6.543  20.456   8.431
  412POPC   C3A10469   6.828  20.530   8.130
  412POPC   C4A10470   6.691  20.822   7.862
  412POPC   C1B10471   6.201  20.309   8.818
  412POPC   C2B10472   6.133  20.139   8.431
  412POPC   C3B10473   6.276  20.196   8.063
  412POPC   C4B10474   6.495  20.372   7.769
  413POPC   NC310475  11.694  40.932   9.519
  413POPC   PO410476  12.344  40.606   9.467
  413POPC   GL110477  12.105  40.868   9.210
  413POPC   GL210478  11.906  40.588   9.163
  413POPC   C1A10479  12.069  40.947   8.778
  413POPC   D2A10480  12.184  40.609   8.490
  413POPC   C3A10481  12.287  40.726   8.076
  413POPC   C4A10482  12.245  40.616   7.659
  413POPC   C1B10483  11.719  40.534   8.786
  413POPC   C2B10484  11.672  40.732   8.421
  413POPC   C3B10485  11.809  40.489   8.120
  413POPC   C4B10486  11.710  40.422   7.746
  414POPC   NC310487  30.467  22.128   9.644
  414POPC   PO410488  30.357  22.613   9.268
  414POPC   GL110489  30.482  22.205   9.124
  414POPC   GL210490  30.827  22.124   9.241
  414POPC   C1A10491  30.419  22.189   8.687
  414POPC   D2A10492  30.232  22.482   8.404
  414POPC   C3A10493  30.521  22.560   8.079
  414POPC   C4A10494  30.361  22.319   7.742
  414POPC   C1B10495  30.889  21.954   8.813
  414POPC   C2B10496  30.675  21.817   8.420
  414POPC   C3B10497  30.675  22.032   8.026
  414POPC   C4B10498  31.000  22.317   7.843
  415POPC   NC310499   8.625  15.638   9.297
  415POPC   PO410500   9.201  15.976   9.419
  415POPC   GL110501   9.049  15.882   9.046
  415POPC   GL210502   8.778  16.085   8.990
  415POPC   C1A10503   8.999  15.859   8.610
  415POPC   D2A10504   9.006  16.190   8.315
  415POPC   C3A10505   9.115  16.020   7.905
  415POPC   C4A10506   8.774  15.830   7.705
  415POPC   C1B10507   8.547  16.296   8.676
  415POPC   C2B10508   8.486  16.228   8.239
  415POPC   C3B10509   8.693  16.315   7.848
  415POPC   C4B10510   8.541  16.337   7.392
  416POPC   NC310511  23.662  43.541   9.492
  416POPC   PO410512  23.901  44.185   9.559
  416POPC   GL110513  23.884  43.900   9.200
  416POPC   GL210514  23.520  43.969   9.145
  416POPC   C1A10515  23.731  43.642   8.843
  416POPC   D2A10516  23.896  43.568   8.444
  416POPC   C3A10517  23.935  43.928   8.196
  416POPC   C4A10518  23.935  43.745   7.802
  416POPC   C1B10519  23.285  43.944   8.777
  416POPC   C2B10520  23.377  43.620   8.454
  416POPC   C3B10521  23.515  43.691   8.064
  416POPC   C4B10522  23.514  44.046   7.785
  417POPC   NC310523  28.016   9.102   9.576
  417POPC   PO410524  27.313   8.954   9.603
  417POPC   GL110525  27.482   9.060   9.210
  417POPC   GL210526  27.243   9.296   9.016
  417POPC   C1A10527  27.722   8.854   8.907
  417POPC   D2A10528  27.771   8.976   8.486
  417POPC   C3A10529  27.789   8.763   8.099
  417POPC   C4A10530  27.636   9.027   7.763
  417POPC   C1B10531  27.199   8.878   8.812
  417POPC   C2B10532  27.327   8.709   8.420
  417POPC   C3B10533  27.265   8.963   8.085
  417POPC   C4B10534  27.142   8.918   7.639
  418POPC   NC310535  39.794  13.141   9.527
  418POPC   PO410536  40.310  12.767   9.536
  418POPC   GL110537  39.979  12.727   9.207
  418POPC   GL210538  39.955  13.065   9.067
  418POPC   C1A10539  39.894  12.687   8.753
  418POPC   D2A10540  39.903  12.526   8.347
  418POPC   C3A10541  39.695  12.712   7.977
  418POPC   C4A10542  40.137  12.768   7.897
  418POPC   C1B10543  40.117  13.136   8.665
  418POPC   C2B10544  39.922  13.061   8.283
  418POPC   C3B10545  40.009  13.255   7.876
  418POPC   C4B10546  39.860  13.028   7.501
  419POPC   NC310547   6.220  26.435   9.635
  419POPC   PO410548   5.668  26.838   9.568
  419POPC   GL110549   5.660  26.895   9.163
  419POPC   GL210550   5.946  27.142   9.212
  419POPC   C1A10551   5.668  26.562   8.821
  419POPC   D2A10552   5.823  26.552   8.395
  419POPC   C3A10553   5.585  26.400   8.031
  419POPC   C4A10554   5.757  26.650   7.690
  419POPC   C1B10555   6.097  26.895   8.870
  419POPC   C2B10556   6.258  26.845   8.453
  419POPC   C3B10557   6.014  26.964   8.073
  419POPC   C4B10558   6.022  27.196   7.677
  420POPC   NC310559  42.059  40.631   9.562
  420POPC   PO410560  42.698  40.640   9.431
  420POPC   GL110561  42.350  40.641   9.112
  420POPC   GL210562  42.156  40.930   9.131
  420POPC   C1A10563  42.269  40.664   8.651
  420POPC   D2A10564  42.545  40.424   8.345
  420POPC   C3A10565  42.576  40.571   7.913
  420POPC   C4A10566  42.282  40.503   7.543
  420POPC   C1B10567  42.547  41.057   8.892
  420POPC   C2B10568  42.676  40.969   8.474
  420POPC   C3B10569  42.590  41.129   8.063
  420POPC   C4B10570  42.288  40.973   7.762
  421POPC   NC310571   4.789  25.090   9.592
  421POPC   PO410572   5.431  25.323   9.520
  421POPC   GL110573   5.172  25.473   9.206
  421POPC   GL210574   5.069  25.115   9.169
  421POPC   C1A10575   5.247  25.579   8.757
  421POPC   D2A10576   4.904  25.576   8.444
  421POPC   C3A10577   4.749  25.518   8.031
  421POPC   C4A10578   4.959  25.604   7.658
  421POPC   C1B10579   4.937  25.163   8.748
  421POPC   C2B10580   5.052  25.103   8.299
  421POPC   C3B10581   5.075  25.151   7.858
  421POPC   C4B10582   5.292  25.016   7.493
  422POPC   NC310583   6.199  38.439   9.406
  422POPC   PO410584   5.486  38.294   9.512
  422POPC   GL110585   5.751  38.388   9.161
  422POPC   GL210586   5.823  38.743   9.155
  422POPC   C1A10587   5.964  38.201   8.787
  422POPC   D2A10588   5.855  38.173   8.350
  422POPC   C3A10589   6.116  38.248   7.975
  422POPC   C4A10590   6.027  38.306   7.497
  422POPC   C1B10591   5.797  38.677   8.707
  422POPC   C2B10592   5.531  38.581   8.348
  422POPC   C3B10593   5.680  38.482   7.924
  422POPC   C4B10594   5.966  38.755   7.739
  423POPC   NC310595  22.618  10.079   9.472
  423POPC   PO410596  23.174  10.374   9.376
  423POPC   GL110597  22.847  10.377   9.073
  423POPC   GL210598  22.685  10.730   8.972
  423POPC   C1A10599  22.725  10.359   8.637
  423POPC   D2A10600  22.722  10.655   8.309
  423POPC   C3A10601  22.757  10.384   7.958
  423POPC   C4A10602  23.159  10.456   7.872
  423POPC   C1B10603  23.109  10.703   8.766
  423POPC   C2B10604  23.273  10.680   8.353
  423POPC   C3B10605  23.110  10.930   8.010
  423POPC   C4B10606  22.723  10.894   7.778
  424POPC   NC310607  33.434  36.560   9.214
  424POPC   PO410608  34.063  36.764   9.403
  424POPC   GL110609  33.908  37.137   9.141
  424POPC   GL210610  33.549  37.054   9.010
  424POPC   C1A10611  33.931  37.290   8.693
  424POPC   D2A10612  33.830  37.092   8.285
  424POPC   C3A10613  33.619  37.300   7.956
  424POPC   C4A10614  33.950  37.100   7.754
  424POPC   C1B10615  33.834  36.780   8.735
  424POPC   C2B10616  33.937  36.539   8.339
  424POPC   C3B10617  33.866  36.600   7.882
  424POPC   C4B10618  33.899  36.667   7.406
  425POPC   NC310619  23.210  27.963   9.394
  425POPC   PO410620  22.996  28.499   9.349
  425POPC   GL110621  22.979  28.236   9.012
  425POPC   GL210622  22.681  28.155   9.055
  425POPC   C1A10623  22.963  28.278   8.553
  425POPC   D2A10624  23.010  28.607   8.223
  425POPC   C3A10625  22.970  28.512   7.773
  425POPC   C4A10626  23.221  28.311   7.449
  425POPC   C1B10627  22.500  28.100   8.660
  425POPC   C2B10628  22.625  27.986   8.231
  425POPC   C3B10629  22.888  28.007   7.835
  425POPC   C4B10630  22.894  27.919   7.379
  426POPC   NC310631  38.836  14.513   9.397
  426POPC   PO410632  39.279  14.068   9.534
  426POPC   GL110633  39.170  14.215   9.161
  426POPC   GL210634  38.974  13.970   9.067
  426POPC   C1A10635  39.141  14.457   8.802
  426POPC   D2A10636  39.175  14.273   8.425
  426POPC   C3A10637  39.377  14.443   8.079
  426POPC   C4A10638  39.448  14.125   7.808
  426POPC   C1B10639  38.709  14.170   8.743
  426POPC   C2B10640  38.673  14.339   8.335
  426POPC   C3B10641  38.905  14.243   7.986
  426POPC   C4B10642  39.025  14.551   7.695
  427POPC   NC310643  20.584  24.924   9.440
  427POPC   PO410644  20.935  25.440   9.232
  427POPC   GL110645  20.542  25.285   9.045
  427POPC   GL210646  20.347  24.985   9.013
  427POPC   C1A10647  20.550  25.441   8.641
  427POPC   D2A10648  20.863  25.482   8.361
  427POPC   C3A10649  20.734  25.375   7.969
  427POPC   C4A10650  20.347  25.462   7.833
  427POPC   C1B10651  20.339  24.978   8.580
  427POPC   C2B10652  20.268  24.857   8.149
  427POPC   C3B10653  20.456  24.972   7.778
  427POPC   C4B10654  20.827  25.061   7.533
  428POPC   NC310655  12.401   3.484   9.408
  428POPC   PO410656  11.787   3.800   9.494
  428POPC   GL110657  11.929   3.656   9.104
  428POPC   GL210658  11.988   3.306   9.149
  428POPC   C1A10659  12.028   3.547   8.681
  428POPC   D2A10660  11.934   3.242   8.411
  428POPC   C3A10661  11.740   3.540   8.210
  428POPC   C4A10662  11.845   3.723   7.808
  428POPC   C1B10663  12.222   3.111   8.799
  428POPC   C2B10664  12.440   3.299   8.455
  428POPC   C3B10665  12.249   3.496   8.090
  428POPC   C4B10666  12.201   3.375   7.673
  429POPC   NC310667  11.109  37.803   9.372
  429POPC   PO410668  11.468  37.244   9.364
  429POPC   GL110669  11.406  37.523   9.053
  429POPC   GL210670  11.542  37.865   9.034
  429POPC   C1A10671  11.417  37.565   8.649
  429POPC   D2A10672  11.079  37.646   8.466
  429POPC   C3A10673  11.240  37.548   8.107
  429POPC   C4A10674  11.099  37.496   7.719
  429POPC   C1B10675  11.268  38.069   8.699
  429POPC   C2B10676  11.197  38.070   8.223
  429POPC   C3B10677  11.264  37.978   7.776
  429POPC   C4B10678  11.423  38.026   7.331
  430POPC   NC310679  24.565  16.586   9.523
  430POPC   PO410680  24.403  17.195   9.474
  430POPC   GL110681  24.400  17.110   9.037
  430POPC   GL210682  24.318  16.753   9.030
  430POPC   C1A10683  24.381  16.993   8.586
  430POPC   D2A10684  24.476  16.747   8.261
  430POPC   C3A10685  24.423  16.923   7.882
  430POPC   C4A10686  24.496  16.631   7.566
  430POPC   C1B10687  24.255  16.479   8.640
  430POPC   C2B10688  24.152  16.282   8.232
  430POPC   C3B10689  24.099  16.490   7.855
  430POPC   C4B10690  23.984  16.419   7.434
  431POPC   NC310691  12.859  12.304   9.541
  431POPC   PO410692  12.303  12.541   9.222
  431POPC   GL110693  12.611  12.164   9.093
  431POPC   GL210694  13.003  12.157   9.077
  431POPC   C1A10695  12.739  12.064   8.647
  431POPC   D2A10696  12.789  12.384   8.299
  431POPC   C3A10697  12.913  12.172   7.931
  431POPC   C4A10698  12.742  11.802   7.799
  431POPC   C1B10699  13.189  11.839   8.797
  431POPC   C2B10700  13.048  11.655   8.403
  431POPC   C3B10701  13.211  11.709   7.986
  431POPC   C4B10702  13.297  11.929   7.601
  432POPC   NC310703   9.499   0.673   9.548
  432POPC   PO410704   8.788   0.472   9.590
  432POPC   GL110705   8.878   0.466   9.174
  432POPC   GL210706   9.170   0.635   9.148
  432POPC   C1A10707   8.831   0.536   8.736
  432POPC   D2A10708   8.746   0.498   8.266
  432POPC   C3A10709   8.866   0.513   7.830
  432POPC   C4A10710   8.858   0.594   7.374
  432POPC   C1B10711   9.361   0.620   8.735
  432POPC   C2B10712   9.265   0.511   8.317
  432POPC   C3B10713   9.356   0.626   7.914
  432POPC   C4B10714   9.296   0.393   7.541
  433POPC   NC310715  12.905  43.731   9.442
  433POPC   PO410716  13.010  44.339   9.729
  433POPC   GL110717  13.033  44.190   9.251
  433POPC   GL210718  12.731  44.082   9.133
  433POPC   C1A10719  13.095  43.947   8.810
  433POPC   D2A10720  13.138  44.083   8.348
  433POPC   C3A10721  13.066  43.828   7.987
  433POPC   C4A10722  12.948  43.865   7.560
  433POPC   C1B10723  12.592  43.810   8.831
  433POPC   C2B10724  12.721  43.805   8.432
  433POPC   C3B10725  12.564  43.912   8.060
  433POPC   C4B10726  12.548  43.640   7.750
  434POPC   NC310727  36.493  37.435   9.610
  434POPC   PO410728  37.092  37.799   9.500
  434POPC   GL110729  36.833  37.608   9.186
  434POPC   GL210730  36.523  37.735   9.165
  434POPC   C1A10731  36.905  37.496   8.744
  434POPC   D2A10732  37.160  37.437   8.348
  434POPC   C3A10733  36.979  37.389   7.926
  434POPC   C4A10734  36.826  37.810   7.768
  434POPC   C1B10735  36.541  37.870   8.746
  434POPC   C2B10736  36.693  37.724   8.335
  434POPC   C3B10737  36.487  37.480   8.026
  434POPC   C4B10738  36.349  37.658   7.653
  435POPC   NC310739   5.691  25.661   9.286
  435POPC   PO410740   6.044  25.222   9.656
  435POPC   GL110741   5.869  25.141   9.231
  435POPC   GL210742   5.568  25.186   9.055
  435POPC   C1A10743   5.982  25.015   8.793
  435POPC   D2A10744   5.886  25.013   8.346
  435POPC   C3A10745   5.933  25.357   8.053
  435POPC   C4A10746   5.724  25.165   7.747
  435POPC   C1B10747   5.455  25.112   8.632
  435POPC   C2B10748   5.444  25.413   8.268
  435POPC   C3B10749   5.431  25.551   7.845
  435POPC   C4B10750   5.757  25.630   7.538
  436POPC   NC310751   1.368   1.778   9.866
  436POPC   PO410752   1.126   2.226   9.404
  436POPC   GL110753   1.290   2.131   9.048
  436POPC   GL210754   1.048   1.885   8.972
  436POPC   C1A10755   1.389   2.045   8.617
  436POPC   D2A10756   1.377   1.702   8.328
  436POPC   C3A10757   1.254   1.919   7.951
  436POPC   C4A10758   1.534   2.211   7.792
  436POPC   C1B10759   0.935   2.275   8.726
  436POPC   C2B10760   0.820   2.303   8.323
  436POPC   C3B10761   0.748   2.103   7.963
  436POPC   C4B10762   0.806   2.018   7.532
  437POPC   NC310763  31.393  31.186   9.504
  437POPC   PO410764  31.842  31.673   9.502
  437POPC   GL110765  31.760  31.677   9.103
  437POPC   GL210766  31.727  31.322   9.030
  437POPC   C1A10767  31.589  31.761   8.724
  437POPC   D2A10768  31.484  31.511   8.395
  437POPC   C3A10769  31.341  31.699   8.027
  437POPC   C4A10770  31.541  32.033   7.870
  437POPC   C1B10771  31.862  31.074   8.640
  437POPC   C2B10772  31.656  31.047   8.234
  437POPC   C3B10773  31.197  31.188   8.151
  437POPC   C4B10774  31.078  31.344   7.774
  438POPC   NC310775   4.380  11.464   9.800
  438POPC   PO410776   4.238  12.150   9.501
  438POPC   GL110777   4.469  12.309   9.151
  438POPC   GL210778   4.405  12.001   9.014
  438POPC   C1A10779   4.354  12.360   8.700
  438POPC   D2A10780   4.249  12.459   8.311
  438POPC   C3A10781   4.455  12.200   8.040
  438POPC   C4A10782   4.302  12.238   7.645
  438POPC   C1B10783   4.130  11.803   8.751
  438POPC   C2B10784   4.266  11.884   8.391
  438POPC   C3B10785   4.368  11.666   8.080
  438POPC   C4B10786   4.226  11.746   7.720
  439POPC   NC310787  32.178  37.880   9.461
  439POPC   PO410788  32.157  37.320   9.227
  439POPC   GL110789  32.331  37.617   9.051
  439POPC   GL210790  32.620  37.651   9.225
  439POPC   C1A10791  32.246  37.711   8.675
  439POPC   D2A10792  32.286  37.546   8.312
  439POPC   C3A10793  32.033  37.760   8.022
  439POPC   C4A10794  32.142  37.708   7.625
  439POPC   C1B10795  32.725  37.857   8.824
  439POPC   C2B10796  32.575  37.985   8.402
  439POPC   C3B10797  32.518  37.864   7.969
  439POPC   C4B10798  32.615  37.961   7.537
  440POPC   NC310799  42.318  43.497   9.424
  440POPC   PO410800  42.075  44.032   9.740
  440POPC   GL110801  42.193  44.009   9.290
  440POPC   GL210802  41.961  43.753   9.120
  440POPC   C1A10803  42.374  44.006   8.841
  440POPC   D2A10804  42.267  43.924   8.376
  440POPC   C3A10805  42.640  43.984   8.098
  440POPC   C4A10806  42.773  43.758   7.709
  440POPC   C1B10807  41.882  44.030   8.723
  440POPC   C2B10808  41.867  44.230   8.250
  440POPC   C3B10809  42.107  44.083   7.873
  440POPC   C4B10810  42.301  43.689   7.855
  441POPC   NC310811  38.486  41.652   9.315
  441POPC   PO410812  38.537  42.226   9.676
  441POPC   GL110813  38.414  42.184   9.235
  441POPC   GL210814  38.755  42.099   9.135
  441POPC   C1A10815  38.159  42.388   8.845
  441POPC   D2A10816  38.203  42.630   8.422
  441POPC   C3A10817  38.066  42.471   7.999
  441POPC   C4A10818  38.213  42.110   7.759
  441POPC   C1B10819  38.646  42.284   8.777
  441POPC   C2B10820  38.689  42.444   8.362
  441POPC   C3B10821  38.569  42.457   7.954
  441POPC   C4B10822  38.690  42.194   7.615
  442POPC   NC310823  28.166  14.817   9.541
  442POPC   PO410824  28.655  14.291   9.519
  442POPC   GL110825  28.521  14.162   9.148
  442POPC   GL210826  28.256  14.426   9.174
  442POPC   C1A10827  28.537  14.372   8.745
  442POPC   D2A10828  28.768  14.461   8.400
  442POPC   C3A10829  28.637  14.346   7.983
  442POPC   C4A10830  28.570  14.538   7.593
  442POPC   C1B10831  28.088  14.623   8.800
  442POPC   C2B10832  28.180  14.446   8.354
  442POPC   C3B10833  28.177  14.598   7.917
  442POPC   C4B10834  27.987  14.828   7.577
  443POPC   NC310835  43.632   6.466   9.568
  443POPC   PO410836  44.364   6.754   9.607
  443POPC   GL110837  44.085   6.770   9.262
  443POPC   GL210838  43.714   6.754   9.150
  443POPC   C1A10839  44.123   6.751   8.839
  443POPC   D2A10840  43.799   6.606   8.553
  443POPC   C3A10841  43.845   6.707   8.129
  443POPC   C4A10842  44.195   6.675   7.809
  443POPC   C1B10843  43.510   6.967   8.779
  443POPC   C2B10844  43.570   7.140   8.353
  443POPC   C3B10845  43.467   7.018   7.914
  443POPC   C4B10846  43.660   6.664   7.668
  444POPC   NC310847   6.909  30.514   9.398
  444POPC   PO410848   6.299  30.740   9.608
  444POPC   GL110849   6.507  30.686   9.176
  444POPC   GL210850   6.844  30.927   9.107
  444POPC   C1A10851   6.682  30.604   8.753
  444POPC   D2A10852   6.366  30.794   8.493
  444POPC   C3A10853   6.521  30.902   8.097
  444POPC   C4A10854   6.752  30.778   7.735
  444POPC   C1B10855   6.997  31.005   8.656
  444POPC   C2B10856   7.060  30.817   8.219
  444POPC   C3B10857   7.203  30.545   7.858
  444POPC   C4B10858   6.938  30.377   7.495
  445POPC   NC310859  28.838  36.231   9.423
  445POPC   PO410860  29.563  36.063   9.522
  445POPC   GL110861  29.452  36.221   9.108
  445POPC   GL210862  29.118  36.318   8.989
  445POPC   C1A10863  29.427  36.031   8.660
  445POPC   D2A10864  29.194  35.768   8.332
  445POPC   C3A10865  29.241  35.934   7.929
  445POPC   C4A10866  29.284  36.394   7.796
  445POPC   C1B10867  28.947  35.939   8.801
  445POPC   C2B10868  28.702  35.918   8.456
  445POPC   C3B10869  28.744  35.782   8.020
  445POPC   C4B10870  28.826  36.028   7.663
  446POPC   NC310871  26.826  20.905   9.722
  446POPC   PO410872  27.277  20.377   9.536
  446POPC   GL110873  26.960  20.553   9.167
  446POPC   GL210874  26.745  20.883   9.194
  446POPC   C1A10875  26.781  20.490   8.710
  446POPC   D2A10876  26.906  20.203   8.350
  446POPC   C3A10877  26.762  20.226   7.948
  446POPC   C4A10878  26.643  20.425   7.552
  446POPC   C1B10879  26.956  20.955   8.799
  446POPC   C2B10880  26.845  20.942   8.375
  446POPC   C3B10881  26.801  20.727   7.981
  446POPC   C4B10882  27.012  20.795   7.601
  447POPC   NC310883  35.993   4.574   9.335
  447POPC   PO410884  36.080   4.052   9.691
  447POPC   GL110885  36.112   4.046   9.164
  447POPC   GL210886  36.432   4.113   9.067
  447POPC   C1A10887  36.036   4.254   8.716
  447POPC   D2A10888  36.061   4.593   8.371
  447POPC   C3A10889  36.027   4.429   7.948
  447POPC   C4A10890  35.816   4.187   7.606
  447POPC   C1B10891  36.550   4.344   8.700
  447POPC   C2B10892  36.435   4.250   8.278
  447POPC   C3B10893  36.415   4.112   7.863
  447POPC   C4B10894  36.292   4.366   7.499
  448POPC   NC310895  41.836   1.788   9.597
  448POPC   PO410896  41.247   2.130   9.536
  448POPC   GL110897  41.519   2.019   9.172
  448POPC   GL210898  41.188   1.944   9.067
  448POPC   C1A10899  41.774   2.001   8.763
  448POPC   D2A10900  42.052   2.034   8.441
  448POPC   C3A10901  41.944   1.785   8.089
  448POPC   C4A10902  41.863   2.011   7.711
  448POPC   C1B10903  41.296   1.892   8.687
  448POPC   C2B10904  41.504   1.725   8.366
  448POPC   C3B10905  41.407   1.852   7.965
  448POPC   C4B10906  41.389   1.859   7.514
  449POPC   NC310907  10.483  15.612   9.742
  449POPC   PO410908  10.573  15.018   9.524
  449POPC   GL110909  10.469  15.087   9.069
  449POPC   GL210910  10.163  15.117   9.003
  449POPC   C1A10911  10.690  15.126   8.691
  449POPC   D2A10912  10.692  15.268   8.269
  449POPC   C3A10913  10.412  15.143   7.958
  449POPC   C4A10914  10.652  15.010   7.623
  449POPC   C1B10915  10.159  15.190   8.556
  449POPC   C2B10916  10.233  15.529   8.273
  449POPC   C3B10917  10.301  15.633   7.822
  449POPC   C4B10918  10.366  15.403   7.377
  450POPC   NC310919  13.432  32.048   9.670
  450POPC   PO410920  14.031  32.454   9.389
  450POPC   GL110921  13.735  32.367   9.081
  450POPC   GL210922  13.394  32.370   9.175
  450POPC   C1A10923  13.609  32.259   8.688
  450POPC   D2A10924  13.548  32.458   8.311
  450POPC   C3A10925  13.662  32.240   7.951
  450POPC   C4A10926  13.648  31.924   7.660
  450POPC   C1B10927  13.173  32.516   8.782
  450POPC   C2B10928  13.028  32.413   8.360
  450POPC   C3B10929  13.202  32.482   7.949
  450POPC   C4B10930  13.284  32.259   7.577
  451POPC   NC310931  36.320  32.046   9.557
  451POPC   PO410932  35.735  32.310   9.534
  451POPC   GL110933  35.986  32.213   9.189
  451POPC   GL210934  36.013  32.478   8.941
  451POPC   C1A10935  36.255  32.053   8.864
  451POPC   D2A10936  36.431  32.195   8.468
  451POPC   C3A10937  36.360  32.071   8.017
  451POPC   C4A10938  36.454  32.406   7.763
  451POPC   C1B10939  35.766  32.103   8.742
  451POPC   C2B10940  35.926  32.024   8.349
  451POPC   C3B10941  36.028  32.422   8.175
  451POPC   C4B10942  35.966  32.516   7.769
  452POPC   NC310943  23.652  37.440   9.548
  452POPC   PO410944  23.812  38.004   9.415
  452POPC   GL110945  23.561  37.741   9.142
  452POPC   GL210946  23.363  37.424   9.140
  452POPC   C1A10947  23.647  37.752   8.741
  452POPC   D2A10948  23.681  37.995   8.403
  452POPC   C3A10949  23.702  37.812   8.023
  452POPC   C4A10950  23.771  38.008   7.624
  452POPC   C1B10951  23.121  37.378   8.788
  452POPC   C2B10952  23.297  37.530   8.441
  452POPC   C3B10953  23.309  37.484   8.051
  452POPC   C4B10954  23.460  37.603   7.646
  453POPC   NC310955  41.052  20.482   9.536
  453POPC   PO410956  40.415  20.811   9.572
  453POPC   GL110957  40.542  20.843   9.116
  453POPC   GL210958  40.452  21.182   9.018
  453POPC   C1A10959  40.820  20.725   8.741
  453POPC   D2A10960  41.009  20.840   8.312
  453POPC   C3A10961  40.868  20.689   7.896
  453POPC   C4A10962  40.625  20.337   7.698
  453POPC   C1B10963  40.374  20.991   8.632
  453POPC   C2B10964  40.504  20.941   8.218
  453POPC   C3B10965  40.373  20.782   7.805
  453POPC   C4B10966  40.311  20.623   7.372
  454POPC   NC310967  32.814   0.087   9.277
  454POPC   PO410968  33.246   0.540   9.534
  454POPC   GL110969  33.084   0.605   9.155
  454POPC   GL210970  32.715   0.582   9.089
  454POPC   C1A10971  33.312   0.603   8.800
  454POPC   D2A10972  33.182   0.681   8.409
  454POPC   C3A10973  33.263   0.376   8.084
  454POPC   C4A10974  33.237   0.520   7.652
  454POPC   C1B10975  32.834   0.438   8.708
  454POPC   C2B10976  32.733   0.433   8.308
  454POPC   C3B10977  32.800   0.278   7.908
  454POPC   C4B10978  32.828   0.134   7.531
  455POPC   NC310979  24.380  44.185   9.494
  455POPC   PO410980  24.742  43.668   9.719
  455POPC   GL110981  24.452  43.687   9.292
  455POPC   GL210982  24.521  43.956   9.064
  455POPC   C1A10983  24.251  43.616   8.832
  455POPC   D2A10984  24.393  43.405   8.463
  455POPC   C3A10985  24.324  43.583   8.097
  455POPC   C4A10986  24.356  43.991   7.909
  455POPC   C1B10987  24.745  44.129   8.713
  455POPC   C2B10988  24.645  44.004   8.314
  455POPC   C3B10989  24.833  44.143   7.910
  455POPC   C4B10990  24.711  44.056   7.478
  456POPC   NC310991  32.789  32.551   9.744
  456POPC   PO410992  33.014  33.205   9.676
  456POPC   GL110993  32.943  33.040   9.212
  456POPC   GL210994  32.817  32.733   9.194
  456POPC   C1A10995  32.888  33.248   8.809
  456POPC   D2A10996  32.631  33.169   8.441
  456POPC   C3A10997  32.774  33.011   8.019
  456POPC   C4A10998  32.893  33.236   7.636
  456POPC   C1B10999  33.004  32.746   8.757
  456POPC   C2B11000  33.161  33.006   8.412
  456POPC   C3B11001  33.300  32.922   7.982
  456POPC   C4B11002  33.123  32.791   7.577
  457POPC   NC311003  41.950   6.015   9.476
  457POPC   PO411004  42.507   5.613   9.420
  457POPC   GL111005  42.241   5.758   9.103
  457POPC   GL211006  42.228   6.064   8.952
  457POPC   C1A11007  42.387   5.642   8.693
  457POPC   D2A11008  42.620   5.749   8.323
  457POPC   C3A11009  42.368   5.998   8.115
  457POPC   C4A11010  42.311   6.029   7.682
  457POPC   C1B11011  41.984   5.955   8.601
  457POPC   C2B11012  41.987   5.638   8.290
  457POPC   C3B11013  42.189   5.567   7.892
  457POPC   C4B11014  42.008   5.523   7.471
  458POPC   NC311015  24.256  10.992   9.524
  458POPC   PO411016  24.652  11.643   9.504
  458POPC   GL111017  24.553  11.309   9.226
  458POPC   GL211018  24.183  11.437   9.251
  458POPC   C1A11019  24.662  11.004   8.855
  458POPC   D2A11020  24.795  10.860   8.425
  458POPC   C3A11021  24.632  11.138   8.044
  458POPC   C4A11022  24.539  11.055   7.579
  458POPC   C1B11023  24.231  11.267   8.843
  458POPC   C2B11024  24.247  11.440   8.435
  458POPC   C3B11025  24.160  11.476   8.018
  458POPC   C4B11026  24.136  11.345   7.616
  459POPC   NC311027  40.232   4.209   9.354
  459POPC   PO411028  39.883   4.633   9.679
  459POPC   GL111029  39.830   4.482   9.210
  459POPC   GL211030  39.749   4.153   9.141
  459POPC   C1A11031  39.796   4.515   8.754
  459POPC   D2A11032  40.114   4.677   8.446
  459POPC   C3A11033  40.158   4.471   8.034
  459POPC   C4A11034  39.828   4.365   7.758
  459POPC   C1B11035  39.925   3.989   8.786
  459POPC   C2B11036  40.029   4.126   8.409
  459POPC   C3B11037  39.947   3.948   8.036
  459POPC   C4B11038  40.252   3.979   7.785
  460POPC   NC311039   4.431  30.450   9.531
  460POPC   PO411040   3.870  30.931   9.582
  460POPC   GL111041   4.046  30.744   9.159
  460POPC   GL211042   4.347  30.526   9.055
  460POPC   C1A11043   4.011  30.612   8.698
  460POPC   D2A11044   4.113  30.409   8.315
  460POPC   C3A11045   3.906  30.605   7.946
  460POPC   C4A11046   4.079  30.901   7.646
  460POPC   C1B11047   4.534  30.748   8.750
  460POPC   C2B11048   4.494  31.003   8.399
  460POPC   C3B11049   4.358  30.816   8.076
  460POPC   C4B11050   4.583  30.765   7.747
  461POPC   NC311051  30.669  33.366   9.460
  461POPC   PO411052  30.588  32.702   9.387
  461POPC   GL111053  30.856  32.889   9.066
  461POPC   GL211054  30.557  33.080   9.017
  461POPC   C1A11055  30.885  33.081   8.624
  461POPC   D2A11056  30.670  33.051   8.212
  461POPC   C3A11057  30.749  33.057   7.734
  461POPC   C4A11058  30.902  33.131   7.303
  461POPC   C1B11059  30.525  32.725   8.683
  461POPC   C2B11060  30.405  32.601   8.252
  461POPC   C3B11061  30.279  32.906   7.911
  461POPC   C4B11062  30.350  33.356   7.880
  462POPC   NC311063  31.163  14.991   9.855
  462POPC   PO411064  31.761  15.064   9.560
  462POPC   GL111065  31.582  15.016   9.148
  462POPC   GL211066  31.280  15.143   9.133
  462POPC   C1A11067  31.599  15.038   8.713
  462POPC   D2A11068  31.755  15.435   8.514
  462POPC   C3A11069  31.663  15.449   8.088
  462POPC   C4A11070  31.682  15.253   7.662
  462POPC   C1B11071  31.301  15.452   8.797
  462POPC   C2B11072  31.231  15.229   8.400
  462POPC   C3B11073  31.355  15.043   8.016
  462POPC   C4B11074  31.182  15.308   7.715
  463POPC   NC311075  31.245  34.165   9.424
  463POPC   PO411076  31.221  34.869   9.605
  463POPC   GL111077  31.479  34.780   9.193
  463POPC   GL211078  31.341  34.506   9.090
  463POPC   C1A11079  31.644  34.691   8.744
  463POPC   D2A11080  31.706  34.370   8.457
  463POPC   C3A11081  31.571  34.478   8.041
  463POPC   C4A11082  31.621  34.472   7.603
  463POPC   C1B11083  31.265  34.237   8.747
  463POPC   C2B11084  31.179  34.393   8.340
  463POPC   C3B11085  31.070  34.281   7.922
  463POPC   C4B11086  31.140  34.203   7.491
  464POPC   NC311087  32.632  26.806   9.365
  464POPC   PO411088  32.052  26.822   9.659
  464POPC   GL111089  32.120  26.708   9.211
  464POPC   GL211090  32.294  26.402   9.069
  464POPC   C1A11091  32.125  26.843   8.793
  464POPC   D2A11092  32.268  26.987   8.399
  464POPC   C3A11093  32.043  26.946   8.012
  464POPC   C4A11094  32.268  26.728   7.703
  464POPC   C1B11095  32.432  26.475   8.608
  464POPC   C2B11096  32.467  26.533   8.159
  464POPC   C3B11097  32.525  26.304   7.797
  464POPC   C4B11098  32.348  26.294   7.423
  465POPC   NC311099  10.896  33.137   9.522
  465POPC   PO411100  10.322  32.797   9.521
  465POPC   GL111101  10.531  32.962   9.141
  465POPC   GL211102  10.597  33.313   9.120
  465POPC   C1A11103  10.505  33.056   8.685
  465POPC   D2A11104  10.139  33.081   8.383
  465POPC   C3A11105  10.282  33.213   8.002
  465POPC   C4A11106  10.561  33.087   7.694
  465POPC   C1B11107  10.722  33.515   8.697
  465POPC   C2B11108  10.734  33.281   8.295
  465POPC   C3B11109  10.973  33.286   7.946
  465POPC   C4B11110  10.949  33.375   7.529
  466POPC   NC311111  35.909  31.136   9.526
  466POPC   PO411112  36.454  31.617   9.480
  466POPC   GL111113  36.290  31.364   9.108
  466POPC   GL211114  35.949  31.254   9.050
  466POPC   C1A11115  36.284  31.240   8.674
  466POPC   D2A11116  36.176  31.546   8.364
  466POPC   C3A11117  36.267  31.527   7.966
  466POPC   C4A11118  36.047  31.773   7.717
  466POPC   C1B11119  35.931  31.618   8.805
  466POPC   C2B11120  35.666  31.582   8.428
  466POPC   C3B11121  35.776  31.393   8.016
  466POPC   C4B11122  35.576  31.547   7.648
  467POPC   NC311123  11.861  35.490   9.577
  467POPC   PO411124  12.212  34.902   9.628
  467POPC   GL111125  12.204  35.269   9.263
  467POPC   GL211126  11.932  35.316   9.088
  467POPC   C1A11127  12.350  35.581   8.934
  467POPC   D2A11128  12.418  35.483   8.519
  467POPC   C3A11129  12.365  35.632   8.112
  467POPC   C4A11130  12.352  35.413   7.771
  467POPC   C1B11131  11.796  35.304   8.672
  467POPC   C2B11132  11.892  35.585   8.338
  467POPC   C3B11133  11.883  35.544   7.929
  467POPC   C4B11134  11.907  35.220   7.673
  468POPC   NC311135   8.572  17.216   9.427
  468POPC   PO411136   7.957  17.449   9.557
  468POPC   GL111137   8.163  17.512   9.186
  468POPC   GL211138   7.876  17.682   9.075
  468POPC   C1A11139   8.307  17.635   8.781
  468POPC   D2A11140   8.485  17.719   8.379
  468POPC   C3A11141   8.330  17.675   7.956
  468POPC   C4A11142   8.588  17.682   7.596
  468POPC   C1B11143   7.902  17.332   8.739
  468POPC   C2B11144   8.059  17.346   8.265
  468POPC   C3B11145   7.872  17.418   7.818
  468POPC   C4B11146   7.768  17.500   7.347
  469POPC   NC311147   8.807  25.498   9.630
  469POPC   PO411148   9.293  25.111   9.631
  469POPC   GL111149   9.087  25.179   9.221
  469POPC   GL211150   8.769  25.320   9.145
  469POPC   C1A11151   9.236  25.399   8.819
  469POPC   D2A11152   9.043  25.448   8.415
  469POPC   C3A11153   9.219  25.334   8.028
  469POPC   C4A11154   9.028  25.419   7.650
  469POPC   C1B11155   8.844  25.085   8.758
  469POPC   C2B11156   8.688  24.960   8.377
  469POPC   C3B11157   8.764  25.095   7.987
  469POPC   C4B11158   9.005  24.902   7.686
  470POPC   NC311159   4.602  18.075   9.880
  470POPC   PO411160   5.089  18.439   9.715
  470POPC   GL111161   5.089  18.509   9.270
  470POPC   GL211162   5.048  18.154   9.181
  470POPC   C1A11163   4.845  18.500   8.864
  470POPC   D2A11164   4.939  18.366   8.457
  470POPC   C3A11165   4.836  18.365   8.028
  470POPC   C4A11166   5.213  18.382   7.793
  470POPC   C1B11167   5.147  18.009   8.754
  470POPC   C2B11168   5.008  17.864   8.320
  470POPC   C3B11169   5.062  17.903   7.859
  470POPC   C4B11170   5.068  17.827   7.403
  471POPC   NC311171  38.841   5.085   9.599
  471POPC   PO411172  38.128   4.815   9.677
  471POPC   GL111173  38.214   4.871   9.248
  471POPC   GL211174  38.480   5.119   9.215
  471POPC   C1A11175  38.345   4.833   8.812
  471POPC   D2A11176  38.493   5.089   8.514
  471POPC   C3A11177  38.513   4.890   8.144
  471POPC   C4A11178  38.339   4.880   7.736
  471POPC   C1B11179  38.147   5.287   8.912
  471POPC   C2B11180  38.020   5.240   8.446
  471POPC   C3B11181  38.217   5.273   8.032
  471POPC   C4B11182  38.614   5.333   7.770
  472POPC   NC311183  28.896  24.889   9.386
  472POPC   PO411184  29.414  24.559   9.712
  472POPC   GL111185  29.438  24.613   9.223
  472POPC   GL211186  29.129  24.609   9.024
  472POPC   C1A11187  29.522  24.339   8.825
  472POPC   D2A11188  29.685  24.291   8.403
  472POPC   C3A11189  29.443  24.444   8.034
  472POPC   C4A11190  29.314  24.606   7.623
  472POPC   C1B11191  28.873  24.357   8.744
  472POPC   C2B11192  28.905  24.388   8.326
  472POPC   C3B11193  28.853  24.442   7.898
  472POPC   C4B11194  28.886  24.374   7.486
  473POPC   NC311195  38.515   7.566   9.711
  473POPC   PO411196  38.350   6.992   9.918
  473POPC   GL111197  38.390   7.178   9.418
  473POPC   GL211198  38.713   7.378   9.278
  473POPC   C1A11199  38.340   7.411   8.949
  473POPC   D2A11200  38.232   7.757   8.598
  473POPC   C3A11201  38.190   7.648   8.139
  473POPC   C4A11202  38.451   7.431   7.840
  473POPC   C1B11203  38.820   7.583   8.872
  473POPC   C2B11204  38.725   7.683   8.462
  473POPC   C3B11205  38.874   7.600   8.074
  473POPC   C4B11206  38.939   7.334   7.709
  474POPC   NC311207  24.783   6.831   9.454
  474POPC   PO411208  25.485   6.631   9.527
  474POPC   GL111209  25.207   6.700   9.175
  474POPC   GL211210  25.093   7.032   9.095
  474POPC   C1A11211  25.130   6.640   8.724
  474POPC   D2A11212  25.301   6.720   8.312
  474POPC   C3A11213  25.445   6.323   8.134
  474POPC   C4A11214  25.311   6.239   7.719
  474POPC   C1B11215  24.999   7.131   8.656
  474POPC   C2B11216  25.065   7.194   8.209
  474POPC   C3B11217  25.124   6.942   7.852
  474POPC   C4B11218  25.498   6.712   7.815
  475POPC   NC311219   8.986  29.575   9.497
  475POPC   PO411220   8.767  30.246   9.531
  475POPC   GL111221   9.047  30.027   9.273
  475POPC   GL211222   8.870  30.158   9.049
  475POPC   C1A11223   9.225  29.869   8.873
  475POPC   D2A11224   9.101  29.787   8.462
  475POPC   C3A11225   9.014  29.777   8.007
  475POPC   C4A11226   8.871  29.534   7.645
  475POPC   C1B11227   8.580  30.245   8.786
  475POPC   C2B11228   8.621  30.024   8.416
  475POPC   C3B11229   8.646  30.208   8.044
  475POPC   C4B11230   8.697  30.021   7.654
  476POPC   NC311231  43.405  12.138   9.501
  476POPC   PO411232  42.929  11.715   9.610
  476POPC   GL111233  43.022  11.849   9.189
  476POPC   GL211234  43.349  11.723   9.188
  476POPC   C1A11235  42.882  11.969   8.755
  476POPC   D2A11236  42.712  11.844   8.351
  476POPC   C3A11237  42.839  12.084   8.018
  476POPC   C4A11238  43.164  12.075   7.703
  476POPC   C1B11239  43.414  11.977   8.810
  476POPC   C2B11240  43.261  12.061   8.376
  476POPC   C3B11241  43.540  12.147   8.019
  476POPC   C4B11242  43.479  12.481   7.690
  477POPC   NC311243  26.842   7.025   9.576
  477POPC   PO411244  27.197   6.455   9.521
  477POPC   GL111245  26.948   6.557   9.166
  477POPC   GL211246  27.095   6.856   9.147
  477POPC   C1A11247  26.799   6.746   8.749
  477POPC   D2A11248  26.534   6.566   8.427
  477POPC   C3A11249  26.493   6.683   8.022
  477POPC   C4A11250  26.785   6.782   7.763
  477POPC   C1B11251  27.318   6.980   8.804
  477POPC   C2B11252  27.184   6.912   8.391
  477POPC   C3B11253  27.263   7.058   7.987
  477POPC   C4B11254  27.193   6.974   7.554
  478POPC   NC311255  44.607  40.411   9.838
  478POPC   PO411256  44.309  39.921   9.480
  478POPC   GL111257  44.514  40.124   9.139
  478POPC   GL211258  44.857  40.021   9.086
  478POPC   C1A11259  44.562  40.161   8.686
  478POPC   D2A11260  44.745  40.293   8.308
  478POPC   C3A11261  44.441  40.251   7.995
  478POPC   C4A11262  44.405  39.946   7.655
  478POPC   C1B11263  44.742  39.678   8.768
  478POPC   C2B11264  44.604  39.757   8.326
  478POPC   C3B11265  44.820  39.912   7.956
  478POPC   C4B11266  44.915  39.845   7.529
  479POPC   NC311267  21.069   8.113   9.447
  479POPC   PO411268  21.809   8.160   9.477
  479POPC   GL111269  21.601   8.247   9.099
  479POPC   GL211270  21.314   8.471   9.122
  479POPC   C1A11271  21.457   7.987   8.760
  479POPC   D2A11272  21.370   7.926   8.320
  479POPC   C3A11273  21.623   8.060   7.954
  479POPC   C4A11274  21.627   7.808   7.557
  479POPC   C1B11275  21.450   8.506   8.669
  479POPC   C2B11276  21.199   8.444   8.301
  479POPC   C3B11277  21.019   8.138   8.032
  479POPC   C4B11278  21.218   8.134   7.634
  480POPC   NC311279   2.261  39.374   9.295
  480POPC   PO411280   2.197  38.865   9.739
  480POPC   GL111281   1.903  39.013   9.260
  480POPC   GL211282   1.654  39.256   9.152
  480POPC   C1A11283   1.957  39.103   8.747
  480POPC   D2A11284   1.970  38.919   8.297
  480POPC   C3A11285   2.057  39.275   7.978
  480POPC   C4A11286   1.926  39.260   7.525
  480POPC   C1B11287   1.503  39.336   8.736
  480POPC   C2B11288   1.663  39.334   8.329
  480POPC   C3B11289   1.570  39.176   7.922
  480POPC   C4B11290   1.414  39.186   7.528
  481POPC   NC311291  26.696  15.023   9.842
  481POPC   PO411292  27.305  15.196   9.700
  481POPC   GL111293  27.072  15.157   9.290
  481POPC   GL211294  26.710  15.224   9.337
  481POPC   C1A11295  27.015  15.330   8.850
  481POPC   D2A11296  26.958  15.432   8.379
  481POPC   C3A11297  27.099  15.107   8.068
  481POPC   C4A11298  27.089  15.086   7.597
  481POPC   C1B11299  26.658  14.972   8.959
  481POPC   C2B11300  26.552  15.133   8.533
  481POPC   C3B11301  26.602  15.081   8.093
  481POPC   C4B11302  26.380  15.188   7.721
  482POPC   NC311303  22.992  18.862   9.606
  482POPC   PO411304  23.531  19.176   9.603
  482POPC   GL111305  23.246  19.174   9.201
  482POPC   GL211306  22.858  19.163   9.216
  482POPC   C1A11307  23.064  19.255   8.749
  482POPC   D2A11308  22.955  19.388   8.288
  482POPC   C3A11309  23.106  19.167   7.908
  482POPC   C4A11310  23.156  18.822   7.563
  482POPC   C1B11311  22.733  18.883   8.863
  482POPC   C2B11312  22.693  18.950   8.388
  482POPC   C3B11313  22.602  19.155   7.959
  482POPC   C4B11314  22.767  19.140   7.521
  483POPC   NC311315  20.496  31.323   9.500
  483POPC   PO411316  20.760  31.811   9.846
  483POPC   GL111317  20.756  31.720   9.314
  483POPC   GL211318  20.705  31.409   9.076
  483POPC   C1A11319  20.770  31.853   8.855
  483POPC   D2A11320  20.879  31.681   8.477
  483POPC   C3A11321  20.635  31.808   8.095
  483POPC   C4A11322  20.774  31.637   7.713
  483POPC   C1B11323  20.441  31.457   8.740
  483POPC   C2B11324  20.502  31.367   8.311
  483POPC   C3B11325  20.554  31.188   7.898
  483POPC   C4B11326  20.880  31.119   7.602
  484POPC   NC311327   5.703  44.716   9.479
  484POPC   PO411328   6.032  44.151   9.396
  484POPC   GL111329   5.890  44.399   9.089
  484POPC   GL211330   6.093  44.687   9.127
  484POPC   C1A11331   6.007  44.506   8.672
  484POPC   D2A11332   6.118  44.566   8.259
  484POPC   C3A11333   5.814  44.682   7.976
  484POPC   C4A11334   5.719  44.486   7.602
  484POPC   C1B11335   6.077   0.010   8.761
  484POPC   C2B11336   6.234   0.050   8.328
  484POPC   C3B11337   6.294  44.892   7.878
  484POPC   C4B11338   6.403  44.940   7.438
  485POPC   NC311339  19.831  34.084   9.483
  485POPC   PO411340  19.854  33.395   9.454
  485POPC   GL111341  19.660  33.601   9.117
  485POPC   GL211342  19.775  33.927   9.019
  485POPC   C1A11343  19.756  33.549   8.689
  485POPC   D2A11344  19.998  33.576   8.322
  485POPC   C3A11345  19.765  33.497   7.928
  485POPC   C4A11346  19.828  33.669   7.484
  485POPC   C1B11347  19.968  34.065   8.654
  485POPC   C2B11348  19.803  34.054   8.256
  485POPC   C3B11349  19.990  33.946   7.886
  485POPC   C4B11350  20.174  34.076   7.497
  486POPC   NC311351  26.172  18.096   9.462
  486POPC   PO411352  26.320  18.718   9.367
  486POPC   GL111353  26.244  18.404   9.059
  486POPC   GL211354  25.884  18.302   9.097
  486POPC   C1A11355  26.126  18.458   8.653
  486POPC   D2A11356  26.284  18.565   8.266
  486POPC   C3A11357  26.192  18.287   8.007
  486POPC   C4A11358  26.151  18.433   7.640
  486POPC   C1B11359  25.902  17.934   8.805
  486POPC   C2B11360  25.960  18.004   8.398
  486POPC   C3B11361  25.746  18.032   8.068
  486POPC   C4B11362  25.906  17.975   7.686
  487POPC   NC311363   1.945  10.320   9.436
  487POPC   PO411364   2.323  10.849   9.279
  487POPC   GL111365   1.910  10.681   9.089
  487POPC   GL211366   2.135  10.487   8.958
  487POPC   C1A11367   1.723  10.333   8.778
  487POPC   D2A11368   2.022  10.326   8.418
  487POPC   C3A11369   1.913  10.621   8.077
  487POPC   C4A11370   1.838  10.350   7.743
  487POPC   C1B11371   1.978  10.784   8.608
  487POPC   C2B11372   2.339  10.774   8.336
  487POPC   C3B11373   2.406  10.474   8.033
  487POPC   C4B11374   2.247  10.651   7.674
  488POPC   NC311375  28.849  37.972   9.330
  488POPC   PO411376  29.356  37.827   9.746
  488POPC   GL111377  29.326  37.822   9.271
  488POPC   GL211378  29.105  37.546   9.170
  488POPC   C1A11379  29.221  37.864   8.801
  488POPC   D2A11380  29.204  37.608   8.433
  488POPC   C3A11381  29.210  37.813   8.040
  488POPC   C4A11382  29.211  37.693   7.635
  488POPC   C1B11383  28.805  37.535   8.799
  488POPC   C2B11384  28.780  37.305   8.410
  488POPC   C3B11385  29.017  37.315   8.017
  488POPC   C4B11386  28.800  37.371   7.677
  489POPC   NC311387   3.103   3.908   9.546
  489POPC   PO411388   2.788   4.541   9.486
  489POPC   GL111389   2.900   4.261   9.153
  489POPC   GL211390   2.664   4.023   9.081
  489POPC   C1A11391   2.907   4.247   8.681
  489POPC   D2A11392   2.655   4.467   8.348
  489POPC   C3A11393   2.858   4.418   7.947
  489POPC   C4A11394   2.747   4.445   7.541
  489POPC   C1B11395   2.414   4.199   8.751
  489POPC   C2B11396   2.246   4.149   8.326
  489POPC   C3B11397   2.387   4.198   7.929
  489POPC   C4B11398   2.382   4.092   7.489
  490POPC   NC311399  16.621  35.433   9.575
  490POPC   PO411400  17.031  34.968   9.720
  490POPC   GL111401  16.957  35.030   9.245
  490POPC   GL211402  16.614  35.160   9.135
  490POPC   C1A11403  16.965  35.033   8.779
  490POPC   D2A11404  16.784  35.246   8.418
  490POPC   C3A11405  16.947  35.215   7.991
  490POPC   C4A11406  16.906  35.152   7.518
  490POPC   C1B11407  16.801  35.512   8.868
  490POPC   C2B11408  16.587  35.749   8.538
  490POPC   C3B11409  16.652  35.641   8.105
  490POPC   C4B11410  16.566  35.512   7.725
  491POPC   NC311411  39.653  42.362   9.547
  491POPC   PO411412  40.351  42.415   9.686
  491POPC   GL111413  40.092  42.496   9.223
  491POPC   GL211414  39.711  42.501   9.084
  491POPC   C1A11415  40.090  42.441   8.743
  491POPC   D2A11416  40.110  42.125   8.395
  491POPC   C3A11417  40.360  42.274   8.035
  491POPC   C4A11418  40.254  42.614   7.753
  491POPC   C1B11419  39.558  42.465   8.677
  491POPC   C2B11420  39.685  42.365   8.259
  491POPC   C3B11421  39.441  42.399   7.910
  491POPC   C4B11422  39.411  42.518   7.513
  492POPC   NC311423  14.149  18.575   9.295
  492POPC   PO411424  14.574  18.133   9.583
  492POPC   GL111425  14.451  18.154   9.162
  492POPC   GL211426  14.629  17.881   9.066
  492POPC   C1A11427  14.314  18.239   8.743
  492POPC   D2A11428  14.155  18.237   8.322
  492POPC   C3A11429  14.335  18.526   8.018
  492POPC   C4A11430  14.330  18.518   7.570
  492POPC   C1B11431  14.704  17.897   8.684
  492POPC   C2B11432  14.471  17.834   8.345
  492POPC   C3B11433  14.610  17.975   7.979
  492POPC   C4B11434  14.688  18.182   7.623
  493POPC   NC311435  21.560  23.513   9.394
  493POPC   PO411436  21.374  24.127   9.620
  493POPC   GL111437  21.469  23.970   9.177
  493POPC   GL211438  21.190  23.751   9.118
  493POPC   C1A11439  21.592  23.757   8.781
  493POPC   D2A11440  21.620  23.819   8.363
  493POPC   C3A11441  21.550  23.558   8.015
  493POPC   C4A11442  21.470  23.676   7.549
  493POPC   C1B11443  21.063  23.660   8.687
  493POPC   C2B11444  21.123  23.727   8.238
  493POPC   C3B11445  21.020  23.702   7.780
  493POPC   C4B11446  20.926  23.777   7.307
  494POPC   NC311447  37.201   8.493   9.677
  494POPC   PO411448  36.863   8.046   9.680
  494POPC   GL111449  37.023   8.199   9.241
  494POPC   GL211450  37.055   8.566   9.172
  494POPC   C1A11451  37.067   8.143   8.750
  494POPC   D2A11452  36.975   8.344   8.301
  494POPC   C3A11453  37.120   8.198   7.886
  494POPC   C4A11454  37.058   7.869   7.549
  494POPC   C1B11455  37.019   8.652   8.716
  494POPC   C2B11456  36.995   8.861   8.287
  494POPC   C3B11457  36.930   8.678   7.871
  494POPC   C4B11458  36.748   8.809   7.494
  495POPC   NC311459  31.688   3.095   9.871
  495POPC   PO411460  31.393   3.624   9.510
  495POPC   GL111461  31.271   3.566   9.124
  495POPC   GL211462  31.040   3.315   9.150
  495POPC   C1A11463  31.540   3.578   8.776
  495POPC   D2A11464  31.755   3.742   8.445
  495POPC   C3A11465  31.645   3.694   8.016
  495POPC   C4A11466  31.785   3.461   7.661
  495POPC   C1B11467  31.149   3.263   8.706
  495POPC   C2B11468  31.283   3.485   8.335
  495POPC   C3B11469  31.156   3.572   7.909
  495POPC   C4B11470  31.263   3.380   7.516
  496POPC   NC311471  10.802   8.690   9.583
  496POPC   PO411472  10.170   8.834   9.447
  496POPC   GL111473  10.406   9.142   9.169
  496POPC   GL211474  10.765   9.129   9.194
  496POPC   C1A11475  10.593   9.210   8.730
  496POPC   D2A11476  10.661   8.976   8.330
  496POPC   C3A11477  10.589   9.129   7.891
  496POPC   C4A11478  10.363   9.134   7.471
  496POPC   C1B11479  10.868   8.787   8.833
  496POPC   C2B11480  10.960   8.546   8.419
  496POPC   C3B11481  10.929   8.707   7.975
  496POPC   C4B11482  10.537   8.672   7.679
  497POPC   NC311483  35.466  14.781   9.513
  497POPC   PO411484  35.149  15.394   9.453
  497POPC   GL111485  35.289  15.444   9.051
  497POPC   GL211486  35.541  15.180   9.128
  497POPC   C1A11487  35.233  15.173   8.714
  497POPC   D2A11488  35.428  15.086   8.358
  497POPC   C3A11489  35.162  15.053   8.040
  497POPC   C4A11490  35.355  14.859   7.704
  497POPC   C1B11491  35.720  15.336   8.742
  497POPC   C2B11492  35.755  15.479   8.306
  497POPC   C3B11493  35.566  15.344   7.908
  497POPC   C4B11494  35.582  15.496   7.479
  498POPC   NC311495   5.719  16.213   9.556
  498POPC   PO411496   6.097  15.689   9.407
  498POPC   GL111497   5.681  15.823   9.158
  498POPC   GL211498   5.574  16.188   9.070
  498POPC   C1A11499   5.432  15.843   8.745
  498POPC   D2A11500   5.694  16.071   8.460
  498POPC   C3A11501   5.602  16.192   8.053
  498POPC   C4A11502   5.826  16.017   7.710
  498POPC   C1B11503   5.996  16.204   8.902
  498POPC   C2B11504   6.195  16.255   8.493
  498POPC   C3B11505   6.216  16.046   8.092
  498POPC   C4B11506   6.284  16.264   7.713
  499POPC   NC311507   5.747  22.060   9.349
  499POPC   PO411508   6.223  22.381   9.507
  499POPC   GL111509   6.249  22.573   9.139
  499POPC   GL211510   5.897  22.544   9.014
  499POPC   C1A11511   6.350  22.657   8.740
  499POPC   D2A11512   6.015  22.653   8.454
  499POPC   C3A11513   6.069  22.509   8.037
  499POPC   C4A11514   5.687  22.499   7.804
  499POPC   C1B11515   5.731  22.275   8.677
  499POPC   C2B11516   5.822  22.103   8.272
  499POPC   C3B11517   5.651  21.990   7.896
  499POPC   C4B11518   5.494  21.597   7.874
  500POPC   NC311519   5.577  40.144   9.556
  500POPC   PO411520   6.216  39.861   9.547
  500POPC   GL111521   6.221  39.931   9.153
  500POPC   GL211522   5.969  40.197   9.192
  500POPC   C1A11523   6.248  40.117   8.769
  500POPC   D2A11524   6.044  40.268   8.417
  500POPC   C3A11525   6.230  40.081   8.072
  500POPC   C4A11526   6.083  40.057   7.662
  500POPC   C1B11527   5.751  39.893   8.906
  500POPC   C2B11528   5.560  39.950   8.489
  500POPC   C3B11529   5.711  40.038   8.059
  500POPC   C4B11530   5.690  39.752   7.701
  501POPC   NC311531   3.385  44.491   9.429
  501POPC   PO411532   3.877  44.974   9.457
  501POPC   GL111533   3.655  44.816   9.120
  501POPC   GL211534   3.322  44.974   9.181
  501POPC   C1A11535   3.505  44.553   8.756
  501POPC   D2A11536   3.435  44.328   8.346
  501POPC   C3A11537   3.498  44.546   7.955
  501POPC   C4A11538   3.330  44.432   7.519
  501POPC   C1B11539   3.405   0.052   8.725
  501POPC   C2B11540   3.316  44.937   8.287
  501POPC   C3B11541   3.511   0.076   7.920
  501POPC   C4B11542   3.934  44.997   7.946
  502POPC   NC311543  19.835  35.591   9.458
  502POPC   PO411544  19.700  34.892   9.507
  502POPC   GL111545  19.725  35.196   9.132
  502POPC   GL211546  20.057  35.384   9.048
  502POPC   C1A11547  19.702  35.387   8.693
  502POPC   D2A11548  20.008  35.380   8.335
  502POPC   C3A11549  19.808  35.278   7.910
  502POPC   C4A11550  19.532  35.564   7.668
  502POPC   C1B11551  20.138  35.753   8.756
  502POPC   C2B11552  20.287  35.849   8.339
  502POPC   C3B11553  20.053  35.727   7.958
  502POPC   C4B11554  20.041  35.566   7.524
  503POPC   NC311555   3.945  43.602   9.142
  503POPC   PO411556   3.694  44.127   9.531
  503POPC   GL111557   3.508  43.925   9.162
  503POPC   GL211558   3.166  43.687   9.171
  503POPC   C1A11559   3.657  44.064   8.764
  503POPC   D2A11560   3.917  44.185   8.429
  503POPC   C3A11561   3.785  44.040   8.034
  503POPC   C4A11562   3.368  44.042   7.865
  503POPC   C1B11563   3.366  43.624   8.770
  503POPC   C2B11564   3.525  43.754   8.372
  503POPC   C3B11565   3.542  43.570   7.969
  503POPC   C4B11566   3.296  43.575   7.603
  504POPC   NC311567  31.051  25.733   9.508
  504POPC   PO411568  30.547  26.255   9.495
  504POPC   GL111569  30.736  26.245   9.139
  504POPC   GL211570  30.725  25.914   9.110
  504POPC   C1A11571  30.613  26.445   8.774
  504POPC   D2A11572  30.823  26.447   8.370
  504POPC   C3A11573  30.745  26.068   8.119
  504POPC   C4A11574  30.665  26.363   7.830
  504POPC   C1B11575  30.886  25.776   8.742
  504POPC   C2B11576  30.961  25.594   8.341
  504POPC   C3B11577  30.946  25.650   7.899
  504POPC   C4B11578  30.627  25.838   7.646
  505POPC   NC311579  11.479   3.458   9.518
  505POPC   PO411580  11.163   3.968   9.590
  505POPC   GL111581  11.405   3.792   9.150
  505POPC   GL211582  11.478   3.375   9.023
  505POPC   C1A11583  11.558   3.764   8.719
  505POPC   D2A11584  11.273   3.750   8.396
  505POPC   C3A11585  11.403   3.870   8.014
  505POPC   C4A11586  11.420   3.421   7.850
  505POPC   C1B11587  11.199   3.204   8.677
  505POPC   C2B11588  11.011   2.973   8.296
  505POPC   C3B11589  10.960   3.191   7.874
  505POPC   C4B11590  10.981   3.681   7.791
  506POPC   NC311591  22.258  12.399   9.521
  506POPC   PO411592  22.058  11.733   9.552
  506POPC   GL111593  22.210  11.903   9.150
  506POPC   GL211594  22.447  12.129   9.163
  506POPC   C1A11595  22.310  11.795   8.690
  506POPC   D2A11596  22.233  12.055   8.301
  506POPC   C3A11597  22.122  11.921   7.865
  506POPC   C4A11598  21.971  12.057   7.446
  506POPC   C1B11599  22.482  12.265   8.757
  506POPC   C2B11600  22.593  12.425   8.347
  506POPC   C3B11601  22.486  12.367   7.908
  506POPC   C4B11602  22.467  12.130   7.521
  507POPC   NC311603  36.610  41.508   9.627
  507POPC   PO411604  37.191  41.825   9.663
  507POPC   GL111605  37.045  41.493   9.305
  507POPC   GL211606  36.729  41.297   9.178
  507POPC   C1A11607  37.125  41.348   8.872
  507POPC   D2A11608  37.126  41.200   8.432
  507POPC   C3A11609  37.106  41.561   8.155
  507POPC   C4A11610  37.099  41.620   7.723
  507POPC   C1B11611  36.696  41.107   8.739
  507POPC   C2B11612  36.632  41.316   8.327
  507POPC   C3B11613  36.713  41.304   7.895
  507POPC   C4B11614  36.602  41.161   7.490
  508POPC   NC311615  40.401  42.824   9.494
  508POPC   PO411616  40.223  43.414   9.434
  508POPC   GL111617  40.110  43.179   9.145
  508POPC   GL211618  39.873  42.963   9.265
  508POPC   C1A11619  40.121  43.297   8.747
  508POPC   D2A11620  40.146  43.037   8.430
  508POPC   C3A11621  39.999  43.231   8.073
  508POPC   C4A11622  40.125  43.124   7.684
  508POPC   C1B11623  39.812  42.898   8.796
  508POPC   C2B11624  39.671  42.873   8.320
  508POPC   C3B11625  39.764  42.793   7.864
  508POPC   C4B11626  39.640  42.975   7.453
  509POPC   NC311627  21.957   7.654   9.449
  509POPC   PO411628  22.254   7.047   9.644
  509POPC   GL111629  22.217   7.244   9.236
  509POPC   GL211630  21.992   7.152   9.034
  509POPC   C1A11631  22.251   7.579   8.869
  509POPC   D2A11632  22.334   7.808   8.472
  509POPC   C3A11633  22.085   7.820   8.071
  509POPC   C4A11634  22.078   7.564   7.723
  509POPC   C1B11635  22.065   7.174   8.619
  509POPC   C2B11636  22.050   7.308   8.212
  509POPC   C3B11637  22.236   7.113   7.891
  509POPC   C4B11638  22.184   7.084   7.465
  510POPC   NC311639  19.626   0.545   9.479
  510POPC   PO411640  20.251   0.549   9.710
  510POPC   GL111641  20.071   0.408   9.279
  510POPC   GL211642  19.829   0.119   9.215
  510POPC   C1A11643  19.982   0.462   8.782
  510POPC   D2A11644  20.024   0.300   8.301
  510POPC   C3A11645  19.879   0.529   7.893
  510POPC   C4A11646  20.044   0.661   7.454
  510POPC   C1B11647  19.583   0.071   8.834
  510POPC   C2B11648  19.538   0.248   8.415
  510POPC   C3B11649  19.524   0.101   7.996
  510POPC   C4B11650  19.332   0.324   7.666
  511POPC   NC311651  30.468  13.264   9.518
  511POPC   PO411652  30.457  13.959   9.522
  511POPC   GL111653  30.666  13.683   9.238
  511POPC   GL211654  30.390  13.500   9.081
  511POPC   C1A11655  30.853  13.569   8.844
  511POPC   D2A11656  30.655  13.506   8.432
  511POPC   C3A11657  30.774  13.643   8.045
  511POPC   C4A11658  30.536  13.613   7.674
  511POPC   C1B11659  30.435  13.853   8.792
  511POPC   C2B11660  30.268  13.857   8.371
  511POPC   C3B11661  30.369  14.024   7.965
  511POPC   C4B11662  30.145  13.915   7.604
  512POPC   NC311663  18.363  16.119   9.414
  512POPC   PO411664  18.483  15.476   9.435
  512POPC   GL111665  18.341  15.753   9.058
  512POPC   GL211666  18.567  16.057   8.957
  512POPC   C1A11667  18.253  15.799   8.606
  512POPC   D2A11668  18.006  15.742   8.225
  512POPC   C3A11669  18.146  15.897   7.824
  512POPC   C4A11670  18.547  15.807   7.646
  512POPC   C1B11671  18.306  16.307   8.695
  512POPC   C2B11672  18.236  16.223   8.270
  512POPC   C3B11673  18.546  16.235   7.920
  512POPC   C4B11674  18.818  16.210   7.501
  513POPC   NC311675   7.593  22.724   9.437
  513POPC   PO411676   7.044  23.107   9.415
  513POPC   GL111677   7.399  23.117   9.087
  513POPC   GL211678   7.673  22.846   8.969
  513POPC   C1A11679   7.320  23.064   8.651
  513POPC   D2A11680   7.409  22.813   8.291
  513POPC   C3A11681   7.153  22.926   7.947
  513POPC   C4A11682   7.183  23.285   7.648
  513POPC   C1B11683   7.904  23.109   8.718
  513POPC   C2B11684   7.713  23.250   8.343
  513POPC   C3B11685   7.627  23.132   7.898
  513POPC   C4B11686   7.780  23.223   7.475
  514POPC   NC311687  21.008  44.064   9.454
  514POPC   PO411688  21.498  43.611   9.647
  514POPC   GL111689  21.287  43.668   9.243
  514POPC   GL211690  21.621  43.700   9.111
  514POPC   C1A11691  21.161  43.656   8.796
  514POPC   D2A11692  21.401  43.679   8.383
  514POPC   C3A11693  21.237  43.763   7.950
  514POPC   C4A11694  21.301  43.629   7.509
  514POPC   C1B11695  21.524  44.021   8.779
  514POPC   C2B11696  21.572  44.268   8.435
  514POPC   C3B11697  21.682  44.043   8.073
  514POPC   C4B11698  21.737  43.821   7.690
  515POPC   NC311699  20.521   0.177   9.585
  515POPC   PO411700  20.797   0.813   9.390
  515POPC   GL111701  20.644   0.459   9.173
  515POPC   GL211702  20.423   0.632   9.005
  515POPC   C1A11703  20.634   0.281   8.726
  515POPC   D2A11704  20.456   0.551   8.398
  515POPC   C3A11705  20.405   0.416   7.960
  515POPC   C4A11706  20.749   0.370   7.668
  515POPC   C1B11707  20.766   0.805   8.742
  515POPC   C2B11708  20.776   0.967   8.349
  515POPC   C3B11709  20.737   0.806   7.977
  515POPC   C4B11710  20.909   0.874   7.601
  516POPC   NC311711  17.714  14.476   9.814
  516POPC   PO411712  17.100  14.498   9.482
  516POPC   GL111713  17.439  14.363   9.152
  516POPC   GL211714  17.795  14.495   9.185
  516POPC   C1A11715  17.633  14.159   8.797
  516POPC   D2A11716  17.489  14.156   8.385
  516POPC   C3A11717  17.736  14.311   8.067
  516POPC   C4A11718  17.562  14.503   7.706
  516POPC   C1B11719  17.738  14.709   8.804
  516POPC   C2B11720  17.513  14.674   8.442
  516POPC   C3B11721  17.596  14.863   8.068
  516POPC   C4B11722  17.961  14.818   7.818
  517POPC   NC311723  20.356  15.952   9.533
  517POPC   PO411724  20.970  15.623   9.520
  517POPC   GL111725  20.758  15.887   9.219
  517POPC   GL211726  20.488  15.664   9.128
  517POPC   C1A11727  20.562  16.044   8.814
  517POPC   D2A11728  20.583  15.879   8.393
  517POPC   C3A11729  20.568  16.111   8.035
  517POPC   C4A11730  20.491  15.996   7.621
  517POPC   C1B11731  20.473  15.519   8.738
  517POPC   C2B11732  20.375  15.389   8.321
  517POPC   C3B11733  20.363  15.639   7.964
  517POPC   C4B11734  20.016  15.810   7.708
  518POPC   NC311735   6.589  41.882   9.579
  518POPC   PO411736   6.465  41.174   9.488
  518POPC   GL111737   6.674  41.443   9.150
  518POPC   GL211738   6.764  41.807   9.119
  518POPC   C1A11739   6.505  41.588   8.735
  518POPC   D2A11740   6.256  41.649   8.318
  518POPC   C3A11741   6.484  41.550   7.962
  518POPC   C4A11742   6.497  41.267   7.623
  518POPC   C1B11743   6.998  41.672   8.783
  518POPC   C2B11744   6.821  41.654   8.354
  518POPC   C3B11745   6.973  41.474   7.998
  518POPC   C4B11746   6.867  41.631   7.586
  519POPC   NC311747   1.154  11.071   9.470
  519POPC   PO411748   1.612  11.524   9.278
  519POPC   GL111749   1.361  11.274   9.060
  519POPC   GL211750   1.062  11.478   9.140
  519POPC   C1A11751   1.408  10.982   8.747
  519POPC   D2A11752   1.217  11.058   8.365
  519POPC   C3A11753   1.431  11.030   8.017
  519POPC   C4A11754   1.306  11.348   7.772
  519POPC   C1B11755   0.951  11.337   8.735
  519POPC   C2B11756   0.700  11.203   8.394
  519POPC   C3B11757   0.853  11.262   8.004
  519POPC   C4B11758   0.822  11.409   7.596
  520POPC   NC311759   3.892   9.272   9.507
  520POPC   PO411760   3.352   8.861   9.574
  520POPC   GL111761   3.289   8.924   9.140
  520POPC   GL211762   3.633   9.007   9.129
  520POPC   C1A11763   3.305   9.102   8.710
  520POPC   D2A11764   3.179   9.144   8.283
  520POPC   C3A11765   3.475   9.241   7.963
  520POPC   C4A11766   3.774   9.262   7.628
  520POPC   C1B11767   3.775   8.891   8.725
  520POPC   C2B11768   3.575   8.805   8.315
  520POPC   C3B11769   3.743   8.667   7.924
  520POPC   C4B11770   4.023   8.821   7.575
  521POPC   NC311771   9.118  42.424   9.438
  521POPC   PO411772   8.595  42.088   9.273
  521POPC   GL111773   8.942  42.159   9.037
  521POPC   GL211774   9.200  41.957   9.233
  521POPC   C1A11775   8.902  42.374   8.642
  521POPC   D2A11776   8.726  42.305   8.231
  521POPC   C3A11777   9.015  42.355   7.896
  521POPC   C4A11778   8.936  42.651   7.558
  521POPC   C1B11779   9.280  41.891   8.792
  521POPC   C2B11780   9.207  42.064   8.347
  521POPC   C3B11781   9.258  41.891   7.923
  521POPC   C4B11782   8.990  41.930   7.559
  522POPC   NC311783  33.853  22.681   9.449
  522POPC   PO411784  33.548  23.223   9.500
  522POPC   GL111785  33.714  23.150   9.108
  522POPC   GL211786  34.043  23.043   9.107
  522POPC   C1A11787  33.815  23.209   8.686
  522POPC   D2A11788  33.543  23.016   8.420
  522POPC   C3A11789  33.624  23.057   7.997
  522POPC   C4A11790  33.725  22.737   7.745
  522POPC   C1B11791  34.026  22.728   8.753
  522POPC   C2B11792  33.978  22.743   8.280
  522POPC   C3B11793  34.145  22.975   7.886
  522POPC   C4B11794  34.074  22.933   7.394
  523POPC   NC311795   9.095   1.584   9.475
  523POPC   PO411796   8.779   2.195   9.660
  523POPC   GL111797   8.896   2.191   9.219
  523POPC   GL211798   8.798   1.885   9.141
  523POPC   C1A11799   9.218   2.039   8.897
  523POPC   D2A11800   9.416   2.252   8.515
  523POPC   C3A11801   9.293   2.195   8.069
  523POPC   C4A11802   9.148   2.233   7.641
  523POPC   C1B11803   8.747   2.031   8.719
  523POPC   C2B11804   8.952   1.897   8.309
  523POPC   C3B11805   8.982   1.803   7.830
  523POPC   C4B11806   8.762   1.942   7.432
  524POPC   NC311807   2.230   8.123   9.408
  524POPC   PO411808   1.562   8.451   9.389
  524POPC   GL111809   1.811   8.210   9.103
  524POPC   GL211810   1.691   7.892   9.008
  524POPC   C1A11811   2.078   8.293   8.747
  524POPC   D2A11812   2.317   8.630   8.495
  524POPC   C3A11813   2.172   8.610   8.080
  524POPC   C4A11814   2.124   8.247   7.845
  524POPC   C1B11815   1.905   7.808   8.620
  524POPC   C2B11816   2.214   7.657   8.301
  524POPC   C3B11817   2.263   7.762   7.908
  524POPC   C4B11818   1.840   7.845   7.742
  525POPC   NC311819  38.652  12.878   9.282
  525POPC   PO411820  39.337  13.063   9.526
  525POPC   GL111821  39.152  12.971   9.152
  525POPC   GL211822  39.473  12.869   9.015
  525POPC   C1A11823  39.139  13.090   8.712
  525POPC   D2A11824  39.461  12.851   8.464
  525POPC   C3A11825  39.215  12.859   8.144
  525POPC   C4A11826  39.208  12.905   7.744
  525POPC   C1B11827  39.157  12.597   8.781
  525POPC   C2B11828  39.160  12.377   8.377
  525POPC   C3B11829  39.126  12.402   7.919
  525POPC   C4B11830  39.032  12.497   7.469
  526POPC   NC311831  29.356   6.947   9.493
  526POPC   PO411832  28.884   7.513   9.419
  526POPC   GL111833  29.133   7.403   9.096
  526POPC   GL211834  29.025   7.045   9.126
  526POPC   C1A11835  29.113   7.629   8.697
  526POPC   D2A11836  28.861   7.757   8.342
  526POPC   C3A11837  28.906   7.562   7.931
  526POPC   C4A11838  29.201   7.576   7.576
  526POPC   C1B11839  29.241   7.070   8.722
  526POPC   C2B11840  29.108   7.257   8.344
  526POPC   C3B11841  29.138   7.081   7.979
  526POPC   C4B11842  29.380   7.076   7.626
  527POPC   NC311843  12.554  35.208   9.601
  527POPC   PO411844  13.143  35.483   9.776
  527POPC   GL111845  12.973  35.333   9.298
  527POPC   GL211846  13.160  35.412   8.986
  527POPC   C1A11847  12.697  35.219   8.914
  527POPC   D2A11848  12.871  35.255   8.508
  527POPC   C3A11849  12.679  35.086   8.142
  527POPC   C4A11850  12.828  35.283   7.769
  527POPC   C1B11851  12.836  35.712   8.780
  527POPC   C2B11852  12.814  35.779   8.324
  527POPC   C3B11853  13.132  35.650   7.988
  527POPC   C4B11854  13.101  35.614   7.514
  528POPC   NC311855  26.111  17.111   9.437
  528POPC   PO411856  25.843  17.768   9.427
  528POPC   GL111857  25.936  17.481   9.128
  528POPC   GL211858  25.639  17.277   9.217
  528POPC   C1A11859  26.152  17.481   8.731
  528POPC   D2A11860  26.184  17.437   8.300
  528POPC   C3A11861  26.230  17.760   8.030
  528POPC   C4A11862  26.233  17.559   7.626
  528POPC   C1B11863  25.572  17.453   8.784
  528POPC   C2B11864  25.681  17.569   8.353
  528POPC   C3B11865  25.806  17.476   7.901
  528POPC   C4B11866  25.751  17.565   7.437
  529POPC   NC311867  39.133  10.584   9.740
  529POPC   PO411868  39.632  10.249   9.477
  529POPC   GL111869  39.419  10.532   9.179
  529POPC   GL211870  39.063  10.642   9.229
  529POPC   C1A11871  39.517  10.594   8.722
  529POPC   D2A11872  39.621  10.385   8.325
  529POPC   C3A11873  39.421  10.494   7.942
  529POPC   C4A11874  39.473  10.942   7.823
  529POPC   C1B11875  39.021  10.512   8.792
  529POPC   C2B11876  38.860  10.549   8.344
  529POPC   C3B11877  39.023  10.785   7.995
  529POPC   C4B11878  39.071  10.893   7.539
  530POPC   NC311879  44.393   5.324   9.527
  530POPC   PO411880  44.419   4.687   9.401
  530POPC   GL111881  44.657   5.007   9.105
  530POPC   GL211882  44.700   5.403   9.097
  530POPC   C1A11883  44.513   5.176   8.682
  530POPC   D2A11884  44.195   5.268   8.372
  530POPC   C3A11885  44.383   5.406   8.010
  530POPC   C4A11886  44.606   5.239   7.672
  530POPC   C1B11887   0.012   5.271   8.799
  530POPC   C2B11888  44.982   4.976   8.496
  530POPC   C3B11889  44.847   5.126   8.114
  530POPC   C4B11890   0.106   5.212   7.785
  531POPC   NC311891  44.379  32.456   9.391
  531POPC   PO411892  43.823  32.067   9.521
  531POPC   GL111893  43.969  32.254   9.189
  531POPC   GL211894  44.208  32.008   9.161
  531POPC   C1A11895  44.164  32.370   8.780
  531POPC   D2A11896  44.065  32.511   8.369
  531POPC   C3A11897  44.176  32.335   8.013
  531POPC   C4A11898  43.954  32.444   7.646
  531POPC   C1B11899  43.939  31.907   8.816
  531POPC   C2B11900  44.044  31.992   8.413
  531POPC   C3B11901  43.807  31.969   8.074
  531POPC   C4B11902  43.966  31.931   7.717
  532POPC   NC311903  17.046  39.337   9.639
  532POPC   PO411904  17.694  39.059   9.569
  532POPC   GL111905  17.676  39.203   9.163
  532POPC   GL211906  17.407  38.981   9.084
  532POPC   C1A11907  17.482  39.391   8.779
  532POPC   D2A11908  17.285  39.721   8.564
  532POPC   C3A11909  17.420  39.568   8.188
  532POPC   C4A11910  17.671  39.316   7.926
  532POPC   C1B11911  17.673  38.942   8.715
  532POPC   C2B11912  17.486  39.043   8.348
  532POPC   C3B11913  17.277  39.002   7.970
  532POPC   C4B11914  17.650  38.814   7.818
  533POPC   NC311915  43.657  42.203   9.312
  533POPC   PO411916  44.178  42.543   9.534
  533POPC   GL111917  44.066  42.467   9.118
  533POPC   GL211918  44.118  42.124   9.083
  533POPC   C1A11919  43.874  42.405   8.703
  533POPC   D2A11920  43.924  42.349   8.265
  533POPC   C3A11921  43.630  42.556   7.978
  533POPC   C4A11922  43.912  42.556   7.620
  533POPC   C1B11923  44.280  41.879   8.742
  533POPC   C2B11924  44.415  41.865   8.302
  533POPC   C3B11925  44.200  42.028   7.947
  533POPC   C4B11926  43.767  42.097   7.829
  534POPC   NC311927  14.156  33.657   9.528
  534POPC   PO411928  14.838  33.826   9.559
  534POPC   GL111929  14.550  33.812   9.205
  534POPC   GL211930  14.182  33.803   9.065
  534POPC   C1A11931  14.618  33.707   8.802
  534POPC   D2A11932  14.549  33.923   8.453
  534POPC   C3A11933  14.704  33.773   8.054
  534POPC   C4A11934  14.818  34.128   7.814
  534POPC   C1B11935  14.119  33.674   8.667
  534POPC   C2B11936  14.268  33.561   8.250
  534POPC   C3B11937  14.227  33.650   7.829
  534POPC   C4B11938  14.141  33.343   7.526
  535POPC   NC311939  13.812  22.742   9.353
  535POPC   PO411940  14.332  23.036   9.572
  535POPC   GL111941  14.232  23.031   9.160
  535POPC   GL211942  14.337  23.344   9.079
  535POPC   C1A11943  14.474  22.947   8.780
  535POPC   D2A11944  14.597  22.751   8.430
  535POPC   C3A11945  14.475  22.846   8.061
  535POPC   C4A11946  14.425  22.683   7.695
  535POPC   C1B11947  14.132  23.315   8.721
  535POPC   C2B11948  14.196  23.138   8.359
  535POPC   C3B11949  14.005  22.992   8.005
  535POPC   C4B11950  14.096  23.049   7.537
  536POPC   NC311951   1.090  41.878   9.437
  536POPC   PO411952   1.166  41.121   9.435
  536POPC   GL111953   1.279  41.244   9.064
  536POPC   GL211954   1.343  41.585   9.122
  536POPC   C1A11955   1.150  41.429   8.696
  536POPC   D2A11956   1.421  41.537   8.379
  536POPC   C3A11957   1.203  41.471   8.012
  536POPC   C4A11958   1.160  41.307   7.605
  536POPC   C1B11959   1.256  41.922   8.805
  536POPC   C2B11960   1.399  42.066   8.429
  536POPC   C3B11961   1.553  41.881   8.034
  536POPC   C4B11962   1.402  41.757   7.649
  537POPC   NC311963  33.273  44.209   9.408
  537POPC   PO411964  33.397  43.504   9.330
  537POPC   GL111965  33.113  43.808   9.112
  537POPC   GL211966  32.753  43.878   9.105
  537POPC   C1A11967  33.257  43.944   8.712
  537POPC   D2A11968  33.325  43.684   8.355
  537POPC   C3A11969  33.012  43.631   8.033
  537POPC   C4A11970  33.145  43.870   7.696
  537POPC   C1B11971  32.825  44.195   8.729
  537POPC   C2B11972  32.968  44.090   8.307
  537POPC   C3B11973  33.181  44.299   7.997
  537POPC   C4B11974  32.912  44.341   7.724
  538POPC   NC311975  39.517   9.760   9.382
  538POPC   PO411976  38.836   9.655   9.595
  538POPC   GL111977  39.004   9.734   9.226
  538POPC   GL211978  39.110   9.389   9.184
  538POPC   C1A11979  39.104  10.010   8.870
  538POPC   D2A11980  39.002  10.052   8.420
  538POPC   C3A11981  39.343  10.002   8.127
  538POPC   C4A11982  39.361   9.788   7.758
  538POPC   C1B11983  39.001   9.522   8.766
  538POPC   C2B11984  39.221   9.571   8.395
  538POPC   C3B11985  38.992   9.610   8.038
  538POPC   C4B11986  38.817   9.408   7.698
  539POPC   NC311987  17.086  33.523   9.810
  539POPC   PO411988  16.744  33.041   9.465
  539POPC   GL111989  16.504  33.179   9.096
  539POPC   GL211990  16.457  32.816   9.088
  539POPC   C1A11991  16.572  33.342   8.688
  539POPC   D2A11992  16.892  33.254   8.401
  539POPC   C3A11993  16.762  33.285   7.976
  539POPC   C4A11994  16.891  33.357   7.546
  539POPC   C1B11995  16.760  32.878   8.760
  539POPC   C2B11996  16.637  32.823   8.353
  539POPC   C3B11997  16.796  32.769   7.946
  539POPC   C4B11998  16.434  32.960   7.747
  540POPC   NC311999  10.021  12.528   9.722
  540POPC   PO412000  10.624  12.896   9.742
  540POPC   GL112001  10.436  12.823   9.316
  540POPC   GL212002  10.768  12.813   9.200
  540POPC   C1A12003  10.401  12.961   8.855
  540POPC   D2A12004  10.267  12.900   8.414
  540POPC   C3A12005  10.489  12.946   8.002
  540POPC   C4A12006  10.391  12.824   7.559
  540POPC   C1B12007  10.715  12.544   8.878
  540POPC   C2B12008  10.724  12.651   8.455
  540POPC   C3B12009  10.850  12.575   8.048
  540POPC   C4B12010  10.876  12.355   7.679
  541POPC   NC312011   7.360  22.010   9.639
  541POPC   PO412012   7.892  22.363   9.470
  541POPC   GL112013   7.573  22.286   9.162
  541POPC   GL212014   7.436  21.949   9.096
  541POPC   C1A12015   7.355  22.435   8.797
  541POPC   D2A12016   7.223  22.184   8.450
  541POPC   C3A12017   7.285  22.370   8.053
  541POPC   C4A12018   7.270  22.223   7.643
  541POPC   C1B12019   7.662  21.970   8.676
  541POPC   C2B12020   7.623  21.950   8.205
  541POPC   C3B12021   7.371  21.783   7.866
  541POPC   C4B12022   7.476  21.804   7.404
  542POPC   NC312023  39.052   3.039   9.583
  542POPC   PO412024  39.525   2.619   9.661
  542POPC   GL112025  39.410   2.601   9.235
  542POPC   GL212026  39.053   2.514   9.182
  542POPC   C1A12027  39.401   2.548   8.804
  542POPC   D2A12028  39.084   2.696   8.525
  542POPC   C3A12029  39.355   2.766   8.200
  542POPC   C4A12030  39.456   2.812   7.788
  542POPC   C1B12031  38.944   2.253   8.778
  542POPC   C2B12032  38.878   2.280   8.306
  542POPC   C3B12033  39.031   2.464   7.943
  542POPC   C4B12034  38.971   2.803   7.697
  543POPC   NC312035  20.115   9.997   9.444
  543POPC   PO412036  19.635   9.511   9.514
  543POPC   GL112037  19.840   9.669   9.182
  543POPC   GL212038  20.173   9.505   9.252
  543POPC   C1A12039  19.902   9.911   8.823
  543POPC   D2A12040  19.830   9.775   8.443
  543POPC   C3A12041  19.955   9.916   8.077
  543POPC   C4A12042  19.710   9.867   7.752
  543POPC   C1B12043  20.105   9.399   8.825
  543POPC   C2B12044  19.923   9.245   8.437
  543POPC   C3B12045  19.890   9.427   8.052
  543POPC   C4B12046  20.043   9.441   7.680
  544POPC   NC312047  13.252  41.252   9.560
  544POPC   PO412048  12.653  41.557   9.474
  544POPC   GL112049  12.701  41.550   9.083
  544POPC   GL212050  12.991  41.342   9.136
  544POPC   C1A12051  12.830  41.710   8.685
  544POPC   D2A12052  13.169  41.813   8.426
  544POPC   C3A12053  13.050  41.880   7.981
  544POPC   C4A12054  12.596  41.910   7.894
  544POPC   C1B12055  13.190  41.166   8.828
  544POPC   C2B12056  13.036  41.284   8.452
  544POPC   C3B12057  12.767  41.498   8.185
  544POPC   C4B12058  12.845  41.464   7.741
  545POPC   NC312059  42.429   1.719   9.348
  545POPC   PO412060  42.018   2.206   9.510
  545POPC   GL112061  42.133   2.077   9.118
  545POPC   GL212062  41.981   1.750   9.110
  545POPC   C1A12063  42.445   2.129   8.772
  545POPC   D2A12064  42.580   2.024   8.353
  545POPC   C3A12065  42.337   2.098   8.033
  545POPC   C4A12066  42.337   2.285   7.667
  545POPC   C1B12067  42.204   1.660   8.724
  545POPC   C2B12068  42.391   1.543   8.320
  545POPC   C3B12069  42.604   1.604   7.956
  545POPC   C4B12070  42.390   1.791   7.635
  546POPC   NC312071  17.835   1.101   9.484
  546POPC   PO412072  17.233   1.356   9.652
  546POPC   GL112073  17.403   1.345   9.238
  546POPC   GL212074  17.455   0.995   9.135
  546POPC   C1A12075  17.643   1.360   8.830
  546POPC   D2A12076  17.547   1.220   8.412
  546POPC   C3A12077  17.621   1.439   8.027
  546POPC   C4A12078  17.423   1.304   7.643
  546POPC   C1B12079  17.768   0.845   8.810
  546POPC   C2B12080  17.877   0.832   8.371
  546POPC   C3B12081  17.763   0.965   7.929
  546POPC   C4B12082  17.732   0.949   7.454
  547POPC   NC312083  17.030   2.646  10.010
  547POPC   PO412084  17.405   2.312   9.515
  547POPC   GL112085  17.513   2.531   9.092
  547POPC   GL212086  17.881   2.612   9.120
  547POPC   C1A12087  17.535   2.851   8.719
  547POPC   D2A12088  17.487   2.978   8.256
  547POPC   C3A12089  17.279   2.745   7.908
  547POPC   C4A12090  17.083   2.734   7.488
  547POPC   C1B12091  17.822   2.443   8.705
  547POPC   C2B12092  17.531   2.458   8.363
  547POPC   C3B12093  17.691   2.437   7.965
  547POPC   C4B12094  17.590   2.565   7.539
  548POPC   NC312095  26.041   6.444   9.433
  548POPC   PO412096  26.391   7.032   9.391
  548POPC   GL112097  26.249   6.780   9.029
  548POPC   GL212098  26.435   6.493   9.063
  548POPC   C1A12099  26.020   6.752   8.610
  548POPC   D2A12100  25.816   6.886   8.205
  548POPC   C3A12101  25.988   6.809   7.785
  548POPC   C4A12102  25.850   6.503   7.461
  548POPC   C1B12103  26.220   6.291   8.705
  548POPC   C2B12104  26.089   6.383   8.236
  548POPC   C3B12105  26.196   6.345   7.788
  548POPC   C4B12106  26.383   6.613   7.447
  549POPC   NC312107  27.691  10.258   9.491
  549POPC   PO412108  27.579  10.937   9.475
  549POPC   GL112109  27.691  10.635   9.152
  549POPC   GL212110  27.457  10.349   9.061
  549POPC   C1A12111  27.786  10.588   8.734
  549POPC   D2A12112  27.689  10.766   8.366
  549POPC   C3A12113  27.743  10.637   7.944
  549POPC   C4A12114  28.041  10.851   7.743
  549POPC   C1B12115  27.270  10.683   8.870
  549POPC   C2B12116  27.195  10.823   8.459
  549POPC   C3B12117  27.310  10.925   8.063
  549POPC   C4B12118  27.269  10.747   7.682
  550POPC   NC312119   9.518  13.002   9.746
  550POPC   PO412120   9.664  12.366   9.466
  550POPC   GL112121   9.587  12.584   9.122
  550POPC   GL212122   9.933  12.735   9.126
  550POPC   C1A12123   9.722  12.562   8.681
  550POPC   D2A12124   9.768  12.794   8.291
  550POPC   C3A12125   9.824  12.584   7.892
  550POPC   C4A12126   9.988  12.410   7.516
  550POPC   C1B12127   9.609  13.040   8.921
  550POPC   C2B12128   9.465  13.170   8.504
  550POPC   C3B12129   9.565  13.235   8.069
  550POPC   C4B12130   9.412  13.184   7.657
  551POPC   NC312131  34.180  13.850   9.412
  551POPC   PO412132  34.863  13.861   9.597
  551POPC   GL112133  34.630  13.830   9.213
  551POPC   GL212134  34.624  13.508   9.119
  551POPC   C1A12135  34.767  13.898   8.787
  551POPC   D2A12136  34.805  13.729   8.358
  551POPC   C3A12137  34.454  13.905   8.085
  551POPC   C4A12138  34.331  13.762   7.677
  551POPC   C1B12139  34.332  13.591   8.770
  551POPC   C2B12140  34.228  13.517   8.332
  551POPC   C3B12141  34.443  13.346   7.957
  551POPC   C4B12142  34.634  13.296   7.526
  552POPC   NC312143   7.769  13.280   9.452
  552POPC   PO412144   8.179  12.839   9.466
  552POPC   GL112145   8.040  12.849   9.080
  552POPC   GL212146   8.344  13.071   9.044
  552POPC   C1A12147   8.130  12.857   8.637
  552POPC   D2A12148   8.427  12.965   8.315
  552POPC   C3A12149   8.104  12.995   7.999
  552POPC   C4A12150   8.040  12.866   7.580
  552POPC   C1B12151   8.557  13.351   8.791
  552POPC   C2B12152   8.640  13.481   8.393
  552POPC   C3B12153   8.557  13.367   7.998
  552POPC   C4B12154   8.424  13.204   7.640
  553POPC   NC312155  29.273  24.180   9.475
  553POPC   PO412156  28.972  23.613   9.647
  553POPC   GL112157  29.147  23.652   9.228
  553POPC   GL212158  28.942  23.939   9.179
  553POPC   C1A12159  29.358  23.569   8.803
  553POPC   D2A12160  29.127  23.530   8.388
  553POPC   C3A12161  29.342  23.539   7.977
  553POPC   C4A12162  28.951  23.551   7.776
  553POPC   C1B12163  28.897  23.821   8.778
  553POPC   C2B12164  29.209  24.017   8.557
  553POPC   C3B12165  29.218  24.013   8.167
  553POPC   C4B12166  29.169  24.020   7.772
  554POPC   NC312167  12.047  20.746   9.411
  554POPC   PO412168  12.072  20.034   9.476
  554POPC   GL112169  12.244  20.205   9.096
  554POPC   GL212170  12.274  20.574   8.994
  554POPC   C1A12171  12.094  20.224   8.684
  554POPC   D2A12172  12.248  20.532   8.432
  554POPC   C3A12173  12.066  20.353   8.079
  554POPC   C4A12174  12.039  20.397   7.668
  554POPC   C1B12175  11.866  20.681   8.787
  554POPC   C2B12176  11.736  20.585   8.394
  554POPC   C3B12177  11.941  20.857   8.126
  554POPC   C4B12178  11.878  20.868   7.717
  555POPC   NC312179  16.964  11.672   9.858
  555POPC   PO412180  16.621  12.201   9.627
  555POPC   GL112181  16.565  12.197   9.175
  555POPC   GL212182  16.903  12.080   9.105
  555POPC   C1A12183  16.457  12.281   8.720
  555POPC   D2A12184  16.679  12.404   8.335
  555POPC   C3A12185  16.609  12.196   7.940
  555POPC   C4A12186  16.510  12.159   7.502
  555POPC   C1B12187  16.766  11.878   8.704
  555POPC   C2B12188  16.862  11.868   8.259
  555POPC   C3B12189  17.003  11.707   7.856
  555POPC   C4B12190  16.745  11.717   7.476
  556POPC   NC312191  10.637  13.257   9.434
  556POPC   PO412192  10.341  13.838   9.670
  556POPC   GL112193  10.563  13.800   9.221
  556POPC   GL212194  10.500  13.476   9.019
  556POPC   C1A12195  10.437  13.884   8.753
  556POPC   D2A12196  10.409  13.489   8.493
  556POPC   C3A12197  10.423  13.470   8.034
  556POPC   C4A12198  10.431  13.769   7.712
  556POPC   C1B12199  10.850  13.225   8.821
  556POPC   C2B12200  10.814  13.168   8.392
  556POPC   C3B12201  10.920  13.238   7.987
  556POPC   C4B12202  10.944  12.935   7.684
  557POPC   NC312203  38.060  29.777   9.455
  557POPC   PO412204  38.622  30.107   9.287
  557POPC   GL112205  38.372  29.908   9.028
  557POPC   GL212206  38.003  30.018   9.010
  557POPC   C1A12207  38.545  29.836   8.629
  557POPC   D2A12208  38.599  30.066   8.265
  557POPC   C3A12209  38.583  29.848   7.890
  557POPC   C4A12210  38.661  29.987   7.501
  557POPC   C1B12211  38.182  30.214   8.630
  557POPC   C2B12212  38.165  30.339   8.192
  557POPC   C3B12213  38.080  30.052   7.820
  557POPC   C4B12214  38.202  30.179   7.374
  558POPC   NC312215  10.615  18.680   9.432
  558POPC   PO412216  10.414  18.024   9.373
  558POPC   GL112217  10.288  18.374   9.123
  558POPC   GL212218  10.553  18.569   8.945
  558POPC   C1A12219  10.162  18.298   8.716
  558POPC   D2A12220  10.280  17.991   8.386
  558POPC   C3A12221  10.080  18.114   8.013
  558POPC   C4A12222  10.118  18.552   7.873
  558POPC   C1B12223  10.676  18.170   8.734
  558POPC   C2B12224  10.777  18.099   8.295
  558POPC   C3B12225  10.632  18.192   7.858
  558POPC   C4B12226  10.744  18.050   7.425
  559POPC   NC312227  20.299  26.422   9.545
  559POPC   PO412228  20.493  26.983   9.725
  559POPC   GL112229  20.564  26.811   9.294
  559POPC   GL212230  20.787  26.521   9.216
  559POPC   C1A12231  20.443  26.844   8.859
  559POPC   D2A12232  20.644  26.728   8.475
  559POPC   C3A12233  20.462  26.915   8.104
  559POPC   C4A12234  20.263  26.744   7.720
  559POPC   C1B12235  20.946  26.837   8.891
  559POPC   C2B12236  21.116  26.930   8.469
  559POPC   C3B12237  20.969  26.824   8.068
  559POPC   C4B12238  20.762  26.933   7.689
  560POPC   NC312239  12.685  31.915   9.548
  560POPC   PO412240  13.046  32.430   9.560
  560POPC   GL112241  12.870  32.248   9.147
  560POPC   GL212242  12.530  32.076   9.109
  560POPC   C1A12243  12.675  32.404   8.740
  560POPC   D2A12244  12.462  32.294   8.359
  560POPC   C3A12245  12.705  32.320   7.940
  560POPC   C4A12246  12.886  32.552   7.547
  560POPC   C1B12247  12.590  31.909   8.707
  560POPC   C2B12248  12.825  31.924   8.333
  560POPC   C3B12249  12.667  31.803   7.974
  560POPC   C4B12250  12.764  31.872   7.576
  561POPC   NC312251   3.199  25.274   9.737
  561POPC   PO412252   3.769  25.226   9.407
  561POPC   GL112253   3.557  25.124   9.079
  561POPC   GL212254   3.313  24.922   9.110
  561POPC   C1A12255   3.624  25.039   8.703
  561POPC   D2A12256   3.379  24.978   8.380
  561POPC   C3A12257   3.661  25.137   8.072
  561POPC   C4A12258   3.912  25.242   7.710
  561POPC   C1B12259   3.123  25.221   8.827
  561POPC   C2B12260   3.004  25.388   8.450
  561POPC   C3B12261   3.152  25.337   8.046
  561POPC   C4B12262   3.478  25.553   7.820
  562POPC   NC312263  12.277   7.034   9.474
  562POPC   PO412264  11.826   7.583   9.631
  562POPC   GL112265  11.903   7.353   9.279
  562POPC   GL212266  12.220   7.461   9.179
  562POPC   C1A12267  11.848   7.397   8.834
  562POPC   D2A12268  11.899   7.651   8.453
  562POPC   C3A12269  11.873   7.436   8.051
  562POPC   C4A12270  12.172   7.526   7.756
  562POPC   C1B12271  12.359   7.234   8.782
  562POPC   C2B12272  12.305   7.282   8.305
  562POPC   C3B12273  12.514   7.181   7.894
  562POPC   C4B12274  12.699   7.412   7.534
  563POPC   NC312275   9.050  34.328   9.813
  563POPC   PO412276   8.959  33.775   9.556
  563POPC   GL112277   8.937  33.765   9.117
  563POPC   GL212278   8.612  33.674   9.078
  563POPC   C1A12279   9.122  34.039   8.777
  563POPC   D2A12280   9.147  33.912   8.330
  563POPC   C3A12281   8.974  34.068   7.929
  563POPC   C4A12282   9.247  33.937   7.610
  563POPC   C1B12283   8.798  33.673   8.640
  563POPC   C2B12284   8.656  33.814   8.233
  563POPC   C3B12285   8.830  33.589   7.890
  563POPC   C4B12286   9.016  33.476   7.538
  564POPC   NC312287  11.617  34.631   9.377
  564POPC   PO412288  10.963  34.938   9.328
  564POPC   GL112289  11.131  34.791   8.966
  564POPC   GL212290  11.351  34.510   8.975
  564POPC   C1A12291  10.994  34.535   8.641
  564POPC   D2A12292  11.368  34.405   8.398
  564POPC   C3A12293  11.262  34.476   7.975
  564POPC   C4A12294  11.331  34.616   7.552
  564POPC   C1B12295  11.633  34.803   8.748
  564POPC   C2B12296  11.762  34.859   8.320
  564POPC   C3B12297  11.602  34.883   7.882
  564POPC   C4B12298  11.506  35.061   7.407
  565POPC   NC312299  25.893   4.648   9.592
  565POPC   PO412300  25.952   4.108   9.528
  565POPC   GL112301  25.927   4.370   9.132
  565POPC   GL212302  25.744   4.693   9.111
  565POPC   C1A12303  25.983   4.408   8.672
  565POPC   D2A12304  26.147   4.583   8.264
  565POPC   C3A12305  26.074   4.343   7.889
  565POPC   C4A12306  25.889   4.038   7.592
  565POPC   C1B12307  25.556   4.696   8.718
  565POPC   C2B12308  25.632   4.558   8.300
  565POPC   C3B12309  25.686   4.711   7.893
  565POPC   C4B12310  25.902   4.637   7.519
  566POPC   NC312311  17.288  30.952   9.566
  566POPC   PO412312  17.784  31.382   9.624
  566POPC   GL112313  17.618  31.147   9.242
  566POPC   GL212314  17.578  30.777   9.196
  566POPC   C1A12315  17.437  31.117   8.825
  566POPC   D2A12316  17.668  30.889   8.490
  566POPC   C3A12317  17.557  30.883   8.040
  566POPC   C4A12318  17.684  30.906   7.605
  566POPC   C1B12319  17.404  30.593   8.824
  566POPC   C2B12320  17.560  30.388   8.485
  566POPC   C3B12321  17.582  30.376   8.047
  566POPC   C4B12322  17.574  30.365   7.586
  567POPC   NC312323  18.844  12.426   9.588
  567POPC   PO412324  19.082  11.809   9.548
  567POPC   GL112325  18.962  12.074   9.205
  567POPC   GL212326  19.204  12.356   9.195
  567POPC   C1A12327  18.824  12.237   8.805
  567POPC   D2A12328  18.695  12.043   8.426
  567POPC   C3A12329  18.860  12.127   8.031
  567POPC   C4A12330  19.071  12.481   7.872
  567POPC   C1B12331  19.308  12.080   8.806
  567POPC   C2B12332  19.227  12.126   8.404
  567POPC   C3B12333  19.372  12.054   8.010
  567POPC   C4B12334  19.188  12.033   7.634
  568POPC   NC312335  38.208  12.921   9.660
  568POPC   PO412336  38.398  12.475   9.223
  568POPC   GL112337  38.350  12.769   8.916
  568POPC   GL212338  38.238  12.576   8.704
  568POPC   C1A12339  38.662  12.872   8.590
  568POPC   D2A12340  38.765  12.642   8.242
  568POPC   C3A12341  38.747  12.744   7.856
  568POPC   C4A12342  38.786  13.148   7.909
  568POPC   C1B12343  37.953  12.948   8.678
  568POPC   C2B12344  38.015  13.175   8.334
  568POPC   C3B12345  38.347  12.937   8.141
  568POPC   C4B12346  38.299  12.543   7.874
  569POPC   NC312347  30.500   4.667   9.635
  569POPC   PO412348  30.759   4.077   9.551
  569POPC   GL112349  30.856   4.458   9.297
  569POPC   GL212350  30.559   4.601   9.123
  569POPC   C1A12351  31.008   4.432   8.877
  569POPC   D2A12352  30.911   4.236   8.494
  569POPC   C3A12353  30.932   4.509   8.126
  569POPC   C4A12354  30.783   4.379   7.761
  569POPC   C1B12355  30.502   4.478   8.660
  569POPC   C2B12356  30.478   4.281   8.215
  569POPC   C3B12357  30.295   4.294   7.792
  569POPC   C4B12358  30.376   4.601   7.457
  570POPC   NC312359  29.683  41.364   9.511
  570POPC   PO412360  30.126  41.816   9.444
  570POPC   GL112361  30.063  41.670   9.025
  570POPC   GL212362  29.933  41.365   9.068
  570POPC   C1A12363  30.094  41.623   8.575
  570POPC   D2A12364  29.956  41.433   8.213
  570POPC   C3A12365  30.136  41.512   7.813
  570POPC   C4A12366  29.959  41.763   7.452
  570POPC   C1B12367  29.698  41.326   8.683
  570POPC   C2B12368  29.461  41.156   8.351
  570POPC   C3B12369  29.682  41.070   7.976
  570POPC   C4B12370  29.702  41.316   7.611
  571POPC   NC312371  14.496  14.941   9.435
  571POPC   PO412372  14.056  15.574   9.520
  571POPC   GL112373  14.261  15.480   9.088
  571POPC   GL212374  14.576  15.319   9.074
  571POPC   C1A12375  14.312  15.431   8.636
  571POPC   D2A12376  14.613  15.288   8.342
  571POPC   C3A12377  14.477  15.424   7.951
  571POPC   C4A12378  14.076  15.426   7.759
  571POPC   C1B12379  14.527  14.986   8.774
  571POPC   C2B12380  14.306  14.846   8.447
  571POPC   C3B12381  14.250  14.979   8.051
  571POPC   C4B12382  13.949  14.917   7.750
  572POPC   NC312383  33.855  43.426   9.291
  572POPC   PO412384  33.662  44.055   9.599
  572POPC   GL112385  33.875  43.946   9.244
  572POPC   GL212386  33.611  43.916   9.082
  572POPC   C1A12387  34.130  43.923   8.834
  572POPC   D2A12388  34.132  44.171   8.418
  572POPC   C3A12389  34.072  43.924   7.990
  572POPC   C4A12390  33.813  43.541   7.834
  572POPC   C1B12391  33.715  44.209   8.770
  572POPC   C2B12392  33.561  44.214   8.360
  572POPC   C3B12393  33.563  43.972   8.003
  572POPC   C4B12394  33.630  43.952   7.580
  573POPC   NC312395   1.317   0.538   9.778
  573POPC   PO412396   1.520  44.930   9.511
  573POPC   GL112397   1.418   0.204   9.169
  573POPC   GL212398   1.304   0.539   9.107
  573POPC   C1A12399   1.178   0.163   8.782
  573POPC   D2A12400   1.173   0.294   8.372
  573POPC   C3A12401   1.505   0.409   8.106
  573POPC   C4A12402   1.395   0.327   7.669
  573POPC   C1B12403   1.017   0.691   8.766
  573POPC   C2B12404   0.876   0.691   8.325
  573POPC   C3B12405   1.072   0.628   7.896
  573POPC   C4B12406   1.065   0.619   7.395
  574POPC   NC312407  10.189  20.278   9.569
  574POPC   PO412408  10.637  20.758   9.474
  574POPC   GL112409  10.556  20.580   9.118
  574POPC   GL212410  10.701  20.279   9.165
  574POPC   C1A12411  10.625  20.491   8.708
  574POPC   D2A12412  10.858  20.400   8.375
  574POPC   C3A12413  10.733  20.662   8.068
  574POPC   C4A12414  10.615  20.670   7.645
  574POPC   C1B12415  10.330  20.114   8.948
  574POPC   C2B12416  10.258  20.082   8.527
  574POPC   C3B12417  10.429  20.214   8.165
  574POPC   C4B12418  10.274  20.363   7.821
  575POPC   NC312419   1.894   1.137   9.469
  575POPC   PO412420   2.519   1.379   9.361
  575POPC   GL112421   2.166   1.300   9.042
  575POPC   GL212422   1.824   1.060   8.977
  575POPC   C1A12423   2.105   1.291   8.591
  575POPC   D2A12424   1.756   1.349   8.305
  575POPC   C3A12425   1.857   1.310   7.884
  575POPC   C4A12426   2.232   1.353   7.602
  575POPC   C1B12427   2.188   0.831   8.837
  575POPC   C2B12428   2.379   0.891   8.416
  575POPC   C3B12429   2.237   1.027   8.010
  575POPC   C4B12430   2.195   0.850   7.546
  576POPC   NC312431  36.273  36.751   9.443
  576POPC   PO412432  35.762  37.125   9.434
  576POPC   GL112433  36.071  37.021   9.072
  576POPC   GL212434  36.406  37.204   9.156
  576POPC   C1A12435  36.133  36.702   8.725
  576POPC   D2A12436  35.870  36.523   8.353
  576POPC   C3A12437  35.919  36.766   7.952
  576POPC   C4A12438  36.078  36.970   7.537
  576POPC   C1B12439  36.424  37.335   8.737
  576POPC   C2B12440  36.274  37.106   8.372
  576POPC   C3B12441  36.400  36.979   7.949
  576POPC   C4B12442  36.548  37.196   7.576
  577POPC   NC312443   2.639  21.227   9.462
  577POPC   PO412444   2.661  21.906   9.309
  577POPC   GL112445   2.816  21.556   9.020
  577POPC   GL212446   2.803  21.174   8.975
  577POPC   C1A12447   3.085  21.508   8.656
  577POPC   D2A12448   3.244  21.684   8.280
  577POPC   C3A12449   2.973  21.494   7.960
  577POPC   C4A12450   2.519  21.598   7.903
  577POPC   C1B12451   2.483  21.077   8.715
  577POPC   C2B12452   2.239  21.055   8.360
  577POPC   C3B12453   2.364  20.905   7.956
  577POPC   C4B12454   2.621  21.141   7.696
  578POPC   NC312455   8.251  18.626   9.850
  578POPC   PO412456   8.244  19.224   9.501
  578POPC   GL112457   8.144  19.279   9.115
  578POPC   GL212458   7.969  19.569   9.047
  578POPC   C1A12459   8.145  19.029   8.748
  578POPC   D2A12460   8.369  18.769   8.455
  578POPC   C3A12461   8.328  18.910   8.062
  578POPC   C4A12462   8.360  18.804   7.623
  578POPC   C1B12463   8.299  19.554   8.720
  578POPC   C2B12464   8.297  19.387   8.330
  578POPC   C3B12465   8.437  19.384   7.946
  578POPC   C4B12466   8.441  19.319   7.532
  579POPC   NC312467  26.467  26.730   9.558
  579POPC   PO412468  27.103  26.567   9.492
  579POPC   GL112469  26.882  26.712   9.116
  579POPC   GL212470  26.559  26.562   9.077
  579POPC   C1A12471  26.977  26.840   8.682
  579POPC   D2A12472  27.234  26.958   8.326
  579POPC   C3A12473  27.037  26.944   7.921
  579POPC   C4A12474  27.110  27.042   7.476
  579POPC   C1B12475  26.455  26.738   8.684
  579POPC   C2B12476  26.625  26.863   8.272
  579POPC   C3B12477  26.575  26.724   7.836
  579POPC   C4B12478  26.476  26.726   7.389
  580POPC   NC312479  11.258   1.294   9.863
  580POPC   PO412480  10.945   0.835   9.505
  580POPC   GL112481  11.124   1.183   9.314
  580POPC   GL212482  11.441   1.173   9.200
  580POPC   C1A12483  11.097   1.322   8.858
  580POPC   D2A12484  11.171   1.156   8.446
  580POPC   C3A12485  11.132   1.470   8.138
  580POPC   C4A12486  11.124   1.451   7.704
  580POPC   C1B12487  11.615   1.242   8.767
  580POPC   C2B12488  11.622   1.428   8.341
  580POPC   C3B12489  11.601   1.377   7.887
  580POPC   C4B12490  11.863   1.125   7.588
  581POPC   NC312491   1.861  39.187   9.719
  581POPC   PO412492   1.137  39.152   9.559
  581POPC   GL112493   1.177  39.088   9.134
  581POPC   GL212494   1.114  39.434   9.070
  581POPC   C1A12495   1.049  39.094   8.701
  581POPC   D2A12496   1.265  38.989   8.306
  581POPC   C3A12497   1.037  39.132   7.885
  581POPC   C4A12498   0.901  39.013   7.405
  581POPC   C1B12499   1.085  39.654   8.712
  581POPC   C2B12500   1.162  39.481   8.338
  581POPC   C3B12501   1.363  39.635   7.997
  581POPC   C4B12502   1.184  39.642   7.627
  582POPC   NC312503  19.375   3.640   9.579
  582POPC   PO412504  19.031   3.172   9.549
  582POPC   GL112505  19.211   3.297   9.171
  582POPC   GL212506  18.852   3.226   9.073
  582POPC   C1A12507  19.171   3.425   8.727
  582POPC   D2A12508  19.239   3.650   8.372
  582POPC   C3A12509  19.163   3.442   8.007
  582POPC   C4A12510  18.978   3.696   7.688
  582POPC   C1B12511  18.800   3.052   8.683
  582POPC   C2B12512  18.764   3.323   8.343
  582POPC   C3B12513  18.676   3.276   7.918
  582POPC   C4B12514  18.951   3.204   7.582
  583POPC   NC312515  10.285  24.863   9.213
  583POPC   PO412516  10.272  25.290   9.735
  583POPC   GL112517  10.648  25.267   9.311
  583POPC   GL212518  10.776  24.952   9.169
  583POPC   C1A12519  10.612  25.220   8.778
  583POPC   D2A12520  10.266  25.030   8.554
  583POPC   C3A12521  10.176  25.162   8.131
  583POPC   C4A12522  10.312  25.533   7.890
  583POPC   C1B12523  11.079  24.974   8.837
  583POPC   C2B12524  11.009  25.189   8.478
  583POPC   C3B12525  10.677  25.191   8.242
  583POPC   C4B12526  10.621  25.131   7.833
  584POPC   NC312527   5.725  25.581   9.800
  584POPC   PO412528   6.163  25.972   9.495
  584POPC   GL112529   5.883  26.167   9.194
  584POPC   GL212530   5.995  26.504   9.194
  584POPC   C1A12531   5.762  26.046   8.752
  584POPC   D2A12532   5.848  25.729   8.421
  584POPC   C3A12533   5.777  25.899   8.005
  584POPC   C4A12534   5.812  26.138   7.620
  584POPC   C1B12535   6.139  26.384   8.778
  584POPC   C2B12536   6.151  26.166   8.384
  584POPC   C3B12537   6.109  26.350   7.991
  584POPC   C4B12538   6.332  26.270   7.642
  585POPC   NC312539  29.299  17.131   9.557
  585POPC   PO412540  28.922  17.640   9.467
  585POPC   GL112541  28.959  17.466   9.109
  585POPC   GL212542  29.307  17.502   9.053
  585POPC   C1A12543  28.869  17.633   8.728
  585POPC   D2A12544  29.058  17.854   8.401
  585POPC   C3A12545  28.924  17.708   8.009
  585POPC   C4A12546  29.123  17.338   7.863
  585POPC   C1B12547  29.566  17.749   8.729
  585POPC   C2B12548  29.590  17.939   8.318
  585POPC   C3B12549  29.453  17.709   7.964
  585POPC   C4B12550  29.477  17.625   7.488
  586POPC   NC312551  39.593   8.117   9.455
  586POPC   PO412552  39.969   8.596   9.438
  586POPC   GL112553  39.947   8.281   9.086
  586POPC   GL212554  39.622   8.212   8.967
  586POPC   C1A12555  39.997   8.004   8.698
  586POPC   D2A12556  39.890   8.089   8.248
  586POPC   C3A12557  40.151   8.029   7.875
  586POPC   C4A12558  40.359   8.026   7.469
  586POPC   C1B12559  39.515   8.258   8.569
  586POPC   C2B12560  39.624   8.519   8.253
  586POPC   C3B12561  39.796   8.418   7.872
  586POPC   C4B12562  39.617   8.071   7.785
  587POPC   NC312563  10.144  10.147   9.830
  587POPC   PO412564  10.537   9.764   9.416
  587POPC   GL112565  10.354   9.643   9.033
  587POPC   GL212566  10.501   9.953   8.926
  587POPC   C1A12567  10.381   9.640   8.570
  587POPC   D2A12568  10.809   9.553   8.410
  587POPC   C3A12569  10.723   9.604   8.001
  587POPC   C4A12570  10.320   9.563   7.775
  587POPC   C1B12571  10.597  10.188   8.590
  587POPC   C2B12572  10.660  10.190   8.193
  587POPC   C3B12573  10.334  10.136   7.936
  587POPC   C4B12574  10.154  10.009   7.563
  588POPC   NC312575  38.318  44.916   9.459
  588POPC   PO412576  38.689  44.440   9.404
  588POPC   GL112577  38.668  44.608   9.045
  588POPC   GL212578  38.300  44.610   9.037
  588POPC   C1A12579  38.592  44.499   8.634
  588POPC   D2A12580  38.347  44.752   8.394
  588POPC   C3A12581  38.524  44.694   8.017
  588POPC   C4A12582  38.710  44.705   7.623
  588POPC   C1B12583  37.979  44.853   8.798
  588POPC   C2B12584  37.789  44.911   8.396
  588POPC   C3B12585  38.039  44.947   8.028
  588POPC   C4B12586  38.178  44.736   7.647
  589POPC   NC312587  36.338  30.340   9.487
  589POPC   PO412588  36.277  30.928   9.366
  589POPC   GL112589  36.295  30.812   8.969
  589POPC   GL212590  36.206  30.498   9.029
  589POPC   C1A12591  36.325  30.759   8.509
  589POPC   D2A12592  36.128  31.046   8.215
  589POPC   C3A12593  36.164  31.063   7.779
  589POPC   C4A12594  36.092  30.747   7.473
  589POPC   C1B12595  36.017  30.358   8.686
  589POPC   C2B12596  35.909  30.516   8.300
  589POPC   C3B12597  36.187  30.555   7.949
  589POPC   C4B12598  36.545  30.306   7.785
  590POPC   NC312599  33.252  31.333   9.600
  590POPC   PO412600  33.196  32.002   9.451
  590POPC   GL112601  33.225  31.614   9.149
  590POPC   GL212602  32.988  31.304   9.163
  590POPC   C1A12603  33.380  31.412   8.735
  590POPC   D2A12604  33.335  31.633   8.301
  590POPC   C3A12605  33.242  31.552   7.853
  590POPC   C4A12606  32.819  31.652   7.720
  590POPC   C1B12607  32.881  31.291   8.730
  590POPC   C2B12608  33.129  31.163   8.359
  590POPC   C3B12609  32.901  31.207   8.008
  590POPC   C4B12610  32.539  31.219   7.734
  591POPC   NC312611  20.261  11.356   9.801
  591POPC   PO412612  19.670  11.261   9.546
  591POPC   GL112613  19.607  11.268   9.148
  591POPC   GL212614  19.946  11.395   9.116
  591POPC   C1A12615  19.697  11.160   8.727
  591POPC   D2A12616  20.022  11.218   8.434
  591POPC   C3A12617  19.897  11.221   8.013
  591POPC   C4A12618  20.061  11.279   7.630
  591POPC   C1B12619  19.706  11.679   8.823
  591POPC   C2B12620  19.518  11.660   8.434
  591POPC   C3B12621  19.709  11.686   8.043
  591POPC   C4B12622  19.645  11.797   7.620
  592POPC   NC312623  22.094  15.593   9.495
  592POPC   PO412624  22.428  16.158   9.317
  592POPC   GL112625  22.316  15.816   9.079
  592POPC   GL212626  22.632  15.710   9.056
  592POPC   C1A12627  22.327  15.610   8.668
  592POPC   D2A12628  22.567  15.593   8.297
  592POPC   C3A12629  22.269  15.593   7.977
  592POPC   C4A12630  21.955  15.904   7.873
  592POPC   C1B12631  22.709  15.977   8.697
  592POPC   C2B12632  22.656  16.138   8.277
  592POPC   C3B12633  22.441  16.078   7.878
  592POPC   C4B12634  22.364  16.407   7.513
  593POPC   NC312635  13.201  20.253   9.360
  593POPC   PO412636  12.589  20.288   9.545
  593POPC   GL112637  12.747  20.500   9.154
  593POPC   GL212638  13.054  20.661   9.088
  593POPC   C1A12639  12.699  20.674   8.719
  593POPC   D2A12640  12.744  20.472   8.309
  593POPC   C3A12641  12.481  20.623   7.955
  593POPC   C4A12642  12.757  20.526   7.643
  593POPC   C1B12643  13.138  20.407   8.694
  593POPC   C2B12644  13.327  20.476   8.267
  593POPC   C3B12645  13.240  20.509   7.808
  593POPC   C4B12646  13.170  20.664   7.366
  594POPC   NC312647  15.808   0.635   9.728
  594POPC   PO412648  16.134   0.122   9.508
  594POPC   GL112649  15.895   0.276   9.161
  594POPC   GL212650  15.754   0.600   9.209
  594POPC   C1A12651  16.079   0.459   8.773
  594POPC   D2A12652  16.026   0.403   8.365
  594POPC   C3A12653  16.202   0.462   7.993
  594POPC   C4A12654  15.933   0.334   7.639
  594POPC   C1B12655  15.626   0.717   8.800
  594POPC   C2B12656  15.774   0.867   8.416
  594POPC   C3B12657  15.710   0.674   8.045
  594POPC   C4B12658  15.559   0.680   7.643
  595POPC   NC312659  12.107  26.092   9.959
  595POPC   PO412660  12.485  25.826   9.526
  595POPC   GL112661  12.350  25.953   9.074
  595POPC   GL212662  12.037  26.130   9.080
  595POPC   C1A12663  12.111  25.743   8.712
  595POPC   D2A12664  12.023  25.582   8.274
  595POPC   C3A12665  12.249  25.827   7.921
  595POPC   C4A12666  12.269  26.087   7.528
  595POPC   C1B12667  11.870  26.251   8.677
  595POPC   C2B12668  11.906  26.098   8.241
  595POPC   C3B12669  11.799  26.102   7.805
  595POPC   C4B12670  11.845  26.369   7.430
  596POPC   NC312671  35.799  17.994   9.534
  596POPC   PO412672  35.099  18.005   9.414
  596POPC   GL112673  35.307  18.237   9.138
  596POPC   GL212674  35.478  18.536   9.288
  596POPC   C1A12675  35.334  18.136   8.714
  596POPC   D2A12676  35.264  18.372   8.362
  596POPC   C3A12677  35.326  18.155   7.968
  596POPC   C4A12678  35.187  18.473   7.707
  596POPC   C1B12679  35.696  18.458   8.885
  596POPC   C2B12680  35.788  18.373   8.462
  596POPC   C3B12681  35.665  18.525   8.053
  596POPC   C4B12682  35.687  18.511   7.614
  597POPC   NC312683  27.264  22.346   9.482
  597POPC   PO412684  26.627  22.479   9.602
  597POPC   GL112685  26.652  22.211   9.209
  597POPC   GL212686  26.987  22.001   9.177
  597POPC   C1A12687  26.490  22.149   8.773
  597POPC   D2A12688  26.612  22.301   8.355
  597POPC   C3A12689  26.799  22.028   8.100
  597POPC   C4A12690  26.824  21.972   7.688
  597POPC   C1B12691  27.226  22.159   8.813
  597POPC   C2B12692  27.106  22.436   8.493
  597POPC   C3B12693  27.003  22.553   8.095
  597POPC   C4B12694  27.060  22.412   7.696
  598POPC   NC312695  15.624  20.045   9.342
  598POPC   PO412696  14.984  19.775   9.386
  598POPC   GL112697  15.260  19.781   9.082
  598POPC   GL212698  15.508  19.547   9.060
  598POPC   C1A12699  15.370  19.941   8.700
  598POPC   D2A12700  15.518  19.869   8.266
  598POPC   C3A12701  15.243  19.888   7.893
  598POPC   C4A12702  15.191  19.630   7.512
  598POPC   C1B12703  15.148  19.325   8.845
  598POPC   C2B12704  14.995  19.254   8.414
  598POPC   C3B12705  15.068  19.384   7.972
  598POPC   C4B12706  14.839  19.294   7.595
  599POPC   NC312707   8.493  40.162   9.585
  599POPC   PO412708   7.964  39.776   9.887
  599POPC   GL112709   8.079  39.660   9.437
  599POPC   GL212710   7.827  39.605   9.179
  599POPC   C1A12711   8.256  39.836   9.027
  599POPC   D2A12712   8.354  39.790   8.572
  599POPC   C3A12713   8.256  40.135   8.276
  599POPC   C4A12714   8.377  40.072   7.843
  599POPC   C1B12715   7.814  39.825   8.736
  599POPC   C2B12716   7.901  39.751   8.261
  599POPC   C3B12717   7.884  39.856   7.784
  599POPC   C4B12718   7.788  39.683   7.315
  600POPC   NC312719   6.349   0.859   9.411
  600POPC   PO412720   6.362   1.551   9.385
  600POPC   GL112721   6.403   1.280   9.001
  600POPC   GL212722   6.520   0.961   8.955
  600POPC   C1A12723   6.496   1.299   8.534
  600POPC   D2A12724   6.351   1.322   8.082
  600POPC   C3A12725   6.710   1.230   7.796
  600POPC   C4A12726   6.939   1.515   7.476
  600POPC   C1B12727   6.707   0.819   8.585
  600POPC   C2B12728   6.589   0.897   8.191
  600POPC   C3B12729   6.386   0.809   7.793
  600POPC   C4B12730   6.286   0.800   7.335
  601POPC   NC312731  28.731  34.951   9.524
  601POPC   PO412732  28.105  35.363   9.469
  601POPC   GL112733  28.382  35.430   9.125
  601POPC   GL212734  28.414  35.085   9.128
  601POPC   C1A12735  28.345  35.579   8.696
  601POPC   D2A12736  28.298  35.695   8.279
  601POPC   C3A12737  28.287  35.415   7.969
  601POPC   C4A12738  28.456  35.350   7.591
  601POPC   C1B12739  28.251  35.066   8.735
  601POPC   C2B12740  28.417  35.092   8.354
  601POPC   C3B12741  28.383  34.917   7.990
  601POPC   C4B12742  28.580  34.868   7.633
  602POPC   NC312743  21.638  11.957   9.505
  602POPC   PO412744  20.962  12.111   9.618
  602POPC   GL112745  21.244  12.041   9.209
  602POPC   GL212746  21.513  11.796   9.021
  602POPC   C1A12747  21.377  12.209   8.771
  602POPC   D2A12748  21.495  11.915   8.459
  602POPC   C3A12749  21.246  11.921   8.100
  602POPC   C4A12750  20.990  12.153   7.794
  602POPC   C1B12751  21.855  12.033   8.823
  602POPC   C2B12752  21.836  12.348   8.497
  602POPC   C3B12753  21.769  12.242   8.052
  602POPC   C4B12754  21.517  12.047   7.695
  603POPC   NC312755   1.445  14.144   9.434
  603POPC   PO412756   0.947  14.546   9.602
  603POPC   GL112757   1.091  14.411   9.203
  603POPC   GL212758   1.426  14.588   9.167
  603POPC   C1A12759   1.214  14.273   8.800
  603POPC   D2A12760   1.060  14.449   8.435
  603POPC   C3A12761   1.188  14.461   8.035
  603POPC   C4A12762   1.210  14.243   7.685
  603POPC   C1B12763   1.405  14.759   8.744
  603POPC   C2B12764   1.627  14.909   8.373
  603POPC   C3B12765   1.572  14.842   7.943
  603POPC   C4B12766   1.340  14.721   7.619
  604POPC   NC312767  12.329  24.649   9.462
  604POPC   PO412768  12.805  24.165   9.524
  604POPC   GL112769  12.680  24.384   9.178
  604POPC   GL212770  12.429  24.139   9.130
  604POPC   C1A12771  12.890  24.602   8.814
  604POPC   D2A12772  13.228  24.522   8.494
  604POPC   C3A12773  13.132  24.696   8.088
  604POPC   C4A12774  12.946  24.852   7.686
  604POPC   C1B12775  12.607  24.188   8.723
  604POPC   C2B12776  12.776  24.307   8.358
  604POPC   C3B12777  12.939  24.243   7.959
  604POPC   C4B12778  12.731  24.394   7.608
  605POPC   NC312779  21.962   5.752   9.478
  605POPC   PO412780  22.181   6.401   9.697
  605POPC   GL112781  22.321   6.231   9.221
  605POPC   GL212782  22.193   5.883   9.064
  605POPC   C1A12783  22.277   6.263   8.762
  605POPC   D2A12784  22.081   6.025   8.425
  605POPC   C3A12785  22.248   5.947   8.003
  605POPC   C4A12786  21.943   5.896   7.643
  605POPC   C1B12787  22.115   5.526   8.768
  605POPC   C2B12788  22.215   5.510   8.329
  605POPC   C3B12789  22.465   5.478   7.956
  605POPC   C4B12790  22.393   5.506   7.501
  606POPC   NC312791  28.956  18.070   9.599
  606POPC   PO412792  29.364  18.528   9.380
  606POPC   GL112793  28.935  18.385   9.199
  606POPC   GL212794  28.745  18.031   9.107
  606POPC   C1A12795  28.989  18.490   8.802
  606POPC   D2A12796  29.304  18.347   8.473
  606POPC   C3A12797  29.203  18.192   8.058
  606POPC   C4A12798  29.184  18.005   7.666
  606POPC   C1B12799  28.676  18.118   8.625
  606POPC   C2B12800  28.834  18.486   8.344
  606POPC   C3B12801  29.015  18.671   8.046
  606POPC   C4B12802  28.872  18.400   7.733
  607POPC   NC312803  20.108  34.651   9.520
  607POPC   PO412804  19.478  34.369   9.569
  607POPC   GL112805  19.654  34.479   9.175
  607POPC   GL212806  20.003  34.379   9.083
  607POPC   C1A12807  19.576  34.393   8.743
  607POPC   D2A12808  19.780  34.548   8.378
  607POPC   C3A12809  19.571  34.658   7.965
  607POPC   C4A12810  19.777  34.826   7.635
  607POPC   C1B12811  19.962  34.769   8.849
  607POPC   C2B12812  20.181  34.920   8.482
  607POPC   C3B12813  20.057  34.840   8.073
  607POPC   C4B12814  20.023  34.443   7.856
  608POPC   NC312815  36.679  15.228   9.457
  608POPC   PO412816  37.259  15.140   9.800
  608POPC   GL112817  37.132  15.071   9.299
  608POPC   GL212818  36.836  14.954   9.071
  608POPC   C1A12819  37.221  15.229   8.884
  608POPC   D2A12820  37.208  15.394   8.473
  608POPC   C3A12821  37.212  15.082   8.157
  608POPC   C4A12822  37.027  15.007   7.761
  608POPC   C1B12823  36.892  14.957   8.624
  608POPC   C2B12824  36.721  15.125   8.299
  608POPC   C3B12825  36.600  14.882   7.987
  608POPC   C4B12826  36.441  14.964   7.612
  609POPC   NC312827   8.153   0.165   9.482
  609POPC   PO412828   7.828   0.659   9.381
  609POPC   GL112829   7.975   0.346   9.049
  609POPC   GL212830   8.364   0.403   9.070
  609POPC   C1A12831   8.213   0.179   8.659
  609POPC   D2A12832   8.233   0.457   8.284
  609POPC   C3A12833   8.062   0.260   7.932
  609POPC   C4A12834   8.312   0.041   7.655
  609POPC   C1B12835   8.158   0.704   8.737
  609POPC   C2B12836   7.972   0.909   8.348
  609POPC   C3B12837   8.001   0.785   7.898
  609POPC   C4B12838   8.402   0.646   7.664
  610POPC   NC312839  34.288  25.396   9.506
  610POPC   PO412840  34.951  25.567   9.679
  610POPC   GL112841  34.743  25.279   9.275
  610POPC   GL212842  34.517  25.461   9.033
  610POPC   C1A12843  34.896  25.211   8.798
  610POPC   D2A12844  34.849  24.970   8.411
  610POPC   C3A12845  34.586  25.223   8.158
  610POPC   C4A12846  34.660  25.452   7.773
  610POPC   C1B12847  34.435  25.046   8.895
  610POPC   C2B12848  34.264  25.002   8.539
  610POPC   C3B12849  34.065  25.135   8.176
  610POPC   C4B12850  34.290  25.042   7.788
  611POPC   NC312851  31.197  22.662   9.373
  611POPC   PO412852  31.481  22.074   9.420
  611POPC   GL112853  31.540  22.384   9.115
  611POPC   GL212854  31.222  22.329   8.984
  611POPC   C1A12855  31.595  22.516   8.723
  611POPC   D2A12856  31.328  22.355   8.357
  611POPC   C3A12857  31.542  22.348   7.942
  611POPC   C4A12858  31.644  22.453   7.488
  611POPC   C1B12859  31.444  22.020   8.764
  611POPC   C2B12860  31.511  21.866   8.369
  611POPC   C3B12861  31.300  21.896   7.986
  611POPC   C4B12862  31.346  22.045   7.571
  612POPC   NC312863  28.949  41.180   9.427
  612POPC   PO412864  29.282  41.827   9.578
  612POPC   GL112865  29.231  41.669   9.159
  612POPC   GL212866  29.562  41.712   9.139
  612POPC   C1A12867  29.181  41.510   8.708
  612POPC   D2A12868  28.800  41.606   8.475
  612POPC   C3A12869  28.910  41.636   8.054
  612POPC   C4A12870  29.295  41.419   7.925
  612POPC   C1B12871  29.640  41.851   8.756
  612POPC   C2B12872  29.538  41.694   8.337
  612POPC   C3B12873  29.682  41.751   7.908
  612POPC   C4B12874  29.433  41.761   7.563
  613POPC   NC312875  30.623  15.676   9.619
  613POPC   PO412876  30.630  16.362   9.552
  613POPC   GL112877  30.534  16.259   9.170
  613POPC   GL212878  30.571  15.905   9.166
  613POPC   C1A12879  30.817  16.253   8.827
  613POPC   D2A12880  31.019  16.129   8.460
  613POPC   C3A12881  30.832  16.056   8.054
  613POPC   C4A12882  30.924  15.738   7.746
  613POPC   C1B12883  30.842  15.747   8.856
  613POPC   C2B12884  30.642  15.794   8.496
  613POPC   C3B12885  30.634  15.586   8.138
  613POPC   C4B12886  30.436  15.777   7.773
  614POPC   NC312887  14.435  17.705   9.491
  614POPC   PO412888  14.841  17.190   9.388
  614POPC   GL112889  14.544  17.372   9.104
  614POPC   GL212890  14.187  17.497   9.101
  614POPC   C1A12891  14.474  17.464   8.689
  614POPC   D2A12892  14.244  17.352   8.367
  614POPC   C3A12893  14.425  17.452   7.969
  614POPC   C4A12894  14.604  17.182   7.662
  614POPC   C1B12895  14.092  17.796   8.809
  614POPC   C2B12896  13.964  17.761   8.403
  614POPC   C3B12897  14.103  17.862   7.984
  614POPC   C4B12898  14.164  18.039   7.578
  615POPC   NC312899  15.425  13.314   9.347
  615POPC   PO412900  16.048  13.264   9.309
  615POPC   GL112901  16.043  13.691   9.149
  615POPC   GL212902  15.689  13.771   9.254
  615POPC   C1A12903  16.209  13.740   8.740
  615POPC   D2A12904  16.026  13.588   8.399
  615POPC   C3A12905  16.143  13.773   8.029
  615POPC   C4A12906  15.996  13.537   7.713
  615POPC   C1B12907  15.628  13.819   8.826
  615POPC   C2B12908  15.482  13.813   8.426
  615POPC   C3B12909  15.649  13.666   8.068
  615POPC   C4B12910  15.580  13.833   7.663
  616POPC   NC312911  11.196  22.075   9.573
  616POPC   PO412912  11.118  21.400   9.594
  616POPC   GL112913  11.027  21.426   9.176
  616POPC   GL212914  11.321  21.287   9.103
  616POPC   C1A12915  11.000  21.693   8.798
  616POPC   D2A12916  10.982  21.577   8.366
  616POPC   C3A12917  11.257  21.580   8.009
  616POPC   C4A12918  11.032  21.368   7.701
  616POPC   C1B12919  11.287  21.254   8.685
  616POPC   C2B12920  11.492  21.047   8.378
  616POPC   C3B12921  11.494  21.093   7.952
  616POPC   C4B12922  11.527  21.332   7.581
  617POPC   NC312923   1.587  28.242   9.505
  617POPC   PO412924   0.902  28.077   9.517
  617POPC   GL112925   1.092  28.386   9.265
  617POPC   GL212926   1.287  28.147   9.109
  617POPC   C1A12927   1.317  28.640   8.945
  617POPC   D2A12928   1.276  28.713   8.498
  617POPC   C3A12929   1.337  28.421   8.114
  617POPC   C4A12930   1.187  28.470   7.713
  617POPC   C1B12931   1.163  28.226   8.684
  617POPC   C2B12932   1.355  27.979   8.397
  617POPC   C3B12933   1.556  27.926   8.025
  617POPC   C4B12934   1.312  27.929   7.654
  618POPC   NC312935  25.099  10.466   9.408
  618POPC   PO412936  25.720  10.536   9.334
  618POPC   GL112937  25.493  10.716   8.982
  618POPC   GL212938  25.114  10.777   8.990
  618POPC   C1A12939  25.383  10.658   8.545
  618POPC   D2A12940  25.267  10.867   8.171
  618POPC   C3A12941  25.446  10.671   7.854
  618POPC   C4A12942  25.432  10.233   7.838
  618POPC   C1B12943  25.000  10.381   8.755
  618POPC   C2B12944  24.784  10.303   8.350
  618POPC   C3B12945  24.950  10.423   7.951
  618POPC   C4B12946  24.943  10.800   7.767
  619POPC   NC312947  28.213  24.700   9.577
  619POPC   PO412948  28.843  24.417   9.392
  619POPC   GL112949  28.586  24.585   9.113
  619POPC   GL212950  28.224  24.459   9.141
  619POPC   C1A12951  28.709  24.853   8.730
  619POPC   D2A12952  28.610  24.811   8.284
  619POPC   C3A12953  28.412  24.401   8.173
  619POPC   C4A12954  28.222  24.216   7.819
  619POPC   C1B12955  28.336  24.493   8.697
  619POPC   C2B12956  28.109  24.743   8.436
  619POPC   C3B12957  28.158  24.819   8.020
  619POPC   C4B12958  27.896  24.675   7.742
  620POPC   NC312959  30.748  35.999   9.420
  620POPC   PO412960  30.508  36.655   9.402
  620POPC   GL112961  30.765  36.410   9.141
  620POPC   GL212962  30.490  36.226   9.051
  620POPC   C1A12963  30.917  36.080   8.802
  620POPC   D2A12964  30.770  36.050   8.369
  620POPC   C3A12965  30.984  36.132   7.997
  620POPC   C4A12966  30.895  36.108   7.546
  620POPC   C1B12967  30.371  36.046   8.690
  620POPC   C2B12968  30.326  35.816   8.273
  620POPC   C3B12969  30.513  35.948   7.873
  620POPC   C4B12970  30.434  35.880   7.410
  621POPC   NC312971   7.318  43.670   9.523
  621POPC   PO412972   7.634  44.207   9.651
  621POPC   GL112973   7.413  44.042   9.210
  621POPC   GL212974   7.096  43.944   9.033
  621POPC   C1A12975   7.493  43.764   8.802
  621POPC   D2A12976   7.349  43.861   8.378
  621POPC   C3A12977   7.649  43.838   8.063
  621POPC   C4A12978   7.629  43.678   7.667
  621POPC   C1B12979   7.021  43.576   8.697
  621POPC   C2B12980   7.228  43.353   8.352
  621POPC   C3B12981   7.240  43.487   7.946
  621POPC   C4B12982   7.176  43.898   7.841
  622POPC   NC312983   2.747  14.798   9.236
  622POPC   PO412984   2.659  14.186   9.533
  622POPC   GL112985   2.866  14.291   9.158
  622POPC   GL212986   2.560  14.238   8.994
  622POPC   C1A12987   2.943  14.481   8.714
  622POPC   D2A12988   2.934  14.414   8.276
  622POPC   C3A12989   2.898  14.730   7.948
  622POPC   C4A12990   2.822  14.563   7.540
  622POPC   C1B12991   2.867  13.977   8.754
  622POPC   C2B12992   2.931  13.883   8.338
  622POPC   C3B12993   2.710  14.052   7.984
  622POPC   C4B12994   2.831  13.923   7.580
  623POPC   NC312995  23.439  41.923   9.377
  623POPC   PO412996  23.738  42.480   9.473
  623POPC   GL112997  23.836  42.342   9.104
  623POPC   GL212998  23.779  42.688   8.978
  623POPC   C1A12999  23.633  42.308   8.693
  623POPC   D2A13000  23.707  42.561   8.331
  623POPC   C3A13001  23.539  42.396   7.976
  623POPC   C4A13002  23.678  42.079   7.696
  623POPC   C1B13003  24.087  42.523   8.698
  623POPC   C2B13004  24.231  42.552   8.289
  623POPC   C3B13005  24.067  42.338   7.952
  623POPC   C4B13006  24.014  42.442   7.528
  624POPC   NC313007  12.557  34.292   9.338
  624POPC   PO413008  12.833  34.874   9.441
  624POPC   GL113009  12.615  34.726   9.078
  624POPC   GL213010  12.922  34.476   9.032
  624POPC   C1A13011  12.676  34.762   8.634
  624POPC   D2A13012  13.063  34.781   8.433
  624POPC   C3A13013  13.065  34.653   8.021
  624POPC   C4A13014  13.044  34.231   7.857
  624POPC   C1B13015  12.908  34.269   8.645
  624POPC   C2B13016  12.710  34.353   8.242
  624POPC   C3B13017  12.509  34.334   7.808
  624POPC   C4B13018  12.387  34.110   7.374
  625POPC   NC313019  18.577  37.175   9.712
  625POPC   PO413020  18.336  37.800   9.468
  625POPC   GL113021  18.192  37.728   9.087
  625POPC   GL213022  18.492  37.739   8.945
  625POPC   C1A13023  17.978  37.700   8.704
  625POPC   D2A13024  17.899  37.576   8.320
  625POPC   C3A13025  18.247  37.616   8.062
  625POPC   C4A13026  18.147  37.687   7.619
  625POPC   C1B13027  18.692  37.620   8.576
  625POPC   C2B13028  18.671  37.322   8.274
  625POPC   C3B13029  18.815  37.372   7.905
  625POPC   C4B13030  18.638  37.675   7.682
  626POPC   NC313031  29.325  11.047   9.401
  626POPC   PO413032  28.612  10.997   9.551
  626POPC   GL113033  28.917  11.256   9.158
  626POPC   GL213034  29.263  11.479   9.144
  626POPC   C1A13035  29.139  11.163   8.743
  626POPC   D2A13036  29.286  10.998   8.343
  626POPC   C3A13037  29.048  11.151   8.017
  626POPC   C4A13038  29.248  11.192   7.645
  626POPC   C1B13039  29.332  11.637   8.752
  626POPC   C2B13040  29.095  11.520   8.367
  626POPC   C3B13041  29.231  11.623   7.938
  626POPC   C4B13042  29.046  11.647   7.527
  627POPC   NC313043   0.104  44.552   9.590
  627POPC   PO413044   0.541  44.965   9.309
  627POPC   GL113045   0.158  44.790   9.140
  627POPC   GL213046   0.254  44.422   9.107
  627POPC   C1A13047  44.980  44.664   8.736
  627POPC   D2A13048   0.287  44.487   8.405
  627POPC   C3A13049   0.259  44.611   7.963
  627POPC   C4A13050   0.466  44.862   7.660
  627POPC   C1B13051   0.625  44.350   8.843
  627POPC   C2B13052   0.739  44.177   8.448
  627POPC   C3B13053   0.757  44.410   8.072
  627POPC   C4B13054   0.629  44.337   7.667
  628POPC   NC313055  31.401  15.477   9.496
  628POPC   PO413056  31.333  16.122   9.422
  628POPC   GL113057  31.530  15.937   9.049
  628POPC   GL213058  31.732  16.211   9.025
  628POPC   C1A13059  31.458  15.897   8.569
  628POPC   D2A13060  31.221  15.709   8.186
  628POPC   C3A13061  31.435  15.777   7.754
  628POPC   C4A13062  31.604  16.124   7.448
  628POPC   C1B13063  31.353  16.378   8.830
  628POPC   C2B13064  31.385  16.464   8.434
  628POPC   C3B13065  31.333  16.199   8.044
  628POPC   C4B13066  31.125  16.184   7.621
  629POPC   NC313067  32.714  35.900   9.429
  629POPC   PO413068  32.241  36.305   9.496
  629POPC   GL113069  32.184  35.972   9.199
  629POPC   GL213070  31.989  36.219   9.028
  629POPC   C1A13071  32.411  35.782   8.846
  629POPC   D2A13072  32.625  35.985   8.482
  629POPC   C3A13073  32.345  36.041   8.124
  629POPC   C4A13074  32.267  35.944   7.706
  629POPC   C1B13075  32.124  36.142   8.624
  629POPC   C2B13076  31.918  36.297   8.273
  629POPC   C3B13077  31.952  36.382   7.849
  629POPC   C4B13078  31.809  36.120   7.526
  630POPC   NC313079  32.694  29.177   9.720
  630POPC   PO413080  33.113  28.732   9.533
  630POPC   GL113081  32.903  28.950   9.192
  630POPC   GL213082  32.850  29.325   9.167
  630POPC   C1A13083  33.044  29.086   8.777
  630POPC   D2A13084  32.844  29.046   8.393
  630POPC   C3A13085  33.073  29.114   8.075
  630POPC   C4A13086  33.010  28.869   7.765
  630POPC   C1B13087  32.655  29.431   8.731
  630POPC   C2B13088  32.712  29.523   8.268
  630POPC   C3B13089  32.618  29.270   7.880
  630POPC   C4B13090  32.496  29.313   7.434
  631POPC   NC313091  24.235  11.991   9.540
  631POPC   PO413092  24.558  12.532   9.368
  631POPC   GL113093  24.299  12.315   9.103
  631POPC   GL213094  24.470  11.973   9.091
  631POPC   C1A13095  24.349  12.503   8.711
  631POPC   D2A13096  24.643  12.428   8.398
  631POPC   C3A13097  24.580  12.218   8.016
  631POPC   C4A13098  24.586  12.459   7.663
  631POPC   C1B13099  24.573  11.746   8.704
  631POPC   C2B13100  24.608  11.745   8.234
  631POPC   C3B13101  24.578  11.671   7.779
  631POPC   C4B13102  24.233  11.817   7.533
  632POPC   NC313103  42.391   6.904   9.352
  632POPC   PO413104  42.035   6.444   9.643
  632POPC   GL113105  42.195   6.451   9.261
  632POPC   GL213106  41.895   6.444   9.136
  632POPC   C1A13107  42.276   6.551   8.809
  632POPC   D2A13108  42.255   6.463   8.383
  632POPC   C3A13109  42.300   6.844   8.103
  632POPC   C4A13110  42.418   6.838   7.679
  632POPC   C1B13111  41.748   6.388   8.767
  632POPC   C2B13112  41.733   6.358   8.356
  632POPC   C3B13113  41.956   6.282   8.009
  632POPC   C4B13114  42.064   6.474   7.675
  633POPC   NC313115  22.126  29.257   9.571
  633POPC   PO413116  22.224  28.689   9.546
  633POPC   GL113117  22.019  28.850   9.119
  633POPC   GL213118  22.050  29.203   9.073
  633POPC   C1A13119  21.800  28.982   8.707
  633POPC   D2A13120  21.850  29.309   8.409
  633POPC   C3A13121  21.873  29.169   7.979
  633POPC   C4A13122  22.067  29.431   7.665
  633POPC   C1B13123  22.294  29.013   8.715
  633POPC   C2B13124  22.166  28.883   8.307
  633POPC   C3B13125  22.356  29.004   7.912
  633POPC   C4B13126  22.566  28.813   7.581
  634POPC   NC313127   8.044  40.818   9.467
  634POPC   PO413128   8.155  41.528   9.502
  634POPC   GL113129   8.264  41.325   9.144
  634POPC   GL213130   7.928  41.228   9.133
  634POPC   C1A13131   8.392  41.528   8.757
  634POPC   D2A13132   8.283  41.724   8.370
  634POPC   C3A13133   8.292  41.436   7.989
  634POPC   C4A13134   8.337  41.390   7.510
  634POPC   C1B13135   7.895  41.609   8.889
  634POPC   C2B13136   7.760  41.608   8.475
  634POPC   C3B13137   7.872  41.732   8.058
  634POPC   C4B13138   7.857  41.446   7.727
  635POPC   NC313139  25.081   9.604   9.616
  635POPC   PO413140  25.631   9.773   9.367
  635POPC   GL113141  25.558   9.609   8.998
  635POPC   GL213142  25.269   9.451   9.150
  635POPC   C1A13143  25.481   9.826   8.583
  635POPC   D2A13144  25.262  10.155   8.331
  635POPC   C3A13145  25.067   9.932   7.997
  635POPC   C4A13146  25.368   9.626   7.861
  635POPC   C1B13147  25.188   9.392   8.731
  635POPC   C2B13148  25.118   9.537   8.329
  635POPC   C3B13149  24.891   9.461   7.969
  635POPC   C4B13150  25.022   9.453   7.525
  636POPC   NC313151  35.016   4.401   9.459
  636POPC   PO413152  35.674   4.235   9.285
  636POPC   GL113153  35.291   4.171   9.076
  636POPC   GL213154  35.269   4.528   9.034
  636POPC   C1A13155  35.243   4.220   8.633
  636POPC   D2A13156  35.582   4.402   8.405
  636POPC   C3A13157  35.628   4.142   8.077
  636POPC   C4A13158  35.303   4.077   7.801
  636POPC   C1B13159  34.866   4.523   8.829
  636POPC   C2B13160  34.855   4.504   8.409
  636POPC   C3B13161  35.163   4.480   8.106
  636POPC   C4B13162  35.047   4.552   7.681
  637POPC   NC313163  15.420  44.012   9.526
  637POPC   PO413164  14.773  43.785   9.556
  637POPC   GL113165  15.035  43.788   9.177
  637POPC   GL213166  15.423  43.760   9.085
  637POPC   C1A13167  15.003  43.668   8.756
  637POPC   D2A13168  15.291  43.730   8.457
  637POPC   C3A13169  15.053  43.900   8.149
  637POPC   C4A13170  15.032  43.675   7.786
  637POPC   C1B13171  15.662  43.995   8.737
  637POPC   C2B13172  15.692  44.015   8.284
  637POPC   C3B13173  15.506  43.897   7.906
  637POPC   C4B13174  15.174  44.162   7.707
  638POPC   NC313175   4.108  17.160   9.579
  638POPC   PO413176   4.303  17.736   9.887
  638POPC   GL113177   4.374  17.492   9.362
  638POPC   GL213178   4.028  17.513   9.222
  638POPC   C1A13179   4.405  17.441   8.889
  638POPC   D2A13180   4.410  17.615   8.469
  638POPC   C3A13181   4.391  17.380   8.082
  638POPC   C4A13182   4.200  17.629   7.760
  638POPC   C1B13183   3.913  17.774   8.897
  638POPC   C2B13184   4.071  18.014   8.573
  638POPC   C3B13185   4.061  17.977   8.119
  638POPC   C4B13186   4.202  18.180   7.742
  639POPC   NC313187  23.684  25.613   9.464
  639POPC   PO413188  23.887  24.933   9.567
  639POPC   GL113189  23.689  25.144   9.241
  639POPC   GL213190  23.995  25.258   9.136
  639POPC   C1A13191  23.670  25.088   8.786
  639POPC   D2A13192  23.896  25.100   8.412
  639POPC   C3A13193  23.641  25.183   8.039
  639POPC   C4A13194  23.664  24.993   7.642
  639POPC   C1B13195  23.890  25.535   8.786
  639POPC   C2B13196  23.667  25.582   8.398
  639POPC   C3B13197  23.761  25.711   7.991
  639POPC   C4B13198  23.804  25.480   7.630
  640POPC   NC313199  22.117  36.706   9.451
  640POPC   PO413200  22.438  37.409   9.545
  640POPC   GL113201  22.307  37.156   9.192
  640POPC   GL213202  21.952  37.057   9.140
  640POPC   C1A13203  22.348  36.985   8.767
  640POPC   D2A13204  22.494  36.905   8.348
  640POPC   C3A13205  22.371  37.208   8.073
  640POPC   C4A13206  22.189  37.203   7.698
  640POPC   C1B13207  21.714  36.978   8.810
  640POPC   C2B13208  21.694  36.754   8.447
  640POPC   C3B13209  21.974  36.835   8.107
  640POPC   C4B13210  21.849  36.808   7.687
  641POPC   NC313211   2.691  16.401   9.897
  641POPC   PO413212   2.825  15.879   9.545
  641POPC   GL113213   2.769  15.964   9.142
  641POPC   GL213214   2.645  16.265   9.219
  641POPC   C1A13215   2.854  16.106   8.728
  641POPC   D2A13216   3.011  15.926   8.376
  641POPC   C3A13217   2.771  16.048   8.035
  641POPC   C4A13218   2.932  15.984   7.651
  641POPC   C1B13219   2.400  16.292   8.834
  641POPC   C2B13220   2.422  16.458   8.424
  641POPC   C3B13221   2.325  16.296   8.016
  641POPC   C4B13222   2.521  16.297   7.611
  642POPC   NC313223   6.198  35.878   9.518
  642POPC   PO413224   5.749  36.428   9.429
  642POPC   GL113225   6.071  36.256   9.190
  642POPC   GL213226   5.968  35.899   9.074
  642POPC   C1A13227   6.174  36.269   8.779
  642POPC   D2A13228   6.072  35.926   8.525
  642POPC   C3A13229   6.036  36.089   8.126
  642POPC   C4A13230   6.075  35.953   7.740
  642POPC   C1B13231   5.668  36.124   8.834
  642POPC   C2B13232   5.715  36.347   8.440
  642POPC   C3B13233   5.568  36.265   8.025
  642POPC   C4B13234   5.405  36.225   7.617
  643POPC   NC313235  30.007  26.459   9.507
  643POPC   PO413236  29.972  27.049   9.693
  643POPC   GL113237  30.080  26.973   9.223
  643POPC   GL213238  29.924  26.694   9.072
  643POPC   C1A13239  29.966  27.069   8.735
  643POPC   D2A13240  29.924  27.220   8.324
  643POPC   C3A13241  29.805  26.927   7.992
  643POPC   C4A13242  29.827  27.050   7.522
  643POPC   C1B13243  30.107  26.566   8.680
  643POPC   C2B13244  29.863  26.462   8.319
  643POPC   C3B13245  29.661  26.369   7.935
  643POPC   C4B13246  29.875  26.549   7.594
  644POPC   NC313247  35.232  38.698   9.449
  644POPC   PO413248  35.494  38.089   9.447
  644POPC   GL113249  35.434  38.359   9.105
  644POPC   GL213250  35.664  38.607   9.200
  644POPC   C1A13251  35.184  38.439   8.713
  644POPC   D2A13252  35.302  38.342   8.270
  644POPC   C3A13253  35.161  38.649   7.971
  644POPC   C4A13254  34.913  38.651   7.574
  644POPC   C1B13255  35.517  38.800   8.825
  644POPC   C2B13256  35.651  38.690   8.422
  644POPC   C3B13257  35.774  38.607   8.029
  644POPC   C4B13258  35.551  38.579   7.651
  645POPC   NC313259  10.643  41.938   9.268
  645POPC   PO413260  10.521  42.442   9.648
  645POPC   GL113261  10.534  42.479   9.196
  645POPC   GL213262  10.233  42.234   9.164
  645POPC   C1A13263  10.796  42.662   8.825
  645POPC   D2A13264  10.838  42.848   8.382
  645POPC   C3A13265  10.532  42.744   8.069
  645POPC   C4A13266  10.437  42.508   7.720
  645POPC   C1B13267  10.384  42.268   8.731
  645POPC   C2B13268  10.203  42.458   8.363
  645POPC   C3B13269  10.049  42.300   7.991
  645POPC   C4B13270  10.209  42.067   7.656
  646POPC   NC313271  24.511  12.981   9.490
  646POPC   PO413272  23.854  12.797   9.425
  646POPC   GL113273  24.183  12.878   9.090
  646POPC   GL213274  24.493  13.130   9.018
  646POPC   C1A13275  24.168  13.018   8.654
  646POPC   D2A13276  24.509  12.942   8.379
  646POPC   C3A13277  24.474  13.090   7.956
  646POPC   C4A13278  24.393  12.944   7.561
  646POPC   C1B13279  24.765  12.809   8.814
  646POPC   C2B13280  25.003  12.800   8.439
  646POPC   C3B13281  24.839  12.735   8.022
  646POPC   C4B13282  24.886  12.889   7.582
  647POPC   NC313283  39.834   5.098   9.721
  647POPC   PO413284  40.283   4.716   9.287
  647POPC   GL113285  39.996   4.997   9.118
  647POPC   GL213286  39.689   5.208   9.166
  647POPC   C1A13287  40.134   5.178   8.744
  647POPC   D2A13288  40.336   5.157   8.347
  647POPC   C3A13289  40.071   4.999   8.015
  647POPC   C4A13290  40.162   5.267   7.688
  647POPC   C1B13291  39.701   5.439   8.760
  647POPC   C2B13292  39.835   5.318   8.333
  647POPC   C3B13293  39.700   5.417   7.890
  647POPC   C4B13294  39.750   5.390   7.412
  648POPC   NC313295  17.626  36.943   9.508
  648POPC   PO413296  17.273  37.427   9.103
  648POPC   GL113297  17.319  36.973   9.024
  648POPC   GL213298  17.601  36.731   9.057
  648POPC   C1A13299  17.237  36.797   8.620
  648POPC   D2A13300  17.270  36.767   8.166
  648POPC   C3A13301  17.450  37.072   7.875
  648POPC   C4A13302  17.412  37.052   7.429
  648POPC   C1B13303  17.900  36.499   8.825
  648POPC   C2B13304  17.736  36.676   8.474
  648POPC   C3B13305  17.776  36.726   8.077
  648POPC   C4B13306  17.643  36.633   7.686
  649POPC   NC313307  43.150  29.678   9.610
  649POPC   PO413308  43.350  30.289   9.537
  649POPC   GL113309  43.364  30.006   9.227
  649POPC   GL213310  43.033  29.900   9.154
  649POPC   C1A13311  43.432  29.894   8.811
  649POPC   D2A13312  43.413  30.137   8.462
  649POPC   C3A13313  43.351  29.926   8.108
  649POPC   C4A13314  43.465  30.058   7.728
  649POPC   C1B13315  42.968  30.086   8.735
  649POPC   C2B13316  42.927  30.233   8.296
  649POPC   C3B13317  42.948  30.122   7.846
  649POPC   C4B13318  42.667  29.928   7.525
  650POPC   NC313319  26.450  39.029   9.372
  650POPC   PO413320  27.091  38.927   9.249
  650POPC   GL113321  27.028  39.170   8.915
  650POPC   GL213322  26.722  39.295   9.018
  650POPC   C1A13323  26.798  39.141   8.539
  650POPC   D2A13324  26.488  39.205   8.246
  650POPC   C3A13325  26.744  39.083   7.975
  650POPC   C4A13326  26.660  38.868   7.661
  650POPC   C1B13327  26.761  39.613   8.734
  650POPC   C2B13328  27.007  39.629   8.420
  650POPC   C3B13329  26.762  39.604   8.105
  650POPC   C4B13330  26.780  39.514   7.723
  651POPC   NC313331  44.831   7.817   9.697
  651POPC   PO413332  44.476   8.377   9.603
  651POPC   GL113333  44.568   8.321   9.212
  651POPC   GL213334  44.823   8.100   9.236
  651POPC   C1A13335  44.760   8.396   8.807
  651POPC   D2A13336  44.903   8.234   8.426
  651POPC   C3A13337  44.669   8.183   8.045
  651POPC   C4A13338  44.606   8.436   7.673
  651POPC   C1B13339  44.694   7.887   8.823
  651POPC   C2B13340  44.802   7.736   8.384
  651POPC   C3B13341   0.081   7.895   8.027
  651POPC   C4B13342  44.903   8.000   7.614
  652POPC   NC313343  38.595  22.203   9.618
  652POPC   PO413344  37.979  22.009   9.548
  652POPC   GL113345  38.211  21.943   9.139
  652POPC   GL213346  38.556  21.844   9.185
  652POPC   C1A13347  38.306  22.105   8.756
  652POPC   D2A13348  38.476  21.996   8.394
  652POPC   C3A13349  38.292  22.239   8.110
  652POPC   C4A13350  38.368  22.056   7.789
  652POPC   C1B13351  38.814  22.077   8.866
  652POPC   C2B13352  38.810  22.345   8.498
  652POPC   C3B13353  38.804  22.212   8.055
  652POPC   C4B13354  38.836  21.811   7.923
  653POPC   NC313355  11.624  13.404   9.497
  653POPC   PO413356  12.259  13.686   9.333
  653POPC   GL113357  12.218  13.381   9.038
  653POPC   GL213358  11.865  13.436   9.054
  653POPC   C1A13359  12.304  13.434   8.586
  653POPC   D2A13360  12.438  13.762   8.274
  653POPC   C3A13361  12.213  13.835   7.921
  653POPC   C4A13362  12.235  13.645   7.505
  653POPC   C1B13363  11.807  13.338   8.647
  653POPC   C2B13364  11.874  13.604   8.281
  653POPC   C3B13365  11.856  13.483   7.851
  653POPC   C4B13366  11.773  13.415   7.424
  654POPC   NC313367   6.953  35.604   9.562
  654POPC   PO413368   6.526  35.132   9.420
  654POPC   GL113369   6.853  35.299   9.171
  654POPC   GL213370   6.648  35.581   9.119
  654POPC   C1A13371   6.962  35.317   8.761
  654POPC   D2A13372   6.705  35.395   8.398
  654POPC   C3A13373   6.871  35.342   7.983
  654POPC   C4A13374   6.739  35.183   7.589
  654POPC   C1B13375   6.274  35.548   8.845
  654POPC   C2B13376   6.172  35.374   8.431
  654POPC   C3B13377   6.362  35.214   8.028
  654POPC   C4B13378   6.446  35.566   7.749
  655POPC   NC313379  30.821  39.987   9.562
  655POPC   PO413380  30.394  39.454   9.679
  655POPC   GL113381  30.467  39.803   9.262
  655POPC   GL213382  30.840  39.819   9.103
  655POPC   C1A13383  30.495  39.811   8.773
  655POPC   D2A13384  30.869  39.793   8.490
  655POPC   C3A13385  30.747  39.836   8.052
  655POPC   C4A13386  30.473  40.015   7.728
  655POPC   C1B13387  30.778  40.203   8.808
  655POPC   C2B13388  30.822  40.308   8.363
  655POPC   C3B13389  31.085  40.214   7.984
  655POPC   C4B13390  30.904  40.339   7.596
  656POPC   NC313391  37.562  33.412   9.478
  656POPC   PO413392  37.758  32.664   9.418
  656POPC   GL113393  37.723  32.974   9.138
  656POPC   GL213394  37.344  32.950   9.191
  656POPC   C1A13395  37.959  32.975   8.737
  656POPC   D2A13396  37.853  32.730   8.361
  656POPC   C3A13397  37.947  32.858   7.950
  656POPC   C4A13398  37.755  33.042   7.563
  656POPC   C1B13399  37.302  33.149   8.785
  656POPC   C2B13400  37.592  33.193   8.436
  656POPC   C3B13401  37.667  33.317   8.008
  656POPC   C4B13402  37.407  33.440   7.687
  657POPC   NC313403  28.928  42.158   9.570
  657POPC   PO413404  29.404  42.502   9.355
  657POPC   GL113405  29.245  42.171   9.133
  657POPC   GL213406  28.924  42.266   9.080
  657POPC   C1A13407  29.155  42.009   8.716
  657POPC   D2A13408  29.390  42.174   8.389
  657POPC   C3A13409  29.278  42.026   7.996
  657POPC   C4A13410  29.308  42.241   7.627
  657POPC   C1B13411  29.170  42.509   8.755
  657POPC   C2B13412  29.341  42.682   8.406
  657POPC   C3B13413  29.227  42.540   8.033
  657POPC   C4B13414  29.087  42.689   7.665
  658POPC   NC313415  11.483  29.038   9.624
  658POPC   PO413416  10.944  29.422   9.410
  658POPC   GL113417  11.290  29.228   9.189
  658POPC   GL213418  11.355  28.896   9.096
  658POPC   C1A13419  11.349  29.274   8.741
  658POPC   D2A13420  11.178  29.502   8.385
  658POPC   C3A13421  11.281  29.266   7.993
  658POPC   C4A13422  11.715  29.262   7.766
  658POPC   C1B13423  11.091  28.811   8.730
  658POPC   C2B13424  11.080  28.698   8.261
  658POPC   C3B13425  11.061  28.801   7.805
  658POPC   C4B13426  11.347  29.021   7.528
  659POPC   NC313427  23.767  22.320   9.601
  659POPC   PO413428  23.494  21.715   9.559
  659POPC   GL113429  23.689  21.979   9.175
  659POPC   GL213430  23.796  22.324   9.097
  659POPC   C1A13431  23.561  22.083   8.722
  659POPC   D2A13432  23.798  22.201   8.348
  659POPC   C3A13433  23.693  21.993   7.962
  659POPC   C4A13434  23.408  22.228   7.737
  659POPC   C1B13435  24.033  22.473   8.723
  659POPC   C2B13436  24.092  22.625   8.305
  659POPC   C3B13437  23.891  22.515   7.926
  659POPC   C4B13438  23.881  22.270   7.570
  660POPC   NC313439   0.983  18.974   9.544
  660POPC   PO413440   1.588  19.256   9.500
  660POPC   GL113441   1.320  19.178   9.167
  660POPC   GL213442   1.284  18.813   9.153
  660POPC   C1A13443   1.422  19.134   8.713
  660POPC   D2A13444   1.266  18.926   8.327
  660POPC   C3A13445   1.282  19.183   7.947
  660POPC   C4A13446   0.957  19.232   7.644
  660POPC   C1B13447   1.148  18.639   8.769
  660POPC   C2B13448   1.074  18.388   8.395
  660POPC   C3B13449   0.992  18.558   8.013
  660POPC   C4B13450   1.171  18.728   7.679
  661POPC   NC313451  21.086   2.368   9.502
  661POPC   PO413452  21.468   2.940   9.509
  661POPC   GL113453  21.250   2.763   9.187
  661POPC   GL213454  21.048   3.001   9.068
  661POPC   C1A13455  21.433   2.680   8.806
  661POPC   D2A13456  21.685   2.831   8.478
  661POPC   C3A13457  21.568   2.934   8.060
  661POPC   C4A13458  21.522   2.726   7.658
  661POPC   C1B13459  21.031   2.903   8.654
  661POPC   C2B13460  21.188   2.615   8.360
  661POPC   C3B13461  21.108   2.701   7.968
  661POPC   C4B13462  21.168   3.078   7.752
  662POPC   NC313463  19.558  44.652   9.513
  662POPC   PO413464  20.163  44.878   9.522
  662POPC   GL113465  19.961  44.596   9.173
  662POPC   GL213466  19.621  44.335   9.102
  662POPC   C1A13467  19.837  44.609   8.752
  662POPC   D2A13468  19.667  44.762   8.385
  662POPC   C3A13469  19.984  44.816   8.086
  662POPC   C4A13470  20.062  44.565   7.732
  662POPC   C1B13471  19.560  44.170   8.666
  662POPC   C2B13472  19.540  44.297   8.215
  662POPC   C3B13473  19.573  44.582   7.842
  662POPC   C4B13474  19.501  44.466   7.402
  663POPC   NC313475  27.541  24.359   9.487
  663POPC   PO413476  27.574  24.941   9.640
  663POPC   GL113477  27.743  24.714   9.215
  663POPC   GL213478  27.417  24.645   9.094
  663POPC   C1A13479  27.817  24.467   8.823
  663POPC   D2A13480  27.980  24.186   8.508
  663POPC   C3A13481  27.881  24.366   8.145
  663POPC   C4A13482  27.597  24.247   7.812
  663POPC   C1B13483  27.277  24.319   8.813
  663POPC   C2B13484  27.438  24.303   8.386
  663POPC   C3B13485  27.470  24.671   8.071
  663POPC   C4B13486  27.271  25.061   7.889
  664POPC   NC313487  23.332   6.915   9.613
  664POPC   PO413488  23.815   6.489   9.454
  664POPC   GL113489  23.694   6.477   9.068
  664POPC   GL213490  23.643   6.843   9.085
  664POPC   C1A13491  23.748   6.607   8.656
  664POPC   D2A13492  23.575   6.847   8.363
  664POPC   C3A13493  23.596   6.589   8.017
  664POPC   C4A13494  23.926   6.354   7.798
  664POPC   C1B13495  24.045   6.931   8.894
  664POPC   C2B13496  24.066   7.004   8.440
  664POPC   C3B13497  24.021   6.914   8.007
  664POPC   C4B13498  23.805   6.831   7.618
  665POPC   NC313499   1.639  22.691   9.348
  665POPC   PO413500   1.827  23.288   9.461
  665POPC   GL113501   2.098  23.122   9.145
  665POPC   GL213502   1.772  23.036   8.997
  665POPC   C1A13503   2.187  22.953   8.732
  665POPC   D2A13504   1.979  22.897   8.351
  665POPC   C3A13505   2.203  22.958   8.004
  665POPC   C4A13506   2.152  22.755   7.638
  665POPC   C1B13507   1.815  23.293   8.659
  665POPC   C2B13508   1.926  23.393   8.279
  665POPC   C3B13509   1.798  23.214   7.867
  665POPC   C4B13510   1.496  23.243   7.560
  666POPC   NC313511   6.220  11.182   9.493
  666POPC   PO413512   5.566  11.358   9.573
  666POPC   GL113513   5.546  11.493   9.162
  666POPC   GL213514   5.883  11.360   9.115
  666POPC   C1A13515   5.528  11.273   8.764
  666POPC   D2A13516   5.691  11.067   8.403
  666POPC   C3A13517   5.737  11.367   8.070
  666POPC   C4A13518   5.694  11.360   7.639
  666POPC   C1B13519   6.102  11.167   8.745
  666POPC   C2B13520   6.189  11.272   8.303
  666POPC   C3B13521   6.181  11.219   7.818
  666POPC   C4B13522   6.123  11.512   7.410
  667POPC   NC313523   9.111  30.523   9.362
  667POPC   PO413524   8.670  30.992   9.432
  667POPC   GL113525   8.970  30.918   9.075
  667POPC   GL213526   9.036  30.596   8.886
  667POPC   C1A13527   9.082  30.966   8.582
  667POPC   D2A13528   8.985  30.681   8.246
  667POPC   C3A13529   9.169  30.770   7.859
  667POPC   C4A13530   9.033  30.997   7.534
  667POPC   C1B13531   9.039  30.289   8.582
  667POPC   C2B13532   9.202  30.213   8.204
  667POPC   C3B13533   9.109  30.261   7.791
  667POPC   C4B13534   9.123  30.458   7.379
  668POPC   NC313535  39.413   2.160   9.544
  668POPC   PO413536  38.784   1.970   9.485
  668POPC   GL113537  39.074   1.889   9.152
  668POPC   GL213538  39.349   2.094   9.058
  668POPC   C1A13539  39.135   1.664   8.766
  668POPC   D2A13540  39.148   1.874   8.400
  668POPC   C3A13541  39.212   1.710   8.016
  668POPC   C4A13542  39.110   1.994   7.704
  668POPC   C1B13543  39.535   1.992   8.703
  668POPC   C2B13544  39.641   1.893   8.291
  668POPC   C3B13545  39.425   2.175   8.057
  668POPC   C4B13546  39.507   2.336   7.684
  669POPC   NC313547   4.998  38.356   9.662
  669POPC   PO413548   5.091  37.678   9.550
  669POPC   GL113549   5.222  37.689   9.173
  669POPC   GL213550   5.193  38.085   9.147
  669POPC   C1A13551   5.297  37.442   8.782
  669POPC   D2A13552   5.239  37.627   8.335
  669POPC   C3A13553   5.254  37.775   7.951
  669POPC   C4A13554   5.042  37.469   7.737
  669POPC   C1B13555   5.060  37.894   8.748
  669POPC   C2B13556   4.803  37.536   8.550
  669POPC   C3B13557   4.757  37.647   8.106
  669POPC   C4B13558   4.800  38.046   7.874
  670POPC   NC313559   8.119  21.868   9.385
  670POPC   PO413560   8.782  22.021   9.531
  670POPC   GL113561   8.530  22.000   9.116
  670POPC   GL213562   8.274  22.288   9.129
  670POPC   C1A13563   8.434  22.181   8.684
  670POPC   D2A13564   8.105  22.078   8.369
  670POPC   C3A13565   8.269  22.168   7.963
  670POPC   C4A13566   8.375  21.980   7.567
  670POPC   C1B13567   7.936  22.398   8.808
  670POPC   C2B13568   7.713  22.421   8.412
  670POPC   C3B13569   7.787  22.383   7.973
  670POPC   C4B13570   8.029  22.618   7.714
  671POPC   NC313571  16.924  21.545   9.273
  671POPC   PO413572  16.317  21.479   9.447
  671POPC   GL113573  16.231  21.486   9.047
  671POPC   GL213574  16.561  21.369   8.951
  671POPC   C1A13575  16.286  21.622   8.619
  671POPC   D2A13576  16.603  21.658   8.291
  671POPC   C3A13577  16.642  21.295   8.015
  671POPC   C4A13578  16.635  21.063   7.605
  671POPC   C1B13579  16.615  21.181   8.522
  671POPC   C2B13580  16.860  20.893   8.213
  671POPC   C3B13581  17.071  20.830   7.792
  671POPC   C4B13582  16.971  20.749   7.336
  672POPC   NC313583  28.333  15.704   9.515
  672POPC   PO413584  28.379  16.260   9.514
  672POPC   GL113585  28.393  16.033   9.125
  672POPC   GL213586  28.694  15.779   9.168
  672POPC   C1A13587  28.217  16.002   8.717
  672POPC   D2A13588  28.328  15.820   8.326
  672POPC   C3A13589  28.169  15.911   7.908
  672POPC   C4A13590  28.364  16.109   7.551
  672POPC   C1B13591  28.509  15.587   8.809
  672POPC   C2B13592  28.602  15.380   8.428
  672POPC   C3B13593  28.440  15.464   7.987
  672POPC   C4B13594  28.475  15.595   7.560
  673POPC   NC313595  34.286  21.778   9.456
  673POPC   PO413596  34.672  21.339   9.762
  673POPC   GL113597  34.648  21.463   9.227
  673POPC   GL213598  34.956  21.385   9.114
  673POPC   C1A13599  34.645  21.527   8.740
  673POPC   D2A13600  34.469  21.368   8.345
  673POPC   C3A13601  34.489  21.597   7.981
  673POPC   C4A13602  34.721  21.465   7.693
  673POPC   C1B13603  35.080  21.179   8.766
  673POPC   C2B13604  34.884  21.053   8.423
  673POPC   C3B13605  34.940  21.176   8.041
  673POPC   C4B13606  35.121  21.136   7.652
  674POPC   NC313607  35.766   2.252   9.347
  674POPC   PO413608  35.499   1.677   9.472
  674POPC   GL113609  35.291   1.837   9.115
  674POPC   GL213610  35.060   2.114   9.109
  674POPC   C1A13611  35.468   2.065   8.772
  674POPC   D2A13612  35.651   2.226   8.417
  674POPC   C3A13613  35.460   2.054   8.075
  674POPC   C4A13614  35.500   1.928   7.658
  674POPC   C1B13615  35.024   2.333   8.754
  674POPC   C2B13616  35.177   2.403   8.359
  674POPC   C3B13617  35.008   2.305   7.972
  674POPC   C4B13618  35.169   2.308   7.560
  675POPC   NC313619  18.951  38.996   9.519
  675POPC   PO413620  19.073  39.636   9.445
  675POPC   GL113621  18.933  39.347   9.124
  675POPC   GL213622  19.195  39.068   9.101
  675POPC   C1A13623  19.028  39.318   8.691
  675POPC   D2A13624  19.389  39.412   8.485
  675POPC   C3A13625  19.259  39.420   8.119
  675POPC   C4A13626  18.968  39.448   7.812
  675POPC   C1B13627  19.422  38.959   8.768
  675POPC   C2B13628  19.245  38.935   8.343
  675POPC   C3B13629  19.198  38.955   7.901
  675POPC   C4B13630  18.899  38.995   7.570
  676POPC   NC313631   8.249  36.103   9.466
  676POPC   PO413632   8.428  36.798   9.510
  676POPC   GL113633   8.332  36.520   9.136
  676POPC   GL213634   8.587  36.294   9.110
  676POPC   C1A13635   8.138  36.202   8.793
  676POPC   D2A13636   7.897  36.058   8.402
  676POPC   C3A13637   8.050  36.137   8.015
  676POPC   C4A13638   8.308  35.858   7.831
  676POPC   C1B13639   8.650  36.376   8.697
  676POPC   C2B13640   8.428  36.289   8.341
  676POPC   C3B13641   8.503  36.345   7.929
  676POPC   C4B13642   8.512  36.432   7.531
  677POPC   NC313643  25.889  21.128   9.782
  677POPC   PO413644  26.095  21.671   9.424
  677POPC   GL113645  25.922  21.447   9.118
  677POPC   GL213646  25.764  21.146   9.256
  677POPC   C1A13647  26.116  21.454   8.721
  677POPC   D2A13648  25.995  21.250   8.359
  677POPC   C3A13649  26.167  21.472   8.023
  677POPC   C4A13650  25.994  21.626   7.648
  677POPC   C1B13651  25.937  20.994   8.834
  677POPC   C2B13652  26.032  20.750   8.459
  677POPC   C3B13653  25.893  20.815   8.055
  677POPC   C4B13654  25.781  21.190   7.818
  678POPC   NC313655  12.113   1.695   9.535
  678POPC   PO413656  12.089   2.331   9.447
  678POPC   GL113657  12.238   2.104   9.127
  678POPC   GL213658  11.956   1.929   9.096
  678POPC   C1A13659  12.263   1.935   8.688
  678POPC   D2A13660  12.388   1.907   8.221
  678POPC   C3A13661  12.299   2.260   7.924
  678POPC   C4A13662  12.236   2.487   7.539
  678POPC   C1B13663  11.743   1.772   8.727
  678POPC   C2B13664  11.881   1.863   8.329
  678POPC   C3B13665  11.857   1.997   7.926
  678POPC   C4B13666  11.817   1.711   7.559
  679POPC   NC313667  20.391   2.407   9.399
  679POPC   PO413668  20.740   1.971   9.705
  679POPC   GL113669  20.735   2.073   9.225
  679POPC   GL213670  20.400   2.008   9.087
  679POPC   C1A13671  20.792   1.876   8.812
  679POPC   D2A13672  20.422   1.777   8.567
  679POPC   C3A13673  20.629   1.767   8.179
  679POPC   C4A13674  20.631   1.859   7.755
  679POPC   C1B13675  20.471   2.275   8.734
  679POPC   C2B13676  20.421   2.222   8.323
  679POPC   C3B13677  20.177   1.940   8.094
  679POPC   C4B13678  20.245   2.206   7.822
  680POPC   NC313679   8.025  14.919   9.359
  680POPC   PO413680   8.456  15.346   9.638
  680POPC   GL113681   8.169  15.466   9.153
  680POPC   GL213682   7.852  15.428   9.074
  680POPC   C1A13683   8.209  15.316   8.675
  680POPC   D2A13684   8.546  15.148   8.394
  680POPC   C3A13685   8.441  15.041   7.971
  680POPC   C4A13686   8.518  14.684   7.703
  680POPC   C1B13687   7.712  15.270   8.634
  680POPC   C2B13688   7.916  15.194   8.221
  680POPC   C3B13689   7.774  15.216   7.809
  680POPC   C4B13690   7.742  15.362   7.369
  681POPC   NC313691  33.568  17.710   9.487
  681POPC   PO413692  34.105  17.330   9.605
  681POPC   GL113693  34.017  17.453   9.176
  681POPC   GL213694  33.736  17.609   9.032
  681POPC   C1A13695  34.036  17.311   8.745
  681POPC   D2A13696  34.091  17.108   8.371
  681POPC   C3A13697  33.943  17.393   8.078
  681POPC   C4A13698  33.760  17.293   7.691
  681POPC   C1B13699  33.665  17.846   8.679
  681POPC   C2B13700  33.619  17.811   8.251
  681POPC   C3B13701  33.597  17.743   7.831
  681POPC   C4B13702  33.814  17.906   7.470
  682POPC   NC313703  14.462  21.018   9.407
  682POPC   PO413704  14.143  21.627   9.312
  682POPC   GL113705  14.500  21.484   9.128
  682POPC   GL213706  14.288  21.203   8.971
  682POPC   C1A13707  14.727  21.366   8.759
  682POPC   D2A13708  14.610  21.141   8.397
  682POPC   C3A13709  14.650  21.318   7.995
  682POPC   C4A13710  14.411  21.147   7.699
  682POPC   C1B13711  14.232  21.542   8.679
  682POPC   C2B13712  13.995  21.572   8.348
  682POPC   C3B13713  14.161  21.519   7.964
  682POPC   C4B13714  14.301  21.621   7.570
  683POPC   NC313715  43.400  10.572   9.326
  683POPC   PO413716  42.706  10.516   9.450
  683POPC   GL113717  42.836  10.282   9.119
  683POPC   GL213718  43.149  10.123   9.153
  683POPC   C1A13719  43.036  10.507   8.780
  683POPC   D2A13720  43.019  10.760   8.413
  683POPC   C3A13721  43.314  10.698   8.081
  683POPC   C4A13722  43.059  10.794   7.680
  683POPC   C1B13723  43.358  10.104   8.759
  683POPC   C2B13724  43.261  10.248   8.355
  683POPC   C3B13725  43.452  10.185   7.974
  683POPC   C4B13726  43.462  10.488   7.653
  684POPC   NC313727  18.616  39.919   9.707
  684POPC   PO413728  19.200  40.249   9.440
  684POPC   GL113729  19.222  40.059   9.093
  684POPC   GL213730  19.463  40.258   8.966
  684POPC   C1A13731  19.268  39.786   8.784
  684POPC   D2A13732  19.000  39.792   8.416
  684POPC   C3A13733  19.181  39.927   8.038
  684POPC   C4A13734  19.409  39.692   7.720
  684POPC   C1B13735  19.140  40.264   8.619
  684POPC   C2B13736  18.878  40.348   8.280
  684POPC   C3B13737  18.838  40.292   7.860
  684POPC   C4B13738  19.155  40.120   7.557
  685POPC   NC313739  28.799  37.056   9.632
  685POPC   PO413740  29.182  36.549   9.447
  685POPC   GL113741  29.145  36.997   9.250
  685POPC   GL213742  28.795  37.137   9.133
  685POPC   C1A13743  29.209  37.182   8.830
  685POPC   D2A13744  29.243  37.079   8.409
  685POPC   C3A13745  29.466  36.748   8.225
  685POPC   C4A13746  29.410  36.915   7.858
  685POPC   C1B13747  28.874  36.769   8.886
  685POPC   C2B13748  28.987  36.628   8.479
  685POPC   C3B13749  28.961  36.793   8.054
  685POPC   C4B13750  28.933  36.874   7.606
  686POPC   NC313751  16.694  44.230   9.419
  686POPC   PO413752  16.538  43.573   9.505
  686POPC   GL113753  16.780  43.734   9.144
  686POPC   GL213754  17.033  44.008   9.114
  686POPC   C1A13755  16.569  43.676   8.741
  686POPC   D2A13756  16.661  43.702   8.317
  686POPC   C3A13757  16.373  43.630   7.939
  686POPC   C4A13758  16.720  43.672   7.698
  686POPC   C1B13759  16.755  44.174   8.786
  686POPC   C2B13760  16.584  44.256   8.387
  686POPC   C3B13761  16.572  44.093   8.003
  686POPC   C4B13762  16.463  44.119   7.602
  687POPC   NC313763  16.536  44.920   9.640
  687POPC   PO413764  17.025  44.540   9.341
  687POPC   GL113765  16.908  44.809   9.050
  687POPC   GL213766  16.608  44.745   9.143
  687POPC   C1A13767  16.891  44.679   8.634
  687POPC   D2A13768  16.961  44.832   8.259
  687POPC   C3A13769  16.824  44.552   7.984
  687POPC   C4A13770  16.668  44.594   7.577
  687POPC   C1B13771  16.414  44.580   8.766
  687POPC   C2B13772  16.428  44.739   8.342
  687POPC   C3B13773  16.321  44.527   7.969
  687POPC   C4B13774  16.147  44.514   7.589
  688POPC   NC313775  31.460  11.227   9.432
  688POPC   PO413776  31.136  10.789   9.562
  688POPC   GL113777  31.228  10.816   9.130
  688POPC   GL213778  31.587  10.743   9.103
  688POPC   C1A13779  31.292  10.739   8.682
  688POPC   D2A13780  31.360  10.421   8.376
  688POPC   C3A13781  31.581  10.542   8.020
  688POPC   C4A13782  31.515  10.535   7.590
  688POPC   C1B13783  31.724  10.441   8.743
  688POPC   C2B13784  31.855  10.237   8.321
  688POPC   C3B13785  31.817  10.117   7.851
  688POPC   C4B13786  31.860  10.207   7.389
  689POPC   NC313787  37.005  19.397   9.393
  689POPC   PO413788  36.729  18.918   9.783
  689POPC   GL113789  36.746  18.899   9.311
  689POPC   GL213790  36.590  19.185   9.183
  689POPC   C1A13791  36.733  18.786   8.870
  689POPC   D2A13792  37.027  18.966   8.575
  689POPC   C3A13793  37.026  18.996   8.140
  689POPC   C4A13794  36.952  19.017   7.713
  689POPC   C1B13795  36.740  19.358   8.807
  689POPC   C2B13796  36.731  19.346   8.392
  689POPC   C3B13797  36.826  19.478   8.000
  689POPC   C4B13798  36.657  19.513   7.619
  690POPC   NC313799  26.108  20.338   9.504
  690POPC   PO413800  26.349  20.969   9.652
  690POPC   GL113801  26.207  20.814   9.227
  690POPC   GL213802  25.860  20.644   9.182
  690POPC   C1A13803  26.270  20.525   8.849
  690POPC   D2A13804  26.207  20.284   8.419
  690POPC   C3A13805  26.302  20.462   8.016
  690POPC   C4A13806  26.209  20.727   7.669
  690POPC   C1B13807  25.736  20.471   8.763
  690POPC   C2B13808  25.687  20.376   8.319
  690POPC   C3B13809  25.785  20.336   7.865
  690POPC   C4B13810  25.801  20.496   7.424
  691POPC   NC313811  15.236  21.642   9.603
  691POPC   PO413812  14.905  21.091   9.458
  691POPC   GL113813  15.108  21.159   9.066
  691POPC   GL213814  15.223  21.484   9.124
  691POPC   C1A13815  15.134  21.107   8.597
  691POPC   D2A13816  15.066  21.389   8.288
  691POPC   C3A13817  15.225  21.281   7.908
  691POPC   C4A13818  14.946  21.033   7.682
  691POPC   C1B13819  15.191  21.605   8.738
  691POPC   C2B13820  15.367  21.793   8.404
  691POPC   C3B13821  15.107  21.841   8.055
  691POPC   C4B13822  15.041  21.676   7.669
  692POPC   NC313823  31.288   4.989   9.644
  692POPC   PO413824  31.983   5.133   9.789
  692POPC   GL113825  31.725   5.050   9.330
  692POPC   GL213826  31.406   5.086   9.168
  692POPC   C1A13827  31.779   5.013   8.841
  692POPC   D2A13828  31.730   4.788   8.429
  692POPC   C3A13829  31.740   4.966   8.016
  692POPC   C4A13830  31.553   4.955   7.655
  692POPC   C1B13831  31.130   5.248   8.876
  692POPC   C2B13832  31.243   4.998   8.519
  692POPC   C3B13833  31.229   4.943   8.086
  692POPC   C4B13834  31.220   5.334   7.874
  693POPC   NC313835  10.054  11.020   9.519
  693POPC   PO413836   9.757  10.347   9.642
  693POPC   GL113837   9.711  10.626   9.322
  693POPC   GL213838  10.035  10.580   9.203
  693POPC   C1A13839   9.569  10.643   8.907
  693POPC   D2A13840   9.718  10.687   8.491
  693POPC   C3A13841   9.542  10.665   8.079
  693POPC   C4A13842   9.755  10.419   7.787
  693POPC   C1B13843   9.987  10.917   8.873
  693POPC   C2B13844  10.048  11.112   8.466
  693POPC   C3B13845   9.982  10.925   8.094
  693POPC   C4B13846   9.865  10.940   7.704
  694POPC   NC313847   1.830  11.903   9.426
  694POPC   PO413848   2.108  12.513   9.548
  694POPC   GL113849   2.111  12.257   9.175
  694POPC   GL213850   1.744  12.283   9.093
  694POPC   C1A13851   2.166  12.019   8.784
  694POPC   D2A13852   2.127  12.135   8.341
  694POPC   C3A13853   2.081  11.862   7.979
  694POPC   C4A13854   2.061  12.057   7.581
  694POPC   C1B13855   1.668  12.059   8.718
  694POPC   C2B13856   1.675  11.874   8.332
  694POPC   C3B13857   1.664  12.115   7.959
  694POPC   C4B13858   1.553  12.222   7.574
  695POPC   NC313859   7.267  20.256   9.443
  695POPC   PO413860   7.771  20.753   9.513
  695POPC   GL113861   7.503  20.604   9.149
  695POPC   GL213862   7.268  20.889   9.012
  695POPC   C1A13863   7.215  20.462   8.781
  695POPC   D2A13864   7.134  20.819   8.473
  695POPC   C3A13865   7.293  20.754   8.059
  695POPC   C4A13866   7.347  20.427   7.766
  695POPC   C1B13867   7.669  20.947   8.789
  695POPC   C2B13868   7.685  21.067   8.350
  695POPC   C3B13869   7.722  20.993   7.894
  695POPC   C4B13870   7.555  20.842   7.550
  696POPC   NC313871   4.791  31.775   9.528
  696POPC   PO413872   5.264  32.250   9.497
  696POPC   GL113873   4.954  32.279   9.179
  696POPC   GL213874   5.022  31.954   9.084
  696POPC   C1A13875   4.983  32.325   8.723
  696POPC   D2A13876   5.021  32.468   8.309
  696POPC   C3A13877   5.223  32.269   7.974
  696POPC   C4A13878   4.839  32.250   7.839
  696POPC   C1B13879   4.907  31.809   8.674
  696POPC   C2B13880   5.061  31.841   8.246
  696POPC   C3B13881   5.084  31.797   7.801
  696POPC   C4B13882   5.438  31.842   7.531
  697POPC   NC313883  36.056  43.086   9.449
  697POPC   PO413884  36.320  42.458   9.470
  697POPC   GL113885  36.282  42.783   9.121
  697POPC   GL213886  36.420  43.116   9.120
  697POPC   C1A13887  36.072  43.008   8.780
  697POPC   D2A13888  36.191  42.951   8.396
  697POPC   C3A13889  36.140  43.166   8.043
  697POPC   C4A13890  36.290  43.029   7.658
  697POPC   C1B13891  36.533  43.346   8.777
  697POPC   C2B13892  36.433  43.460   8.354
  697POPC   C3B13893  36.623  43.328   7.963
  697POPC   C4B13894  36.698  43.268   7.534
  698POPC   NC313895  24.715  13.959   9.469
  698POPC   PO413896  25.394  13.876   9.563
  698POPC   GL113897  25.404  13.671   9.161
  698POPC   GL213898  25.109  13.498   9.114
  698POPC   C1A13899  25.418  13.600   8.704
  698POPC   D2A13900  25.326  13.869   8.346
  698POPC   C3A13901  25.211  13.735   7.913
  698POPC   C4A13902  25.496  13.526   7.577
  698POPC   C1B13903  25.111  13.198   8.805
  698POPC   C2B13904  25.078  13.317   8.397
  698POPC   C3B13905  24.951  13.251   7.997
  698POPC   C4B13906  24.963  13.426   7.584
  699POPC   NC313907   4.973  20.634   9.548
  699POPC   PO413908   5.637  20.670   9.458
  699POPC   GL113909   5.272  20.610   9.135
  699POPC   GL213910   4.887  20.758   9.074
  699POPC   C1A13911   5.109  20.389   8.765
  699POPC   D2A13912   5.162  20.166   8.388
  699POPC   C3A13913   5.265  20.366   7.988
  699POPC   C4A13914   5.368  20.732   7.708
  699POPC   C1B13915   5.143  20.906   8.735
  699POPC   C2B13916   5.269  20.786   8.318
  699POPC   C3B13917   4.961  20.763   7.997
  699POPC   C4B13918   4.867  20.466   7.664
  700POPC   NC313919  39.611   0.216   9.594
  700POPC   PO413920  39.180   0.718   9.651
  700POPC   GL113921  39.417   0.642   9.257
  700POPC   GL213922  39.325   0.302   9.166
  700POPC   C1A13923  39.421   0.600   8.790
  700POPC   D2A13924  39.277   0.329   8.429
  700POPC   C3A13925  39.239   0.537   8.030
  700POPC   C4A13926  39.461   0.560   7.666
  700POPC   C1B13927  38.972   0.254   8.835
  700POPC   C2B13928  38.849  45.000   8.436
  700POPC   C3B13929  38.907   0.088   7.986
  700POPC   C4B13930  38.894   0.201   7.559
  701POPC   NC313931  40.089  21.760   9.543
  701POPC   PO413932  39.777  22.296   9.537
  701POPC   GL113933  39.959  22.255   9.146
  701POPC   GL213934  40.193  21.988   9.106
  701POPC   C1A13935  39.964  22.285   8.703
  701POPC   D2A13936  40.077  22.092   8.283
  701POPC   C3A13937  39.780  22.171   7.950
  701POPC   C4A13938  39.738  22.357   7.537
  701POPC   C1B13939  40.389  21.991   8.731
  701POPC   C2B13940  40.537  21.906   8.355
  701POPC   C3B13941  40.531  22.186   8.024
  701POPC   C4B13942  40.230  22.316   7.756
  702POPC   NC313943  33.635  32.039   9.594
  702POPC   PO413944  34.104  32.432   9.457
  702POPC   GL113945  33.771  32.346   9.146
  702POPC   GL213946  33.567  32.029   9.100
  702POPC   C1A13947  33.895  32.235   8.750
  702POPC   D2A13948  34.113  31.922   8.488
  702POPC   C3A13949  34.130  32.103   8.055
  702POPC   C4A13950  33.903  32.195   7.677
  702POPC   C1B13951  33.545  31.883   8.706
  702POPC   C2B13952  33.653  32.047   8.323
  702POPC   C3B13953  33.655  31.845   7.944
  702POPC   C4B13954  33.495  31.881   7.523
  703POPC   NC313955  36.911  29.959   9.461
  703POPC   PO413956  37.253  29.456   9.300
  703POPC   GL113957  36.994  29.722   9.031
  703POPC   GL213958  36.618  29.788   9.079
  703POPC   C1A13959  36.940  29.965   8.664
  703POPC   D2A13960  37.246  29.978   8.331
  703POPC   C3A13961  37.186  29.765   7.946
  703POPC   C4A13962  37.044  29.958   7.562
  703POPC   C1B13963  36.382  29.924   8.738
  703POPC   C2B13964  36.469  29.951   8.314
  703POPC   C3B13965  36.686  29.859   7.924
  703POPC   C4B13966  36.533  29.850   7.480
  704POPC   NC313967  22.648  36.283   9.400
  704POPC   PO413968  23.145  35.914   9.472
  704POPC   GL113969  22.915  35.867   9.098
  704POPC   GL213970  22.555  35.946   9.017
  704POPC   C1A13971  22.983  36.078   8.698
  704POPC   D2A13972  23.252  36.099   8.364
  704POPC   C3A13973  23.117  36.181   7.974
  704POPC   C4A13974  22.891  35.954   7.659
  704POPC   C1B13975  22.556  36.358   8.749
  704POPC   C2B13976  22.779  36.430   8.346
  704POPC   C3B13977  22.607  36.217   7.992
  704POPC   C4B13978  22.531  36.303   7.547
  705POPC   NC313979   2.819  27.173   9.755
  705POPC   PO413980   2.729  26.530   9.473
  705POPC   GL113981   2.811  26.610   9.063
  705POPC   GL213982   3.010  26.889   9.167
  705POPC   C1A13983   2.853  26.559   8.601
  705POPC   D2A13984   2.869  26.491   8.155
  705POPC   C3A13985   2.698  26.803   7.933
  705POPC   C4A13986   2.825  26.949   7.551
  705POPC   C1B13987   2.837  27.063   8.773
  705POPC   C2B13988   2.933  27.069   8.327
  705POPC   C3B13989   3.014  27.236   7.912
  705POPC   C4B13990   2.934  27.461   7.519
  706POPC   NC313991  33.260  23.571   9.431
  706POPC   PO413992  32.943  24.075   9.664
  706POPC   GL113993  33.060  23.990   9.194
  706POPC   GL213994  33.066  23.681   8.985
  706POPC   C1A13995  33.324  24.062   8.797
  706POPC   D2A13996  33.283  23.850   8.373
  706POPC   C3A13997  33.074  23.895   7.957
  706POPC   C4A13998  32.848  23.718   7.622
  706POPC   C1B13999  33.304  23.403   8.731
  706POPC   C2B14000  33.133  23.295   8.344
  706POPC   C3B14001  33.242  23.401   7.950
  706POPC   C4B14002  33.319  23.544   7.575
  707POPC   NC314003   3.168   1.058   9.764
  707POPC   PO414004   3.653   1.292   9.452
  707POPC   GL114005   3.566   1.212   9.095
  707POPC   GL214006   3.386   1.508   9.067
  707POPC   C1A14007   3.816   0.988   8.798
  707POPC   D2A14008   3.898   0.930   8.392
  707POPC   C3A14009   3.669   1.205   8.165
  707POPC   C4A14010   3.678   1.185   7.758
  707POPC   C1B14011   3.471   1.385   8.621
  707POPC   C2B14012   3.152   1.234   8.332
  707POPC   C3B14013   3.168   1.192   7.883
  707POPC   C4B14014   3.331   1.552   7.666
  708POPC   NC314015  25.946  10.100   9.401
  708POPC   PO414016  26.373  10.535   9.542
  708POPC   GL114017  26.192  10.452   9.120
  708POPC   GL214018  26.350  10.663   8.940
  708POPC   C1A14019  25.892  10.390   8.732
  708POPC   D2A14020  25.771  10.218   8.325
  708POPC   C3A14021  25.903  10.396   7.922
  708POPC   C4A14022  26.195  10.161   7.675
  708POPC   C1B14023  26.381  10.318   8.604
  708POPC   C2B14024  26.361  10.339   8.146
  708POPC   C3B14025  26.335  10.670   7.854
  708POPC   C4B14026  26.396  11.106   7.882
  709POPC   NC314027  36.061  42.488   9.844
  709POPC   PO414028  36.349  41.923   9.660
  709POPC   GL114029  36.323  41.986   9.140
  709POPC   GL214030  36.138  42.288   9.039
  709POPC   C1A14031  36.180  41.947   8.678
  709POPC   D2A14032  36.345  42.200   8.344
  709POPC   C3A14033  36.237  42.218   7.947
  709POPC   C4A14034  36.513  42.473   7.717
  709POPC   C1B14035  36.110  42.498   8.699
  709POPC   C2B14036  35.908  42.476   8.323
  709POPC   C3B14037  36.028  42.672   7.939
  709POPC   C4B14038  35.918  42.741   7.499
  710POPC   NC314039  12.817  28.223   9.571
  710POPC   PO414040  12.639  27.572   9.394
  710POPC   GL114041  12.657  27.978   9.146
  710POPC   GL214042  12.984  28.156   9.089
  710POPC   C1A14043  12.564  28.264   8.791
  710POPC   D2A14044  12.778  28.450   8.413
  710POPC   C3A14045  12.729  28.384   7.937
  710POPC   C4A14046  12.842  28.668   7.566
  710POPC   C1B14047  13.179  28.184   8.656
  710POPC   C2B14048  13.225  28.314   8.207
  710POPC   C3B14049  13.265  28.485   7.795
  710POPC   C4B14050  13.172  28.300   7.408
  711POPC   NC314051  14.143  31.963   9.467
  711POPC   PO414052  14.772  32.009   9.775
  711POPC   GL114053  14.763  32.082   9.283
  711POPC   GL214054  14.453  32.239   9.170
  711POPC   C1A14055  14.795  32.211   8.812
  711POPC   D2A14056  14.621  32.017   8.410
  711POPC   C3A14057  14.541  32.174   7.988
  711POPC   C4A14058  14.184  32.429   7.782
  711POPC   C1B14059  14.204  32.228   8.759
  711POPC   C2B14060  14.094  32.248   8.299
  711POPC   C3B14061  14.085  31.956   7.939
  711POPC   C4B14062  14.114  31.978   7.478
  712POPC   NC314063  36.716  26.449   9.570
  712POPC   PO414064  36.811  27.078   9.746
  712POPC   GL114065  36.902  27.077   9.284
  712POPC   GL214066  36.906  26.733   9.179
  712POPC   C1A14067  36.931  27.072   8.783
  712POPC   D2A14068  36.820  26.881   8.337
  712POPC   C3A14069  36.995  27.068   7.933
  712POPC   C4A14070  37.312  26.867   7.647
  712POPC   C1B14071  36.926  26.562   8.745
  712POPC   C2B14072  37.108  26.416   8.363
  712POPC   C3B14073  37.030  26.549   7.950
  712POPC   C4B14074  36.935  26.493   7.518
  713POPC   NC314075   0.088   8.708   9.513
  713POPC   PO414076   0.693   9.040   9.645
  713POPC   GL114077   0.428   9.021   9.300
  713POPC   GL214078   0.564   8.732   9.090
  713POPC   C1A14079   0.389   9.164   8.878
  713POPC   D2A14080   0.468   8.905   8.519
  713POPC   C3A14081   0.435   9.115   8.156
  713POPC   C4A14082   0.296   8.968   7.796
  713POPC   C1B14083   0.786   8.551   8.699
  713POPC   C2B14084   0.814   8.501   8.221
  713POPC   C3B14085   0.692   8.614   7.775
  713POPC   C4B14086   0.763   8.751   7.311
  714POPC   NC314087  39.016  21.296   9.646
  714POPC   PO414088  39.703  21.496   9.573
  714POPC   GL114089  39.329  21.467   9.262
  714POPC   GL214090  38.948  21.502   9.199
  714POPC   C1A14091  39.240  21.303   8.841
  714POPC   D2A14092  39.490  21.409   8.506
  714POPC   C3A14093  39.346  21.423   8.079
  714POPC   C4A14094  39.407  21.504   7.659
  714POPC   C1B14095  38.804  21.574   8.790
  714POPC   C2B14096  38.968  21.435   8.414
  714POPC   C3B14097  38.800  21.325   8.037
  714POPC   C4B14098  38.893  21.326   7.679
  715POPC   NC314099  37.502  14.837   9.547
  715POPC   PO414100  37.519  14.195   9.503
  715POPC   GL114101  37.588  14.439   9.150
  715POPC   GL214102  37.823  14.674   9.176
  715POPC   C1A14103  37.528  14.309   8.720
  715POPC   D2A14104  37.678  14.137   8.337
  715POPC   C3A14105  37.457  14.193   7.932
  715POPC   C4A14106  37.418  14.041   7.488
  715POPC   C1B14107  37.939  14.578   8.790
  715POPC   C2B14108  37.794  14.629   8.392
  715POPC   C3B14109  37.882  14.479   7.981
  715POPC   C4B14110  38.089  14.730   7.719
  716POPC   NC314111  30.506  30.636   9.357
  716POPC   PO414112  30.963  31.110   9.648
  716POPC   GL114113  30.879  30.957   9.218
  716POPC   GL214114  30.572  30.948   8.965
  716POPC   C1A14115  30.984  30.720   8.825
  716POPC   D2A14116  30.829  30.967   8.459
  716POPC   C3A14117  30.820  30.774   8.049
  716POPC   C4A14118  30.927  30.500   7.667
  716POPC   C1B14119  30.513  30.588   8.646
  716POPC   C2B14120  30.535  30.382   8.218
  716POPC   C3B14121  30.439  30.534   7.795
  716POPC   C4B14122  30.143  30.804   7.581
  717POPC   NC314123   4.624  33.980   9.501
  717POPC   PO414124   5.042  33.448   9.548
  717POPC   GL114125   4.901  33.506   9.142
  717POPC   GL214126   5.224  33.677   9.126
  717POPC   C1A14127   4.992  33.559   8.688
  717POPC   D2A14128   4.727  33.579   8.333
  717POPC   C3A14129   4.664  33.959   8.126
  717POPC   C4A14130   4.904  33.922   7.768
  717POPC   C1B14131   5.154  34.025   8.860
  717POPC   C2B14132   5.071  34.116   8.419
  717POPC   C3B14133   5.301  34.130   8.023
  717POPC   C4B14134   5.447  33.707   7.865
  718POPC   NC314135  28.685   8.805   9.642
  718POPC   PO414136  29.315   9.133   9.488
  718POPC   GL114137  29.436   9.043   9.093
  718POPC   GL214138  29.425   8.708   9.043
  718POPC   C1A14139  29.292   9.015   8.659
  718POPC   D2A14140  29.127   9.062   8.283
  718POPC   C3A14141  29.405   9.149   7.943
  718POPC   C4A14142  29.342   9.169   7.500
  718POPC   C1B14143  29.330   8.490   8.679
  718POPC   C2B14144  29.152   8.511   8.284
  718POPC   C3B14145  29.099   8.721   7.919
  718POPC   C4B14146  29.036   8.750   7.516
  719POPC   NC314147   3.808  31.952   9.491
  719POPC   PO414148   3.262  32.430   9.488
  719POPC   GL114149   3.496  32.259   9.161
  719POPC   GL214150   3.314  31.919   9.177
  719POPC   C1A14151   3.588  32.471   8.745
  719POPC   D2A14152   3.506  32.495   8.287
  719POPC   C3A14153   3.721  32.118   8.070
  719POPC   C4A14154   3.669  31.945   7.663
  719POPC   C1B14155   3.202  32.105   8.763
  719POPC   C2B14156   3.259  32.035   8.321
  719POPC   C3B14157   3.246  32.161   7.877
  719POPC   C4B14158   3.051  31.931   7.551
  720POPC   NC314159  23.628  41.150   9.514
  720POPC   PO414160  23.880  41.761   9.457
  720POPC   GL114161  23.722  41.560   9.118
  720POPC   GL214162  23.944  41.254   9.141
  720POPC   C1A14163  23.623  41.785   8.711
  720POPC   D2A14164  23.788  41.996   8.319
  720POPC   C3A14165  23.745  41.687   8.031
  720POPC   C4A14166  23.549  41.566   7.698
  720POPC   C1B14167  23.683  41.172   8.800
  720POPC   C2B14168  23.667  41.350   8.416
  720POPC   C3B14169  23.699  41.158   8.034
  720POPC   C4B14170  23.486  41.055   7.662
  721POPC   NC314171  29.301  16.436   9.402
  721POPC   PO414172  29.250  15.778   9.420
  721POPC   GL114173  29.139  16.046   9.094
  721POPC   GL214174  28.841  16.292   9.149
  721POPC   C1A14175  29.239  15.893   8.699
  721POPC   D2A14176  29.432  15.974   8.309
  721POPC   C3A14177  29.271  15.747   7.961
  721POPC   C4A14178  29.248  15.667   7.508
  721POPC   C1B14179  28.748  16.052   8.736
  721POPC   C2B14180  28.843  15.854   8.334
  721POPC   C3B14181  28.762  15.849   7.900
  721POPC   C4B14182  28.864  16.016   7.516
  722POPC   NC314183   1.854  16.945   9.837
  722POPC   PO414184   2.425  16.683   9.653
  722POPC   GL114185   2.254  16.833   9.233
  722POPC   GL214186   1.889  16.881   9.216
  722POPC   C1A14187   2.145  16.736   8.789
  722POPC   D2A14188   1.905  16.445   8.527
  722POPC   C3A14189   1.904  16.588   8.105
  722POPC   C4A14190   2.246  16.795   7.929
  722POPC   C1B14191   1.699  16.990   8.795
  722POPC   C2B14192   1.883  17.023   8.379
  722POPC   C3B14193   1.657  17.107   8.032
  722POPC   C4B14194   1.800  16.888   7.697
  723POPC   NC314195  24.288  19.978   9.464
  723POPC   PO414196  24.865  19.723   9.304
  723POPC   GL114197  24.526  19.733   9.068
  723POPC   GL214198  24.364  19.459   9.163
  723POPC   C1A14199  24.597  19.721   8.656
  723POPC   D2A14200  24.766  19.982   8.320
  723POPC   C3A14201  24.526  19.872   7.957
  723POPC   C4A14202  24.459  20.155   7.607
  723POPC   C1B14203  24.147  19.454   8.770
  723POPC   C2B14204  24.309  19.446   8.353
  723POPC   C3B14205  24.109  19.579   8.001
  723POPC   C4B14206  24.251  19.532   7.640
  724POPC   NC314207   0.566  12.715   9.535
  724POPC   PO414208   0.551  13.140   9.062
  724POPC   GL114209   0.555  12.654   9.032
  724POPC   GL214210   0.212  12.508   9.196
  724POPC   C1A14211   0.717  12.348   8.701
  724POPC   D2A14212   0.777  12.378   8.251
  724POPC   C3A14213   0.672  12.754   8.048
  724POPC   C4A14214   0.477  12.892   7.683
  724POPC   C1B14215   0.206  12.423   8.753
  724POPC   C2B14216   0.283  12.655   8.378
  724POPC   C3B14217   0.145  12.607   7.946
  724POPC   C4B14218   0.105  12.586   7.509
  725POPC   NC314219  30.513   8.790   9.623
  725POPC   PO414220  31.057   8.936   9.631
  725POPC   GL114221  30.803   8.930   9.207
  725POPC   GL214222  30.428   9.014   9.165
  725POPC   C1A14223  30.727   8.870   8.739
  725POPC   D2A14224  30.688   9.037   8.304
  725POPC   C3A14225  30.751   8.932   7.859
  725POPC   C4A14226  30.767   9.222   7.497
  725POPC   C1B14227  30.259   8.692   8.873
  725POPC   C2B14228  30.270   8.440   8.502
  725POPC   C3B14229  30.193   8.468   8.070
  725POPC   C4B14230  30.279   8.704   7.711
  726POPC   NC314231  44.728  41.156   9.332
  726POPC   PO414232  44.258  41.548   9.479
  726POPC   GL114233  44.416  41.480   9.065
  726POPC   GL214234  44.768  41.625   9.099
  726POPC   C1A14235  44.546  41.194   8.699
  726POPC   D2A14236  44.728  41.286   8.279
  726POPC   C3A14237  44.503  41.451   7.929
  726POPC   C4A14238  44.459  41.191   7.574
  726POPC   C1B14239  44.743  41.649   8.655
  726POPC   C2B14240  44.945  41.761   8.271
  726POPC   C3B14241  44.923  41.717   7.833
  726POPC   C4B14242  44.721  41.847   7.473
  727POPC   NC314243   4.547  27.287   9.696
  727POPC   PO414244   5.112  27.641   9.617
  727POPC   GL114245   5.117  27.774   9.196
  727POPC   GL214246   4.801  27.669   9.190
  727POPC   C1A14247   5.318  27.637   8.795
  727POPC   D2A14248   5.396  27.272   8.504
  727POPC   C3A14249   5.314  27.382   8.045
  727POPC   C4A14250   5.109  27.257   7.656
  727POPC   C1B14251   4.829  27.532   8.781
  727POPC   C2B14252   4.984  27.607   8.381
  727POPC   C3B14253   4.826  27.568   7.970
  727POPC   C4B14254   4.596  27.373   7.663
  728POPC   NC314255  27.768  15.198   9.729
  728POPC   PO414256  28.476  15.270   9.619
  728POPC   GL114257  28.412  15.289   9.230
  728POPC   GL214258  28.066  15.235   9.287
  728POPC   C1A14259  28.586  15.090   8.891
  728POPC   D2A14260  28.457  14.854   8.543
  728POPC   C3A14261  28.419  14.987   8.125
  728POPC   C4A14262  28.457  15.049   7.662
  728POPC   C1B14263  28.092  15.137   8.860
  728POPC   C2B14264  28.098  15.386   8.510
  728POPC   C3B14265  27.942  15.433   8.101
  728POPC   C4B14266  28.030  15.332   7.691
  729POPC   NC314267  12.135   7.926   9.553
  729POPC   PO414268  11.983   8.533   9.579
  729POPC   GL114269  11.932   8.273   9.220
  729POPC   GL214270  12.268   8.279   9.105
  729POPC   C1A14271  11.924   8.043   8.819
  729POPC   D2A14272  11.780   8.159   8.412
  729POPC   C3A14273  12.025   8.105   8.047
  729POPC   C4A14274  12.107   8.432   7.761
  729POPC   C1B14275  12.302   8.351   8.631
  729POPC   C2B14276  12.408   8.493   8.189
  729POPC   C3B14277  12.611   8.454   7.780
  729POPC   C4B14278  12.441   8.286   7.380
  730POPC   NC314279  16.166  10.521   9.765
  730POPC   PO414280  15.734  10.976   9.622
  730POPC   GL114281  15.805  10.712   9.250
  730POPC   GL214282  16.142  10.613   9.142
  730POPC   C1A14283  15.699  10.670   8.804
  730POPC   D2A14284  15.948  10.697   8.436
  730POPC   C3A14285  15.726  10.554   8.089
  730POPC   C4A14286  15.714  10.421   7.676
  730POPC   C1B14287  16.077  10.315   8.759
  730POPC   C2B14288  16.084  10.227   8.295
  730POPC   C3B14289  16.181  10.341   7.851
  730POPC   C4B14290  16.039  10.106   7.438
  731POPC   NC314291  36.778  35.216   9.657
  731POPC   PO414292  37.300  34.812   9.416
  731POPC   GL114293  37.034  35.214   9.216
  731POPC   GL214294  36.657  35.343   9.189
  731POPC   C1A14295  36.933  35.404   8.784
  731POPC   D2A14296  36.903  35.283   8.350
  731POPC   C3A14297  37.010  35.506   7.938
  731POPC   C4A14298  37.059  35.613   7.472
  731POPC   C1B14299  36.468  35.116   8.839
  731POPC   C2B14300  36.565  34.890   8.399
  731POPC   C3B14301  36.681  35.073   7.954
  731POPC   C4B14302  36.827  35.144   7.497
  732POPC   NC314303  33.574  40.509   9.484
  732POPC   PO414304  33.389  41.172   9.723
  732POPC   GL114305  33.429  40.958   9.254
  732POPC   GL214306  33.742  40.931   9.073
  732POPC   C1A14307  33.443  40.645   8.815
  732POPC   D2A14308  33.783  40.527   8.503
  732POPC   C3A14309  33.728  40.611   8.071
  732POPC   C4A14310  33.659  41.005   7.899
  732POPC   C1B14311  34.012  40.938   8.716
  732POPC   C2B14312  33.997  41.141   8.292
  732POPC   C3B14313  34.172  41.066   7.891
  732POPC   C4B14314  34.001  40.776   7.594
  733POPC   NC314315  41.793   9.174   9.495
  733POPC   PO414316  41.287   9.711   9.469
  733POPC   GL114317  41.610   9.733   9.149
  733POPC   GL214318  41.743  10.078   9.116
  733POPC   C1A14319  41.673   9.476   8.761
  733POPC   D2A14320  41.382   9.363   8.416
  733POPC   C3A14321  41.577   9.355   8.038
  733POPC   C4A14322  41.914   9.606   7.874
  733POPC   C1B14323  41.559   9.995   8.701
  733POPC   C2B14324  41.639   9.832   8.284
  733POPC   C3B14325  41.770  10.142   7.990
  733POPC   C4B14326  41.606  10.320   7.607
  734POPC   NC314327  17.558  34.297   9.389
  734POPC   PO414328  17.504  33.699   9.757
  734POPC   GL114329  17.487  33.596   9.284
  734POPC   GL214330  17.514  33.892   9.103
  734POPC   C1A14331  17.610  33.488   8.822
  734POPC   D2A14332  17.836  33.600   8.454
  734POPC   C3A14333  17.678  33.512   8.027
  734POPC   C4A14334  17.539  33.557   7.627
  734POPC   C1B14335  17.382  34.059   8.702
  734POPC   C2B14336  17.532  34.012   8.270
  734POPC   C3B14337  17.432  34.057   7.820
  734POPC   C4B14338  17.163  34.273   7.488
  735POPC   NC314339  41.806   8.287   9.490
  735POPC   PO414340  41.398   8.899   9.473
  735POPC   GL114341  41.580   8.995   9.083
  735POPC   GL214342  41.927   8.841   9.153
  735POPC   C1A14343  41.486   8.915   8.683
  735POPC   D2A14344  41.500   8.629   8.356
  735POPC   C3A14345  41.399   8.826   7.974
  735POPC   C4A14346  41.439   8.716   7.541
  735POPC   C1B14347  41.988   9.052   8.770
  735POPC   C2B14348  41.848   9.055   8.357
  735POPC   C3B14349  42.068   9.136   7.985
  735POPC   C4B14350  41.798   9.113   7.661
  736POPC   NC314351   9.335  32.275   9.550
  736POPC   PO414352   9.839  32.587   9.324
  736POPC   GL114353   9.737  32.209   9.112
  736POPC   GL214354   9.428  31.975   9.169
  736POPC   C1A14355   9.993  32.157   8.726
  736POPC   D2A14356  10.019  31.834   8.397
  736POPC   C3A14357   9.941  31.997   7.998
  736POPC   C4A14358  10.136  32.318   7.789
  736POPC   C1B14359   9.374  32.178   8.745
  736POPC   C2B14360   9.593  32.155   8.364
  736POPC   C3B14361   9.411  32.039   7.983
  736POPC   C4B14362   9.258  32.207   7.616
  737POPC   NC314363  30.491  12.292   9.751
  737POPC   PO414364  31.047  12.199   9.486
  737POPC   GL114365  30.823  12.296   9.146
  737POPC   GL214366  30.497  12.381   9.251
  737POPC   C1A14367  30.868  12.391   8.709
  737POPC   D2A14368  30.856  12.137   8.302
  737POPC   C3A14369  30.840  12.289   7.856
  737POPC   C4A14370  30.710  12.024   7.507
  737POPC   C1B14371  30.427  12.144   8.856
  737POPC   C2B14372  30.317  12.018   8.430
  737POPC   C3B14373  30.397  12.066   7.964
  737POPC   C4B14374  30.361  12.359   7.623
  738POPC   NC314375  43.965  43.625   9.544
  738POPC   PO414376  43.358  43.937   9.570
  738POPC   GL114377  43.698  43.977   9.238
  738POPC   GL214378  43.996  43.944   9.076
  738POPC   C1A14379  43.674  43.816   8.733
  738POPC   D2A14380  43.960  43.705   8.410
  738POPC   C3A14381  43.709  43.717   8.042
  738POPC   C4A14382  43.611  43.886   7.663
  738POPC   C1B14383  44.258  43.996   8.760
  738POPC   C2B14384  44.383  43.979   8.370
  738POPC   C3B14385  44.179  43.913   7.995
  738POPC   C4B14386  44.071  44.105   7.600
  739POPC   NC314387  28.119  22.864   9.520
  739POPC   PO414388  28.640  23.326   9.331
  739POPC   GL114389  28.298  23.146   9.117
  739POPC   GL214390  28.430  22.809   9.098
  739POPC   C1A14391  28.266  23.100   8.679
  739POPC   D2A14392  28.144  23.231   8.300
  739POPC   C3A14393  28.474  23.228   7.981
  739POPC   C4A14394  28.264  23.089   7.617
  739POPC   C1B14395  28.053  22.684   8.869
  739POPC   C2B14396  27.976  22.658   8.435
  739POPC   C3B14397  28.180  22.793   8.038
  739POPC   C4B14398  28.237  22.595   7.650
  740POPC   NC314399   9.753  36.438   9.260
  740POPC   PO414400  10.006  35.956   9.585
  740POPC   GL114401   9.933  35.981   9.148
  740POPC   GL214402   9.580  36.019   9.017
  740POPC   C1A14403  10.035  36.168   8.728
  740POPC   D2A14404   9.813  36.347   8.372
  740POPC   C3A14405   9.947  36.245   7.944
  740POPC   C4A14406   9.825  36.124   7.522
  740POPC   C1B14407   9.293  35.660   8.820
  740POPC   C2B14408   9.208  35.604   8.395
  740POPC   C3B14409   9.490  35.692   8.048
  740POPC   C4B14410   9.523  35.692   7.582
  741POPC   NC314411  38.593   1.611   9.739
  741POPC   PO414412  38.245   1.851   9.200
  741POPC   GL114413  38.473   2.037   8.892
  741POPC   GL214414  38.196   2.254   8.848
  741POPC   C1A14415  38.659   1.840   8.569
  741POPC   D2A14416  38.794   1.521   8.294
  741POPC   C3A14417  38.738   1.864   8.021
  741POPC   C4A14418  38.596   1.869   7.615
  741POPC   C1B14419  38.118   1.862   8.559
  741POPC   C2B14420  37.928   1.892   8.165
  741POPC   C3B14421  38.121   1.967   7.762
  741POPC   C4B14422  38.162   1.826   7.326
  742POPC   NC314423   1.458   4.559   9.395
  742POPC   PO414424   1.073   3.985   9.446
  742POPC   GL114425   1.129   4.142   9.052
  742POPC   GL214426   1.480   4.123   9.071
  742POPC   C1A14427   1.058   4.132   8.598
  742POPC   D2A14428   0.729   4.131   8.290
  742POPC   C3A14429   0.915   4.264   7.906
  742POPC   C4A14430   1.041   4.315   7.484
  742POPC   C1B14431   1.451   4.427   8.730
  742POPC   C2B14432   1.340   4.440   8.270
  742POPC   C3B14433   1.438   4.350   7.826
  742POPC   C4B14434   1.565   4.574   7.425
  743POPC   NC314435  34.038   2.422   9.473
  743POPC   PO414436  33.573   2.893   9.522
  743POPC   GL114437  33.694   2.739   9.134
  743POPC   GL214438  33.673   2.396   9.096
  743POPC   C1A14439  33.501   2.671   8.726
  743POPC   D2A14440  33.756   2.560   8.365
  743POPC   C3A14441  33.797   2.879   8.067
  743POPC   C4A14442  33.595   2.833   7.674
  743POPC   C1B14443  34.020   2.475   8.796
  743POPC   C2B14444  34.203   2.257   8.420
  743POPC   C3B14445  34.108   2.321   7.970
  743POPC   C4B14446  34.114   2.697   7.720
  744POPC   NC314447   6.791   7.878   9.404
  744POPC   PO414448   6.721   8.404   9.561
  744POPC   GL114449   6.669   8.444   9.131
  744POPC   GL214450   6.444   8.177   9.120
  744POPC   C1A14451   6.751   8.281   8.695
  744POPC   D2A14452   6.867   8.438   8.279
  744POPC   C3A14453   6.859   8.196   7.898
  744POPC   C4A14454   6.627   7.835   7.750
  744POPC   C1B14455   6.264   8.469   8.803
  744POPC   C2B14456   6.368   8.505   8.345
  744POPC   C3B14457   6.377   8.389   7.887
  744POPC   C4B14458   6.441   8.223   7.450
  745POPC   NC314459  32.190  41.250   9.364
  745POPC   PO414460  32.202  40.624   9.649
  745POPC   GL114461  32.198  40.753   9.236
  745POPC   GL214462  32.524  40.893   9.199
  745POPC   C1A14463  32.101  40.776   8.804
  745POPC   D2A14464  32.117  41.062   8.463
  745POPC   C3A14465  32.241  40.891   8.098
  745POPC   C4A14466  32.096  40.737   7.721
  745POPC   C1B14467  32.498  41.121   8.799
  745POPC   C2B14468  32.586  41.354   8.422
  745POPC   C3B14469  32.647  41.217   8.034
  745POPC   C4B14470  32.510  41.022   7.683
  746POPC   NC314471  33.832  19.287   9.504
  746POPC   PO414472  34.277  18.791   9.511
  746POPC   GL114473  33.969  18.766   9.141
  746POPC   GL214474  33.695  19.039   9.072
  746POPC   C1A14475  33.905  18.791   8.674
  746POPC   D2A14476  33.646  19.071   8.431
  746POPC   C3A14477  33.595  19.002   8.011
  746POPC   C4A14478  33.886  18.920   7.687
  746POPC   C1B14479  33.572  19.409   8.796
  746POPC   C2B14480  33.795  19.583   8.395
  746POPC   C3B14481  33.900  19.402   7.956
  746POPC   C4B14482  33.577  19.321   7.612
  747POPC   NC314483  15.242  36.553   9.386
  747POPC   PO414484  14.943  37.175   9.533
  747POPC   GL114485  15.155  37.008   9.175
  747POPC   GL214486  14.912  37.174   9.026
  747POPC   C1A14487  15.287  36.992   8.724
  747POPC   D2A14488  15.365  36.679   8.395
  747POPC   C3A14489  15.237  36.810   7.984
  747POPC   C4A14490  15.423  36.991   7.689
  747POPC   C1B14491  14.759  37.023   8.653
  747POPC   C2B14492  14.848  36.801   8.291
  747POPC   C3B14493  14.698  37.117   7.997
  747POPC   C4B14494  14.803  37.431   7.694
  748POPC   NC314495  34.999  33.056   9.402
  748POPC   PO414496  35.650  33.009   9.581
  748POPC   GL114497  35.505  32.937   9.184
  748POPC   GL214498  35.293  32.690   9.239
  748POPC   C1A14499  35.305  33.027   8.793
  748POPC   D2A14500  35.425  33.244   8.436
  748POPC   C3A14501  35.305  33.070   8.051
  748POPC   C4A14502  35.406  33.299   7.710
  748POPC   C1B14503  35.058  32.574   8.827
  748POPC   C2B14504  35.150  32.707   8.422
  748POPC   C3B14505  34.864  32.745   8.117
  748POPC   C4B14506  34.930  32.672   7.730
  749POPC   NC314507   6.201  13.447   9.165
  749POPC   PO414508   6.636  13.611   9.609
  749POPC   GL114509   6.767  13.770   9.169
  749POPC   GL214510   6.754  13.431   9.130
  749POPC   C1A14511   6.671  13.832   8.733
  749POPC   D2A14512   6.401  13.739   8.382
  749POPC   C3A14513   6.437  13.939   7.978
  749POPC   C4A14514   6.457  13.706   7.570
  749POPC   C1B14515   6.966  13.412   8.763
  749POPC   C2B14516   6.872  13.480   8.352
  749POPC   C3B14517   6.792  13.541   7.921
  749POPC   C4B14518   6.910  13.517   7.483
  750POPC   NC314519  20.506   9.132   9.547
  750POPC   PO414520  20.898   8.564   9.481
  750POPC   GL114521  20.573   8.765   9.183
  750POPC   GL214522  20.551   9.161   9.047
  750POPC   C1A14523  20.602   8.751   8.728
  750POPC   D2A14524  20.857   8.830   8.363
  750POPC   C3A14525  20.808   8.961   7.932
  750POPC   C4A14526  20.740   8.926   7.447
  750POPC   C1B14527  20.793   9.398   8.716
  750POPC   C2B14528  20.737   9.344   8.285
  750POPC   C3B14529  20.394   9.243   8.021
  750POPC   C4B14530  20.616   9.356   7.701
  751POPC   NC314531   2.661  38.929   9.621
  751POPC   PO414532   3.144  39.332   9.735
  751POPC   GL114533   3.063  39.167   9.308
  751POPC   GL214534   2.750  39.287   9.204
  751POPC   C1A14535   3.087  39.191   8.837
  751POPC   D2A14536   2.918  39.075   8.422
  751POPC   C3A14537   3.070  39.235   8.018
  751POPC   C4A14538   2.955  39.202   7.588
  751POPC   C1B14539   2.618  39.375   8.758
  751POPC   C2B14540   2.684  39.540   8.333
  751POPC   C3B14541   2.570  39.290   7.972
  751POPC   C4B14542   2.427  39.358   7.567
  752POPC   NC314543  36.372   3.003   9.491
  752POPC   PO414544  36.209   2.369   9.339
  752POPC   GL114545  36.026   2.625   9.043
  752POPC   GL214546  35.931   2.969   9.129
  752POPC   C1A14547  36.209   2.658   8.650
  752POPC   D2A14548  36.114   2.447   8.294
  752POPC   C3A14549  36.296   2.570   7.913
  752POPC   C4A14550  36.273   2.626   7.459
  752POPC   C1B14551  35.868   3.048   8.671
  752POPC   C2B14552  35.987   3.020   8.199
  752POPC   C3B14553  35.872   2.821   7.797
  752POPC   C4B14554  35.815   2.958   7.364
  753POPC   NC314555  14.251  14.140   9.982
  753POPC   PO414556  14.670  14.517   9.589
  753POPC   GL114557  14.443  14.267   9.250
  753POPC   GL214558  14.216  14.523   9.110
  753POPC   C1A14559  14.292  14.062   8.814
  753POPC   D2A14560  14.450  13.846   8.405
  753POPC   C3A14561  14.730  14.074   8.053
  753POPC   C4A14562  14.631  14.205   7.587
  753POPC   C1B14563  14.564  14.486   8.801
  753POPC   C2B14564  14.492  14.360   8.402
  753POPC   C3B14565  14.484  14.521   7.991
  753POPC   C4B14566  14.887  14.590   7.783
  754POPC   NC314567  42.158   4.303   9.485
  754POPC   PO414568  42.851   4.367   9.624
  754POPC   GL114569  42.592   4.265   9.191
  754POPC   GL214570  42.273   4.420   9.001
  754POPC   C1A14571  42.493   4.040   8.776
  754POPC   D2A14572  42.325   4.249   8.385
  754POPC   C3A14573  42.576   4.398   8.013
  754POPC   C4A14574  42.275   4.115   7.846
  754POPC   C1B14575  42.470   4.634   8.666
  754POPC   C2B14576  42.353   4.794   8.259
  754POPC   C3B14577  42.248   4.715   7.807
  754POPC   C4B14578  42.274   4.730   7.326
  755POPC   NC314579   0.763   7.331   9.765
  755POPC   PO414580   0.207   7.579   9.560
  755POPC   GL114581   0.395   7.394   9.200
  755POPC   GL214582   0.771   7.369   9.207
  755POPC   C1A14583   0.475   7.503   8.789
  755POPC   D2A14584   0.305   7.713   8.452
  755POPC   C3A14585   0.470   7.539   8.098
  755POPC   C4A14586   0.513   7.479   7.694
  755POPC   C1B14587   0.831   7.143   8.782
  755POPC   C2B14588   0.651   7.067   8.365
  755POPC   C3B14589   0.746   7.116   7.941
  755POPC   C4B14590   0.978   7.299   7.594
  756POPC   NC314591  26.292  36.956   9.513
  756POPC   PO414592  25.654  36.699   9.426
  756POPC   GL114593  25.885  36.915   9.106
  756POPC   GL214594  26.237  36.858   9.029
  756POPC   C1A14595  25.864  36.879   8.661
  756POPC   D2A14596  26.132  36.561   8.482
  756POPC   C3A14597  26.190  36.597   8.048
  756POPC   C4A14598  25.964  36.708   7.699
  756POPC   C1B14599  26.311  37.130   8.727
  756POPC   C2B14600  26.161  37.136   8.331
  756POPC   C3B14601  26.170  37.122   7.926
  756POPC   C4B14602  26.468  37.288   7.748
  757POPC   NC314603  27.393  21.487   9.353
  757POPC   PO414604  27.918  21.066   9.346
  757POPC   GL114605  27.679  21.127   9.047
  757POPC   GL214606  27.349  21.005   9.114
  757POPC   C1A14607  27.815  21.244   8.661
  757POPC   D2A14608  27.611  21.229   8.280
  757POPC   C3A14609  27.548  21.581   8.028
  757POPC   C4A14610  27.648  21.587   7.583
  757POPC   C1B14611  27.303  21.323   8.749
  757POPC   C2B14612  27.122  21.381   8.360
  757POPC   C3B14613  27.165  21.105   8.001
  757POPC   C4B14614  27.339  21.198   7.605
  758POPC   NC314615  21.491  33.550   9.525
  758POPC   PO414616  21.079  34.107   9.529
  758POPC   GL114617  21.339  33.927   9.239
  758POPC   GL214618  21.093  33.715   9.136
  758POPC   C1A14619  21.527  33.700   8.875
  758POPC   D2A14620  21.429  33.780   8.463
  758POPC   C3A14621  21.613  33.621   8.088
  758POPC   C4A14622  21.416  33.846   7.795
  758POPC   C1B14623  21.086  33.477   8.734
  758POPC   C2B14624  21.179  33.374   8.281
  758POPC   C3B14625  21.022  33.529   7.870
  758POPC   C4B14626  21.095  33.651   7.409
  759POPC   NC314627   3.934  41.464   9.679
  759POPC   PO414628   4.513  41.708   9.630
  759POPC   GL114629   4.413  41.543   9.215
  759POPC   GL214630   4.048  41.502   9.179
  759POPC   C1A14631   4.457  41.449   8.757
  759POPC   D2A14632   4.312  41.605   8.361
  759POPC   C3A14633   4.418  41.400   7.966
  759POPC   C4A14634   4.471  41.507   7.539
  759POPC   C1B14635   3.952  41.331   8.784
  759POPC   C2B14636   3.743  41.374   8.389
  759POPC   C3B14637   3.906  41.546   8.019
  759POPC   C4B14638   4.008  41.355   7.643
  760POPC   NC314639  11.809  31.920   9.703
  760POPC   PO414640  11.940  32.498   9.612
  760POPC   GL114641  11.910  32.442   9.173
  760POPC   GL214642  12.243  32.481   9.002
  760POPC   C1A14643  11.800  32.504   8.770
  760POPC   D2A14644  11.922  32.313   8.394
  760POPC   C3A14645  12.097  32.555   8.090
  760POPC   C4A14646  12.039  32.393   7.676
  760POPC   C1B14647  12.116  32.089   8.818
  760POPC   C2B14648  12.151  31.855   8.422
  760POPC   C3B14649  12.197  32.028   8.021
  760POPC   C4B14650  12.275  31.875   7.634
  761POPC   NC314651   7.197  15.378   9.673
  761POPC   PO414652   7.583  14.869   9.536
  761POPC   GL114653   7.433  15.172   9.276
  761POPC   GL214654   7.577  15.017   9.046
  761POPC   C1A14655   7.165  15.269   8.910
  761POPC   D2A14656   7.217  15.102   8.484
  761POPC   C3A14657   7.308  15.401   8.161
  761POPC   C4A14658   7.303  15.349   7.693
  761POPC   C1B14659   7.525  14.787   8.731
  761POPC   C2B14660   7.655  14.778   8.340
  761POPC   C3B14661   7.405  14.906   8.020
  761POPC   C4B14662   7.535  14.765   7.652
  762POPC   NC314663   3.391  38.318   9.498
  762POPC   PO414664   3.901  38.582   9.759
  762POPC   GL114665   3.786  38.255   9.221
  762POPC   GL214666   3.437  38.124   9.064
  762POPC   C1A14667   3.689  38.421   8.748
  762POPC   D2A14668   3.736  38.650   8.378
  762POPC   C3A14669   3.639  38.487   7.957
  762POPC   C4A14670   3.950  38.647   7.753
  762POPC   C1B14671   3.214  38.236   8.744
  762POPC   C2B14672   3.351  38.315   8.341
  762POPC   C3B14673   3.129  38.305   7.950
  762POPC   C4B14674   3.350  38.229   7.562
  763POPC   NC314675  20.634  32.132   9.558
  763POPC   PO414676  20.207  32.517   9.398
  763POPC   GL114677  20.592  32.484   9.183
  763POPC   GL214678  20.470  32.156   9.095
  763POPC   C1A14679  20.786  32.371   8.787
  763POPC   D2A14680  20.570  32.181   8.448
  763POPC   C3A14681  20.775  32.357   8.087
  763POPC   C4A14682  20.756  32.158   7.719
  763POPC   C1B14683  20.261  32.440   8.768
  763POPC   C2B14684  20.134  32.535   8.360
  763POPC   C3B14685  20.288  32.299   7.998
  763POPC   C4B14686  20.250  32.114   7.624
  764POPC   NC314687   1.557  43.739   9.511
  764POPC   PO414688   0.923  43.532   9.345
  764POPC   GL114689   1.208  43.818   9.075
  764POPC   GL214690   1.545  44.022   9.106
  764POPC   C1A14691   1.311  43.929   8.631
  764POPC   D2A14692   1.192  44.122   8.196
  764POPC   C3A14693   1.226  43.866   7.787
  764POPC   C4A14694   1.435  44.018   7.401
  764POPC   C1B14695   1.637  43.589   8.889
  764POPC   C2B14696   1.650  43.513   8.464
  764POPC   C3B14697   1.603  43.796   8.105
  764POPC   C4B14698   1.626  43.602   7.656
  765POPC   NC314699  25.467  39.068   9.552
  765POPC   PO414700  24.843  39.543   9.539
  765POPC   GL114701  24.959  39.456   9.152
  765POPC   GL214702  25.212  39.192   9.129
  765POPC   C1A14703  25.135  39.523   8.748
  765POPC   D2A14704  25.166  39.209   8.440
  765POPC   C3A14705  25.046  39.308   8.065
  765POPC   C4A14706  25.104  39.522   7.693
  765POPC   C1B14707  25.545  39.178   8.807
  765POPC   C2B14708  25.581  38.933   8.384
  765POPC   C3B14709  25.523  39.150   7.964
  765POPC   C4B14710  25.518  39.308   7.502
  766POPC   NC314711   2.042  34.090   9.555
  766POPC   PO414712   2.196  33.531   9.850
  766POPC   GL114713   2.039  33.633   9.327
  766POPC   GL214714   2.330  33.806   9.085
  766POPC   C1A14715   1.893  33.761   8.876
  766POPC   D2A14716   1.883  33.618   8.479
  766POPC   C3A14717   1.909  33.876   8.118
  766POPC   C4A14718   1.939  33.568   7.806
  766POPC   C1B14719   2.334  33.818   8.627
  766POPC   C2B14720   2.339  33.596   8.221
  766POPC   C3B14721   2.417  33.767   7.796
  766POPC   C4B14722   2.531  33.616   7.326
  767POPC   NC314723   5.336  36.144   9.468
  767POPC   PO414724   4.906  36.700   9.640
  767POPC   GL114725   4.899  36.466   9.185
  767POPC   GL214726   5.140  36.207   9.022
  767POPC   C1A14727   4.909  36.493   8.702
  767POPC   D2A14728   5.106  36.158   8.411
  767POPC   C3A14729   5.030  36.237   7.947
  767POPC   C4A14730   4.933  36.161   7.470
  767POPC   C1B14731   5.220  35.818   8.792
  767POPC   C2B14732   4.909  35.688   8.503
  767POPC   C3B14733   4.753  35.848   8.137
  767POPC   C4B14734   4.911  35.747   7.751
  768POPC   NC314735  11.914  19.195   9.514
  768POPC   PO414736  12.367  18.710   9.710
  768POPC   GL114737  12.298  18.961   9.246
  768POPC   GL214738  11.974  18.974   9.078
  768POPC   C1A14739  12.298  19.231   8.812
  768POPC   D2A14740  12.182  19.043   8.405
  768POPC   C3A14741  12.335  19.164   8.052
  768POPC   C4A14742  12.223  18.911   7.700
  768POPC   C1B14743  11.812  19.021   8.717
  768POPC   C2B14744  11.720  19.281   8.360
  768POPC   C3B14745  11.829  19.162   7.965
  768POPC   C4B14746  11.737  19.069   7.556
  769POPC   NC314747   7.092  32.019   9.657
  769POPC   PO414748   7.625  32.285   9.674
  769POPC   GL114749   7.349  32.336   9.314
  769POPC   GL214750   7.206  32.034   9.153
  769POPC   C1A14751   7.341  32.427   8.863
  769POPC   D2A14752   7.286  32.376   8.418
  769POPC   C3A14753   7.603  32.466   8.111
  769POPC   C4A14754   7.480  32.420   7.669
  769POPC   C1B14755   7.028  32.042   8.738
  769POPC   C2B14756   7.077  31.913   8.311
  769POPC   C3B14757   7.146  32.142   7.956
  769POPC   C4B14758   7.243  31.992   7.560
  770POPC   NC314759  31.826  26.446   9.835
  770POPC   PO414760  31.498  25.947   9.460
  770POPC   GL114761  31.306  25.965   9.102
  770POPC   GL214762  31.250  26.324   9.154
  770POPC   C1A14763  31.545  26.019   8.720
  770POPC   D2A14764  31.696  26.130   8.286
  770POPC   C3A14765  31.559  25.916   7.930
  770POPC   C4A14766  31.471  25.794   7.526
  770POPC   C1B14767  31.091  26.264   8.766
  770POPC   C2B14768  31.173  26.072   8.394
  770POPC   C3B14769  31.201  26.286   8.045
  770POPC   C4B14770  31.103  26.086   7.714
  771POPC   NC314771   3.430   2.391   9.488
  771POPC   PO414772   3.470   3.088   9.563
  771POPC   GL114773   3.443   2.826   9.205
  771POPC   GL214774   3.725   2.651   9.148
  771POPC   C1A14775   3.367   2.761   8.768
  771POPC   D2A14776   3.183   2.957   8.426
  771POPC   C3A14777   3.379   2.811   8.049
  771POPC   C4A14778   3.613   2.927   7.662
  771POPC   C1B14779   3.795   2.380   8.774
  771POPC   C2B14780   3.728   2.455   8.364
  771POPC   C3B14781   3.864   2.280   7.978
  771POPC   C4B14782   3.982   2.467   7.624
  772POPC   NC314783  31.803  24.702   9.431
  772POPC   PO414784  31.242  24.293   9.647
  772POPC   GL114785  31.514  24.355   9.199
  772POPC   GL214786  31.482  24.747   9.046
  772POPC   C1A14787  31.529  24.376   8.720
  772POPC   D2A14788  31.218  24.367   8.379
  772POPC   C3A14789  31.429  24.428   7.991
  772POPC   C4A14790  31.658  24.610   7.664
  772POPC   C1B14791  31.244  24.851   8.647
  772POPC   C2B14792  31.380  24.872   8.231
  772POPC   C3B14793  31.250  24.877   7.788
  772POPC   C4B14794  31.351  24.875   7.321
  773POPC   NC314795  39.002  42.289   9.560
  773POPC   PO414796  39.594  41.909   9.463
  773POPC   GL114797  39.316  42.154   9.175
  773POPC   GL214798  39.151  42.450   9.095
  773POPC   C1A14799  39.124  42.043   8.775
  773POPC   D2A14800  39.263  42.107   8.378
  773POPC   C3A14801  39.009  42.195   8.039
  773POPC   C4A14802  39.157  42.019   7.652
  773POPC   C1B14803  39.063  42.537   8.690
  773POPC   C2B14804  39.196  42.631   8.299
  773POPC   C3B14805  39.018  42.758   7.933
  773POPC   C4B14806  38.800  42.671   7.558
  774POPC   NC314807   5.582   0.478   9.566
  774POPC   PO414808   6.069   0.019   9.518
  774POPC   GL114809   5.944   0.339   9.155
  774POPC   GL214810   5.619   0.471   9.079
  774POPC   C1A14811   5.915   0.509   8.693
  774POPC   D2A14812   6.155   0.601   8.326
  774POPC   C3A14813   6.086   0.365   7.957
  774POPC   C4A14814   6.162   0.367   7.548
  774POPC   C1B14815   5.562   0.137   8.795
  774POPC   C2B14816   5.711   0.182   8.368
  774POPC   C3B14817   5.644   0.553   8.108
  774POPC   C4B14818   5.650   0.365   7.698
  775POPC   NC314819  21.623  30.265   9.422
  775POPC   PO414820  21.120  29.905   9.476
  775POPC   GL114821  21.258  30.042   9.092
  775POPC   GL214822  20.966  30.218   9.016
  775POPC   C1A14823  21.460  29.847   8.706
  775POPC   D2A14824  21.382  29.581   8.346
  775POPC   C3A14825  21.629  29.605   7.974
  775POPC   C4A14826  21.473  29.472   7.551
  775POPC   C1B14827  21.203  30.282   8.635
  775POPC   C2B14828  21.341  30.096   8.212
  775POPC   C3B14829  21.315  29.934   7.781
  775POPC   C4B14830  21.172  29.883   7.379
  776POPC   NC314831  39.170  20.475  10.278
  776POPC   PO414832  39.061  20.838   9.740
  776POPC   GL114833  39.103  20.974   9.250
  776POPC   GL214834  39.466  20.975   9.158
  776POPC   C1A14835  39.082  20.800   8.802
  776POPC   D2A14836  39.048  20.464   8.458
  776POPC   C3A14837  39.216  20.572   8.025
  776POPC   C4A14838  39.236  20.989   7.823
  776POPC   C1B14839  39.576  20.934   8.695
  776POPC   C2B14840  39.550  20.945   8.222
  776POPC   C3B14841  39.718  20.754   7.797
  776POPC   C4B14842  39.805  20.673   7.304
  777POPC   NC314843  17.978  16.626   9.637
  777POPC   PO414844  18.559  16.458   9.633
  777POPC   GL114845  18.554  16.547   9.190
  777POPC   GL214846  18.198  16.549   9.135
  777POPC   C1A14847  18.550  16.758   8.782
  777POPC   D2A14848  18.275  16.795   8.442
  777POPC   C3A14849  18.316  16.683   8.039
  777POPC   C4A14850  18.019  16.426   7.871
  777POPC   C1B14851  18.005  16.899   8.863
  777POPC   C2B14852  17.843  17.069   8.429
  777POPC   C3B14853  17.849  16.909   7.964
  777POPC   C4B14854  17.695  16.684   7.557
  778POPC   NC314855  36.525  21.002   9.231
  778POPC   PO414856  37.001  21.433   9.514
  778POPC   GL114857  36.803  21.448   9.150
  778POPC   GL214858  37.035  21.158   9.098
  778POPC   C1A14859  36.680  21.687   8.787
  778POPC   D2A14860  36.375  21.758   8.463
  778POPC   C3A14861  36.601  21.717   8.067
  778POPC   C4A14862  36.636  21.416   7.726
  778POPC   C1B14863  36.992  21.286   8.685
  778POPC   C2B14864  36.894  21.316   8.257
  778POPC   C3B14865  37.103  21.314   7.899
  778POPC   C4B14866  37.508  21.157   7.821
  779POPC   NC314867  18.480   1.434   9.425
  779POPC   PO414868  18.243   0.848   9.529
  779POPC   GL114869  18.233   1.004   9.124
  779POPC   GL214870  18.585   0.983   9.128
  779POPC   C1A14871  18.135   1.240   8.734
  779POPC   D2A14872  18.069   1.281   8.271
  779POPC   C3A14873  18.260   0.966   8.020
  779POPC   C4A14874  18.216   0.968   7.578
  779POPC   C1B14875  18.636   1.145   8.695
  779POPC   C2B14876  18.604   1.416   8.318
  779POPC   C3B14877  18.555   1.350   7.877
  779POPC   C4B14878  18.510   1.346   7.418
  780POPC   NC314879   2.367  38.445   9.229
  780POPC   PO414880   2.932  38.331   9.545
  780POPC   GL114881   3.117  38.632   9.163
  780POPC   GL214882   2.815  38.784   8.986
  780POPC   C1A14883   3.242  38.731   8.686
  780POPC   D2A14884   2.924  38.558   8.370
  780POPC   C3A14885   2.834  38.767   7.982
  780POPC   C4A14886   3.147  38.721   7.657
  780POPC   C1B14887   2.510  38.612   8.642
  780POPC   C2B14888   2.419  38.522   8.213
  780POPC   C3B14889   2.509  38.390   7.803
  780POPC   C4B14890   2.271  38.468   7.446
  781POPC   NC314891   1.670  21.469   9.402
  781POPC   PO414892   1.698  22.232   9.409
  781POPC   GL114893   1.964  22.268   9.086
  781POPC   GL214894   2.060  22.602   9.068
  781POPC   C1A14895   2.181  22.044   8.747
  781POPC   D2A14896   2.008  21.903   8.375
  781POPC   C3A14897   2.145  21.945   7.967
  781POPC   C4A14898   1.833  21.885   7.680
  781POPC   C1B14899   1.899  22.489   8.644
  781POPC   C2B14900   2.056  22.398   8.221
  781POPC   C3B14901   1.868  22.371   7.804
  781POPC   C4B14902   1.756  22.265   7.350
  782POPC   NC314903  35.173   1.996   9.588
  782POPC   PO414904  34.475   2.201   9.427
  782POPC   GL114905  34.575   1.939   9.114
  782POPC   GL214906  34.788   1.708   9.249
  782POPC   C1A14907  34.582   2.027   8.715
  782POPC   D2A14908  34.640   1.819   8.367
  782POPC   C3A14909  34.549   2.049   8.041
  782POPC   C4A14910  34.355   1.960   7.674
  782POPC   C1B14911  34.933   1.648   8.805
  782POPC   C2B14912  35.138   1.840   8.440
  782POPC   C3B14913  35.024   1.792   7.999
  782POPC   C4B14914  34.860   1.920   7.640
  783POPC   NC314915  35.389   3.135   9.620
  783POPC   PO414916  35.308   2.422   9.443
  783POPC   GL114917  35.388   2.788   9.177
  783POPC   GL214918  35.126   3.041   9.188
  783POPC   C1A14919  35.411   2.699   8.736
  783POPC   D2A14920  35.606   2.725   8.343
  783POPC   C3A14921  35.465   2.549   7.939
  783POPC   C4A14922  35.657   2.424   7.533
  783POPC   C1B14923  34.941   2.917   8.806
  783POPC   C2B14924  35.087   2.944   8.386
  783POPC   C3B14925  34.938   3.101   7.990
  783POPC   C4B14926  35.023   2.762   7.716
  784POPC   NC314927   7.358  18.512   9.716
  784POPC   PO414928   7.796  18.152   9.292
  784POPC   GL114929   7.392  18.313   9.166
  784POPC   GL214930   7.443  18.577   8.949
  784POPC   C1A14931   7.176  18.173   8.791
  784POPC   D2A14932   7.259  18.346   8.376
  784POPC   C3A14933   7.107  18.254   7.982
  784POPC   C4A14934   7.490  18.360   7.730
  784POPC   C1B14935   7.084  18.674   8.719
  784POPC   C2B14936   7.071  18.837   8.325
  784POPC   C3B14937   7.477  18.833   8.103
  784POPC   C4B14938   7.517  18.966   7.668
  785POPC   NC314939   4.743   9.178   9.465
  785POPC   PO414940   4.122   8.870   9.533
  785POPC   GL114941   4.149   9.068   9.120
  785POPC   GL214942   4.404   8.859   9.054
  785POPC   C1A14943   3.976   9.374   8.794
  785POPC   D2A14944   3.754   9.293   8.390
  785POPC   C3A14945   4.013   9.068   8.063
  785POPC   C4A14946   4.432   8.972   7.847
  785POPC   C1B14947   4.220   8.659   8.682
  785POPC   C2B14948   4.271   8.615   8.236
  785POPC   C3B14949   4.659   8.530   7.970
  785POPC   C4B14950   4.920   8.827   7.691
  786POPC   NC314951   8.036  15.545   9.627
  786POPC   PO414952   8.448  16.086   9.364
  786POPC   GL114953   8.241  15.950   9.057
  786POPC   GL214954   7.891  15.905   9.242
  786POPC   C1A14955   8.310  15.816   8.662
  786POPC   D2A14956   7.988  15.670   8.375
  786POPC   C3A14957   8.130  15.619   7.945
  786POPC   C4A14958   8.287  16.016   7.796
  786POPC   C1B14959   7.802  15.937   8.804
  786POPC   C2B14960   8.024  16.212   8.525
  786POPC   C3B14961   7.978  16.310   8.103
  786POPC   C4B14962   7.767  16.153   7.735
  787POPC   NC314963   3.962  27.929   9.415
  787POPC   PO414964   4.197  27.518   9.877
  787POPC   GL114965   4.340  27.607   9.373
  787POPC   GL214966   4.146  27.543   9.116
  787POPC   C1A14967   4.446  27.855   8.890
  787POPC   D2A14968   4.474  27.731   8.434
  787POPC   C3A14969   4.599  28.008   8.109
  787POPC   C4A14970   4.474  27.862   7.692
  787POPC   C1B14971   3.992  27.727   8.707
  787POPC   C2B14972   4.008  27.446   8.356
  787POPC   C3B14973   4.192  27.508   7.956
  787POPC   C4B14974   4.094  27.541   7.533
  788POPC   NC314975   9.098  27.912   9.278
  788POPC   PO414976   8.983  27.565   9.807
  788POPC   GL114977   9.261  27.433   9.253
  788POPC   GL214978   9.379  27.645   8.994
  788POPC   C1A14979   9.086  27.327   8.763
  788POPC   D2A14980   9.161  27.409   8.301
  788POPC   C3A14981   8.840  27.475   7.993
  788POPC   C4A14982   8.937  27.687   7.608
  788POPC   C1B14983   9.520  27.615   8.618
  788POPC   C2B14984   9.395  27.900   8.320
  788POPC   C3B14985   9.409  27.796   7.911
  788POPC   C4B14986   9.305  28.024   7.546
  789POPC   NC314987  27.862  11.253   9.635
  789POPC   PO414988  27.177  11.419   9.508
  789POPC   GL114989  27.373  11.264   9.143
  789POPC   GL214990  27.669  11.406   9.147
  789POPC   C1A14991  27.552  11.081   8.778
  789POPC   D2A14992  27.500  11.279   8.404
  789POPC   C3A14993  27.771  11.200   8.069
  789POPC   C4A14994  27.615  11.120   7.677
  789POPC   C1B14995  27.524  11.644   8.806
  789POPC   C2B14996  27.600  11.798   8.393
  789POPC   C3B14997  27.452  11.650   8.024
  789POPC   C4B14998  27.669  11.621   7.667
  790POPC   NC314999  33.081  34.054   9.500
  790POPC   PO415000  32.422  33.926   9.432
  790POPC   GL115001  32.691  33.605   9.207
  790POPC   GL215002  33.058  33.538   9.247
  790POPC   C1A15003  32.880  33.781   8.817
  790POPC   D2A15004  33.096  34.070   8.533
  790POPC   C3A15005  33.075  33.965   8.106
  790POPC   C4A15006  32.852  34.178   7.828
  790POPC   C1B15007  33.335  33.538   8.876
  790POPC   C2B15008  33.193  33.542   8.456
  790POPC   C3B15009  33.079  33.447   8.047
  790POPC   C4B15010  33.163  33.673   7.638
  791POPC   NC315011  27.026  16.597   9.665
  791POPC   PO415012  26.508  16.940   9.642
  791POPC   GL115013  26.830  16.800   9.259
  791POPC   GL215014  27.194  16.817   9.229
  791POPC   C1A15015  26.856  16.443   8.942
  791POPC   D2A15016  26.983  16.334   8.498
  791POPC   C3A15017  26.898  16.515   8.052
  791POPC   C4A15018  26.556  16.779   7.853
  791POPC   C1B15019  27.168  16.798   8.771
  791POPC   C2B15020  27.292  16.912   8.354
  791POPC   C3B15021  27.006  17.031   8.025
  791POPC   C4B15022  26.991  16.946   7.590
  792POPC   NC315023  37.239   5.617   9.527
  792POPC   PO415024  37.824   5.679   9.536
  792POPC   GL115025  37.744   5.775   9.100
  792POPC   GL215026  37.361   5.745   9.046
  792POPC   C1A15027  38.003   5.738   8.718
  792POPC   D2A15028  38.166   5.710   8.307
  792POPC   C3A15029  38.095   6.047   8.061
  792POPC   C4A15030  37.789   6.027   7.749
  792POPC   C1B15031  37.492   5.832   8.629
  792POPC   C2B15032  37.602   5.880   8.207
  792POPC   C3B15033  37.364   5.778   7.826
  792POPC   C4B15034  37.236   6.090   7.498
  793POPC   NC315035  33.828  41.137   9.522
  793POPC   PO415036  33.839  41.794   9.435
  793POPC   GL115037  33.709  41.470   9.126
  793POPC   GL215038  34.046  41.334   9.071
  793POPC   C1A15039  33.758  41.408   8.663
  793POPC   D2A15040  33.827  41.653   8.305
  793POPC   C3A15041  33.809  41.500   7.898
  793POPC   C4A15042  33.406  41.405   7.735
  793POPC   C1B15043  34.289  41.382   8.651
  793POPC   C2B15044  34.314  41.557   8.216
  793POPC   C3B15045  34.315  41.544   7.772
  793POPC   C4B15046  34.133  41.669   7.386
  794POPC   NC315047  34.385  42.750   9.802
  794POPC   PO415048  34.786  42.523   9.318
  794POPC   GL115049  34.569  42.243   9.118
  794POPC   GL215050  34.790  41.968   9.198
  794POPC   C1A15051  34.371  42.364   8.723
  794POPC   D2A15052  34.432  42.463   8.291
  794POPC   C3A15053  34.180  42.447   7.956
  794POPC   C4A15054  34.286  42.523   7.521
  794POPC   C1B15055  34.926  42.121   8.790
  794POPC   C2B15056  34.901  42.391   8.461
  794POPC   C3B15057  35.011  42.406   8.018
  794POPC   C4B15058  35.082  42.068   7.739
  795POPC   NC315059   3.643  20.148   9.506
  795POPC   PO415060   3.359  19.672   9.890
  795POPC   GL115061   3.387  19.557   9.396
  795POPC   GL215062   3.327  19.863   9.234
  795POPC   C1A15063   3.411  19.513   8.892
  795POPC   D2A15064   3.719  19.647   8.549
  795POPC   C3A15065   3.634  19.656   8.090
  795POPC   C4A15066   3.665  19.794   7.663
  795POPC   C1B15067   3.509  20.019   8.867
  795POPC   C2B15068   3.379  20.002   8.461
  795POPC   C3B15069   3.439  20.155   8.081
  795POPC   C4B15070   3.326  20.165   7.707
  796POPC   NC315071  37.939  43.282   9.493
  796POPC   PO415072  37.259  43.598   9.406
  796POPC   GL115073  37.376  43.168   9.266
  796POPC   GL215074  37.684  43.170   9.083
  796POPC   C1A15075  37.321  42.886   8.893
  796POPC   D2A15076  37.408  43.106   8.487
  796POPC   C3A15077  37.675  42.988   8.134
  796POPC   C4A15078  37.439  42.972   7.752
  796POPC   C1B15079  37.975  43.401   8.827
  796POPC   C2B15080  37.891  43.405   8.404
  796POPC   C3B15081  38.087  43.450   8.011
  796POPC   C4B15082  37.953  43.316   7.619
  797POPC   NC315083   4.838  16.482   9.497
  797POPC   PO415084   5.228  16.948   9.599
  797POPC   GL115085   4.965  16.894   9.235
  797POPC   GL215086   4.792  17.174   9.102
  797POPC   C1A15087   4.869  16.722   8.828
  797POPC   D2A15088   5.069  16.829   8.441
  797POPC   C3A15089   4.852  16.899   8.063
  797POPC   C4A15090   5.075  16.660   7.804
  797POPC   C1B15091   5.211  17.157   8.870
  797POPC   C2B15092   5.316  17.280   8.445
  797POPC   C3B15093   5.328  17.099   8.032
  797POPC   C4B15094   5.094  17.124   7.626
  798POPC   NC315095   8.500  26.417   9.612
  798POPC   PO415096   8.038  25.932   9.422
  798POPC   GL115097   8.177  25.991   9.055
  798POPC   GL215098   8.416  26.228   9.147
  798POPC   C1A15099   8.016  26.171   8.682
  798POPC   D2A15100   8.184  26.391   8.325
  798POPC   C3A15101   8.129  26.269   7.884
  798POPC   C4A15102   8.221  26.616   7.678
  798POPC   C1B15103   8.516  26.168   8.715
  798POPC   C2B15104   8.366  25.927   8.380
  798POPC   C3B15105   8.487  25.917   7.961
  798POPC   C4B15106   8.373  25.843   7.539
  799POPC   NC315107  36.559  21.785   9.509
  799POPC   PO415108  35.943  22.191   9.444
  799POPC   GL115109  36.174  22.246   9.094
  799POPC   GL215110  36.311  21.920   9.051
  799POPC   C1A15111  36.046  22.380   8.685
  799POPC   D2A15112  36.194  22.312   8.243
  799POPC   C3A15113  35.962  22.121   7.927
  799POPC   C4A15114  35.871  21.736   7.723
  799POPC   C1B15115  36.527  22.189   8.728
  799POPC   C2B15116  36.692  22.165   8.326
  799POPC   C3B15117  36.588  22.211   7.891
  799POPC   C4B15118  36.272  22.459   7.671
  800POPC   NC315119   5.603  41.948   9.505
  800POPC   PO415120   5.708  42.675   9.552
  800POPC   GL115121   5.748  42.450   9.189
  800POPC   GL215122   5.968  42.696   9.053
  800POPC   C1A15123   5.731  42.180   8.822
  800POPC   D2A15124   5.735  42.217   8.364
  800POPC   C3A15125   6.083  42.137   8.046
  800POPC   C4A15126   5.988  42.080   7.572
  800POPC   C1B15127   5.801  42.656   8.657
  800POPC   C2B15128   5.970  42.664   8.245
  800POPC   C3B15129   5.880  42.550   7.811
  800POPC   C4B15130   5.526  42.520   7.541
  801POPC   NC315131  21.580  42.679   9.616
  801POPC   PO415132  21.144  42.246   9.492
  801POPC   GL115133  21.308  42.317   9.103
  801POPC   GL215134  21.679  42.414   9.149
  801POPC   C1A15135  21.143  42.212   8.684
  801POPC   D2A15136  21.023  42.415   8.287
  801POPC   C3A15137  21.098  42.233   7.893
  801POPC   C4A15138  21.339  42.116   7.527
  801POPC   C1B15139  21.641  42.337   8.699
  801POPC   C2B15140  21.521  42.154   8.294
  801POPC   C3B15141  21.603  42.331   7.893
  801POPC   C4B15142  21.827  42.312   7.481
  802POPC   NC315143  30.654  14.371   9.596
  802POPC   PO415144  30.939  14.952   9.457
  802POPC   GL115145  30.686  14.628   9.161
  802POPC   GL215146  30.791  14.237   9.148
  802POPC   C1A15147  30.544  14.467   8.748
  802POPC   D2A15148  30.718  14.590   8.374
  802POPC   C3A15149  30.602  14.504   7.994
  802POPC   C4A15150  30.688  14.744   7.654
  802POPC   C1B15151  30.926  14.092   8.787
  802POPC   C2B15152  30.762  14.045   8.388
  802POPC   C3B15153  30.936  14.113   7.991
  802POPC   C4B15154  30.817  14.246   7.574
  803POPC   NC315155  16.245  12.864   9.431
  803POPC   PO415156  15.757  12.541   9.695
  803POPC   GL115157  15.762  12.822   9.226
  803POPC   GL215158  16.065  12.848   8.966
  803POPC   C1A15159  15.660  13.085   8.791
  803POPC   D2A15160  15.745  13.165   8.344
  803POPC   C3A15161  15.898  12.775   8.151
  803POPC   C4A15162  15.699  12.680   7.758
  803POPC   C1B15163  16.166  13.176   8.677
  803POPC   C2B15164  16.465  13.347   8.431
  803POPC   C3B15165  16.278  13.263   8.058
  803POPC   C4B15166  16.060  13.042   7.750
  804POPC   NC315167  44.971  22.579   9.256
  804POPC   PO415168  44.980  21.971   9.523
  804POPC   GL115169  44.936  22.077   9.128
  804POPC   GL215170  44.618  22.190   9.186
  804POPC   C1A15171  44.856  21.985   8.716
  804POPC   D2A15172  44.621  21.858   8.362
  804POPC   C3A15173  44.734  21.906   7.947
  804POPC   C4A15174  44.565  22.160   7.619
  804POPC   C1B15175  44.291  22.336   8.945
  804POPC   C2B15176  44.413  22.298   8.529
  804POPC   C3B15177  44.380  22.258   8.098
  804POPC   C4B15178  44.115  22.413   7.778
  805POPC   NC315179  17.240   0.275   9.574
  805POPC   PO415180  17.730   0.652   9.483
  805POPC   GL115181  17.476   0.482   9.138
  805POPC   GL215182  17.227   0.222   9.076
  805POPC   C1A15183  17.312   0.614   8.715
  805POPC   D2A15184  17.380   0.755   8.280
  805POPC   C3A15185  17.152   0.917   7.935
  805POPC   C4A15186  17.416   0.662   7.722
  805POPC   C1B15187  17.022   0.192   8.693
  805POPC   C2B15188  17.199   0.272   8.319
  805POPC   C3B15189  17.131   0.288   7.911
  805POPC   C4B15190  17.255   0.246   7.480
  806POPC   NC315191   0.637  29.320   9.393
  806POPC   PO415192   0.270  28.735   9.524
  806POPC   GL115193   0.230  28.999   9.131
  806POPC   GL215194   0.285  29.360   8.998
  806POPC   C1A15195   0.489  28.997   8.746
  806POPC   D2A15196   0.578  29.181   8.347
  806POPC   C3A15197   0.460  28.925   8.003
  806POPC   C4A15198   0.711  28.610   7.842
  806POPC   C1B15199   0.646  29.530   8.766
  806POPC   C2B15200   0.802  29.658   8.372
  806POPC   C3B15201   0.712  29.543   7.966
  806POPC   C4B15202   0.907  29.213   7.781
  807POPC   NC315203  20.427  10.828   9.412
  807POPC   PO415204  20.939  10.516   9.556
  807POPC   GL115205  20.713  10.492   9.169
  807POPC   GL215206  20.557  10.198   9.084
  807POPC   C1A15207  20.566  10.676   8.766
  807POPC   D2A15208  20.346  10.640   8.343
  807POPC   C3A15209  20.569  10.721   7.956
  807POPC   C4A15210  20.496  10.954   7.578
  807POPC   C1B15211  20.269  10.270   8.744
  807POPC   C2B15212  20.347  10.115   8.356
  807POPC   C3B15213  20.289  10.288   7.975
  807POPC   C4B15214  20.638  10.225   7.743
  808POPC   NC315215  38.739   4.168   9.411
  808POPC   PO415216  39.343   4.385   9.377
  808POPC   GL115217  39.095   4.331   9.072
  808POPC   GL215218  39.137   3.961   9.086
  808POPC   C1A15219  39.226   4.579   8.742
  808POPC   D2A15220  39.423   4.522   8.356
  808POPC   C3A15221  39.164   4.585   7.999
  808POPC   C4A15222  39.423   4.686   7.656
  808POPC   C1B15223  39.428   4.108   8.750
  808POPC   C2B15224  39.531   4.005   8.338
  808POPC   C3B15225  39.396   4.125   7.944
  808POPC   C4B15226  38.965   4.098   7.805
  809POPC   NC315227  26.496  13.134   9.419
  809POPC   PO415228  27.015  12.904   9.790
  809POPC   GL115229  26.879  12.785   9.245
  809POPC   GL215230  26.563  12.774   9.047
  809POPC   C1A15231  26.961  12.907   8.767
  809POPC   D2A15232  26.990  13.161   8.375
  809POPC   C3A15233  26.922  12.944   7.981
  809POPC   C4A15234  26.683  12.888   7.627
  809POPC   C1B15235  26.490  12.769   8.609
  809POPC   C2B15236  26.486  13.074   8.299
  809POPC   C3B15237  26.325  13.093   7.913
  809POPC   C4B15238  26.209  12.734   7.659
  810POPC   NC315239  16.615   4.454   9.806
  810POPC   PO415240  16.814   3.939   9.739
  810POPC   GL115241  16.736   4.190   9.329
  810POPC   GL215242  16.821   3.993   9.037
  810POPC   C1A15243  16.630   4.455   8.910
  810POPC   D2A15244  16.615   4.608   8.425
  810POPC   C3A15245  16.708   4.394   8.023
  810POPC   C4A15246  16.723   4.499   7.551
  810POPC   C1B15247  16.916   4.181   8.596
  810POPC   C2B15248  17.099   4.102   8.186
  810POPC   C3B15249  17.089   4.167   7.729
  810POPC   C4B15250  17.106   3.824   7.402
  811POPC   NC315251  39.669  29.227   9.483
  811POPC   PO415252  40.285  29.120   9.266
  811POPC   GL115253  39.954  29.319   9.029
  811POPC   GL215254  39.761  29.024   9.022
  811POPC   C1A15255  39.824  29.318   8.602
  811POPC   D2A15256  39.966  29.165   8.176
  811POPC   C3A15257  39.831  29.372   7.775
  811POPC   C4A15258  39.946  29.472   7.342
  811POPC   C1B15259  39.976  28.709   8.743
  811POPC   C2B15260  39.978  28.667   8.282
  811POPC   C3B15261  40.044  28.761   7.842
  811POPC   C4B15262  40.010  28.591   7.422
  812POPC   NC315263   8.283  43.656   9.426
  812POPC   PO415264   7.916  44.104   9.149
  812POPC   GL115265   8.035  43.643   8.979
  812POPC   GL215266   8.419  43.588   8.943
  812POPC   C1A15267   8.131  43.396   8.576
  812POPC   D2A15268   8.348  43.464   8.171
  812POPC   C3A15269   8.107  43.680   7.833
  812POPC   C4A15270   8.015  43.934   7.416
  812POPC   C1B15271   8.376  43.946   8.675
  812POPC   C2B15272   8.298  44.193   8.287
  812POPC   C3B15273   8.275  44.170   7.829
  812POPC   C4B15274   8.499  43.868   7.544
  813POPC   NC315275  12.526   2.514   9.411
  813POPC   PO415276  13.085   2.874   9.587
  813POPC   GL115277  12.834   2.877   9.206
  813POPC   GL215278  12.929   2.571   9.090
  813POPC   C1A15279  12.662   2.875   8.759
  813POPC   D2A15280  12.886   2.832   8.364
  813POPC   C3A15281  12.763   2.954   7.943
  813POPC   C4A15282  12.947   3.049   7.503
  813POPC   C1B15283  12.810   2.413   8.693
  813POPC   C2B15284  12.598   2.396   8.337
  813POPC   C3B15285  12.768   2.445   7.950
  813POPC   C4B15286  12.756   2.568   7.523
  814POPC   NC315287  31.380  33.474   9.515
  814POPC   PO415288  31.629  34.054   9.709
  814POPC   GL115289  31.616  33.832   9.251
  814POPC   GL215290  31.305  33.792   9.092
  814POPC   C1A15291  31.657  33.900   8.754
  814POPC   D2A15292  31.413  33.918   8.357
  814POPC   C3A15293  31.521  33.983   7.921
  814POPC   C4A15294  31.573  33.710   7.580
  814POPC   C1B15295  31.399  33.451   8.818
  814POPC   C2B15296  31.180  33.460   8.442
  814POPC   C3B15297  31.338  33.466   8.045
  814POPC   C4B15298  31.177  33.368   7.661
  815POPC   NC315299   5.078  21.686   9.482
  815POPC   PO415300   4.705  21.096   9.499
  815POPC   GL115301   4.988  21.280   9.168
  815POPC   GL215302   4.825  21.584   9.057
  815POPC   C1A15303   5.195  21.406   8.748
  815POPC   D2A15304   5.027  21.259   8.335
  815POPC   C3A15305   5.239  21.181   7.932
  815POPC   C4A15306   5.178  21.409   7.520
  815POPC   C1B15307   4.672  21.271   8.740
  815POPC   C2B15308   4.512  21.224   8.299
  815POPC   C3B15309   4.728  21.225   7.895
  815POPC   C4B15310   4.906  20.973   7.542
  816POPC   NC315311  23.029  44.982   9.324
  816POPC   PO415312  22.928  44.413   9.663
  816POPC   GL115313  22.896  44.512   9.216
  816POPC   GL215314  22.917  44.200   9.125
  816POPC   C1A15315  23.004  44.680   8.771
  816POPC   D2A15316  23.038  44.499   8.358
  816POPC   C3A15317  22.959  44.755   7.980
  816POPC   C4A15318  23.212  44.869   7.605
  816POPC   C1B15319  22.710  44.282   8.744
  816POPC   C2B15320  22.714  44.090   8.349
  816POPC   C3B15321  22.808  44.264   7.959
  816POPC   C4B15322  23.093  44.358   7.647
  817POPC   NC315323  13.974   1.108   9.445
  817POPC   PO415324  13.477   1.395   9.248
  817POPC   GL115325  13.827   1.288   8.994
  817POPC   GL215326  13.825   0.880   9.023
  817POPC   C1A15327  13.665   1.502   8.613
  817POPC   D2A15328  13.447   1.383   8.289
  817POPC   C3A15329  13.614   1.532   7.918
  817POPC   C4A15330  13.517   1.331   7.543
  817POPC   C1B15331  13.655   1.000   8.626
  817POPC   C2B15332  13.893   1.151   8.270
  817POPC   C3B15333  13.654   1.030   7.948
  817POPC   C4B15334  13.346   0.833   7.719
  818POPC   NC315335  15.522  11.397   9.747
  818POPC   PO415336  14.952  11.141   9.422
  818POPC   GL115337  15.091  11.281   9.046
  818POPC   GL215338  15.204  11.608   9.073
  818POPC   C1A15339  14.889  11.408   8.653
  818POPC   D2A15340  14.930  11.476   8.188
  818POPC   C3A15341  15.198  11.315   7.880
  818POPC   C4A15342  15.003  11.116   7.529
  818POPC   C1B15343  15.372  11.585   8.709
  818POPC   C2B15344  15.453  11.524   8.309
  818POPC   C3B15345  15.719  11.746   8.026
  818POPC   C4B15346  15.529  11.696   7.643
  819POPC   NC315347  10.188  25.811   9.267
  819POPC   PO415348   9.670  26.194   9.339
  819POPC   GL115349   9.740  26.283   8.958
  819POPC   GL215350   9.408  26.361   8.884
  819POPC   C1A15351   9.814  26.111   8.543
  819POPC   D2A15352  10.019  25.787   8.257
  819POPC   C3A15353   9.907  25.939   7.865
  819POPC   C4A15354   9.734  26.343   7.799
  819POPC   C1B15355   9.307  25.944   8.784
  819POPC   C2B15356   9.404  25.804   8.411
  819POPC   C3B15357   9.425  26.023   8.059
  819POPC   C4B15358   9.422  25.737   7.738
  820POPC   NC315359   0.118  20.815   9.514
  820POPC   PO415360   0.100  20.199   9.371
  820POPC   GL115361  44.872  20.513   9.093
  820POPC   GL215362  44.466  20.523   9.102
  820POPC   C1A15363  44.780  20.563   8.642
  820POPC   D2A15364  44.531  20.544   8.252
  820POPC   C3A15365  44.791  20.397   7.894
  820POPC   C4A15366  44.636  20.218   7.500
  820POPC   C1B15367  44.432  20.886   8.812
  820POPC   C2B15368  44.536  21.035   8.416
  820POPC   C3B15369  44.395  20.974   7.995
  820POPC   C4B15370  44.410  20.648   7.695
  821POPC   NC315371  10.498   0.673   9.593
  821POPC   PO415372  10.456  44.973   9.639
  821POPC   GL115373  10.404   0.043   9.207
  821POPC   GL215374  10.403   0.405   9.164
  821POPC   C1A15375  10.451   0.103   8.754
  821POPC   D2A15376  10.786   0.323   8.530
  821POPC   C3A15377  10.728   0.360   8.091
  821POPC   C4A15378  10.963   0.345   7.730
  821POPC   C1B15379  10.483   0.647   8.772
  821POPC   C2B15380  10.314   0.519   8.395
  821POPC   C3B15381  10.268   0.648   8.002
  821POPC   C4B15382  10.519   0.626   7.669
  822POPC   NC315383   0.990   6.924   9.368
  822POPC   PO415384   1.275   6.332   9.420
  822POPC   GL115385   1.324   6.625   9.123
  822POPC   GL215386   1.472   6.970   9.203
  822POPC   C1A15387   1.078   6.545   8.757
  822POPC   D2A15388   1.042   6.347   8.370
  822POPC   C3A15389   0.944   6.665   8.100
  822POPC   C4A15390   0.797   6.669   7.707
  822POPC   C1B15391   1.340   6.989   8.764
  822POPC   C2B15392   1.194   7.185   8.407
  822POPC   C3B15393   1.256   7.170   8.002
  822POPC   C4B15394   1.293   6.863   7.712
  823POPC   NC315395  21.699  39.901   9.508
  823POPC   PO415396  21.049  40.234   9.437
  823POPC   GL115397  21.384  40.095   9.134
  823POPC   GL215398  21.754  40.235   9.127
  823POPC   C1A15399  21.233  40.026   8.717
  823POPC   D2A15400  21.105  40.140   8.320
  823POPC   C3A15401  21.168  39.870   8.005
  823POPC   C4A15402  21.070  39.967   7.632
  823POPC   C1B15403  21.766  39.992   8.759
  823POPC   C2B15404  21.583  39.888   8.374
  823POPC   C3B15405  21.654  39.961   7.976
  823POPC   C4B15406  21.561  39.765   7.624
  824POPC   NC315407  23.857  27.227   9.434
  824POPC   PO415408  23.264  27.522   9.281
  824POPC   GL115409  23.667  27.633   9.161
  824POPC   GL215410  23.738  27.994   9.262
  824POPC   C1A15411  23.891  27.436   8.782
  824POPC   D2A15412  23.818  27.254   8.375
  824POPC   C3A15413  23.923  27.465   8.048
  824POPC   C4A15414  23.729  27.502   7.688
  824POPC   C1B15415  23.873  27.942   8.834
  824POPC   C2B15416  23.769  27.839   8.404
  824POPC   C3B15417  23.788  27.945   7.962
  824POPC   C4B15418  24.119  27.790   7.700
  825POPC   NC315419   8.357  31.053   9.750
  825POPC   PO415420   7.941  30.611   9.564
  825POPC   GL115421   8.233  30.732   9.229
  825POPC   GL215422   8.578  30.572   9.174
  825POPC   C1A15423   8.149  30.560   8.833
  825POPC   D2A15424   7.865  30.618   8.496
  825POPC   C3A15425   8.075  30.559   8.126
  825POPC   C4A15426   8.104  30.752   7.762
  825POPC   C1B15427   8.595  30.778   8.778
  825POPC   C2B15428   8.490  30.608   8.411
  825POPC   C3B15429   8.539  30.746   8.008
  825POPC   C4B15430   8.714  30.567   7.669
  826POPC   NC315431  25.118  34.873   9.467
  826POPC   PO415432  24.954  34.259   9.594
  826POPC   GL115433  24.945  34.502   9.177
  826POPC   GL215434  25.273  34.638   9.042
  826POPC   C1A15435  24.852  34.699   8.762
  826POPC   D2A15436  24.902  34.502   8.347
  826POPC   C3A15437  25.175  34.658   8.040
  826POPC   C4A15438  25.202  34.621   7.601
  826POPC   C1B15439  25.370  34.704   8.576
  826POPC   C2B15440  25.550  34.932   8.211
  826POPC   C3B15441  25.658  34.616   7.885
  826POPC   C4B15442  25.694  34.318   7.521
  827POPC   NC315443  34.552  19.160   9.546
  827POPC   PO415444  34.753  19.723   9.333
  827POPC   GL115445  34.735  19.268   9.094
  827POPC   GL215446  34.367  19.100   9.085
  827POPC   C1A15447  34.783  18.964   8.767
  827POPC   D2A15448  34.957  18.998   8.352
  827POPC   C3A15449  34.818  18.773   7.966
  827POPC   C4A15450  34.855  18.804   7.512
  827POPC   C1B15451  34.068  19.266   8.803
  827POPC   C2B15452  34.146  19.218   8.378
  827POPC   C3B15453  34.428  19.442   8.101
  827POPC   C4B15454  34.575  19.215   7.740
  828POPC   NC315455   1.742   7.224   9.596
  828POPC   PO415456   1.888   7.821   9.472
  828POPC   GL115457   2.007   7.508   9.146
  828POPC   GL215458   1.944   7.165   9.136
  828POPC   C1A15459   2.134   7.374   8.713
  828POPC   D2A15460   2.370   7.161   8.378
  828POPC   C3A15461   2.181   7.224   7.949
  828POPC   C4A15462   2.096   7.442   7.535
  828POPC   C1B15463   1.856   6.965   8.746
  828POPC   C2B15464   1.717   7.140   8.389
  828POPC   C3B15465   1.727   7.002   7.992
  828POPC   C4B15466   1.673   7.222   7.652
  829POPC   NC315467   8.804  13.184   9.448
  829POPC   PO415468   9.392  13.524   9.668
  829POPC   GL115469   9.220  13.471   9.241
  829POPC   GL215470   9.245  13.795   9.040
  829POPC   C1A15471   9.091  13.329   8.826
  829POPC   D2A15472   9.150  13.580   8.448
  829POPC   C3A15473   9.074  13.441   8.014
  829POPC   C4A15474   8.838  13.684   7.687
  829POPC   C1B15475   8.843  13.795   8.826
  829POPC   C2B15476   8.752  13.964   8.456
  829POPC   C3B15477   8.980  13.947   8.096
  829POPC   C4B15478   9.245  14.006   7.743
  830POPC   NC315479  43.670  40.464   9.745
  830POPC   PO415480  44.241  40.844   9.400
  830POPC   GL115481  44.092  40.715   9.032
  830POPC   GL215482  43.785  40.908   9.003
  830POPC   C1A15483  44.111  40.944   8.647
  830POPC   D2A15484  43.925  40.966   8.289
  830POPC   C3A15485  43.943  40.739   7.996
  830POPC   C4A15486  43.910  40.932   7.678
  830POPC   C1B15487  43.541  40.886   8.617
  830POPC   C2B15488  43.482  40.671   8.235
  830POPC   C3B15489  43.469  40.690   7.788
  830POPC   C4B15490  43.742  40.511   7.455
  831POPC   NC315491  18.565  10.959   9.429
  831POPC   PO415492  18.120  11.536   9.529
  831POPC   GL115493  18.025  11.316   9.127
  831POPC   GL215494  18.307  11.098   9.009
  831POPC   C1A15495  17.939  11.167   8.702
  831POPC   D2A15496  18.217  11.154   8.370
  831POPC   C3A15497  18.109  11.494   8.146
  831POPC   C4A15498  18.026  11.783   7.807
  831POPC   C1B15499  18.654  11.044   8.659
  831POPC   C2B15500  18.741  11.186   8.226
  831POPC   C3B15501  18.431  11.236   7.873
  831POPC   C4B15502  18.412  11.115   7.457
  832POPC   NC315503  13.247  14.417   9.582
  832POPC   PO415504  12.608  14.195   9.463
  832POPC   GL115505  12.970  14.243   9.185
  832POPC   GL215506  12.980  14.613   9.176
  832POPC   C1A15507  12.991  14.188   8.751
  832POPC   D2A15508  12.626  14.187   8.511
  832POPC   C3A15509  12.715  14.216   8.093
  832POPC   C4A15510  13.128  14.324   7.893
  832POPC   C1B15511  12.766  14.664   8.784
  832POPC   C2B15512  12.934  14.622   8.376
  832POPC   C3B15513  12.774  14.750   7.996
  832POPC   C4B15514  12.701  14.480   7.666
  833POPC   NC315515   4.676  13.313   9.457
  833POPC   PO415516   4.298  13.891   9.468
  833POPC   GL115517   4.366  13.615   9.137
  833POPC   GL215518   4.115  13.401   8.997
  833POPC   C1A15519   4.406  13.735   8.717
  833POPC   D2A15520   4.528  13.899   8.337
  833POPC   C3A15521   4.513  13.679   7.976
  833POPC   C4A15522   4.512  13.824   7.578
  833POPC   C1B15523   4.134  13.323   8.605
  833POPC   C2B15524   4.095  13.596   8.276
  833POPC   C3B15525   4.045  13.489   7.865
  833POPC   C4B15526   4.132  13.519   7.415
  834POPC   NC315527  20.641  30.526   9.344
  834POPC   PO415528  20.134  31.020   9.509
  834POPC   GL115529  20.366  30.931   9.127
  834POPC   GL215530  20.331  30.571   8.961
  834POPC   C1A15531  20.591  30.963   8.725
  834POPC   D2A15532  20.412  30.871   8.321
  834POPC   C3A15533  20.580  30.662   7.956
  834POPC   C4A15534  21.000  30.643   7.763
  834POPC   C1B15535  20.676  30.446   8.654
  834POPC   C2B15536  20.909  30.397   8.243
  834POPC   C3B15537  20.877  30.166   7.853
  834POPC   C4B15538  20.818  30.238   7.420
  835POPC   NC315539  36.340  40.306   9.460
  835POPC   PO415540  35.796  39.919   9.545
  835POPC   GL115541  36.067  40.031   9.140
  835POPC   GL215542  36.399  39.839   9.166
  835POPC   C1A15543  36.005  40.189   8.716
  835POPC   D2A15544  36.222  40.335   8.363
  835POPC   C3A15545  36.047  40.231   7.971
  835POPC   C4A15546  36.296  40.254   7.583
  835POPC   C1B15547  36.259  39.751   8.736
  835POPC   C2B15548  36.104  39.816   8.322
  835POPC   C3B15549  36.227  39.754   7.902
  835POPC   C4B15550  35.823  39.616   7.651
  836POPC   NC315551  28.177  40.922   9.765
  836POPC   PO415552  28.735  40.774   9.492
  836POPC   GL115553  28.497  40.887   9.164
  836POPC   GL215554  28.166  40.773   9.274
  836POPC   C1A15555  28.588  40.678   8.790
  836POPC   D2A15556  28.854  40.656   8.419
  836POPC   C3A15557  28.596  40.780   8.073
  836POPC   C4A15558  28.525  40.870   7.666
  836POPC   C1B15559  28.067  40.794   8.860
  836POPC   C2B15560  28.219  40.728   8.464
  836POPC   C3B15561  28.111  40.588   8.116
  836POPC   C4B15562  28.034  40.777   7.736
  837POPC   NC315563  16.691  23.337   9.440
  837POPC   PO415564  16.931  23.920   9.483
  837POPC   GL115565  16.851  23.664   9.096
  837POPC   GL215566  16.467  23.595   9.074
  837POPC   C1A15567  16.786  23.327   8.767
  837POPC   D2A15568  16.629  23.308   8.362
  837POPC   C3A15569  16.854  23.615   8.122
  837POPC   C4A15570  16.809  23.691   7.692
  837POPC   C1B15571  16.253  23.437   8.710
  837POPC   C2B15572  16.199  23.573   8.258
  837POPC   C3B15573  16.324  23.757   7.853
  837POPC   C4B15574  16.531  24.141   7.616
  838POPC   NC315575  41.762   7.592   9.377
  838POPC   PO415576  41.253   7.142   9.551
  838POPC   GL115577  41.319   7.307   9.132
  838POPC   GL215578  41.251   7.659   9.033
  838POPC   C1A15579  41.288   7.174   8.702
  838POPC   D2A15580  41.549   7.190   8.326
  838POPC   C3A15581  41.406   7.101   7.897
  838POPC   C4A15582  41.336   7.351   7.520
  838POPC   C1B15583  41.591   7.587   8.755
  838POPC   C2B15584  41.677   7.695   8.322
  838POPC   C3B15585  41.573   7.584   7.942
  838POPC   C4B15586  41.791   7.558   7.565
  839POPC   NC315587   1.253  40.559   9.572
  839POPC   PO415588   0.607  40.663   9.540
  839POPC   GL115589   0.949  40.726   9.166
  839POPC   GL215590   1.367  40.739   9.135
  839POPC   C1A15591   1.089  40.876   8.737
  839POPC   D2A15592   1.174  41.076   8.343
  839POPC   C3A15593   1.187  40.938   7.951
  839POPC   C4A15594   0.856  40.710   7.800
  839POPC   C1B15595   1.591  40.481   8.873
  839POPC   C2B15596   1.451  40.590   8.473
  839POPC   C3B15597   1.142  40.483   8.200
  839POPC   C4B15598   1.360  40.495   7.824
  840POPC   NC315599   8.266  17.929   9.463
  840POPC   PO415600   7.836  18.423   9.750
  840POPC   GL115601   8.223  18.423   9.283
  840POPC   GL215602   8.212  18.128   9.000
  840POPC   C1A15603   8.499  18.513   8.882
  840POPC   D2A15604   8.427  18.243   8.485
  840POPC   C3A15605   8.464  18.431   8.058
  840POPC   C4A15606   8.439  18.263   7.622
  840POPC   C1B15607   8.011  18.480   8.728
  840POPC   C2B15608   7.951  18.516   8.285
  840POPC   C3B15609   7.997  18.218   7.909
  840POPC   C4B15610   7.951  18.332   7.463
  841POPC   NC315611  32.656  14.718   9.354
  841POPC   PO415612  32.103  14.418   9.572
  841POPC   GL115613  32.158  14.584   9.173
  841POPC   GL215614  32.433  14.367   9.047
  841POPC   C1A15615  31.990  14.485   8.759
  841POPC   D2A15616  31.932  14.182   8.400
  841POPC   C3A15617  32.152  14.197   7.999
  841POPC   C4A15618  31.950  14.473   7.702
  841POPC   C1B15619  32.487  14.707   8.736
  841POPC   C2B15620  32.758  14.874   8.419
  841POPC   C3B15621  32.623  14.873   7.969
  841POPC   C4B15622  32.482  14.619   7.593
  842POPC   NC315623  44.874   3.722   9.575
  842POPC   PO415624  44.278   3.832   9.299
  842POPC   GL115625  44.682   3.733   9.111
  842POPC   GL215626  44.879   3.415   9.150
  842POPC   C1A15627  44.738   3.666   8.716
  842POPC   D2A15628  44.546   3.798   8.376
  842POPC   C3A15629  44.809   3.773   8.047
  842POPC   C4A15630  44.542   3.768   7.684
  842POPC   C1B15631  44.992   3.210   8.736
  842POPC   C2B15632  44.799   3.310   8.356
  842POPC   C3B15633  44.494   3.376   8.030
  842POPC   C4B15634  44.725   3.290   7.671
  843POPC   NC315635  39.941   6.555   9.699
  843POPC   PO415636  39.669   7.096   9.476
  843POPC   GL115637  40.002   6.804   9.252
  843POPC   GL215638  39.812   6.523   9.161
  843POPC   C1A15639  40.189   6.616   8.850
  843POPC   D2A15640  40.084   6.811   8.447
  843POPC   C3A15641  39.978   6.566   8.076
  843POPC   C4A15642  40.160   6.590   7.672
  843POPC   C1B15643  39.680   6.793   8.823
  843POPC   C2B15644  39.581   6.677   8.415
  843POPC   C3B15645  39.564   6.857   8.031
  843POPC   C4B15646  39.831   6.954   7.771
  844POPC   NC315647  36.153  41.113   9.495
  844POPC   PO415648  35.957  40.504   9.300
  844POPC   GL115649  35.986  40.848   9.054
  844POPC   GL215650  36.289  41.034   9.030
  844POPC   C1A15651  35.976  40.710   8.649
  844POPC   D2A15652  35.742  40.524   8.338
  844POPC   C3A15653  35.941  40.729   8.052
  844POPC   C4A15654  35.841  40.968   7.718
  844POPC   C1B15655  36.199  41.167   8.624
  844POPC   C2B15656  36.345  40.891   8.300
  844POPC   C3B15657  36.365  40.874   7.831
  844POPC   C4B15658  36.423  40.697   7.388
  845POPC   NC315659  14.707  41.702   9.226
  845POPC   PO415660  14.379  41.326   9.670
  845POPC   GL115661  14.299  41.376   9.210
  845POPC   GL215662  14.219  41.724   9.048
  845POPC   C1A15663  14.400  41.267   8.771
  845POPC   D2A15664  14.602  40.960   8.494
  845POPC   C3A15665  14.654  41.205   8.137
  845POPC   C4A15666  14.383  41.476   7.868
  845POPC   C1B15667  14.432  42.005   8.725
  845POPC   C2B15668  14.677  41.997   8.339
  845POPC   C3B15669  14.651  41.901   7.904
  845POPC   C4B15670  14.576  41.761   7.461
  846POPC   NC315671   1.401  18.066   9.558
  846POPC   PO415672   2.131  18.208   9.567
  846POPC   GL115673   2.014  18.504   9.237
  846POPC   GL215674   1.655  18.455   9.220
  846POPC   C1A15675   2.167  18.658   8.854
  846POPC   D2A15676   2.066  18.424   8.508
  846POPC   C3A15677   2.145  18.548   8.097
  846POPC   C4A15678   2.041  18.335   7.715
  846POPC   C1B15679   1.829  18.098   8.988
  846POPC   C2B15680   1.901  17.938   8.579
  846POPC   C3B15681   1.979  18.060   8.163
  846POPC   C4B15682   2.180  17.839   7.844
  847POPC   NC315683  10.675  27.220   9.444
  847POPC   PO415684  10.447  27.863   9.375
  847POPC   GL115685  10.572  27.603   9.084
  847POPC   GL215686  10.324  27.344   9.083
  847POPC   C1A15687  10.628  27.707   8.663
  847POPC   D2A15688  10.374  27.620   8.337
  847POPC   C3A15689  10.478  27.799   7.954
  847POPC   C4A15690  10.623  28.027   7.645
  847POPC   C1B15691  10.543  27.184   8.769
  847POPC   C2B15692  10.736  27.213   8.371
  847POPC   C3B15693  10.541  27.281   7.993
  847POPC   C4B15694  10.462  27.394   7.591
  848POPC   NC315695  36.953  36.463   9.464
  848POPC   PO415696  36.889  35.712   9.563
  848POPC   GL115697  36.826  35.983   9.159
  848POPC   GL215698  36.793  36.350   8.977
  848POPC   C1A15699  36.814  35.928   8.715
  848POPC   D2A15700  36.601  36.299   8.468
  848POPC   C3A15701  36.608  36.266   8.014
  848POPC   C4A15702  36.806  35.951   7.766
  848POPC   C1B15703  37.087  36.337   8.617
  848POPC   C2B15704  37.199  35.978   8.357
  848POPC   C3B15705  37.280  35.995   7.937
  848POPC   C4B15706  37.093  36.377   7.825
  849POPC   NC315707   5.664  29.489   9.486
  849POPC   PO415708   5.988  28.989   9.562
  849POPC   GL115709   6.071  29.099   9.152
  849POPC   GL215710   5.771  29.186   9.084
  849POPC   C1A15711   6.008  28.867   8.754
  849POPC   D2A15712   6.236  28.838   8.372
  849POPC   C3A15713   5.993  28.922   8.001
  849POPC   C4A15714   5.656  28.725   7.787
  849POPC   C1B15715   5.911  29.371   8.717
  849POPC   C2B15716   5.938  29.260   8.384
  849POPC   C3B15717   5.759  29.408   8.070
  849POPC   C4B15718   5.889  29.301   7.658
  850POPC   NC315719  30.910  20.221   9.511
  850POPC   PO415720  30.428  20.709   9.470
  850POPC   GL115721  30.379  20.574   9.059
  850POPC   GL215722  30.713  20.461   9.096
  850POPC   C1A15723  30.426  20.606   8.607
  850POPC   D2A15724  30.385  20.673   8.126
  850POPC   C3A15725  30.395  20.440   7.745
  850POPC   C4A15726  30.662  20.560   7.395
  850POPC   C1B15727  30.956  20.444   8.728
  850POPC   C2B15728  30.851  20.498   8.313
  850POPC   C3B15729  30.875  20.551   7.900
  850POPC   C4B15730  31.126  20.425   7.582
  851POPC   NC315731  19.224   9.666   9.360
  851POPC   PO415732  19.556  10.271   9.467
  851POPC   GL115733  19.446  10.061   9.109
  851POPC   GL215734  19.089  10.073   9.089
  851POPC   C1A15735  19.393   9.922   8.677
  851POPC   D2A15736  19.421  10.142   8.299
  851POPC   C3A15737  19.240  10.017   7.926
  851POPC   C4A15738  19.199   9.574   7.810
  851POPC   C1B15739  18.886   9.946   8.719
  851POPC   C2B15740  18.972   9.782   8.300
  851POPC   C3B15741  18.763   9.803   7.888
  851POPC   C4B15742  18.815   9.772   7.457
  852POPC   NC315743  23.536  21.269   9.507
  852POPC   PO415744  24.078  21.188   9.234
  852POPC   GL115745  23.780  21.493   9.104
  852POPC   GL215746  23.378  21.540   9.108
  852POPC   C1A15747  23.679  21.585   8.711
  852POPC   D2A15748  23.799  21.697   8.356
  852POPC   C3A15749  23.677  21.432   8.067
  852POPC   C4A15750  23.773  21.437   7.666
  852POPC   C1B15751  23.217  21.351   8.735
  852POPC   C2B15752  23.238  21.247   8.278
  852POPC   C3B15753  23.306  21.139   7.824
  852POPC   C4B15754  23.467  21.159   7.373
  853POPC   NC315755  44.818  39.661   9.475
  853POPC   PO415756  44.347  39.195   9.637
  853POPC   GL115757  44.421  39.376   9.252
  853POPC   GL215758  44.737  39.241   9.161
  853POPC   C1A15759  44.392  39.284   8.816
  853POPC   D2A15760  44.633  39.251   8.433
  853POPC   C3A15761  44.429  39.218   8.028
  853POPC   C4A15762  44.481  39.208   7.579
  853POPC   C1B15763  44.992  39.198   8.807
  853POPC   C2B15764   0.156  39.419   8.457
  853POPC   C3B15765  44.932  39.419   8.052
  853POPC   C4B15766  44.967  39.341   7.610
  854POPC   NC315767  32.463   4.017  10.042
  854POPC   PO415768  33.002   3.699   9.678
  854POPC   GL115769  33.045   3.617   9.270
  854POPC   GL215770  33.371   3.737   9.255
  854POPC   C1A15771  32.850   3.543   8.855
  854POPC   D2A15772  32.633   3.748   8.519
  854POPC   C3A15773  32.638   3.554   8.100
  854POPC   C4A15774  32.859   3.698   7.740
  854POPC   C1B15775  33.375   3.594   8.854
  854POPC   C2B15776  33.199   3.698   8.490
  854POPC   C3B15777  33.198   3.612   8.089
  854POPC   C4B15778  33.373   3.821   7.720
  855POPC   NC315779   5.166  19.661   9.410
  855POPC   PO415780   5.115  20.208   9.708
  855POPC   GL115781   5.181  20.104   9.196
  855POPC   GL215782   4.875  19.886   9.047
  855POPC   C1A15783   5.303  19.862   8.790
  855POPC   D2A15784   5.280  19.632   8.373
  855POPC   C3A15785   5.143  19.869   7.988
  855POPC   C4A15786   5.071  19.991   7.582
  855POPC   C1B15787   4.828  19.816   8.583
  855POPC   C2B15788   4.662  19.728   8.154
  855POPC   C3B15789   4.668  19.689   7.698
  855POPC   C4B15790   4.856  19.658   7.262
  856POPC   NC315791  31.963  32.144   9.470
  856POPC   PO415792  32.418  32.721   9.523
  856POPC   GL115793  32.280  32.485   9.176
  856POPC   GL215794  31.913  32.525   9.084
  856POPC   C1A15795  32.410  32.282   8.797
  856POPC   D2A15796  32.216  32.346   8.429
  856POPC   C3A15797  32.380  32.077   8.117
  856POPC   C4A15798  32.545  32.154   7.716
  856POPC   C1B15799  31.923  32.143   8.818
  856POPC   C2B15800  31.772  32.086   8.373
  856POPC   C3B15801  31.933  32.324   8.007
  856POPC   C4B15802  32.043  32.121   7.634
  857POPC   NC315803   3.732   5.771   9.539
  857POPC   PO415804   3.302   5.321   9.470
  857POPC   GL115805   3.336   5.558   9.073
  857POPC   GL215806   3.600   5.783   9.046
  857POPC   C1A15807   3.410   5.494   8.622
  857POPC   D2A15808   3.280   5.780   8.287
  857POPC   C3A15809   3.433   5.818   7.904
  857POPC   C4A15810   3.348   6.175   7.682
  857POPC   C1B15811   3.436   5.989   8.722
  857POPC   C2B15812   3.673   6.140   8.407
  857POPC   C3B15813   3.727   6.225   8.021
  857POPC   C4B15814   3.845   6.016   7.663
  858POPC   NC315815  29.351  39.857   9.397
  858POPC   PO415816  28.962  40.296   9.376
  858POPC   GL115817  29.127  40.111   9.005
  858POPC   GL215818  29.180  39.717   8.946
  858POPC   C1A15819  29.024  40.030   8.582
  858POPC   D2A15820  29.238  39.690   8.356
  858POPC   C3A15821  29.403  39.926   8.049
  858POPC   C4A15822  29.138  40.132   7.765
  858POPC   C1B15823  28.861  39.521   8.674
  858POPC   C2B15824  28.697  39.758   8.293
  858POPC   C3B15825  28.912  39.689   7.923
  858POPC   C4B15826  29.267  39.655   7.644
  859POPC   NC315827  39.926  38.576   9.408
  859POPC   PO415828  39.626  38.266   8.982
  859POPC   GL115829  40.060  38.238   8.901
  859POPC   GL215830  40.275  38.460   9.046
  859POPC   C1A15831  40.260  38.363   8.508
  859POPC   D2A15832  40.220  38.272   8.077
  859POPC   C3A15833  39.816  38.457   7.893
  859POPC   C4A15834  39.603  38.499   7.470
  859POPC   C1B15835  40.104  38.798   8.775
  859POPC   C2B15836  40.045  38.830   8.328
  859POPC   C3B15837  40.233  38.751   7.945
  859POPC   C4B15838  40.370  38.862   7.570
  860POPC   NC315839   5.439  13.152   9.562
  860POPC   PO415840   5.049  13.688   9.449
  860POPC   GL115841   4.860  13.722   9.062
  860POPC   GL215842   5.078  13.434   9.007
  860POPC   C1A15843   4.901  13.669   8.601
  860POPC   D2A15844   5.062  13.435   8.227
  860POPC   C3A15845   4.954  13.503   7.795
  860POPC   C4A15846   4.962  13.724   7.387
  860POPC   C1B15847   5.354  13.439   8.636
  860POPC   C2B15848   5.547  13.267   8.241
  860POPC   C3B15849   5.352  13.111   7.820
  860POPC   C4B15850   5.145  13.246   7.396
  861POPC   NC315851  41.351  30.841   9.462
  861POPC   PO415852  41.456  30.208   9.643
  861POPC   GL115853  41.565  30.458   9.220
  861POPC   GL215854  41.279  30.619   9.012
  861POPC   C1A15855  41.789  30.636   8.848
  861POPC   D2A15856  41.908  30.568   8.386
  861POPC   C3A15857  41.638  30.697   8.051
  861POPC   C4A15858  41.496  31.047   7.854
  861POPC   C1B15859  41.367  30.851   8.612
  861POPC   C2B15860  41.163  30.869   8.210
  861POPC   C3B15861  41.147  30.532   7.936
  861POPC   C4B15862  41.375  30.230   7.654
  862POPC   NC315863   1.879  24.352   9.454
  862POPC   PO415864   2.192  25.001   9.436
  862POPC   GL115865   2.047  24.724   9.116
  862POPC   GL215866   2.217  24.398   9.078
  862POPC   C1A15867   1.939  24.596   8.711
  862POPC   D2A15868   1.741  24.620   8.336
  862POPC   C3A15869   1.957  24.398   8.051
  862POPC   C4A15870   2.104  24.465   7.653
  862POPC   C1B15871   2.220  24.162   8.679
  862POPC   C2B15872   2.386  24.183   8.261
  862POPC   C3B15873   2.238  24.008   7.850
  862POPC   C4B15874   2.392  24.101   7.428
  863POPC   NC315875   3.887   3.280   9.494
  863POPC   PO415876   3.446   3.748   9.825
  863POPC   GL115877   3.418   3.545   9.363
  863POPC   GL215878   3.720   3.649   9.179
  863POPC   C1A15879   3.462   3.271   8.944
  863POPC   D2A15880   3.448   3.397   8.524
  863POPC   C3A15881   3.395   3.316   8.080
  863POPC   C4A15882   3.277   3.655   7.782
  863POPC   C1B15883   3.923   3.487   8.790
  863POPC   C2B15884   3.868   3.632   8.359
  863POPC   C3B15885   3.814   3.580   7.929
  863POPC   C4B15886   3.910   3.314   7.620
  864POPC   NC315887  37.954   8.136   9.276
  864POPC   PO415888  37.633   8.684   9.689
  864POPC   GL115889  37.520   8.389   9.263
  864POPC   GL215890  37.488   8.027   9.105
  864POPC   C1A15891  37.507   8.390   8.763
  864POPC   D2A15892  37.425   8.119   8.335
  864POPC   C3A15893  37.609   8.300   7.954
  864POPC   C4A15894  37.898   8.609   8.028
  864POPC   C1B15895  37.751   7.946   8.692
  864POPC   C2B15896  37.942   8.088   8.295
  864POPC   C3B15897  38.083   8.098   7.857
  864POPC   C4B15898  38.069   7.883   7.436
  865POPC   NC315899   2.798  35.609   9.485
  865POPC   PO415900   2.727  35.008   9.583
  865POPC   GL115901   2.808  35.205   9.185
  865POPC   GL215902   2.474  35.355   9.097
  865POPC   C1A15903   2.895  35.452   8.817
  865POPC   D2A15904   2.724  35.199   8.518
  865POPC   C3A15905   2.464  35.260   8.157
  865POPC   C4A15906   2.695  35.336   7.791
  865POPC   C1B15907   2.418  35.596   8.702
  865POPC   C2B15908   2.658  35.725   8.297
  865POPC   C3B15909   2.626  35.866   7.835
  865POPC   C4B15910   2.537  35.639   7.433
  866POPC   NC315911  16.465  22.772   9.516
  866POPC   PO415912  17.054  23.060   9.530
  866POPC   GL115913  16.820  22.948   9.130
  866POPC   GL215914  16.472  23.064   9.058
  866POPC   C1A15915  16.788  22.641   8.779
  866POPC   D2A15916  16.626  22.532   8.349
  866POPC   C3A15917  16.656  22.786   7.964
  866POPC   C4A15918  16.653  23.232   7.847
  866POPC   C1B15919  16.406  22.932   8.646
  866POPC   C2B15920  16.207  22.832   8.262
  866POPC   C3B15921  16.210  23.020   7.869
  866POPC   C4B15922  16.435  22.883   7.464
  867POPC   NC315923  28.162  19.655   9.446
  867POPC   PO415924  28.840  20.067   9.508
  867POPC   GL115925  28.645  19.907   9.187
  867POPC   GL215926  28.405  20.156   9.144
  867POPC   C1A15927  28.510  19.784   8.790
  867POPC   D2A15928  28.236  19.841   8.455
  867POPC   C3A15929  28.445  19.774   8.100
  867POPC   C4A15930  28.275  19.769   7.715
  867POPC   C1B15931  28.230  20.257   8.759
  867POPC   C2B15932  28.185  20.358   8.346
  867POPC   C3B15933  28.059  20.141   7.985
  867POPC   C4B15934  28.170  20.254   7.549
  868POPC   NC315935  26.984  13.725   9.458
  868POPC   PO415936  27.176  13.159   9.346
  868POPC   GL115937  26.866  13.298   9.110
  868POPC   GL215938  26.981  13.572   8.989
  868POPC   C1A15939  26.637  13.324   8.729
  868POPC   D2A15940  26.651  13.589   8.373
  868POPC   C3A15941  26.751  13.431   7.993
  868POPC   C4A15942  26.523  13.473   7.646
  868POPC   C1B15943  27.250  13.763   8.725
  868POPC   C2B15944  27.194  13.627   8.318
  868POPC   C3B15945  27.153  13.744   7.914
  868POPC   C4B15946  26.920  13.759   7.563
  869POPC   NC315947  43.411   3.280   9.569
  869POPC   PO415948  42.932   2.751   9.463
  869POPC   GL115949  42.883   2.955   9.099
  869POPC   GL215950  42.537   3.024   9.098
  869POPC   C1A15951  43.073   2.826   8.725
  869POPC   D2A15952  43.164   2.955   8.331
  869POPC   C3A15953  43.071   2.789   7.950
  869POPC   C4A15954  43.077   2.946   7.526
  869POPC   C1B15955  42.581   2.629   8.840
  869POPC   C2B15956  42.813   2.452   8.483
  869POPC   C3B15957  42.668   2.495   8.069
  869POPC   C4B15958  42.712   2.611   7.644
  870POPC   NC315959  25.153  15.411   9.560
  870POPC   PO415960  25.477  14.864   9.437
  870POPC   GL115961  25.296  15.176   9.115
  870POPC   GL215962  25.402  15.521   9.139
  870POPC   C1A15963  25.087  15.413   8.738
  870POPC   D2A15964  24.975  15.617   8.325
  870POPC   C3A15965  25.093  15.378   7.978
  870POPC   C4A15966  25.412  15.114   7.851
  870POPC   C1B15967  25.649  15.597   8.794
  870POPC   C2B15968  25.492  15.581   8.383
  870POPC   C3B15969  25.563  15.617   7.952
  870POPC   C4B15970  25.266  15.702   7.622
  871POPC   NC315971  30.158  21.659   9.356
  871POPC   PO415972  30.015  22.224   9.671
  871POPC   GL115973  29.961  22.229   9.216
  871POPC   GL215974  29.644  22.392   9.122
  871POPC   C1A15975  29.960  22.002   8.824
  871POPC   D2A15976  29.853  22.112   8.410
  871POPC   C3A15977  30.134  22.032   8.101
  871POPC   C4A15978  30.127  21.816   7.715
  871POPC   C1B15979  29.823  22.492   8.728
  871POPC   C2B15980  29.681  22.623   8.329
  871POPC   C3B15981  29.549  22.500   7.934
  871POPC   C4B15982  29.856  22.285   7.671
  872POPC   NC315983  14.624  20.061   9.362
  872POPC   PO415984  14.022  19.704   9.516
  872POPC   GL115985  14.219  19.834   9.139
  872POPC   GL215986  14.525  19.607   9.119
  872POPC   C1A15987  14.390  19.966   8.745
  872POPC   D2A15988  14.349  19.709   8.350
  872POPC   C3A15989  14.300  19.929   7.952
  872POPC   C4A15990  14.201  20.264   7.768
  872POPC   C1B15991  14.824  19.700   8.769
  872POPC   C2B15992  15.010  19.758   8.392
  872POPC   C3B15993  14.778  19.797   8.069
  872POPC   C4B15994  14.755  19.870   7.653
  873POPC   NC315995  20.829  28.297   9.617
  873POPC   PO415996  20.268  28.602   9.658
  873POPC   GL115997  20.492  28.498   9.257
  873POPC   GL215998  20.830  28.621   9.191
  873POPC   C1A15999  20.652  28.215   8.924
  873POPC   D2A16000  20.847  28.206   8.520
  873POPC   C3A16001  20.716  27.900   8.200
  873POPC   C4A16002  20.582  28.017   7.778
  873POPC   C1B16003  20.665  28.686   8.747
  873POPC   C2B16004  20.602  28.640   8.289
  873POPC   C3B16005  20.655  28.532   7.836
  873POPC   C4B16006  20.719  28.736   7.419
  874POPC   NC316007  43.323   8.421   9.455
  874POPC   PO416008  42.886   7.914   9.464
  874POPC   GL116009  43.107   8.069   9.123
  874POPC   GL216010  42.935   8.391   9.125
  874POPC   C1A16011  43.281   8.266   8.740
  874POPC   D2A16012  43.454   8.511   8.376
  874POPC   C3A16013  43.305   8.356   7.974
  874POPC   C4A16014  43.104   7.946   7.920
  874POPC   C1B16015  42.771   8.302   8.737
  874POPC   C2B16016  42.948   8.234   8.320
  874POPC   C3B16017  42.784   8.382   7.888
  874POPC   C4B16018  42.759   8.520   7.438
  875POPC   NC316019  32.099  27.791   9.284
  875POPC   PO416020  31.478  27.663   9.508
  875POPC   GL116021  31.466  27.886   9.141
  875POPC   GL216022  31.693  27.616   9.013
  875POPC   C1A16023  31.320  27.836   8.736
  875POPC   D2A16024  31.538  27.557   8.469
  875POPC   C3A16025  31.469  27.688   8.054
  875POPC   C4A16026  31.285  28.036   7.868
  875POPC   C1B16027  31.837  27.917   8.716
  875POPC   C2B16028  32.014  27.815   8.341
  875POPC   C3B16029  31.920  27.429   8.157
  875POPC   C4B16030  31.741  27.368   7.777
  876POPC   NC316031  40.512  10.542   9.562
  876POPC   PO416032  41.099  10.350   9.576
  876POPC   GL116033  40.912  10.540   9.208
  876POPC   GL216034  40.698  10.315   9.096
  876POPC   C1A16035  40.879  10.666   8.759
  876POPC   D2A16036  40.879  10.825   8.340
  876POPC   C3A16037  40.824  10.555   7.998
  876POPC   C4A16038  40.767  10.807   7.648
  876POPC   C1B16039  40.521  10.255   8.698
  876POPC   C2B16040  40.469  10.041   8.297
  876POPC   C3B16041  40.347  10.143   7.877
  876POPC   C4B16042  40.644  10.344   7.554
  877POPC   NC316043   4.480  26.721   9.483
  877POPC   PO416044   4.032  27.161   9.439
  877POPC   GL116045   4.277  27.027   9.114
  877POPC   GL216046   4.571  27.199   9.163
  877POPC   C1A16047   4.310  26.830   8.694
  877POPC   D2A16048   4.057  26.875   8.305
  877POPC   C3A16049   4.179  26.504   8.043
  877POPC   C4A16050   4.531  26.474   7.779
  877POPC   C1B16051   4.374  27.327   8.722
  877POPC   C2B16052   4.472  27.209   8.271
  877POPC   C3B16053   4.319  26.997   7.857
  877POPC   C4B16054   4.300  27.090   7.359
  878POPC   NC316055   5.798  43.160   9.636
  878POPC   PO416056   6.390  42.972   9.458
  878POPC   GL116057   6.125  43.178   9.135
  878POPC   GL216058   5.754  43.333   9.172
  878POPC   C1A16059   6.120  43.036   8.669
  878POPC   D2A16060   5.827  43.153   8.331
  878POPC   C3A16061   5.900  43.051   7.873
  878POPC   C4A16062   6.226  42.866   7.561
  878POPC   C1B16063   5.581  43.106   8.819
  878POPC   C2B16064   5.326  43.179   8.449
  878POPC   C3B16065   5.450  43.435   8.098
  878POPC   C4B16066   5.574  43.404   7.680
  879POPC   NC316067  32.577  33.180   9.534
  879POPC   PO416068  31.885  33.322   9.511
  879POPC   GL116069  32.112  33.062   9.157
  879POPC   GL216070  32.455  33.124   9.065
  879POPC   C1A16071  32.145  33.130   8.681
  879POPC   D2A16072  32.145  32.877   8.328
  879POPC   C3A16073  32.232  33.108   7.951
  879POPC   C4A16074  32.399  33.279   7.542
  879POPC   C1B16075  32.494  32.784   8.791
  879POPC   C2B16076  32.620  32.667   8.381
  879POPC   C3B16077  32.416  32.587   7.995
  879POPC   C4B16078  32.375  32.631   7.569
  880POPC   NC316079  38.479  25.707   9.497
  880POPC   PO416080  38.043  26.147   9.835
  880POPC   GL116081  38.170  26.141   9.376
  880POPC   GL216082  38.508  26.183   9.269
  880POPC   C1A16083  38.191  26.084   8.880
  880POPC   D2A16084  38.425  26.112   8.443
  880POPC   C3A16085  38.131  26.246   8.096
  880POPC   C4A16086  38.162  26.369   7.649
  880POPC   C1B16087  38.688  25.914   8.909
  880POPC   C2B16088  38.833  25.756   8.506
  880POPC   C3B16089  38.758  25.807   8.066
  880POPC   C4B16090  38.546  26.099   7.827
  881POPC   NC316091  16.152  43.806   9.640
  881POPC   PO416092  15.787  44.215   9.353
  881POPC   GL116093  15.955  43.864   9.161
  881POPC   GL216094  16.311  43.938   9.165
  881POPC   C1A16095  16.020  43.640   8.771
  881POPC   D2A16096  15.750  43.478   8.442
  881POPC   C3A16097  15.872  43.517   8.019
  881POPC   C4A16098  15.892  43.677   7.615
  881POPC   C1B16099  16.242  44.087   8.748
  881POPC   C2B16100  16.182  43.905   8.324
  881POPC   C3B16101  16.048  44.071   7.888
  881POPC   C4B16102  16.001  44.101   7.367
  882POPC   NC316103  27.391  12.796   9.535
  882POPC   PO416104  27.879  13.291   9.612
  882POPC   GL116105  27.873  13.175   9.166
  882POPC   GL216106  27.579  12.966   9.094
  882POPC   C1A16107  27.833  13.110   8.691
  882POPC   D2A16108  27.806  12.780   8.357
  882POPC   C3A16109  27.764  12.923   7.919
  882POPC   C4A16110  27.545  12.952   7.499
  882POPC   C1B16111  27.438  12.733   8.718
  882POPC   C2B16112  27.292  12.756   8.279
  882POPC   C3B16113  27.332  12.633   7.844
  882POPC   C4B16114  27.119  12.694   7.445
  883POPC   NC316115  41.894   1.001   9.362
  883POPC   PO416116  41.224   1.220   9.478
  883POPC   GL116117  41.431   1.138   9.128
  883POPC   GL216118  41.524   1.500   9.136
  883POPC   C1A16119  41.383   0.889   8.756
  883POPC   D2A16120  41.585   0.916   8.383
  883POPC   C3A16121  41.392   0.876   8.019
  883POPC   C4A16122  41.428   1.076   7.637
  883POPC   C1B16123  41.745   1.426   8.759
  883POPC   C2B16124  41.988   1.234   8.423
  883POPC   C3B16125  41.852   1.166   7.990
  883POPC   C4B16126  41.679   1.490   7.751
  884POPC   NC316127  22.918   7.927   9.469
  884POPC   PO416128  22.762   8.643   9.523
  884POPC   GL116129  22.627   8.406   9.146
  884POPC   GL216130  22.918   8.208   9.029
  884POPC   C1A16131  22.490   8.258   8.723
  884POPC   D2A16132  22.850   8.141   8.454
  884POPC   C3A16133  22.932   8.243   8.036
  884POPC   C4A16134  22.819   8.363   7.629
  884POPC   C1B16135  22.745   7.820   8.837
  884POPC   C2B16136  22.824   7.630   8.455
  884POPC   C3B16137  22.938   7.727   8.036
  884POPC   C4B16138  23.034   7.878   7.633
  885POPC   NC316139   3.780  27.385   9.747
  885POPC   PO416140   3.233  27.722   9.653
  885POPC   GL116141   3.439  27.707   9.182
  885POPC   GL216142   3.667  27.488   9.239
  885POPC   C1A16143   3.432  27.738   8.735
  885POPC   D2A16144   3.200  27.999   8.411
  885POPC   C3A16145   3.421  27.966   8.011
  885POPC   C4A16146   3.306  27.902   7.567
  885POPC   C1B16147   3.802  27.282   8.830
  885POPC   C2B16148   3.589  27.140   8.453
  885POPC   C3B16149   3.526  27.162   8.022
  885POPC   C4B16150   3.604  27.525   7.731
  886POPC   NC316151   3.313  43.863   9.633
  886POPC   PO416152   2.725  43.882   9.508
  886POPC   GL116153   2.594  43.825   9.111
  886POPC   GL216154   2.601  44.185   9.049
  886POPC   C1A16155   2.856  43.781   8.732
  886POPC   D2A16156   3.038  43.573   8.362
  886POPC   C3A16157   2.917  43.697   7.954
  886POPC   C4A16158   2.658  43.615   7.601
  886POPC   C1B16159   2.407  44.029   8.685
  886POPC   C2B16160   2.503  43.788   8.303
  886POPC   C3B16161   2.400  43.930   7.876
  886POPC   C4B16162   2.484  44.101   7.415
  887POPC   NC316163   1.327  39.592   9.491
  887POPC   PO416164   1.016  40.146   9.601
  887POPC   GL116165   1.224  40.209   9.176
  887POPC   GL216166   1.574  40.122   9.267
  887POPC   C1A16167   1.218  40.176   8.682
  887POPC   D2A16168   1.070  39.973   8.290
  887POPC   C3A16169   1.064  40.092   7.833
  887POPC   C4A16170   1.042  40.389   7.452
  887POPC   C1B16171   1.543  39.829   8.912
  887POPC   C2B16172   1.548  39.824   8.476
  887POPC   C3B16173   1.520  40.111   8.124
  887POPC   C4B16174   1.602  40.046   7.704
  888POPC   NC316175  24.692   7.599   9.775
  888POPC   PO416176  24.366   8.132   9.474
  888POPC   GL116177  24.536   8.242   9.139
  888POPC   GL216178  24.219   8.395   9.046
  888POPC   C1A16179  24.645   8.333   8.728
  888POPC   D2A16180  24.721   8.098   8.341
  888POPC   C3A16181  24.681   8.346   7.932
  888POPC   C4A16182  24.565   8.348   7.478
  888POPC   C1B16183  24.132   8.003   8.866
  888POPC   C2B16184  24.216   8.081   8.472
  888POPC   C3B16185  24.289   8.034   8.074
  888POPC   C4B16186  24.153   8.212   7.724
  889POPC   NC316187   8.650  19.082   9.274
  889POPC   PO416188   9.111  18.669   9.396
  889POPC   GL116189   9.155  19.068   9.146
  889POPC   GL216190   8.933  18.873   8.899
  889POPC   C1A16191   9.146  19.301   8.727
  889POPC   D2A16192   9.167  18.950   8.437
  889POPC   C3A16193   8.832  18.898   8.153
  889POPC   C4A16194   8.777  19.063   7.790
  889POPC   C1B16195   8.678  19.139   8.611
  889POPC   C2B16196   8.841  19.397   8.288
  889POPC   C3B16197   8.983  19.517   7.904
  889POPC   C4B16198   8.946  19.420   7.459
  890POPC   NC316199  37.133   3.752   9.490
  890POPC   PO416200  36.579   3.396   9.376
  890POPC   GL116201  36.813   3.682   9.108
  890POPC   GL216202  37.058   3.402   9.095
  890POPC   C1A16203  36.818   3.636   8.675
  890POPC   D2A16204  36.594   3.299   8.447
  890POPC   C3A16205  36.753   3.349   8.041
  890POPC   C4A16206  36.821   3.785   7.852
  890POPC   C1B16207  37.299   3.460   8.711
  890POPC   C2B16208  37.164   3.534   8.265
  890POPC   C3B16209  37.200   3.449   7.811
  890POPC   C4B16210  37.109   3.184   7.455
  891POPC   NC316211   5.259  42.547   9.504
  891POPC   PO416212   5.090  41.967   9.609
  891POPC   GL116213   5.023  42.150   9.226
  891POPC   GL216214   5.325  42.149   9.125
  891POPC   C1A16215   4.888  42.203   8.806
  891POPC   D2A16216   4.957  42.328   8.399
  891POPC   C3A16217   4.898  42.051   8.031
  891POPC   C4A16218   4.743  42.200   7.634
  891POPC   C1B16219   5.324  42.500   8.829
  891POPC   C2B16220   5.381  42.626   8.393
  891POPC   C3B16221   5.297  42.417   8.005
  891POPC   C4B16222   5.593  42.129   7.874
  892POPC   NC316223  23.120   9.845   9.649
  892POPC   PO416224  22.509   9.608   9.460
  892POPC   GL116225  22.801   9.655   9.144
  892POPC   GL216226  23.086   9.892   9.150
  892POPC   C1A16227  22.908   9.701   8.715
  892POPC   D2A16228  23.126   9.656   8.326
  892POPC   C3A16229  22.865   9.614   7.907
  892POPC   C4A16230  22.792   9.567   7.426
  892POPC   C1B16231  23.179  10.135   8.763
  892POPC   C2B16232  23.291  10.151   8.346
  892POPC   C3B16233  23.218   9.972   7.936
  892POPC   C4B16234  22.961  10.048   7.571
  893POPC   NC316235   6.898  18.779   9.313
  893POPC   PO416236   6.313  18.892   9.465
  893POPC   GL116237   6.497  19.083   9.110
  893POPC   GL216238   6.796  19.274   9.127
  893POPC   C1A16239   6.649  18.929   8.698
  893POPC   D2A16240   6.474  18.879   8.293
  893POPC   C3A16241   6.745  18.935   7.937
  893POPC   C4A16242   7.090  18.722   7.793
  893POPC   C1B16243   6.649  19.427   8.731
  893POPC   C2B16244   6.780  19.310   8.331
  893POPC   C3B16245   6.729  19.483   7.942
  893POPC   C4B16246   6.701  19.388   7.488
  894POPC   NC316247  16.278  42.480   9.519
  894POPC   PO416248  16.807  42.097   9.440
  894POPC   GL116249  16.701  42.132   9.036
  894POPC   GL216250  16.825  42.447   9.049
  894POPC   C1A16251  16.743  42.197   8.564
  894POPC   D2A16252  16.983  42.405   8.243
  894POPC   C3A16253  16.876  42.335   7.802
  894POPC   C4A16254  16.600  42.103   7.497
  894POPC   C1B16255  16.456  42.542   8.826
  894POPC   C2B16256  16.588  42.743   8.449
  894POPC   C3B16257  16.638  42.744   8.020
  894POPC   C4B16258  16.432  42.571   7.680
  895POPC   NC316259  41.862  12.477   9.535
  895POPC   PO416260  41.351  13.087   9.509
  895POPC   GL116261  41.559  12.866   9.157
  895POPC   GL216262  41.482  12.505   9.196
  895POPC   C1A16263  41.458  12.983   8.733
  895POPC   D2A16264  41.281  13.320   8.462
  895POPC   C3A16265  41.522  13.195   8.122
  895POPC   C4A16266  41.624  12.893   7.802
  895POPC   C1B16267  41.573  12.498   8.769
  895POPC   C2B16268  41.584  12.665   8.337
  895POPC   C3B16269  41.351  12.512   7.969
  895POPC   C4B16270  41.389  12.528   7.507
  896POPC   NC316271   0.413  30.082   9.669
  896POPC   PO416272   0.183  29.454   9.468
  896POPC   GL116273   0.446  29.806   9.220
  896POPC   GL216274   0.751  30.024   9.246
  896POPC   C1A16275   0.419  30.144   8.876
  896POPC   D2A16276   0.224  30.033   8.479
  896POPC   C3A16277   0.286  30.122   8.067
  896POPC   C4A16278   0.434  29.930   7.707
  896POPC   C1B16279   0.923  29.991   8.808
  896POPC   C2B16280   0.724  30.152   8.410
  896POPC   C3B16281   0.879  30.041   7.964
  896POPC   C4B16282   0.901  30.056   7.485
  897POPC   NC316283  34.698  34.009   9.229
  897POPC   PO416284  34.737  33.416   9.545
  897POPC   GL116285  34.551  33.514   9.166
  897POPC   GL216286  34.249  33.714   9.153
  897POPC   C1A16287  34.476  33.611   8.723
  897POPC   D2A16288  34.261  33.733   8.378
  897POPC   C3A16289  34.603  33.676   8.079
  897POPC   C4A16290  34.475  33.478   7.724
  897POPC   C1B16291  34.181  34.049   8.804
  897POPC   C2B16292  34.324  34.264   8.416
  897POPC   C3B16293  34.298  34.065   7.999
  897POPC   C4B16294  34.175  34.130   7.619
  898POPC   NC316295  33.000  15.423   9.529
  898POPC   PO416296  32.655  14.901   9.779
  898POPC   GL116297  33.087  14.947   9.382
  898POPC   GL216298  33.324  14.817   9.165
  898POPC   C1A16299  33.033  15.049   8.855
  898POPC   D2A16300  33.065  15.377   8.534
  898POPC   C3A16301  32.899  15.278   8.132
  898POPC   C4A16302  32.931  15.456   7.736
  898POPC   C1B16303  33.433  14.733   8.775
  898POPC   C2B16304  33.276  14.926   8.416
  898POPC   C3B16305  33.331  14.967   8.015
  898POPC   C4B16306  33.046  14.959   7.665
  899POPC   NC316307   7.737  31.071   9.465
  899POPC   PO416308   7.357  31.674   9.477
  899POPC   GL116309   7.540  31.648   9.096
  899POPC   GL216310   7.876  31.558   9.135
  899POPC   C1A16311   7.352  31.640   8.683
  899POPC   D2A16312   7.167  31.401   8.347
  899POPC   C3A16313   7.306  31.591   7.959
  899POPC   C4A16314   7.266  31.481   7.535
  899POPC   C1B16315   7.771  31.335   8.737
  899POPC   C2B16316   7.686  31.428   8.295
  899POPC   C3B16317   7.765  31.360   7.856
  899POPC   C4B16318   7.770  31.564   7.463
  900POPC   NC316319   9.823  16.274   9.584
  900POPC   PO416320   9.560  16.894   9.561
  900POPC   GL116321   9.764  16.770   9.167
  900POPC   GL216322   9.551  16.707   8.918
  900POPC   C1A16323   9.914  17.038   8.825
  900POPC   D2A16324   9.783  16.925   8.425
  900POPC   C3A16325  10.158  16.909   8.170
  900POPC   C4A16326  10.103  17.008   7.748
  900POPC   C1B16327   9.801  16.372   8.732
  900POPC   C2B16328   9.949  16.443   8.313
  900POPC   C3B16329   9.770  16.646   7.951
  900POPC   C4B16330   9.847  16.628   7.513
  901POPC   NC316331  34.456  17.621   9.638
  901POPC   PO416332  34.762  17.147   9.335
  901POPC   GL116333  34.526  17.442   9.125
  901POPC   GL216334  34.605  17.796   9.147
  901POPC   C1A16335  34.527  17.466   8.691
  901POPC   D2A16336  34.591  17.221   8.305
  901POPC   C3A16337  34.474  17.405   7.904
  901POPC   C4A16338  34.160  17.594   7.658
  901POPC   C1B16339  34.646  17.990   8.729
  901POPC   C2B16340  34.568  17.806   8.312
  901POPC   C3B16341  34.464  17.931   7.918
  901POPC   C4B16342  34.533  17.881   7.501
  902POPC   NC316343  12.589  21.478   9.387
  902POPC   PO416344  13.222  21.425   9.445
  902POPC   GL116345  12.947  21.179   9.128
  902POPC   GL216346  12.601  21.000   9.111
  902POPC   C1A16347  12.756  21.290   8.723
  902POPC   D2A16348  12.974  21.315   8.345
  902POPC   C3A16349  12.738  21.374   7.989
  902POPC   C4A16350  12.941  21.501   7.611
  902POPC   C1B16351  12.313  21.023   8.727
  902POPC   C2B16352  12.546  20.973   8.327
  902POPC   C3B16353  12.908  20.891   8.034
  902POPC   C4B16354  12.787  21.014   7.627
  903POPC   NC316355  41.889  31.521   9.445
  903POPC   PO416356  42.477  31.268   9.610
  903POPC   GL116357  42.407  31.545   9.266
  903POPC   GL216358  42.162  31.401   9.045
  903POPC   C1A16359  42.585  31.564   8.831
  903POPC   D2A16360  42.372  31.410   8.464
  903POPC   C3A16361  42.512  31.527   8.046
  903POPC   C4A16362  42.768  31.469   7.631
  903POPC   C1B16363  42.048  31.693   8.756
  903POPC   C2B16364  41.918  31.618   8.338
  903POPC   C3B16365  42.065  31.751   7.927
  903POPC   C4B16366  42.245  31.511   7.600
  904POPC   NC316367  34.800  23.955   9.489
  904POPC   PO416368  34.423  23.372   9.336
  904POPC   GL116369  34.613  23.609   9.073
  904POPC   GL216370  34.433  23.919   9.104
  904POPC   C1A16371  34.705  23.525   8.657
  904POPC   D2A16372  34.549  23.721   8.315
  904POPC   C3A16373  34.522  23.744   7.909
  904POPC   C4A16374  34.910  23.815   7.732
  904POPC   C1B16375  34.538  24.073   8.685
  904POPC   C2B16376  34.357  24.176   8.240
  904POPC   C3B16377  34.576  24.260   7.835
  904POPC   C4B16378  34.391  24.267   7.422
  905POPC   NC316379  21.150  29.433   9.444
  905POPC   PO416380  21.710  29.098   9.480
  905POPC   GL116381  21.515  29.037   9.128
  905POPC   GL216382  21.209  28.960   9.269
  905POPC   C1A16383  21.383  29.278   8.751
  905POPC   D2A16384  21.423  29.061   8.339
  905POPC   C3A16385  21.271  29.234   7.960
  905POPC   C4A16386  21.083  29.111   7.569
  905POPC   C1B16387  21.124  28.864   8.845
  905POPC   C2B16388  21.120  28.655   8.468
  905POPC   C3B16389  21.064  28.771   8.061
  905POPC   C4B16390  21.151  28.632   7.675
  906POPC   NC316391  14.615  36.794   9.558
  906POPC   PO416392  14.196  37.197   9.541
  906POPC   GL116393  14.402  37.060   9.137
  906POPC   GL216394  14.632  36.765   9.066
  906POPC   C1A16395  14.241  36.847   8.752
  906POPC   D2A16396  14.366  36.865   8.327
  906POPC   C3A16397  14.105  36.890   7.979
  906POPC   C4A16398  14.168  37.210   7.681
  906POPC   C1B16399  14.687  36.507   8.706
  906POPC   C2B16400  14.504  36.365   8.334
  906POPC   C3B16401  14.471  36.540   7.937
  906POPC   C4B16402  14.745  36.736   7.685
  907POPC   NC316403  37.962  20.898   9.597
  907POPC   PO416404  37.383  20.513   9.593
  907POPC   GL116405  37.461  20.686   9.162
  907POPC   GL216406  37.806  20.731   9.127
  907POPC   C1A16407  37.499  20.619   8.679
  907POPC   D2A16408  37.693  20.860   8.302
  907POPC   C3A16409  37.593  20.633   7.908
  907POPC   C4A16410  37.281  20.314   7.853
  907POPC   C1B16411  38.007  20.644   8.724
  907POPC   C2B16412  38.063  20.507   8.290
  907POPC   C3B16413  38.096  20.733   7.902
  907POPC   C4B16414  37.881  20.916   7.561
  908POPC   NC316415   3.011  23.685   9.441
  908POPC   PO416416   2.404  24.104   9.440
  908POPC   GL116417   2.483  23.891   9.051
  908POPC   GL216418   2.755  23.628   9.008
  908POPC   C1A16419   2.679  23.910   8.620
  908POPC   D2A16420   2.972  23.853   8.303
  908POPC   C3A16421   2.728  23.912   7.967
  908POPC   C4A16422   2.607  23.676   7.637
  908POPC   C1B16423   3.150  23.727   8.775
  908POPC   C2B16424   3.351  23.523   8.420
  908POPC   C3B16425   3.175  23.444   8.032
  908POPC   C4B16426   3.097  23.692   7.695
  909POPC   NC316427  35.144  44.869   9.313
  909POPC   PO416428  35.500  44.431   9.563
  909POPC   GL116429  35.410  44.449   9.116
  909POPC   GL216430  35.030  44.478   9.000
  909POPC   C1A16431  35.437  44.523   8.668
  909POPC   D2A16432  35.531  44.365   8.260
  909POPC   C3A16433  35.537  44.695   7.962
  909POPC   C4A16434  35.330   0.056   7.814
  909POPC   C1B16435  34.992  44.831   8.675
  909POPC   C2B16436  35.040  44.857   8.220
  909POPC   C3B16437  34.982  44.705   7.808
  909POPC   C4B16438  34.927  44.941   7.415
  910POPC   NC316439  36.398  27.198   9.535
  910POPC   PO416440  36.288  26.537   9.393
  910POPC   GL116441  36.138  26.846   9.166
  910POPC   GL216442  36.452  26.951   9.094
  910POPC   C1A16443  35.943  26.831   8.752
  910POPC   D2A16444  36.066  26.545   8.436
  910POPC   C3A16445  36.054  26.719   8.023
  910POPC   C4A16446  36.122  26.519   7.638
  910POPC   C1B16447  36.458  26.812   8.712
  910POPC   C2B16448  36.296  27.015   8.374
  910POPC   C3B16449  36.460  27.086   7.998
  910POPC   C4B16450  36.577  26.746   7.776
  911POPC   NC316451  22.400  23.439   9.464
  911POPC   PO416452  21.928  23.905   9.339
  911POPC   GL116453  22.086  23.946   8.965
  911POPC   GL216454  22.366  23.713   9.000
  911POPC   C1A16455  22.101  23.887   8.535
  911POPC   D2A16456  22.046  23.616   8.175
  911POPC   C3A16457  22.032  23.891   7.855
  911POPC   C4A16458  22.446  23.966   7.633
  911POPC   C1B16459  22.019  23.449   8.809
  911POPC   C2B16460  21.890  23.211   8.445
  911POPC   C3B16461  21.865  23.150   7.993
  911POPC   C4B16462  21.842  23.364   7.642
  912POPC   NC316463  31.817  40.903   9.656
  912POPC   PO416464  31.290  40.484   9.584
  912POPC   GL116465  31.469  40.678   9.227
  912POPC   GL216466  31.260  40.956   9.095
  912POPC   C1A16467  31.540  40.652   8.765
  912POPC   D2A16468  31.814  40.634   8.387
  912POPC   C3A16469  31.642  40.587   7.966
  912POPC   C4A16470  31.745  40.420   7.558
  912POPC   C1B16471  31.240  41.102   8.673
  912POPC   C2B16472  30.977  41.105   8.295
  912POPC   C3B16473  31.194  41.214   7.915
  912POPC   C4B16474  31.529  41.046   7.667
  913POPC   NC316475  32.772  43.358   9.357
  913POPC   PO416476  33.153  43.115   9.835
  913POPC   GL116477  33.128  42.992   9.341
  913POPC   GL216478  33.377  42.791   9.136
  913POPC   C1A16479  33.031  43.057   8.849
  913POPC   D2A16480  33.158  43.190   8.401
  913POPC   C3A16481  32.948  43.089   7.989
  913POPC   C4A16482  32.634  43.353   7.771
  913POPC   C1B16483  33.257  42.624   8.697
  913POPC   C2B16484  33.367  42.752   8.246
  913POPC   C3B16485  33.284  42.732   7.779
  913POPC   C4B16486  33.426  42.755   7.324
  914POPC   NC316487  43.331  39.656   9.327
  914POPC   PO416488  43.185  40.215   9.729
  914POPC   GL116489  43.284  40.138   9.276
  914POPC   GL216490  43.000  40.020   9.084
  914POPC   C1A16491  43.440  39.995   8.817
  914POPC   D2A16492  43.409  40.189   8.428
  914POPC   C3A16493  43.470  39.952   8.050
  914POPC   C4A16494  43.456  40.182   7.707
  914POPC   C1B16495  42.926  40.092   8.652
  914POPC   C2B16496  43.014  39.890   8.268
  914POPC   C3B16497  43.001  39.893   7.828
  914POPC   C4B16498  42.885  39.877   7.384
  915POPC   NC316499  22.831   5.425   9.459
  915POPC   PO416500  23.426   5.019   9.432
  915POPC   GL116501  23.108   5.129   9.163
  915POPC   GL216502  23.194   5.467   9.093
  915POPC   C1A16503  22.808   5.080   8.823
  915POPC   D2A16504  22.916   4.880   8.427
  915POPC   C3A16505  22.710   4.995   8.045
  915POPC   C4A16506  22.849   5.046   7.630
  915POPC   C1B16507  23.006   5.530   8.700
  915POPC   C2B16508  22.762   5.404   8.369
  915POPC   C3B16509  22.958   5.445   7.939
  915POPC   C4B16510  22.992   5.508   7.496
  916POPC   NC316511   2.239   5.613   9.610
  916POPC   PO416512   2.186   6.214   9.276
  916POPC   GL116513   2.175   5.832   9.103
  916POPC   GL216514   1.824   5.940   8.986
  916POPC   C1A16515   2.139   5.735   8.653
  916POPC   D2A16516   1.864   6.088   8.433
  916POPC   C3A16517   1.971   6.185   8.013
  916POPC   C4A16518   2.168   5.993   7.655
  916POPC   C1B16519   1.621   5.713   8.672
  916POPC   C2B16520   1.805   5.594   8.279
  916POPC   C3B16521   1.768   5.741   7.867
  916POPC   C4B16522   1.578   6.072   7.629
  917POPC   NC316523   8.845  16.377   9.401
  917POPC   PO416524   8.871  16.993   9.702
  917POPC   GL116525   9.139  16.792   9.286
  917POPC   GL216526   9.341  16.467   9.307
  917POPC   C1A16527   9.063  16.765   8.786
  917POPC   D2A16528   8.802  16.690   8.397
  917POPC   C3A16529   8.880  16.923   8.011
  917POPC   C4A16530   8.801  16.768   7.649
  917POPC   C1B16531   9.267  16.303   8.846
  917POPC   C2B16532   9.388  16.513   8.452
  917POPC   C3B16533   9.221  16.561   8.049
  917POPC   C4B16534   9.315  16.789   7.712
  918POPC   NC316535  40.621  37.883   9.598
  918POPC   PO416536  40.848  37.385   9.508
  918POPC   GL116537  40.665  37.624   9.141
  918POPC   GL216538  40.428  37.933   9.151
  918POPC   C1A16539  40.799  37.615   8.706
  918POPC   D2A16540  40.946  37.786   8.325
  918POPC   C3A16541  40.917  37.570   7.932
  918POPC   C4A16542  41.010  37.297   7.561
  918POPC   C1B16543  40.504  38.025   8.781
  918POPC   C2B16544  40.428  37.844   8.396
  918POPC   C3B16545  40.529  37.887   7.966
  918POPC   C4B16546  40.293  37.958   7.617
  919POPC   NC316547  13.258   2.456   9.501
  919POPC   PO416548  13.873   2.308   9.350
  919POPC   GL116549  13.688   2.491   9.005
  919POPC   GL216550  13.432   2.741   9.114
  919POPC   C1A16551  13.722   2.807   8.680
  919POPC   D2A16552  13.441   2.930   8.357
  919POPC   C3A16553  13.652   2.676   8.103
  919POPC   C4A16554  13.859   2.812   7.776
  919POPC   C1B16555  13.263   2.612   8.715
  919POPC   C2B16556  13.213   2.460   8.283
  919POPC   C3B16557  13.211   2.680   7.871
  919POPC   C4B16558  13.541   2.446   7.662
  920POPC   NC316559  26.694  10.186   9.510
  920POPC   PO416560  26.888   9.545   9.328
  920POPC   GL116561  26.930   9.767   9.006
  920POPC   GL216562  27.232   9.894   9.166
  920POPC   C1A16563  26.937   9.760   8.528
  920POPC   D2A16564  26.977   9.399   8.247
  920POPC   C3A16565  26.736   9.541   7.926
  920POPC   C4A16566  26.713  10.023   7.902
  920POPC   C1B16567  27.383   9.741   8.777
  920POPC   C2B16568  27.451   9.839   8.340
  920POPC   C3B16569  27.188   9.817   7.984
  920POPC   C4B16570  27.081   9.628   7.567
  921POPC   NC316571  33.341   2.473   9.510
  921POPC   PO416572  32.780   2.729   9.637
  921POPC   GL116573  32.900   2.543   9.217
  921POPC   GL216574  33.178   2.780   9.133
  921POPC   C1A16575  32.964   2.543   8.740
  921POPC   D2A16576  33.129   2.756   8.377
  921POPC   C3A16577  32.910   2.609   8.027
  921POPC   C4A16578  33.127   2.621   7.643
  921POPC   C1B16579  33.101   3.084   8.793
  921POPC   C2B16580  32.950   3.266   8.396
  921POPC   C3B16581  33.003   3.145   7.947
  921POPC   C4B16582  33.114   3.090   7.490
  922POPC   NC316583  35.754  39.499   9.742
  922POPC   PO416584  35.175  39.135   9.542
  922POPC   GL116585  35.368  39.295   9.160
  922POPC   GL216586  35.680  39.125   9.177
  922POPC   C1A16587  35.229  39.325   8.721
  922POPC   D2A16588  35.292  39.616   8.380
  922POPC   C3A16589  35.492  39.555   8.029
  922POPC   C4A16590  35.273  39.408   7.724
  922POPC   C1B16591  35.767  39.231   8.725
  922POPC   C2B16592  35.581  39.177   8.346
  922POPC   C3B16593  35.538  39.034   7.923
  922POPC   C4B16594  35.747  39.047   7.517
  923POPC   NC316595  21.004  13.725   9.376
  923POPC   PO416596  21.507  13.224   9.427
  923POPC   GL116597  21.288  13.422   9.079
  923POPC   GL216598  21.396  13.779   9.034
  923POPC   C1A16599  21.056  13.400   8.685
  923POPC   D2A16600  20.881  13.730   8.401
  923POPC   C3A16601  21.118  13.672   8.040
  923POPC   C4A16602  21.432  13.564   7.753
  923POPC   C1B16603  21.353  13.809   8.591
  923POPC   C2B16604  21.281  14.094   8.251
  923POPC   C3B16605  21.345  14.063   7.795
  923POPC   C4B16606  21.714  13.906   7.467
  924POPC   NC316607   4.546  15.038   9.520
  924POPC   PO416608   3.995  15.352   9.217
  924POPC   GL116609   4.383  15.167   9.049
  924POPC   GL216610   4.354  14.813   9.101
  924POPC   C1A16611   4.502  15.229   8.640
  924POPC   D2A16612   4.118  15.241   8.423
  924POPC   C3A16613   4.079  14.897   8.167
  924POPC   C4A16614   4.165  15.067   7.764
  924POPC   C1B16615   4.318  14.742   8.670
  924POPC   C2B16616   4.572  14.814   8.305
  924POPC   C3B16617   4.603  15.146   8.044
  924POPC   C4B16618   4.688  15.214   7.622
  925POPC   NC316619  18.272  35.516   9.439
  925POPC   PO416620  18.709  34.989   9.413
  925POPC   GL116621  18.481  35.177   9.114
  925POPC   GL216622  18.102  35.173   9.107
  925POPC   C1A16623  18.412  35.183   8.715
  925POPC   D2A16624  18.430  35.446   8.431
  925POPC   C3A16625  18.333  35.242   8.065
  925POPC   C4A16626  18.640  35.142   7.785
  925POPC   C1B16627  17.993  35.494   8.747
  925POPC   C2B16628  17.986  35.668   8.313
  925POPC   C3B16629  18.314  35.773   8.031
  925POPC   C4B16630  18.416  35.572   7.659
  926POPC   NC316631  33.455  25.299   9.711
  926POPC   PO416632  32.811  25.182   9.493
  926POPC   GL116633  32.955  25.386   9.122
  926POPC   GL216634  33.085  25.075   9.061
  926POPC   C1A16635  33.105  25.410   8.704
  926POPC   D2A16636  32.927  25.290   8.325
  926POPC   C3A16637  33.165  25.545   8.057
  926POPC   C4A16638  33.202  25.484   7.639
  926POPC   C1B16639  32.808  24.942   8.710
  926POPC   C2B16640  32.843  24.788   8.258
  926POPC   C3B16641  32.976  25.036   7.868
  926POPC   C4B16642  33.325  24.985   7.545
  927POPC   NC316643   6.790  11.904   9.528
  927POPC   PO416644   6.143  12.054   9.537
  927POPC   GL116645   6.446  12.116   9.181
  927POPC   GL216646   6.785  12.270   9.150
  927POPC   C1A16647   6.576  11.952   8.774
  927POPC   D2A16648   6.705  12.133   8.379
  927POPC   C3A16649   6.780  11.943   7.978
  927POPC   C4A16650   6.649  12.163   7.587
  927POPC   C1B16651   6.711  12.507   8.759
  927POPC   C2B16652   6.934  12.585   8.386
  927POPC   C3B16653   6.790  12.461   7.993
  927POPC   C4B16654   6.718  12.697   7.666
  928POPC   NC316655  34.848  16.080   9.479
  928POPC   PO416656  34.239  16.043   9.409
  928POPC   GL116657  34.541  16.057   9.060
  928POPC   GL216658  34.750  15.751   9.117
  928POPC   C1A16659  34.661  15.986   8.611
  928POPC   D2A16660  34.505  16.183   8.222
  928POPC   C3A16661  34.640  16.375   7.872
  928POPC   C4A16662  34.501  16.282   7.454
  928POPC   C1B16663  34.398  15.605   8.848
  928POPC   C2B16664  34.450  15.534   8.411
  928POPC   C3B16665  34.379  15.728   8.042
  928POPC   C4B16666  34.642  15.867   7.722
  929POPC   NC316667  41.077   8.478   9.460
  929POPC   PO416668  41.464   7.940   9.396
  929POPC   GL116669  41.638   8.124   9.050
  929POPC   GL216670  41.500   8.481   9.090
  929POPC   C1A16671  41.657   8.097   8.644
  929POPC   D2A16672  41.369   8.113   8.338
  929POPC   C3A16673  41.647   8.217   8.047
  929POPC   C4A16674  41.602   8.020   7.693
  929POPC   C1B16675  41.833   8.552   8.773
  929POPC   C2B16676  42.026   8.584   8.376
  929POPC   C3B16677  41.892   8.674   7.971
  929POPC   C4B16678  41.875   8.438   7.626
  930POPC   NC316679  18.639   0.511   9.549
  930POPC   PO416680  19.366   0.139   9.489
  930POPC   GL116681  19.229   0.474   9.186
  930POPC   GL216682  18.908   0.559   9.145
  930POPC   C1A16683  19.196   0.430   8.748
  930POPC   D2A16684  19.077   0.053   8.505
  930POPC   C3A16685  19.001   0.178   8.067
  930POPC   C4A16686  18.836   0.408   7.713
  930POPC   C1B16687  18.733   0.642   8.788
  930POPC   C2B16688  18.777   0.479   8.429
  930POPC   C3B16689  18.714   0.726   8.088
  930POPC   C4B16690  18.696   0.901   7.704
  931POPC   NC316691  37.129  39.782   9.584
  931POPC   PO416692  36.800  40.265   9.483
  931POPC   GL116693  36.948  40.247   9.094
  931POPC   GL216694  37.047  39.897   9.099
  931POPC   C1A16695  36.673  40.130   8.759
  931POPC   D2A16696  36.583  39.929   8.380
  931POPC   C3A16697  36.624  40.144   7.998
  931POPC   C4A16698  36.721  39.954   7.606
  931POPC   C1B16699  37.163  39.961   8.689
  931POPC   C2B16700  37.064  40.026   8.278
  931POPC   C3B16701  37.171  40.015   7.863
  931POPC   C4B16702  37.215  40.099   7.398
  932POPC   NC316703   0.098  30.697   9.590
  932POPC   PO416704   0.665  30.472   9.557
  932POPC   GL116705   0.434  30.611   9.176
  932POPC   GL216706   0.136  30.864   9.119
  932POPC   C1A16707   0.434  30.695   8.738
  932POPC   D2A16708   0.363  30.567   8.325
  932POPC   C3A16709   0.526  30.774   7.948
  932POPC   C4A16710   0.415  30.448   7.702
  932POPC   C1B16711  44.933  30.752   8.723
  932POPC   C2B16712  44.925  30.926   8.319
  932POPC   C3B16713   0.024  30.724   7.932
  932POPC   C4B16714   0.076  30.794   7.485
  933POPC   NC316715  35.935  32.704   9.383
  933POPC   PO416716  36.366  33.221   9.566
  933POPC   GL116717  36.292  33.017   9.168
  933POPC   GL216718  35.983  33.173   9.179
  933POPC   C1A16719  36.170  32.925   8.716
  933POPC   D2A16720  36.419  32.740   8.351
  933POPC   C3A16721  36.284  32.892   7.942
  933POPC   C4A16722  36.418  33.204   7.644
  933POPC   C1B16723  35.766  33.286   8.836
  933POPC   C2B16724  35.934  33.333   8.441
  933POPC   C3B16725  35.827  33.165   8.064
  933POPC   C4B16726  35.918  33.400   7.708
  934POPC   NC316727   6.812  14.686   9.461
  934POPC   PO416728   6.716  15.364   9.599
  934POPC   GL116729   6.642  15.172   9.193
  934POPC   GL216730   6.400  15.421   9.054
  934POPC   C1A16731   6.699  15.132   8.743
  934POPC   D2A16732   6.791  15.356   8.373
  934POPC   C3A16733   6.906  15.108   8.004
  934POPC   C4A16734   6.834  15.237   7.558
  934POPC   C1B16735   6.193  15.112   8.756
  934POPC   C2B16736   6.378  15.013   8.340
  934POPC   C3B16737   6.412  15.169   7.906
  934POPC   C4B16738   6.354  15.351   7.466
  935POPC   NC316739   4.282  11.693   9.367
  935POPC   PO416740   4.082  11.098   9.746
  935POPC   GL116741   4.246  11.031   9.286
  935POPC   GL216742   4.514  11.264   9.215
  935POPC   C1A16743   4.252  11.115   8.798
  935POPC   D2A16744   4.483  11.243   8.401
  935POPC   C3A16745   4.218  11.167   8.026
  935POPC   C4A16746   3.770  11.090   8.033
  935POPC   C1B16747   4.606  11.558   8.840
  935POPC   C2B16748   4.761  11.681   8.439
  935POPC   C3B16749   4.844  11.495   8.056
  935POPC   C4B16750   4.585  11.345   7.701
  936POPC   NC316751  34.179  29.487   9.448
  936POPC   PO416752  34.762  29.083   9.549
  936POPC   GL116753  34.621  29.307   9.182
  936POPC   GL216754  34.352  29.078   9.175
  936POPC   C1A16755  34.492  29.312   8.731
  936POPC   D2A16756  34.603  29.339   8.298
  936POPC   C3A16757  34.368  29.298   7.918
  936POPC   C4A16758  34.288  29.359   7.463
  936POPC   C1B16759  34.312  28.831   8.808
  936POPC   C2B16760  34.259  28.964   8.361
  936POPC   C3B16761  34.330  28.780   7.964
  936POPC   C4B16762  34.301  28.498   7.596
  937POPC   NC316763  35.604  24.794   9.438
  937POPC   PO416764  35.116  24.325   9.461
  937POPC   GL116765  35.324  24.242   9.097
  937POPC   GL216766  35.351  24.593   9.056
  937POPC   C1A16767  35.197  24.296   8.684
  937POPC   D2A16768  35.300  24.518   8.334
  937POPC   C3A16769  35.545  24.371   8.010
  937POPC   C4A16770  35.588  24.519   7.602
  937POPC   C1B16771  35.254  24.848   8.720
  937POPC   C2B16772  35.388  25.018   8.334
  937POPC   C3B16773  35.334  24.844   7.925
  937POPC   C4B16774  35.570  25.033   7.616
  938POPC   NC316775  33.414   3.326   9.590
  938POPC   PO416776  33.749   3.877   9.559
  938POPC   GL116777  33.872   3.560   9.255
  938POPC   GL216778  33.647   3.270   9.140
  938POPC   C1A16779  33.889   3.585   8.806
  938POPC   D2A16780  33.700   3.859   8.477
  938POPC   C3A16781  33.718   3.651   8.086
  938POPC   C4A16782  33.840   3.569   7.656
  938POPC   C1B16783  33.612   3.167   8.681
  938POPC   C2B16784  33.442   3.199   8.257
  938POPC   C3B16785  33.457   3.299   7.795
  938POPC   C4B16786  33.585   3.240   7.337
  939POPC   NC316787  25.523   8.806   9.761
  939POPC   PO416788  26.146   8.987   9.525
  939POPC   GL116789  26.269   8.904   9.136
  939POPC   GL216790  25.939   8.955   9.029
  939POPC   C1A16791  26.332   9.012   8.709
  939POPC   D2A16792  25.946   8.897   8.484
  939POPC   C3A16793  25.955   8.747   8.091
  939POPC   C4A16794  26.067   8.906   7.666
  939POPC   C1B16795  25.896   9.324   8.764
  939POPC   C2B16796  25.619   9.342   8.439
  939POPC   C3B16797  25.848   9.243   8.105
  939POPC   C4B16798  25.793   9.350   7.743
  940POPC   NC316799  23.188   2.609   9.609
  940POPC   PO416800  22.915   2.100   9.614
  940POPC   GL116801  22.828   2.188   9.167
  940POPC   GL216802  23.106   2.418   9.120
  940POPC   C1A16803  22.663   2.093   8.713
  940POPC   D2A16804  22.566   2.080   8.234
  940POPC   C3A16805  22.842   1.800   7.917
  940POPC   C4A16806  22.956   1.645   7.473
  940POPC   C1B16807  23.155   2.286   8.691
  940POPC   C2B16808  23.076   2.145   8.250
  940POPC   C3B16809  22.991   2.281   7.818
  940POPC   C4B16810  23.062   2.133   7.369
  941POPC   NC316811  31.572  12.270   9.526
  941POPC   PO416812  31.674  11.616   9.396
  941POPC   GL116813  31.376  11.942   9.142
  941POPC   GL216814  31.334  12.325   9.078
  941POPC   C1A16815  31.222  12.031   8.701
  941POPC   D2A16816  31.286  12.409   8.428
  941POPC   C3A16817  31.316  12.210   8.030
  941POPC   C4A16818  31.140  11.864   7.761
  941POPC   C1B16819  31.679  12.269   8.752
  941POPC   C2B16820  31.776  12.417   8.300
  941POPC   C3B16821  31.678  12.515   7.846
  941POPC   C4B16822  31.246  12.541   7.643
  942POPC   NC316823  43.695  21.272   9.501
  942POPC   PO416824  44.199  21.611   9.702
  942POPC   GL116825  44.155  21.443   9.298
  942POPC   GL216826  44.182  21.105   9.335
  942POPC   C1A16827  43.926  21.613   8.913
  942POPC   D2A16828  43.771  21.450   8.491
  942POPC   C3A16829  43.808  21.598   8.040
  942POPC   C4A16830  43.771  21.711   7.576
  942POPC   C1B16831  43.998  21.116   8.910
  942POPC   C2B16832  44.032  20.982   8.471
  942POPC   C3B16833  43.915  21.115   8.082
  942POPC   C4B16834  44.102  21.316   7.723
  943POPC   NC316835  12.894   1.705   9.871
  943POPC   PO416836  12.883   2.181   9.421
  943POPC   GL116837  12.744   2.067   9.036
  943POPC   GL216838  12.946   1.827   9.001
  943POPC   C1A16839  12.748   1.940   8.573
  943POPC   D2A16840  12.940   2.041   8.227
  943POPC   C3A16841  12.765   1.923   7.867
  943POPC   C4A16842  12.668   2.053   7.442
  943POPC   C1B16843  13.150   1.600   8.698
  943POPC   C2B16844  12.976   1.548   8.326
  943POPC   C3B16845  13.100   1.533   7.939
  943POPC   C4B16846  13.162   1.713   7.572
  944POPC   NC316847   5.251  18.861   9.662
  944POPC   PO416848   4.822  19.346   9.412
  944POPC   GL116849   5.183  19.177   9.230
  944POPC   GL216850   5.430  19.406   9.033
  944POPC   C1A16851   5.178  18.883   8.926
  944POPC   D2A16852   5.084  18.872   8.509
  944POPC   C3A16853   5.363  19.062   8.228
  944POPC   C4A16854   5.413  19.031   7.777
  944POPC   C1B16855   5.031  19.366   8.764
  944POPC   C2B16856   4.834  19.288   8.350
  944POPC   C3B16857   5.058  19.379   7.967
  944POPC   C4B16858   5.519  19.536   7.908
  945POPC   NC316859  43.510  31.688   9.479
  945POPC   PO416860  44.068  31.384   9.683
  945POPC   GL116861  44.031  31.539   9.245
  945POPC   GL216862  43.747  31.522   9.082
  945POPC   C1A16863  44.132  31.416   8.787
  945POPC   D2A16864  43.864  31.494   8.425
  945POPC   C3A16865  44.017  31.485   8.021
  945POPC   C4A16866  43.852  31.421   7.640
  945POPC   C1B16867  43.501  31.618   8.768
  945POPC   C2B16868  43.353  31.637   8.380
  945POPC   C3B16869  43.495  31.567   7.992
  945POPC   C4B16870  43.488  31.789   7.608
  946POPC   NC316871  14.082  23.419   9.509
  946POPC   PO416872  13.593  23.748   9.729
  946POPC   GL116873  13.574  23.711   9.241
  946POPC   GL216874  13.822  23.533   9.080
  946POPC   C1A16875  13.562  23.915   8.806
  946POPC   D2A16876  13.440  23.811   8.365
  946POPC   C3A16877  13.659  23.814   7.932
  946POPC   C4A16878  13.529  24.059   7.550
  946POPC   C1B16879  13.649  23.439   8.669
  946POPC   C2B16880  13.754  23.402   8.233
  946POPC   C3B16881  13.691  23.316   7.788
  946POPC   C4B16882  13.632  23.160   7.366
  947POPC   NC316883  25.222  35.740   9.760
  947POPC   PO416884  25.469  35.163   9.439
  947POPC   GL116885  25.302  35.465   9.140
  947POPC   GL216886  25.057  35.207   9.081
  947POPC   C1A16887  25.202  35.614   8.684
  947POPC   D2A16888  25.286  35.372   8.277
  947POPC   C3A16889  25.244  35.576   7.865
  947POPC   C4A16890  25.328  35.694   7.412
  947POPC   C1B16891  25.184  35.123   8.721
  947POPC   C2B16892  24.959  35.002   8.350
  947POPC   C3B16893  24.961  35.123   7.925
  947POPC   C4B16894  25.338  35.107   7.693
  948POPC   NC316895   5.180  37.090   9.606
  948POPC   PO416896   4.648  37.049   9.240
  948POPC   GL116897   5.062  36.945   9.095
  948POPC   GL216898   5.339  36.719   9.234
  948POPC   C1A16899   5.124  36.972   8.666
  948POPC   D2A16900   5.237  37.120   8.297
  948POPC   C3A16901   4.987  37.018   7.977
  948POPC   C4A16902   4.640  37.185   7.764
  948POPC   C1B16903   5.410  36.579   8.779
  948POPC   C2B16904   5.272  36.612   8.290
  948POPC   C3B16905   5.372  36.700   7.827
  948POPC   C4B16906   5.517  36.667   7.350
  949POPC   NC316907  35.055   5.341   9.119
  949POPC   PO416908  35.283   4.846   9.451
  949POPC   GL116909  35.459   4.999   9.051
  949POPC   GL216910  35.553   5.323   8.970
  949POPC   C1A16911  35.482   4.856   8.635
  949POPC   D2A16912  35.676   5.027   8.246
  949POPC   C3A16913  35.448   4.927   7.887
  949POPC   C4A16914  35.546   4.556   7.779
  949POPC   C1B16915  35.429   5.362   8.567
  949POPC   C2B16916  35.524   5.541   8.189
  949POPC   C3B16917  35.515   5.419   7.788
  949POPC   C4B16918  35.192   5.264   7.524
  950POPC   NC316919   6.211  13.255   9.713
  950POPC   PO416920   6.512  12.683   9.354
  950POPC   GL116921   6.586  12.958   9.027
  950POPC   GL216922   6.929  12.948   8.965
  950POPC   C1A16923   6.630  13.036   8.569
  950POPC   D2A16924   6.622  12.915   8.145
  950POPC   C3A16925   6.458  13.150   7.828
  950POPC   C4A16926   6.245  13.131   7.462
  950POPC   C1B16927   7.178  12.973   8.620
  950POPC   C2B16928   7.162  13.020   8.169
  950POPC   C3B16929   7.041  13.109   7.741
  950POPC   C4B16930   7.239  13.158   7.298
  951POPC   NC316931  30.292  44.657   9.553
  951POPC   PO416932  30.956  44.624   9.706
  951POPC   GL116933  30.762  44.771   9.284
  951POPC   GL216934  30.750  44.453   9.214
  951POPC   C1A16935  30.709  44.692   8.778
  951POPC   D2A16936  30.557  44.573   8.334
  951POPC   C3A16937  30.785  44.733   7.958
  951POPC   C4A16938  30.748  44.726   7.484
  951POPC   C1B16939  31.000  44.286   8.898
  951POPC   C2B16940  30.906  44.229   8.495
  951POPC   C3B16941  30.839  44.186   8.097
  951POPC   C4B16942  30.912  44.319   7.711
  952POPC   NC316943  17.809  10.314   9.538
  952POPC   PO416944  17.440  10.810   9.428
  952POPC   GL116945  17.555  10.770   9.038
  952POPC   GL216946  17.872  10.813   9.064
  952POPC   C1A16947  17.455  10.620   8.626
  952POPC   D2A16948  17.308  10.770   8.232
  952POPC   C3A16949  17.287  10.426   7.935
  952POPC   C4A16950  17.470  10.136   7.654
  952POPC   C1B16951  17.870  10.397   8.837
  952POPC   C2B16952  17.905  10.238   8.403
  952POPC   C3B16953  17.791  10.422   7.988
  952POPC   C4B16954  17.952  10.319   7.579
  953POPC   NC316955  24.484  39.238   9.511
  953POPC   PO416956  25.065  38.819   9.511
  953POPC   GL116957  24.764  38.960   9.165
  953POPC   GL216958  24.381  39.062   9.062
  953POPC   C1A16959  24.800  39.084   8.769
  953POPC   D2A16960  24.605  39.202   8.410
  953POPC   C3A16961  24.657  38.965   8.043
  953POPC   C4A16962  24.698  39.205   7.679
  953POPC   C1B16963  24.173  39.371   8.816
  953POPC   C2B16964  24.229  39.564   8.428
  953POPC   C3B16965  24.204  39.286   8.076
  953POPC   C4B16966  24.244  39.473   7.698
  954POPC   NC316967  10.986  29.901   9.373
  954POPC   PO416968  11.407  29.481   9.695
  954POPC   GL116969  11.438  29.720   9.211
  954POPC   GL216970  11.137  29.657   8.975
  954POPC   C1A16971  11.445  30.005   8.805
  954POPC   D2A16972  11.356  30.028   8.359
  954POPC   C3A16973  11.515  29.774   8.035
  954POPC   C4A16974  11.650  30.037   7.730
  954POPC   C1B16975  10.930  29.960   8.719
  954POPC   C2B16976  10.900  30.228   8.381
  954POPC   C3B16977  10.876  30.254   7.967
  954POPC   C4B16978  11.124  30.000   7.720
  955POPC   NC316979  17.327  13.896   9.329
  955POPC   PO416980  17.654  13.245   9.442
  955POPC   GL116981  17.443  13.395   9.107
  955POPC   GL216982  17.698  13.645   9.040
  955POPC   C1A16983  17.311  13.538   8.698
  955POPC   D2A16984  17.660  13.690   8.499
  955POPC   C3A16985  17.643  13.762   8.096
  955POPC   C4A16986  17.397  14.001   7.820
  955POPC   C1B16987  17.917  13.324   8.758
  955POPC   C2B16988  18.075  13.437   8.332
  955POPC   C3B16989  17.962  13.399   7.897
  955POPC   C4B16990  17.570  13.419   7.735
  956POPC   NC316991   6.225  15.228   9.493
  956POPC   PO416992   5.644  14.935   9.611
  956POPC   GL116993   5.864  14.972   9.202
  956POPC   GL216994   5.881  15.316   9.125
  956POPC   C1A16995   5.654  14.973   8.789
  956POPC   D2A16996   5.583  14.998   8.353
  956POPC   C3A16997   5.927  15.206   8.150
  956POPC   C4A16998   5.965  15.107   7.695
  956POPC   C1B16999   5.812  15.478   8.735
  956POPC   C2B17000   5.559  15.495   8.395
  956POPC   C3B17001   5.734  15.677   8.073
  956POPC   C4B17002   6.100  15.593   7.851
  957POPC   NC317003  28.161  37.489   9.761
  957POPC   PO417004  28.802  37.533   9.570
  957POPC   GL117005  28.506  37.599   9.217
  957POPC   GL217006  28.148  37.548   9.224
  957POPC   C1A17007  28.405  37.916   8.866
  957POPC   D2A17008  28.442  38.065   8.428
  957POPC   C3A17009  28.696  37.786   8.170
  957POPC   C4A17010  28.686  37.852   7.735
  957POPC   C1B17011  28.027  37.618   8.757
  957POPC   C2B17012  28.219  37.593   8.326
  957POPC   C3B17013  28.206  37.580   7.852
  957POPC   C4B17014  28.338  37.503   7.407
  958POPC   NC317015  30.099   6.781   9.503
  958POPC   PO417016  29.606   6.422   9.554
  958POPC   GL117017  29.717   6.693   9.182
  958POPC   GL217018  30.044   6.608   9.035
  958POPC   C1A17019  29.776   6.957   8.792
  958POPC   D2A17020  30.056   6.870   8.402
  958POPC   C3A17021  29.883   6.984   7.981
  958POPC   C4A17022  29.869   6.914   7.517
  958POPC   C1B17023  29.929   6.438   8.650
  958POPC   C2B17024  29.906   6.346   8.207
  958POPC   C3B17025  29.923   6.503   7.817
  958POPC   C4B17026  30.267   6.461   7.570
  959POPC   NC317027  35.208  41.425   9.588
  959POPC   PO417028  35.486  42.034   9.541
  959POPC   GL117029  35.311  41.871   9.140
  959POPC   GL217030  35.326  41.504   9.106
  959POPC   C1A17031  35.293  41.799   8.688
  959POPC   D2A17032  35.124  41.862   8.274
  959POPC   C3A17033  35.422  41.708   7.949
  959POPC   C4A17034  35.494  41.853   7.508
  959POPC   C1B17035  35.213  41.267   8.766
  959POPC   C2B17036  35.312  41.385   8.368
  959POPC   C3B17037  35.155  41.235   8.003
  959POPC   C4B17038  35.356  41.118   7.634
  960POPC   NC317039  11.219  39.348   9.478
  960POPC   PO417040  11.327  38.709   9.531
  960POPC   GL117041  11.194  38.938   9.153
  960POPC   GL217042  11.486  39.137   9.093
  960POPC   C1A17043  11.139  39.089   8.704
  960POPC   D2A17044  11.315  39.066   8.281
  960POPC   C3A17045  11.012  39.199   7.994
  960POPC   C4A17046  11.049  39.190   7.564
  960POPC   C1B17047  11.663  39.158   8.666
  960POPC   C2B17048  11.683  39.429   8.274
  960POPC   C3B17049  11.502  39.321   7.839
  960POPC   C4B17050  11.495  39.306   7.375
  961POPC   NC317051  24.821  35.573   9.324
  961POPC   PO417052  24.091  35.554   9.387
  961POPC   GL117053  24.431  35.359   9.088
  961POPC   GL217054  24.222  35.407   8.852
  961POPC   C1A17055  24.677  35.210   8.740
  961POPC   D2A17056  24.591  35.355   8.332
  961POPC   C3A17057  24.439  35.104   7.957
  961POPC   C4A17058  24.448  35.210   7.514
  961POPC   C1B17059  24.207  35.817   8.623
  961POPC   C2B17060  24.090  35.818   8.204
  961POPC   C3B17061  24.156  35.558   7.870
  961POPC   C4B17062  23.995  35.415   7.500
  962POPC   NC317063   7.713  26.990   9.472
  962POPC   PO417064   8.298  26.839   9.753
  962POPC   GL117065   8.189  26.677   9.307
  962POPC   GL217066   7.921  26.417   9.265
  962POPC   C1A17067   8.249  26.608   8.858
  962POPC   D2A17068   8.027  26.830   8.548
  962POPC   C3A17069   8.179  26.869   8.130
  962POPC   C4A17070   8.327  27.117   7.794
  962POPC   C1B17071   7.718  26.539   8.870
  962POPC   C2B17072   7.679  26.475   8.411
  962POPC   C3B17073   7.757  26.595   8.012
  962POPC   C4B17074   7.843  26.949   7.719
  963POPC   NC317075  11.011  12.633   9.623
  963POPC   PO417076  11.101  13.363   9.499
  963POPC   GL117077  11.235  13.044   9.232
  963POPC   GL217078  11.399  13.225   8.996
  963POPC   C1A17079  11.159  12.776   8.852
  963POPC   D2A17080  11.238  12.593   8.442
  963POPC   C3A17081  11.264  12.848   8.092
  963POPC   C4A17082  11.385  12.593   7.765
  963POPC   C1B17083  11.310  13.157   8.552
  963POPC   C2B17084  11.619  13.173   8.200
  963POPC   C3B17085  11.718  12.989   7.805
  963POPC   C4B17086  11.438  12.988   7.434
  964POPC   NC317087  37.282  34.370   9.536
  964POPC   PO417088  36.730  34.747   9.769
  964POPC   GL117089  36.654  34.807   9.311
  964POPC   GL217090  36.634  34.446   9.194
  964POPC   C1A17091  36.880  34.852   8.905
  964POPC   D2A17092  37.098  34.645   8.588
  964POPC   C3A17093  37.049  34.800   8.177
  964POPC   C4A17094  37.065  34.780   7.745
  964POPC   C1B17095  36.608  34.462   8.735
  964POPC   C2B17096  36.740  34.414   8.304
  964POPC   C3B17097  36.607  34.574   7.906
  964POPC   C4B17098  36.632  34.653   7.456
  965POPC   NC317099  20.319  27.412   9.684
  965POPC   PO417100  20.789  27.857   9.519
  965POPC   GL117101  20.583  27.773   9.146
  965POPC   GL217102  20.247  27.639   9.229
  965POPC   C1A17103  20.743  27.704   8.707
  965POPC   D2A17104  20.717  27.280   8.450
  965POPC   C3A17105  20.704  27.389   7.998
  965POPC   C4A17106  20.982  27.703   7.797
  965POPC   C1B17107  20.358  27.407   8.840
  965POPC   C2B17108  20.318  27.596   8.424
  965POPC   C3B17109  20.241  27.750   8.032
  965POPC   C4B17110  20.348  27.571   7.627
  966POPC   NC317111  10.699  26.580   9.598
  966POPC   PO417112  10.240  27.071   9.512
  966POPC   GL117113  10.370  26.759   9.253
  966POPC   GL217114  10.683  26.816   9.123
  966POPC   C1A17115  10.249  26.711   8.843
  966POPC   D2A17116  10.453  26.782   8.471
  966POPC   C3A17117  10.238  26.736   8.114
  966POPC   C4A17118  10.521  26.813   7.787
  966POPC   C1B17119  10.912  26.838   8.725
  966POPC   C2B17120  11.066  26.800   8.305
  966POPC   C3B17121  10.973  27.019   7.912
  966POPC   C4B17122  10.930  26.867   7.461
  967POPC   NC317123   2.927  36.878   9.385
  967POPC   PO417124   2.553  37.415   9.675
  967POPC   GL117125   2.519  37.146   9.287
  967POPC   GL217126   2.419  36.779   9.187
  967POPC   C1A17127   2.769  37.212   8.863
  967POPC   D2A17128   2.984  36.913   8.573
  967POPC   C3A17129   2.970  37.011   8.143
  967POPC   C4A17130   3.093  36.692   7.841
  967POPC   C1B17131   2.341  36.974   8.830
  967POPC   C2B17132   2.477  36.982   8.445
  967POPC   C3B17133   2.600  36.685   8.145
  967POPC   C4B17134   2.560  36.852   7.758
  968POPC   NC317135  25.272  13.416   9.585
  968POPC   PO417136  24.928  12.866   9.694
  968POPC   GL117137  25.034  12.935   9.251
  968POPC   GL217138  25.390  13.064   9.234
  968POPC   C1A17139  25.273  12.707   8.896
  968POPC   D2A17140  25.501  12.634   8.485
  968POPC   C3A17141  25.397  12.787   8.119
  968POPC   C4A17142  25.251  12.592   7.781
  968POPC   C1B17143  25.643  13.072   8.864
  968POPC   C2B17144  25.574  13.170   8.456
  968POPC   C3B17145  25.477  13.331   8.062
  968POPC   C4B17146  25.327  13.087   7.716
  969POPC   NC317147   8.483  39.336   9.501
  969POPC   PO417148   9.044  38.900   9.559
  969POPC   GL117149   8.912  39.201   9.267
  969POPC   GL217150   8.626  39.053   9.108
  969POPC   C1A17151   9.078  39.316   8.878
  969POPC   D2A17152   9.217  39.235   8.450
  969POPC   C3A17153   8.998  39.495   8.150
  969POPC   C4A17154   9.014  39.454   7.736
  969POPC   C1B17155   8.586  39.309   8.750
  969POPC   C2B17156   8.657  39.170   8.341
  969POPC   C3B17157   8.431  39.032   7.981
  969POPC   C4B17158   8.551  39.126   7.569
  970POPC   NC317159  22.989  24.899   9.386
  970POPC   PO417160  23.239  25.467   9.393
  970POPC   GL117161  22.978  25.339   9.116
  970POPC   GL217162  23.223  25.085   8.992
  970POPC   C1A17163  22.764  25.203   8.764
  970POPC   D2A17164  22.603  25.188   8.363
  970POPC   C3A17165  22.921  25.071   8.076
  970POPC   C4A17166  22.851  25.215   7.684
  970POPC   C1B17167  23.285  25.440   8.733
  970POPC   C2B17168  23.059  25.495   8.402
  970POPC   C3B17169  23.246  25.585   8.054
  970POPC   C4B17170  23.309  25.426   7.666
  971POPC   NC317171  37.830   9.096   9.530
  971POPC   PO417172  38.028   8.578   9.290
  971POPC   GL117173  37.816   8.725   9.001
  971POPC   GL217174  37.506   8.882   9.168
  971POPC   C1A17175  37.896   8.698   8.558
  971POPC   D2A17176  37.763   9.041   8.300
  971POPC   C3A17177  37.916   9.140   7.919
  971POPC   C4A17178  37.622   9.385   7.654
  971POPC   C1B17179  37.448   8.907   8.701
  971POPC   C2B17180  37.440   8.634   8.328
  971POPC   C3B17181  37.420   8.782   7.947
  971POPC   C4B17182  37.247   9.008   7.592
  972POPC   NC317183   5.154  11.564   9.627
  972POPC   PO417184   4.800  11.056   9.639
  972POPC   GL117185   4.990  11.091   9.190
  972POPC   GL217186   5.015  11.432   9.160
  972POPC   C1A17187   4.913  11.179   8.724
  972POPC   D2A17188   4.962  11.072   8.304
  972POPC   C3A17189   5.284  11.108   8.033
  972POPC   C4A17190   5.085  11.246   7.693
  972POPC   C1B17191   5.155  11.619   8.789
  972POPC   C2B17192   5.287  11.513   8.351
  972POPC   C3B17193   5.332  11.662   7.893
  972POPC   C4B17194   5.317  11.590   7.419
  973POPC   NC317195  10.647  29.532   9.748
  973POPC   PO417196  10.371  30.153   9.609
  973POPC   GL117197  10.494  30.018   9.211
  973POPC   GL217198  10.333  30.310   9.129
  973POPC   C1A17199  10.324  29.828   8.819
  973POPC   D2A17200  10.218  29.533   8.466
  973POPC   C3A17201  10.274  29.736   8.044
  973POPC   C4A17202  10.603  29.860   7.752
  973POPC   C1B17203  10.552  30.301   8.768
  973POPC   C2B17204  10.425  30.103   8.399
  973POPC   C3B17205  10.367  30.316   8.044
  973POPC   C4B17206  10.470  30.334   7.642
  974POPC   NC317207   5.361  38.731   9.419
  974POPC   PO417208   4.758  38.414   9.270
  974POPC   GL117209   5.015  38.706   9.020
  974POPC   GL217210   5.349  38.617   8.938
  974POPC   C1A17211   5.035  38.699   8.552
  974POPC   D2A17212   4.812  38.401   8.280
  974POPC   C3A17213   4.807  38.584   7.863
  974POPC   C4A17214   5.116  38.646   7.533
  974POPC   C1B17215   5.449  38.260   8.744
  974POPC   C2B17216   5.318  38.122   8.359
  974POPC   C3B17217   5.222  38.309   8.006
  974POPC   C4B17218   5.314  38.185   7.648
  975POPC   NC317219  30.066   0.489   9.584
  975POPC   PO417220  29.926  44.921   9.605
  975POPC   GL117221  30.242   0.066   9.229
  975POPC   GL217222  30.168   0.396   9.070
  975POPC   C1A17223  30.371   0.076   8.734
  975POPC   D2A17224  30.270   0.009   8.253
  975POPC   C3A17225  30.024   0.272   7.947
  975POPC   C4A17226  29.704   0.467   7.693
  975POPC   C1B17227  30.209   0.557   8.636
  975POPC   C2B17228  30.369   0.553   8.220
  975POPC   C3B17229  30.257   0.709   7.794
  975POPC   C4B17230  29.902   0.923   7.545
  976POPC   NC317231   8.512  28.694   9.490
  976POPC   PO417232   8.231  28.036   9.625
  976POPC   GL117233   8.145  28.249   9.177
  976POPC   GL217234   8.336  28.548   9.032
  976POPC   C1A17235   7.994  28.350   8.723
  976POPC   D2A17236   8.252  28.249   8.336
  976POPC   C3A17237   8.051  28.384   7.969
  976POPC   C4A17238   7.739  28.564   7.741
  976POPC   C1B17239   8.592  28.437   8.698
  976POPC   C2B17240   8.785  28.428   8.294
  976POPC   C3B17241   8.554  28.525   7.933
  976POPC   C4B17242   8.542  28.657   7.496
  977POPC   NC317243   3.108  13.842   9.410
  977POPC   PO417244   2.588  13.390   9.521
  977POPC   GL117245   2.813  13.458   9.168
  977POPC   GL217246   2.661  13.780   9.186
  977POPC   C1A17247   2.931  13.470   8.716
  977POPC   D2A17248   3.115  13.378   8.305
  977POPC   C3A17249   2.829  13.517   7.967
  977POPC   C4A17250   2.494  13.359   7.698
  977POPC   C1B17251   2.456  13.665   8.826
  977POPC   C2B17252   2.427  13.872   8.436
  977POPC   C3B17253   2.323  13.686   8.058
  977POPC   C4B17254   2.345  13.864   7.672
  978POPC   NC317255   5.701  28.133   9.605
  978POPC   PO417256   6.310  28.355   9.490
  978POPC   GL117257   6.103  28.531   9.133
  978POPC   GL217258   5.761  28.666   9.237
  978POPC   C1A17259   5.928  28.278   8.790
  978POPC   D2A17260   5.959  28.103   8.360
  978POPC   C3A17261   6.049  28.413   8.015
  978POPC   C4A17262   6.360  28.636   7.752
  978POPC   C1B17263   5.554  28.631   8.850
  978POPC   C2B17264   5.724  28.583   8.420
  978POPC   C3B17265   5.544  28.327   8.106
  978POPC   C4B17266   5.539  28.171   7.692
  979POPC   NC317267  42.832  42.746   9.466
  979POPC   PO417268  42.210  42.424   9.563
  979POPC   GL117269  42.347  42.241   9.173
  979POPC   GL217270  42.695  42.284   9.236
  979POPC   C1A17271  42.271  42.203   8.715
  979POPC   D2A17272  41.983  42.492   8.451
  979POPC   C3A17273  42.046  42.474   7.987
  979POPC   C4A17274  42.174  42.323   7.558
  979POPC   C1B17275  42.780  42.332   8.785
  979POPC   C2B17276  42.797  42.165   8.360
  979POPC   C3B17277  42.532  42.275   7.989
  979POPC   C4B17278  42.603  42.560   7.634
  980POPC   NC317279  29.929   7.766   9.518
  980POPC   PO417280  29.808   7.135   9.478
  980POPC   GL117281  29.655   7.431   9.190
  980POPC   GL217282  29.976   7.502   9.068
  980POPC   C1A17283  29.589   7.475   8.743
  980POPC   D2A17284  29.630   7.216   8.370
  980POPC   C3A17285  29.582   7.404   7.967
  980POPC   C4A17286  29.736   7.437   7.549
  980POPC   C1B17287  30.082   7.342   8.641
  980POPC   C2B17288  30.233   7.310   8.211
  980POPC   C3B17289  30.182   7.439   7.802
  980POPC   C4B17290  30.211   7.310   7.383
  981POPC   NC317291   3.077  36.228   9.326
  981POPC   PO417292   2.625  36.585   9.590
  981POPC   GL117293   2.556  36.242   9.219
  981POPC   GL217294   2.768  35.905   9.080
  981POPC   C1A17295   2.466  36.130   8.762
  981POPC   D2A17296   2.426  36.195   8.320
  981POPC   C3A17297   2.844  36.228   8.112
  981POPC   C4A17298   2.727  36.378   7.714
  981POPC   C1B17299   3.141  35.899   8.765
  981POPC   C2B17300   3.245  35.915   8.323
  981POPC   C3B17301   3.086  35.688   7.978
  981POPC   C4B17302   3.035  35.681   7.542
  982POPC   NC317303  42.626   9.134   9.531
  982POPC   PO417304  42.186   8.607   9.528
  982POPC   GL117305  42.464   8.710   9.173
  982POPC   GL217306  42.397   9.055   9.094
  982POPC   C1A17307  42.393   8.712   8.733
  982POPC   D2A17308  42.363   9.017   8.403
  982POPC   C3A17309  42.454   8.780   8.030
  982POPC   C4A17310  42.302   8.764   7.606
  982POPC   C1B17311  42.696   9.149   8.804
  982POPC   C2B17312  42.696   9.426   8.494
  982POPC   C3B17313  42.757   9.217   8.124
  982POPC   C4B17314  42.533   9.208   7.751
  983POPC   NC317315  36.008   1.436   9.873
  983POPC   PO417316  36.383   1.217   9.389
  983POPC   GL117317  36.185   1.063   9.053
  983POPC   GL217318  35.806   1.089   9.018
  983POPC   C1A17319  36.348   1.055   8.686
  983POPC   D2A17320  36.227   0.928   8.317
  983POPC   C3A17321  36.481   1.085   8.048
  983POPC   C4A17322  36.387   0.969   7.670
  983POPC   C1B17323  35.856   1.173   8.617
  983POPC   C2B17324  35.844   1.248   8.214
  983POPC   C3B17325  36.090   1.368   7.917
  983POPC   C4B17326  36.011   1.735   7.754
  984POPC   NC317327   6.407  28.821   9.437
  984POPC   PO417328   6.636  29.430   9.508
  984POPC   GL117329   6.683  29.181   9.115
  984POPC   GL217330   6.483  28.884   8.938
  984POPC   C1A17331   6.873  29.119   8.684
  984POPC   D2A17332   6.956  29.401   8.346
  984POPC   C3A17333   6.759  29.444   7.923
  984POPC   C4A17334   6.804  29.322   7.464
  984POPC   C1B17335   6.380  29.243   8.733
  984POPC   C2B17336   6.447  29.404   8.366
  984POPC   C3B17337   6.260  29.404   8.009
  984POPC   C4B17338   6.373  29.144   7.733
  985POPC   NC317339   6.039  34.340   9.442
  985POPC   PO417340   5.569  34.867   9.454
  985POPC   GL117341   5.711  34.639   9.070
  985POPC   GL217342   5.758  34.258   9.020
  985POPC   C1A17343   5.925  34.622   8.663
  985POPC   D2A17344   6.093  34.868   8.321
  985POPC   C3A17345   5.771  34.942   8.002
  985POPC   C4A17346   5.925  34.847   7.609
  985POPC   C1B17347   5.527  34.289   8.625
  985POPC   C2B17348   5.609  34.514   8.253
  985POPC   C3B17349   5.994  34.480   7.996
  985POPC   C4B17350   6.163  34.369   7.614
  986POPC   NC317351   4.070   1.107   9.393
  986POPC   PO417352   4.675   1.236   9.715
  986POPC   GL117353   4.683   1.299   9.170
  986POPC   GL217354   4.454   1.074   9.060
  986POPC   C1A17355   4.480   1.418   8.686
  986POPC   D2A17356   4.072   1.504   8.408
  986POPC   C3A17357   4.124   1.396   7.959
  986POPC   C4A17358   4.521   1.214   7.815
  986POPC   C1B17359   4.330   0.925   8.708
  986POPC   C2B17360   4.377   1.075   8.291
  986POPC   C3B17361   4.150   0.874   7.922
  986POPC   C4B17362   4.108   1.086   7.516
  987POPC   NC317363   3.503  35.418   9.561
  987POPC   PO417364   4.057  35.109   9.558
  987POPC   GL117365   3.755  35.253   9.167
  987POPC   GL217366   3.318  35.369   9.109
  987POPC   C1A17367   3.613  35.252   8.752
  987POPC   D2A17368   3.319  35.412   8.486
  987POPC   C3A17369   3.508  35.392   8.081
  987POPC   C4A17370   3.644  35.376   7.640
  987POPC   C1B17371   3.153  35.010   8.829
  987POPC   C2B17372   3.112  34.877   8.401
  987POPC   C3B17373   3.047  35.190   8.117
  987POPC   C4B17374   3.181  35.218   7.679
  988POPC   NC317375   6.318  32.865   9.715
  988POPC   PO417376   5.756  33.117   9.430
  988POPC   GL117377   5.745  32.856   9.069
  988POPC   GL217378   6.057  32.773   9.053
  988POPC   C1A17379   5.817  32.764   8.621
  988POPC   D2A17380   5.800  33.111   8.331
  988POPC   C3A17381   5.740  32.917   7.968
  988POPC   C4A17382   6.012  32.603   7.791
  988POPC   C1B17383   6.065  33.180   8.783
  988POPC   C2B17384   6.310  33.239   8.413
  988POPC   C3B17385   6.267  32.995   8.042
  988POPC   C4B17386   6.092  33.071   7.623
  989POPC   NC317387  31.311  44.772   9.950
  989POPC   PO417388  31.474   0.317   9.535
  989POPC   GL117389  31.512   0.485   9.140
  989POPC   GL217390  31.474   0.815   9.144
  989POPC   C1A17391  31.276   0.537   8.754
  989POPC   D2A17392  31.390   0.296   8.421
  989POPC   C3A17393  31.192   0.076   8.089
  989POPC   C4A17394  31.342   0.217   7.701
  989POPC   C1B17395  31.601   0.959   8.757
  989POPC   C2B17396  31.620   0.799   8.363
  989POPC   C3B17397  31.410   0.617   8.020
  989POPC   C4B17398  31.525   0.757   7.630
  990POPC   NC317399  38.937  43.334   9.476
  990POPC   PO417400  39.302  42.664   9.527
  990POPC   GL117401  39.369  42.917   9.117
  990POPC   GL217402  39.508  43.270   9.035
  990POPC   C1A17403  39.315  42.965   8.671
  990POPC   D2A17404  39.193  43.186   8.295
  990POPC   C3A17405  39.376  43.144   7.882
  990POPC   C4A17406  39.677  43.436   7.690
  990POPC   C1B17407  39.081  43.384   8.821
  990POPC   C2B17408  38.834  43.528   8.477
  990POPC   C3B17409  38.998  43.697   8.115
  990POPC   C4B17410  39.153  43.594   7.714
  991POPC   NC317411  36.205  25.677   9.631
  991POPC   PO417412  35.860  25.157   9.606
  991POPC   GL117413  36.137  25.300   9.244
  991POPC   GL217414  36.457  25.073   9.136
  991POPC   C1A17415  36.086  25.255   8.814
  991POPC   D2A17416  36.095  25.514   8.457
  991POPC   C3A17417  36.097  25.372   8.065
  991POPC   C4A17418  36.225  25.522   7.683
  991POPC   C1B17419  36.442  24.890   8.757
  991POPC   C2B17420  36.212  24.984   8.400
  991POPC   C3B17421  36.495  25.058   8.053
  991POPC   C4B17422  36.675  24.884   7.725
  992POPC   NC317423  12.509  19.861   9.361
  992POPC   PO417424  13.018  19.441   9.569
  992POPC   GL117425  12.903  19.626   9.148
  992POPC   GL217426  12.881  20.016   9.076
  992POPC   C1A17427  12.986  19.732   8.703
  992POPC   D2A17428  13.118  19.626   8.344
  992POPC   C3A17429  12.904  19.911   8.118
  992POPC   C4A17430  12.747  19.695   7.787
  992POPC   C1B17431  12.622  20.161   8.734
  992POPC   C2B17432  12.437  20.045   8.330
  992POPC   C3B17433  12.481  20.125   7.879
  992POPC   C4B17434  12.342  19.878   7.546
  993POPC   NC317435  34.357  37.114   9.510
  993POPC   PO417436  34.784  36.564   9.630
  993POPC   GL117437  34.598  36.843   9.192
  993POPC   GL217438  34.843  37.085   9.079
  993POPC   C1A17439  34.350  37.079   8.877
  993POPC   D2A17440  34.255  36.933   8.485
  993POPC   C3A17441  34.344  36.761   8.107
  993POPC   C4A17442  34.341  36.790   7.686
  993POPC   C1B17443  34.731  36.885   8.650
  993POPC   C2B17444  34.847  36.879   8.268
  993POPC   C3B17445  34.804  36.621   7.914
  993POPC   C4B17446  35.064  36.871   7.680
  994POPC   NC317447  27.338  14.524   9.303
  994POPC   PO417448  27.935  14.432   9.689
  994POPC   GL117449  27.782  14.238   9.247
  994POPC   GL217450  27.473  14.141   9.021
  994POPC   C1A17451  27.876  14.180   8.758
  994POPC   D2A17452  27.665  14.485   8.464
  994POPC   C3A17453  27.723  14.397   8.033
  994POPC   C4A17454  28.038  14.100   7.881
  994POPC   C1B17455  27.221  14.262   8.664
  994POPC   C2B17456  27.343  14.106   8.250
  994POPC   C3B17457  27.196  14.300   7.890
  994POPC   C4B17458  27.338  14.713   7.842
  995POPC   NC317459   3.346  14.608   9.673
  995POPC   PO417460   3.613  14.004   9.467
  995POPC   GL117461   3.587  14.391   9.265
  995POPC   GL217462   3.910  14.447   9.072
  995POPC   C1A17463   3.429  14.553   8.901
  995POPC   D2A17464   3.604  14.529   8.500
  995POPC   C3A17465   3.383  14.634   8.117
  995POPC   C4A17466   3.273  14.383   7.740
  995POPC   C1B17467   3.756  14.120   8.801
  995POPC   C2B17468   3.898  14.085   8.375
  995POPC   C3B17469   3.858  14.435   8.077
  995POPC   C4B17470   3.791  14.423   7.647
  996POPC   NC317471  20.210  43.649   9.532
  996POPC   PO417472  19.832  44.257   9.550
  996POPC   GL117473  20.083  44.074   9.222
  996POPC   GL217474  19.857  43.823   9.129
  996POPC   C1A17475  20.076  44.118   8.762
  996POPC   D2A17476  20.023  44.349   8.357
  996POPC   C3A17477  20.031  44.117   7.978
  996POPC   C4A17478  19.700  44.119   7.704
  996POPC   C1B17479  19.737  43.662   8.718
  996POPC   C2B17480  19.727  43.814   8.298
  996POPC   C3B17481  19.428  43.791   7.965
  996POPC   C4B17482  19.491  43.659   7.534
  997POPC   NC317483  29.138  26.787   9.487
  997POPC   PO417484  29.599  27.081   9.247
  997POPC   GL117485  29.293  26.762   9.013
  997POPC   GL217486  28.891  26.680   9.060
  997POPC   C1A17487  29.131  26.906   8.643
  997POPC   D2A17488  29.417  27.071   8.374
  997POPC   C3A17489  29.315  27.116   7.951
  997POPC   C4A17490  29.419  26.777   7.685
  997POPC   C1B17491  29.048  26.411   8.693
  997POPC   C2B17492  29.125  26.541   8.254
  997POPC   C3B17493  28.949  26.745   7.874
  997POPC   C4B17494  29.028  26.625   7.403
  998POPC   NC317495  17.842  12.089   9.572
  998POPC   PO417496  17.205  11.940   9.550
  998POPC   GL117497  17.448  12.159   9.194
  998POPC   GL217498  17.814  12.355   9.155
  998POPC   C1A17499  17.303  12.035   8.787
  998POPC   D2A17500  17.173  12.255   8.423
  998POPC   C3A17501  17.305  12.037   8.078
  998POPC   C4A17502  17.533  11.972   7.718
  998POPC   C1B17503  17.816  12.104   8.806
  998POPC   C2B17504  17.669  12.112   8.432
  998POPC   C3B17505  17.815  12.192   8.057
  998POPC   C4B17506  17.724  12.450   7.705
  999POPC   NC317507  12.037   6.415   9.342
  999POPC   PO417508  12.105   5.969   9.813
  999POPC   GL117509  11.904   5.925   9.370
  999POPC   GL217510  12.179   5.899   9.153
  999POPC   C1A17511  11.772   5.914   8.874
  999POPC   D2A17512  11.838   5.994   8.389
  999POPC   C3A17513  11.935   5.785   7.968
  999POPC   C4A17514  12.126   5.366   7.882
  999POPC   C1B17515  12.255   5.905   8.701
  999POPC   C2B17516  12.317   5.695   8.305
  999POPC   C3B17517  12.454   5.768   7.890
  999POPC   C4B17518  12.302   5.947   7.551
 1000POPC   NC317519  16.992  17.316   9.560
 1000POPC   PO417520  16.423  17.321   9.478
 1000POPC   GL117521  16.627  17.495   9.146
 1000POPC   GL217522  16.959  17.411   9.059
 1000POPC   C1A17523  16.530  17.649   8.755
 1000POPC   D2A17524  16.537  17.474   8.340
 1000POPC   C3A17525  16.563  17.759   7.995
 1000POPC   C4A17526  16.414  17.669   7.592
 1000POPC   C1B17527  17.014  17.552   8.627
 1000POPC   C2B17528  17.016  17.473   8.166
 1000POPC   C3B17529  16.891  17.447   7.711
 1000POPC   C4B17530  17.050  17.403   7.273
 1001POPC   NC317531  13.978  12.608   9.557
 1001POPC   PO417532  13.282  12.454   9.406
 1001POPC   GL117533  13.493  12.663   9.077
 1001POPC   GL217534  13.543  13.027   9.002
 1001POPC   C1A17535  13.454  12.707   8.632
 1001POPC   D2A17536  13.827  12.750   8.429
 1001POPC   C3A17537  13.780  12.665   7.996
 1001POPC   C4A17538  13.513  12.982   7.828
 1001POPC   C1B17539  13.967  13.100   8.821
 1001POPC   C2B17540  14.182  13.124   8.449
 1001POPC   C3B17541  13.915  13.150   8.125
 1001POPC   C4B17542  14.026  13.097   7.763
 1002POPC   NC317543  12.522   9.554   9.448
 1002POPC   PO417544  13.102   9.871   9.490
 1002POPC   GL117545  12.919   9.696   9.154
 1002POPC   GL217546  12.946   9.355   9.161
 1002POPC   C1A17547  12.962   9.628   8.732
 1002POPC   D2A17548  12.828   9.925   8.445
 1002POPC   C3A17549  12.950   9.946   8.032
 1002POPC   C4A17550  12.666  10.086   7.798
 1002POPC   C1B17551  12.540   9.346   8.859
 1002POPC   C2B17552  12.565   9.459   8.429
 1002POPC   C3B17553  12.791   9.460   8.061
 1002POPC   C4B17554  12.596   9.577   7.708
 1003POPC   NC317555  36.309  24.987   9.615
 1003POPC   PO417556  35.921  24.385   9.501
 1003POPC   GL117557  36.128  24.524   9.173
 1003POPC   GL217558  36.014  24.824   9.138
 1003POPC   C1A17559  36.172  24.481   8.740
 1003POPC   D2A17560  36.400  24.496   8.408
 1003POPC   C3A17561  36.245  24.620   8.068
 1003POPC   C4A17562  36.029  24.475   7.812
 1003POPC   C1B17563  35.770  24.815   8.781
 1003POPC   C2B17564  35.787  24.681   8.375
 1003POPC   C3B17565  35.827  24.921   8.037
 1003POPC   C4B17566  36.103  24.991   7.714
 1004POPC   NC317567   3.042   1.658   9.419
 1004POPC   PO417568   2.948   2.280   9.289
 1004POPC   GL117569   2.985   1.921   8.994
 1004POPC   GL217570   2.743   1.664   9.016
 1004POPC   C1A17571   3.014   1.743   8.592
 1004POPC   D2A17572   2.670   1.777   8.319
 1004POPC   C3A17573   2.690   2.033   7.979
 1004POPC   C4A17574   2.976   2.251   7.730
 1004POPC   C1B17575   2.385   1.708   8.786
 1004POPC   C2B17576   2.164   1.769   8.412
 1004POPC   C3B17577   2.287   1.560   8.059
 1004POPC   C4B17578   2.649   1.587   7.743
 1005POPC   NC317579  25.230  33.890   9.610
 1005POPC   PO417580  25.533  33.451   9.478
 1005POPC   GL117581  25.287  33.694   9.128
 1005POPC   GL217582  25.183  34.055   9.129
 1005POPC   C1A17583  25.048  33.757   8.720
 1005POPC   D2A17584  25.015  33.988   8.315
 1005POPC   C3A17585  25.031  33.789   7.922
 1005POPC   C4A17586  24.881  33.867   7.510
 1005POPC   C1B17587  25.186  34.255   8.719
 1005POPC   C2B17588  25.418  34.292   8.301
 1005POPC   C3B17589  25.330  34.197   7.875
 1005POPC   C4B17590  25.478  33.850   7.628
 1006POPC   NC317591  23.033  43.361   9.527
 1006POPC   PO417592  22.778  42.758   9.432
 1006POPC   GL117593  22.891  43.065   9.098
 1006POPC   GL217594  22.584  43.237   8.966
 1006POPC   C1A17595  22.885  43.052   8.634
 1006POPC   D2A17596  22.775  42.843   8.302
 1006POPC   C3A17597  22.851  43.053   7.968
 1006POPC   C4A17598  23.151  42.802   7.752
 1006POPC   C1B17599  22.439  42.830   8.719
 1006POPC   C2B17600  22.285  42.727   8.269
 1006POPC   C3B17601  22.552  42.678   7.856
 1006POPC   C4B17602  22.609  42.998   7.494
 1007POPC   NC317603   7.631  14.408   9.547
 1007POPC   PO417604   6.944  14.209   9.505
 1007POPC   GL117605   7.258  14.247   9.214
 1007POPC   GL217606   7.280  14.609   9.189
 1007POPC   C1A17607   7.445  14.290   8.816
 1007POPC   D2A17608   7.267  14.471   8.433
 1007POPC   C3A17609   7.465  14.385   8.036
 1007POPC   C4A17610   7.366  14.060   7.778
 1007POPC   C1B17611   7.024  14.752   8.834
 1007POPC   C2B17612   6.831  14.741   8.407
 1007POPC   C3B17613   6.982  14.565   8.010
 1007POPC   C4B17614   7.011  14.757   7.622
 1008POPC   NC317615   3.456  25.568   9.269
 1008POPC   PO417616   3.804  26.182   9.420
 1008POPC   GL117617   3.484  26.080   9.135
 1008POPC   GL217618   3.111  26.075   9.260
 1008POPC   C1A17619   3.632  26.051   8.709
 1008POPC   D2A17620   3.649  25.831   8.314
 1008POPC   C3A17621   3.602  26.092   7.967
 1008POPC   C4A17622   3.704  25.937   7.574
 1008POPC   C1B17623   3.101  26.086   8.803
 1008POPC   C2B17624   3.253  26.189   8.391
 1008POPC   C3B17625   3.158  25.861   8.107
 1008POPC   C4B17626   3.167  25.945   7.684
 1009POPC   NC317627   0.227  22.322   9.722
 1009POPC   PO417628   0.739  21.887   9.617
 1009POPC   GL117629   0.435  22.128   9.285
 1009POPC   GL217630   0.418  21.868   9.079
 1009POPC   C1A17631   0.335  22.285   8.803
 1009POPC   D2A17632   0.501  22.165   8.350
 1009POPC   C3A17633   0.312  22.379   8.004
 1009POPC   C4A17634   0.051  22.234   7.687
 1009POPC   C1B17635   0.354  21.805   8.670
 1009POPC   C2B17636   0.123  21.812   8.316
 1009POPC   C3B17637   0.241  21.852   7.929
 1009POPC   C4B17638   0.607  22.052   7.757
 1010POPC   NC317639   8.955  33.324   9.430
 1010POPC   PO417640   9.058  32.658   9.572
 1010POPC   GL117641   8.884  32.859   9.190
 1010POPC   GL217642   8.746  33.154   9.010
 1010POPC   C1A17643   8.752  32.686   8.820
 1010POPC   D2A17644   8.576  32.904   8.509
 1010POPC   C3A17645   8.897  32.915   8.186
 1010POPC   C4A17646   9.140  33.089   7.843
 1010POPC   C1B17647   9.012  33.144   8.650
 1010POPC   C2B17648   9.089  33.394   8.286
 1010POPC   C3B17649   9.357  33.561   7.953
 1010POPC   C4B17650   9.588  33.513   7.555
 1011POPC   NC317651   2.189  16.337   9.457
 1011POPC   PO417652   1.989  15.798   9.819
 1011POPC   GL117653   2.049  15.813   9.324
 1011POPC   GL217654   2.347  15.648   9.169
 1011POPC   C1A17655   1.981  16.009   8.887
 1011POPC   D2A17656   2.136  15.994   8.445
 1011POPC   C3A17657   1.876  16.080   8.088
 1011POPC   C4A17658   1.882  15.931   7.676
 1011POPC   C1B17659   2.486  15.744   8.723
 1011POPC   C2B17660   2.483  15.670   8.245
 1011POPC   C3B17661   2.354  15.818   7.819
 1011POPC   C4B17662   2.528  15.831   7.380
 1012POPC   NC317663  20.981   3.980   9.452
 1012POPC   PO417664  20.612   3.458   9.654
 1012POPC   GL117665  20.638   3.631   9.263
 1012POPC   GL217666  20.634   3.292   9.179
 1012POPC   C1A17667  20.531   3.652   8.823
 1012POPC   D2A17668  20.272   3.751   8.484
 1012POPC   C3A17669  20.428   3.735   8.077
 1012POPC   C4A17670  20.445   3.468   7.729
 1012POPC   C1B17671  20.623   3.143   8.795
 1012POPC   C2B17672  20.691   3.201   8.403
 1012POPC   C3B17673  20.533   3.074   8.073
 1012POPC   C4B17674  20.687   3.007   7.697
 1013POPC   NC317675  32.374  20.198   9.629
 1013POPC   PO417676  32.270  20.842   9.521
 1013POPC   GL117677  32.301  20.647   9.137
 1013POPC   GL217678  32.591  20.886   9.075
 1013POPC   C1A17679  32.122  20.416   8.769
 1013POPC   D2A17680  31.907  20.346   8.364
 1013POPC   C3A17681  32.198  20.294   8.025
 1013POPC   C4A17682  32.473  20.622   7.824
 1013POPC   C1B17683  32.446  20.870   8.675
 1013POPC   C2B17684  32.323  20.877   8.272
 1013POPC   C3B17685  32.004  20.758   8.029
 1013POPC   C4B17686  31.921  20.565   7.694
 1014POPC   NC317687  32.512  23.998   9.473
 1014POPC   PO417688  32.006  23.647   9.638
 1014POPC   GL117689  32.088  23.808   9.218
 1014POPC   GL217690  32.186  23.479   9.130
 1014POPC   C1A17691  32.234  23.844   8.762
 1014POPC   D2A17692  32.318  23.654   8.331
 1014POPC   C3A17693  32.319  23.965   7.979
 1014POPC   C4A17694  32.467  24.033   7.543
 1014POPC   C1B17695  31.792  23.541   8.874
 1014POPC   C2B17696  31.805  23.641   8.436
 1014POPC   C3B17697  31.925  23.574   7.983
 1014POPC   C4B17698  32.035  23.782   7.608
 1015POPC   NC317699  15.533  34.337   9.342
 1015POPC   PO417700  16.130  34.626   9.451
 1015POPC   GL117701  16.144  34.615   9.028
 1015POPC   GL217702  15.917  34.349   9.016
 1015POPC   C1A17703  16.251  34.448   8.627
 1015POPC   D2A17704  16.024  34.536   8.259
 1015POPC   C3A17705  16.093  34.739   7.872
 1015POPC   C4A17706  16.165  34.495   7.553
 1015POPC   C1B17707  15.699  34.559   8.682
 1015POPC   C2B17708  15.558  34.752   8.310
 1015POPC   C3B17709  15.626  34.569   7.927
 1015POPC   C4B17710  15.670  34.611   7.505
 1016POPC   NC317711  30.128   1.905   9.749
 1016POPC   PO417712  29.666   2.217   9.678
 1016POPC   GL117713  29.914   2.124   9.262
 1016POPC   GL217714  30.004   1.784   9.137
 1016POPC   C1A17715  30.102   2.165   8.799
 1016POPC   D2A17716  30.161   1.938   8.378
 1016POPC   C3A17717  30.069   2.043   7.924
 1016POPC   C4A17718  30.254   2.297   7.586
 1016POPC   C1B17719  29.767   1.794   8.697
 1016POPC   C2B17720  29.657   1.920   8.230
 1016POPC   C3B17721  29.584   1.979   7.750
 1016POPC   C4B17722  29.536   2.043   7.279
 1017POPC   NC317723  42.000  33.233   9.542
 1017POPC   PO417724  42.403  32.820   9.492
 1017POPC   GL117725  42.479  32.854   9.060
 1017POPC   GL217726  42.521  32.504   8.955
 1017POPC   C1A17727  42.320  33.005   8.655
 1017POPC   D2A17728  42.414  32.852   8.223
 1017POPC   C3A17729  42.185  32.949   7.879
 1017POPC   C4A17730  42.093  33.312   7.620
 1017POPC   C1B17731  42.752  32.733   8.623
 1017POPC   C2B17732  42.761  33.168   8.427
 1017POPC   C3B17733  42.628  33.251   7.993
 1017POPC   C4B17734  42.692  32.891   7.729
 1018POPC   NC317735  25.082  11.464   9.477
 1018POPC   PO417736  25.659  11.234   9.475
 1018POPC   GL117737  25.376  11.202   9.149
 1018POPC   GL217738  25.518  11.488   9.004
 1018POPC   C1A17739  25.059  11.336   8.823
 1018POPC   D2A17740  25.093  11.291   8.383
 1018POPC   C3A17741  25.030  11.517   8.020
 1018POPC   C4A17742  24.977  11.292   7.656
 1018POPC   C1B17743  25.512  11.148   8.665
 1018POPC   C2B17744  25.628  11.225   8.238
 1018POPC   C3B17745  25.451  11.230   7.819
 1018POPC   C4B17746  25.451  11.403   7.363
 1019POPC   NC317747   9.120  18.235   9.550
 1019POPC   PO417748   8.490  18.288   9.671
 1019POPC   GL117749   8.715  18.216   9.234
 1019POPC   GL217750   8.987  17.975   9.147
 1019POPC   C1A17751   8.997  18.362   8.843
 1019POPC   D2A17752   8.854  18.517   8.476
 1019POPC   C3A17753   9.041  18.415   8.080
 1019POPC   C4A17754   8.842  18.577   7.713
 1019POPC   C1B17755   8.737  17.929   8.792
 1019POPC   C2B17756   8.909  17.994   8.405
 1019POPC   C3B17757   8.729  18.011   8.012
 1019POPC   C4B17758   8.914  18.059   7.644
 1020POPC   NC317759  37.263  28.106   9.510
 1020POPC   PO417760  37.599  27.534   9.545
 1020POPC   GL117761  37.659  27.751   9.140
 1020POPC   GL217762  37.344  27.824   9.102
 1020POPC   C1A17763  37.813  27.676   8.687
 1020POPC   D2A17764  37.828  27.380   8.365
 1020POPC   C3A17765  37.780  27.438   7.942
 1020POPC   C4A17766  37.794  27.069   7.618
 1020POPC   C1B17767  37.293  27.692   8.689
 1020POPC   C2B17768  37.432  27.765   8.300
 1020POPC   C3B17769  37.239  27.561   7.962
 1020POPC   C4B17770  37.393  27.369   7.593
 1021POPC   NC317771  35.629  34.331   9.401
 1021POPC   PO417772  34.945  34.264   9.523
 1021POPC   GL117773  35.171  34.482   9.183
 1021POPC   GL217774  35.406  34.759   9.065
 1021POPC   C1A17775  35.166  34.423   8.743
 1021POPC   D2A17776  35.396  34.467   8.372
 1021POPC   C3A17777  35.213  34.502   8.017
 1021POPC   C4A17778  35.335  34.817   7.758
 1021POPC   C1B17779  35.695  34.486   8.787
 1021POPC   C2B17780  35.800  34.189   8.459
 1021POPC   C3B17781  35.847  34.327   8.047
 1021POPC   C4B17782  35.603  34.390   7.697
 1022POPC   NC317783  30.780   5.507   9.549
 1022POPC   PO417784  31.144   6.098   9.678
 1022POPC   GL117785  30.987   5.886   9.274
 1022POPC   GL217786  30.607   5.917   9.268
 1022POPC   C1A17787  30.909   5.732   8.840
 1022POPC   D2A17788  30.736   5.965   8.462
 1022POPC   C3A17789  30.902   5.999   8.052
 1022POPC   C4A17790  31.017   5.780   7.675
 1022POPC   C1B17791  30.431   5.903   8.851
 1022POPC   C2B17792  30.150   5.980   8.508
 1022POPC   C3B17793  30.352   6.085   8.131
 1022POPC   C4B17794  30.479   5.753   7.875
 1023POPC   NC317795  30.112  20.289   9.392
 1023POPC   PO417796  29.624  20.618   9.698
 1023POPC   GL117797  29.765  20.638   9.255
 1023POPC   GL217798  29.689  20.328   9.082
 1023POPC   C1A17799  29.904  20.756   8.821
 1023POPC   D2A17800  29.659  20.845   8.450
 1023POPC   C3A17801  29.797  20.781   8.051
 1023POPC   C4A17802  29.829  20.861   7.631
 1023POPC   C1B17803  30.031  20.270   8.777
 1023POPC   C2B17804  29.996  20.440   8.387
 1023POPC   C3B17805  29.970  20.291   7.986
 1023POPC   C4B17806  29.910  20.341   7.555
 1024POPC   NC317807  33.384  33.085   9.418
 1024POPC   PO417808  33.939  33.368   9.623
 1024POPC   GL117809  33.915  33.198   9.186
 1024POPC   GL217810  33.925  32.845   9.162
 1024POPC   C1A17811  33.683  33.143   8.776
 1024POPC   D2A17812  33.683  32.994   8.332
 1024POPC   C3A17813  33.986  33.135   8.012
 1024POPC   C4A17814  33.960  33.199   7.570
 1024POPC   C1B17815  34.050  32.751   8.719
 1024POPC   C2B17816  33.899  32.520   8.328
 1024POPC   C3B17817  33.787  32.657   7.920
 1024POPC   C4B17818  34.075  32.679   7.595
 1025POPC   NC317819  10.106  38.793  10.011
 1025POPC   PO417820  10.415  38.392   9.519
 1025POPC   GL117821  10.551  38.292   9.162
 1025POPC   GL217822  10.513  38.612   9.056
 1025POPC   C1A17823  10.756  38.209   8.777
 1025POPC   D2A17824  10.766  38.322   8.339
 1025POPC   C3A17825  10.418  38.249   8.044
 1025POPC   C4A17826  10.632  38.111   7.691
 1025POPC   C1B17827  10.641  38.719   8.650
 1025POPC   C2B17828  10.856  38.823   8.299
 1025POPC   C3B17829  10.672  38.660   7.917
 1025POPC   C4B17830  10.242  38.692   7.811
 1026POPC   NC317831  32.265  31.427   9.466
 1026POPC   PO417832  32.435  32.067   9.454
 1026POPC   GL117833  32.269  31.822   9.115
 1026POPC   GL217834  32.489  31.501   9.022
 1026POPC   C1A17835  32.235  31.783   8.667
 1026POPC   D2A17836  31.979  31.558   8.398
 1026POPC   C3A17837  31.974  31.766   8.022
 1026POPC   C4A17838  32.311  31.691   7.721
 1026POPC   C1B17839  32.357  31.280   8.637
 1026POPC   C2B17840  32.319  31.185   8.211
 1026POPC   C3B17841  32.040  31.275   7.883
 1026POPC   C4B17842  32.112  31.294   7.434
 1027POPC   NC317843  40.670  41.012   9.461
 1027POPC   PO417844  40.991  40.396   9.424
 1027POPC   GL117845  40.956  40.640   9.086
 1027POPC   GL217846  40.619  40.636   9.107
 1027POPC   C1A17847  40.838  40.812   8.659
 1027POPC   D2A17848  40.744  40.890   8.203
 1027POPC   C3A17849  41.024  40.861   7.854
 1027POPC   C4A17850  41.003  41.039   7.433
 1027POPC   C1B17851  40.331  40.694   8.806
 1027POPC   C2B17852  40.276  40.945   8.436
 1027POPC   C3B17853  40.275  40.872   7.997
 1027POPC   C4B17854  40.569  40.635   7.756
 1028POPC   NC317855  20.026  28.202   9.685
 1028POPC   PO417856  19.414  28.129   9.594
 1028POPC   GL117857  19.810  28.353   9.256
 1028POPC   GL217858  20.134  28.136   9.195
 1028POPC   C1A17859  20.046  28.447   8.798
 1028POPC   D2A17860  19.831  28.363   8.364
 1028POPC   C3A17861  19.738  28.437   7.908
 1028POPC   C4A17862  20.001  28.569   7.586
 1028POPC   C1B17863  20.239  27.943   8.799
 1028POPC   C2B17864  20.323  28.155   8.414
 1028POPC   C3B17865  20.210  28.277   7.992
 1028POPC   C4B17866  20.081  28.044   7.597
 1029POPC   NC317867   9.920   2.146   9.410
 1029POPC   PO417868   9.542   1.605   9.396
 1029POPC   GL117869   9.707   1.839   9.050
 1029POPC   GL217870   9.683   2.214   8.978
 1029POPC   C1A17871   9.600   1.800   8.644
 1029POPC   D2A17872   9.760   1.813   8.228
 1029POPC   C3A17873   9.525   1.796   7.836
 1029POPC   C4A17874   9.626   2.135   7.556
 1029POPC   C1B17875   9.934   2.155   8.619
 1029POPC   C2B17876  10.093   2.257   8.223
 1029POPC   C3B17877  10.056   2.190   7.800
 1029POPC   C4B17878  10.101   2.155   7.329
 1030POPC   NC317879  26.761  35.565   9.571
 1030POPC   PO417880  26.384  35.109   9.266
 1030POPC   GL117881  26.634  35.457   9.064
 1030POPC   GL217882  26.960  35.626   9.112
 1030POPC   C1A17883  26.825  35.447   8.651
 1030POPC   D2A17884  26.998  35.141   8.398
 1030POPC   C3A17885  27.033  35.332   8.024
 1030POPC   C4A17886  26.704  35.580   7.941
 1030POPC   C1B17887  27.102  35.869   8.767
 1030POPC   C2B17888  26.900  35.884   8.344
 1030POPC   C3B17889  27.144  35.834   7.936
 1030POPC   C4B17890  27.103  35.574   7.560
 1031POPC   NC317891  16.988  10.885   9.519
 1031POPC   PO417892  16.561  10.376   9.622
 1031POPC   GL117893  16.658  10.558   9.183
 1031POPC   GL217894  16.606  10.896   9.157
 1031POPC   C1A17895  16.481  10.648   8.729
 1031POPC   D2A17896  16.463  10.561   8.271
 1031POPC   C3A17897  16.758  10.442   7.924
 1031POPC   C4A17898  16.953  10.066   7.743
 1031POPC   C1B17899  16.924  10.895   8.820
 1031POPC   C2B17900  16.840  10.921   8.398
 1031POPC   C3B17901  16.721  10.939   7.989
 1031POPC   C4B17902  17.087  10.822   7.713
 1032POPC   NC317903  24.210  21.596   9.410
 1032POPC   PO417904  24.223  22.254   9.534
 1032POPC   GL117905  24.316  22.290   9.116
 1032POPC   GL217906  24.200  21.977   9.094
 1032POPC   C1A17907  24.541  22.145   8.751
 1032POPC   D2A17908  24.531  22.352   8.360
 1032POPC   C3A17909  24.716  22.210   7.979
 1032POPC   C4A17910  24.843  21.825   7.802
 1032POPC   C1B17911  24.042  21.966   8.747
 1032POPC   C2B17912  24.245  21.923   8.377
 1032POPC   C3B17913  24.199  22.131   8.021
 1032POPC   C4B17914  24.357  21.986   7.687
 1033POPC   NC317915   9.625  42.716   9.465
 1033POPC   PO417916  10.152  43.059   9.578
 1033POPC   GL117917   9.926  43.219   9.213
 1033POPC   GL217918   9.559  43.192   9.214
 1033POPC   C1A17919  10.070  43.270   8.788
 1033POPC   D2A17920   9.874  43.345   8.401
 1033POPC   C3A17921   9.811  43.321   7.990
 1033POPC   C4A17922   9.799  43.165   7.589
 1033POPC   C1B17923   9.524  43.185   8.749
 1033POPC   C2B17924   9.420  43.120   8.287
 1033POPC   C3B17925   9.336  43.326   7.876
 1033POPC   C4B17926   9.361  43.370   7.400
 1034POPC   NC317927   0.900  43.067   9.449
 1034POPC   PO417928   1.530  43.257   9.515
 1034POPC   GL117929   1.310  43.218   9.156
 1034POPC   GL217930   1.307  42.831   9.201
 1034POPC   C1A17931   1.191  43.384   8.738
 1034POPC   D2A17932   1.279  43.147   8.374
 1034POPC   C3A17933   1.428  43.330   8.021
 1034POPC   C4A17934   1.366  43.139   7.601
 1034POPC   C1B17935   1.086  42.886   8.818
 1034POPC   C2B17936   0.816  42.963   8.474
 1034POPC   C3B17937   0.881  42.846   8.049
 1034POPC   C4B17938   1.141  42.691   7.708
 1035POPC   NC317939  28.239  38.671   9.632
 1035POPC   PO417940  28.435  38.008   9.566
 1035POPC   GL117941  28.438  38.324   9.202
 1035POPC   GL217942  28.733  38.535   9.107
 1035POPC   C1A17943  28.393  38.504   8.745
 1035POPC   D2A17944  28.661  38.538   8.363
 1035POPC   C3A17945  28.449  38.481   7.981
 1035POPC   C4A17946  28.240  38.109   7.807
 1035POPC   C1B17947  28.815  38.208   8.759
 1035POPC   C2B17948  29.029  38.148   8.389
 1035POPC   C3B17949  28.917  38.239   7.975
 1035POPC   C4B17950  28.728  38.352   7.574
 1036POPC   NC317951  21.116   9.434   9.360
 1036POPC   PO417952  21.580   9.978   9.468
 1036POPC   GL117953  21.430   9.775   9.137
 1036POPC   GL217954  21.338  10.122   9.051
 1036POPC   C1A17955  21.414   9.488   8.761
 1036POPC   D2A17956  21.203   9.576   8.383
 1036POPC   C3A17957  21.446   9.718   8.022
 1036POPC   C4A17958  21.462   9.480   7.624
 1036POPC   C1B17959  21.405  10.006   8.675
 1036POPC   C2B17960  21.249  10.116   8.323
 1036POPC   C3B17961  21.425  10.236   7.974
 1036POPC   C4B17962  21.152  10.142   7.662
 1037POPC   NC317963  17.646  31.821   9.528
 1037POPC   PO417964  17.125  31.373   9.429
 1037POPC   GL117965  17.372  31.600   9.092
 1037POPC   GL217966  17.723  31.608   9.086
 1037POPC   C1A17967  17.519  31.706   8.641
 1037POPC   D2A17968  17.652  31.945   8.264
 1037POPC   C3A17969  17.554  31.680   7.892
 1037POPC   C4A17970  17.348  31.286   7.811
 1037POPC   C1B17971  17.884  31.331   8.747
 1037POPC   C2B17972  17.738  31.367   8.301
 1037POPC   C3B17973  17.878  31.292   7.877
 1037POPC   C4B17974  17.717  31.407   7.448
 1038POPC   NC317975  40.381   4.603   9.720
 1038POPC   PO417976  41.016   4.506   9.500
 1038POPC   GL117977  40.908   4.504   9.083
 1038POPC   GL217978  40.693   4.256   9.115
 1038POPC   C1A17979  40.881   4.635   8.640
 1038POPC   D2A17980  40.602   4.711   8.272
 1038POPC   C3A17981  40.632   4.503   7.836
 1038POPC   C4A17982  41.041   4.338   7.648
 1038POPC   C1B17983  40.671   4.102   8.700
 1038POPC   C2B17984  40.558   4.198   8.275
 1038POPC   C3B17985  40.736   4.025   7.916
 1038POPC   C4B17986  40.636   4.028   7.470
 1039POPC   NC317987  37.903  19.093   9.572
 1039POPC   PO417988  37.242  19.001   9.318
 1039POPC   GL117989  37.632  18.930   9.138
 1039POPC   GL217990  37.830  19.227   9.092
 1039POPC   C1A17991  37.664  18.873   8.707
 1039POPC   D2A17992  37.505  19.077   8.346
 1039POPC   C3A17993  37.504  18.854   7.975
 1039POPC   C4A17994  37.490  18.992   7.586
 1039POPC   C1B17995  37.748  19.399   8.694
 1039POPC   C2B17996  37.915  19.388   8.290
 1039POPC   C3B17997  37.794  19.284   7.896
 1039POPC   C4B17998  37.994  19.080   7.538
 1040POPC   NC317999  39.520   9.108   9.347
 1040POPC   PO418000  38.916   8.952   9.557
 1040POPC   GL118001  39.132   8.856   9.165
 1040POPC   GL218002  39.427   8.612   9.215
 1040POPC   C1A18003  39.006   9.010   8.754
 1040POPC   D2A18004  38.889   9.185   8.335
 1040POPC   C3A18005  39.232   9.183   8.015
 1040POPC   C4A18006  39.474   9.288   7.636
 1040POPC   C1B18007  39.567   8.750   8.781
 1040POPC   C2B18008  39.564   9.006   8.383
 1040POPC   C3B18009  39.649   8.898   7.924
 1040POPC   C4B18010  39.824   8.776   7.509
 1041POPC   NC318011  31.589   4.039   9.556
 1041POPC   PO418012  31.592   4.630   9.565
 1041POPC   GL118013  31.419   4.419   9.220
 1041POPC   GL218014  31.200   4.078   9.230
 1041POPC   C1A18015  31.500   4.583   8.832
 1041POPC   D2A18016  31.325   4.501   8.435
 1041POPC   C3A18017  31.519   4.501   8.030
 1041POPC   C4A18018  31.255   4.540   7.673
 1041POPC   C1B18019  31.395   4.077   8.819
 1041POPC   C2B18020  31.331   3.993   8.370
 1041POPC   C3B18021  31.208   4.090   7.974
 1041POPC   C4B18022  31.534   4.086   7.689
 1042POPC   NC318023  40.403  29.549   9.169
 1042POPC   PO418024  39.813  29.654   9.400
 1042POPC   GL118025  39.856  29.895   9.054
 1042POPC   GL218026  40.179  30.004   9.051
 1042POPC   C1A18027  39.916  29.831   8.615
 1042POPC   D2A18028  39.879  29.660   8.231
 1042POPC   C3A18029  39.902  29.896   7.902
 1042POPC   C4A18030  40.042  29.931   7.501
 1042POPC   C1B18031  40.415  30.014   8.650
 1042POPC   C2B18032  40.568  29.899   8.242
 1042POPC   C3B18033  40.438  29.966   7.839
 1042POPC   C4B18034  40.484  30.174   7.462
 1043POPC   NC318035   6.944  26.720   9.775
 1043POPC   PO418036   7.332  27.232   9.520
 1043POPC   GL118037   7.384  26.923   9.091
 1043POPC   GL218038   7.086  26.711   8.993
 1043POPC   C1A18039   7.509  26.952   8.640
 1043POPC   D2A18040   7.702  27.064   8.228
 1043POPC   C3A18041   7.400  26.986   7.921
 1043POPC   C4A18042   7.006  26.978   7.860
 1043POPC   C1B18043   7.235  26.518   8.633
 1043POPC   C2B18044   7.184  26.609   8.194
 1043POPC   C3B18045   7.317  26.503   7.772
 1043POPC   C4B18046   7.731  26.439   7.528
 1044POPC   NC318047  16.781  14.174   9.661
 1044POPC   PO418048  16.233  14.529   9.518
 1044POPC   GL118049  16.490  14.207   9.229
 1044POPC   GL218050  16.880  14.230   9.121
 1044POPC   C1A18051  16.515  14.154   8.781
 1044POPC   D2A18052  16.321  14.393   8.468
 1044POPC   C3A18053  16.463  14.365   8.043
 1044POPC   C4A18054  16.342  14.617   7.709
 1044POPC   C1B18055  17.037  14.518   8.772
 1044POPC   C2B18056  16.868  14.628   8.339
 1044POPC   C3B18057  17.067  14.634   7.905
 1044POPC   C4B18058  16.867  14.582   7.471
 1045POPC   NC318059   0.596   7.843   9.399
 1045POPC   PO418060   0.470   8.453   9.523
 1045POPC   GL118061   0.330   8.253   9.154
 1045POPC   GL218062   0.242   7.895   9.028
 1045POPC   C1A18063   0.268   8.428   8.779
 1045POPC   D2A18064   0.377   8.382   8.402
 1045POPC   C3A18065   0.162   8.627   8.151
 1045POPC   C4A18066   0.113   8.464   7.749
 1045POPC   C1B18067   0.583   8.025   8.725
 1045POPC   C2B18068   0.695   8.003   8.251
 1045POPC   C3B18069   0.530   8.113   7.847
 1045POPC   C4B18070   0.365   7.891   7.478
 1046POPC   NC318071   6.696  28.106   9.505
 1046POPC   PO418072   6.846  28.738   9.268
 1046POPC   GL118073   6.654  28.430   9.086
 1046POPC   GL218074   6.947  28.221   9.073
 1046POPC   C1A18075   6.416  28.407   8.692
 1046POPC   D2A18076   6.514  28.418   8.240
 1046POPC   C3A18077   6.690  28.833   8.103
 1046POPC   C4A18078   6.837  28.884   7.693
 1046POPC   C1B18079   6.844  28.112   8.665
 1046POPC   C2B18080   7.017  28.251   8.275
 1046POPC   C3B18081   6.917  28.388   7.874
 1046POPC   C4B18082   6.848  28.152   7.535
 1047POPC   NC318083  21.121  39.771   9.442
 1047POPC   PO418084  20.421  39.744   9.374
 1047POPC   GL118085  20.522  39.931   9.037
 1047POPC   GL218086  20.849  39.991   9.044
 1047POPC   C1A18087  20.592  39.798   8.631
 1047POPC   D2A18088  20.732  39.811   8.231
 1047POPC   C3A18089  20.527  39.696   7.854
 1047POPC   C4A18090  20.743  39.621   7.410
 1047POPC   C1B18091  20.762  40.274   8.693
 1047POPC   C2B18092  20.562  40.260   8.310
 1047POPC   C3B18093  20.676  40.201   7.878
 1047POPC   C4B18094  20.561  40.467   7.537
 1048POPC   NC318095   2.272  17.769   9.454
 1048POPC   PO418096   1.840  17.296   9.540
 1048POPC   GL118097   2.142  17.347   9.176
 1048POPC   GL218098   2.162  17.704   8.982
 1048POPC   C1A18099   2.120  17.274   8.740
 1048POPC   D2A18100   2.176  17.538   8.387
 1048POPC   C3A18101   2.208  17.316   8.027
 1048POPC   C4A18102   1.991  17.355   7.679
 1048POPC   C1B18103   1.748  17.578   8.906
 1048POPC   C2B18104   1.669  17.464   8.472
 1048POPC   C3B18105   1.780  17.608   8.077
 1048POPC   C4B18106   1.591  17.917   7.838
 1049POPC   NC318107  15.059  40.789   9.432
 1049POPC   PO418108  15.314  41.414   9.505
 1049POPC   GL118109  15.312  41.089   9.111
 1049POPC   GL218110  15.454  40.728   9.087
 1049POPC   C1A18111  15.031  40.828   8.784
 1049POPC   D2A18112  15.023  40.588   8.386
 1049POPC   C3A18113  14.871  40.760   8.017
 1049POPC   C4A18114  14.923  40.867   7.581
 1049POPC   C1B18115  15.477  40.695   8.606
 1049POPC   C2B18116  15.512  40.759   8.166
 1049POPC   C3B18117  15.340  40.618   7.791
 1049POPC   C4B18118  15.376  40.724   7.363
 1050POPC   NC318119  12.417  18.332   9.458
 1050POPC   PO418120  11.782  18.727   9.490
 1050POPC   GL118121  12.038  18.507   9.185
 1050POPC   GL218122  12.045  18.211   9.108
 1050POPC   C1A18123  12.129  18.596   8.731
 1050POPC   D2A18124  12.393  18.543   8.363
 1050POPC   C3A18125  12.291  18.415   7.953
 1050POPC   C4A18126  11.954  18.482   7.679
 1050POPC   C1B18127  11.905  18.053   8.780
 1050POPC   C2B18128  12.021  18.181   8.396
 1050POPC   C3B18129  12.096  17.946   8.053
 1050POPC   C4B18130  12.122  18.021   7.607
 1051POPC   NC318131  21.776   3.325   9.483
 1051POPC   PO418132  22.284   3.744   9.493
 1051POPC   GL118133  22.181   3.473   9.126
 1051POPC   GL218134  21.857   3.433   8.991
 1051POPC   C1A18135  22.302   3.400   8.701
 1051POPC   D2A18136  22.265   3.664   8.340
 1051POPC   C3A18137  22.270   3.522   7.939
 1051POPC   C4A18138  22.287   3.746   7.553
 1051POPC   C1B18139  21.809   3.524   8.553
 1051POPC   C2B18140  21.769   3.751   8.165
 1051POPC   C3B18141  21.833   3.612   7.747
 1051POPC   C4B18142  21.902   3.169   7.712
 1052POPC   NC318143  27.171   8.535   9.373
 1052POPC   PO418144  26.606   8.104   9.423
 1052POPC   GL118145  26.802   8.213   9.057
 1052POPC   GL218146  27.155   8.102   9.060
 1052POPC   C1A18147  26.583   8.174   8.651
 1052POPC   D2A18148  26.413   7.926   8.315
 1052POPC   C3A18149  26.476   8.078   7.904
 1052POPC   C4A18150  26.562   8.318   7.516
 1052POPC   C1B18151  27.129   8.310   8.670
 1052POPC   C2B18152  26.892   8.417   8.290
 1052POPC   C3B18153  26.948   8.280   7.863
 1052POPC   C4B18154  27.182   7.936   7.682
 1053POPC   NC318155   0.925  20.439   9.969
 1053POPC   PO418156   1.444  20.712   9.781
 1053POPC   GL118157   1.344  20.534   9.228
 1053POPC   GL218158   1.197  20.744   9.069
 1053POPC   C1A18159   1.217  20.342   8.766
 1053POPC   D2A18160   1.201  20.108   8.344
 1053POPC   C3A18161   0.993  20.265   7.949
 1053POPC   C4A18162   1.054  20.672   7.702
 1053POPC   C1B18163   1.354  20.854   8.721
 1053POPC   C2B18164   1.270  20.826   8.297
 1053POPC   C3B18165   1.403  21.024   7.934
 1053POPC   C4B18166   1.392  21.023   7.491
 1054POPC   NC318167  43.529  30.694   9.371
 1054POPC   PO418168  42.987  31.004   9.544
 1054POPC   GL118169  43.038  30.833   9.148
 1054POPC   GL218170  43.119  30.466   9.093
 1054POPC   C1A18171  43.229  30.895   8.761
 1054POPC   D2A18172  43.463  30.635   8.499
 1054POPC   C3A18173  43.317  30.482   8.080
 1054POPC   C4A18174  43.296  30.727   7.734
 1054POPC   C1B18175  42.842  30.576   8.723
 1054POPC   C2B18176  42.928  30.753   8.318
 1054POPC   C3B18177  42.794  30.606   7.913
 1054POPC   C4B18178  42.912  30.467   7.469
 1055POPC   NC318179   0.149  25.540   9.530
 1055POPC   PO418180   0.706  25.203   9.502
 1055POPC   GL118181   0.604  25.073   9.103
 1055POPC   GL218182   0.289  25.257   9.110
 1055POPC   C1A18183   0.643  25.256   8.679
 1055POPC   D2A18184   0.692  25.455   8.301
 1055POPC   C3A18185   0.726  25.283   7.886
 1055POPC   C4A18186   0.713  25.417   7.434
 1055POPC   C1B18187   0.224  24.986   8.746
 1055POPC   C2B18188   0.235  25.209   8.344
 1055POPC   C3B18189   0.248  25.452   7.963
 1055POPC   C4B18190   0.298  25.165   7.621
 1056POPC   NC318191  40.901  44.279   9.830
 1056POPC   PO418192  40.791  44.821   9.384
 1056POPC   GL118193  40.955  44.742   9.011
 1056POPC   GL218194  40.630  44.735   8.918
 1056POPC   C1A18195  40.960  44.465   8.680
 1056POPC   D2A18196  40.914  44.634   8.296
 1056POPC   C3A18197  40.963  44.350   7.999
 1056POPC   C4A18198  41.174  44.356   7.658
 1056POPC   C1B18199  40.462  44.702   8.590
 1056POPC   C2B18200  40.453  44.820   8.223
 1056POPC   C3B18201  40.492  44.649   7.855
 1056POPC   C4B18202  40.610  44.843   7.495
 1057POPC   NC318203  13.682  22.566   9.827
 1057POPC   PO418204  13.677  23.212   9.458
 1057POPC   GL118205  13.462  23.159   9.148
 1057POPC   GL218206  13.758  23.041   8.958
 1057POPC   C1A18207  13.298  23.049   8.800
 1057POPC   D2A18208  13.580  22.968   8.479
 1057POPC   C3A18209  13.444  22.998   8.099
 1057POPC   C4A18210  13.245  23.100   7.719
 1057POPC   C1B18211  14.000  22.772   8.707
 1057POPC   C2B18212  14.122  22.570   8.342
 1057POPC   C3B18213  13.954  22.493   7.928
 1057POPC   C4B18214  13.670  22.780   7.700
 1058POPC   NC318215   5.282  24.252   9.827
 1058POPC   PO418216   5.013  23.787   9.419
 1058POPC   GL118217   5.304  23.694   9.071
 1058POPC   GL218218   5.059  23.787   8.874
 1058POPC   C1A18219   5.286  23.364   8.720
 1058POPC   D2A18220   5.254  23.207   8.287
 1058POPC   C3A18221   5.069  23.455   8.017
 1058POPC   C4A18222   5.198  23.472   7.622
 1058POPC   C1B18223   5.423  23.869   8.609
 1058POPC   C2B18224   5.457  23.760   8.187
 1058POPC   C3B18225   5.190  23.918   7.855
 1058POPC   C4B18226   4.871  24.232   7.811
 1059POPC   NC318227   4.514  34.760   9.930
 1059POPC   PO418228   4.290  34.372   9.398
 1059POPC   GL118229   4.367  34.691   9.089
 1059POPC   GL218230   4.054  34.623   8.938
 1059POPC   C1A18231   4.449  34.721   8.633
 1059POPC   D2A18232   4.491  34.420   8.348
 1059POPC   C3A18233   4.405  34.584   7.975
 1059POPC   C4A18234   4.076  34.559   7.708
 1059POPC   C1B18235   4.037  34.989   8.696
 1059POPC   C2B18236   4.190  35.009   8.266
 1059POPC   C3B18237   3.955  35.015   7.887
 1059POPC   C4B18238   4.065  35.182   7.462
 1060POPC   NC318239  28.945   8.988   9.226
 1060POPC   PO418240  28.453   9.229   9.668
 1060POPC   GL118241  28.409   9.119   9.226
 1060POPC   GL218242  28.495   8.819   9.077
 1060POPC   C1A18243  28.174   9.107   8.805
 1060POPC   D2A18244  28.251   9.065   8.335
 1060POPC   C3A18245  28.095   9.173   7.931
 1060POPC   C4A18246  28.095   8.805   7.634
 1060POPC   C1B18247  28.637   8.903   8.649
 1060POPC   C2B18248  28.671   8.762   8.235
 1060POPC   C3B18249  28.556   8.954   7.857
 1060POPC   C4B18250  28.787   9.174   7.577
 1061POPC   NC318251  22.578  37.869   9.599
 1061POPC   PO418252  23.224  37.683   9.531
 1061POPC   GL118253  22.902  37.663   9.201
 1061POPC   GL218254  22.867  37.982   9.173
 1061POPC   C1A18255  22.708  37.679   8.765
 1061POPC   D2A18256  22.732  37.415   8.398
 1061POPC   C3A18257  22.803  37.594   7.987
 1061POPC   C4A18258  23.003  37.419   7.645
 1061POPC   C1B18259  23.171  37.926   8.832
 1061POPC   C2B18260  23.154  38.011   8.386
 1061POPC   C3B18261  23.198  37.963   7.937
 1061POPC   C4B18262  23.036  37.904   7.512
 1062POPC   NC318263  32.390  44.270   9.512
 1062POPC   PO418264  32.109  43.636   9.539
 1062POPC   GL118265  32.219  43.903   9.186
 1062POPC   GL218266  32.063  44.223   9.134
 1062POPC   C1A18267  32.382  43.947   8.770
 1062POPC   D2A18268  32.251  44.039   8.356
 1062POPC   C3A18269  32.448  43.775   8.050
 1062POPC   C4A18270  32.645  43.866   7.678
 1062POPC   C1B18271  31.897  44.073   8.763
 1062POPC   C2B18272  31.758  43.850   8.403
 1062POPC   C3B18273  31.898  43.883   7.990
 1062POPC   C4B18274  31.798  44.294   7.830
 1063POPC   NC318275   0.938  16.555   9.745
 1063POPC   PO418276   1.578  16.679   9.583
 1063POPC   GL118277   1.396  16.624   9.176
 1063POPC   GL218278   1.064  16.622   9.246
 1063POPC   C1A18279   1.436  16.481   8.755
 1063POPC   D2A18280   1.491  16.713   8.390
 1063POPC   C3A18281   1.392  16.652   7.975
 1063POPC   C4A18282   1.258  16.479   7.600
 1063POPC   C1B18283   0.911  16.508   8.851
 1063POPC   C2B18284   1.001  16.541   8.411
 1063POPC   C3B18285   0.874  16.587   7.960
 1063POPC   C4B18286   0.758  16.375   7.588
 1064POPC   NC318287  32.861  37.266   9.472
 1064POPC   PO418288  33.330  37.751   9.577
 1064POPC   GL118289  33.129  37.777   9.181
 1064POPC   GL218290  33.078  37.457   9.049
 1064POPC   C1A18291  33.227  37.957   8.807
 1064POPC   D2A18292  33.131  37.652   8.500
 1064POPC   C3A18293  32.996  37.815   8.118
 1064POPC   C4A18294  33.083  37.971   7.723
 1064POPC   C1B18295  32.717  37.356   8.809
 1064POPC   C2B18296  32.747  37.324   8.391
 1064POPC   C3B18297  33.038  37.322   8.052
 1064POPC   C4B18298  32.798  37.523   7.724
 1065POPC   NC318299   3.410  41.182   9.742
 1065POPC   PO418300   3.394  40.630   9.334
 1065POPC   GL118301   3.647  40.628   9.023
 1065POPC   GL218302   3.644  40.926   8.772
 1065POPC   C1A18303   3.704  40.435   8.687
 1065POPC   D2A18304   3.828  40.661   8.353
 1065POPC   C3A18305   3.679  40.489   7.993
 1065POPC   C4A18306   3.662  40.563   7.549
 1065POPC   C1B18307   3.275  41.172   8.580
 1065POPC   C2B18308   3.094  41.114   8.181
 1065POPC   C3B18309   3.319  40.840   7.894
 1065POPC   C4B18310   3.326  40.959   7.467
 1066POPC   NC318311  23.014  22.657   9.579
 1066POPC   PO418312  22.505  22.982   9.541
 1066POPC   GL118313  22.654  22.730   9.206
 1066POPC   GL218314  23.043  22.805   9.102
 1066POPC   C1A18315  22.681  22.705   8.765
 1066POPC   D2A18316  22.844  23.023   8.496
 1066POPC   C3A18317  22.791  22.923   8.090
 1066POPC   C4A18318  22.703  23.110   7.685
 1066POPC   C1B18319  23.201  23.145   8.843
 1066POPC   C2B18320  23.294  23.262   8.385
 1066POPC   C3B18321  23.185  23.156   7.928
 1066POPC   C4B18322  23.102  22.852   7.568
 1067POPC   NC318323  31.586   5.902   9.922
 1067POPC   PO418324  31.234   5.429   9.497
 1067POPC   GL118325  31.467   5.673   9.203
 1067POPC   GL218326  31.725   5.496   9.055
 1067POPC   C1A18327  31.392   5.898   8.812
 1067POPC   D2A18328  31.210   5.744   8.395
 1067POPC   C3A18329  31.406   5.851   7.984
 1067POPC   C4A18330  31.528   5.922   7.531
 1067POPC   C1B18331  31.544   5.433   8.661
 1067POPC   C2B18332  31.601   5.411   8.241
 1067POPC   C3B18333  31.706   5.468   7.826
 1067POPC   C4B18334  31.505   5.407   7.436
 1068POPC   NC318335  28.817  27.529   9.466
 1068POPC   PO418336  28.169  27.708   9.548
 1068POPC   GL118337  28.389  27.661   9.172
 1068POPC   GL218338  28.445  27.340   9.154
 1068POPC   C1A18339  28.570  27.733   8.753
 1068POPC   D2A18340  28.257  27.786   8.427
 1068POPC   C3A18341  28.394  27.918   8.019
 1068POPC   C4A18342  28.688  27.758   7.752
 1068POPC   C1B18343  28.241  27.350   8.763
 1068POPC   C2B18344  28.407  27.286   8.360
 1068POPC   C3B18345  28.336  27.410   7.934
 1068POPC   C4B18346  28.043  27.282   7.637
 1069POPC   NC318347  26.488  42.610   9.584
 1069POPC   PO418348  27.011  42.240   9.646
 1069POPC   GL118349  26.785  42.291   9.273
 1069POPC   GL218350  26.864  41.972   9.200
 1069POPC   C1A18351  26.716  42.310   8.819
 1069POPC   D2A18352  26.904  42.356   8.396
 1069POPC   C3A18353  26.729  42.512   7.984
 1069POPC   C4A18354  26.995  42.257   7.734
 1069POPC   C1B18355  27.030  41.889   8.800
 1069POPC   C2B18356  26.720  41.875   8.486
 1069POPC   C3B18357  26.566  42.064   8.142
 1069POPC   C4B18358  26.480  42.062   7.710
 1070POPC   NC318359  20.756  11.773   9.408
 1070POPC   PO418360  20.659  11.158   9.649
 1070POPC   GL118361  20.459  11.301   9.230
 1070POPC   GL218362  20.654  11.505   8.979
 1070POPC   C1A18363  20.322  11.129   8.839
 1070POPC   D2A18364  20.563  11.094   8.462
 1070POPC   C3A18365  20.398  11.177   8.068
 1070POPC   C4A18366  20.572  11.405   7.750
 1070POPC   C1B18367  20.236  11.626   8.799
 1070POPC   C2B18368  20.055  11.715   8.433
 1070POPC   C3B18369  20.219  11.660   8.059
 1070POPC   C4B18370  20.205  11.766   7.671
 1071POPC   NC318371   6.845  36.554   9.696
 1071POPC   PO418372   6.456  37.008   9.427
 1071POPC   GL118373   6.779  36.865   9.145
 1071POPC   GL218374   6.890  36.507   9.197
 1071POPC   C1A18375   6.814  36.972   8.709
 1071POPC   D2A18376   6.522  36.814   8.432
 1071POPC   C3A18377   6.502  37.042   8.067
 1071POPC   C4A18378   6.291  36.934   7.717
 1071POPC   C1B18379   6.685  36.474   8.810
 1071POPC   C2B18380   6.917  36.496   8.420
 1071POPC   C3B18381   6.745  36.546   8.053
 1071POPC   C4B18382   6.761  36.758   7.714
 1072POPC   NC318383  41.019  44.383   9.333
 1072POPC   PO418384  40.501  44.105   9.672
 1072POPC   GL118385  40.660  44.045   9.249
 1072POPC   GL218386  40.494  44.372   9.234
 1072POPC   C1A18387  40.844  43.942   8.835
 1072POPC   D2A18388  40.993  44.027   8.412
 1072POPC   C3A18389  40.839  43.748   8.115
 1072POPC   C4A18390  41.045  43.833   7.741
 1072POPC   C1B18391  40.395  44.242   8.823
 1072POPC   C2B18392  40.472  44.040   8.407
 1072POPC   C3B18393  40.506  44.106   7.941
 1072POPC   C4B18394  40.586  43.855   7.563
 1073POPC   NC318395  10.993  42.308   9.673
 1073POPC   PO418396  11.623  42.625   9.795
 1073POPC   GL118397  11.399  42.378   9.330
 1073POPC   GL218398  11.044  42.330   9.155
 1073POPC   C1A18399  11.414  42.538   8.854
 1073POPC   D2A18400  11.270  42.594   8.416
 1073POPC   C3A18401  11.492  42.398   8.050
 1073POPC   C4A18402  11.546  41.972   7.838
 1073POPC   C1B18403  10.908  42.175   8.727
 1073POPC   C2B18404  10.730  42.332   8.348
 1073POPC   C3B18405  10.952  42.469   8.002
 1073POPC   C4B18406  11.158  42.269   7.708
 1074POPC   NC318407  25.930  24.536   9.768
 1074POPC   PO418408  26.277  23.997   9.502
 1074POPC   GL118409  26.121  24.257   9.164
 1074POPC   GL218410  25.797  24.292   9.229
 1074POPC   C1A18411  26.181  24.462   8.750
 1074POPC   D2A18412  26.297  24.322   8.390
 1074POPC   C3A18413  26.075  24.461   8.046
 1074POPC   C4A18414  26.004  24.681   7.697
 1074POPC   C1B18415  25.661  24.544   8.842
 1074POPC   C2B18416  25.683  24.518   8.403
 1074POPC   C3B18417  25.615  24.766   8.043
 1074POPC   C4B18418  25.510  24.704   7.633
 1075POPC   NC318419  37.096  22.628   9.531
 1075POPC   PO418420  36.600  22.945   9.483
 1075POPC   GL118421  36.809  22.851   9.126
 1075POPC   GL218422  37.152  22.939   9.064
 1075POPC   C1A18423  36.750  23.024   8.711
 1075POPC   D2A18424  36.902  22.920   8.309
 1075POPC   C3A18425  36.816  23.150   7.937
 1075POPC   C4A18426  36.895  22.843   7.629
 1075POPC   C1B18427  37.182  23.287   8.695
 1075POPC   C2B18428  37.254  23.279   8.204
 1075POPC   C3B18429  37.311  23.111   7.755
 1075POPC   C4B18430  37.172  23.279   7.323
 1076POPC   NC318431  16.559  40.991   9.544
 1076POPC   PO418432  16.938  40.501   9.621
 1076POPC   GL118433  16.860  40.587   9.172
 1076POPC   GL218434  16.860  40.924   9.105
 1076POPC   C1A18435  16.655  40.631   8.748
 1076POPC   D2A18436  16.589  40.440   8.350
 1076POPC   C3A18437  16.757  40.681   8.017
 1076POPC   C4A18438  16.542  40.662   7.647
 1076POPC   C1B18439  16.908  41.151   8.740
 1076POPC   C2B18440  17.049  41.065   8.313
 1076POPC   C3B18441  16.827  41.219   7.945
 1076POPC   C4B18442  16.729  41.125   7.511
 1077POPC   NC318443   9.226  26.367   9.367
 1077POPC   PO418444   8.758  25.955   9.674
 1077POPC   GL118445   8.758  25.843   9.222
 1077POPC   GL218446   8.912  26.127   9.041
 1077POPC   C1A18447   8.775  25.705   8.776
 1077POPC   D2A18448   8.902  25.960   8.415
 1077POPC   C3A18449   8.972  25.781   8.019
 1077POPC   C4A18450   8.874  25.889   7.586
 1077POPC   C1B18451   8.952  26.414   8.676
 1077POPC   C2B18452   9.094  26.439   8.265
 1077POPC   C3B18453   9.002  26.289   7.882
 1077POPC   C4B18454   9.272  26.184   7.554
 1078POPC   NC318455  24.089  38.355   9.368
 1078POPC   PO418456  23.442  38.681   9.451
 1078POPC   GL118457  23.666  38.545   9.123
 1078POPC   GL218458  23.683  38.218   8.990
 1078POPC   C1A18459  23.916  38.630   8.770
 1078POPC   D2A18460  23.811  38.774   8.361
 1078POPC   C3A18461  24.085  38.728   8.032
 1078POPC   C4A18462  23.916  38.536   7.684
 1078POPC   C1B18463  23.438  38.370   8.693
 1078POPC   C2B18464  23.422  38.433   8.312
 1078POPC   C3B18465  23.571  38.301   7.973
 1078POPC   C4B18466  23.351  38.304   7.566
 1079POPC   NC318467  33.619   4.898   9.524
 1079POPC   PO418468  33.658   5.417   9.404
 1079POPC   GL118469  33.655   5.116   9.025
 1079POPC   GL218470  33.810   4.793   9.052
 1079POPC   C1A18471  33.526   4.905   8.616
 1079POPC   D2A18472  33.704   4.789   8.202
 1079POPC   C3A18473  33.603   4.989   7.804
 1079POPC   C4A18474  33.795   5.237   7.478
 1079POPC   C1B18475  34.032   4.864   8.641
 1079POPC   C2B18476  34.205   4.783   8.213
 1079POPC   C3B18477  34.134   4.915   7.767
 1079POPC   C4B18478  34.178   4.913   7.305
 1080POPC   NC318479   4.935   3.302   9.419
 1080POPC   PO418480   4.330   3.118   9.478
 1080POPC   GL118481   4.373   3.300   9.079
 1080POPC   GL218482   4.605   3.566   9.137
 1080POPC   C1A18483   4.356   3.253   8.629
 1080POPC   D2A18484   4.139   3.219   8.245
 1080POPC   C3A18485   4.313   3.392   7.897
 1080POPC   C4A18486   4.404   3.248   7.489
 1080POPC   C1B18487   4.470   3.743   8.764
 1080POPC   C2B18488   4.373   3.697   8.319
 1080POPC   C3B18489   4.226   3.887   7.907
 1080POPC   C4B18490   4.182   3.721   7.465
 1081POPC   NC318491  44.153   7.165   9.592
 1081POPC   PO418492  43.517   7.139   9.436
 1081POPC   GL118493  43.804   7.325   9.159
 1081POPC   GL218494  43.886   7.689   9.233
 1081POPC   C1A18495  43.952   7.232   8.752
 1081POPC   D2A18496  44.158   7.030   8.415
 1081POPC   C3A18497  43.997   7.185   8.064
 1081POPC   C4A18498  43.930   7.103   7.677
 1081POPC   C1B18499  44.014   7.743   8.801
 1081POPC   C2B18500  43.844   7.584   8.384
 1081POPC   C3B18501  43.995   7.666   7.930
 1081POPC   C4B18502  44.058   7.606   7.469
 1082POPC   NC318503  36.356  34.482   9.642
 1082POPC   PO418504  35.807  34.752   9.385
 1082POPC   GL118505  36.147  34.635   9.147
 1082POPC   GL218506  36.125  34.292   9.225
 1082POPC   C1A18507  36.139  34.746   8.712
 1082POPC   D2A18508  35.854  34.769   8.363
 1082POPC   C3A18509  36.117  34.768   8.025
 1082POPC   C4A18510  36.162  34.524   7.653
 1082POPC   C1B18511  36.165  34.237   8.802
 1082POPC   C2B18512  36.252  34.367   8.365
 1082POPC   C3B18513  36.335  34.137   7.985
 1082POPC   C4B18514  36.478  34.158   7.570
 1083POPC   NC318515  27.991  37.994   9.433
 1083POPC   PO418516  27.707  37.372   9.566
 1083POPC   GL118517  27.654  37.613   9.141
 1083POPC   GL218518  27.606  37.984   9.098
 1083POPC   C1A18519  27.506  37.620   8.696
 1083POPC   D2A18520  27.698  37.452   8.305
 1083POPC   C3A18521  27.447  37.504   7.941
 1083POPC   C4A18522  27.179  37.839   7.817
 1083POPC   C1B18523  27.764  38.063   8.672
 1083POPC   C2B18524  27.612  37.966   8.249
 1083POPC   C3B18525  27.709  37.969   7.810
 1083POPC   C4B18526  27.957  37.858   7.446
 1084POPC   NC318527  21.959  10.476   9.867
 1084POPC   PO418528  22.384  10.417   9.250
 1084POPC   GL118529  22.138  10.664   9.033
 1084POPC   GL218530  21.885  10.859   9.238
 1084POPC   C1A18531  22.279  10.650   8.635
 1084POPC   D2A18532  22.277  10.382   8.316
 1084POPC   C3A18533  22.321  10.658   7.985
 1084POPC   C4A18534  22.255  10.363   7.714
 1084POPC   C1B18535  21.802  10.965   8.785
 1084POPC   C2B18536  21.817  10.657   8.427
 1084POPC   C3B18537  21.843  10.536   8.018
 1084POPC   C4B18538  21.878  10.941   7.892
 1085POPC   NC318539  35.057  38.036   9.239
 1085POPC   PO418540  35.185  37.478   9.572
 1085POPC   GL118541  35.306  37.613   9.119
 1085POPC   GL218542  35.580  37.844   9.028
 1085POPC   C1A18543  35.441  37.499   8.697
 1085POPC   D2A18544  35.650  37.700   8.366
 1085POPC   C3A18545  35.563  37.595   7.949
 1085POPC   C4A18546  35.372  37.725   7.563
 1085POPC   C1B18547  35.388  37.992   8.680
 1085POPC   C2B18548  35.093  37.824   8.412
 1085POPC   C3B18549  35.155  37.910   8.006
 1085POPC   C4B18550  35.158  38.211   7.665
 1086POPC   NC318551   8.382  11.749   9.182
 1086POPC   PO418552   8.094  12.145   9.643
 1086POPC   GL118553   8.217  12.301   9.218
 1086POPC   GL218554   8.004  12.055   9.083
 1086POPC   C1A18555   8.395  12.424   8.787
 1086POPC   D2A18556   8.295  12.473   8.317
 1086POPC   C3A18557   8.491  12.193   8.001
 1086POPC   C4A18558   8.460  11.721   7.967
 1086POPC   C1B18559   7.905  12.325   8.726
 1086POPC   C2B18560   7.717  12.185   8.382
 1086POPC   C3B18561   7.986  12.138   8.084
 1086POPC   C4B18562   8.081  12.397   7.751
 1087POPC   NC318563  35.173  28.888   9.644
 1087POPC   PO418564  35.537  29.421   9.492
 1087POPC   GL118565  35.404  29.105   9.168
 1087POPC   GL218566  35.066  29.013   9.149
 1087POPC   C1A18567  35.419  28.959   8.706
 1087POPC   D2A18568  35.557  28.980   8.245
 1087POPC   C3A18569  35.325  29.113   7.964
 1087POPC   C4A18570  35.086  29.520   8.043
 1087POPC   C1B18571  35.029  29.279   8.791
 1087POPC   C2B18572  35.035  29.115   8.373
 1087POPC   C3B18573  34.832  29.085   7.928
 1087POPC   C4B18574  35.044  28.950   7.533
 1088POPC   NC318575   9.312  20.739   9.432
 1088POPC   PO418576   9.769  20.360   9.771
 1088POPC   GL118577   9.776  20.537   9.313
 1088POPC   GL218578  10.053  20.505   9.144
 1088POPC   C1A18579   9.637  20.642   8.859
 1088POPC   D2A18580   9.727  20.896   8.479
 1088POPC   C3A18581   9.637  20.741   8.069
 1088POPC   C4A18582   9.862  20.618   7.728
 1088POPC   C1B18583  10.135  20.654   8.765
 1088POPC   C2B18584  10.277  20.659   8.368
 1088POPC   C3B18585  10.241  20.831   7.997
 1088POPC   C4B18586  10.171  21.032   7.618
 1089POPC   NC318587   9.320   9.721   9.686
 1089POPC   PO418588   9.933   9.793   9.599
 1089POPC   GL118589   9.741   9.830   9.196
 1089POPC   GL218590   9.553  10.142   9.185
 1089POPC   C1A18591   9.898   9.681   8.792
 1089POPC   D2A18592   9.721   9.614   8.386
 1089POPC   C3A18593   9.857   9.441   8.009
 1089POPC   C4A18594   9.601   9.473   7.684
 1089POPC   C1B18595   9.791  10.193   8.786
 1089POPC   C2B18596  10.015  10.043   8.415
 1089POPC   C3B18597   9.859   9.953   7.997
 1089POPC   C4B18598   9.669   9.955   7.586
 1090POPC   NC318599  28.830   5.588   9.510
 1090POPC   PO418600  29.541   5.721   9.557
 1090POPC   GL118601  29.315   5.849   9.192
 1090POPC   GL218602  28.987   6.004   9.187
 1090POPC   C1A18603  29.363   5.727   8.760
 1090POPC   D2A18604  29.257   5.567   8.359
 1090POPC   C3A18605  29.090   5.756   7.993
 1090POPC   C4A18606  29.315   5.728   7.600
 1090POPC   C1B18607  29.122   6.177   8.814
 1090POPC   C2B18608  29.055   6.075   8.420
 1090POPC   C3B18609  29.170   6.259   8.068
 1090POPC   C4B18610  29.033   6.161   7.689
 1091POPC   NC318611   5.181  28.941   9.579
 1091POPC   PO418612   4.832  29.347   9.230
 1091POPC   GL118613   4.978  29.012   9.096
 1091POPC   GL218614   5.296  29.051   9.076
 1091POPC   C1A18615   4.971  29.035   8.664
 1091POPC   D2A18616   5.106  29.243   8.336
 1091POPC   C3A18617   5.009  28.959   8.040
 1091POPC   C4A18618   4.853  29.235   7.738
 1091POPC   C1B18619   5.492  29.089   8.647
 1091POPC   C2B18620   5.516  28.990   8.204
 1091POPC   C3B18621   5.396  29.183   7.799
 1091POPC   C4B18622   5.200  28.931   7.507
 1092POPC   NC318623  23.542   3.293   9.368
 1092POPC   PO418624  24.050   3.298   9.128
 1092POPC   GL118625  23.720   2.973   8.959
 1092POPC   GL218626  23.407   2.841   9.123
 1092POPC   C1A18627  23.647   2.619   8.654
 1092POPC   D2A18628  23.734   2.524   8.195
 1092POPC   C3A18629  23.733   2.883   7.908
 1092POPC   C4A18630  23.416   3.231   7.871
 1092POPC   C1B18631  23.165   2.806   8.724
 1092POPC   C2B18632  23.241   2.621   8.305
 1092POPC   C3B18633  23.261   2.719   7.868
 1092POPC   C4B18634  23.423   2.461   7.529
 1093POPC   NC318635   9.391  19.754   9.271
 1093POPC   PO418636   8.739  19.526   9.228
 1093POPC   GL118637   8.924  19.696   8.959
 1093POPC   GL218638   8.931  20.023   9.073
 1093POPC   C1A18639   8.776  19.803   8.589
 1093POPC   D2A18640   8.884  20.163   8.364
 1093POPC   C3A18641   9.019  20.026   7.983
 1093POPC   C4A18642   9.122  19.890   7.579
 1093POPC   C1B18643   9.244  20.012   8.709
 1093POPC   C2B18644   9.259  19.743   8.364
 1093POPC   C3B18645   9.454  19.775   7.988
 1093POPC   C4B18646   9.453  19.508   7.651
 1094POPC   NC318647  23.423   6.228   9.538
 1094POPC   PO418648  23.957   5.759   9.682
 1094POPC   GL118649  23.836   5.980   9.265
 1094POPC   GL218650  23.517   5.868   9.193
 1094POPC   C1A18651  23.863   6.087   8.780
 1094POPC   D2A18652  23.676   6.174   8.339
 1094POPC   C3A18653  23.781   5.901   7.969
 1094POPC   C4A18654  24.084   5.557   7.893
 1094POPC   C1B18655  23.411   5.841   8.770
 1094POPC   C2B18656  23.330   5.762   8.329
 1094POPC   C3B18657  23.470   5.513   7.947
 1094POPC   C4B18658  23.465   5.698   7.519
 1095POPC   NC318659   1.154   0.922   9.395
 1095POPC   PO418660   1.555   1.425   9.621
 1095POPC   GL118661   1.375   1.340   9.190
 1095POPC   GL218662   0.993   1.391   9.212
 1095POPC   C1A18663   1.328   1.113   8.769
 1095POPC   D2A18664   1.360   0.804   8.411
 1095POPC   C3A18665   1.466   0.987   8.030
 1095POPC   C4A18666   1.351   1.420   7.900
 1095POPC   C1B18667   0.881   1.429   8.773
 1095POPC   C2B18668   0.783   1.229   8.404
 1095POPC   C3B18669   0.950   1.103   8.038
 1095POPC   C4B18670   1.110   1.071   7.629
 1096POPC   NC318671  17.808   6.064   9.604
 1096POPC   PO418672  18.325   5.851   9.597
 1096POPC   GL118673  18.410   5.882   9.143
 1096POPC   GL218674  18.057   5.834   9.069
 1096POPC   C1A18675  18.319   6.071   8.693
 1096POPC   D2A18676  18.122   6.088   8.259
 1096POPC   C3A18677  18.367   5.891   7.911
 1096POPC   C4A18678  18.635   5.512   7.932
 1096POPC   C1B18679  17.839   5.858   8.641
 1096POPC   C2B18680  17.734   5.748   8.193
 1096POPC   C3B18681  17.862   5.925   7.801
 1096POPC   C4B18682  17.931   5.766   7.377
 1097POPC   NC318683  37.866  11.417   9.644
 1097POPC   PO418684  38.438  11.569   9.586
 1097POPC   GL118685  38.142  11.673   9.219
 1097POPC   GL218686  37.849  11.427   9.132
 1097POPC   C1A18687  38.123  11.583   8.761
 1097POPC   D2A18688  37.867  11.601   8.372
 1097POPC   C3A18689  37.992  11.402   7.978
 1097POPC   C4A18690  37.874  10.971   7.809
 1097POPC   C1B18691  37.861  11.161   8.702
 1097POPC   C2B18692  37.694  11.113   8.265
 1097POPC   C3B18693  37.505  11.327   7.850
 1097POPC   C4B18694  37.344  11.338   7.403
 1098POPC   NC318695  36.998   4.665   9.390
 1098POPC   PO418696  36.766   4.090   9.442
 1098POPC   GL118697  36.931   4.263   9.077
 1098POPC   GL218698  37.266   4.297   9.158
 1098POPC   C1A18699  37.063   4.343   8.649
 1098POPC   D2A18700  36.927   4.046   8.345
 1098POPC   C3A18701  36.908   4.285   7.990
 1098POPC   C4A18702  37.025   4.603   7.695
 1098POPC   C1B18703  37.253   3.931   8.871
 1098POPC   C2B18704  37.428   3.920   8.443
 1098POPC   C3B18705  37.315   3.954   7.992
 1098POPC   C4B18706  37.217   3.898   7.540
 1099POPC   NC318707  34.919  25.737   9.256
 1099POPC   PO418708  35.438  25.966   9.601
 1099POPC   GL118709  35.301  26.088   9.197
 1099POPC   GL218710  35.032  26.365   9.204
 1099POPC   C1A18711  35.319  25.899   8.775
 1099POPC   D2A18712  35.187  26.051   8.399
 1099POPC   C3A18713  35.365  25.919   8.023
 1099POPC   C4A18714  35.183  25.666   7.713
 1099POPC   C1B18715  35.264  26.406   8.791
 1099POPC   C2B18716  35.103  26.545   8.380
 1099POPC   C3B18717  34.969  26.332   7.999
 1099POPC   C4B18718  35.219  26.242   7.662
 1100POPC   NC318719  38.144  21.565   9.443
 1100POPC   PO418720  38.631  21.153   9.408
 1100POPC   GL118721  38.421  21.337   9.079
 1100POPC   GL218722  38.150  21.111   9.076
 1100POPC   C1A18723  38.273  21.595   8.754
 1100POPC   D2A18724  38.463  21.500   8.387
 1100POPC   C3A18725  38.359  21.593   7.971
 1100POPC   C4A18726  38.535  21.654   7.544
 1100POPC   C1B18727  38.178  21.107   8.600
 1100POPC   C2B18728  38.387  21.055   8.171
 1100POPC   C3B18729  38.434  21.106   7.699
 1100POPC   C4B18730  38.319  20.900   7.303
 1101POPC   NC318731  35.846  21.691   9.488
 1101POPC   PO418732  36.434  21.332   9.527
 1101POPC   GL118733  36.168  21.437   9.200
 1101POPC   GL218734  36.322  21.366   8.944
 1101POPC   C1A18735  35.901  21.612   8.825
 1101POPC   D2A18736  35.761  21.518   8.385
 1101POPC   C3A18737  35.896  21.168   8.095
 1101POPC   C4A18738  36.121  21.294   7.726
 1101POPC   C1B18739  36.479  21.229   8.579
 1101POPC   C2B18740  36.417  21.242   8.162
 1101POPC   C3B18741  36.677  20.947   7.952
 1101POPC   C4B18742  36.365  20.850   7.733
 1102POPC   NC318743  44.403   0.213   9.496
 1102POPC   PO418744  44.919   0.693   9.408
 1102POPC   GL118745  44.643   0.523   9.134
 1102POPC   GL218746  44.882   0.240   9.074
 1102POPC   C1A18747  44.594   0.482   8.693
 1102POPC   D2A18748  44.736   0.179   8.382
 1102POPC   C3A18749  44.442   0.186   8.029
 1102POPC   C4A18750  44.164   0.472   7.844
 1102POPC   C1B18751   0.110   0.518   8.755
 1102POPC   C2B18752  44.996   0.604   8.323
 1102POPC   C3B18753  44.837   0.512   7.915
 1102POPC   C4B18754  44.862   0.665   7.508
 1103POPC   NC318755  16.847  40.033   9.693
 1103POPC   PO418756  16.147  39.891   9.602
 1103POPC   GL118757  16.535  39.839   9.297
 1103POPC   GL218758  16.866  40.040   9.198
 1103POPC   C1A18759  16.600  39.771   8.840
 1103POPC   D2A18760  16.396  39.896   8.455
 1103POPC   C3A18761  16.572  39.804   8.038
 1103POPC   C4A18762  16.523  40.120   7.708
 1103POPC   C1B18763  16.942  40.206   8.793
 1103POPC   C2B18764  16.906  40.023   8.403
 1103POPC   C3B18765  16.938  40.171   8.003
 1103POPC   C4B18766  16.962  40.379   7.642
 1104POPC   NC318767  29.682  37.526   9.610
 1104POPC   PO418768  30.355  37.631   9.483
 1104POPC   GL118769  30.180  37.852   9.099
 1104POPC   GL218770  29.835  37.905   9.253
 1104POPC   C1A18771  30.342  37.909   8.640
 1104POPC   D2A18772  30.175  37.952   8.179
 1104POPC   C3A18773  29.971  37.552   8.009
 1104POPC   C4A18774  29.541  37.408   7.920
 1104POPC   C1B18775  29.739  37.876   8.796
 1104POPC   C2B18776  29.638  37.917   8.340
 1104POPC   C3B18777  29.686  37.966   7.882
 1104POPC   C4B18778  29.663  38.005   7.447
 1105POPC   NC318779   7.594  25.999   9.533
 1105POPC   PO418780   7.344  26.643   9.525
 1105POPC   GL118781   7.369  26.303   9.159
 1105POPC   GL218782   7.636  26.043   9.030
 1105POPC   C1A18783   7.100  26.082   8.835
 1105POPC   D2A18784   6.977  26.148   8.368
 1105POPC   C3A18785   7.338  26.128   8.133
 1105POPC   C4A18786   7.545  26.037   7.777
 1105POPC   C1B18787   7.546  25.999   8.579
 1105POPC   C2B18788   7.840  26.012   8.222
 1105POPC   C3B18789   7.966  25.762   7.860
 1105POPC   C4B18790   7.868  25.822   7.417
 1106POPC   NC318791  19.498  39.831   9.457
 1106POPC   PO418792  20.094  40.039   9.663
 1106POPC   GL118793  20.030  40.092   9.214
 1106POPC   GL218794  20.220  40.368   9.115
 1106POPC   C1A18795  19.806  39.921   8.836
 1106POPC   D2A18796  19.579  40.039   8.456
 1106POPC   C3A18797  19.671  39.751   8.147
 1106POPC   C4A18798  19.948  39.666   7.821
 1106POPC   C1B18799  20.239  40.152   8.702
 1106POPC   C2B18800  20.194  39.889   8.290
 1106POPC   C3B18801  20.166  40.125   7.888
 1106POPC   C4B18802  20.071  40.365   7.507
 1107POPC   NC318803  27.595   6.777   9.495
 1107POPC   PO418804  28.072   6.266   9.674
 1107POPC   GL118805  27.923   6.498   9.241
 1107POPC   GL218806  27.545   6.467   9.092
 1107POPC   C1A18807  27.894   6.817   8.882
 1107POPC   D2A18808  27.702   6.861   8.457
 1107POPC   C3A18809  27.795   6.550   8.132
 1107POPC   C4A18810  27.569   6.600   7.739
 1107POPC   C1B18811  27.238   6.477   8.738
 1107POPC   C2B18812  27.031   6.426   8.316
 1107POPC   C3B18813  27.088   6.385   7.854
 1107POPC   C4B18814  27.323   6.232   7.486
 1108POPC   NC318815   6.612  25.846   9.421
 1108POPC   PO418816   6.663  26.486   9.500
 1108POPC   GL118817   6.459  26.249   9.141
 1108POPC   GL218818   6.314  25.913   9.001
 1108POPC   C1A18819   6.586  26.183   8.677
 1108POPC   D2A18820   6.528  25.802   8.372
 1108POPC   C3A18821   6.564  25.947   7.968
 1108POPC   C4A18822   6.921  26.175   7.829
 1108POPC   C1B18823   6.742  25.728   8.824
 1108POPC   C2B18824   7.046  25.659   8.485
 1108POPC   C3B18825   7.023  25.716   8.033
 1108POPC   C4B18826   7.096  25.794   7.561
 1109POPC   NC318827  35.645  35.179   9.457
 1109POPC   PO418828  36.321  35.353   9.577
 1109POPC   GL118829  36.138  35.429   9.196
 1109POPC   GL218830  36.001  35.124   9.079
 1109POPC   C1A18831  36.109  35.514   8.761
 1109POPC   D2A18832  36.177  35.207   8.437
 1109POPC   C3A18833  36.201  35.287   8.011
 1109POPC   C4A18834  36.303  35.037   7.640
 1109POPC   C1B18835  35.736  35.134   8.719
 1109POPC   C2B18836  35.715  35.311   8.292
 1109POPC   C3B18837  35.738  35.159   7.850
 1109POPC   C4B18838  35.801  34.841   7.542
 1110POPC   NC318839  12.444  41.135   9.495
 1110POPC   PO418840  13.062  40.811   9.569
 1110POPC   GL118841  13.008  40.811   9.164
 1110POPC   GL218842  12.679  40.822   9.159
 1110POPC   C1A18843  12.943  40.746   8.720
 1110POPC   D2A18844  13.161  40.801   8.348
 1110POPC   C3A18845  13.117  40.504   8.025
 1110POPC   C4A18846  12.730  40.559   7.795
 1110POPC   C1B18847  12.612  41.113   8.852
 1110POPC   C2B18848  12.544  41.056   8.445
 1110POPC   C3B18849  12.754  40.985   8.081
 1110POPC   C4B18850  12.509  41.071   7.739
 1111POPC   NC318851  33.421  21.199   9.525
 1111POPC   PO418852  34.073  21.350   9.368
 1111POPC   GL118853  33.719  21.338   9.123
 1111POPC   GL218854  33.581  21.608   9.223
 1111POPC   C1A18855  33.654  21.245   8.712
 1111POPC   D2A18856  33.987  21.200   8.445
 1111POPC   C3A18857  33.931  21.142   8.021
 1111POPC   C4A18858  34.217  21.276   7.703
 1111POPC   C1B18859  33.608  21.758   8.806
 1111POPC   C2B18860  33.757  21.687   8.406
 1111POPC   C3B18861  33.621  21.799   8.016
 1111POPC   C4B18862  33.773  21.551   7.749
 1112POPC   NC318863  16.166  12.266   9.762
 1112POPC   PO418864  15.771  11.753   9.905
 1112POPC   GL118865  16.064  11.815   9.501
 1112POPC   GL218866  15.952  12.110   9.334
 1112POPC   C1A18867  16.179  11.819   9.016
 1112POPC   D2A18868  16.078  11.933   8.585
 1112POPC   C3A18869  16.349  11.818   8.259
 1112POPC   C4A18870  16.291  11.802   7.814
 1112POPC   C1B18871  16.040  12.354   9.008
 1112POPC   C2B18872  15.934  12.433   8.577
 1112POPC   C3B18873  16.159  12.309   8.205
 1112POPC   C4B18874  16.101  12.328   7.768
 1113POPC   NC318875   5.589  37.766   9.552
 1113POPC   PO418876   6.286  37.993   9.458
 1113POPC   GL118877   5.980  37.833   9.194
 1113POPC   GL218878   5.666  37.897   9.062
 1113POPC   C1A18879   6.016  37.596   8.824
 1113POPC   D2A18880   6.077  37.653   8.411
 1113POPC   C3A18881   5.760  37.748   8.099
 1113POPC   C4A18882   5.768  37.944   7.737
 1113POPC   C1B18883   5.619  37.794   8.623
 1113POPC   C2B18884   5.657  37.372   8.398
 1113POPC   C3B18885   5.510  37.310   7.920
 1113POPC   C4B18886   5.462  37.592   7.520
 1114POPC   NC318887  38.717  20.709   9.463
 1114POPC   PO418888  38.119  20.474   9.509
 1114POPC   GL118889  38.327  20.612   9.126
 1114POPC   GL218890  38.590  20.852   8.996
 1114POPC   C1A18891  38.481  20.435   8.737
 1114POPC   D2A18892  38.563  20.627   8.364
 1114POPC   C3A18893  38.486  20.391   7.989
 1114POPC   C4A18894  38.376  20.476   7.570
 1114POPC   C1B18895  38.691  21.076   8.634
 1114POPC   C2B18896  38.958  20.935   8.285
 1114POPC   C3B18897  38.780  20.792   7.867
 1114POPC   C4B18898  38.868  20.851   7.409
 1115POPC   NC318899  43.196  22.287   9.635
 1115POPC   PO418900  42.655  22.056   9.549
 1115POPC   GL118901  42.920  22.167   9.166
 1115POPC   GL218902  43.302  22.128   9.159
 1115POPC   C1A18903  43.005  22.073   8.697
 1115POPC   D2A18904  42.967  21.821   8.285
 1115POPC   C3A18905  42.894  22.006   7.864
 1115POPC   C4A18906  42.825  22.259   7.483
 1115POPC   C1B18907  43.461  21.850   8.824
 1115POPC   C2B18908  43.503  21.879   8.362
 1115POPC   C3B18909  43.368  21.814   7.897
 1115POPC   C4B18910  43.255  21.953   7.462
 1116POPC   NC318911  36.320  20.175   9.325
 1116POPC   PO418912  36.833  19.827   9.524
 1116POPC   GL118913  36.728  19.831   9.133
 1116POPC   GL218914  36.440  19.667   9.108
 1116POPC   C1A18915  36.940  19.822   8.748
 1116POPC   D2A18916  37.122  20.099   8.466
 1116POPC   C3A18917  37.081  19.914   8.078
 1116POPC   C4A18918  37.074  19.829   7.650
 1116POPC   C1B18919  36.414  19.856   8.708
 1116POPC   C2B18920  36.609  19.848   8.309
 1116POPC   C3B18921  36.594  19.978   7.888
 1116POPC   C4B18922  36.650  20.009   7.440
 1117POPC   NC318923  34.332  33.111   9.523
 1117POPC   PO418924  34.799  32.644   9.415
 1117POPC   GL118925  34.663  32.817   9.047
 1117POPC   GL218926  34.397  33.055   9.004
 1117POPC   C1A18927  34.635  32.797   8.590
 1117POPC   D2A18928  34.434  33.056   8.265
 1117POPC   C3A18929  34.454  32.949   7.804
 1117POPC   C4A18930  34.416  33.127   7.368
 1117POPC   C1B18931  34.805  33.234   8.807
 1117POPC   C2B18932  34.929  33.184   8.400
 1117POPC   C3B18933  34.834  33.234   7.987
 1117POPC   C4B18934  34.898  33.147   7.586
 1118POPC   NC318935  15.088  14.746   9.599
 1118POPC   PO418936  15.335  14.095   9.457
 1118POPC   GL118937  15.169  14.354   9.156
 1118POPC   GL218938  14.933  14.627   9.121
 1118POPC   C1A18939  15.290  14.218   8.739
 1118POPC   D2A18940  15.026  14.348   8.408
 1118POPC   C3A18941  15.233  14.256   8.051
 1118POPC   C4A18942  15.332  14.349   7.651
 1118POPC   C1B18943  15.281  14.714   8.790
 1118POPC   C2B18944  15.394  14.892   8.390
 1118POPC   C3B18945  15.330  14.783   7.953
 1118POPC   C4B18946  15.431  14.978   7.559
 1119POPC   NC318947  17.812  19.635   9.407
 1119POPC   PO418948  17.268  19.672   9.466
 1119POPC   GL118949  17.425  19.746   9.051
 1119POPC   GL218950  17.639  20.026   9.068
 1119POPC   C1A18951  17.392  19.606   8.611
 1119POPC   D2A18952  17.303  19.446   8.180
 1119POPC   C3A18953  17.279  19.737   7.828
 1119POPC   C4A18954  17.442  19.858   7.451
 1119POPC   C1B18955  17.649  20.048   8.605
 1119POPC   C2B18956  17.648  19.829   8.206
 1119POPC   C3B18957  17.732  19.998   7.821
 1119POPC   C4B18958  17.846  20.351   7.599
 1120POPC   NC318959  18.005  42.196   9.406
 1120POPC   PO418960  18.289  42.729   9.489
 1120POPC   GL118961  18.278  42.529   9.104
 1120POPC   GL218962  17.957  42.644   9.082
 1120POPC   C1A18963  18.372  42.187   8.796
 1120POPC   D2A18964  18.561  42.144   8.368
 1120POPC   C3A18965  18.445  42.375   7.995
 1120POPC   C4A18966  18.297  42.179   7.630
 1120POPC   C1B18967  17.870  42.340   8.772
 1120POPC   C2B18968  18.082  42.359   8.391
 1120POPC   C3B18969  17.933  42.371   8.005
 1120POPC   C4B18970  17.792  42.235   7.639
 1121POPC   NC318971  26.402  41.343   9.390
 1121POPC   PO418972  25.822  41.559   9.620
 1121POPC   GL118973  26.025  41.678   9.256
 1121POPC   GL218974  25.949  41.347   9.146
 1121POPC   C1A18975  26.015  41.738   8.811
 1121POPC   D2A18976  26.256  41.672   8.426
 1121POPC   C3A18977  26.130  41.859   8.051
 1121POPC   C4A18978  26.021  41.762   7.659
 1121POPC   C1B18979  25.886  41.133   8.783
 1121POPC   C2B18980  26.018  41.221   8.395
 1121POPC   C3B18981  26.091  41.367   8.020
 1121POPC   C4B18982  25.825  41.274   7.698
 1122POPC   NC318983   2.963  19.477   9.705
 1122POPC   PO418984   2.936  20.141   9.390
 1122POPC   GL118985   2.821  19.861   9.067
 1122POPC   GL218986   2.473  19.875   9.158
 1122POPC   C1A18987   2.953  19.710   8.642
 1122POPC   D2A18988   2.966  19.888   8.195
 1122POPC   C3A18989   3.161  19.679   7.835
 1122POPC   C4A18990   3.156  19.818   7.378
 1122POPC   C1B18991   2.414  19.799   8.714
 1122POPC   C2B18992   2.561  19.590   8.328
 1122POPC   C3B18993   2.562  19.769   7.903
 1122POPC   C4B18994   2.823  20.028   7.689
 1123POPC   NC318995  11.308  14.772   9.588
 1123POPC   PO418996  10.819  14.321   9.551
 1123POPC   GL118997  11.267  14.383   9.288
 1123POPC   GL218998  11.095  14.604   9.103
 1123POPC   C1A18999  11.520  14.571   8.878
 1123POPC   D2A19000  11.217  14.585   8.512
 1123POPC   C3A19001  11.345  14.578   8.065
 1123POPC   C4A19002  11.027  14.592   7.738
 1123POPC   C1B19003  11.215  14.164   8.852
 1123POPC   C2B19004  11.235  14.069   8.430
 1123POPC   C3B19005  11.096  14.128   8.035
 1123POPC   C4B19006  11.344  14.182   7.665
 1124POPC   NC319007  26.031  10.926   9.387
 1124POPC   PO419008  26.302  11.549   9.381
 1124POPC   GL119009  26.032  11.473   9.083
 1124POPC   GL219010  26.226  11.182   8.968
 1124POPC   C1A19011  25.938  11.432   8.649
 1124POPC   D2A19012  26.141  11.199   8.335
 1124POPC   C3A19013  26.054  11.465   8.016
 1124POPC   C4A19014  25.852  11.489   7.659
 1124POPC   C1B19015  25.948  10.900   8.723
 1124POPC   C2B19016  25.834  10.757   8.296
 1124POPC   C3B19017  25.891  10.948   7.872
 1124POPC   C4B19018  25.816  11.012   7.428
 1125POPC   NC319019  23.573  34.944   9.636
 1125POPC   PO419020  24.128  34.646   9.524
 1125POPC   GL119021  23.950  34.695   9.129
 1125POPC   GL219022  23.671  34.924   9.138
 1125POPC   C1A19023  23.919  34.550   8.711
 1125POPC   D2A19024  23.953  34.754   8.310
 1125POPC   C3A19025  23.905  34.441   7.963
 1125POPC   C4A19026  23.524  34.240   7.715
 1125POPC   C1B19027  23.819  35.050   8.749
 1125POPC   C2B19028  23.585  35.149   8.368
 1125POPC   C3B19029  23.367  34.906   8.105
 1125POPC   C4B19030  23.558  34.753   7.776
 1126POPC   NC319031  13.406   9.519   9.571
 1126POPC   PO419032  13.904   9.888   9.392
 1126POPC   GL119033  13.807   9.744   9.032
 1126POPC   GL219034  13.442   9.701   9.096
 1126POPC   C1A19035  13.943   9.945   8.648
 1126POPC   D2A19036  13.731   9.900   8.259
 1126POPC   C3A19037  13.844   9.832   7.864
 1126POPC   C4A19038  13.447  10.026   7.775
 1126POPC   C1B19039  13.434   9.847   8.684
 1126POPC   C2B19040  13.265   9.684   8.330
 1126POPC   C3B19041  13.320   9.562   7.940
 1126POPC   C4B19042  13.076   9.674   7.610
 1127POPC   NC319043  35.902  33.503   9.573
 1127POPC   PO419044  36.424  34.006   9.556
 1127POPC   GL119045  36.189  33.780   9.229
 1127POPC   GL219046  36.388  33.524   9.157
 1127POPC   C1A19047  35.961  33.773   8.818
 1127POPC   D2A19048  36.163  33.812   8.402
 1127POPC   C3A19049  35.929  33.807   8.026
 1127POPC   C4A19050  35.951  34.042   7.624
 1127POPC   C1B19051  36.326  33.417   8.770
 1127POPC   C2B19052  36.521  33.408   8.381
 1127POPC   C3B19053  36.425  33.596   7.972
 1127POPC   C4B19054  36.295  33.689   7.547
 1128POPC   NC319055  41.358   4.803   9.625
 1128POPC   PO419056  41.736   5.476   9.543
 1128POPC   GL119057  41.599   5.273   9.196
 1128POPC   GL219058  41.896   5.396   9.042
 1128POPC   C1A19059  41.649   4.978   8.847
 1128POPC   D2A19060  41.460   4.769   8.483
 1128POPC   C3A19061  41.518   4.941   8.054
 1128POPC   C4A19062  41.432   4.808   7.619
 1128POPC   C1B19063  41.677   5.499   8.709
 1128POPC   C2B19064  41.460   5.337   8.401
 1128POPC   C3B19065  41.581   5.451   8.026
 1128POPC   C4B19066  41.512   5.341   7.630
 1129POPC   NC319067  30.201  17.441   9.452
 1129POPC   PO419068  29.703  17.159   9.800
 1129POPC   GL119069  29.719  17.277   9.286
 1129POPC   GL219070  29.818  17.553   9.127
 1129POPC   C1A19071  29.676  17.210   8.779
 1129POPC   D2A19072  29.865  17.102   8.327
 1129POPC   C3A19073  29.747  17.277   7.913
 1129POPC   C4A19074  29.701  17.130   7.482
 1129POPC   C1B19075  30.099  17.486   8.780
 1129POPC   C2B19076  29.961  17.595   8.373
 1129POPC   C3B19077  29.955  17.747   7.960
 1129POPC   C4B19078  29.993  17.552   7.542
 1130POPC   NC319079   2.209  13.142   9.400
 1130POPC   PO419080   2.681  12.674   9.690
 1130POPC   GL119081   2.663  12.909   9.319
 1130POPC   GL219082   2.430  12.703   9.204
 1130POPC   C1A19083   2.852  12.989   8.908
 1130POPC   D2A19084   2.712  13.035   8.462
 1130POPC   C3A19085   2.835  12.750   8.126
 1130POPC   C4A19086   2.949  12.978   7.773
 1130POPC   C1B19087   2.365  12.821   8.783
 1130POPC   C2B19088   2.436  12.564   8.424
 1130POPC   C3B19089   2.457  12.391   8.027
 1130POPC   C4B19090   2.554  12.614   7.673
 1131POPC   NC319091  34.064  26.101   9.403
 1131POPC   PO419092  33.820  25.515   9.510
 1131POPC   GL119093  33.738  25.767   9.119
 1131POPC   GL219094  33.695  26.153   9.062
 1131POPC   C1A19095  33.777  25.882   8.668
 1131POPC   D2A19096  34.059  25.820   8.343
 1131POPC   C3A19097  33.870  26.052   8.061
 1131POPC   C4A19098  34.015  26.058   7.676
 1131POPC   C1B19099  33.413  26.346   8.749
 1131POPC   C2B19100  33.386  26.327   8.298
 1131POPC   C3B19101  33.363  26.011   7.983
 1131POPC   C4B19102  33.549  25.846   7.590
 1132POPC   NC319103  39.286  44.277   9.700
 1132POPC   PO419104  39.335  43.600   9.392
 1132POPC   GL119105  39.420  43.858   9.050
 1132POPC   GL219106  39.070  43.867   8.982
 1132POPC   C1A19107  39.359  43.818   8.584
 1132POPC   D2A19108  39.290  44.106   8.249
 1132POPC   C3A19109  39.490  43.918   7.896
 1132POPC   C4A19110  39.377  44.021   7.468
 1132POPC   C1B19111  38.858  44.036   8.608
 1132POPC   C2B19112  38.754  44.196   8.202
 1132POPC   C3B19113  38.998  44.130   7.823
 1132POPC   C4B19114  38.884  43.935   7.464
 1133POPC   NC319115  44.494  24.801   9.374
 1133POPC   PO419116  44.715  25.382   9.594
 1133POPC   GL119117  44.600  25.286   9.171
 1133POPC   GL219118  44.814  25.054   9.050
 1133POPC   C1A19119  44.420  25.242   8.739
 1133POPC   D2A19120  44.235  25.410   8.351
 1133POPC   C3A19121  44.319  25.453   7.917
 1133POPC   C4A19122  44.356  25.154   7.584
 1133POPC   C1B19123  44.904  25.379   8.717
 1133POPC   C2B19124  44.747  25.368   8.262
 1133POPC   C3B19125  44.798  25.214   7.827
 1133POPC   C4B19126  44.852  25.127   7.375
 1134POPC   NC319127  27.362  34.168   9.638
 1134POPC   PO419128  27.894  33.810   9.515
 1134POPC   GL119129  27.789  34.045   9.129
 1134POPC   GL219130  27.466  34.043   8.956
 1134POPC   C1A19131  27.909  34.040   8.692
 1134POPC   D2A19132  27.963  34.264   8.312
 1134POPC   C3A19133  27.829  34.027   7.955
 1134POPC   C4A19134  27.422  33.876   7.835
 1134POPC   C1B19135  27.431  33.756   8.571
 1134POPC   C2B19136  27.355  33.493   8.175
 1134POPC   C3B19137  27.073  33.477   7.765
 1134POPC   C4B19138  27.081  33.359   7.252
 1135POPC   NC319139  21.320   5.810   9.599
 1135POPC   PO419140  21.834   6.192   9.341
 1135POPC   GL119141  21.448   6.068   9.160
 1135POPC   GL219142  21.543   5.712   9.156
 1135POPC   C1A19143  21.213   5.909   8.789
 1135POPC   D2A19144  20.984   5.922   8.383
 1135POPC   C3A19145  21.201   6.071   8.056
 1135POPC   C4A19146  21.417   5.793   7.803
 1135POPC   C1B19147  21.723   5.863   8.777
 1135POPC   C2B19148  21.568   5.902   8.383
 1135POPC   C3B19149  21.813   5.717   8.091
 1135POPC   C4B19150  21.992   5.426   7.824
 1136POPC   NC319151  36.248  24.029   9.471
 1136POPC   PO419152  35.780  23.635   9.553
 1136POPC   GL119153  35.923  23.749   9.154
 1136POPC   GL219154  35.845  24.087   9.099
 1136POPC   C1A19155  35.941  23.499   8.778
 1136POPC   D2A19156  35.769  23.548   8.348
 1136POPC   C3A19157  36.053  23.519   7.999
 1136POPC   C4A19158  36.119  23.314   7.622
 1136POPC   C1B19159  35.720  24.291   8.724
 1136POPC   C2B19160  35.959  24.215   8.293
 1136POPC   C3B19161  35.876  23.995   7.891
 1136POPC   C4B19162  36.093  23.814   7.543
 1137POPC   NC319163  27.485  14.412   9.778
 1137POPC   PO419164  26.889  14.469   9.486
 1137POPC   GL119165  26.882  14.386   9.076
 1137POPC   GL219166  26.983  14.075   9.096
 1137POPC   C1A19167  26.677  14.494   8.717
 1137POPC   D2A19168  26.862  14.739   8.415
 1137POPC   C3A19169  26.765  14.574   8.039
 1137POPC   C4A19170  26.702  14.772   7.667
 1137POPC   C1B19171  26.759  13.960   8.749
 1137POPC   C2B19172  26.840  14.070   8.341
 1137POPC   C3B19173  26.682  13.975   7.960
 1137POPC   C4B19174  26.762  14.258   7.631
 1138POPC   NC319175  10.426  37.072   9.388
 1138POPC   PO419176  10.936  36.609   9.488
 1138POPC   GL119177  10.752  36.676   9.057
 1138POPC   GL219178  10.413  36.832   8.943
 1138POPC   C1A19179  10.787  36.822   8.617
 1138POPC   D2A19180  10.968  37.158   8.373
 1138POPC   C3A19181  10.769  37.234   7.990
 1138POPC   C4A19182  10.507  37.090   7.663
 1138POPC   C1B19183  10.275  37.212   8.717
 1138POPC   C2B19184  10.010  37.178   8.338
 1138POPC   C3B19185  10.024  36.757   8.107
 1138POPC   C4B19186  10.269  36.635   7.721
 1139POPC   NC319187  27.669  20.691   9.398
 1139POPC   PO419188  27.971  20.068   9.360
 1139POPC   GL119189  27.810  20.345   9.051
 1139POPC   GL219190  27.449  20.405   9.052
 1139POPC   C1A19191  27.767  20.509   8.634
 1139POPC   D2A19192  27.695  20.460   8.188
 1139POPC   C3A19193  27.599  20.817   7.971
 1139POPC   C4A19194  27.546  20.744   7.578
 1139POPC   C1B19195  27.279  20.396   8.656
 1139POPC   C2B19196  27.221  20.617   8.273
 1139POPC   C3B19197  27.248  20.422   7.872
 1139POPC   C4B19198  27.145  20.018   7.686
 1140POPC   NC319199  40.709  21.159   9.479
 1140POPC   PO419200  41.216  20.886   9.404
 1140POPC   GL119201  40.985  21.110   9.057
 1140POPC   GL219202  40.881  21.462   9.098
 1140POPC   C1A19203  40.834  21.220   8.638
 1140POPC   D2A19204  40.710  21.434   8.278
 1140POPC   C3A19205  40.703  21.254   7.873
 1140POPC   C4A19206  41.027  21.095   7.579
 1140POPC   C1B19207  40.862  21.734   8.721
 1140POPC   C2B19208  41.041  21.848   8.297
 1140POPC   C3B19209  40.814  21.777   7.910
 1140POPC   C4B19210  40.361  21.709   7.930
 1141POPC   NC319211  43.018  10.238   9.648
 1141POPC   PO419212  42.870   9.546   9.632
 1141POPC   GL119213  42.837   9.729   9.255
 1141POPC   GL219214  42.594   9.542   9.116
 1141POPC   C1A19215  43.051   9.671   8.862
 1141POPC   D2A19216  42.991   9.843   8.467
 1141POPC   C3A19217  43.125   9.764   8.068
 1141POPC   C4A19218  42.891   9.585   7.773
 1141POPC   C1B19219  42.614   9.929   8.820
 1141POPC   C2B19220  42.738  10.273   8.453
 1141POPC   C3B19221  42.903  10.398   8.024
 1141POPC   C4B19222  43.033  10.111   7.702
 1142POPC   NC319223  30.490  15.071   9.420
 1142POPC   PO419224  30.995  15.422   9.734
 1142POPC   GL119225  30.851  15.409   9.239
 1142POPC   GL219226  30.504  15.398   9.041
 1142POPC   C1A19227  30.886  15.170   8.815
 1142POPC   D2A19228  30.707  15.131   8.415
 1142POPC   C3A19229  30.855  15.014   8.052
 1142POPC   C4A19230  30.681  15.277   7.739
 1142POPC   C1B19231  30.409  14.986   8.794
 1142POPC   C2B19232  30.273  14.860   8.374
 1142POPC   C3B19233  30.344  14.984   7.950
 1142POPC   C4B19234  30.328  15.022   7.449
 1143POPC   NC319235   2.161  40.140   9.548
 1143POPC   PO419236   1.800  39.584   9.495
 1143POPC   GL119237   2.001  39.811   9.167
 1143POPC   GL219238   2.015  39.576   8.905
 1143POPC   C1A19239   1.999  40.062   8.797
 1143POPC   D2A19240   1.850  40.269   8.471
 1143POPC   C3A19241   2.018  40.232   8.071
 1143POPC   C4A19242   2.129  40.219   7.688
 1143POPC   C1B19243   2.108  39.616   8.467
 1143POPC   C2B19244   1.889  39.743   8.095
 1143POPC   C3B19245   2.010  39.728   7.674
 1143POPC   C4B19246   2.144  39.650   7.226
 1144POPC   NC319247  37.518   2.066   9.587
 1144POPC   PO419248  38.175   2.029   9.690
 1144POPC   GL119249  37.903   2.219   9.275
 1144POPC   GL219250  37.529   2.345   9.167
 1144POPC   C1A19251  37.718   2.022   8.848
 1144POPC   D2A19252  37.419   1.797   8.580
 1144POPC   C3A19253  37.411   1.817   8.126
 1144POPC   C4A19254  37.604   2.066   7.808
 1144POPC   C1B19255  37.291   2.381   8.805
 1144POPC   C2B19256  37.193   2.240   8.386
 1144POPC   C3B19257  37.213   2.362   7.940
 1144POPC   C4B19258  37.313   2.309   7.457
 1145POPC   NC319259   1.437   9.498   9.691
 1145POPC   PO419260   0.847   9.963   9.598
 1145POPC   GL119261   1.178   9.884   9.303
 1145POPC   GL219262   1.188   9.565   9.234
 1145POPC   C1A19263   1.164   9.974   8.858
 1145POPC   D2A19264   0.891   9.898   8.476
 1145POPC   C3A19265   1.076   9.866   8.056
 1145POPC   C4A19266   1.408  10.035   7.790
 1145POPC   C1B19267   1.300   9.494   8.770
 1145POPC   C2B19268   1.212   9.422   8.317
 1145POPC   C3B19269   1.441   9.526   7.911
 1145POPC   C4B19270   1.437   9.500   7.449
 1146POPC   NC319271  33.459  28.536   9.325
 1146POPC   PO419272  34.046  28.393   9.656
 1146POPC   GL119273  33.927  28.234   9.224
 1146POPC   GL219274  33.607  28.021   9.249
 1146POPC   C1A19275  33.922  28.459   8.801
 1146POPC   D2A19276  33.835  28.672   8.382
 1146POPC   C3A19277  33.900  28.485   7.943
 1146POPC   C4A19278  33.800  28.388   7.480
 1146POPC   C1B19279  33.682  27.993   8.800
 1146POPC   C2B19280  33.952  28.080   8.441
 1146POPC   C3B19281  33.825  27.956   8.048
 1146POPC   C4B19282  33.623  27.923   7.650
 1147POPC   NC319283   4.493   2.660   9.519
 1147POPC   PO419284   3.939   2.218   9.411
 1147POPC   GL119285   4.195   2.495   9.091
 1147POPC   GL219286   4.486   2.716   9.035
 1147POPC   C1A19287   4.069   2.827   8.758
 1147POPC   D2A19288   3.738   2.967   8.450
 1147POPC   C3A19289   3.908   2.810   8.047
 1147POPC   C4A19290   4.283   2.853   7.820
 1147POPC   C1B19291   4.662   2.836   8.694
 1147POPC   C2B19292   4.512   2.867   8.298
 1147POPC   C3B19293   4.702   3.103   7.987
 1147POPC   C4B19294   4.870   3.061   7.606
 1148POPC   NC319295   4.452  10.755   9.670
 1148POPC   PO419296   3.986  10.429   9.424
 1148POPC   GL119297   4.398  10.542   9.208
 1148POPC   GL219298   4.182  10.625   8.966
 1148POPC   C1A19299   4.649  10.755   8.851
 1148POPC   D2A19300   4.379  10.719   8.444
 1148POPC   C3A19301   4.542  10.764   7.996
 1148POPC   C4A19302   4.455  10.573   7.567
 1148POPC   C1B19303   4.051  10.339   8.688
 1148POPC   C2B19304   4.206  10.198   8.337
 1148POPC   C3B19305   4.219  10.363   7.950
 1148POPC   C4B19306   4.010  10.291   7.516
 1149POPC   NC319307  28.252  25.478   9.453
 1149POPC   PO419308  28.572  24.971   9.699
 1149POPC   GL119309  28.511  25.097   9.181
 1149POPC   GL219310  28.250  24.925   8.934
 1149POPC   C1A19311  28.537  25.373   8.842
 1149POPC   D2A19312  28.666  25.556   8.482
 1149POPC   C3A19313  28.815  25.290   8.141
 1149POPC   C4A19314  28.541  25.106   7.846
 1149POPC   C1B19315  28.064  25.193   8.680
 1149POPC   C2B19316  28.286  25.241   8.321
 1149POPC   C3B19317  28.146  25.444   7.995
 1149POPC   C4B19318  28.070  25.227   7.608
 1150POPC   NC319319  44.815  43.691   9.471
 1150POPC   PO419320  44.182  44.051   9.517
 1150POPC   GL119321  44.497  44.003   9.207
 1150POPC   GL219322  44.426  43.659   9.124
 1150POPC   C1A19323  44.794  44.021   8.843
 1150POPC   D2A19324   0.007  44.058   8.434
 1150POPC   C3A19325  44.796  43.897   8.083
 1150POPC   C4A19326  44.581  43.925   7.701
 1150POPC   C1B19327  44.559  43.574   8.686
 1150POPC   C2B19328  44.497  43.511   8.235
 1150POPC   C3B19329  44.544  43.441   7.786
 1150POPC   C4B19330  44.799  43.477   7.391
 1151POPC   NC319331   3.313  16.953   9.523
 1151POPC   PO419332   3.660  16.424   9.472
 1151POPC   GL119333   3.573  16.669   9.151
 1151POPC   GL219334   3.234  16.630   9.143
 1151POPC   C1A19335   3.761  16.556   8.761
 1151POPC   D2A19336   3.697  16.272   8.431
 1151POPC   C3A19337   3.618  16.581   8.138
 1151POPC   C4A19338   3.877  16.677   7.790
 1151POPC   C1B19339   3.292  16.817   8.763
 1151POPC   C2B19340   3.356  16.966   8.394
 1151POPC   C3B19341   3.180  16.834   8.041
 1151POPC   C4B19342   3.398  16.794   7.707
 1152POPC   NC319343  20.194  39.515   9.715
 1152POPC   PO419344  20.676  39.096   9.427
 1152POPC   GL119345  20.758  38.997   9.066
 1152POPC   GL219346  20.421  38.823   9.025
 1152POPC   C1A19347  20.807  39.343   8.752
 1152POPC   D2A19348  20.587  39.360   8.385
 1152POPC   C3A19349  20.831  39.353   8.057
 1152POPC   C4A19350  20.696  39.208   7.686
 1152POPC   C1B19351  20.610  38.898   8.602
 1152POPC   C2B19352  20.590  38.894   8.140
 1152POPC   C3B19353  20.632  38.700   7.763
 1152POPC   C4B19354  20.874  38.799   7.442
 1153POPC   NC319355  17.948  23.949   9.447
 1153POPC   PO419356  18.677  24.069   9.485
 1153POPC   GL119357  18.365  23.798   9.189
 1153POPC   GL219358  18.470  23.449   9.150
 1153POPC   C1A19359  18.073  23.969   8.801
 1153POPC   D2A19360  17.885  23.892   8.394
 1153POPC   C3A19361  18.094  23.608   8.091
 1153POPC   C4A19362  18.297  23.678   7.660
 1153POPC   C1B19363  18.356  23.547   8.728
 1153POPC   C2B19364  18.428  23.335   8.355
 1153POPC   C3B19365  18.610  23.455   7.977
 1153POPC   C4B19366  18.848  23.620   7.616
 1154POPC   NC319367  15.210  35.709   9.501
 1154POPC   PO419368  15.597  36.263   9.427
 1154POPC   GL119369  15.271  36.068   9.144
 1154POPC   GL219370  14.912  35.947   9.149
 1154POPC   C1A19371  15.150  36.109   8.720
 1154POPC   D2A19372  15.426  36.148   8.377
 1154POPC   C3A19373  15.197  36.285   8.028
 1154POPC   C4A19374  15.274  36.049   7.682
 1154POPC   C1B19375  14.892  35.667   8.769
 1154POPC   C2B19376  15.118  35.691   8.362
 1154POPC   C3B19377  14.958  35.746   7.952
 1154POPC   C4B19378  14.929  35.711   7.530
 1155POPC   NC319379   7.398  37.995   9.816
 1155POPC   PO419380   7.209  37.559   9.306
 1155POPC   GL119381   7.533  37.750   9.062
 1155POPC   GL219382   7.730  37.428   9.064
 1155POPC   C1A19383   7.320  37.900   8.654
 1155POPC   D2A19384   7.137  37.618   8.317
 1155POPC   C3A19385   7.200  37.749   7.875
 1155POPC   C4A19386   7.276  37.596   7.459
 1155POPC   C1B19387   7.724  37.595   8.628
 1155POPC   C2B19388   7.648  37.645   8.170
 1155POPC   C3B19389   7.695  37.451   7.747
 1155POPC   C4B19390   7.708  37.417   7.275
 1156POPC   NC319391   9.524  14.711   9.665
 1156POPC   PO419392   9.575  14.096   9.381
 1156POPC   GL119393   9.556  14.422   9.095
 1156POPC   GL219394   9.900  14.429   9.088
 1156POPC   C1A19395   9.491  14.458   8.641
 1156POPC   D2A19396   9.653  14.184   8.344
 1156POPC   C3A19397   9.742  14.347   7.958
 1156POPC   C4A19398   9.586  14.322   7.543
 1156POPC   C1B19399   9.863  14.770   8.785
 1156POPC   C2B19400   9.917  14.699   8.374
 1156POPC   C3B19401  10.056  14.781   7.990
 1156POPC   C4B19402   9.810  14.758   7.663
 1157POPC   NC319403   1.449  23.472   9.657
 1157POPC   PO419404   1.233  22.755   9.561
 1157POPC   GL119405   1.124  22.668   9.146
 1157POPC   GL219406   1.272  22.994   9.112
 1157POPC   C1A19407   1.236  22.711   8.678
 1157POPC   D2A19408   1.039  22.796   8.260
 1157POPC   C3A19409   1.310  22.728   7.877
 1157POPC   C4A19410   1.648  22.762   7.544
 1157POPC   C1B19411   0.971  23.122   8.848
 1157POPC   C2B19412   1.086  23.272   8.463
 1157POPC   C3B19413   1.332  23.211   8.105
 1157POPC   C4B19414   1.065  23.339   7.790
 1158POPC   NC319415   6.950  31.501   9.247
 1158POPC   PO419416   6.397  31.144   9.024
 1158POPC   GL119417   6.528  31.580   8.975
 1158POPC   GL219418   6.297  31.720   9.208
 1158POPC   C1A19419   6.714  31.666   8.580
 1158POPC   D2A19420   6.645  31.379   8.250
 1158POPC   C3A19421   6.918  31.221   7.925
 1158POPC   C4A19422   6.797  31.280   7.472
 1158POPC   C1B19423   6.089  31.755   8.792
 1158POPC   C2B19424   6.227  31.732   8.345
 1158POPC   C3B19425   6.377  31.646   7.902
 1158POPC   C4B19426   6.834  31.684   7.788
 1159POPC   NC319427  15.048  32.361   9.622
 1159POPC   PO419428  15.518  31.975   9.549
 1159POPC   GL119429  15.285  32.191   9.211
 1159POPC   GL219430  15.087  32.487   9.127
 1159POPC   C1A19431  15.335  32.136   8.792
 1159POPC   D2A19432  15.120  32.195   8.417
 1159POPC   C3A19433  15.278  32.203   8.016
 1159POPC   C4A19434  14.970  32.316   7.703
 1159POPC   C1B19435  15.208  32.631   8.700
 1159POPC   C2B19436  15.075  32.696   8.255
 1159POPC   C3B19437  15.262  32.694   7.839
 1159POPC   C4B19438  15.147  32.745   7.365
 1160POPC   NC319439  37.207  38.277   9.460
 1160POPC   PO419440  37.794  38.587   9.606
 1160POPC   GL119441  37.576  38.626   9.218
 1160POPC   GL219442  37.857  38.849   9.135
 1160POPC   C1A19443  37.438  38.409   8.828
 1160POPC   D2A19444  37.600  38.207   8.439
 1160POPC   C3A19445  37.751  38.322   8.016
 1160POPC   C4A19446  38.021  38.624   7.795
 1160POPC   C1B19447  37.597  38.891   8.752
 1160POPC   C2B19448  37.694  38.907   8.284
 1160POPC   C3B19449  37.539  38.760   7.874
 1160POPC   C4B19450  37.304  38.698   7.470
 1161POPC   NC319451  44.219   7.990   9.552
 1161POPC   PO419452  43.559   8.028   9.443
 1161POPC   GL119453  43.653   8.208   9.082
 1161POPC   GL219454  43.990   8.242   9.167
 1161POPC   C1A19455  43.790   8.199   8.653
 1161POPC   D2A19456  43.994   8.054   8.301
 1161POPC   C3A19457  43.757   8.144   7.975
 1161POPC   C4A19458  43.581   7.967   7.630
 1161POPC   C1B19459  44.266   8.197   8.835
 1161POPC   C2B19460  44.376   8.325   8.460
 1161POPC   C3B19461  44.244   8.443   8.041
 1161POPC   C4B19462  44.208   8.096   7.767
 1162POPC   NC319463  20.360   7.424   9.600
 1162POPC   PO419464  20.945   7.657   9.464
 1162POPC   GL119465  20.713   7.504   9.120
 1162POPC   GL219466  20.745   7.183   9.055
 1162POPC   C1A19467  20.856   7.482   8.671
 1162POPC   D2A19468  20.978   7.571   8.279
 1162POPC   C3A19469  20.687   7.495   7.931
 1162POPC   C4A19470  20.725   7.673   7.509
 1162POPC   C1B19471  20.443   7.192   8.716
 1162POPC   C2B19472  20.326   7.361   8.303
 1162POPC   C3B19473  20.174   7.294   7.877
 1162POPC   C4B19474  20.395   7.291   7.504
 1163POPC   NC319475  41.104  11.986   9.570
 1163POPC   PO419476  40.513  11.796   9.659
 1163POPC   GL119477  40.791  11.873   9.195
 1163POPC   GL219478  40.637  12.131   8.985
 1163POPC   C1A19479  40.902  11.736   8.780
 1163POPC   D2A19480  40.715  11.999   8.491
 1163POPC   C3A19481  40.762  11.954   8.090
 1163POPC   C4A19482  40.941  12.157   7.728
 1163POPC   C1B19483  40.953  12.392   8.740
 1163POPC   C2B19484  40.958  12.394   8.283
 1163POPC   C3B19485  40.538  12.400   8.077
 1163POPC   C4B19486  40.450  12.433   7.652
 1164POPC   NC319487   0.234  42.018   9.345
 1164POPC   PO419488   0.767  42.544   9.335
 1164POPC   GL119489   0.608  42.248   9.105
 1164POPC   GL219490   0.807  42.009   9.040
 1164POPC   C1A19491   0.474  42.264   8.710
 1164POPC   D2A19492   0.511  42.565   8.386
 1164POPC   C3A19493   0.440  42.383   8.009
 1164POPC   C4A19494   0.623  42.536   7.658
 1164POPC   C1B19495   0.753  41.798   8.686
 1164POPC   C2B19496   0.456  41.852   8.360
 1164POPC   C3B19497   0.397  41.874   7.941
 1164POPC   C4B19498   0.566  41.961   7.553
 1165POPC   NC319499  19.157  10.187   9.658
 1165POPC   PO419500  19.080  10.847   9.574
 1165POPC   GL119501  19.099  10.556   9.256
 1165POPC   GL219502  18.767  10.397   9.302
 1165POPC   C1A19503  19.243  10.662   8.828
 1165POPC   D2A19504  19.091  10.786   8.406
 1165POPC   C3A19505  19.252  10.545   8.027
 1165POPC   C4A19506  19.150  10.625   7.592
 1165POPC   C1B19507  18.778  10.450   8.824
 1165POPC   C2B19508  18.891  10.304   8.357
 1165POPC   C3B19509  18.798  10.314   7.890
 1165POPC   C4B19510  18.840  10.271   7.415
 1166POPC   NC319511  31.190  36.891   9.505
 1166POPC   PO419512  31.719  36.574   9.316
 1166POPC   GL119513  31.519  36.906   9.042
 1166POPC   GL219514  31.267  37.164   9.092
 1166POPC   C1A19515  31.748  37.047   8.669
 1166POPC   D2A19516  31.908  36.821   8.294
 1166POPC   C3A19517  31.822  36.950   7.875
 1166POPC   C4A19518  31.516  36.768   7.628
 1166POPC   C1B19519  31.368  37.391   8.739
 1166POPC   C2B19520  31.332  37.234   8.357
 1166POPC   C3B19521  31.384  37.170   7.946
 1166POPC   C4B19522  31.244  37.214   7.561
 1167POPC   NC319523   2.768  11.617   9.495
 1167POPC   PO419524   3.084  11.050   9.793
 1167POPC   GL119525   2.891  11.149   9.336
 1167POPC   GL219526   3.107  11.393   9.184
 1167POPC   C1A19527   2.770  11.173   8.854
 1167POPC   D2A19528   2.647  11.230   8.401
 1167POPC   C3A19529   2.589  11.381   7.984
 1167POPC   C4A19530   2.602  11.028   7.701
 1167POPC   C1B19531   3.155  11.497   8.750
 1167POPC   C2B19532   2.912  11.672   8.415
 1167POPC   C3B19533   3.031  11.727   8.001
 1167POPC   C4B19534   2.992  11.649   7.589
 1168POPC   NC319535  25.380  16.429   9.473
 1168POPC   PO419536  25.459  15.754   9.612
 1168POPC   GL119537  25.556  15.976   9.295
 1168POPC   GL219538  25.853  16.126   9.394
 1168POPC   C1A19539  25.339  16.005   8.895
 1168POPC   D2A19540  25.119  16.063   8.520
 1168POPC   C3A19541  25.266  16.010   8.103
 1168POPC   C4A19542  25.121  16.258   7.758
 1168POPC   C1B19543  25.835  16.102   8.915
 1168POPC   C2B19544  25.682  16.082   8.507
 1168POPC   C3B19545  25.790  16.099   8.084
 1168POPC   C4B19546  25.605  16.088   7.700
 1169POPC   NC319547  38.641   1.618   9.210
 1169POPC   PO419548  38.288   1.171   9.647
 1169POPC   GL119549  38.372   1.120   9.201
 1169POPC   GL219550  38.215   1.366   9.052
 1169POPC   C1A19551  38.596   1.077   8.785
 1169POPC   D2A19552  38.485   0.882   8.366
 1169POPC   C3A19553  38.552   1.128   7.982
 1169POPC   C4A19554  38.819   1.438   7.744
 1169POPC   C1B19555  38.085   1.117   8.715
 1169POPC   C2B19556  38.289   1.361   8.415
 1169POPC   C3B19557  38.323   1.596   8.077
 1169POPC   C4B19558  38.282   1.457   7.690
 1170POPC   NC319559  15.495  15.372   9.503
 1170POPC   PO419560  14.860  15.227   9.512
 1170POPC   GL119561  15.056  15.128   9.137
 1170POPC   GL219562  15.381  14.997   9.184
 1170POPC   C1A19563  14.993  15.104   8.682
 1170POPC   D2A19564  14.842  14.830   8.327
 1170POPC   C3A19565  14.848  15.074   7.931
 1170POPC   C4A19566  14.921  15.043   7.492
 1170POPC   C1B19567  15.392  15.381   8.854
 1170POPC   C2B19568  15.240  15.463   8.435
 1170POPC   C3B19569  15.299  15.289   8.055
 1170POPC   C4B19570  15.245  15.480   7.681
 1171POPC   NC319571  21.597  13.665   9.503
 1171POPC   PO419572  22.229  13.486   9.406
 1171POPC   GL119573  22.159  13.489   9.028
 1171POPC   GL219574  21.813  13.449   9.070
 1171POPC   C1A19575  22.205  13.328   8.634
 1171POPC   D2A19576  22.040  13.571   8.312
 1171POPC   C3A19577  22.270  13.637   7.926
 1171POPC   C4A19578  22.621  13.908   7.783
 1171POPC   C1B19579  21.622  13.368   8.685
 1171POPC   C2B19580  21.551  13.442   8.246
 1171POPC   C3B19581  21.850  13.327   7.903
 1171POPC   C4B19582  21.988  13.468   7.478
 1172POPC   NC319583  40.182   1.784   9.495
 1172POPC   PO419584  39.797   2.280   9.326
 1172POPC   GL119585  39.860   1.900   9.089
 1172POPC   GL219586  40.190   2.032   9.062
 1172POPC   C1A19587  40.011   1.824   8.637
 1172POPC   D2A19588  40.127   2.122   8.283
 1172POPC   C3A19589  39.924   2.113   7.898
 1172POPC   C4A19590  39.625   1.838   7.732
 1172POPC   C1B19591  40.412   2.149   8.715
 1172POPC   C2B19592  40.629   2.081   8.343
 1172POPC   C3B19593  40.492   1.934   7.957
 1172POPC   C4B19594  40.346   2.184   7.623
 1173POPC   NC319595  33.472  29.781   9.549
 1173POPC   PO419596  33.855  30.196   9.336
 1173POPC   GL119597  33.890  29.802   9.158
 1173POPC   GL219598  33.583  29.715   9.027
 1173POPC   C1A19599  34.106  29.657   8.787
 1173POPC   D2A19600  34.118  29.526   8.335
 1173POPC   C3A19601  33.976  29.896   8.120
 1173POPC   C4A19602  33.856  30.255   7.857
 1173POPC   C1B19603  33.719  30.012   8.675
 1173POPC   C2B19604  33.520  30.066   8.259
 1173POPC   C3B19605  33.532  29.840   7.822
 1173POPC   C4B19606  33.435  29.663   7.388
 1174POPC   NC319607   1.472   3.745   9.461
 1174POPC   PO419608   1.179   3.145   9.550
 1174POPC   GL119609   1.171   3.426   9.212
 1174POPC   GL219610   0.859   3.474   9.092
 1174POPC   C1A19611   1.240   3.692   8.836
 1174POPC   D2A19612   1.269   3.578   8.425
 1174POPC   C3A19613   1.196   3.862   8.070
 1174POPC   C4A19614   1.118   3.809   7.589
 1174POPC   C1B19615   1.049   3.216   8.759
 1174POPC   C2B19616   1.081   3.084   8.345
 1174POPC   C3B19617   1.113   3.337   8.021
 1174POPC   C4B19618   1.343   3.360   7.696
 1175POPC   NC319619  25.867  40.329   9.478
 1175POPC   PO419620  26.164  40.954   9.464
 1175POPC   GL119621  25.890  40.773   9.183
 1175POPC   GL219622  26.150  40.540   9.123
 1175POPC   C1A19623  25.710  40.627   8.810
 1175POPC   D2A19624  25.776  40.768   8.406
 1175POPC   C3A19625  25.684  40.540   8.035
 1175POPC   C4A19626  25.855  40.555   7.617
 1175POPC   C1B19627  26.244  40.758   8.754
 1175POPC   C2B19628  26.288  40.788   8.327
 1175POPC   C3B19629  26.067  40.878   7.956
 1175POPC   C4B19630  26.262  41.005   7.552
 1176POPC   NC319631  11.960  18.420   9.777
 1176POPC   PO419632  11.267  18.366   9.595
 1176POPC   GL119633  11.213  18.415   9.171
 1176POPC   GL219634  11.554  18.365   9.129
 1176POPC   C1A19635  11.111  18.505   8.724
 1176POPC   D2A19636  11.273  18.465   8.288
 1176POPC   C3A19637  11.170  18.143   7.975
 1176POPC   C4A19638  11.049  18.469   7.711
 1176POPC   C1B19639  11.391  18.070   8.830
 1176POPC   C2B19640  11.521  18.041   8.422
 1176POPC   C3B19641  11.667  18.211   8.041
 1176POPC   C4B19642  11.586  18.082   7.644
 1177POPC   NC319643  13.179  17.802   9.511
 1177POPC   PO419644  12.745  17.325   9.699
 1177POPC   GL119645  12.845  17.397   9.256
 1177POPC   GL219646  12.761  17.765   9.175
 1177POPC   C1A19647  12.803  17.382   8.796
 1177POPC   D2A19648  13.057  17.549   8.438
 1177POPC   C3A19649  12.915  17.391   8.028
 1177POPC   C4A19650  12.603  17.432   7.687
 1177POPC   C1B19651  12.862  17.903   8.749
 1177POPC   C2B19652  13.105  18.054   8.400
 1177POPC   C3B19653  13.061  17.889   8.021
 1177POPC   C4B19654  13.109  17.862   7.599
 1178POPC   NC319655  34.247  40.292   9.386
 1178POPC   PO419656  33.662  40.048   9.459
 1178POPC   GL119657  33.835  40.076   9.098
 1178POPC   GL219658  33.871  40.434   9.043
 1178POPC   C1A19659  33.590  40.114   8.733
 1178POPC   D2A19660  33.363  40.245   8.370
 1178POPC   C3A19661  33.573  40.022   8.055
 1178POPC   C4A19662  33.789  39.950   7.697
 1178POPC   C1B19663  34.150  40.258   8.745
 1178POPC   C2B19664  34.045  40.077   8.373
 1178POPC   C3B19665  34.096  40.256   7.987
 1178POPC   C4B19666  34.229  40.329   7.584
 1179POPC   NC319667   1.276  26.557   9.434
 1179POPC   PO419668   1.226  27.204   9.526
 1179POPC   GL119669   1.338  27.019   9.134
 1179POPC   GL219670   0.992  26.979   9.095
 1179POPC   C1A19671   1.519  26.998   8.674
 1179POPC   D2A19672   1.478  26.604   8.405
 1179POPC   C3A19673   1.370  26.590   7.953
 1179POPC   C4A19674   1.301  26.982   7.721
 1179POPC   C1B19675   1.045  26.841   8.663
 1179POPC   C2B19676   1.128  26.952   8.232
 1179POPC   C3B19677   0.867  26.790   7.895
 1179POPC   C4B19678   0.693  26.910   7.498
 1180POPC   NC319679  40.277   8.985   9.465
 1180POPC   PO419680  39.805   9.410   9.549
 1180POPC   GL119681  39.935   9.033   9.116
 1180POPC   GL219682  40.218   8.753   9.028
 1180POPC   C1A19683  40.004   9.036   8.677
 1180POPC   D2A19684  40.075   9.094   8.259
 1180POPC   C3A19685  39.793   9.367   8.059
 1180POPC   C4A19686  40.000   9.205   7.714
 1180POPC   C1B19687  40.023   8.527   8.658
 1180POPC   C2B19688  40.121   8.581   8.251
 1180POPC   C3B19689  40.193   8.751   7.882
 1180POPC   C4B19690  40.251   8.498   7.568
 1181POPC   NC319691   0.397   6.272   9.530
 1181POPC   PO419692   0.540   7.003   9.517
 1181POPC   GL119693   0.506   6.865   9.088
 1181POPC   GL219694   0.340   6.528   9.094
 1181POPC   C1A19695   0.585   6.638   8.668
 1181POPC   D2A19696   0.393   6.484   8.294
 1181POPC   C3A19697   0.180   6.837   8.096
 1181POPC   C4A19698   0.248   7.039   7.706
 1181POPC   C1B19699   0.135   6.284   8.747
 1181POPC   C2B19700   0.115   6.015   8.380
 1181POPC   C3B19701   0.024   6.202   8.000
 1181POPC   C4B19702   0.319   6.463   7.754
 1182POPC   NC319703   9.217  43.589   9.278
 1182POPC   PO419704   9.180  42.886   9.421
 1182POPC   GL119705   9.078  43.045   9.038
 1182POPC   GL219706   8.849  43.301   9.019
 1182POPC   C1A19707   9.128  42.856   8.643
 1182POPC   D2A19708   9.227  42.617   8.290
 1182POPC   C3A19709   9.061  42.879   7.993
 1182POPC   C4A19710   8.937  43.151   7.645
 1182POPC   C1B19711   8.697  43.268   8.587
 1182POPC   C2B19712   8.946  43.370   8.225
 1182POPC   C3B19713   8.775  43.572   7.874
 1182POPC   C4B19714   8.470  43.378   7.622
 1183POPC   NC319715  37.520  31.454   9.483
 1183POPC   PO419716  38.070  31.618   9.407
 1183POPC   GL119717  37.822  31.463   9.065
 1183POPC   GL219718  37.468  31.626   9.016
 1183POPC   C1A19719  37.849  31.479   8.635
 1183POPC   D2A19720  37.932  31.206   8.302
 1183POPC   C3A19721  37.848  31.398   7.917
 1183POPC   C4A19722  37.695  31.378   7.514
 1183POPC   C1B19723  37.355  31.396   8.655
 1183POPC   C2B19724  37.448  31.376   8.226
 1183POPC   C3B19725  37.265  31.368   7.801
 1183POPC   C4B19726  37.245  31.224   7.351
 1184POPC   NC319727  31.861   1.497   9.601
 1184POPC   PO419728  31.283   1.077   9.538
 1184POPC   GL119729  31.423   1.327   9.200
 1184POPC   GL219730  31.774   1.239   9.165
 1184POPC   C1A19731  31.223   1.316   8.780
 1184POPC   D2A19732  31.151   0.971   8.457
 1184POPC   C3A19733  31.162   1.061   8.003
 1184POPC   C4A19734  31.207   1.170   7.567
 1184POPC   C1B19735  31.707   1.468   8.774
 1184POPC   C2B19736  31.552   1.322   8.351
 1184POPC   C3B19737  31.674   1.139   7.926
 1184POPC   C4B19738  31.708   1.188   7.422
 1185POPC   NC319739  13.548  31.426   9.460
 1185POPC   PO419740  13.839  31.877   9.814
 1185POPC   GL119741  13.697  31.895   9.284
 1185POPC   GL219742  13.378  31.855   9.159
 1185POPC   C1A19743  13.806  31.822   8.840
 1185POPC   D2A19744  13.727  31.529   8.485
 1185POPC   C3A19745  13.700  31.637   8.065
 1185POPC   C4A19746  13.951  31.512   7.674
 1185POPC   C1B19747  13.318  31.572   8.780
 1185POPC   C2B19748  13.198  31.513   8.309
 1185POPC   C3B19749  13.264  31.407   7.851
 1185POPC   C4B19750  13.457  31.288   7.437
 1186POPC   NC319751  13.343  38.177   9.368
 1186POPC   PO419752  13.827  37.728   9.560
 1186POPC   GL119753  13.750  37.844   9.167
 1186POPC   GL219754  13.528  37.607   9.101
 1186POPC   C1A19755  13.851  37.841   8.753
 1186POPC   D2A19756  13.845  37.591   8.412
 1186POPC   C3A19757  13.673  37.755   8.026
 1186POPC   C4A19758  13.751  37.533   7.614
 1186POPC   C1B19759  13.347  37.839   8.762
 1186POPC   C2B19760  13.277  37.670   8.355
 1186POPC   C3B19761  13.251  37.458   7.982
 1186POPC   C4B19762  13.290  37.726   7.655
 1187POPC   NC319763   2.343  26.791   9.486
 1187POPC   PO419764   1.730  26.571   9.476
 1187POPC   GL119765   1.979  26.572   9.116
 1187POPC   GL219766   2.288  26.439   9.137
 1187POPC   C1A19767   1.964  26.648   8.694
 1187POPC   D2A19768   1.944  26.865   8.375
 1187POPC   C3A19769   1.655  27.015   8.122
 1187POPC   C4A19770   1.780  26.827   7.766
 1187POPC   C1B19771   2.399  26.827   8.854
 1187POPC   C2B19772   2.423  27.033   8.451
 1187POPC   C3B19773   2.257  27.065   8.049
 1187POPC   C4B19774   2.270  26.863   7.662
 1188POPC   NC319775  22.786  20.685   9.516
 1188POPC   PO419776  23.082  21.204   9.485
 1188POPC   GL119777  23.226  20.963   9.118
 1188POPC   GL219778  23.192  20.580   9.132
 1188POPC   C1A19779  23.273  20.841   8.658
 1188POPC   D2A19780  23.335  20.741   8.200
 1188POPC   C3A19781  22.952  20.734   7.958
 1188POPC   C4A19782  22.747  20.507   7.607
 1188POPC   C1B19783  23.238  20.324   8.715
 1188POPC   C2B19784  23.067  20.305   8.269
 1188POPC   C3B19785  23.166  20.287   7.809
 1188POPC   C4B19786  22.998  20.104   7.415
 1189POPC   NC319787   2.987   8.061   9.469
 1189POPC   PO419788   2.452   8.534   9.524
 1189POPC   GL119789   2.671   8.351   9.180
 1189POPC   GL219790   3.030   8.472   9.160
 1189POPC   C1A19791   2.591   8.282   8.753
 1189POPC   D2A19792   2.379   8.140   8.357
 1189POPC   C3A19793   2.602   8.320   8.041
 1189POPC   C4A19794   2.635   8.130   7.654
 1189POPC   C1B19795   3.079   8.162   8.824
 1189POPC   C2B19796   2.874   7.990   8.436
 1189POPC   C3B19797   2.782   7.825   8.033
 1189POPC   C4B19798   3.063   7.828   7.655
 1190POPC   NC319799  37.419  17.321   9.332
 1190POPC   PO419800  37.831  17.652   9.701
 1190POPC   GL119801  37.964  17.701   9.257
 1190POPC   GL219802  37.838  17.433   9.092
 1190POPC   C1A19803  37.812  17.841   8.798
 1190POPC   D2A19804  37.655  17.717   8.359
 1190POPC   C3A19805  37.905  17.563   8.024
 1190POPC   C4A19806  37.966  17.955   7.783
 1190POPC   C1B19807  37.579  17.376   8.725
 1190POPC   C2B19808  37.438  17.258   8.344
 1190POPC   C3B19809  37.330  17.469   8.005
 1190POPC   C4B19810  37.561  17.670   7.679
 1191POPC   NC319811  38.039  27.659   9.481
 1191POPC   PO419812  38.149  28.239   9.426
 1191POPC   GL119813  38.081  28.014   9.025
 1191POPC   GL219814  38.205  27.645   8.997
 1191POPC   C1A19815  38.260  27.951   8.603
 1191POPC   D2A19816  38.133  27.783   8.202
 1191POPC   C3A19817  38.335  27.478   8.012
 1191POPC   C4A19818  38.254  27.149   7.780
 1191POPC   C1B19819  38.301  27.426   8.564
 1191POPC   C2B19820  38.482  27.070   8.276
 1191POPC   C3B19821  38.726  27.006   7.879
 1191POPC   C4B19822  38.633  27.103   7.426
 1192POPC   NC319823   5.867  21.073   9.460
 1192POPC   PO419824   5.522  21.661   9.382
 1192POPC   GL119825   5.662  21.367   9.093
 1192POPC   GL219826   6.023  21.469   9.113
 1192POPC   C1A19827   5.840  21.138   8.746
 1192POPC   D2A19828   6.072  21.159   8.356
 1192POPC   C3A19829   5.812  21.090   7.986
 1192POPC   C4A19830   5.642  21.179   7.591
 1192POPC   C1B19831   5.829  21.705   8.740
 1192POPC   C2B19832   5.760  21.576   8.307
 1192POPC   C3B19833   5.997  21.603   7.910
 1192POPC   C4B19834   6.066  21.923   7.558
 1193POPC   NC319835  21.666  24.492   9.549
 1193POPC   PO419836  20.999  24.719   9.531
 1193POPC   GL119837  21.288  24.559   9.211
 1193POPC   GL219838  21.111  24.303   9.156
 1193POPC   C1A19839  21.320  24.635   8.733
 1193POPC   D2A19840  21.481  24.702   8.276
 1193POPC   C3A19841  21.278  24.520   7.898
 1193POPC   C4A19842  20.879  24.548   7.608
 1193POPC   C1B19843  21.227  24.135   8.760
 1193POPC   C2B19844  21.306  24.217   8.337
 1193POPC   C3B19845  21.404  24.036   7.932
 1193POPC   C4B19846  21.199  24.145   7.523
 1194POPC   NC319847   4.673  29.484   9.624
 1194POPC   PO419848   4.151  29.998   9.565
 1194POPC   GL119849   4.357  30.020   9.193
 1194POPC   GL219850   4.414  29.674   9.188
 1194POPC   C1A19851   4.197  30.091   8.759
 1194POPC   D2A19852   4.204  29.832   8.351
 1194POPC   C3A19853   4.209  30.049   7.955
 1194POPC   C4A19854   4.251  30.391   7.640
 1194POPC   C1B19855   4.551  29.722   8.756
 1194POPC   C2B19856   4.768  29.675   8.363
 1194POPC   C3B19857   4.568  29.659   7.954
 1194POPC   C4B19858   4.165  29.589   7.733
 1195POPC   NC319859  33.992  11.422   9.960
 1195POPC   PO419860  33.863  11.496   9.529
 1195POPC   GL119861  33.909  11.302   9.118
 1195POPC   GL219862  33.885  10.946   9.120
 1195POPC   C1A19863  33.815  11.326   8.660
 1195POPC   D2A19864  33.678  11.475   8.231
 1195POPC   C3A19865  33.974  11.434   7.884
 1195POPC   C4A19866  34.185  11.433   7.469
 1195POPC   C1B19867  33.653  10.849   8.717
 1195POPC   C2B19868  33.637  10.966   8.252
 1195POPC   C3B19869  33.529  11.174   7.821
 1195POPC   C4B19870  33.438  11.161   7.351
 1196POPC   NC319871   6.481  14.036   9.488
 1196POPC   PO419872   6.336  14.718   9.439
 1196POPC   GL119873   6.515  14.683   9.038
 1196POPC   GL219874   6.671  14.349   9.104
 1196POPC   C1A19875   6.457  14.477   8.656
 1196POPC   D2A19876   6.348  14.406   8.252
 1196POPC   C3A19877   6.491  14.670   7.983
 1196POPC   C4A19878   6.539  14.382   7.716
 1196POPC   C1B19879   6.936  14.258   8.790
 1196POPC   C2B19880   6.815  14.210   8.382
 1196POPC   C3B19881   6.934  14.032   8.037
 1196POPC   C4B19882   6.873  14.022   7.615
 1197POPC   NC319883   8.364  34.237   9.497
 1197POPC   PO419884   8.130  34.945   9.589
 1197POPC   GL119885   8.161  34.713   9.240
 1197POPC   GL219886   8.497  34.654   9.221
 1197POPC   C1A19887   8.068  34.580   8.833
 1197POPC   D2A19888   7.786  34.658   8.482
 1197POPC   C3A19889   8.008  34.625   8.103
 1197POPC   C4A19890   8.139  34.449   7.746
 1197POPC   C1B19891   8.552  34.805   8.821
 1197POPC   C2B19892   8.429  34.659   8.434
 1197POPC   C3B19893   8.498  34.790   8.019
 1197POPC   C4B19894   8.512  35.008   7.652
 1198POPC   NC319895  25.838  13.785   9.461
 1198POPC   PO419896  26.537  13.644   9.399
 1198POPC   GL119897  26.236  13.567   9.094
 1198POPC   GL219898  25.866  13.522   9.022
 1198POPC   C1A19899  26.227  13.647   8.673
 1198POPC   D2A19900  26.088  13.401   8.350
 1198POPC   C3A19901  26.218  13.606   8.025
 1198POPC   C4A19902  26.017  13.491   7.659
 1198POPC   C1B19903  25.804  13.918   8.804
 1198POPC   C2B19904  25.860  13.886   8.354
 1198POPC   C3B19905  25.733  13.802   7.932
 1198POPC   C4B19906  25.784  13.905   7.436
 1199POPC   NC319907  34.977  33.846   9.736
 1199POPC   PO419908  35.620  33.886   9.528
 1199POPC   GL119909  35.291  33.961   9.231
 1199POPC   GL219910  35.090  33.660   9.269
 1199POPC   C1A19911  35.447  33.989   8.800
 1199POPC   D2A19912  35.581  33.740   8.443
 1199POPC   C3A19913  35.452  34.008   8.089
 1199POPC   C4A19914  35.496  33.815   7.709
 1199POPC   C1B19915  35.244  33.524   8.888
 1199POPC   C2B19916  35.076  33.659   8.510
 1199POPC   C3B19917  35.186  33.579   8.099
 1199POPC   C4B19918  35.010  33.639   7.707
 1200POPC   NC319919  32.807  21.090   9.498
 1200POPC   PO419920  33.242  21.649   9.600
 1200POPC   GL119921  32.970  21.533   9.273
 1200POPC   GL219922  33.139  21.810   9.088
 1200POPC   C1A19923  32.715  21.361   8.882
 1200POPC   D2A19924  32.856  21.155   8.508
 1200POPC   C3A19925  32.863  21.392   8.119
 1200POPC   C4A19926  32.863  21.160   7.739
 1200POPC   C1B19927  33.196  21.477   8.818
 1200POPC   C2B19928  33.294  21.470   8.407
 1200POPC   C3B19929  33.388  21.313   8.016
 1200POPC   C4B19930  33.261  21.491   7.643
 1201POPC   NC319931  21.150  10.928   9.637
 1201POPC   PO419932  21.465  11.528   9.442
 1201POPC   GL119933  21.200  11.375   9.084
 1201POPC   GL219934  20.937  11.110   9.185
 1201POPC   C1A19935  21.381  11.354   8.649
 1201POPC   D2A19936  21.593  11.118   8.303
 1201POPC   C3A19937  21.440  11.269   7.888
 1201POPC   C4A19938  21.100  11.573   7.761
 1201POPC   C1B19939  21.015  10.967   8.740
 1201POPC   C2B19940  21.055  11.069   8.278
 1201POPC   C3B19941  20.964  11.056   7.827
 1201POPC   C4B19942  21.247  10.953   7.484
 1202POPC   NC319943  39.455  41.442   9.426
 1202POPC   PO419944  38.898  41.817   9.518
 1202POPC   GL119945  39.066  41.656   9.127
 1202POPC   GL219946  39.413  41.701   9.001
 1202POPC   C1A19947  39.100  41.407   8.734
 1202POPC   D2A19948  38.880  41.463   8.353
 1202POPC   C3A19949  39.117  41.682   8.068
 1202POPC   C4A19950  39.008  41.482   7.700
 1202POPC   C1B19951  39.633  41.462   8.701
 1202POPC   C2B19952  39.455  41.310   8.323
 1202POPC   C3B19953  39.507  41.370   7.905
 1202POPC   C4B19954  39.576  41.765   7.761
 1203POPC   NC319955  23.435  44.276   9.550
 1203POPC   PO419956  23.460  44.891   9.236
 1203POPC   GL119957  23.419  44.483   9.074
 1203POPC   GL219958  23.792  44.387   9.051
 1203POPC   C1A19959  23.462  44.496   8.648
 1203POPC   D2A19960  23.757  44.647   8.344
 1203POPC   C3A19961  23.584  44.934   8.000
 1203POPC   C4A19962  23.707   0.031   7.580
 1203POPC   C1B19963  23.768  44.106   8.661
 1203POPC   C2B19964  23.430  44.127   8.309
 1203POPC   C3B19965  23.423  44.462   8.017
 1203POPC   C4B19966  23.879  44.443   7.866
 1204POPC   NC319967   0.986  31.600   9.720
 1204POPC   PO419968   1.299  32.126   9.713
 1204POPC   GL119969   0.974  32.292   9.315
 1204POPC   GL219970   1.250  32.312   9.102
 1204POPC   C1A19971   0.863  32.411   8.822
 1204POPC   D2A19972   0.736  32.241   8.399
 1204POPC   C3A19973   0.924  32.361   7.972
 1204POPC   C4A19974   0.993  32.146   7.560
 1204POPC   C1B19975   1.422  32.239   8.698
 1204POPC   C2B19976   1.264  32.271   8.338
 1204POPC   C3B19977   1.384  32.120   7.945
 1204POPC   C4B19978   1.458  32.341   7.588
 1205POPC   NC319979  37.569  15.482   9.836
 1205POPC   PO419980  37.923  15.062   9.499
 1205POPC   GL119981  37.628  15.162   9.191
 1205POPC   GL219982  37.478  15.478   9.264
 1205POPC   C1A19983  37.647  14.991   8.784
 1205POPC   D2A19984  37.678  15.187   8.410
 1205POPC   C3A19985  37.811  15.010   8.054
 1205POPC   C4A19986  37.504  14.790   7.852
 1205POPC   C1B19987  37.617  15.535   8.803
 1205POPC   C2B19988  37.660  15.688   8.348
 1205POPC   C3B19989  37.517  15.456   7.990
 1205POPC   C4B19990  37.343  15.363   7.604
 1206POPC   NC319991   9.354  34.873   9.491
 1206POPC   PO419992   8.686  34.619   9.722
 1206POPC   GL119993   8.971  34.552   9.352
 1206POPC   GL219994   8.923  34.233   9.305
 1206POPC   C1A19995   9.044  34.568   8.885
 1206POPC   D2A19996   8.950  34.751   8.474
 1206POPC   C3A19997   8.985  34.558   8.092
 1206POPC   C4A19998   8.963  34.764   7.716
 1206POPC   C1B19999   8.669  34.232   8.927
 1206POPC   C2B20000   8.757  34.257   8.483
 1206POPC   C3B20001   8.521  34.283   8.100
 1206POPC   C4B20002   8.646  34.384   7.698
 1207POPC   NC320003  41.616   2.427   9.472
 1207POPC   PO420004  41.199   2.875   9.518
 1207POPC   GL120005  41.378   2.761   9.159
 1207POPC   GL220006  41.222   2.460   9.130
 1207POPC   C1A20007  41.624   2.868   8.804
 1207POPC   D2A20008  41.817   2.757   8.438
 1207POPC   C3A20009  41.624   2.841   8.092
 1207POPC   C4A20010  41.640   2.809   7.692
 1207POPC   C1B20011  41.465   2.392   8.771
 1207POPC   C2B20012  41.619   2.279   8.364
 1207POPC   C3B20013  41.500   2.345   7.971
 1207POPC   C4B20014  41.426   2.351   7.571
 1208POPC   NC320015  17.272  23.817   9.774
 1208POPC   PO420016  17.839  23.617   9.771
 1208POPC   GL120017  17.490  23.771   9.339
 1208POPC   GL220018  17.318  23.465   9.353
 1208POPC   C1A20019  17.513  23.884   8.856
 1208POPC   D2A20020  17.321  23.949   8.432
 1208POPC   C3A20021  17.552  24.054   8.049
 1208POPC   C4A20022  17.809  23.837   7.759
 1208POPC   C1B20023  17.275  23.438   8.918
 1208POPC   C2B20024  17.215  23.435   8.475
 1208POPC   C3B20025  17.503  23.548   8.152
 1208POPC   C4B20026  17.314  23.684   7.789
 1209POPC   NC320027   1.799  20.984   9.657
 1209POPC   PO420028   2.132  21.531   9.484
 1209POPC   GL120029   2.316  21.446   9.109
 1209POPC   GL220030   2.175  21.131   9.105
 1209POPC   C1A20031   2.180  21.503   8.683
 1209POPC   D2A20032   1.853  21.416   8.363
 1209POPC   C3A20033   2.046  21.388   7.988
 1209POPC   C4A20034   2.096  21.470   7.564
 1209POPC   C1B20035   1.836  21.133   8.799
 1209POPC   C2B20036   1.760  20.901   8.437
 1209POPC   C3B20037   1.863  20.835   8.048
 1209POPC   C4B20038   1.859  21.043   7.672
 1210POPC   NC320039  13.065   6.420   9.513
 1210POPC   PO420040  12.387   6.602   9.589
 1210POPC   GL120041  12.726   6.734   9.235
 1210POPC   GL220042  12.927   6.471   9.035
 1210POPC   C1A20043  12.737   6.813   8.742
 1210POPC   D2A20044  12.752   6.553   8.337
 1210POPC   C3A20045  12.750   6.719   7.933
 1210POPC   C4A20046  12.970   7.008   7.695
 1210POPC   C1B20047  13.076   6.253   8.637
 1210POPC   C2B20048  13.138   6.237   8.181
 1210POPC   C3B20049  13.171   6.462   7.822
 1210POPC   C4B20050  13.447   6.320   7.533
 1211POPC   NC320051   6.836  42.990   9.603
 1211POPC   PO420052   6.912  43.593   9.333
 1211POPC   GL120053   6.778  43.231   9.100
 1211POPC   GL220054   6.790  42.845   9.137
 1211POPC   C1A20055   6.474  43.364   8.805
 1211POPC   D2A20056   6.325  43.455   8.402
 1211POPC   C3A20057   6.322  43.081   8.171
 1211POPC   C4A20058   6.373  43.272   7.809
 1211POPC   C1B20059   6.634  42.868   8.760
 1211POPC   C2B20060   6.765  43.147   8.454
 1211POPC   C3B20061   6.828  43.192   8.044
 1211POPC   C4B20062   6.702  42.884   7.773
 1212POPC   NC320063  37.476   4.664   9.715
 1212POPC   PO420064  37.501   4.053   9.550
 1212POPC   GL120065  37.763   4.181   9.181
 1212POPC   GL220066  37.852   4.521   9.127
 1212POPC   C1A20067  37.586   4.311   8.753
 1212POPC   D2A20068  37.725   4.323   8.324
 1212POPC   C3A20069  37.434   4.470   8.028
 1212POPC   C4A20070  37.503   4.302   7.640
 1212POPC   C1B20071  38.068   4.431   8.699
 1212POPC   C2B20072  38.060   4.718   8.320
 1212POPC   C3B20073  37.954   4.558   7.900
 1212POPC   C4B20074  37.984   4.165   7.643
 1213POPC   NC320075   0.236  31.681   9.485
 1213POPC   PO420076   0.688  31.281   9.599
 1213POPC   GL120077   0.568  31.144   9.196
 1213POPC   GL220078   0.345  31.421   9.067
 1213POPC   C1A20079   0.758  31.126   8.799
 1213POPC   D2A20080   0.740  31.492   8.554
 1213POPC   C3A20081   0.630  31.496   8.145
 1213POPC   C4A20082   0.439  31.635   7.769
 1213POPC   C1B20083   0.247  31.174   8.739
 1213POPC   C2B20084   0.432  31.077   8.364
 1213POPC   C3B20085   0.249  31.191   7.973
 1213POPC   C4B20086  44.865  31.179   7.775
 1214POPC   NC320087  15.888  23.763   9.565
 1214POPC   PO420088  16.246  23.191   9.484
 1214POPC   GL120089  15.944  23.402   9.174
 1214POPC   GL220090  15.973  23.751   9.059
 1214POPC   C1A20091  15.657  23.457   8.808
 1214POPC   D2A20092  15.715  23.708   8.433
 1214POPC   C3A20093  15.763  23.710   7.981
 1214POPC   C4A20094  15.902  23.717   7.547
 1214POPC   C1B20095  16.122  23.931   8.655
 1214POPC   C2B20096  16.017  24.078   8.226
 1214POPC   C3B20097  16.033  24.175   7.782
 1214POPC   C4B20098  16.060  24.141   7.316
 1215POPC   NC320099  12.025   4.903   9.896
 1215POPC   PO420100  12.135   5.475   9.427
 1215POPC   GL120101  11.954   5.126   9.159
 1215POPC   GL220102  12.240   4.965   9.093
 1215POPC   C1A20103  11.884   4.997   8.685
 1215POPC   D2A20104  11.902   4.668   8.327
 1215POPC   C3A20105  11.989   4.855   7.899
 1215POPC   C4A20106  11.815   5.125   7.550
 1215POPC   C1B20107  12.384   4.879   8.678
 1215POPC   C2B20108  12.380   4.868   8.237
 1215POPC   C3B20109  12.548   4.822   7.844
 1215POPC   C4B20110  12.772   5.056   7.503
 1216POPC   NC320111  41.800  13.233   9.439
 1216POPC   PO420112  42.219  12.791   9.467
 1216POPC   GL120113  42.308  12.609   9.073
 1216POPC   GL220114  42.013  12.481   9.011
 1216POPC   C1A20115  42.496  12.768   8.693
 1216POPC   D2A20116  42.437  12.777   8.280
 1216POPC   C3A20117  42.551  13.059   7.953
 1216POPC   C4A20118  42.520  12.859   7.572
 1216POPC   C1B20119  41.963  12.836   8.711
 1216POPC   C2B20120  41.974  12.982   8.269
 1216POPC   C3B20121  42.109  12.760   7.881
 1216POPC   C4B20122  42.024  12.804   7.437
 1217POPC   NC320123  20.343   3.886   9.618
 1217POPC   PO420124  19.778   3.411   9.609
 1217POPC   GL120125  19.779   3.389   9.210
 1217POPC   GL220126  20.140   3.522   9.246
 1217POPC   C1A20127  19.695   3.387   8.756
 1217POPC   D2A20128  19.609   3.316   8.319
 1217POPC   C3A20129  19.674   3.594   7.970
 1217POPC   C4A20130  19.940   3.521   7.592
 1217POPC   C1B20131  20.159   3.229   8.927
 1217POPC   C2B20132  20.176   3.236   8.489
 1217POPC   C3B20133  20.074   3.289   8.067
 1217POPC   C4B20134  20.164   3.049   7.708
 1218POPC   NC320135  21.410  38.097   9.382
 1218POPC   PO420136  21.450  37.503   9.666
 1218POPC   GL120137  21.564  37.616   9.250
 1218POPC   GL220138  21.202  37.672   9.191
 1218POPC   C1A20139  21.688  37.836   8.856
 1218POPC   D2A20140  21.747  37.668   8.473
 1218POPC   C3A20141  21.836  37.888   8.110
 1218POPC   C4A20142  21.567  37.753   7.786
 1218POPC   C1B20143  21.294  37.523   8.784
 1218POPC   C2B20144  21.081  37.561   8.385
 1218POPC   C3B20145  21.170  37.390   7.972
 1218POPC   C4B20146  21.220  37.476   7.544
 1219POPC   NC320147   2.522  25.335   9.431
 1219POPC   PO420148   3.034  24.871   9.563
 1219POPC   GL120149   2.815  25.005   9.174
 1219POPC   GL220150   2.585  24.786   9.074
 1219POPC   C1A20151   2.602  25.191   8.771
 1219POPC   D2A20152   2.562  25.156   8.323
 1219POPC   C3A20153   2.629  25.547   8.132
 1219POPC   C4A20154   2.813  25.584   7.747
 1219POPC   C1B20155   2.928  24.768   8.694
 1219POPC   C2B20156   2.930  24.824   8.207
 1219POPC   C3B20157   2.794  25.050   7.808
 1219POPC   C4B20158   2.970  24.955   7.372
 1220POPC   NC320159  31.024  29.678   9.462
 1220POPC   PO420160  30.821  30.313   9.430
 1220POPC   GL120161  30.817  29.975   9.118
 1220POPC   GL220162  30.575  29.704   9.127
 1220POPC   C1A20163  30.973  29.776   8.766
 1220POPC   D2A20164  30.906  30.046   8.396
 1220POPC   C3A20165  30.831  30.008   7.947
 1220POPC   C4A20166  30.674  29.668   7.671
 1220POPC   C1B20167  30.487  29.875   8.677
 1220POPC   C2B20168  30.418  29.866   8.198
 1220POPC   C3B20169  30.318  30.036   7.755
 1220POPC   C4B20170  30.279  30.307   7.359
 1221POPC   NC320171  38.606   3.335   9.375
 1221POPC   PO420172  38.282   3.942   9.411
 1221POPC   GL120173  38.355   3.647   9.056
 1221POPC   GL220174  38.192   3.301   9.073
 1221POPC   C1A20175  38.716   3.544   8.740
 1221POPC   D2A20176  38.713   3.403   8.272
 1221POPC   C3A20177  38.608   3.681   7.926
 1221POPC   C4A20178  38.191   3.695   7.690
 1221POPC   C1B20179  38.251   3.411   8.614
 1221POPC   C2B20180  38.170   3.473   8.191
 1221POPC   C3B20181  38.343   3.242   7.877
 1221POPC   C4B20182  38.743   3.230   7.736
 1222POPC   NC320183  25.589  22.787   9.716
 1222POPC   PO420184  24.987  22.825   9.405
 1222POPC   GL120185  25.306  23.048   9.204
 1222POPC   GL220186  25.592  22.817   9.184
 1222POPC   C1A20187  25.249  23.275   8.802
 1222POPC   D2A20188  25.174  23.434   8.379
 1222POPC   C3A20189  25.433  23.271   8.024
 1222POPC   C4A20190  25.379  22.944   7.700
 1222POPC   C1B20191  25.450  22.778   8.776
 1222POPC   C2B20192  25.300  22.932   8.405
 1222POPC   C3B20193  25.022  22.959   8.082
 1222POPC   C4B20194  24.952  22.605   7.771
 1223POPC   NC320195  38.825  36.379   9.502
 1223POPC   PO420196  38.894  35.776   9.486
 1223POPC   GL120197  39.039  36.057   9.099
 1223POPC   GL220198  39.152  36.418   9.103
 1223POPC   C1A20199  39.258  36.119   8.648
 1223POPC   D2A20200  39.249  35.912   8.191
 1223POPC   C3A20201  39.379  35.992   7.749
 1223POPC   C4A20202  39.758  35.895   7.465
 1223POPC   C1B20203  38.828  36.386   8.766
 1223POPC   C2B20204  38.841  36.166   8.355
 1223POPC   C3B20205  38.990  36.338   7.950
 1223POPC   C4B20206  39.137  36.418   7.528
 1224POPC   NC320207  26.817  17.449   9.449
 1224POPC   PO420208  26.386  16.947   9.117
 1224POPC   GL120209  26.583  17.308   9.031
 1224POPC   GL220210  26.966  17.236   9.005
 1224POPC   C1A20211  26.718  17.615   8.759
 1224POPC   D2A20212  26.669  17.677   8.331
 1224POPC   C3A20213  26.641  17.451   7.932
 1224POPC   C4A20214  26.720  17.647   7.488
 1224POPC   C1B20215  27.381  17.258   8.782
 1224POPC   C2B20216  27.470  17.406   8.386
 1224POPC   C3B20217  27.158  17.548   8.110
 1224POPC   C4B20218  27.095  17.419   7.706
 1225POPC   NC320219  18.197  40.772   9.395
 1225POPC   PO420220  17.803  40.330   9.149
 1225POPC   GL120221  18.186  40.496   8.976
 1225POPC   GL220222  18.515  40.424   9.173
 1225POPC   C1A20223  18.350  40.846   8.732
 1225POPC   D2A20224  18.105  41.021   8.396
 1225POPC   C3A20225  18.266  41.108   8.004
 1225POPC   C4A20226  18.108  41.035   7.577
 1225POPC   C1B20227  18.599  40.385   8.717
 1225POPC   C2B20228  18.260  40.466   8.390
 1225POPC   C3B20229  18.184  40.607   7.965
 1225POPC   C4B20230  18.501  40.735   7.700
 1226POPC   NC320231  38.235   2.497   9.775
 1226POPC   PO420232  37.644   2.538   9.610
 1226POPC   GL120233  37.810   2.763   9.250
 1226POPC   GL220234  38.163   2.692   9.239
 1226POPC   C1A20235  37.613   2.824   8.834
 1226POPC   D2A20236  37.405   2.732   8.439
 1226POPC   C3A20237  37.637   2.562   8.113
 1226POPC   C4A20238  37.612   2.641   7.659
 1226POPC   C1B20239  38.149   2.869   8.801
 1226POPC   C2B20240  37.909   2.978   8.404
 1226POPC   C3B20241  37.989   2.896   7.970
 1226POPC   C4B20242  38.059   2.467   7.818
 1227POPC   NC320243  21.338  36.436   9.461
 1227POPC   PO420244  21.100  35.732   9.472
 1227POPC   GL120245  21.415  35.963   9.216
 1227POPC   GL220246  21.177  36.124   9.090
 1227POPC   C1A20247  21.598  36.143   8.793
 1227POPC   D2A20248  21.802  36.247   8.409
 1227POPC   C3A20249  21.695  36.241   7.978
 1227POPC   C4A20250  21.490  36.447   7.647
 1227POPC   C1B20251  21.150  35.959   8.698
 1227POPC   C2B20252  21.328  36.011   8.289
 1227POPC   C3B20253  21.201  36.059   7.868
 1227POPC   C4B20254  21.214  36.091   7.421
 1228POPC   NC320255  35.432  25.497   9.663
 1228POPC   PO420256  35.179  25.036   9.340
 1228POPC   GL120257  35.319  25.368   9.143
 1228POPC   GL220258  35.649  25.229   9.120
 1228POPC   C1A20259  35.370  25.374   8.701
 1228POPC   D2A20260  35.159  25.539   8.345
 1228POPC   C3A20261  35.078  25.272   8.023
 1228POPC   C4A20262  35.055  25.156   7.611
 1228POPC   C1B20263  35.754  25.640   8.890
 1228POPC   C2B20264  35.643  25.709   8.420
 1228POPC   C3B20265  35.596  25.469   7.996
 1228POPC   C4B20266  35.695  25.717   7.593
 1229POPC   NC320267  32.768   0.668   9.586
 1229POPC   PO420268  33.078   1.319   9.510
 1229POPC   GL120269  32.922   1.101   9.198
 1229POPC   GL220270  32.733   1.371   9.048
 1229POPC   C1A20271  32.965   0.980   8.787
 1229POPC   D2A20272  33.118   1.226   8.418
 1229POPC   C3A20273  33.120   1.012   8.041
 1229POPC   C4A20274  32.991   0.985   7.656
 1229POPC   C1B20275  32.678   1.393   8.623
 1229POPC   C2B20276  32.829   1.627   8.280
 1229POPC   C3B20277  33.012   1.506   7.941
 1229POPC   C4B20278  32.639   1.329   7.776
 1230POPC   NC320279   6.919  34.845   9.414
 1230POPC   PO420280   6.418  34.427   9.678
 1230POPC   GL120281   6.531  34.265   9.256
 1230POPC   GL220282   6.811  34.435   9.075
 1230POPC   C1A20283   6.400  34.186   8.809
 1230POPC   D2A20284   6.323  34.405   8.393
 1230POPC   C3A20285   6.553  34.442   7.987
 1230POPC   C4A20286   6.475  34.765   7.680
 1230POPC   C1B20287   6.849  34.756   8.714
 1230POPC   C2B20288   6.754  34.864   8.255
 1230POPC   C3B20289   6.993  34.822   7.863
 1230POPC   C4B20290   7.352  34.792   7.546
 1231POPC   NC320291  30.299  25.859   9.402
 1231POPC   PO420292  29.704  26.109   9.458
 1231POPC   GL120293  29.923  26.067   9.095
 1231POPC   GL220294  30.224  26.267   9.092
 1231POPC   C1A20295  29.848  25.812   8.737
 1231POPC   D2A20296  29.954  25.941   8.334
 1231POPC   C3A20297  29.697  25.827   8.008
 1231POPC   C4A20298  29.494  25.948   7.628
 1231POPC   C1B20299  30.309  26.051   8.736
 1231POPC   C2B20300  30.349  26.249   8.352
 1231POPC   C3B20301  30.175  26.265   7.951
 1231POPC   C4B20302  29.979  26.039   7.643
 1232POPC   NC320303  21.896  39.161   9.585
 1232POPC   PO420304  22.596  39.254   9.555
 1232POPC   GL120305  22.277  39.272   9.197
 1232POPC   GL220306  22.045  39.532   9.246
 1232POPC   C1A20307  22.102  39.028   8.815
 1232POPC   D2A20308  22.107  38.807   8.388
 1232POPC   C3A20309  22.197  39.022   7.970
 1232POPC   C4A20310  21.883  39.070   7.613
 1232POPC   C1B20311  21.968  39.527   8.799
 1232POPC   C2B20312  21.764  39.398   8.397
 1232POPC   C3B20313  21.894  39.468   7.951
 1232POPC   C4B20314  22.361  39.493   7.789
 1233POPC   NC320315   5.360  41.051   9.346
 1233POPC   PO420316   4.829  40.772   9.639
 1233POPC   GL120317   4.852  40.901   9.207
 1233POPC   GL220318   4.819  41.235   9.121
 1233POPC   C1A20319   5.028  40.789   8.820
 1233POPC   D2A20320   4.788  40.504   8.600
 1233POPC   C3A20321   4.735  40.516   8.187
 1233POPC   C4A20322   5.090  40.534   7.934
 1233POPC   C1B20323   4.941  41.275   8.665
 1233POPC   C2B20324   5.060  40.982   8.324
 1233POPC   C3B20325   5.222  41.022   7.891
 1233POPC   C4B20326   5.105  41.020   7.451
 1234POPC   NC320327  29.475  43.284   9.415
 1234POPC   PO420328  29.139  42.790   9.811
 1234POPC   GL120329  29.131  42.922   9.342
 1234POPC   GL220330  28.870  42.740   9.234
 1234POPC   C1A20331  29.168  42.997   8.882
 1234POPC   D2A20332  29.005  43.069   8.442
 1234POPC   C3A20333  29.211  43.046   8.028
 1234POPC   C4A20334  29.058  43.193   7.609
 1234POPC   C1B20335  28.728  42.750   8.793
 1234POPC   C2B20336  28.828  42.616   8.366
 1234POPC   C3B20337  28.745  42.833   8.000
 1234POPC   C4B20338  28.616  42.904   7.579
 1235POPC   NC320339  43.016   0.916   9.453
 1235POPC   PO420340  43.486   1.417   9.528
 1235POPC   GL120341  43.346   1.201   9.170
 1235POPC   GL220342  43.005   1.355   9.164
 1235POPC   C1A20343  43.488   1.046   8.768
 1235POPC   D2A20344  43.381   1.286   8.379
 1235POPC   C3A20345  43.471   1.115   7.989
 1235POPC   C4A20346  43.283   1.353   7.639
 1235POPC   C1B20347  42.982   1.123   8.763
 1235POPC   C2B20348  42.857   1.266   8.343
 1235POPC   C3B20349  42.954   1.115   7.944
 1235POPC   C4B20350  42.757   1.242   7.552
 1236POPC   NC320351   9.727   1.216   9.552
 1236POPC   PO420352  10.227   0.884   9.296
 1236POPC   GL120353   9.840   0.970   9.096
 1236POPC   GL220354   9.848   1.329   9.057
 1236POPC   C1A20355   9.767   0.972   8.657
 1236POPC   D2A20356   9.756   1.316   8.387
 1236POPC   C3A20357   9.697   1.317   7.943
 1236POPC   C4A20358   9.710   1.178   7.519
 1236POPC   C1B20359   9.446   1.350   8.805
 1236POPC   C2B20360   9.293   1.524   8.390
 1236POPC   C3B20361   9.202   1.380   8.011
 1236POPC   C4B20362   9.239   1.392   7.593
 1237POPC   NC320363  34.266  19.971   9.352
 1237POPC   PO420364  33.580  20.051   9.467
 1237POPC   GL120365  33.729  19.971   9.111
 1237POPC   GL220366  33.871  19.651   9.128
 1237POPC   C1A20367  33.561  19.912   8.719
 1237POPC   D2A20368  33.474  20.051   8.320
 1237POPC   C3A20369  33.541  19.755   7.963
 1237POPC   C4A20370  33.768  19.783   7.602
 1237POPC   C1B20371  34.065  19.867   8.746
 1237POPC   C2B20372  33.973  20.099   8.406
 1237POPC   C3B20373  34.054  19.890   8.036
 1237POPC   C4B20374  34.255  19.703   7.701
 1238POPC   NC320375  15.572  43.025   9.575
 1238POPC   PO420376  14.950  42.901   9.398
 1238POPC   GL120377  15.204  43.241   9.234
 1238POPC   GL220378  14.931  43.273   9.035
 1238POPC   C1A20379  15.390  43.332   8.809
 1238POPC   D2A20380  15.406  43.099   8.440
 1238POPC   C3A20381  15.246  43.315   8.108
 1238POPC   C4A20382  15.282  43.221   7.687
 1238POPC   C1B20383  14.721  43.084   8.704
 1238POPC   C2B20384  14.687  43.214   8.292
 1238POPC   C3B20385  14.813  43.097   7.886
 1238POPC   C4B20386  14.878  42.965   7.443
 1239POPC   NC320387   1.640  41.091   9.416
 1239POPC   PO420388   2.312  41.329   9.604
 1239POPC   GL120389   2.204  41.566   9.240
 1239POPC   GL220390   1.850  41.539   9.227
 1239POPC   C1A20391   2.111  41.726   8.820
 1239POPC   D2A20392   1.947  41.872   8.404
 1239POPC   C3A20393   2.010  41.583   8.046
 1239POPC   C4A20394   2.174  41.486   7.616
 1239POPC   C1B20395   1.693  41.423   8.808
 1239POPC   C2B20396   1.655  41.078   8.530
 1239POPC   C3B20397   1.637  41.136   8.084
 1239POPC   C4B20398   1.683  41.364   7.725
 1240POPC   NC320399   2.673   0.823   9.440
 1240POPC   PO420400   2.866   1.396   9.750
 1240POPC   GL120401   2.980   1.184   9.261
 1240POPC   GL220402   2.638   1.058   9.009
 1240POPC   C1A20403   3.014   1.300   8.824
 1240POPC   D2A20404   2.647   1.327   8.552
 1240POPC   C3A20405   2.693   1.219   8.122
 1240POPC   C4A20406   2.647   1.060   7.711
 1240POPC   C1B20407   2.820   0.861   8.696
 1240POPC   C2B20408   2.852   0.731   8.297
 1240POPC   C3B20409   2.964   0.724   7.899
 1240POPC   C4B20410   3.105   0.816   7.468
 1241POPC   NC320411  16.487  13.352   9.222
 1241POPC   PO420412  16.882  13.806   9.411
 1241POPC   GL120413  16.947  13.557   9.060
 1241POPC   GL220414  16.970  13.177   9.046
 1241POPC   C1A20415  16.779  13.682   8.675
 1241POPC   D2A20416  16.540  13.857   8.340
 1241POPC   C3A20417  16.632  13.622   7.956
 1241POPC   C4A20418  16.437  13.701   7.562
 1241POPC   C1B20419  16.905  13.169   8.650
 1241POPC   C2B20420  16.967  13.365   8.292
 1241POPC   C3B20421  17.155  13.557   7.984
 1241POPC   C4B20422  17.093  13.399   7.587
 1242POPC   NC320423  32.579   4.718   9.611
 1242POPC   PO420424  32.150   4.216   9.758
 1242POPC   GL120425  32.147   4.132   9.328
 1242POPC   GL220426  32.427   4.332   9.273
 1242POPC   C1A20427  31.888   4.195   8.948
 1242POPC   D2A20428  31.761   4.260   8.520
 1242POPC   C3A20429  32.005   4.411   8.216
 1242POPC   C4A20430  31.975   4.291   7.822
 1242POPC   C1B20431  32.499   4.140   8.877
 1242POPC   C2B20432  32.526   4.314   8.470
 1242POPC   C3B20433  32.606   4.086   8.096
 1242POPC   C4B20434  32.463   4.134   7.693
 1243POPC   NC320435  27.723  17.253   9.376
 1243POPC   PO420436  27.475  16.700   9.728
 1243POPC   GL120437  27.681  16.707   9.310
 1243POPC   GL220438  27.884  16.430   9.158
 1243POPC   C1A20439  27.669  16.829   8.876
 1243POPC   D2A20440  27.800  17.034   8.494
 1243POPC   C3A20441  27.785  16.774   8.138
 1243POPC   C4A20442  27.766  16.766   7.694
 1243POPC   C1B20443  27.968  16.460   8.696
 1243POPC   C2B20444  27.942  16.295   8.268
 1243POPC   C3B20445  28.119  16.440   7.864
 1243POPC   C4B20446  28.142  16.535   7.388
 1244POPC   NC320447   5.948  41.275   9.473
 1244POPC   PO420448   6.082  42.022   9.498
 1244POPC   GL120449   6.151  41.687   9.176
 1244POPC   GL220450   5.803  41.516   9.040
 1244POPC   C1A20451   6.089  41.843   8.761
 1244POPC   D2A20452   5.743  41.719   8.542
 1244POPC   C3A20453   5.754  41.738   8.140
 1244POPC   C4A20454   6.012  41.667   7.855
 1244POPC   C1B20455   5.574  41.259   8.685
 1244POPC   C2B20456   5.403  41.383   8.267
 1244POPC   C3B20457   5.613  41.332   7.837
 1244POPC   C4B20458   5.586  41.111   7.409
 1245POPC   NC320459  13.960   1.871   9.551
 1245POPC   PO420460  13.329   1.760   9.753
 1245POPC   GL120461  13.471   1.934   9.290
 1245POPC   GL220462  13.287   2.190   9.086
 1245POPC   C1A20463  13.684   1.961   8.846
 1245POPC   D2A20464  13.682   2.303   8.521
 1245POPC   C3A20465  13.811   2.161   8.105
 1245POPC   C4A20466  14.017   2.313   7.749
 1245POPC   C1B20467  13.223   2.106   8.678
 1245POPC   C2B20468  13.415   1.891   8.363
 1245POPC   C3B20469  13.366   1.975   7.972
 1245POPC   C4B20470  13.612   1.953   7.635
 1246POPC   NC320471   6.086  12.476   9.372
 1246POPC   PO420472   5.848  12.968   9.817
 1246POPC   GL120473   5.718  12.805   9.336
 1246POPC   GL220474   6.032  12.924   9.123
 1246POPC   C1A20475   5.671  12.660   8.875
 1246POPC   D2A20476   5.828  12.561   8.455
 1246POPC   C3A20477   5.639  12.770   8.119
 1246POPC   C4A20478   5.755  12.799   7.705
 1246POPC   C1B20479   6.218  12.749   8.745
 1246POPC   C2B20480   6.352  12.536   8.381
 1246POPC   C3B20481   6.151  12.650   8.013
 1246POPC   C4B20482   6.230  12.594   7.607
 1247POPC   NC320483  38.770  40.730   9.581
 1247POPC   PO420484  39.435  40.669   9.516
 1247POPC   GL120485  39.323  40.753   9.124
 1247POPC   GL220486  38.988  40.920   9.142
 1247POPC   C1A20487  39.316  40.944   8.739
 1247POPC   D2A20488  39.077  40.979   8.375
 1247POPC   C3A20489  39.352  40.859   8.059
 1247POPC   C4A20490  39.566  40.512   7.824
 1247POPC   C1B20491  38.864  40.693   8.758
 1247POPC   C2B20492  38.684  40.654   8.334
 1247POPC   C3B20493  38.850  40.854   7.916
 1247POPC   C4B20494  38.834  40.831   7.452
 1248POPC   NC320495   6.246  18.387   9.499
 1248POPC   PO420496   6.990  18.344   9.475
 1248POPC   GL120497   6.658  18.261   9.198
 1248POPC   GL220498   6.479  18.565   9.077
 1248POPC   C1A20499   6.656  18.209   8.757
 1248POPC   D2A20500   6.728  18.439   8.380
 1248POPC   C3A20501   6.584  18.180   8.052
 1248POPC   C4A20502   6.740  17.992   7.678
 1248POPC   C1B20503   6.266  18.597   8.677
 1248POPC   C2B20504   6.160  18.440   8.266
 1248POPC   C3B20505   6.283  18.621   7.894
 1248POPC   C4B20506   6.625  18.501   7.639
 1249POPC   NC320507  30.010  19.297   9.468
 1249POPC   PO420508  29.789  18.773   9.763
 1249POPC   GL120509  29.783  18.915   9.237
 1249POPC   GL220510  29.570  19.160   9.101
 1249POPC   C1A20511  29.848  18.787   8.803
 1249POPC   D2A20512  30.029  18.918   8.431
 1249POPC   C3A20513  29.886  18.830   8.063
 1249POPC   C4A20514  29.842  18.946   7.684
 1249POPC   C1B20515  29.861  19.331   8.785
 1249POPC   C2B20516  30.085  19.409   8.394
 1249POPC   C3B20517  29.951  19.362   7.973
 1249POPC   C4B20518  30.193  19.365   7.624
 1250POPC   NC320519  26.731  24.158   9.535
 1250POPC   PO420520  26.385  24.693   9.611
 1250POPC   GL120521  26.551  24.518   9.213
 1250POPC   GL220522  26.909  24.595   9.170
 1250POPC   C1A20523  26.690  24.349   8.789
 1250POPC   D2A20524  26.916  24.358   8.420
 1250POPC   C3A20525  26.635  24.312   8.036
 1250POPC   C4A20526  26.434  24.418   7.663
 1250POPC   C1B20527  27.058  24.817   8.763
 1250POPC   C2B20528  27.008  24.980   8.347
 1250POPC   C3B20529  26.964  24.687   8.011
 1250POPC   C4B20530  27.127  24.244   7.982
 1251POPC   NC320531  39.531  11.658   9.415
 1251POPC   PO420532  39.255  10.994   9.573
 1251POPC   GL120533  39.176  11.229   9.179
 1251POPC   GL220534  39.304  10.987   8.961
 1251POPC   C1A20535  39.280  11.427   8.749
 1251POPC   D2A20536  39.491  11.185   8.388
 1251POPC   C3A20537  39.477  11.433   8.015
 1251POPC   C4A20538  39.355  11.447   7.587
 1251POPC   C1B20539  38.871  11.013   8.797
 1251POPC   C2B20540  38.766  11.071   8.342
 1251POPC   C3B20541  38.991  11.276   7.962
 1251POPC   C4B20542  38.848  11.469   7.573
 1252POPC   NC320543   4.578  33.179   9.451
 1252POPC   PO420544   4.047  32.657   9.395
 1252POPC   GL120545   4.345  32.868   9.079
 1252POPC   GL220546   4.282  33.242   9.043
 1252POPC   C1A20547   4.588  32.681   8.717
 1252POPC   D2A20548   4.532  32.600   8.283
 1252POPC   C3A20549   4.275  32.859   8.058
 1252POPC   C4A20550   4.307  32.969   7.629
 1252POPC   C1B20551   4.664  33.176   8.770
 1252POPC   C2B20552   4.771  33.061   8.333
 1252POPC   C3B20553   4.590  33.247   7.974
 1252POPC   C4B20554   4.694  33.317   7.567
 1253POPC   NC320555   2.678  24.480   9.486
 1253POPC   PO420556   3.305  24.134   9.464
 1253POPC   GL120557   2.936  24.145   9.186
 1253POPC   GL220558   3.049  24.486   9.118
 1253POPC   C1A20559   2.649  24.353   8.845
 1253POPC   D2A20560   2.436  24.669   8.585
 1253POPC   C3A20561   2.421  24.686   8.122
 1253POPC   C4A20562   2.578  24.404   7.814
 1253POPC   C1B20563   3.110  24.234   8.729
 1253POPC   C2B20564   2.868  24.340   8.383
 1253POPC   C3B20565   3.033  24.318   8.017
 1253POPC   C4B20566   3.042  24.612   7.730
 1254POPC   NC320567  22.690   9.138   9.472
 1254POPC   PO420568  22.085   8.811   9.463
 1254POPC   GL120569  22.366   8.870   9.111
 1254POPC   GL220570  22.336   9.241   9.113
 1254POPC   C1A20571  22.433   8.956   8.641
 1254POPC   D2A20572  22.212   9.223   8.302
 1254POPC   C3A20573  22.035   9.037   7.917
 1254POPC   C4A20574  21.697   9.006   7.623
 1254POPC   C1B20575  22.472   9.450   8.739
 1254POPC   C2B20576  22.705   9.359   8.348
 1254POPC   C3B20577  22.616   9.148   7.974
 1254POPC   C4B20578  22.388   9.345   7.636
 1255POPC   NC320579  27.451  15.504   9.396
 1255POPC   PO420580  27.707  14.829   9.435
 1255POPC   GL120581  27.593  15.126   9.086
 1255POPC   GL220582  27.748  15.485   8.990
 1255POPC   C1A20583  27.642  15.084   8.636
 1255POPC   D2A20584  27.961  14.913   8.377
 1255POPC   C3A20585  27.779  14.932   8.015
 1255POPC   C4A20586  27.535  15.213   7.797
 1255POPC   C1B20587  27.451  15.557   8.687
 1255POPC   C2B20588  27.450  15.468   8.246
 1255POPC   C3B20589  27.174  15.583   7.902
 1255POPC   C4B20590  27.181  15.587   7.462
 1256POPC   NC320591   4.957   1.556   9.504
 1256POPC   PO420592   4.799   2.234   9.492
 1256POPC   GL120593   5.035   1.996   9.119
 1256POPC   GL220594   5.131   1.640   9.044
 1256POPC   C1A20595   4.848   1.858   8.674
 1256POPC   D2A20596   4.628   1.977   8.284
 1256POPC   C3A20597   4.869   2.075   7.919
 1256POPC   C4A20598   5.170   2.371   7.888
 1256POPC   C1B20599   5.341   1.888   8.730
 1256POPC   C2B20600   5.204   2.059   8.337
 1256POPC   C3B20601   5.357   1.897   7.952
 1256POPC   C4B20602   5.155   1.496   7.855
 1257POPC   NC320603   9.327  39.273   9.608
 1257POPC   PO420604  10.035  39.311   9.631
 1257POPC   GL120605   9.795  39.442   9.254
 1257POPC   GL220606   9.965  39.177   9.113
 1257POPC   C1A20607   9.537  39.536   8.843
 1257POPC   D2A20608   9.371  39.724   8.424
 1257POPC   C3A20609   9.511  39.486   8.055
 1257POPC   C4A20610   9.445  39.093   7.831
 1257POPC   C1B20611   9.801  39.104   8.713
 1257POPC   C2B20612   9.737  39.098   8.284
 1257POPC   C3B20613   9.968  39.130   7.899
 1257POPC   C4B20614   9.827  39.164   7.490
 1258POPC   NC320615   2.181   9.631   9.315
 1258POPC   PO420616   2.863   9.543   9.538
 1258POPC   GL120617   2.685   9.387   9.145
 1258POPC   GL220618   2.619   9.721   9.071
 1258POPC   C1A20619   2.851   9.394   8.704
 1258POPC   D2A20620   2.866   9.604   8.302
 1258POPC   C3A20621   2.957   9.432   7.903
 1258POPC   C4A20622   3.052   9.743   7.579
 1258POPC   C1B20623   2.666   9.909   8.679
 1258POPC   C2B20624   2.575  10.044   8.269
 1258POPC   C3B20625   2.755  10.041   7.855
 1258POPC   C4B20626   2.699  10.045   7.370
 1259POPC   NC320627  19.430  44.008   9.475
 1259POPC   PO420628  18.952  43.470   9.386
 1259POPC   GL120629  19.018  43.894   9.192
 1259POPC   GL220630  19.308  43.778   8.997
 1259POPC   C1A20631  19.041  44.167   8.813
 1259POPC   D2A20632  19.151  43.983   8.379
 1259POPC   C3A20633  19.110  44.224   7.964
 1259POPC   C4A20634  19.213  44.083   7.549
 1259POPC   C1B20635  18.884  43.667   8.754
 1259POPC   C2B20636  18.735  43.298   8.516
 1259POPC   C3B20637  18.814  43.360   8.095
 1259POPC   C4B20638  18.923  43.738   7.840
 1260POPC   NC320639  32.117  13.910   9.595
 1260POPC   PO420640  32.515  13.397   9.561
 1260POPC   GL120641  32.402  13.690   9.224
 1260POPC   GL220642  32.051  13.673   9.158
 1260POPC   C1A20643  32.311  13.924   8.812
 1260POPC   D2A20644  32.169  13.724   8.448
 1260POPC   C3A20645  32.307  13.521   8.069
 1260POPC   C4A20646  32.307  13.769   7.715
 1260POPC   C1B20647  31.807  13.470   8.862
 1260POPC   C2B20648  31.909  13.287   8.462
 1260POPC   C3B20649  31.685  13.302   8.077
 1260POPC   C4B20650  31.912  13.441   7.703
 1261POPC   NC320651   7.396  36.324   9.357
 1261POPC   PO420652   6.776  36.080   9.616
 1261POPC   GL120653   6.595  36.081   9.208
 1261POPC   GL220654   6.945  35.998   9.136
 1261POPC   C1A20655   6.585  35.957   8.758
 1261POPC   D2A20656   6.505  36.199   8.388
 1261POPC   C3A20657   6.539  36.066   7.973
 1261POPC   C4A20658   6.363  36.406   7.730
 1261POPC   C1B20659   7.070  36.154   8.773
 1261POPC   C2B20660   6.982  35.976   8.390
 1261POPC   C3B20661   7.052  36.135   8.002
 1261POPC   C4B20662   6.886  36.267   7.622
 1262POPC   NC320663  32.493  36.683   9.530
 1262POPC   PO420664  33.184  36.851   9.482
 1262POPC   GL120665  33.010  36.886   9.093
 1262POPC   GL220666  32.792  36.591   9.080
 1262POPC   C1A20667  33.117  37.071   8.711
 1262POPC   D2A20668  33.363  37.173   8.422
 1262POPC   C3A20669  33.367  36.870   8.081
 1262POPC   C4A20670  33.149  36.948   7.713
 1262POPC   C1B20671  32.683  36.814   8.672
 1262POPC   C2B20672  32.852  36.862   8.224
 1262POPC   C3B20673  32.678  37.045   7.824
 1262POPC   C4B20674  32.827  37.152   7.367
 1263POPC   NC320675  27.869  30.480   9.600
 1263POPC   PO420676  28.426  30.480   9.557
 1263POPC   GL120677  28.536  30.596   9.112
 1263POPC   GL220678  28.760  30.869   9.142
 1263POPC   C1A20679  28.363  30.669   8.665
 1263POPC   D2A20680  28.217  30.930   8.278
 1263POPC   C3A20681  28.083  30.731   7.885
 1263POPC   C4A20682  27.860  30.799   7.484
 1263POPC   C1B20683  28.738  31.012   8.732
 1263POPC   C2B20684  28.720  30.853   8.331
 1263POPC   C3B20685  28.607  30.828   7.929
 1263POPC   C4B20686  28.858  30.914   7.580
 1264POPC   NC320687  30.189  43.725   9.958
 1264POPC   PO420688  30.406  44.212   9.508
 1264POPC   GL120689  30.250  43.882   9.154
 1264POPC   GL220690  29.958  43.645   9.109
 1264POPC   C1A20691  30.102  43.886   8.664
 1264POPC   D2A20692  29.888  44.093   8.273
 1264POPC   C3A20693  29.886  43.816   7.890
 1264POPC   C4A20694  30.254  43.606   7.709
 1264POPC   C1B20695  29.852  43.428   8.713
 1264POPC   C2B20696  29.685  43.619   8.327
 1264POPC   C3B20697  29.429  43.944   8.103
 1264POPC   C4B20698  29.578  44.261   7.800
 1265POPC   NC320699  34.141  26.891   9.447
 1265POPC   PO420700  34.731  26.540   9.626
 1265POPC   GL120701  34.547  26.622   9.220
 1265POPC   GL220702  34.797  26.866   9.179
 1265POPC   C1A20703  34.295  26.716   8.816
 1265POPC   D2A20704  34.229  26.962   8.412
 1265POPC   C3A20705  34.219  26.781   8.011
 1265POPC   C4A20706  34.416  26.844   7.633
 1265POPC   C1B20707  34.837  26.694   8.804
 1265POPC   C2B20708  34.610  26.609   8.419
 1265POPC   C3B20709  34.726  26.778   8.028
 1265POPC   C4B20710  34.922  26.730   7.605
 1266POPC   NC320711  15.177  30.742   9.571
 1266POPC   PO420712  15.418  30.283   9.401
 1266POPC   GL120713  15.178  30.581   9.079
 1266POPC   GL220714  15.008  30.923   9.127
 1266POPC   C1A20715  15.285  30.821   8.697
 1266POPC   D2A20716  15.427  30.870   8.275
 1266POPC   C3A20717  15.380  30.688   7.868
 1266POPC   C4A20718  15.277  30.905   7.482
 1266POPC   C1B20719  14.786  30.926   8.737
 1266POPC   C2B20720  14.898  30.895   8.294
 1266POPC   C3B20721  14.929  30.915   7.856
 1266POPC   C4B20722  14.842  30.621   7.512
 1267POPC   NC320723   1.154  42.519   9.593
 1267POPC   PO420724   1.542  41.921   9.440
 1267POPC   GL120725   1.506  42.262   9.158
 1267POPC   GL220726   1.185  42.325   9.133
 1267POPC   C1A20727   1.483  42.548   8.781
 1267POPC   D2A20728   1.256  42.623   8.377
 1267POPC   C3A20729   1.456  42.391   8.054
 1267POPC   C4A20730   1.427  42.245   7.674
 1267POPC   C1B20731   0.984  42.383   8.746
 1267POPC   C2B20732   0.885  42.218   8.385
 1267POPC   C3B20733   0.952  42.309   7.997
 1267POPC   C4B20734   0.987  41.928   7.862
 1268POPC   NC320735  33.915  15.722   9.497
 1268POPC   PO420736  33.659  16.435   9.587
 1268POPC   GL120737  33.760  16.154   9.251
 1268POPC   GL220738  33.582  15.860   9.127
 1268POPC   C1A20739  33.944  16.201   8.850
 1268POPC   D2A20740  34.156  15.999   8.540
 1268POPC   C3A20741  33.989  16.091   8.135
 1268POPC   C4A20742  34.127  16.043   7.719
 1268POPC   C1B20743  33.822  15.690   8.779
 1268POPC   C2B20744  33.960  15.594   8.309
 1268POPC   C3B20745  33.804  15.681   7.874
 1268POPC   C4B20746  33.803  15.594   7.421
 1269POPC   NC320747  23.525  24.664   9.640
 1269POPC   PO420748  23.926  24.089   9.564
 1269POPC   GL120749  23.961  24.508   9.275
 1269POPC   GL220750  23.660  24.641   9.122
 1269POPC   C1A20751  24.102  24.789   8.890
 1269POPC   D2A20752  24.163  24.641   8.419
 1269POPC   C3A20753  23.859  24.680   8.082
 1269POPC   C4A20754  23.764  24.349   7.800
 1269POPC   C1B20755  23.694  24.612   8.657
 1269POPC   C2B20756  23.428  24.793   8.330
 1269POPC   C3B20757  23.315  24.704   7.901
 1269POPC   C4B20758  23.442  24.548   7.485
 1270POPC   NC320759  11.409  16.124   9.572
 1270POPC   PO420760  10.796  15.833   9.487
 1270POPC   GL120761  11.076  15.884   9.139
 1270POPC   GL220762  11.438  15.906   9.124
 1270POPC   C1A20763  11.120  15.839   8.698
 1270POPC   D2A20764  11.377  15.737   8.333
 1270POPC   C3A20765  11.270  15.891   7.933
 1270POPC   C4A20766  11.211  15.722   7.542
 1270POPC   C1B20767  11.645  16.000   8.760
 1270POPC   C2B20768  11.851  15.913   8.396
 1270POPC   C3B20769  11.782  15.815   7.996
 1270POPC   C4B20770  11.677  15.907   7.590
 1271POPC   NC320771  13.204  42.191   9.576
 1271POPC   PO420772  12.555  42.543   9.610
 1271POPC   GL120773  12.849  42.471   9.225
 1271POPC   GL220774  13.196  42.575   9.176
 1271POPC   C1A20775  12.737  42.435   8.761
 1271POPC   D2A20776  12.793  42.163   8.383
 1271POPC   C3A20777  12.884  42.359   7.991
 1271POPC   C4A20778  12.883  42.202   7.575
 1271POPC   C1B20779  13.203  42.256   8.837
 1271POPC   C2B20780  13.286  42.337   8.410
 1271POPC   C3B20781  13.363  42.553   8.041
 1271POPC   C4B20782  13.352  42.259   7.712
 1272POPC   NC320783  19.073  38.021   9.615
 1272POPC   PO420784  19.245  38.645   9.512
 1272POPC   GL120785  18.978  38.560   9.172
 1272POPC   GL220786  19.104  38.203   9.114
 1272POPC   C1A20787  18.940  38.735   8.747
 1272POPC   D2A20788  18.957  38.494   8.357
 1272POPC   C3A20789  18.893  38.507   7.897
 1272POPC   C4A20790  18.706  38.187   7.607
 1272POPC   C1B20791  19.337  38.383   8.747
 1272POPC   C2B20792  19.411  38.276   8.300
 1272POPC   C3B20793  19.413  38.464   7.885
 1272POPC   C4B20794  19.210  38.278   7.517
 1273POPC   NC320795  13.308  36.371   9.508
 1273POPC   PO420796  13.221  35.786   9.312
 1273POPC   GL120797  13.530  36.041   9.148
 1273POPC   GL220798  13.921  36.042   9.137
 1273POPC   C1A20799  13.499  36.245   8.785
 1273POPC   D2A20800  13.682  36.164   8.425
 1273POPC   C3A20801  13.550  36.067   8.034
 1273POPC   C4A20802  13.646  36.200   7.621
 1273POPC   C1B20803  14.007  35.857   8.721
 1273POPC   C2B20804  14.136  35.996   8.295
 1273POPC   C3B20805  14.013  35.859   7.857
 1273POPC   C4B20806  13.937  35.884   7.357
 1274POPC   NC320807   3.829  40.333   9.422
 1274POPC   PO420808   3.512  39.735   9.478
 1274POPC   GL120809   3.619  39.865   9.064
 1274POPC   GL220810   3.452  40.149   9.112
 1274POPC   C1A20811   3.570  39.965   8.600
 1274POPC   D2A20812   3.850  40.132   8.304
 1274POPC   C3A20813   3.874  39.856   7.994
 1274POPC   C4A20814   3.626  39.956   7.658
 1274POPC   C1B20815   3.176  40.249   8.801
 1274POPC   C2B20816   3.285  40.344   8.392
 1274POPC   C3B20817   3.383  40.072   8.091
 1274POPC   C4B20818   3.249  40.335   7.783
 1275POPC   NC320819   5.347   2.283   9.445
 1275POPC   PO420820   5.298   3.022   9.441
 1275POPC   GL120821   4.997   2.880   9.121
 1275POPC   GL220822   4.969   2.523   9.103
 1275POPC   C1A20823   5.173   2.841   8.715
 1275POPC   D2A20824   5.034   2.920   8.317
 1275POPC   C3A20825   5.257   2.907   7.926
 1275POPC   C4A20826   5.353   3.190   7.539
 1275POPC   C1B20827   4.918   2.373   8.681
 1275POPC   C2B20828   4.832   2.459   8.272
 1275POPC   C3B20829   4.749   2.613   7.847
 1275POPC   C4B20830   4.863   2.361   7.441
 1276POPC   NC320831  32.090   5.367   9.397
 1276POPC   PO420832  32.037   5.884   9.782
 1276POPC   GL120833  31.989   5.875   9.284
 1276POPC   GL220834  32.227   5.689   9.042
 1276POPC   C1A20835  31.894   6.011   8.828
 1276POPC   D2A20836  31.713   5.896   8.395
 1276POPC   C3A20837  31.900   5.996   7.953
 1276POPC   C4A20838  32.366   6.056   7.853
 1276POPC   C1B20839  32.037   5.563   8.650
 1276POPC   C2B20840  32.116   5.620   8.204
 1276POPC   C3B20841  32.179   5.595   7.775
 1276POPC   C4B20842  31.960   5.690   7.403
 1277POPC   NC320843   0.365  35.780   9.584
 1277POPC   PO420844   0.279  35.144   9.684
 1277POPC   GL120845   0.508  35.197   9.275
 1277POPC   GL220846   0.332  35.468   9.186
 1277POPC   C1A20847   0.691  35.285   8.833
 1277POPC   D2A20848   0.758  35.542   8.452
 1277POPC   C3A20849   0.548  35.548   8.023
 1277POPC   C4A20850   0.602  35.173   7.767
 1277POPC   C1B20851   0.299  35.602   8.782
 1277POPC   C2B20852   0.277  35.392   8.432
 1277POPC   C3B20853   0.010  35.367   8.128
 1277POPC   C4B20854   0.129  35.375   7.731
 1278POPC   NC320855  25.377  37.070   9.446
 1278POPC   PO420856  24.886  36.674   9.192
 1278POPC   GL120857  25.045  37.023   9.064
 1278POPC   GL220858  25.386  36.873   8.975
 1278POPC   C1A20859  25.077  37.161   8.685
 1278POPC   D2A20860  25.336  36.944   8.438
 1278POPC   C3A20861  25.205  37.018   8.031
 1278POPC   C4A20862  25.025  36.691   7.803
 1278POPC   C1B20863  25.576  37.273   8.830
 1278POPC   C2B20864  25.674  37.320   8.396
 1278POPC   C3B20865  25.727  36.955   8.112
 1278POPC   C4B20866  25.585  37.023   7.697
 1279POPC   NC320867  26.408  21.317   9.344
 1279POPC   PO420868  27.030  21.220   9.458
 1279POPC   GL120869  26.939  21.458   9.085
 1279POPC   GL220870  26.641  21.337   8.899
 1279POPC   C1A20871  26.863  21.761   8.727
 1279POPC   D2A20872  26.494  21.745   8.433
 1279POPC   C3A20873  26.688  21.522   8.110
 1279POPC   C4A20874  27.068  21.579   7.859
 1279POPC   C1B20875  26.423  21.023   8.648
 1279POPC   C2B20876  26.381  20.971   8.170
 1279POPC   C3B20877  26.556  21.142   7.810
 1279POPC   C4B20878  26.507  21.571   7.634
 1280POPC   NC320879  12.210  32.781   9.393
 1280POPC   PO420880  11.881  33.371   9.458
 1280POPC   GL120881  11.960  33.100   9.100
 1280POPC   GL220882  12.281  33.028   8.949
 1280POPC   C1A20883  11.790  33.068   8.699
 1280POPC   D2A20884  11.693  33.343   8.364
 1280POPC   C3A20885  11.705  33.076   8.015
 1280POPC   C4A20886  11.939  32.892   7.701
 1280POPC   C1B20887  12.205  32.776   8.599
 1280POPC   C2B20888  12.127  33.030   8.290
 1280POPC   C3B20889  12.365  33.033   7.960
 1280POPC   C4B20890  12.424  32.688   7.720
 1281POPC   NC320891   9.540  37.221   9.444
 1281POPC   PO420892   9.341  36.630   9.264
 1281POPC   GL120893   9.695  36.889   9.074
 1281POPC   GL220894   9.939  37.159   9.107
 1281POPC   C1A20895   9.912  36.806   8.695
 1281POPC   D2A20896   9.591  36.824   8.403
 1281POPC   C3A20897   9.493  36.575   8.027
 1281POPC   C4A20898   9.758  36.644   7.671
 1281POPC   C1B20899   9.582  37.260   8.765
 1281POPC   C2B20900   9.508  37.329   8.330
 1281POPC   C3B20901   9.632  37.094   7.960
 1281POPC   C4B20902  10.017  37.157   7.786
 1282POPC   NC320903   0.664   2.241   9.328
 1282POPC   PO420904   0.223   1.795   9.415
 1282POPC   GL120905   0.327   1.955   9.084
 1282POPC   GL220906   0.579   1.707   9.070
 1282POPC   C1A20907   0.114   2.277   8.845
 1282POPC   D2A20908   0.309   2.308   8.442
 1282POPC   C3A20909   0.226   2.024   8.086
 1282POPC   C4A20910   0.345   2.194   7.675
 1282POPC   C1B20911   0.601   1.907   8.676
 1282POPC   C2B20912   0.898   1.805   8.379
 1282POPC   C3B20913   0.840   1.602   7.982
 1282POPC   C4B20914   0.461   1.693   7.718
 1283POPC   NC320915   8.879  24.788   9.595
 1283POPC   PO420916   9.328  24.285   9.543
 1283POPC   GL120917   9.044  24.516   9.192
 1283POPC   GL220918   8.719  24.788   9.134
 1283POPC   C1A20919   8.934  24.510   8.772
 1283POPC   D2A20920   9.036  24.557   8.372
 1283POPC   C3A20921   9.100  24.296   8.059
 1283POPC   C4A20922   8.997  24.370   7.609
 1283POPC   C1B20923   8.474  24.709   8.772
 1283POPC   C2B20924   8.530  24.452   8.394
 1283POPC   C3B20925   8.681  24.579   7.982
 1283POPC   C4B20926   8.538  24.681   7.575
 1284POPC   NC320927   0.907  37.404   9.510
 1284POPC   PO420928   0.410  37.682   9.668
 1284POPC   GL120929   0.451  37.951   9.270
 1284POPC   GL220930   0.816  37.961   9.297
 1284POPC   C1A20931   0.285  38.018   8.812
 1284POPC   D2A20932   0.235  37.747   8.418
 1284POPC   C3A20933   0.146  37.802   7.963
 1284POPC   C4A20934   0.398  37.637   7.586
 1284POPC   C1B20935   0.736  37.727   8.911
 1284POPC   C2B20936   0.743  37.849   8.491
 1284POPC   C3B20937   0.659  37.812   8.029
 1284POPC   C4B20938   0.812  37.412   7.816
 1285POPC   NC320939  25.692  27.193   9.679
 1285POPC   PO420940  25.348  26.595   9.543
 1285POPC   GL120941  25.255  26.688   9.113
 1285POPC   GL220942  25.583  26.678   9.055
 1285POPC   C1A20943  24.991  26.799   8.743
 1285POPC   D2A20944  25.105  27.063   8.377
 1285POPC   C3A20945  25.213  26.869   7.981
 1285POPC   C4A20946  25.001  26.595   7.691
 1285POPC   C1B20947  25.499  26.730   8.603
 1285POPC   C2B20948  25.638  26.992   8.275
 1285POPC   C3B20949  25.682  27.110   7.841
 1285POPC   C4B20950  25.744  27.153   7.371
 1286POPC   NC320951  25.268  22.450   9.343
 1286POPC   PO420952  25.112  21.836   9.345
 1286POPC   GL120953  25.094  22.126   9.005
 1286POPC   GL220954  24.836  22.412   9.082
 1286POPC   C1A20955  25.461  22.266   8.757
 1286POPC   D2A20956  25.595  22.213   8.352
 1286POPC   C3A20957  25.264  22.063   8.083
 1286POPC   C4A20958  25.229  22.161   7.668
 1286POPC   C1B20959  24.991  22.521   8.688
 1286POPC   C2B20960  25.039  22.488   8.276
 1286POPC   C3B20961  25.393  22.566   8.035
 1286POPC   C4B20962  25.655  22.457   7.711
 1287POPC   NC320963  28.624  18.778   9.311
 1287POPC   PO420964  28.111  18.892   9.714
 1287POPC   GL120965  28.200  19.087   9.276
 1287POPC   GL220966  28.174  18.800   9.045
 1287POPC   C1A20967  28.387  19.268   8.853
 1287POPC   D2A20968  28.292  19.342   8.380
 1287POPC   C3A20969  28.388  19.284   7.912
 1287POPC   C4A20970  28.142  19.345   7.484
 1287POPC   C1B20971  28.511  18.807   8.680
 1287POPC   C2B20972  28.616  18.947   8.282
 1287POPC   C3B20973  28.520  18.764   7.900
 1287POPC   C4B20974  28.197  18.782   7.612
 1288POPC   NC320975  33.961  34.801   9.392
 1288POPC   PO420976  33.437  34.373   9.457
 1288POPC   GL120977  33.648  34.489   9.110
 1288POPC   GL220978  33.580  34.826   9.040
 1288POPC   C1A20979  33.927  34.495   8.775
 1288POPC   D2A20980  33.989  34.681   8.370
 1288POPC   C3A20981  33.988  34.447   8.049
 1288POPC   C4A20982  33.715  34.384   7.785
 1288POPC   C1B20983  33.790  34.998   8.707
 1288POPC   C2B20984  33.602  35.045   8.327
 1288POPC   C3B20985  33.717  34.898   7.948
 1288POPC   C4B20986  34.148  34.880   7.836
 1289POPC   NC320987   4.627  42.161   9.546
 1289POPC   PO420988   3.985  42.499   9.534
 1289POPC   GL120989   4.246  42.324   9.212
 1289POPC   GL220990   4.218  42.003   9.266
 1289POPC   C1A20991   4.457  42.477   8.833
 1289POPC   D2A20992   4.543  42.679   8.452
 1289POPC   C3A20993   4.593  42.464   8.050
 1289POPC   C4A20994   4.296  42.420   7.694
 1289POPC   C1B20995   4.383  41.960   8.827
 1289POPC   C2B20996   4.453  42.111   8.388
 1289POPC   C3B20997   4.408  41.933   7.926
 1289POPC   C4B20998   4.351  41.973   7.437
 1290POPC   NC320999  26.685  41.918   9.683
 1290POPC   PO421000  26.860  41.304   9.476
 1290POPC   GL121001  26.787  41.474   9.073
 1290POPC   GL221002  26.489  41.676   8.992
 1290POPC   C1A21003  26.856  41.419   8.666
 1290POPC   D2A21004  27.117  41.576   8.379
 1290POPC   C3A21005  27.033  41.844   8.053
 1290POPC   C4A21006  26.886  41.755   7.641
 1290POPC   C1B21007  26.377  41.289   8.753
 1290POPC   C2B21008  26.531  41.234   8.330
 1290POPC   C3B21009  26.597  41.550   8.047
 1290POPC   C4B21010  26.441  41.483   7.662
 1291POPC   NC321011  25.646  18.941   9.552
 1291POPC   PO421012  25.039  18.820   9.294
 1291POPC   GL121013  25.257  19.118   9.038
 1291POPC   GL221014  25.608  19.163   9.100
 1291POPC   C1A21015  25.390  19.235   8.639
 1291POPC   D2A21016  25.406  19.506   8.266
 1291POPC   C3A21017  25.318  19.310   7.887
 1291POPC   C4A21018  25.114  19.357   7.481
 1291POPC   C1B21019  25.561  18.731   8.928
 1291POPC   C2B21020  25.326  18.717   8.558
 1291POPC   C3B21021  25.299  18.615   8.128
 1291POPC   C4B21022  25.342  18.831   7.736
 1292POPC   NC321023   9.216  28.903   9.333
 1292POPC   PO421024   8.627  29.256   9.488
 1292POPC   GL121025   8.784  29.221   9.089
 1292POPC   GL221026   8.767  28.869   9.084
 1292POPC   C1A21027   9.084  29.352   8.770
 1292POPC   D2A21028   9.222  29.299   8.342
 1292POPC   C3A21029   9.162  28.910   8.132
 1292POPC   C4A21030   9.148  29.115   7.748
 1292POPC   C1B21031   8.902  28.865   8.668
 1292POPC   C2B21032   8.685  28.974   8.314
 1292POPC   C3B21033   8.670  29.027   7.891
 1292POPC   C4B21034   8.433  29.283   7.654
 1293POPC   NC321035  43.336  42.897   9.819
 1293POPC   PO421036  43.203  42.323   9.511
 1293POPC   GL121037  43.186  42.199   9.101
 1293POPC   GL221038  43.135  42.569   9.074
 1293POPC   C1A21039  43.284  42.157   8.674
 1293POPC   D2A21040  43.484  42.114   8.282
 1293POPC   C3A21041  43.256  42.220   7.973
 1293POPC   C4A21042  42.942  42.183   7.713
 1293POPC   C1B21043  43.414  42.654   8.758
 1293POPC   C2B21044  43.269  42.573   8.358
 1293POPC   C3B21045  42.926  42.595   8.089
 1293POPC   C4B21046  43.081  42.673   7.719
 1294POPC   NC321047   6.783  37.346   9.368
 1294POPC   PO421048   6.909  37.986   9.688
 1294POPC   GL121049   6.726  37.814   9.220
 1294POPC   GL221050   6.449  37.637   9.115
 1294POPC   C1A21051   6.832  37.694   8.761
 1294POPC   D2A21052   6.578  37.499   8.429
 1294POPC   C3A21053   6.731  37.496   8.002
 1294POPC   C4A21054   6.473  37.406   7.644
 1294POPC   C1B21055   6.400  37.954   8.793
 1294POPC   C2B21056   6.403  38.027   8.351
 1294POPC   C3B21057   6.291  37.773   7.974
 1294POPC   C4B21058   6.295  37.880   7.548
 1295POPC   NC321059   5.482  39.503   9.434
 1295POPC   PO421060   5.090  38.984   9.704
 1295POPC   GL121061   4.889  39.177   9.286
 1295POPC   GL221062   5.019  39.501   9.121
 1295POPC   C1A21063   4.860  39.146   8.796
 1295POPC   D2A21064   5.018  39.315   8.381
 1295POPC   C3A21065   4.919  39.085   7.993
 1295POPC   C4A21066   5.014  39.147   7.555
 1295POPC   C1B21067   5.327  39.538   8.743
 1295POPC   C2B21068   5.506  39.480   8.279
 1295POPC   C3B21069   5.312  39.433   7.868
 1295POPC   C4B21070   4.879  39.587   7.812
 1296POPC   NC321071  29.089  38.924   9.512
 1296POPC   PO421072  29.453  39.426   9.342
 1296POPC   GL121073  29.133  39.227   9.075
 1296POPC   GL221074  28.813  39.055   9.109
 1296POPC   C1A21075  29.184  39.107   8.665
 1296POPC   D2A21076  29.397  39.113   8.273
 1296POPC   C3A21077  29.181  39.251   7.951
 1296POPC   C4A21078  29.089  39.155   7.525
 1296POPC   C1B21079  28.662  38.977   8.713
 1296POPC   C2B21080  28.823  39.049   8.307
 1296POPC   C3B21081  28.674  39.219   7.936
 1296POPC   C4B21082  28.633  39.388   7.521
 1297POPC   NC321083   1.312  15.885   9.540
 1297POPC   PO421084   0.748  16.191   9.544
 1297POPC   GL121085   1.039  16.093   9.146
 1297POPC   GL221086   1.153  15.711   9.087
 1297POPC   C1A21087   1.145  16.073   8.670
 1297POPC   D2A21088   1.356  16.200   8.258
 1297POPC   C3A21089   1.064  16.091   7.884
 1297POPC   C4A21090   0.889  15.896   7.471
 1297POPC   C1B21091   1.528  15.766   8.834
 1297POPC   C2B21092   1.655  15.761   8.405
 1297POPC   C3B21093   1.473  15.796   7.952
 1297POPC   C4B21094   1.407  15.959   7.493
 1298POPC   NC321095  29.934   6.078   9.549
 1298POPC   PO421096  30.237   5.451   9.565
 1298POPC   GL121097  30.107   5.724   9.207
 1298POPC   GL221098  30.056   6.100   9.075
 1298POPC   C1A21099  29.898   5.672   8.832
 1298POPC   D2A21100  29.765   5.639   8.433
 1298POPC   C3A21101  30.025   5.686   8.103
 1298POPC   C4A21102  30.001   6.002   7.793
 1298POPC   C1B21103  29.646   6.131   8.931
 1298POPC   C2B21104  29.547   6.126   8.494
 1298POPC   C3B21105  29.566   5.943   8.082
 1298POPC   C4B21106  29.539   6.177   7.723
 1299POPC   NC321107  24.550  22.581   9.468
 1299POPC   PO421108  24.287  23.236   9.359
 1299POPC   GL121109  24.526  22.919   9.099
 1299POPC   GL221110  24.865  22.957   8.935
 1299POPC   C1A21111  24.503  22.654   8.774
 1299POPC   D2A21112  24.669  22.842   8.425
 1299POPC   C3A21113  24.528  22.733   8.029
 1299POPC   C4A21114  24.393  22.546   7.675
 1299POPC   C1B21115  24.645  23.280   8.704
 1299POPC   C2B21116  24.682  23.337   8.287
 1299POPC   C3B21117  24.588  23.211   7.892
 1299POPC   C4B21118  24.876  23.078   7.628
 1300POPC   NC321119  29.158  33.280   9.769
 1300POPC   PO421120  29.329  33.904   9.660
 1300POPC   GL121121  29.220  33.926   9.214
 1300POPC   GL221122  29.281  33.583   9.118
 1300POPC   C1A21123  29.412  33.935   8.774
 1300POPC   D2A21124  29.478  33.657   8.414
 1300POPC   C3A21125  29.406  33.874   8.029
 1300POPC   C4A21126  29.044  34.113   7.804
 1300POPC   C1B21127  29.011  33.621   8.730
 1300POPC   C2B21128  28.972  33.728   8.266
 1300POPC   C3B21129  29.038  33.578   7.816
 1300POPC   C4B21130  29.221  33.386   7.410
 1301POPC   NC321131  38.070   0.799   9.481
 1301POPC   PO421132  37.590   0.398   9.662
 1301POPC   GL121133  37.596   0.610   9.270
 1301POPC   GL221134  37.285   0.588   9.110
 1301POPC   C1A21135  37.793   0.674   8.856
 1301POPC   D2A21136  37.904   0.403   8.503
 1301POPC   C3A21137  37.749   0.389   8.083
 1301POPC   C4A21138  37.682   0.585   7.680
 1301POPC   C1B21139  37.435   0.311   8.774
 1301POPC   C2B21140  37.294   0.311   8.372
 1301POPC   C3B21141  37.258   0.538   7.983
 1301POPC   C4B21142  37.232   0.322   7.615
 1302POPC   NC321143  21.766  28.620   9.489
 1302POPC   PO421144  21.260  28.243   9.739
 1302POPC   GL121145  21.194  28.190   9.267
 1302POPC   GL221146  21.372  28.486   9.169
 1302POPC   C1A21147  21.291  28.123   8.808
 1302POPC   D2A21148  21.686  28.140   8.496
 1302POPC   C3A21149  21.597  28.249   8.045
 1302POPC   C4A21150  21.270  28.139   7.775
 1302POPC   C1B21151  21.539  28.567   8.762
 1302POPC   C2B21152  21.703  28.646   8.332
 1302POPC   C3B21153  21.567  28.780   7.916
 1302POPC   C4B21154  21.541  28.911   7.465
 1303POPC   NC321155  33.520  25.279   9.231
 1303POPC   PO421156  34.192  24.941   9.470
 1303POPC   GL121157  33.944  24.964   9.120
 1303POPC   GL221158  34.018  25.306   9.080
 1303POPC   C1A21159  33.766  24.960   8.693
 1303POPC   D2A21160  33.358  25.037   8.458
 1303POPC   C3A21161  33.447  25.126   8.029
 1303POPC   C4A21162  33.787  25.122   7.738
 1303POPC   C1B21163  33.992  25.422   8.680
 1303POPC   C2B21164  33.638  25.471   8.388
 1303POPC   C3B21165  33.709  25.570   7.977
 1303POPC   C4B21166  34.111  25.548   7.766
 1304POPC   NC321167  24.647  14.693   9.298
 1304POPC   PO421168  24.628  15.373   9.575
 1304POPC   GL121169  24.647  15.209   9.170
 1304POPC   GL221170  24.309  15.082   9.165
 1304POPC   C1A21171  24.614  15.104   8.734
 1304POPC   D2A21172  24.790  15.147   8.355
 1304POPC   C3A21173  24.598  15.276   7.979
 1304POPC   C4A21174  24.626  15.054   7.611
 1304POPC   C1B21175  24.191  14.832   8.789
 1304POPC   C2B21176  24.336  14.773   8.366
 1304POPC   C3B21177  24.256  14.887   7.951
 1304POPC   C4B21178  24.108  14.972   7.547
 1305POPC   NC321179   3.472  41.086   9.216
 1305POPC   PO421180   3.515  41.647   9.631
 1305POPC   GL121181   3.524  41.691   9.201
 1305POPC   GL221182   3.766  41.919   9.065
 1305POPC   C1A21183   3.470  41.606   8.778
 1305POPC   D2A21184   3.426  41.810   8.393
 1305POPC   C3A21185   3.369  41.571   8.062
 1305POPC   C4A21186   3.536  41.277   7.802
 1305POPC   C1B21187   3.908  41.826   8.622
 1305POPC   C2B21188   3.982  42.006   8.206
 1305POPC   C3B21189   3.928  42.020   7.751
 1305POPC   C4B21190   3.614  41.765   7.643
 1306POPC   NC321191   5.437  24.859   9.487
 1306POPC   PO421192   4.905  24.504   9.750
 1306POPC   GL121193   5.117  24.545   9.286
 1306POPC   GL221194   5.229  24.219   9.142
 1306POPC   C1A21195   5.137  24.714   8.863
 1306POPC   D2A21196   4.845  24.686   8.493
 1306POPC   C3A21197   4.986  24.657   8.052
 1306POPC   C4A21198   4.884  24.737   7.606
 1306POPC   C1B21199   5.013  24.247   8.712
 1306POPC   C2B21200   5.161  24.208   8.282
 1306POPC   C3B21201   5.412  24.357   7.913
 1306POPC   C4B21202   5.243  24.394   7.468
 1307POPC   NC321203  38.194  31.205   9.579
 1307POPC   PO421204  38.595  31.785   9.535
 1307POPC   GL121205  38.460  31.419   9.176
 1307POPC   GL221206  38.730  31.249   9.024
 1307POPC   C1A21207  38.292  31.245   8.774
 1307POPC   D2A21208  38.323  31.514   8.422
 1307POPC   C3A21209  38.358  31.366   8.017
 1307POPC   C4A21210  38.220  31.498   7.594
 1307POPC   C1B21211  38.823  31.581   8.837
 1307POPC   C2B21212  38.778  31.717   8.463
 1307POPC   C3B21213  38.819  31.604   8.107
 1307POPC   C4B21214  38.702  31.626   7.722
 1308POPC   NC321215  28.064  42.656   9.494
 1308POPC   PO421216  28.470  42.158   9.453
 1308POPC   GL121217  28.411  42.262   9.044
 1308POPC   GL221218  28.356  42.605   9.088
 1308POPC   C1A21219  28.660  42.245   8.665
 1308POPC   D2A21220  28.876  42.123   8.276
 1308POPC   C3A21221  28.749  42.326   7.878
 1308POPC   C4A21222  28.458  42.198   7.509
 1308POPC   C1B21223  28.255  42.569   8.654
 1308POPC   C2B21224  28.375  42.424   8.243
 1308POPC   C3B21225  28.304  42.592   7.840
 1308POPC   C4B21226  28.084  42.585   7.456
 1309POPC   NC321227   6.811   1.098   9.464
 1309POPC   PO421228   7.426   1.344   9.493
 1309POPC   GL121229   7.354   1.066   9.132
 1309POPC   GL221230   7.016   1.120   8.995
 1309POPC   C1A21231   7.643   1.048   8.752
 1309POPC   D2A21232   7.818   1.403   8.511
 1309POPC   C3A21233   7.645   1.441   8.120
 1309POPC   C4A21234   7.571   1.100   7.858
 1309POPC   C1B21235   7.153   1.071   8.586
 1309POPC   C2B21236   7.100   1.051   8.151
 1309POPC   C3B21237   7.167   1.423   7.927
 1309POPC   C4B21238   7.453   1.621   7.644
 1310POPC   NC321239   4.741  44.680   9.510
 1310POPC   PO421240   5.318  44.371   9.579
 1310POPC   GL121241   5.376  44.406   9.160
 1310POPC   GL221242   5.033  44.542   9.083
 1310POPC   C1A21243   5.462  44.609   8.769
 1310POPC   D2A21244   5.224  44.434   8.439
 1310POPC   C3A21245   5.318  44.527   8.040
 1310POPC   C4A21246   5.242  44.351   7.656
 1310POPC   C1B21247   4.796  44.577   8.687
 1310POPC   C2B21248   4.870  44.775   8.269
 1310POPC   C3B21249   4.896  44.713   7.819
 1310POPC   C4B21250   4.606  44.486   7.571
 1311POPC   NC321251   9.258  38.475   9.528
 1311POPC   PO421252   9.913  38.561   9.674
 1311POPC   GL121253   9.989  38.375   9.215
 1311POPC   GL221254   9.826  38.662   9.071
 1311POPC   C1A21255   9.824  38.229   8.773
 1311POPC   D2A21256   9.595  38.301   8.375
 1311POPC   C3A21257   9.750  38.149   7.972
 1311POPC   C4A21258   9.554  38.230   7.583
 1311POPC   C1B21259  10.124  38.636   8.732
 1311POPC   C2B21260  10.105  38.725   8.299
 1311POPC   C3B21261   9.750  38.669   7.984
 1311POPC   C4B21262   9.303  38.588   7.886
 1312POPC   NC321263  38.889  29.743   9.438
 1312POPC   PO421264  39.274  30.331   9.523
 1312POPC   GL121265  39.149  30.104   9.159
 1312POPC   GL221266  39.350  29.819   9.198
 1312POPC   C1A21267  39.029  30.058   8.715
 1312POPC   D2A21268  39.090  30.258   8.311
 1312POPC   C3A21269  39.241  30.092   7.934
 1312POPC   C4A21270  39.062  29.755   7.672
 1312POPC   C1B21271  39.464  29.655   8.802
 1312POPC   C2B21272  39.419  29.817   8.388
 1312POPC   C3B21273  39.450  29.636   7.957
 1312POPC   C4B21274  39.549  29.735   7.523
 1313POPC   NC321275   7.408  23.363   9.535
 1313POPC   PO421276   7.759  23.935   9.551
 1313POPC   GL121277   7.656  23.674   9.200
 1313POPC   GL221278   7.302  23.744   9.179
 1313POPC   C1A21279   7.579  23.523   8.786
 1313POPC   D2A21280   7.541  23.734   8.401
 1313POPC   C3A21281   7.379  23.549   8.055
 1313POPC   C4A21282   7.552  23.637   7.694
 1313POPC   C1B21283   7.232  23.918   8.781
 1313POPC   C2B21284   7.048  23.671   8.415
 1313POPC   C3B21285   6.844  23.772   8.056
 1313POPC   C4B21286   7.051  23.799   7.679
 1314POPC   NC321287   7.891  35.581   9.577
 1314POPC   PO421288   7.284  35.230   9.477
 1314POPC   GL121289   7.397  35.255   9.071
 1314POPC   GL221290   7.691  35.400   9.125
 1314POPC   C1A21291   7.497  35.279   8.634
 1314POPC   D2A21292   7.206  35.165   8.339
 1314POPC   C3A21293   7.368  35.155   7.964
 1314POPC   C4A21294   7.226  35.279   7.606
 1314POPC   C1B21295   7.825  35.647   8.796
 1314POPC   C2B21296   7.908  35.523   8.413
 1314POPC   C3B21297   7.851  35.664   8.023
 1314POPC   C4B21298   7.676  35.467   7.696
 1315POPC   NC321299  36.701  38.968   9.977
 1315POPC   PO421300  37.134  39.328   9.587
 1315POPC   GL121301  37.050  39.166   9.197
 1315POPC   GL221302  36.783  39.431   9.194
 1315POPC   C1A21303  36.833  39.114   8.785
 1315POPC   D2A21304  36.582  38.864   8.507
 1315POPC   C3A21305  36.783  39.045   8.181
 1315POPC   C4A21306  36.884  39.078   7.778
 1315POPC   C1B21307  36.745  39.618   8.800
 1315POPC   C2B21308  36.902  39.525   8.418
 1315POPC   C3B21309  36.804  39.602   8.011
 1315POPC   C4B21310  37.078  39.564   7.674
 1316POPC   NC321311  38.454  35.713   9.493
 1316POPC   PO421312  38.367  36.404   9.496
 1316POPC   GL121313  38.514  36.132   9.173
 1316POPC   GL221314  38.176  36.018   9.151
 1316POPC   C1A21315  38.481  36.020   8.735
 1316POPC   D2A21316  38.351  36.272   8.390
 1316POPC   C3A21317  38.484  36.157   7.989
 1316POPC   C4A21318  38.826  35.873   7.871
 1316POPC   C1B21319  38.061  36.336   8.831
 1316POPC   C2B21320  37.886  36.434   8.431
 1316POPC   C3B21321  38.022  36.402   8.010
 1316POPC   C4B21322  38.159  36.361   7.587
 1317POPC   NC321323  11.524  39.975   9.631
 1317POPC   PO421324  10.914  39.786   9.631
 1317POPC   GL121325  11.161  40.105   9.323
 1317POPC   GL221326  11.289  39.825   9.163
 1317POPC   C1A21327  11.282  40.245   8.890
 1317POPC   D2A21328  11.390  39.986   8.513
 1317POPC   C3A21329  11.396  40.126   8.076
 1317POPC   C4A21330  11.227  40.255   7.677
 1317POPC   C1B21331  11.369  39.561   8.809
 1317POPC   C2B21332  11.180  39.535   8.410
 1317POPC   C3B21333  11.175  39.679   8.009
 1317POPC   C4B21334  11.295  39.740   7.583
 1318POPC   NC321335  21.828   2.571   9.448
 1318POPC   PO421336  22.184   3.088   9.456
 1318POPC   GL121337  22.080   2.945   9.076
 1318POPC   GL221338  21.757   2.925   9.070
 1318POPC   C1A21339  22.160   2.922   8.639
 1318POPC   D2A21340  22.074   3.151   8.254
 1318POPC   C3A21341  22.348   2.981   7.932
 1318POPC   C4A21342  22.505   2.765   7.552
 1318POPC   C1B21343  21.924   2.502   8.818
 1318POPC   C2B21344  22.198   2.441   8.435
 1318POPC   C3B21345  21.996   2.650   8.101
 1318POPC   C4B21346  22.019   2.684   7.675
 1319POPC   NC321347  34.555   0.806   9.308
 1319POPC   PO421348  34.884   0.245   9.401
 1319POPC   GL121349  34.746   0.398   9.035
 1319POPC   GL221350  34.433   0.358   9.106
 1319POPC   C1A21351  34.670   0.625   8.631
 1319POPC   D2A21352  34.600   0.921   8.281
 1319POPC   C3A21353  34.402   0.807   7.898
 1319POPC   C4A21354  34.644   0.628   7.564
 1319POPC   C1B21355  34.199   0.499   8.750
 1319POPC   C2B21356  34.185   0.487   8.281
 1319POPC   C3B21357  34.218   0.321   7.858
 1319POPC   C4B21358  34.166   0.565   7.482
 1320POPC   NC321359  31.172  38.533   9.547
 1320POPC   PO421360  31.821  38.189   9.552
 1320POPC   GL121361  31.526  38.280   9.211
 1320POPC   GL221362  31.439  38.636   9.124
 1320POPC   C1A21363  31.597  38.338   8.763
 1320POPC   D2A21364  31.320  38.367   8.433
 1320POPC   C3A21365  31.492  38.586   8.075
 1320POPC   C4A21366  31.766  38.350   7.848
 1320POPC   C1B21367  31.119  38.709   8.798
 1320POPC   C2B21368  31.130  38.824   8.365
 1320POPC   C3B21369  30.980  38.527   8.045
 1320POPC   C4B21370  30.900  38.211   7.720
 1321POPC   NC321371  37.438  17.910   9.753
 1321POPC   PO421372  37.664  18.562   9.760
 1321POPC   GL121373  37.536  18.432   9.298
 1321POPC   GL221374  37.477  18.061   9.236
 1321POPC   C1A21375  37.667  18.348   8.822
 1321POPC   D2A21376  37.839  18.209   8.398
 1321POPC   C3A21377  37.641  18.333   7.985
 1321POPC   C4A21378  37.706  18.342   7.511
 1321POPC   C1B21379  37.232  18.051   8.831
 1321POPC   C2B21380  37.328  18.105   8.375
 1321POPC   C3B21381  37.260  17.990   7.932
 1321POPC   C4B21382  37.287  18.019   7.445
 1322POPC   NC321383  35.769  13.185   9.445
 1322POPC   PO421384  36.005  12.468   9.608
 1322POPC   GL121385  36.142  12.759   9.231
 1322POPC   GL221386  35.885  12.929   9.023
 1322POPC   C1A21387  36.359  12.841   8.797
 1322POPC   D2A21388  36.228  12.913   8.351
 1322POPC   C3A21389  36.317  13.217   8.032
 1322POPC   C4A21390  36.301  13.042   7.648
 1322POPC   C1B21391  35.975  13.202   8.674
 1322POPC   C2B21392  35.831  13.223   8.238
 1322POPC   C3B21393  35.917  12.886   7.936
 1322POPC   C4B21394  35.666  12.614   7.717
 1323POPC   NC321395   0.327  42.523   9.479
 1323POPC   PO421396   0.681  42.849   9.791
 1323POPC   GL121397   0.451  42.978   9.277
 1323POPC   GL221398   0.409  42.717   8.994
 1323POPC   C1A21399   0.502  43.189   8.827
 1323POPC   D2A21400   0.318  43.133   8.388
 1323POPC   C3A21401   0.539  43.354   8.053
 1323POPC   C4A21402   0.953  43.409   7.897
 1323POPC   C1B21403   0.104  42.734   8.651
 1323POPC   C2B21404   0.062  42.714   8.179
 1323POPC   C3B21405   0.381  42.897   7.911
 1323POPC   C4B21406   0.709  43.061   7.605
 1324POPC   NC321407  11.529  11.617   9.557
 1324POPC   PO421408  11.051  12.161   9.557
 1324POPC   GL121409  11.277  12.367   9.214
 1324POPC   GL221410  11.572  12.137   9.155
 1324POPC   C1A21411  11.139  12.245   8.805
 1324POPC   D2A21412  11.158  11.976   8.438
 1324POPC   C3A21413  11.215  12.169   8.039
 1324POPC   C4A21414  11.039  11.873   7.749
 1324POPC   C1B21415  11.733  11.843   8.804
 1324POPC   C2B21416  11.567  11.636   8.426
 1324POPC   C3B21417  11.529  11.744   7.989
 1324POPC   C4B21418  11.869  11.660   7.682
 1325POPC   NC321419  33.847  20.447   9.607
 1325POPC   PO421420  33.351  20.740   9.695
 1325POPC   GL121421  33.551  20.545   9.207
 1325POPC   GL221422  33.951  20.439   9.120
 1325POPC   C1A21423  33.630  20.443   8.730
 1325POPC   D2A21424  33.920  20.662   8.410
 1325POPC   C3A21425  33.754  20.648   7.998
 1325POPC   C4A21426  33.700  20.228   7.863
 1325POPC   C1B21427  34.110  20.807   8.881
 1325POPC   C2B21428  34.392  20.888   8.523
 1325POPC   C3B21429  34.385  20.880   8.063
 1325POPC   C4B21430  34.136  20.780   7.671
 1326POPC   NC321431  15.085   9.251   9.549
 1326POPC   PO421432  15.554   8.895   9.458
 1326POPC   GL121433  15.388   9.199   9.124
 1326POPC   GL221434  15.059   9.104   9.057
 1326POPC   C1A21435  15.300   9.285   8.661
 1326POPC   D2A21436  15.511   9.015   8.344
 1326POPC   C3A21437  15.315   9.006   7.911
 1326POPC   C4A21438  14.900   8.914   7.708
 1326POPC   C1B21439  15.211   8.785   8.728
 1326POPC   C2B21440  15.090   8.719   8.283
 1326POPC   C3B21441  15.171   8.493   7.889
 1326POPC   C4B21442  14.973   8.353   7.487
 1327POPC   NC321443  32.178  38.589   9.591
 1327POPC   PO421444  32.596  38.091   9.484
 1327POPC   GL121445  32.391  38.294   9.156
 1327POPC   GL221446  32.400  38.674   9.129
 1327POPC   C1A21447  32.080  38.175   8.853
 1327POPC   D2A21448  31.917  38.063   8.445
 1327POPC   C3A21449  32.186  38.261   8.146
 1327POPC   C4A21450  32.220  38.195   7.728
 1327POPC   C1B21451  31.990  38.708   8.884
 1327POPC   C2B21452  31.872  38.620   8.441
 1327POPC   C3B21453  31.997  38.774   8.037
 1327POPC   C4B21454  32.139  38.673   7.643
 1328POPC   NC321455   0.561  33.216   9.652
 1328POPC   PO421456   0.161  32.746   9.368
 1328POPC   GL121457   0.388  32.975   9.040
 1328POPC   GL221458   0.695  33.155   9.162
 1328POPC   C1A21459   0.294  32.896   8.599
 1328POPC   D2A21460   0.001  32.876   8.244
 1328POPC   C3A21461   0.295  32.979   7.924
 1328POPC   C4A21462   0.737  32.849   7.897
 1328POPC   C1B21463   0.693  33.351   8.768
 1328POPC   C2B21464   0.669  33.186   8.354
 1328POPC   C3B21465   0.685  33.353   7.967
 1328POPC   C4B21466   0.524  33.344   7.601
 1329POPC   NC321467  31.616   2.392   9.623
 1329POPC   PO421468  31.479   1.776   9.603
 1329POPC   GL121469  31.637   1.790   9.195
 1329POPC   GL221470  31.967   1.719   9.156
 1329POPC   C1A21471  31.520   1.971   8.810
 1329POPC   D2A21472  31.524   2.236   8.424
 1329POPC   C3A21473  31.595   2.030   8.013
 1329POPC   C4A21474  31.375   2.033   7.601
 1329POPC   C1B21475  32.032   1.943   8.806
 1329POPC   C2B21476  31.840   1.820   8.432
 1329POPC   C3B21477  31.929   1.565   8.102
 1329POPC   C4B21478  31.701   1.613   7.728
 1330POPC   NC321479  13.983  16.083   9.540
 1330POPC   PO421480  13.428  15.843   9.316
 1330POPC   GL121481  13.692  16.077   9.111
 1330POPC   GL221482  13.927  15.851   9.089
 1330POPC   C1A21483  13.631  16.220   8.715
 1330POPC   D2A21484  13.313  15.995   8.469
 1330POPC   C3A21485  13.494  15.913   8.084
 1330POPC   C4A21486  13.443  16.040   7.702
 1330POPC   C1B21487  13.932  15.801   8.660
 1330POPC   C2B21488  14.030  15.672   8.221
 1330POPC   C3B21489  13.929  15.911   7.840
 1330POPC   C4B21490  13.921  15.833   7.381
 1331POPC   NC321491  31.497   8.951   9.546
 1331POPC   PO421492  31.969   8.922   9.252
 1331POPC   GL121493  31.536   8.909   9.024
 1331POPC   GL221494  31.270   9.144   9.121
 1331POPC   C1A21495  31.244   8.850   8.638
 1331POPC   D2A21496  31.155   8.780   8.171
 1331POPC   C3A21497  31.528   8.847   7.884
 1331POPC   C4A21498  31.651   9.125   7.537
 1331POPC   C1B21499  31.420   9.323   8.712
 1331POPC   C2B21500  31.371   9.239   8.251
 1331POPC   C3B21501  31.191   9.228   7.819
 1331POPC   C4B21502  31.242   9.482   7.427
 1332POPC   NC321503  18.391   8.490   9.733
 1332POPC   PO421504  18.332   9.026   9.675
 1332POPC   GL121505  18.313   9.003   9.217
 1332POPC   GL221506  18.239   8.645   9.225
 1332POPC   C1A21507  18.317   9.205   8.764
 1332POPC   D2A21508  18.401   9.377   8.315
 1332POPC   C3A21509  18.140   9.192   7.990
 1332POPC   C4A21510  17.869   9.312   7.631
 1332POPC   C1B21511  18.404   8.690   8.782
 1332POPC   C2B21512  18.421   8.861   8.330
 1332POPC   C3B21513  18.546   8.878   7.868
 1332POPC   C4B21514  18.522   8.710   7.416
 1333POPC   NC321515  39.662  30.066   9.526
 1333POPC   PO421516  39.940  30.627   9.595
 1333POPC   GL121517  39.894  30.797   9.196
 1333POPC   GL221518  40.060  30.512   9.079
 1333POPC   C1A21519  39.718  30.759   8.762
 1333POPC   D2A21520  39.933  30.685   8.349
 1333POPC   C3A21521  40.170  30.833   7.991
 1333POPC   C4A21522  39.972  30.843   7.574
 1333POPC   C1B21523  39.987  30.314   8.693
 1333POPC   C2B21524  40.127  30.214   8.246
 1333POPC   C3B21525  40.120  30.362   7.794
 1333POPC   C4B21526  40.052  30.408   7.324
 1334POPC   NC321527  31.467  37.887   9.558
 1334POPC   PO421528  31.501  37.236   9.544
 1334POPC   GL121529  31.635  37.514   9.221
 1334POPC   GL221530  31.305  37.660   9.160
 1334POPC   C1A21531  31.747  37.744   8.844
 1334POPC   D2A21532  31.785  37.536   8.445
 1334POPC   C3A21533  31.556  37.623   8.069
 1334POPC   C4A21534  31.690  37.465   7.652
 1334POPC   C1B21535  31.286  37.968   8.874
 1334POPC   C2B21536  31.275  37.853   8.451
 1334POPC   C3B21537  31.251  38.031   8.034
 1334POPC   C4B21538  31.274  37.782   7.647
 1335POPC   NC321539   9.974  23.150   9.769
 1335POPC   PO421540   9.406  22.916   9.431
 1335POPC   GL121541   9.671  22.793   9.075
 1335POPC   GL221542   9.718  23.061   8.857
 1335POPC   C1A21543   9.678  22.577   8.734
 1335POPC   D2A21544   9.457  22.626   8.428
 1335POPC   C3A21545   9.578  22.784   8.075
 1335POPC   C4A21546   9.545  22.571   7.676
 1335POPC   C1B21547  10.018  22.987   8.591
 1335POPC   C2B21548  10.230  23.132   8.266
 1335POPC   C3B21549   9.992  23.314   7.967
 1335POPC   C4B21550   9.876  22.969   7.728
 1336POPC   NC321551  19.396  42.246   9.507
 1336POPC   PO421552  20.055  42.467   9.606
 1336POPC   GL121553  20.055  42.353   9.159
 1336POPC   GL221554  19.702  42.272   9.077
 1336POPC   C1A21555  20.070  42.508   8.705
 1336POPC   D2A21556  19.916  42.373   8.293
 1336POPC   C3A21557  20.011  42.622   7.947
 1336POPC   C4A21558  19.942  42.496   7.554
 1336POPC   C1B21559  19.793  42.069   8.694
 1336POPC   C2B21560  19.855  41.868   8.309
 1336POPC   C3B21561  19.765  42.011   7.914
 1336POPC   C4B21562  19.391  42.054   7.758
 1337POPC   NC321563   4.140  25.844   9.493
 1337POPC   PO421564   4.650  26.288   9.548
 1337POPC   GL121565   4.499  26.132   9.176
 1337POPC   GL221566   4.537  25.789   9.133
 1337POPC   C1A21567   4.410  26.115   8.730
 1337POPC   D2A21568   4.085  26.105   8.425
 1337POPC   C3A21569   4.098  25.939   8.021
 1337POPC   C4A21570   4.175  26.126   7.631
 1337POPC   C1B21571   4.857  25.893   8.864
 1337POPC   C2B21572   4.856  26.076   8.470
 1337POPC   C3B21573   4.587  26.076   8.129
 1337POPC   C4B21574   4.666  25.991   7.710
 1338POPC   NC321575  38.212  29.208  10.194
 1338POPC   PO421576  38.515  29.550   9.663
 1338POPC   GL121577  38.507  29.444   9.197
 1338POPC   GL221578  38.215  29.257   9.079
 1338POPC   C1A21579  38.565  29.333   8.727
 1338POPC   D2A21580  38.526  29.461   8.271
 1338POPC   C3A21581  38.469  29.144   7.929
 1338POPC   C4A21582  38.220  28.771   7.750
 1338POPC   C1B21583  38.107  29.590   8.751
 1338POPC   C2B21584  38.105  29.764   8.324
 1338POPC   C3B21585  38.169  29.555   7.902
 1338POPC   C4B21586  38.249  29.687   7.463
 1339POPC   NC321587   1.007  44.933   9.392
 1339POPC   PO421588   1.185  44.213   9.449
 1339POPC   GL121589   1.167  44.376   9.063
 1339POPC   GL221590   1.349  44.693   9.079
 1339POPC   C1A21591   1.143  44.463   8.629
 1339POPC   D2A21592   0.983  44.805   8.392
 1339POPC   C3A21593   1.150  44.749   7.988
 1339POPC   C4A21594   1.177  44.362   7.716
 1339POPC   C1B21595   1.625  44.457   8.830
 1339POPC   C2B21596   1.616  44.288   8.429
 1339POPC   C3B21597   1.582  44.448   8.042
 1339POPC   C4B21598   1.695  44.431   7.631
 1340POPC   NC321599  32.453  35.196   9.558
 1340POPC   PO421600  31.889  35.603   9.487
 1340POPC   GL121601  32.173  35.430   9.172
 1340POPC   GL221602  32.387  35.119   9.074
 1340POPC   C1A21603  32.120  35.364   8.742
 1340POPC   D2A21604  31.819  35.234   8.479
 1340POPC   C3A21605  32.001  35.289   8.076
 1340POPC   C4A21606  31.870  35.085   7.719
 1340POPC   C1B21607  32.637  35.145   8.685
 1340POPC   C2B21608  32.584  34.967   8.245
 1340POPC   C3B21609  32.365  35.023   7.811
 1340POPC   C4B21610  32.383  35.033   7.328
 1341POPC   NC321611   9.925  29.007   9.610
 1341POPC   PO421612   9.376  29.337   9.402
 1341POPC   GL121613   9.648  29.130   9.112
 1341POPC   GL221614   9.993  29.283   9.159
 1341POPC   C1A21615   9.590  29.110   8.658
 1341POPC   D2A21616   9.817  29.243   8.267
 1341POPC   C3A21617   9.627  29.237   7.852
 1341POPC   C4A21618   9.550  28.960   7.487
 1341POPC   C1B21619  10.068  28.966   8.836
 1341POPC   C2B21620  10.262  28.958   8.423
 1341POPC   C3B21621  10.113  28.923   7.982
 1341POPC   C4B21622  10.126  29.320   7.785
 1342POPC   NC321623  29.842  24.610   9.547
 1342POPC   PO421624  30.521  24.557   9.619
 1342POPC   GL121625  30.225  24.376   9.299
 1342POPC   GL221626  30.160  24.695   9.141
 1342POPC   C1A21627  30.072  24.304   8.834
 1342POPC   D2A21628  30.155  24.524   8.440
 1342POPC   C3A21629  30.022  24.432   8.003
 1342POPC   C4A21630  30.271  24.414   7.586
 1342POPC   C1B21631  29.836  24.754   8.791
 1342POPC   C2B21632  29.767  24.868   8.331
 1342POPC   C3B21633  29.722  24.834   7.855
 1342POPC   C4B21634  29.919  24.759   7.455
 1343POPC   NC321635  35.957  38.222   9.552
 1343POPC   PO421636  36.490  38.542   9.550
 1343POPC   GL121637  36.367  38.288   9.184
 1343POPC   GL221638  36.054  38.320   9.057
 1343POPC   C1A21639  36.466  38.390   8.752
 1343POPC   D2A21640  36.186  38.483   8.396
 1343POPC   C3A21641  36.180  38.308   7.970
 1343POPC   C4A21642  36.020  38.251   7.549
 1343POPC   C1B21643  35.776  38.321   8.731
 1343POPC   C2B21644  35.782  38.176   8.300
 1343POPC   C3B21645  35.624  38.114   7.857
 1343POPC   C4B21646  35.569  38.135   7.350
 1344POPC   NC321647  23.475  16.098   9.739
 1344POPC   PO421648  24.161  16.006   9.593
 1344POPC   GL121649  23.789  15.856   9.328
 1344POPC   GL221650  23.669  16.121   9.150
 1344POPC   C1A21651  23.765  15.760   8.818
 1344POPC   D2A21652  23.856  15.634   8.368
 1344POPC   C3A21653  23.996  15.861   7.984
 1344POPC   C4A21654  23.974  15.904   7.486
 1344POPC   C1B21655  23.800  16.260   8.723
 1344POPC   C2B21656  23.646  16.139   8.328
 1344POPC   C3B21657  23.447  15.823   8.064
 1344POPC   C4B21658  23.569  15.671   7.684
 1345POPC   NC321659  33.394  14.061   9.508
 1345POPC   PO421660  34.018  14.105   9.765
 1345POPC   GL121661  33.776  14.258   9.296
 1345POPC   GL221662  33.771  14.534   9.132
 1345POPC   C1A21663  33.649  14.248   8.757
 1345POPC   D2A21664  33.831  14.143   8.357
 1345POPC   C3A21665  33.674  14.217   7.950
 1345POPC   C4A21666  34.018  14.164   7.638
 1345POPC   C1B21667  33.935  14.714   8.745
 1345POPC   C2B21668  33.730  14.678   8.337
 1345POPC   C3B21669  33.846  14.692   7.909
 1345POPC   C4B21670  33.517  14.733   7.607
 1346POPC   NC321671  19.308  14.247   9.464
 1346POPC   PO421672  18.731  14.600   9.399
 1346POPC   GL121673  18.927  14.310   9.081
 1346POPC   GL221674  19.282  14.434   9.002
 1346POPC   C1A21675  18.996  14.283   8.624
 1346POPC   D2A21676  18.980  14.646   8.341
 1346POPC   C3A21677  18.796  14.541   7.968
 1346POPC   C4A21678  19.028  14.247   7.817
 1346POPC   C1B21679  19.493  14.412   8.611
 1346POPC   C2B21680  19.410  14.418   8.168
 1346POPC   C3B21681  19.265  14.689   7.817
 1346POPC   C4B21682  19.307  14.663   7.370
 1347POPC   NC321683   7.166  38.007   9.302
 1347POPC   PO421684   7.374  38.529   9.607
 1347POPC   GL121685   7.429  38.456   9.182
 1347POPC   GL221686   7.116  38.490   9.149
 1347POPC   C1A21687   7.366  38.433   8.715
 1347POPC   D2A21688   7.407  38.288   8.303
 1347POPC   C3A21689   7.558  38.518   7.955
 1347POPC   C4A21690   7.425  38.205   7.694
 1347POPC   C1B21691   6.954  38.730   8.842
 1347POPC   C2B21692   6.962  38.583   8.426
 1347POPC   C3B21693   6.901  38.490   8.026
 1347POPC   C4B21694   7.114  38.671   7.734
 1348POPC   NC321695  37.628  26.068   9.647
 1348POPC   PO421696  38.044  25.651   9.390
 1348POPC   GL121697  37.708  25.898   9.173
 1348POPC   GL221698  37.736  26.261   9.124
 1348POPC   C1A21699  37.388  26.011   8.865
 1348POPC   D2A21700  37.339  25.932   8.423
 1348POPC   C3A21701  37.712  25.939   8.206
 1348POPC   C4A21702  37.746  26.086   7.796
 1348POPC   C1B21703  37.754  26.272   8.620
 1348POPC   C2B21704  37.613  26.436   8.181
 1348POPC   C3B21705  37.733  26.594   7.765
 1348POPC   C4B21706  37.742  26.657   7.294
 1349POPC   NC321707  32.012   4.665   9.731
 1349POPC   PO421708  32.460   5.108   9.427
 1349POPC   GL121709  32.205   4.923   9.134
 1349POPC   GL221710  31.988   4.630   9.194
 1349POPC   C1A21711  32.264   5.099   8.728
 1349POPC   D2A21712  32.040   5.159   8.360
 1349POPC   C3A21713  32.231   5.116   7.949
 1349POPC   C4A21714  32.561   5.278   7.662
 1349POPC   C1B21715  32.120   4.599   8.725
 1349POPC   C2B21716  32.349   4.761   8.340
 1349POPC   C3B21717  32.370   4.614   7.912
 1349POPC   C4B21718  32.025   4.744   7.639
 1350POPC   NC321719   4.911  44.155   9.719
 1350POPC   PO421720   5.239  43.558   9.535
 1350POPC   GL121721   5.269  43.734   9.152
 1350POPC   GL221722   5.042  44.013   9.242
 1350POPC   C1A21723   5.401  43.645   8.729
 1350POPC   D2A21724   5.350  43.920   8.368
 1350POPC   C3A21725   5.163  43.838   7.995
 1350POPC   C4A21726   5.271  43.836   7.563
 1350POPC   C1B21727   5.097  44.092   8.812
 1350POPC   C2B21728   4.869  44.066   8.437
 1350POPC   C3B21729   4.800  44.276   8.075
 1350POPC   C4B21730   4.831  44.067   7.698
 1351POPC   NC321731  42.536   7.607   9.429
 1351POPC   PO421732  42.041   7.196   9.321
 1351POPC   GL121733  42.332   7.354   9.041
 1351POPC   GL221734  42.187   7.666   9.050
 1351POPC   C1A21735  42.648   7.337   8.717
 1351POPC   D2A21736  42.750   7.182   8.314
 1351POPC   C3A21737  42.461   7.346   7.988
 1351POPC   C4A21738  41.996   7.312   8.005
 1351POPC   C1B21739  42.055   7.747   8.674
 1351POPC   C2B21740  42.197   7.764   8.275
 1351POPC   C3B21741  42.059   7.840   7.884
 1351POPC   C4B21742  42.314   7.734   7.550
 1352POPC   NC321743   8.861  36.664   9.383
 1352POPC   PO421744   9.064  37.309   9.442
 1352POPC   GL121745   9.059  37.049   9.036
 1352POPC   GL221746   8.984  36.694   8.911
 1352POPC   C1A21747   8.973  37.060   8.569
 1352POPC   D2A21748   9.166  36.971   8.176
 1352POPC   C3A21749   8.932  37.007   7.833
 1352POPC   C4A21750   8.834  37.258   7.500
 1352POPC   C1B21751   9.154  36.564   8.533
 1352POPC   C2B21752   8.902  36.531   8.194
 1352POPC   C3B21753   8.989  36.498   7.774
 1352POPC   C4B21754   9.313  36.518   7.441
 1353POPC   NC321755  18.571  41.497   9.495
 1353POPC   PO421756  19.129  41.862   9.663
 1353POPC   GL121757  18.990  41.585   9.265
 1353POPC   GL221758  18.770  41.844   9.161
 1353POPC   C1A21759  18.864  41.410   8.837
 1353POPC   D2A21760  18.596  41.245   8.478
 1353POPC   C3A21761  18.732  41.344   8.054
 1353POPC   C4A21762  19.103  41.313   7.792
 1353POPC   C1B21763  18.840  41.925   8.759
 1353POPC   C2B21764  18.836  41.716   8.393
 1353POPC   C3B21765  19.084  41.776   8.041
 1353POPC   C4B21766  18.989  41.805   7.599
 1354POPC   NC321767  29.114  19.624   9.522
 1354POPC   PO421768  29.710  20.049   9.510
 1354POPC   GL121769  29.345  19.953   9.184
 1354POPC   GL221770  29.297  19.610   9.065
 1354POPC   C1A21771  29.119  19.939   8.741
 1354POPC   D2A21772  28.882  19.636   8.442
 1354POPC   C3A21773  28.953  19.726   7.993
 1354POPC   C4A21774  29.259  19.998   7.780
 1354POPC   C1B21775  29.358  19.410   8.694
 1354POPC   C2B21776  29.587  19.299   8.330
 1354POPC   C3B21777  29.439  19.495   7.955
 1354POPC   C4B21778  29.187  19.490   7.595
 1355POPC   NC321779  22.279  33.208   9.462
 1355POPC   PO421780  21.640  33.130   9.681
 1355POPC   GL121781  21.831  33.101   9.228
 1355POPC   GL221782  22.117  32.847   9.146
 1355POPC   C1A21783  22.039  33.238   8.797
 1355POPC   D2A21784  21.973  33.344   8.345
 1355POPC   C3A21785  22.230  33.312   7.943
 1355POPC   C4A21786  22.067  33.388   7.530
 1355POPC   C1B21787  22.296  32.792   8.726
 1355POPC   C2B21788  22.328  32.929   8.296
 1355POPC   C3B21789  22.281  32.731   7.907
 1355POPC   C4B21790  22.226  32.911   7.509
 1356POPC   NC321791  11.061  20.573   9.425
 1356POPC   PO421792  11.618  20.921   9.392
 1356POPC   GL121793  11.333  20.779   9.028
 1356POPC   GL221794  10.967  20.899   9.027
 1356POPC   C1A21795  11.287  20.538   8.640
 1356POPC   D2A21796  11.267  20.652   8.187
 1356POPC   C3A21797  11.532  20.469   7.887
 1356POPC   C4A21798  11.128  20.333   7.746
 1356POPC   C1B21799  10.935  20.901   8.554
 1356POPC   C2B21800  11.018  21.096   8.160
 1356POPC   C3B21801  11.082  20.875   7.750
 1356POPC   C4B21802  11.432  20.844   7.475
 1357POPC   NC321803  26.959   6.072   9.570
 1357POPC   PO421804  26.289   6.040   9.456
 1357POPC   GL121805  26.682   6.061   9.142
 1357POPC   GL221806  27.091   6.068   9.073
 1357POPC   C1A21807  26.761   6.226   8.740
 1357POPC   D2A21808  26.782   5.988   8.387
 1357POPC   C3A21809  26.580   6.148   8.075
 1357POPC   C4A21810  26.333   5.858   7.807
 1357POPC   C1B21811  27.239   5.983   8.610
 1357POPC   C2B21812  27.238   5.970   8.125
 1357POPC   C3B21813  27.016   5.876   7.706
 1357POPC   C4B21814  27.031   5.932   7.217
 1358POPC   NC321815  27.602  16.285   9.595
 1358POPC   PO421816  27.870  15.618   9.551
 1358POPC   GL121817  27.766  15.934   9.237
 1358POPC   GL221818  27.405  15.960   9.172
 1358POPC   C1A21819  27.706  16.015   8.779
 1358POPC   D2A21820  27.822  15.811   8.433
 1358POPC   C3A21821  27.673  15.908   8.063
 1358POPC   C4A21822  27.657  15.691   7.728
 1358POPC   C1B21823  27.382  16.365   8.947
 1358POPC   C2B21824  27.491  16.459   8.513
 1358POPC   C3B21825  27.422  16.366   8.076
 1358POPC   C4B21826  27.310  16.061   7.738
 1359POPC   NC321827  15.641   2.192   9.526
 1359POPC   PO421828  15.221   1.728   9.497
 1359POPC   GL121829  14.984   1.884   9.123
 1359POPC   GL221830  14.774   1.633   9.040
 1359POPC   C1A21831  15.031   1.995   8.647
 1359POPC   D2A21832  15.392   1.827   8.343
 1359POPC   C3A21833  15.432   2.093   7.961
 1359POPC   C4A21834  15.146   2.195   7.566
 1359POPC   C1B21835  15.128   1.531   8.775
 1359POPC   C2B21836  14.996   1.529   8.404
 1359POPC   C3B21837  14.930   1.863   8.131
 1359POPC   C4B21838  15.114   1.726   7.787
 1360POPC   NC321839  17.026  37.188   9.399
 1360POPC   PO421840  16.398  37.272   9.452
 1360POPC   GL121841  16.615  37.104   9.108
 1360POPC   GL221842  16.609  36.752   9.175
 1360POPC   C1A21843  16.858  37.166   8.699
 1360POPC   D2A21844  17.023  37.243   8.285
 1360POPC   C3A21845  16.823  37.019   7.971
 1360POPC   C4A21846  17.077  36.787   7.691
 1360POPC   C1B21847  16.600  36.744   8.738
 1360POPC   C2B21848  16.803  36.669   8.349
 1360POPC   C3B21849  16.709  36.511   7.933
 1360POPC   C4B21850  16.351  36.551   7.658
 1361POPC   NC321851  30.870  10.469   9.709
 1361POPC   PO421852  30.198  10.480   9.719
 1361POPC   GL121853  30.324  10.605   9.277
 1361POPC   GL221854  30.706  10.634   9.228
 1361POPC   C1A21855  30.265  10.602   8.801
 1361POPC   D2A21856  30.324  10.702   8.322
 1361POPC   C3A21857  30.586  10.487   7.993
 1361POPC   C4A21858  30.579  10.038   7.863
 1361POPC   C1B21859  30.787  10.642   8.765
 1361POPC   C2B21860  30.918  10.682   8.317
 1361POPC   C3B21861  31.088  10.514   7.918
 1361POPC   C4B21862  30.938  10.259   7.582
 1362POPC   NC321863  26.912  28.374   9.900
 1362POPC   PO421864  27.410  28.228   9.702
 1362POPC   GL121865  27.338  28.177   9.231
 1362POPC   GL221866  27.226  28.519   9.142
 1362POPC   C1A21867  27.155  28.133   8.771
 1362POPC   D2A21868  26.946  28.275   8.352
 1362POPC   C3A21869  26.884  28.096   7.923
 1362POPC   C4A21870  26.555  28.186   7.614
 1362POPC   C1B21871  27.098  28.644   8.715
 1362POPC   C2B21872  26.877  28.790   8.337
 1362POPC   C3B21873  26.843  28.608   7.914
 1362POPC   C4B21874  27.196  28.434   7.668
 1363POPC   NC321875   4.356  24.203   9.753
 1363POPC   PO421876   4.623  24.707   9.373
 1363POPC   GL121877   4.320  24.484   9.145
 1363POPC   GL221878   4.269  24.144   9.218
 1363POPC   C1A21879   4.442  24.423   8.739
 1363POPC   D2A21880   4.346  24.676   8.387
 1363POPC   C3A21881   4.480  24.473   8.064
 1363POPC   C4A21882   4.416  24.574   7.670
 1363POPC   C1B21883   4.093  24.036   8.847
 1363POPC   C2B21884   4.036  24.253   8.450
 1363POPC   C3B21885   3.854  24.297   8.041
 1363POPC   C4B21886   3.878  24.100   7.663
 1364POPC   NC321887  41.761  42.192   9.507
 1364POPC   PO421888  41.203  42.590   9.414
 1364POPC   GL121889  41.463  42.387   9.114
 1364POPC   GL221890  41.846  42.405   9.048
 1364POPC   C1A21891  41.460  42.498   8.695
 1364POPC   D2A21892  41.369  42.302   8.325
 1364POPC   C3A21893  41.480  42.469   7.943
 1364POPC   C4A21894  41.343  42.342   7.547
 1364POPC   C1B21895  41.773  42.085   8.694
 1364POPC   C2B21896  41.847  42.030   8.211
 1364POPC   C3B21897  41.759  42.067   7.731
 1364POPC   C4B21898  41.758  42.259   7.277
 1365POPC   NC321899  25.465  14.397   9.589
 1365POPC   PO421900  24.763  14.400   9.648
 1365POPC   GL121901  25.089  14.247   9.311
 1365POPC   GL221902  25.144  14.556   9.109
 1365POPC   C1A21903  25.167  14.064   8.880
 1365POPC   D2A21904  25.173  14.359   8.515
 1365POPC   C3A21905  25.125  14.242   8.065
 1365POPC   C4A21906  25.450  14.180   7.765
 1365POPC   C1B21907  25.096  14.881   8.763
 1365POPC   C2B21908  25.296  15.062   8.405
 1365POPC   C3B21909  25.318  14.723   8.153
 1365POPC   C4B21910  25.194  14.638   7.765
 1366POPC   NC321911  20.939  32.914   9.960
 1366POPC   PO421912  21.087  33.317   9.436
 1366POPC   GL121913  21.352  33.264   9.090
 1366POPC   GL221914  21.089  33.024   9.000
 1366POPC   C1A21915  21.514  33.187   8.655
 1366POPC   D2A21916  21.730  32.881   8.372
 1366POPC   C3A21917  21.853  33.006   7.954
 1366POPC   C4A21918  21.720  32.981   7.520
 1366POPC   C1B21919  21.004  32.993   8.593
 1366POPC   C2B21920  21.219  32.869   8.228
 1366POPC   C3B21921  21.374  33.114   7.877
 1366POPC   C4B21922  21.211  33.159   7.465
 1367POPC   NC321923  27.167   8.652   9.918
 1367POPC   PO421924  27.419   8.143   9.516
 1367POPC   GL121925  27.630   8.302   9.141
 1367POPC   GL221926  27.654   7.968   9.056
 1367POPC   C1A21927  27.684   8.399   8.674
 1367POPC   D2A21928  27.845   8.228   8.258
 1367POPC   C3A21929  27.518   8.127   8.014
 1367POPC   C4A21930  27.403   8.518   7.819
 1367POPC   C1B21931  27.536   7.908   8.621
 1367POPC   C2B21932  27.828   7.719   8.345
 1367POPC   C3B21933  27.913   7.773   7.925
 1367POPC   C4B21934  27.679   7.849   7.579
 1368POPC   NC321935  14.204   0.135   9.457
 1368POPC   PO421936  14.830   0.372   9.470
 1368POPC   GL121937  14.560   0.494   9.151
 1368POPC   GL221938  14.810   0.760   9.095
 1368POPC   C1A21939  14.244   0.483   8.827
 1368POPC   D2A21940  14.318   0.235   8.477
 1368POPC   C3A21941  14.253   0.410   8.101
 1368POPC   C4A21942  14.410   0.332   7.767
 1368POPC   C1B21943  14.654   0.744   8.682
 1368POPC   C2B21944  14.744   0.538   8.286
 1368POPC   C3B21945  14.732   0.692   7.877
 1368POPC   C4B21946  14.718   0.825   7.441
 1369POPC   NC321947   2.695  37.002   9.831
 1369POPC   PO421948   2.089  36.909   9.554
 1369POPC   GL121949   1.953  36.990   9.145
 1369POPC   GL221950   1.877  36.669   9.100
 1369POPC   C1A21951   1.867  36.965   8.682
 1369POPC   D2A21952   1.891  37.138   8.250
 1369POPC   C3A21953   2.005  36.899   7.906
 1369POPC   C4A21954   1.797  36.840   7.535
 1369POPC   C1B21955   2.136  36.518   8.752
 1369POPC   C2B21956   2.127  36.630   8.309
 1369POPC   C3B21957   2.236  36.455   7.864
 1369POPC   C4B21958   2.279  36.566   7.405
 1370POPC   NC321959   9.286  10.396   9.577
 1370POPC   PO421960   8.707  10.712   9.562
 1370POPC   GL121961   8.799  10.445   9.209
 1370POPC   GL221962   9.134  10.486   9.113
 1370POPC   C1A21963   8.797  10.431   8.736
 1370POPC   D2A21964   8.932  10.218   8.343
 1370POPC   C3A21965   8.809  10.515   8.026
 1370POPC   C4A21966   9.019  10.653   7.673
 1370POPC   C1B21967   9.275  10.253   8.745
 1370POPC   C2B21968   9.479  10.213   8.337
 1370POPC   C3B21969   9.278  10.262   7.924
 1370POPC   C4B21970   9.288  10.248   7.473
 1371POPC   NC321971   2.326   4.069   9.473
 1371POPC   PO421972   1.909   4.573   9.333
 1371POPC   GL121973   1.987   4.173   9.105
 1371POPC   GL221974   2.175   3.843   9.036
 1371POPC   C1A21975   1.924   4.240   8.709
 1371POPC   D2A21976   2.032   4.604   8.478
 1371POPC   C3A21977   1.902   4.460   8.089
 1371POPC   C4A21978   1.920   4.205   7.726
 1371POPC   C1B21979   1.766   3.766   8.852
 1371POPC   C2B21980   1.550   3.968   8.530
 1371POPC   C3B21981   1.684   4.003   8.146
 1371POPC   C4B21982   1.602   3.819   7.759
 1372POPC   NC321983  44.258   4.253   9.526
 1372POPC   PO421984  43.584   4.430   9.699
 1372POPC   GL121985  43.856   4.495   9.258
 1372POPC   GL221986  44.049   4.216   9.061
 1372POPC   C1A21987  44.064   4.654   8.832
 1372POPC   D2A21988  44.202   4.405   8.478
 1372POPC   C3A21989  44.132   4.513   8.043
 1372POPC   C4A21990  44.005   4.523   7.620
 1372POPC   C1B21991  44.044   3.933   8.665
 1372POPC   C2B21992  44.081   3.970   8.219
 1372POPC   C3B21993  44.093   4.048   7.793
 1372POPC   C4B21994  43.781   4.006   7.477
 1373POPC   NC321995  22.718  39.686   9.803
 1373POPC   PO421996  22.160  39.957   9.482
 1373POPC   GL121997  22.293  40.169   9.155
 1373POPC   GL221998  22.515  40.463   9.298
 1373POPC   C1A21999  22.284  39.989   8.729
 1373POPC   D2A22000  22.093  39.792   8.330
 1373POPC   C3A22001  22.129  39.922   7.876
 1373POPC   C4A22002  21.942  40.143   7.505
 1373POPC   C1B22003  22.541  40.462   8.845
 1373POPC   C2B22004  22.604  40.242   8.427
 1373POPC   C3B22005  22.530  40.181   8.002
 1373POPC   C4B22006  22.367  40.442   7.658
 1374POPC   NC322007  11.901  37.062   9.324
 1374POPC   PO422008  12.091  37.637   9.818
 1374POPC   GL122009  12.150  37.656   9.322
 1374POPC   GL222010  11.909  37.524   9.147
 1374POPC   C1A22011  12.379  37.546   8.916
 1374POPC   D2A22012  12.385  37.417   8.477
 1374POPC   C3A22013  12.340  37.599   8.065
 1374POPC   C4A22014  12.083  37.406   7.794
 1374POPC   C1B22015  11.912  37.681   8.739
 1374POPC   C2B22016  11.867  37.586   8.309
 1374POPC   C3B22017  11.704  37.735   7.947
 1374POPC   C4B22018  11.584  37.382   7.756
 1375POPC   NC322019  16.052  14.928   9.710
 1375POPC   PO422020  15.948  15.559   9.512
 1375POPC   GL122021  15.891  15.219   9.208
 1375POPC   GL222022  16.207  15.044   9.233
 1375POPC   C1A22023  15.731  15.020   8.808
 1375POPC   D2A22024  15.915  15.013   8.406
 1375POPC   C3A22025  15.757  15.072   7.990
 1375POPC   C4A22026  15.943  15.434   7.831
 1375POPC   C1B22027  16.280  15.127   8.792
 1375POPC   C2B22028  16.399  14.898   8.393
 1375POPC   C3B22029  16.263  15.046   7.962
 1375POPC   C4B22030  16.370  15.301   7.573
 1376POPC   NC322031  16.743  25.290   9.620
 1376POPC   PO422032  17.126  24.864   9.405
 1376POPC   GL122033  17.020  25.140   9.064
 1376POPC   GL222034  16.858  25.456   9.142
 1376POPC   C1A22035  16.886  25.181   8.626
 1376POPC   D2A22036  16.620  24.926   8.343
 1376POPC   C3A22037  16.664  24.956   7.889
 1376POPC   C4A22038  16.928  25.141   7.581
 1376POPC   C1B22039  16.698  25.645   8.743
 1376POPC   C2B22040  16.539  25.456   8.323
 1376POPC   C3B22041  16.496  25.442   7.858
 1376POPC   C4B22042  16.430  25.242   7.443
 1377POPC   NC322043  43.872   9.724   9.569
 1377POPC   PO422044  44.205  10.279   9.689
 1377POPC   GL122045  43.959  10.029   9.188
 1377POPC   GL222046  43.940   9.637   9.084
 1377POPC   C1A22047  44.038   9.927   8.687
 1377POPC   D2A22048  44.049   9.702   8.277
 1377POPC   C3A22049  43.915   9.959   7.930
 1377POPC   C4A22050  44.034   9.897   7.490
 1377POPC   C1B22051  43.587   9.643   8.778
 1377POPC   C2B22052  43.542   9.777   8.345
 1377POPC   C3B22053  43.641   9.546   7.936
 1377POPC   C4B22054  43.621   9.508   7.471
 1378POPC   NC322055  27.379  26.944   9.438
 1378POPC   PO422056  28.033  26.717   9.560
 1378POPC   GL122057  27.842  26.886   9.227
 1378POPC   GL222058  27.653  26.598   9.143
 1378POPC   C1A22059  27.889  26.935   8.807
 1378POPC   D2A22060  27.747  26.790   8.410
 1378POPC   C3A22061  27.964  26.975   8.061
 1378POPC   C4A22062  27.558  27.055   7.915
 1378POPC   C1B22063  27.317  26.477   8.886
 1378POPC   C2B22064  27.301  26.465   8.481
 1378POPC   C3B22065  27.385  26.553   8.052
 1378POPC   C4B22066  27.753  26.555   7.885
 1379POPC   NC322067  15.826  15.903   9.797
 1379POPC   PO422068  16.181  16.351   9.464
 1379POPC   GL122069  16.100  16.037   9.141
 1379POPC   GL222070  15.767  15.849   9.129
 1379POPC   C1A22071  16.009  15.999   8.698
 1379POPC   D2A22072  16.143  15.873   8.296
 1379POPC   C3A22073  15.989  15.951   7.863
 1379POPC   C4A22074  16.132  15.741   7.471
 1379POPC   C1B22075  15.884  15.518   8.780
 1379POPC   C2B22076  15.755  15.484   8.333
 1379POPC   C3B22077  15.565  15.722   8.008
 1379POPC   C4B22078  15.608  15.848   7.544
 1380POPC   NC322079  12.366  11.652   9.502
 1380POPC   PO422080  11.847  11.398   9.809
 1380POPC   GL122081  11.954  11.365   9.256
 1380POPC   GL222082  12.191  11.597   9.048
 1380POPC   C1A22083  12.037  11.279   8.724
 1380POPC   D2A22084  12.011  11.414   8.268
 1380POPC   C3A22085  11.979  11.164   7.887
 1380POPC   C4A22086  12.196  11.225   7.490
 1380POPC   C1B22087  12.511  11.561   8.705
 1380POPC   C2B22088  12.546  11.557   8.254
 1380POPC   C3B22089  12.314  11.565   7.873
 1380POPC   C4B22090  12.372  11.690   7.392
 1381POPC   NC322091  27.960  18.158   9.578
 1381POPC   PO422092  27.448  18.182   9.953
 1381POPC   GL122093  27.486  18.183   9.381
 1381POPC   GL222094  27.768  18.402   9.184
 1381POPC   C1A22095  27.406  18.244   8.854
 1381POPC   D2A22096  27.334  18.464   8.421
 1381POPC   C3A22097  27.486  18.290   7.997
 1381POPC   C4A22098  27.273  18.441   7.591
 1381POPC   C1B22099  27.801  18.566   8.753
 1381POPC   C2B22100  27.840  18.398   8.381
 1381POPC   C3B22101  27.962  18.533   7.998
 1381POPC   C4B22102  27.769  18.522   7.605
 1382POPC   NC322103  30.317  27.316   9.534
 1382POPC   PO422104  29.873  27.886   9.652
 1382POPC   GL122105  29.842  27.744   9.144
 1382POPC   GL222106  30.063  27.460   9.079
 1382POPC   C1A22107  29.730  27.565   8.709
 1382POPC   D2A22108  29.521  27.543   8.280
 1382POPC   C3A22109  29.716  27.428   7.893
 1382POPC   C4A22110  29.912  27.568   7.500
 1382POPC   C1B22111  30.313  27.433   8.695
 1382POPC   C2B22112  30.421  27.301   8.266
 1382POPC   C3B22113  30.226  27.478   7.908
 1382POPC   C4B22114  30.387  27.734   7.577
 1383POPC   NC322115  29.407  28.206   9.907
 1383POPC   PO422116  29.789  28.607   9.478
 1383POPC   GL122117  29.528  28.404   9.093
 1383POPC   GL222118  29.405  28.057   9.192
 1383POPC   C1A22119  29.634  28.085   8.751
 1383POPC   D2A22120  29.449  28.017   8.362
 1383POPC   C3A22121  29.493  28.305   8.041
 1383POPC   C4A22122  29.250  28.484   7.736
 1383POPC   C1B22123  29.121  28.032   8.798
 1383POPC   C2B22124  29.000  28.258   8.396
 1383POPC   C3B22125  28.886  28.180   7.962
 1383POPC   C4B22126  28.564  28.238   7.615
 1384POPC   NC322127  15.561  12.083   9.635
 1384POPC   PO422128  14.907  12.064   9.472
 1384POPC   GL122129  15.250  12.101   9.203
 1384POPC   GL222130  15.521  12.359   9.189
 1384POPC   C1A22131  15.168  12.048   8.790
 1384POPC   D2A22132  15.027  11.890   8.436
 1384POPC   C3A22133  15.217  11.904   8.023
 1384POPC   C4A22134  15.131  12.029   7.606
 1384POPC   C1B22135  15.664  12.040   8.874
 1384POPC   C2B22136  15.571  12.009   8.450
 1384POPC   C3B22137  15.636  12.295   8.128
 1384POPC   C4B22138  15.606  12.184   7.725
 1385POPC   NC322139  37.005  43.048   9.764
 1385POPC   PO422140  36.464  43.446   9.524
 1385POPC   GL122141  36.846  43.340   9.263
 1385POPC   GL222142  36.899  42.991   9.238
 1385POPC   C1A22143  37.034  43.296   8.836
 1385POPC   D2A22144  36.869  43.180   8.422
 1385POPC   C3A22145  37.129  43.304   8.101
 1385POPC   C4A22146  37.155  43.395   7.679
 1385POPC   C1B22147  36.768  42.867   8.834
 1385POPC   C2B22148  36.579  42.641   8.516
 1385POPC   C3B22149  36.573  42.809   8.093
 1385POPC   C4B22150  36.915  42.927   7.833
 1386POPC   NC322151  14.752   1.650   9.538
 1386POPC   PO422152  14.323   2.116   9.704
 1386POPC   GL122153  14.392   1.913   9.271
 1386POPC   GL222154  14.109   1.723   9.099
 1386POPC   C1A22155  14.449   1.981   8.822
 1386POPC   D2A22156  14.173   2.062   8.468
 1386POPC   C3A22157  14.405   2.122   8.061
 1386POPC   C4A22158  14.673   1.975   7.700
 1386POPC   C1B22159  14.146   1.559   8.690
 1386POPC   C2B22160  14.008   1.645   8.237
 1386POPC   C3B22161  14.086   1.806   7.822
 1386POPC   C4B22162  14.030   1.827   7.379
 1387POPC   NC322163  28.170   5.817   9.672
 1387POPC   PO422164  28.767   6.033   9.642
 1387POPC   GL122165  28.481   5.896   9.258
 1387POPC   GL222166  28.131   6.016   9.196
 1387POPC   C1A22167  28.410   5.822   8.787
 1387POPC   D2A22168  28.190   5.626   8.431
 1387POPC   C3A22169  28.325   5.590   7.988
 1387POPC   C4A22170  28.552   5.834   7.677
 1387POPC   C1B22171  28.124   6.282   8.809
 1387POPC   C2B22172  28.194   6.183   8.374
 1387POPC   C3B22173  28.129   6.106   7.955
 1387POPC   C4B22174  27.703   6.096   7.801
 1388POPC   NC322175  15.359  22.362   9.432
 1388POPC   PO422176  14.875  21.951   9.652
 1388POPC   GL122177  14.926  21.932   9.184
 1388POPC   GL222178  14.747  22.237   9.103
 1388POPC   C1A22179  15.117  22.099   8.768
 1388POPC   D2A22180  15.145  22.250   8.365
 1388POPC   C3A22181  15.472  22.206   8.089
 1388POPC   C4A22182  15.414  22.049   7.707
 1388POPC   C1B22183  14.916  22.559   8.784
 1388POPC   C2B22184  15.096  22.733   8.368
 1388POPC   C3B22185  14.875  22.537   8.024
 1388POPC   C4B22186  14.926  22.222   7.716
 1389POPC   NC322187  21.031  43.431   9.635
 1389POPC   PO422188  20.568  43.970   9.572
 1389POPC   GL122189  20.655  43.812   9.179
 1389POPC   GL222190  20.406  43.656   9.083
 1389POPC   C1A22191  20.692  43.901   8.734
 1389POPC   D2A22192  20.983  43.990   8.393
 1389POPC   C3A22193  20.802  44.076   7.987
 1389POPC   C4A22194  21.047  44.121   7.577
 1389POPC   C1B22195  20.245  43.620   8.723
 1389POPC   C2B22196  20.257  43.837   8.363
 1389POPC   C3B22197  20.396  43.742   7.981
 1389POPC   C4B22198  20.288  43.450   7.705
 1390POPC   NC322199  18.188   2.066   9.521
 1390POPC   PO422200  18.791   1.728   9.594
 1390POPC   GL122201  18.588   1.861   9.185
 1390POPC   GL222202  18.275   2.016   9.043
 1390POPC   C1A22203  18.516   1.670   8.773
 1390POPC   D2A22204  18.185   1.713   8.490
 1390POPC   C3A22205  18.224   1.726   8.044
 1390POPC   C4A22206  18.505   1.820   7.719
 1390POPC   C1B22207  18.249   2.198   8.656
 1390POPC   C2B22208  18.266   2.372   8.256
 1390POPC   C3B22209  18.161   2.216   7.863
 1390POPC   C4B22210  18.059   2.409   7.491
 1391POPC   NC322211  11.723  38.484   9.484
 1391POPC   PO422212  12.312  38.849   9.485
 1391POPC   GL122213  12.161  38.537   9.193
 1391POPC   GL222214  12.034  38.168   9.227
 1391POPC   C1A22215  12.201  38.571   8.783
 1391POPC   D2A22216  12.050  38.432   8.409
 1391POPC   C3A22217  12.281  38.560   8.090
 1391POPC   C4A22218  11.995  38.542   7.777
 1391POPC   C1B22219  12.271  38.060   8.854
 1391POPC   C2B22220  12.207  37.948   8.428
 1391POPC   C3B22221  12.112  38.057   8.009
 1391POPC   C4B22222  11.874  38.090   7.598
 1392POPC   NC322223  15.674  18.294   9.553
 1392POPC   PO422224  16.341  18.370   9.612
 1392POPC   GL122225  16.050  18.326   9.214
 1392POPC   GL222226  15.750  18.575   9.127
 1392POPC   C1A22227  15.963  18.152   8.789
 1392POPC   D2A22228  16.150  18.110   8.346
 1392POPC   C3A22229  16.061  18.459   8.040
 1392POPC   C4A22230  16.002  18.445   7.581
 1392POPC   C1B22231  15.694  18.582   8.670
 1392POPC   C2B22232  15.639  18.226   8.377
 1392POPC   C3B22233  15.626  18.207   7.939
 1392POPC   C4B22234  15.506  18.574   7.710
 1393POPC   NC322235   0.621   5.048   9.534
 1393POPC   PO422236  44.903   5.220   9.511
 1393POPC   GL122237   0.231   5.211   9.241
 1393POPC   GL222238   0.210   4.878   9.086
 1393POPC   C1A22239   0.534   5.247   8.885
 1393POPC   D2A22240   0.537   5.022   8.486
 1393POPC   C3A22241   0.556   5.171   8.047
 1393POPC   C4A22242   0.562   5.404   7.648
 1393POPC   C1B22243   0.648   4.743   8.928
 1393POPC   C2B22244   0.887   4.623   8.549
 1393POPC   C3B22245   0.782   4.706   8.122
 1393POPC   C4B22246   0.742   4.715   7.678
 1394POPC   NC322247  34.987  26.042   9.777
 1394POPC   PO422248  34.475  25.820   9.374
 1394POPC   GL122249  34.502  26.105   9.078
 1394POPC   GL222250  34.217  25.917   8.922
 1394POPC   C1A22251  34.765  26.193   8.729
 1394POPC   D2A22252  34.684  26.037   8.320
 1394POPC   C3A22253  34.480  25.892   7.938
 1394POPC   C4A22254  34.768  25.948   7.577
 1394POPC   C1B22255  34.247  26.242   8.593
 1394POPC   C2B22256  34.296  26.315   8.140
 1394POPC   C3B22257  34.470  26.346   7.706
 1394POPC   C4B22258  34.340  26.117   7.290
 1395POPC   NC322259  13.817  28.183   9.568
 1395POPC   PO422260  13.270  28.305   9.599
 1395POPC   GL122261  13.488  28.223   9.160
 1395POPC   GL222262  13.418  28.512   8.956
 1395POPC   C1A22263  13.726  28.098   8.730
 1395POPC   D2A22264  13.788  27.978   8.248
 1395POPC   C3A22265  13.522  28.043   7.848
 1395POPC   C4A22266  13.656  28.311   7.485
 1395POPC   C1B22267  13.584  28.527   8.513
 1395POPC   C2B22268  13.697  28.451   8.074
 1395POPC   C3B22269  13.737  28.738   7.748
 1395POPC   C4B22270  13.989  29.020   7.513
 1396POPC   NC322271  42.677  14.467   9.551
 1396POPC   PO422272  43.309  14.362   9.555
 1396POPC   GL122273  43.086  14.315   9.157
 1396POPC   GL222274  42.817  14.553   9.057
 1396POPC   C1A22275  43.180  14.402   8.711
 1396POPC   D2A22276  43.083  14.196   8.318
 1396POPC   C3A22277  43.224  14.268   7.887
 1396POPC   C4A22278  43.550  14.210   7.558
 1396POPC   C1B22279  42.738  14.157   8.774
 1396POPC   C2B22280  42.646  13.956   8.352
 1396POPC   C3B22281  42.689  14.213   7.960
 1396POPC   C4B22282  42.672  14.630   7.727
 1397POPC   NC322283   8.865   9.411   9.350
 1397POPC   PO422284   8.962  10.032   9.619
 1397POPC   GL122285   9.060   9.977   9.188
 1397POPC   GL222286   9.241   9.690   9.175
 1397POPC   C1A22287   8.889   9.879   8.769
 1397POPC   D2A22288   8.749   9.590   8.413
 1397POPC   C3A22289   8.869   9.737   8.024
 1397POPC   C4A22290   8.831  10.083   7.760
 1397POPC   C1B22291   9.398   9.765   8.799
 1397POPC   C2B22292   9.235   9.770   8.408
 1397POPC   C3B22293   9.379   9.778   8.015
 1397POPC   C4B22294   9.202   9.773   7.603
 1398POPC   NC322295  44.881   4.728   9.501
 1398POPC   PO422296  44.665   4.110   9.697
 1398POPC   GL122297  44.643   4.235   9.216
 1398POPC   GL222298  44.841   4.492   9.057
 1398POPC   C1A22299  44.522   4.150   8.786
 1398POPC   D2A22300  44.702   4.300   8.397
 1398POPC   C3A22301  44.566   4.210   7.989
 1398POPC   C4A22302  44.906   4.100   7.661
 1398POPC   C1B22303  44.584   4.669   8.726
 1398POPC   C2B22304  44.484   4.802   8.288
 1398POPC   C3B22305  44.573   4.719   7.826
 1398POPC   C4B22306  44.425   4.762   7.382
 1399POPC   NC322307  30.919   3.646   9.547
 1399POPC   PO422308  30.512   3.156   9.568
 1399POPC   GL122309  30.562   3.474   9.181
 1399POPC   GL222310  30.782   3.788   9.090
 1399POPC   C1A22311  30.650   3.428   8.709
 1399POPC   D2A22312  30.827   3.248   8.296
 1399POPC   C3A22313  30.679   3.356   7.878
 1399POPC   C4A22314  30.659   3.227   7.430
 1399POPC   C1B22315  31.019   3.767   8.717
 1399POPC   C2B22316  30.857   3.767   8.302
 1399POPC   C3B22317  30.734   3.901   7.913
 1399POPC   C4B22318  30.807   3.707   7.526
 1400POPC   NC322319  33.329  26.992   9.405
 1400POPC   PO422320  33.774  26.503   9.432
 1400POPC   GL122321  33.597  26.699   9.081
 1400POPC   GL222322  33.767  27.008   9.114
 1400POPC   C1A22323  33.634  26.816   8.627
 1400POPC   D2A22324  33.866  26.557   8.324
 1400POPC   C3A22325  33.794  26.523   7.865
 1400POPC   C4A22326  34.043  26.525   7.481
 1400POPC   C1B22327  33.986  27.217   8.793
 1400POPC   C2B22328  33.809  27.258   8.401
 1400POPC   C3B22329  33.768  27.027   8.049
 1400POPC   C4B22330  33.924  27.011   7.660
 1401POPC   NC322331   1.901  25.372   9.526
 1401POPC   PO422332   1.240  25.240   9.630
 1401POPC   GL122333   1.570  25.169   9.215
 1401POPC   GL222334   1.748  25.533   9.084
 1401POPC   C1A22335   1.823  25.090   8.809
 1401POPC   D2A22336   2.090  25.005   8.424
 1401POPC   C3A22337   1.970  24.948   7.971
 1401POPC   C4A22338   1.735  25.273   7.730
 1401POPC   C1B22339   2.161  25.465   8.895
 1401POPC   C2B22340   2.221  25.507   8.473
 1401POPC   C3B22341   2.105  25.454   8.072
 1401POPC   C4B22342   2.325  25.333   7.739
 1402POPC   NC322343  11.361   0.661   9.340
 1402POPC   PO422344  11.436  44.973   9.442
 1402POPC   GL122345  11.199   0.197   9.085
 1402POPC   GL222346  10.925   0.461   9.095
 1402POPC   C1A22347  11.283   0.319   8.642
 1402POPC   D2A22348  11.175   0.583   8.282
 1402POPC   C3A22349  11.424   0.554   7.903
 1402POPC   C4A22350  11.419   0.513   7.465
 1402POPC   C1B22351  10.965   0.780   8.744
 1402POPC   C2B22352  10.738   0.851   8.319
 1402POPC   C3B22353  10.942   0.841   7.880
 1402POPC   C4B22354  10.969   0.725   7.400
 1403POPC   NC322355  10.013  39.778   9.593
 1403POPC   PO422356   9.593  40.207   9.467
 1403POPC   GL122357   9.621  39.938   9.159
 1403POPC   GL222358   9.965  39.957   9.115
 1403POPC   C1A22359   9.632  40.032   8.730
 1403POPC   D2A22360   9.915  40.133   8.419
 1403POPC   C3A22361   9.749  40.049   8.026
 1403POPC   C4A22362   9.862  40.169   7.628
 1403POPC   C1B22363  10.044  39.613   8.838
 1403POPC   C2B22364   9.867  39.605   8.436
 1403POPC   C3B22365  10.032  39.614   8.031
 1403POPC   C4B22366   9.788  39.649   7.648
 1404POPC   NC322367   2.942  40.728   9.337
 1404POPC   PO422368   2.477  40.448   9.688
 1404POPC   GL122369   2.434  40.561   9.239
 1404POPC   GL222370   2.373  40.223   9.102
 1404POPC   C1A22371   2.527  40.853   8.847
 1404POPC   D2A22372   2.633  41.099   8.464
 1404POPC   C3A22373   2.602  40.891   8.076
 1404POPC   C4A22374   2.868  40.785   7.698
 1404POPC   C1B22375   2.657  40.351   8.787
 1404POPC   C2B22376   2.737  40.496   8.376
 1404POPC   C3B22377   2.516  40.395   7.993
 1404POPC   C4B22378   2.702  40.323   7.591
 1405POPC   NC322379  39.728  14.095   9.570
 1405POPC   PO422380  40.232  14.326   9.376
 1405POPC   GL122381  39.931  14.093   9.074
 1405POPC   GL222382  39.565  13.901   9.120
 1405POPC   C1A22383  40.099  14.111   8.626
 1405POPC   D2A22384  40.279  14.359   8.271
 1405POPC   C3A22385  40.387  14.276   7.825
 1405POPC   C4A22386  40.305  14.462   7.400
 1405POPC   C1B22387  39.568  14.168   8.736
 1405POPC   C2B22388  39.712  14.105   8.293
 1405POPC   C3B22389  39.882  14.345   7.926
 1405POPC   C4B22390  39.825  14.316   7.461
 1406POPC   NC322391   4.510  21.520   9.467
 1406POPC   PO422392   4.015  21.184   9.267
 1406POPC   GL122393   4.259  21.407   9.034
 1406POPC   GL222394   4.172  21.738   9.147
 1406POPC   C1A22395   4.150  21.372   8.625
 1406POPC   D2A22396   3.960  21.108   8.310
 1406POPC   C3A22397   4.160  21.200   7.930
 1406POPC   C4A22398   4.402  21.052   7.567
 1406POPC   C1B22399   4.475  21.807   8.795
 1406POPC   C2B22400   4.699  21.692   8.417
 1406POPC   C3B22401   4.464  21.653   8.022
 1406POPC   C4B22402   4.278  21.572   7.609
 1407POPC   NC322403  41.618   6.619   9.551
 1407POPC   PO422404  41.045   6.409   9.777
 1407POPC   GL122405  41.089   6.467   9.288
 1407POPC   GL222406  41.280   6.770   9.183
 1407POPC   C1A22407  41.212   6.392   8.840
 1407POPC   D2A22408  41.385   6.692   8.544
 1407POPC   C3A22409  41.312   6.658   8.140
 1407POPC   C4A22410  41.534   6.512   7.791
 1407POPC   C1B22411  41.655   6.872   8.930
 1407POPC   C2B22412  41.899   6.834   8.539
 1407POPC   C3B22413  41.804   6.800   8.106
 1407POPC   C4B22414  41.851   6.925   7.691
 1408POPC   NC322415  34.283  30.360   9.301
 1408POPC   PO422416  34.852  30.744   9.434
 1408POPC   GL122417  34.914  30.763   9.022
 1408POPC   GL222418  34.560  30.640   8.947
 1408POPC   C1A22419  34.761  31.010   8.674
 1408POPC   D2A22420  34.454  30.789   8.427
 1408POPC   C3A22421  34.639  30.747   8.001
 1408POPC   C4A22422  34.764  31.070   7.669
 1408POPC   C1B22423  34.502  30.279   8.714
 1408POPC   C2B22424  34.286  30.211   8.404
 1408POPC   C3B22425  34.358  30.220   8.034
 1408POPC   C4B22426  34.362  30.409   7.709
 1409POPC   NC322427  14.223  19.234   9.514
 1409POPC   PO422428  14.523  18.813   9.152
 1409POPC   GL122429  14.233  18.875   8.898
 1409POPC   GL222430  14.170  19.226   8.981
 1409POPC   C1A22431  14.310  18.694   8.512
 1409POPC   D2A22432  14.743  18.803   8.391
 1409POPC   C3A22433  14.677  19.040   8.038
 1409POPC   C4A22434  14.404  19.000   7.694
 1409POPC   C1B22435  14.379  19.202   8.545
 1409POPC   C2B22436  14.128  19.060   8.189
 1409POPC   C3B22437  14.026  19.419   7.980
 1409POPC   C4B22438  14.449  19.476   7.847
 1410POPC   NC322439   9.983   2.878   9.565
 1410POPC   PO422440  10.518   2.508   9.558
 1410POPC   GL122441  10.510   2.497   9.104
 1410POPC   GL222442  10.145   2.469   9.073
 1410POPC   C1A22443  10.771   2.673   8.699
 1410POPC   D2A22444  10.512   2.845   8.306
 1410POPC   C3A22445  10.485   2.950   7.837
 1410POPC   C4A22446  10.231   3.056   7.417
 1410POPC   C1B22447  10.324   2.457   8.643
 1410POPC   C2B22448  10.611   2.353   8.316
 1410POPC   C3B22449  10.534   2.406   7.893
 1410POPC   C4B22450  10.349   2.560   7.522
 1411POPC   NC322451  19.768  11.725   9.466
 1411POPC   PO422452  20.005  12.394   9.551
 1411POPC   GL122453  19.984  12.127   9.202
 1411POPC   GL222454  19.656  12.098   9.152
 1411POPC   C1A22455  20.014  12.119   8.750
 1411POPC   D2A22456  19.749  12.114   8.365
 1411POPC   C3A22457  19.947  12.134   7.937
 1411POPC   C4A22458  19.935  12.158   7.463
 1411POPC   C1B22459  19.624  12.457   8.881
 1411POPC   C2B22460  19.514  12.568   8.465
 1411POPC   C3B22461  19.603  12.512   8.045
 1411POPC   C4B22462  19.529  12.416   7.629
 1412POPC   NC322463   0.111  27.952   9.667
 1412POPC   PO422464   0.584  27.657   9.843
 1412POPC   GL122465   0.557  27.719   9.362
 1412POPC   GL222466   0.770  27.457   9.181
 1412POPC   C1A22467   0.518  27.819   8.890
 1412POPC   D2A22468   0.282  28.086   8.561
 1412POPC   C3A22469   0.280  27.885   8.153
 1412POPC   C4A22470   0.582  27.701   7.880
 1412POPC   C1B22471   0.848  27.336   8.719
 1412POPC   C2B22472   0.793  27.351   8.256
 1412POPC   C3B22473   0.513  27.183   7.926
 1412POPC   C4B22474   0.174  27.090   7.606
 1413POPC   NC322475  32.487  24.839   9.451
 1413POPC   PO422476  32.004  24.294   9.399
 1413POPC   GL122477  32.292  24.313   9.020
 1413POPC   GL222478  32.439  24.684   8.973
 1413POPC   C1A22479  32.428  24.380   8.579
 1413POPC   D2A22480  32.326  24.595   8.198
 1413POPC   C3A22481  31.998  24.379   7.975
 1413POPC   C4A22482  32.049  24.322   7.545
 1413POPC   C1B22483  32.025  24.707   8.806
 1413POPC   C2B22484  31.831  24.695   8.410
 1413POPC   C3B22485  31.895  24.889   8.029
 1413POPC   C4B22486  32.158  24.817   7.699
 1414POPC   NC322487   4.193   7.156   9.694
 1414POPC   PO422488   3.752   6.894   9.516
 1414POPC   GL122489   4.033   7.024   9.173
 1414POPC   GL222490   4.160   7.383   9.192
 1414POPC   C1A22491   4.107   7.174   8.724
 1414POPC   D2A22492   4.303   7.425   8.367
 1414POPC   C3A22493   4.224   7.288   7.938
 1414POPC   C4A22494   4.286   7.037   7.573
 1414POPC   C1B22495   4.147   7.697   8.815
 1414POPC   C2B22496   4.088   7.912   8.394
 1414POPC   C3B22497   4.234   7.790   7.979
 1414POPC   C4B22498   4.651   7.583   7.878
 1415POPC   NC322499  28.510  40.397   9.398
 1415POPC   PO422500  28.040  40.001   9.627
 1415POPC   GL122501  28.320  39.940   9.246
 1415POPC   GL222502  28.090  39.853   8.994
 1415POPC   C1A22503  28.558  39.901   8.828
 1415POPC   D2A22504  28.221  39.816   8.501
 1415POPC   C3A22505  28.211  40.051   8.119
 1415POPC   C4A22506  28.473  39.904   7.778
 1415POPC   C1B22507  28.213  40.268   8.793
 1415POPC   C2B22508  28.526  40.272   8.467
 1415POPC   C3B22509  28.694  40.274   8.058
 1415POPC   C4B22510  28.373  40.392   7.744
 1416POPC   NC322511  11.071  10.359   9.601
 1416POPC   PO422512  11.710  10.530   9.753
 1416POPC   GL122513  11.513  10.494   9.333
 1416POPC   GL222514  11.223  10.683   9.238
 1416POPC   C1A22515  11.363  10.298   8.919
 1416POPC   D2A22516  11.162  10.396   8.521
 1416POPC   C3A22517  11.383  10.390   8.132
 1416POPC   C4A22518  11.245  10.384   7.691
 1416POPC   C1B22519  11.334  10.813   8.806
 1416POPC   C2B22520  11.225  10.870   8.339
 1416POPC   C3B22521  11.344  10.836   7.864
 1416POPC   C4B22522  11.377  10.777   7.383
 1417POPC   NC322523  41.200   0.045   9.369
 1417POPC   PO422524  40.896   0.612   9.458
 1417POPC   GL122525  40.798   0.535   9.026
 1417POPC   GL222526  40.793   0.216   9.040
 1417POPC   C1A22527  40.678   0.526   8.579
 1417POPC   D2A22528  40.339   0.317   8.304
 1417POPC   C3A22529  40.493   0.222   7.874
 1417POPC   C4A22530  40.727   0.523   7.670
 1417POPC   C1B22531  40.852   0.056   8.618
 1417POPC   C2B22532  40.846   0.173   8.222
 1417POPC   C3B22533  40.945  44.948   7.859
 1417POPC   C4B22534  41.018   0.156   7.461
 1418POPC   NC322535   7.442  29.605   9.764
 1418POPC   PO422536   7.121  30.055   9.429
 1418POPC   GL122537   7.420  29.952   9.151
 1418POPC   GL222538   7.506  29.618   9.223
 1418POPC   C1A22539   7.311  29.954   8.736
 1418POPC   D2A22540   7.315  29.751   8.367
 1418POPC   C3A22541   7.293  30.001   8.002
 1418POPC   C4A22542   7.357  30.127   7.585
 1418POPC   C1B22543   7.759  29.650   8.855
 1418POPC   C2B22544   7.823  29.620   8.404
 1418POPC   C3B22545   7.618  29.599   7.979
 1418POPC   C4B22546   7.796  29.880   7.700
 1419POPC   NC322547  22.780  25.635   9.498
 1419POPC   PO422548  22.792  26.353   9.517
 1419POPC   GL122549  23.029  26.255   9.150
 1419POPC   GL222550  23.054  25.897   9.141
 1419POPC   C1A22551  22.973  26.211   8.689
 1419POPC   D2A22552  22.958  25.990   8.292
 1419POPC   C3A22553  23.011  26.246   7.934
 1419POPC   C4A22554  23.036  26.468   7.515
 1419POPC   C1B22555  22.822  25.733   8.794
 1419POPC   C2B22556  22.559  25.706   8.409
 1419POPC   C3B22557  22.713  25.568   8.026
 1419POPC   C4B22558  22.899  25.766   7.713
 1420POPC   NC322559  24.883  26.653   9.447
 1420POPC   PO422560  24.346  27.144   9.484
 1420POPC   GL122561  24.367  26.884   9.102
 1420POPC   GL222562  24.574  26.587   9.058
 1420POPC   C1A22563  24.388  26.835   8.642
 1420POPC   D2A22564  24.714  26.733   8.302
 1420POPC   C3A22565  24.666  26.918   7.888
 1420POPC   C4A22566  24.285  26.755   7.694
 1420POPC   C1B22567  24.363  26.342   8.748
 1420POPC   C2B22568  24.233  26.458   8.323
 1420POPC   C3B22569  24.485  26.382   7.975
 1420POPC   C4B22570  24.282  26.239   7.631
 1421POPC   NC322571  11.222  26.252   9.522
 1421POPC   PO422572  11.763  25.849   9.744
 1421POPC   GL122573  11.618  25.964   9.312
 1421POPC   GL222574  11.507  26.260   9.110
 1421POPC   C1A22575  11.606  25.845   8.859
 1421POPC   D2A22576  11.454  26.049   8.468
 1421POPC   C3A22577  11.503  25.779   8.130
 1421POPC   C4A22578  11.376  25.808   7.718
 1421POPC   C1B22579  11.133  26.064   8.868
 1421POPC   C2B22580  10.969  26.204   8.456
 1421POPC   C3B22581  11.056  26.058   8.030
 1421POPC   C4B22582  10.974  26.146   7.559
 1422POPC   NC322583  36.185  20.958   9.671
 1422POPC   PO422584  35.909  20.399   9.407
 1422POPC   GL122585  36.116  20.655   9.126
 1422POPC   GL222586  35.978  20.966   9.090
 1422POPC   C1A22587  36.317  20.662   8.728
 1422POPC   D2A22588  36.320  20.769   8.307
 1422POPC   C3A22589  36.402  20.448   8.029
 1422POPC   C4A22590  36.317  20.363   7.615
 1422POPC   C1B22591  35.795  20.662   8.756
 1422POPC   C2B22592  35.771  20.721   8.350
 1422POPC   C3B22593  35.936  20.641   7.978
 1422POPC   C4B22594  35.871  20.862   7.630
 1423POPC   NC322595   1.957  32.619   9.329
 1423POPC   PO422596   1.627  32.059   9.284
 1423POPC   GL122597   1.943  32.164   9.040
 1423POPC   GL222598   2.270  32.216   9.218
 1423POPC   C1A22599   1.934  32.426   8.678
 1423POPC   D2A22600   1.771  32.358   8.295
 1423POPC   C3A22601   1.886  32.232   7.933
 1423POPC   C4A22602   1.888  32.582   7.682
 1423POPC   C1B22603   2.378  32.173   8.792
 1423POPC   C2B22604   2.198  32.046   8.409
 1423POPC   C3B22605   2.374  32.128   8.029
 1423POPC   C4B22606   2.262  32.259   7.584
 1424POPC   NC322607  29.562  38.499   9.411
 1424POPC   PO422608  30.103  38.349   9.334
 1424POPC   GL122609  29.896  38.329   8.983
 1424POPC   GL222610  29.751  38.618   8.926
 1424POPC   C1A22611  29.989  38.275   8.582
 1424POPC   D2A22612  30.105  38.544   8.291
 1424POPC   C3A22613  29.941  38.432   7.921
 1424POPC   C4A22614  30.088  38.223   7.612
 1424POPC   C1B22615  29.767  38.874   8.540
 1424POPC   C2B22616  29.832  38.922   8.075
 1424POPC   C3B22617  29.927  38.861   7.646
 1424POPC   C4B22618  30.089  38.675   7.293
 1425POPC   NC322619   1.051  20.764   9.543
 1425POPC   PO422620   0.477  20.485   9.897
 1425POPC   GL122621   0.614  20.491   9.427
 1425POPC   GL222622   0.581  20.780   9.286
 1425POPC   C1A22623   0.770  20.532   8.908
 1425POPC   D2A22624   0.878  20.519   8.410
 1425POPC   C3A22625   0.616  20.628   7.990
 1425POPC   C4A22626   0.204  20.709   7.742
 1425POPC   C1B22627   0.395  20.893   8.886
 1425POPC   C2B22628   0.505  20.851   8.447
 1425POPC   C3B22629   0.378  21.089   8.065
 1425POPC   C4B22630   0.578  21.046   7.668
 1426POPC   NC322631  31.085  35.652   9.763
 1426POPC   PO422632  30.434  35.339   9.602
 1426POPC   GL122633  30.717  35.309   9.231
 1426POPC   GL222634  30.878  35.610   9.130
 1426POPC   C1A22635  30.811  35.164   8.814
 1426POPC   D2A22636  30.531  35.193   8.465
 1426POPC   C3A22637  30.702  35.247   8.079
 1426POPC   C4A22638  30.597  35.124   7.725
 1426POPC   C1B22639  30.651  35.634   8.752
 1426POPC   C2B22640  30.913  35.554   8.425
 1426POPC   C3B22641  31.033  35.635   8.021
 1426POPC   C4B22642  30.812  35.599   7.645
 1427POPC   NC322643  30.310  39.027   9.491
 1427POPC   PO422644  29.570  38.939   9.519
 1427POPC   GL122645  29.622  39.094   9.024
 1427POPC   GL222646  29.927  39.214   8.907
 1427POPC   C1A22647  29.573  39.420   8.650
 1427POPC   D2A22648  29.848  39.383   8.284
 1427POPC   C3A22649  29.650  39.496   7.942
 1427POPC   C4A22650  29.586  39.259   7.588
 1427POPC   C1B22651  30.055  39.621   8.658
 1427POPC   C2B22652  30.437  39.523   8.371
 1427POPC   C3B22653  30.473  39.416   7.935
 1427POPC   C4B22654  30.090  39.312   7.792
 1428POPC   NC322655  38.715  11.930   9.516
 1428POPC   PO422656  38.698  12.589   9.644
 1428POPC   GL122657  38.883  12.394   9.172
 1428POPC   GL222658  38.735  12.066   9.048
 1428POPC   C1A22659  38.722  12.381   8.680
 1428POPC   D2A22660  38.414  12.298   8.338
 1428POPC   C3A22661  38.656  12.207   8.020
 1428POPC   C4A22662  38.558  12.173   7.646
 1428POPC   C1B22663  38.393  11.998   8.758
 1428POPC   C2B22664  38.342  11.794   8.347
 1428POPC   C3B22665  38.258  11.861   7.929
 1428POPC   C4B22666  38.047  11.865   7.544
 1429POPC   NC322667   8.369  38.015   9.567
 1429POPC   PO422668   7.805  37.651   9.817
 1429POPC   GL122669   8.053  37.691   9.342
 1429POPC   GL222670   8.042  37.965   9.072
 1429POPC   C1A22671   8.227  37.552   8.865
 1429POPC   D2A22672   8.133  37.488   8.375
 1429POPC   C3A22673   8.132  37.657   7.950
 1429POPC   C4A22674   8.212  37.401   7.558
 1429POPC   C1B22675   8.283  38.206   8.697
 1429POPC   C2B22676   8.451  38.140   8.291
 1429POPC   C3B22677   8.435  38.073   7.872
 1429POPC   C4B22678   8.243  37.904   7.494
 1430POPC   NC322679  29.916  39.468   9.370
 1430POPC   PO422680  29.694  40.172   9.405
 1430POPC   GL122681  29.946  39.966   9.121
 1430POPC   GL222682  29.697  39.742   9.014
 1430POPC   C1A22683  30.127  40.165   8.753
 1430POPC   D2A22684  30.344  40.075   8.349
 1430POPC   C3A22685  30.126  39.779   8.073
 1430POPC   C4A22686  30.005  39.789   7.648
 1430POPC   C1B22687  29.549  39.996   8.696
 1430POPC   C2B22688  29.770  40.172   8.369
 1430POPC   C3B22689  29.839  40.172   7.954
 1430POPC   C4B22690  29.624  40.115   7.584
 1431POPC   NC322691  16.114  39.513   9.322
 1431POPC   PO422692  16.664  39.590   9.754
 1431POPC   GL122693  16.615  39.325   9.341
 1431POPC   GL222694  16.924  39.187   9.181
 1431POPC   C1A22695  16.514  39.244   8.880
 1431POPC   D2A22696  16.575  39.411   8.450
 1431POPC   C3A22697  16.627  39.064   8.161
 1431POPC   C4A22698  16.763  38.949   7.763
 1431POPC   C1B22699  16.982  39.409   8.819
 1431POPC   C2B22700  17.051  39.281   8.389
 1431POPC   C3B22701  16.954  39.425   7.954
 1431POPC   C4B22702  16.976  39.353   7.497
 1432POPC   NC322703  11.236  30.817   9.550
 1432POPC   PO422704  11.347  30.191   9.433
 1432POPC   GL122705  11.217  30.363   9.086
 1432POPC   GL222706  11.412  30.649   9.110
 1432POPC   C1A22707  11.246  30.470   8.663
 1432POPC   D2A22708  11.512  30.532   8.363
 1432POPC   C3A22709  11.362  30.419   7.951
 1432POPC   C4A22710  11.363  30.404   7.490
 1432POPC   C1B22711  11.452  30.952   8.802
 1432POPC   C2B22712  11.268  30.988   8.410
 1432POPC   C3B22713  11.489  30.926   8.036
 1432POPC   C4B22714  11.310  30.859   7.664
 1433POPC   NC322715  19.191   1.438   9.592
 1433POPC   PO422716  19.036   0.763   9.611
 1433POPC   GL122717  19.099   1.053   9.254
 1433POPC   GL222718  18.910   1.385   9.153
 1433POPC   C1A22719  19.124   1.019   8.838
 1433POPC   D2A22720  19.062   0.909   8.432
 1433POPC   C3A22721  19.026   1.137   8.041
 1433POPC   C4A22722  19.196   0.825   7.743
 1433POPC   C1B22723  18.997   1.506   8.716
 1433POPC   C2B22724  19.064   1.687   8.356
 1433POPC   C3B22725  18.926   1.704   7.984
 1433POPC   C4B22726  18.960   1.532   7.588
 1434POPC   NC322727  41.225   5.577   9.488
 1434POPC   PO422728  41.527   6.196   9.382
 1434POPC   GL122729  41.674   5.944   9.041
 1434POPC   GL222730  41.395   5.735   9.055
 1434POPC   C1A22731  41.470   5.984   8.626
 1434POPC   D2A22732  41.239   6.202   8.347
 1434POPC   C3A22733  41.489   6.051   8.030
 1434POPC   C4A22734  41.779   5.850   7.787
 1434POPC   C1B22735  41.143   5.615   8.712
 1434POPC   C2B22736  41.143   5.714   8.258
 1434POPC   C3B22737  41.186   5.714   7.809
 1434POPC   C4B22738  41.061   5.618   7.421
 1435POPC   NC322739  17.137  34.521   9.764
 1435POPC   PO422740  17.790  34.645   9.608
 1435POPC   GL122741  17.724  34.724   9.143
 1435POPC   GL222742  17.397  34.827   8.942
 1435POPC   C1A22743  17.705  34.484   8.762
 1435POPC   D2A22744  17.586  34.682   8.396
 1435POPC   C3A22745  17.674  34.490   8.034
 1435POPC   C4A22746  17.960  34.772   7.851
 1435POPC   C1B22747  17.175  34.582   8.660
 1435POPC   C2B22748  17.066  34.768   8.284
 1435POPC   C3B22749  17.377  34.924   7.991
 1435POPC   C4B22750  17.351  34.908   7.580
 1436POPC   NC322751  18.773  33.977   9.543
 1436POPC   PO422752  18.967  33.406   9.483
 1436POPC   GL122753  19.133  33.742   9.163
 1436POPC   GL222754  18.877  33.985   9.037
 1436POPC   C1A22755  19.331  33.877   8.736
 1436POPC   D2A22756  19.451  33.677   8.313
 1436POPC   C3A22757  19.446  33.903   7.915
 1436POPC   C4A22758  19.356  33.836   7.480
 1436POPC   C1B22759  18.823  33.894   8.591
 1436POPC   C2B22760  18.996  33.914   8.196
 1436POPC   C3B22761  18.948  33.776   7.783
 1436POPC   C4B22762  18.871  33.947   7.370
 1437POPC   NC322763  14.945  44.960   9.264
 1437POPC   PO422764  15.399   0.420   9.594
 1437POPC   GL122765  15.298   0.336   9.173
 1437POPC   GL222766  15.461  44.984   9.197
 1437POPC   C1A22767  15.152   0.522   8.745
 1437POPC   D2A22768  15.244   0.749   8.324
 1437POPC   C3A22769  15.200   0.484   7.971
 1437POPC   C4A22770  15.089   0.519   7.510
 1437POPC   C1B22771  15.579   0.164   8.786
 1437POPC   C2B22772  15.525   0.329   8.402
 1437POPC   C3B22773  15.620   0.177   8.016
 1437POPC   C4B22774  15.422   0.173   7.625
 1438POPC   NC322775  11.815  42.641   9.376
 1438POPC   PO422776  12.155  43.294   9.276
 1438POPC   GL122777  12.091  42.941   9.087
 1438POPC   GL222778  12.351  42.711   9.145
 1438POPC   C1A22779  11.800  42.926   8.760
 1438POPC   D2A22780  11.997  43.019   8.380
 1438POPC   C3A22781  11.804  43.138   8.023
 1438POPC   C4A22782  11.962  43.124   7.642
 1438POPC   C1B22783  12.490  42.882   8.758
 1438POPC   C2B22784  12.511  43.023   8.349
 1438POPC   C3B22785  12.340  42.941   7.953
 1438POPC   C4B22786  12.477  43.134   7.596
 1439POPC   NC322787  24.325  20.876   9.467
 1439POPC   PO422788  24.887  20.449   9.519
 1439POPC   GL122789  24.697  20.425   9.165
 1439POPC   GL222790  24.682  20.783   9.123
 1439POPC   C1A22791  24.665  20.211   8.786
 1439POPC   D2A22792  24.455  20.383   8.440
 1439POPC   C3A22793  24.603  20.403   8.027
 1439POPC   C4A22794  24.491  20.699   7.705
 1439POPC   C1B22795  24.818  20.703   8.722
 1439POPC   C2B22796  24.675  20.837   8.304
 1439POPC   C3B22797  24.934  20.819   7.942
 1439POPC   C4B22798  24.955  20.877   7.513
 1440POPC   NC322799  34.249  31.257   9.568
 1440POPC   PO422800  33.643  31.565   9.653
 1440POPC   GL122801  33.712  31.451   9.234
 1440POPC   GL222802  33.513  31.175   9.164
 1440POPC   C1A22803  33.918  31.522   8.828
 1440POPC   D2A22804  33.812  31.511   8.399
 1440POPC   C3A22805  34.085  31.593   8.042
 1440POPC   C4A22806  33.893  31.523   7.627
 1440POPC   C1B22807  33.733  31.025   8.809
 1440POPC   C2B22808  33.934  30.995   8.414
 1440POPC   C3B22809  33.811  31.162   8.011
 1440POPC   C4B22810  33.526  31.140   7.675
 1441POPC   NC322811  24.159  39.909   9.507
 1441POPC   PO422812  24.708  40.317   9.476
 1441POPC   GL122813  24.613  39.967   9.202
 1441POPC   GL222814  24.450  39.632   9.186
 1441POPC   C1A22815  24.394  40.019   8.830
 1441POPC   D2A22816  24.485  40.158   8.436
 1441POPC   C3A22817  24.301  39.973   8.084
 1441POPC   C4A22818  24.370  40.158   7.695
 1441POPC   C1B22819  24.633  39.578   8.795
 1441POPC   C2B22820  24.766  39.701   8.414
 1441POPC   C3B22821  24.628  39.583   8.027
 1441POPC   C4B22822  24.663  39.756   7.628
 1442POPC   NC322823  35.054  29.457   9.455
 1442POPC   PO422824  35.082  30.145   9.567
 1442POPC   GL122825  35.312  30.068   9.167
 1442POPC   GL222826  35.348  29.721   9.134
 1442POPC   C1A22827  35.354  29.948   8.695
 1442POPC   D2A22828  35.532  29.990   8.292
 1442POPC   C3A22829  35.269  29.992   7.931
 1442POPC   C4A22830  35.230  30.320   7.628
 1442POPC   C1B22831  35.576  29.461   8.838
 1442POPC   C2B22832  35.427  29.445   8.448
 1442POPC   C3B22833  35.613  29.519   8.089
 1442POPC   C4B22834  35.710  29.773   7.776
 1443POPC   NC322835  28.328   3.880   9.514
 1443POPC   PO422836  28.225   4.433   9.509
 1443POPC   GL122837  28.223   4.465   9.062
 1443POPC   GL222838  28.270   4.126   8.999
 1443POPC   C1A22839  28.162   4.693   8.655
 1443POPC   D2A22840  28.315   4.614   8.228
 1443POPC   C3A22841  28.121   4.569   7.846
 1443POPC   C4A22842  28.355   4.536   7.451
 1443POPC   C1B22843  28.522   4.331   8.655
 1443POPC   C2B22844  28.743   4.338   8.267
 1443POPC   C3B22845  28.549   4.279   7.861
 1443POPC   C4B22846  28.178   4.085   7.649
 1444POPC   NC322847  41.826   3.382   9.435
 1444POPC   PO422848  41.176   3.591   9.443
 1444POPC   GL122849  41.471   3.635   9.145
 1444POPC   GL222850  41.450   3.280   9.071
 1444POPC   C1A22851  41.606   3.848   8.780
 1444POPC   D2A22852  41.434   3.794   8.375
 1444POPC   C3A22853  41.523   3.563   7.969
 1444POPC   C4A22854  41.307   3.171   7.846
 1444POPC   C1B22855  41.805   3.349   8.781
 1444POPC   C2B22856  41.964   3.274   8.362
 1444POPC   C3B22857  41.935   3.203   7.936
 1444POPC   C4B22858  41.768   3.300   7.554
 1445POPC   NC322859   5.462  18.239   9.510
 1445POPC   PO422860   6.068  18.043   9.230
 1445POPC   GL122861   6.007  18.257   8.923
 1445POPC   GL222862   5.952  18.549   9.105
 1445POPC   C1A22863   5.797  18.181   8.532
 1445POPC   D2A22864   5.595  18.137   8.114
 1445POPC   C3A22865   5.902  18.251   7.832
 1445POPC   C4A22866   6.242  18.096   7.674
 1445POPC   C1B22867   5.540  18.498   8.878
 1445POPC   C2B22868   5.450  18.541   8.430
 1445POPC   C3B22869   5.636  18.645   8.030
 1445POPC   C4B22870   5.624  18.584   7.579
 1446POPC   NC322871  26.028  36.053   9.529
 1446POPC   PO422872  26.455  36.549   9.402
 1446POPC   GL122873  26.157  36.380   9.163
 1446POPC   GL222874  26.382  36.354   8.899
 1446POPC   C1A22875  25.803  36.412   8.866
 1446POPC   D2A22876  25.598  36.487   8.459
 1446POPC   C3A22877  25.818  36.258   8.176
 1446POPC   C4A22878  25.962  36.204   7.760
 1446POPC   C1B22879  26.095  35.996   8.851
 1446POPC   C2B22880  25.957  35.866   8.492
 1446POPC   C3B22881  25.991  35.789   8.084
 1446POPC   C4B22882  26.285  35.812   7.797
 1447POPC   NC322883  33.425   1.664   9.562
 1447POPC   PO422884  32.864   2.029   9.510
 1447POPC   GL122885  32.917   2.020   9.122
 1447POPC   GL222886  33.096   1.712   9.158
 1447POPC   C1A22887  33.264   2.166   8.900
 1447POPC   D2A22888  33.358   2.249   8.477
 1447POPC   C3A22889  33.248   1.943   8.170
 1447POPC   C4A22890  33.122   2.148   7.802
 1447POPC   C1B22891  33.075   1.720   8.724
 1447POPC   C2B22892  32.875   2.072   8.519
 1447POPC   C3B22893  32.709   2.098   8.093
 1447POPC   C4B22894  32.736   1.857   7.677
 1448POPC   NC322895  27.859  44.282   9.464
 1448POPC   PO422896  27.539  43.699   9.532
 1448POPC   GL122897  27.456  43.705   9.100
 1448POPC   GL222898  27.583  44.049   9.076
 1448POPC   C1A22899  27.650  43.653   8.670
 1448POPC   D2A22900  27.953  43.694   8.318
 1448POPC   C3A22901  27.753  43.809   7.923
 1448POPC   C4A22902  27.727  43.910   7.480
 1448POPC   C1B22903  27.295  44.019   8.718
 1448POPC   C2B22904  27.438  43.986   8.309
 1448POPC   C3B22905  27.247  43.877   7.926
 1448POPC   C4B22906  27.247  43.698   7.520
 1449POPC   NC322907  20.538  16.505  10.283
 1449POPC   PO422908  20.686  16.226   9.699
 1449POPC   GL122909  20.733  16.432   9.257
 1449POPC   GL222910  20.626  16.814   9.197
 1449POPC   C1A22911  20.730  16.523   8.787
 1449POPC   D2A22912  20.445  16.512   8.411
 1449POPC   C3A22913  20.689  16.602   8.047
 1449POPC   C4A22914  21.054  16.299   7.961
 1449POPC   C1B22915  20.414  16.928   8.764
 1449POPC   C2B22916  20.413  17.026   8.296
 1449POPC   C3B22917  20.337  16.980   7.830
 1449POPC   C4B22918  20.228  16.857   7.380
 1450POPC   NC322919   2.462  34.661   9.473
 1450POPC   PO422920   1.893  34.477   9.735
 1450POPC   GL122921   2.052  34.444   9.215
 1450POPC   GL222922   1.786  34.512   8.961
 1450POPC   C1A22923   2.187  34.285   8.789
 1450POPC   D2A22924   2.073  34.574   8.475
 1450POPC   C3A22925   2.120  34.531   8.030
 1450POPC   C4A22926   2.396  34.804   7.818
 1450POPC   C1B22927   1.588  34.475   8.614
 1450POPC   C2B22928   1.633  34.393   8.227
 1450POPC   C3B22929   1.468  34.527   7.869
 1450POPC   C4B22930   1.737  34.428   7.581
 1451POPC   NC322931  24.347   5.931   9.452
 1451POPC   PO422932  24.786   6.421   9.220
 1451POPC   GL122933  24.657   6.034   9.034
 1451POPC   GL222934  24.749   5.682   9.152
 1451POPC   C1A22935  24.426   5.990   8.650
 1451POPC   D2A22936  24.169   5.989   8.288
 1451POPC   C3A22937  24.337   5.997   7.866
 1451POPC   C4A22938  24.349   6.198   7.460
 1451POPC   C1B22939  24.845   5.686   8.686
 1451POPC   C2B22940  24.651   5.718   8.244
 1451POPC   C3B22941  24.637   5.552   7.800
 1451POPC   C4B22942  24.807   5.546   7.358
 1452POPC   NC322943  18.199  23.393   9.569
 1452POPC   PO422944  17.992  22.752   9.653
 1452POPC   GL122945  18.188  22.975   9.278
 1452POPC   GL222946  18.042  22.736   9.094
 1452POPC   C1A22947  18.350  23.040   8.825
 1452POPC   D2A22948  18.588  22.857   8.437
 1452POPC   C3A22949  18.471  22.953   7.992
 1452POPC   C4A22950  18.150  23.200   7.781
 1452POPC   C1B22951  18.135  22.611   8.672
 1452POPC   C2B22952  18.068  22.758   8.243
 1452POPC   C3B22953  18.255  22.499   7.900
 1452POPC   C4B22954  18.278  22.240   7.526
 1453POPC   NC322955  29.573   8.701   9.522
 1453POPC   PO422956  29.560   8.028   9.529
 1453POPC   GL122957  29.712   8.297   9.200
 1453POPC   GL222958  29.896   8.026   9.085
 1453POPC   C1A22959  29.825   8.394   8.762
 1453POPC   D2A22960  29.812   8.214   8.354
 1453POPC   C3A22961  29.601   8.336   8.001
 1453POPC   C4A22962  29.894   8.332   7.671
 1453POPC   C1B22963  29.986   7.855   8.697
 1453POPC   C2B22964  29.826   7.695   8.324
 1453POPC   C3B22965  29.920   7.864   7.938
 1453POPC   C4B22966  30.077   7.849   7.496
 1454POPC   NC322967  10.857  28.034   9.230
 1454POPC   PO422968  10.992  27.504   9.618
 1454POPC   GL122969  11.078  27.563   9.199
 1454POPC   GL222970  11.397  27.487   9.112
 1454POPC   C1A22971  11.012  27.394   8.777
 1454POPC   D2A22972  11.078  27.618   8.378
 1454POPC   C3A22973  11.204  27.461   7.955
 1454POPC   C4A22974  10.966  27.371   7.543
 1454POPC   C1B22975  11.467  27.613   8.734
 1454POPC   C2B22976  11.502  27.917   8.460
 1454POPC   C3B22977  11.481  27.906   8.016
 1454POPC   C4B22978  11.673  27.617   7.769
 1455POPC   NC322979   8.408  36.566   9.908
 1455POPC   PO422980   8.157  37.199   9.820
 1455POPC   GL122981   8.191  37.209   9.294
 1455POPC   GL222982   8.039  36.951   9.176
 1455POPC   C1A22983   8.455  37.034   8.901
 1455POPC   D2A22984   8.466  37.111   8.451
 1455POPC   C3A22985   8.503  36.845   8.087
 1455POPC   C4A22986   8.445  36.942   7.648
 1455POPC   C1B22987   7.958  37.112   8.741
 1455POPC   C2B22988   7.765  37.141   8.328
 1455POPC   C3B22989   8.047  37.074   7.992
 1455POPC   C4B22990   8.090  36.625   7.815
 1456POPC   NC322991  16.259  43.130   9.437
 1456POPC   PO422992  15.745  43.556   9.596
 1456POPC   GL122993  15.810  43.338   9.170
 1456POPC   GL222994  15.654  43.027   9.082
 1456POPC   C1A22995  16.048  43.148   8.780
 1456POPC   D2A22996  16.245  43.330   8.379
 1456POPC   C3A22997  16.199  43.094   7.974
 1456POPC   C4A22998  16.234  43.266   7.569
 1456POPC   C1B22999  15.692  42.784   8.737
 1456POPC   C2B23000  15.883  42.902   8.349
 1456POPC   C3B23001  15.678  43.027   7.972
 1456POPC   C4B23002  15.596  42.776   7.625
 1457POPC   NC323003  43.918  10.656   9.753
 1457POPC   PO423004  43.519  10.169   9.508
 1457POPC   GL123005  43.879  10.498   9.279
 1457POPC   GL223006  43.829  10.843   9.165
 1457POPC   C1A23007  43.878  10.408   8.823
 1457POPC   D2A23008  43.763  10.244   8.408
 1457POPC   C3A23009  43.882  10.475   8.054
 1457POPC   C4A23010  43.945  10.379   7.639
 1457POPC   C1B23011  44.191  10.810   8.817
 1457POPC   C2B23012  44.170  10.869   8.347
 1457POPC   C3B23013  43.805  10.974   8.025
 1457POPC   C4B23014  43.759  10.897   7.583
 1458POPC   NC323015   9.029  23.285   9.471
 1458POPC   PO423016   8.753  22.702   9.575
 1458POPC   GL123017   8.968  22.895   9.143
 1458POPC   GL223018   9.256  23.180   9.043
 1458POPC   C1A23019   8.819  22.865   8.714
 1458POPC   D2A23020   8.762  22.547   8.372
 1458POPC   C3A23021   8.733  22.758   7.955
 1458POPC   C4A23022   8.824  22.857   7.484
 1458POPC   C1B23023   9.274  23.082   8.627
 1458POPC   C2B23024   9.106  22.946   8.247
 1458POPC   C3B23025   9.195  22.978   7.799
 1458POPC   C4B23026   9.265  23.132   7.364
 1459POPC   NC323027  20.203  36.158   9.774
 1459POPC   PO423028  19.735  36.393   9.421
 1459POPC   GL123029  19.866  36.235   9.067
 1459POPC   GL223030  19.758  35.896   9.066
 1459POPC   C1A23031  19.877  36.176   8.636
 1459POPC   D2A23032  19.747  35.845   8.395
 1459POPC   C3A23033  19.686  36.079   8.039
 1459POPC   C4A23034  19.810  36.018   7.633
 1459POPC   C1B23035  19.367  35.754   8.889
 1459POPC   C2B23036  19.232  35.867   8.507
 1459POPC   C3B23037  19.299  35.718   8.104
 1459POPC   C4B23038  19.272  35.997   7.759
 1460POPC   NC323039  39.489   3.976   9.530
 1460POPC   PO423040  39.032   3.478   9.462
 1460POPC   GL123041  39.395   3.472   9.187
 1460POPC   GL223042  39.499   3.112   9.211
 1460POPC   C1A23043  39.366   3.597   8.750
 1460POPC   D2A23044  39.060   3.830   8.496
 1460POPC   C3A23045  39.107   3.703   8.090
 1460POPC   C4A23046  39.074   3.593   7.658
 1460POPC   C1B23047  39.172   3.078   8.887
 1460POPC   C2B23048  39.148   3.220   8.446
 1460POPC   C3B23049  39.192   3.208   7.984
 1460POPC   C4B23050  39.470   3.277   7.607
 1461POPC   NC323051  31.155  21.722   9.407
 1461POPC   PO423052  31.582  21.187   9.462
 1461POPC   GL123053  31.657  21.292   9.068
 1461POPC   GL223054  31.568  21.622   9.123
 1461POPC   C1A23055  31.524  21.146   8.660
 1461POPC   D2A23056  31.220  20.889   8.365
 1461POPC   C3A23057  31.208  20.981   7.919
 1461POPC   C4A23058  31.226  21.363   7.680
 1461POPC   C1B23059  31.805  21.657   8.740
 1461POPC   C2B23060  31.899  21.524   8.319
 1461POPC   C3B23061  31.650  21.534   7.935
 1461POPC   C4B23062  31.630  21.614   7.488
 1462POPC   NC323063  34.738  34.762   9.520
 1462POPC   PO423064  34.318  34.188   9.420
 1462POPC   GL123065  34.335  34.545   9.139
 1462POPC   GL223066  34.668  34.514   9.082
 1462POPC   C1A23067  34.359  34.784   8.731
 1462POPC   D2A23068  34.433  34.905   8.269
 1462POPC   C3A23069  34.515  34.537   7.979
 1462POPC   C4A23070  34.806  34.167   8.020
 1462POPC   C1B23071  34.886  34.832   8.865
 1462POPC   C2B23072  34.914  34.783   8.425
 1462POPC   C3B23073  34.888  34.893   7.995
 1462POPC   C4B23074  34.938  35.092   7.584
 1463POPC   NC323075   6.638  40.084   9.596
 1463POPC   PO423076   7.294  40.129   9.586
 1463POPC   GL123077   6.959  40.059   9.215
 1463POPC   GL223078   6.720  39.734   9.221
 1463POPC   C1A23079   6.769  40.104   8.818
 1463POPC   D2A23080   6.612  40.318   8.449
 1463POPC   C3A23081   6.756  40.104   8.095
 1463POPC   C4A23082   6.585  39.993   7.700
 1463POPC   C1B23083   6.499  39.654   8.812
 1463POPC   C2B23084   6.525  39.801   8.431
 1463POPC   C3B23085   6.507  39.630   8.048
 1463POPC   C4B23086   6.237  39.600   7.670
 1464POPC   NC323087  23.370  38.156   9.436
 1464POPC   PO423088  22.697  38.347   9.490
 1464POPC   GL123089  22.782  38.486   9.107
 1464POPC   GL223090  23.132  38.441   9.083
 1464POPC   C1A23091  22.742  38.202   8.728
 1464POPC   D2A23092  22.651  37.955   8.326
 1464POPC   C3A23093  22.718  38.116   7.901
 1464POPC   C4A23094  22.789  38.344   7.486
 1464POPC   C1B23095  23.006  38.660   8.690
 1464POPC   C2B23096  22.877  38.458   8.315
 1464POPC   C3B23097  23.061  38.483   7.945
 1464POPC   C4B23098  23.045  38.770   7.653
 1465POPC   NC323099  42.512  41.799   9.460
 1465POPC   PO423100  41.893  41.762   9.415
 1465POPC   GL123101  42.144  41.763   9.067
 1465POPC   GL223102  42.292  41.428   9.182
 1465POPC   C1A23103  42.525  41.695   8.803
 1465POPC   D2A23104  42.721  41.515   8.446
 1465POPC   C3A23105  42.505  41.762   8.153
 1465POPC   C4A23106  42.249  41.887   7.812
 1465POPC   C1B23107  42.116  41.344   8.780
 1465POPC   C2B23108  42.102  41.589   8.424
 1465POPC   C3B23109  42.134  41.405   8.025
 1465POPC   C4B23110  42.121  41.448   7.598
 1466POPC   NC323111  20.304   1.834   9.823
 1466POPC   PO423112  19.668   1.800   9.690
 1466POPC   GL123113  19.823   2.100   9.340
 1466POPC   GL223114  19.542   2.096   9.113
 1466POPC   C1A23115  19.976   2.223   8.901
 1466POPC   D2A23116  19.977   2.417   8.500
 1466POPC   C3A23117  19.790   2.277   8.116
 1466POPC   C4A23118  19.766   2.107   7.692
 1466POPC   C1B23119  19.662   1.864   8.703
 1466POPC   C2B23120  19.730   1.775   8.277
 1466POPC   C3B23121  19.851   1.625   7.842
 1466POPC   C4B23122  19.777   1.565   7.404
 1467POPC   NC323123  44.101  41.045   9.797
 1467POPC   PO423124  44.745  40.806   9.643
 1467POPC   GL123125  44.678  40.610   9.235
 1467POPC   GL223126  44.933  40.783   9.077
 1467POPC   C1A23127  44.562  40.668   8.765
 1467POPC   D2A23128  44.359  40.628   8.354
 1467POPC   C3A23129  44.395  40.948   8.049
 1467POPC   C4A23130  44.354  40.657   7.699
 1467POPC   C1B23131   0.052  40.920   8.687
 1467POPC   C2B23132  44.860  40.790   8.327
 1467POPC   C3B23133  44.836  40.740   7.903
 1467POPC   C4B23134  44.996  41.089   7.682
 1468POPC   NC323135   2.829  32.146   9.556
 1468POPC   PO423136   2.397  32.670   9.468
 1468POPC   GL123137   2.720  32.476   9.180
 1468POPC   GL223138   2.784  32.083   9.074
 1468POPC   C1A23139   2.813  32.479   8.766
 1468POPC   D2A23140   2.769  32.156   8.460
 1468POPC   C3A23141   2.841  32.336   8.118
 1468POPC   C4A23142   2.717  32.395   7.734
 1468POPC   C1B23143   2.809  31.757   8.765
 1468POPC   C2B23144   2.577  31.663   8.397
 1468POPC   C3B23145   2.748  31.799   8.017
 1468POPC   C4B23146   2.570  31.859   7.634
 1469POPC   NC323147   4.071  44.468   9.462
 1469POPC   PO423148   4.434  44.765   9.831
 1469POPC   GL123149   4.339  44.849   9.287
 1469POPC   GL223150   4.420  44.521   9.076
 1469POPC   C1A23151   4.436  44.953   8.822
 1469POPC   D2A23152   4.358  44.758   8.404
 1469POPC   C3A23153   4.425  44.816   7.964
 1469POPC   C4A23154   4.170  44.760   7.573
 1469POPC   C1B23155   4.033  44.589   8.796
 1469POPC   C2B23156   3.838  44.694   8.379
 1469POPC   C3B23157   4.013  44.502   8.011
 1469POPC   C4B23158   3.844  44.358   7.635
 1470POPC   NC323159  21.024   3.156   9.555
 1470POPC   PO423160  21.425   3.735   9.520
 1470POPC   GL123161  21.378   3.378   9.202
 1470POPC   GL223162  21.108   3.497   9.176
 1470POPC   C1A23163  21.441   3.212   8.760
 1470POPC   D2A23164  21.223   3.234   8.320
 1470POPC   C3A23165  21.416   3.446   7.959
 1470POPC   C4A23166  21.477   3.380   7.470
 1470POPC   C1B23167  21.006   3.458   8.750
 1470POPC   C2B23168  20.843   3.675   8.385
 1470POPC   C3B23169  20.890   3.494   7.977
 1470POPC   C4B23170  21.067   3.658   7.600
 1471POPC   NC323171   6.571   8.845   9.534
 1471POPC   PO423172   7.049   9.311   9.405
 1471POPC   GL123173   6.696   9.157   9.089
 1471POPC   GL223174   6.411   8.906   9.059
 1471POPC   C1A23175   6.532   9.264   8.662
 1471POPC   D2A23176   6.753   9.504   8.342
 1471POPC   C3A23177   6.707   9.348   7.940
 1471POPC   C4A23178   6.399   9.106   7.817
 1471POPC   C1B23179   6.664   8.785   8.700
 1471POPC   C2B23180   6.751   8.945   8.286
 1471POPC   C3B23181   6.748   8.739   7.880
 1471POPC   C4B23182   6.865   8.526   7.477
 1472POPC   NC323183  13.959  41.955   9.483
 1472POPC   PO423184  13.551  42.512   9.534
 1472POPC   GL123185  13.706  42.391   9.162
 1472POPC   GL223186  13.547  42.085   9.173
 1472POPC   C1A23187  13.620  42.535   8.743
 1472POPC   D2A23188  13.822  42.615   8.337
 1472POPC   C3A23189  13.824  42.325   7.942
 1472POPC   C4A23190  13.816  42.201   7.475
 1472POPC   C1B23191  13.808  41.980   8.838
 1472POPC   C2B23192  13.776  42.116   8.437
 1472POPC   C3B23193  13.527  41.985   8.124
 1472POPC   C4B23194  13.603  41.838   7.764
 1473POPC   NC323195  14.041   8.574   9.793
 1473POPC   PO423196  13.692   9.120   9.558
 1473POPC   GL123197  13.459   9.185   9.147
 1473POPC   GL223198  13.493   8.834   9.073
 1473POPC   C1A23199  13.416   9.333   8.712
 1473POPC   D2A23200  13.671   9.392   8.310
 1473POPC   C3A23201  13.731   9.249   7.862
 1473POPC   C4A23202  14.131   9.374   7.682
 1473POPC   C1B23203  13.361   8.826   8.654
 1473POPC   C2B23204  13.564   8.886   8.258
 1473POPC   C3B23205  13.627   8.703   7.864
 1473POPC   C4B23206  13.525   8.822   7.477
 1474POPC   NC323207   9.289  30.699   9.825
 1474POPC   PO423208   9.853  30.806   9.514
 1474POPC   GL123209   9.809  30.899   9.123
 1474POPC   GL223210   9.478  30.757   9.090
 1474POPC   C1A23211   9.825  30.770   8.710
 1474POPC   D2A23212   9.806  30.942   8.319
 1474POPC   C3A23213   9.772  30.908   7.928
 1474POPC   C4A23214  10.014  30.599   7.761
 1474POPC   C1B23215   9.501  30.388   8.768
 1474POPC   C2B23216   9.679  30.417   8.347
 1474POPC   C3B23217   9.561  30.442   7.924
 1474POPC   C4B23218   9.547  30.226   7.532
 1475POPC   NC323219  25.410  17.070   9.748
 1475POPC   PO423220  24.992  16.556   9.684
 1475POPC   GL123221  25.004  16.833   9.319
 1475POPC   GL223222  25.333  16.846   9.138
 1475POPC   C1A23223  24.824  16.801   8.893
 1475POPC   D2A23224  24.963  16.940   8.491
 1475POPC   C3A23225  24.947  16.752   8.074
 1475POPC   C4A23226  25.196  16.836   7.732
 1475POPC   C1B23227  25.513  16.543   8.790
 1475POPC   C2B23228  25.380  16.478   8.336
 1475POPC   C3B23229  25.553  16.538   7.921
 1475POPC   C4B23230  25.467  16.512   7.446
 1476POPC   NC323231   0.943  14.995   9.584
 1476POPC   PO423232   1.399  15.433   9.505
 1476POPC   GL123233   1.326  15.143   9.138
 1476POPC   GL223234   1.030  14.912   9.091
 1476POPC   C1A23235   1.453  15.262   8.717
 1476POPC   D2A23236   1.268  15.435   8.368
 1476POPC   C3A23237   1.384  15.304   7.972
 1476POPC   C4A23238   1.145  15.482   7.637
 1476POPC   C1B23239   0.942  14.937   8.656
 1476POPC   C2B23240   1.128  14.931   8.257
 1476POPC   C3B23241   0.989  14.995   7.847
 1476POPC   C4B23242   0.882  15.077   7.432
 1477POPC   NC323243   2.556   2.531   9.389
 1477POPC   PO423244   2.670   3.121   9.753
 1477POPC   GL123245   2.718   3.026   9.265
 1477POPC   GL223246   2.942   2.786   9.117
 1477POPC   C1A23247   2.536   3.038   8.822
 1477POPC   D2A23248   2.550   2.979   8.359
 1477POPC   C3A23249   2.873   3.046   8.031
 1477POPC   C4A23250   2.974   2.751   7.748
 1477POPC   C1B23251   2.840   2.651   8.693
 1477POPC   C2B23252   2.860   2.566   8.249
 1477POPC   C3B23253   2.526   2.569   7.946
 1477POPC   C4B23254   2.479   2.288   7.609
 1478POPC   NC323255  27.666  11.766   9.469
 1478POPC   PO423256  27.303  12.341   9.539
 1478POPC   GL123257  27.346  12.050   9.177
 1478POPC   GL223258  27.696  12.087   9.080
 1478POPC   C1A23259  27.357  12.129   8.723
 1478POPC   D2A23260  27.512  12.321   8.394
 1478POPC   C3A23261  27.274  12.187   8.090
 1478POPC   C4A23262  27.424  12.079   7.729
 1478POPC   C1B23263  27.907  12.101   8.684
 1478POPC   C2B23264  28.009  12.298   8.315
 1478POPC   C3B23265  27.822  12.391   7.926
 1478POPC   C4B23266  27.908  12.101   7.595
 1479POPC   NC323267  33.682  13.939  10.031
 1479POPC   PO423268  33.502  13.549   9.504
 1479POPC   GL123269  33.707  13.756   9.165
 1479POPC   GL223270  33.923  13.464   9.102
 1479POPC   C1A23271  33.813  13.766   8.717
 1479POPC   D2A23272  33.720  13.604   8.337
 1479POPC   C3A23273  33.898  13.747   7.970
 1479POPC   C4A23274  33.611  13.801   7.639
 1479POPC   C1B23275  33.707  13.244   8.712
 1479POPC   C2B23276  33.558  13.131   8.257
 1479POPC   C3B23277  33.704  13.283   7.822
 1479POPC   C4B23278  33.648  13.378   7.345
 1480POPC   NC323279   0.996  27.607   9.620
 1480POPC   PO423280   1.721  27.740   9.496
 1480POPC   GL123281   1.379  27.606   9.216
 1480POPC   GL223282   1.628  27.416   9.045
 1480POPC   C1A23283   1.061  27.759   8.890
 1480POPC   D2A23284   0.847  27.838   8.472
 1480POPC   C3A23285   1.053  27.744   8.053
 1480POPC   C4A23286   0.978  27.375   7.760
 1480POPC   C1B23287   1.494  27.578   8.685
 1480POPC   C2B23288   1.374  27.423   8.290
 1480POPC   C3B23289   1.476  27.447   7.855
 1480POPC   C4B23290   1.748  27.709   7.587
 1481POPC   NC323291   0.551  36.549  10.055
 1481POPC   PO423292   0.752  36.041   9.705
 1481POPC   GL123293   0.704  35.987   9.238
 1481POPC   GL223294   0.337  35.999   9.124
 1481POPC   C1A23295   0.710  35.958   8.772
 1481POPC   D2A23296   0.443  35.933   8.393
 1481POPC   C3A23297   0.486  36.200   8.052
 1481POPC   C4A23298   0.507  36.018   7.685
 1481POPC   C1B23299   0.062  36.041   8.747
 1481POPC   C2B23300  44.956  35.802   8.377
 1481POPC   C3B23301   0.104  35.849   7.953
 1481POPC   C4B23302   0.059  36.253   7.678
 1482POPC   NC323303  34.686  30.363   9.665
 1482POPC   PO423304  34.343  29.906   9.411
 1482POPC   GL123305  34.763  29.897   9.243
 1482POPC   GL223306  34.786  30.253   9.183
 1482POPC   C1A23307  34.855  29.768   8.833
 1482POPC   D2A23308  34.540  29.789   8.515
 1482POPC   C3A23309  34.633  29.796   8.077
 1482POPC   C4A23310  34.324  29.796   7.761
 1482POPC   C1B23311  34.984  30.264   8.838
 1482POPC   C2B23312  34.935  30.107   8.402
 1482POPC   C3B23313  34.854  30.275   7.991
 1482POPC   C4B23314  34.742  30.059   7.611
 1483POPC   NC323315   3.029  33.798   9.575
 1483POPC   PO423316   3.592  34.227   9.482
 1483POPC   GL123317   3.434  33.962   9.152
 1483POPC   GL223318   3.440  33.621   9.229
 1483POPC   C1A23319   3.582  33.832   8.741
 1483POPC   D2A23320   3.711  34.051   8.365
 1483POPC   C3A23321   3.522  33.967   7.972
 1483POPC   C4A23322   3.700  33.582   7.789
 1483POPC   C1B23323   3.219  33.484   8.846
 1483POPC   C2B23324   3.183  33.690   8.430
 1483POPC   C3B23325   3.251  33.534   8.017
 1483POPC   C4B23326   3.256  33.675   7.580
 1484POPC   NC323327   4.822  28.008   9.588
 1484POPC   PO423328   5.303  28.472   9.586
 1484POPC   GL123329   5.095  28.329   9.213
 1484POPC   GL223330   4.779  28.185   9.121
 1484POPC   C1A23331   5.035  28.546   8.838
 1484POPC   D2A23332   5.199  28.633   8.441
 1484POPC   C3A23333   4.985  28.421   8.131
 1484POPC   C4A23334   5.182  28.518   7.781
 1484POPC   C1B23335   4.932  28.030   8.749
 1484POPC   C2B23336   5.243  28.066   8.444
 1484POPC   C3B23337   5.209  27.931   8.017
 1484POPC   C4B23338   4.920  28.096   7.705
 1485POPC   NC323339  32.226  34.342   9.339
 1485POPC   PO423340  32.846  34.510   9.506
 1485POPC   GL123341  32.863  34.459   9.110
 1485POPC   GL223342  32.537  34.626   9.042
 1485POPC   C1A23343  33.213  34.465   8.833
 1485POPC   D2A23344  33.495  34.556   8.504
 1485POPC   C3A23345  33.316  34.453   8.101
 1485POPC   C4A23346  33.112  34.601   7.730
 1485POPC   C1B23347  32.756  34.652   8.653
 1485POPC   C2B23348  32.814  34.464   8.265
 1485POPC   C3B23349  32.579  34.577   7.904
 1485POPC   C4B23350  32.671  34.641   7.485
 1486POPC   NC323351  39.410  26.063   9.572
 1486POPC   PO423352  38.831  25.988   9.613
 1486POPC   GL123353  39.021  26.171   9.199
 1486POPC   GL223354  39.278  25.984   9.092
 1486POPC   C1A23355  39.035  26.224   8.695
 1486POPC   D2A23356  39.121  26.095   8.251
 1486POPC   C3A23357  39.015  26.278   7.823
 1486POPC   C4A23358  39.113  26.692   7.702
 1486POPC   C1B23359  39.299  25.758   8.736
 1486POPC   C2B23360  39.619  25.655   8.456
 1486POPC   C3B23361  39.523  25.827   8.101
 1486POPC   C4B23362  39.215  25.818   7.827
 1487POPC   NC323363  22.839  38.833   9.537
 1487POPC   PO423364  23.070  39.542   9.493
 1487POPC   GL123365  23.094  39.308   9.124
 1487POPC   GL223366  23.125  38.952   9.128
 1487POPC   C1A23367  23.098  39.243   8.683
 1487POPC   D2A23368  23.319  39.435   8.357
 1487POPC   C3A23369  23.128  39.243   8.002
 1487POPC   C4A23370  23.327  39.197   7.687
 1487POPC   C1B23371  22.706  39.020   8.928
 1487POPC   C2B23372  22.612  39.007   8.495
 1487POPC   C3B23373  22.753  38.905   8.094
 1487POPC   C4B23374  22.686  39.115   7.714
 1488POPC   NC323375   6.360  40.730   9.348
 1488POPC   PO423376   5.764  40.824   9.398
 1488POPC   GL123377   5.929  40.991   9.029
 1488POPC   GL223378   6.241  41.170   9.040
 1488POPC   C1A23379   5.894  40.853   8.597
 1488POPC   D2A23380   5.566  40.898   8.279
 1488POPC   C3A23381   5.724  40.850   7.883
 1488POPC   C4A23382   5.872  40.489   7.757
 1488POPC   C1B23383   6.084  41.324   8.669
 1488POPC   C2B23384   5.912  41.278   8.282
 1488POPC   C3B23385   6.113  41.177   7.951
 1488POPC   C4B23386   6.257  40.825   7.771
 1489POPC   NC323387  40.923   1.000   9.201
 1489POPC   PO423388  40.508   1.454   9.443
 1489POPC   GL123389  40.656   1.450   9.062
 1489POPC   GL223390  41.003   1.478   9.063
 1489POPC   C1A23391  40.705   1.315   8.641
 1489POPC   D2A23392  40.536   0.998   8.387
 1489POPC   C3A23393  40.840   0.773   8.145
 1489POPC   C4A23394  40.943   0.999   7.793
 1489POPC   C1B23395  41.217   1.386   8.715
 1489POPC   C2B23396  41.118   1.159   8.368
 1489POPC   C3B23397  41.269   1.360   8.046
 1489POPC   C4B23398  41.117   1.485   7.685
 1490POPC   NC323399  29.541  11.810   9.570
 1490POPC   PO423400  30.058  12.271   9.615
 1490POPC   GL123401  29.774  12.179   9.236
 1490POPC   GL223402  29.674  11.831   9.100
 1490POPC   C1A23403  29.921  12.149   8.805
 1490POPC   D2A23404  29.787  11.995   8.454
 1490POPC   C3A23405  29.960  12.256   8.130
 1490POPC   C4A23406  29.859  12.284   7.710
 1490POPC   C1B23407  29.885  11.610   8.835
 1490POPC   C2B23408  30.083  11.554   8.476
 1490POPC   C3B23409  30.044  11.720   8.102
 1490POPC   C4B23410  29.824  11.802   7.771
 1491POPC   NC323411  16.244   0.556   9.391
 1491POPC   PO423412  16.793   0.370   9.662
 1491POPC   GL123413  16.718   0.301   9.199
 1491POPC   GL223414  16.409   0.201   9.089
 1491POPC   C1A23415  16.638   0.566   8.796
 1491POPC   D2A23416  16.863   0.680   8.398
 1491POPC   C3A23417  16.715   0.577   7.970
 1491POPC   C4A23418  16.911   0.614   7.555
 1491POPC   C1B23419  16.540   0.069   8.729
 1491POPC   C2B23420  16.564   0.243   8.345
 1491POPC   C3B23421  16.583   0.052   7.953
 1491POPC   C4B23422  16.771   0.120   7.581
 1492POPC   NC323423  10.764  15.414   9.292
 1492POPC   PO423424  11.366  15.229   9.601
 1492POPC   GL123425  11.424  15.091   9.200
 1492POPC   GL223426  11.263  15.409   9.118
 1492POPC   C1A23427  11.246  15.016   8.809
 1492POPC   D2A23428  11.168  15.284   8.482
 1492POPC   C3A23429  11.336  15.111   8.126
 1492POPC   C4A23430  11.155  15.092   7.744
 1492POPC   C1B23431  11.508  15.507   8.783
 1492POPC   C2B23432  11.715  15.378   8.432
 1492POPC   C3B23433  11.808  15.294   8.056
 1492POPC   C4B23434  11.606  15.413   7.688
 1493POPC   NC323435  27.726  20.252   9.695
 1493POPC   PO423436  27.744  19.518   9.614
 1493POPC   GL123437  27.613  19.718   9.223
 1493POPC   GL223438  27.286  19.612   9.127
 1493POPC   C1A23439  27.565  19.953   8.831
 1493POPC   D2A23440  27.765  20.029   8.437
 1493POPC   C3A23441  27.561  19.971   8.023
 1493POPC   C4A23442  27.654  20.179   7.635
 1493POPC   C1B23443  27.477  19.439   8.751
 1493POPC   C2B23444  27.800  19.517   8.459
 1493POPC   C3B23445  27.936  19.586   8.053
 1493POPC   C4B23446  27.687  19.545   7.680
 1494POPC   NC323447   0.697   9.497   9.594
 1494POPC   PO423448   0.096   9.899   9.441
 1494POPC   GL123449   0.502   9.799   9.218
 1494POPC   GL223450   0.721  10.066   9.108
 1494POPC   C1A23451   0.776   9.594   8.896
 1494POPC   D2A23452   0.596   9.462   8.502
 1494POPC   C3A23453   0.613   9.617   8.087
 1494POPC   C4A23454   0.313   9.484   7.789
 1494POPC   C1B23455   0.458   9.968   8.742
 1494POPC   C2B23456   0.377  10.041   8.313
 1494POPC   C3B23457   0.333  10.009   7.873
 1494POPC   C4B23458   0.747  10.115   7.743
 1495POPC   NC323459  20.526  12.298   9.595
 1495POPC   PO423460  20.279  11.694   9.477
 1495POPC   GL123461  20.452  11.986   9.082
 1495POPC   GL223462  20.773  12.176   9.079
 1495POPC   C1A23463  20.583  11.937   8.624
 1495POPC   D2A23464  20.348  12.115   8.309
 1495POPC   C3A23465  20.563  12.307   8.014
 1495POPC   C4A23466  20.390  12.241   7.661
 1495POPC   C1B23467  21.036  11.823   8.810
 1495POPC   C2B23468  20.957  11.614   8.408
 1495POPC   C3B23469  20.719  11.800   8.042
 1495POPC   C4B23470  20.699  11.834   7.551
 1496POPC   NC323471  28.508  18.880   9.978
 1496POPC   PO423472  28.500  18.222   9.578
 1496POPC   GL123473  28.300  18.299   9.206
 1496POPC   GL223474  28.149  17.975   9.147
 1496POPC   C1A23475  28.273  18.379   8.782
 1496POPC   D2A23476  28.345  18.439   8.341
 1496POPC   C3A23477  28.583  18.135   8.085
 1496POPC   C4A23478  28.363  18.288   7.743
 1496POPC   C1B23479  27.889  18.051   8.814
 1496POPC   C2B23480  28.137  17.980   8.508
 1496POPC   C3B23481  28.094  18.019   8.135
 1496POPC   C4B23482  27.906  18.062   7.809
 1497POPC   NC323483   2.357   3.311   9.475
 1497POPC   PO423484   1.926   3.817   9.494
 1497POPC   GL123485   1.913   3.438   9.241
 1497POPC   GL223486   1.661   3.207   9.336
 1497POPC   C1A23487   2.101   3.352   8.843
 1497POPC   D2A23488   2.173   3.691   8.524
 1497POPC   C3A23489   2.099   3.706   8.060
 1497POPC   C4A23490   2.337   3.614   7.691
 1497POPC   C1B23491   1.558   3.283   8.894
 1497POPC   C2B23492   1.736   3.404   8.494
 1497POPC   C3B23493   1.644   3.452   8.089
 1497POPC   C4B23494   1.853   3.401   7.653
 1498POPC   NC323495  22.666  10.719   9.477
 1498POPC   PO423496  23.041  11.320   9.565
 1498POPC   GL123497  22.898  11.314   9.204
 1498POPC   GL223498  23.164  11.553   9.109
 1498POPC   C1A23499  22.814  11.199   8.826
 1498POPC   D2A23500  22.982  11.125   8.449
 1498POPC   C3A23501  22.838  11.389   8.111
 1498POPC   C4A23502  22.900  11.354   7.683
 1498POPC   C1B23503  23.294  11.422   8.727
 1498POPC   C2B23504  23.269  11.586   8.301
 1498POPC   C3B23505  23.127  11.783   7.879
 1498POPC   C4B23506  22.893  11.779   7.417
 1499POPC   NC323507  44.606  21.684   9.515
 1499POPC   PO423508  44.783  21.049   9.791
 1499POPC   GL123509  44.673  21.214   9.389
 1499POPC   GL223510  44.691  20.965   9.240
 1499POPC   C1A23511  44.520  21.371   8.949
 1499POPC   D2A23512  44.273  21.424   8.575
 1499POPC   C3A23513  44.403  21.459   8.142
 1499POPC   C4A23514  44.576  21.478   7.728
 1499POPC   C1B23515  44.911  21.039   8.868
 1499POPC   C2B23516   0.029  20.967   8.469
 1499POPC   C3B23517  44.903  20.861   8.106
 1499POPC   C4B23518  44.815  21.034   7.733
 1500POPC   NC323519  16.159  35.961   9.542
 1500POPC   PO423520  16.445  36.585   9.627
 1500POPC   GL123521  16.184  36.440   9.264
 1500POPC   GL223522  15.978  36.146   9.116
 1500POPC   C1A23523  16.189  36.468   8.805
 1500POPC   D2A23524  15.925  36.305   8.481
 1500POPC   C3A23525  15.989  36.420   8.052
 1500POPC   C4A23526  15.634  36.409   7.764
 1500POPC   C1B23527  15.828  35.848   8.812
 1500POPC   C2B23528  16.015  35.805   8.413
 1500POPC   C3B23529  15.782  35.952   8.041
 1500POPC   C4B23530  15.754  35.906   7.588
 1501POPC   NC323531   9.070  27.156   9.600
 1501POPC   PO423532   8.806  26.563   9.304
 1501POPC   GL123533   8.812  26.947   9.193
 1501POPC   GL223534   9.135  26.960   9.133
 1501POPC   C1A23535   8.697  26.976   8.782
 1501POPC   D2A23536   8.578  26.715   8.452
 1501POPC   C3A23537   8.696  26.945   8.097
 1501POPC   C4A23538   8.809  26.754   7.749
 1501POPC   C1B23539   9.232  26.818   8.776
 1501POPC   C2B23540   9.079  26.918   8.432
 1501POPC   C3B23541   9.217  26.936   8.047
 1501POPC   C4B23542   9.313  26.675   7.723
 1502POPC   NC323543   2.222  21.990   9.428
 1502POPC   PO423544   2.661  22.393   9.624
 1502POPC   GL123545   2.771  22.416   9.139
 1502POPC   GL223546   2.474  22.313   9.072
 1502POPC   C1A23547   2.826  22.170   8.742
 1502POPC   D2A23548   2.571  22.113   8.350
 1502POPC   C3A23549   2.852  21.998   8.029
 1502POPC   C4A23550   2.836  21.897   7.602
 1502POPC   C1B23551   2.409  22.488   8.660
 1502POPC   C2B23552   2.507  22.640   8.246
 1502POPC   C3B23553   2.465  22.357   7.878
 1502POPC   C4B23554   2.268  22.271   7.477
 1503POPC   NC323555  11.003  40.911   9.304
 1503POPC   PO423556  11.542  40.439   9.528
 1503POPC   GL123557  11.411  40.688   9.151
 1503POPC   GL223558  11.605  40.999   9.038
 1503POPC   C1A23559  11.242  40.752   8.728
 1503POPC   D2A23560  11.219  40.454   8.425
 1503POPC   C3A23561  11.257  40.606   8.057
 1503POPC   C4A23562  11.183  40.757   7.681
 1503POPC   C1B23563  11.552  41.191   8.662
 1503POPC   C2B23564  11.354  41.122   8.267
 1503POPC   C3B23565  11.592  40.946   7.939
 1503POPC   C4B23566  11.811  40.885   7.608
 1504POPC   NC323567   2.272  12.849   9.836
 1504POPC   PO423568   1.753  13.078   9.395
 1504POPC   GL123569   1.834  13.086   9.028
 1504POPC   GL223570   1.942  12.750   9.060
 1504POPC   C1A23571   1.958  13.148   8.632
 1504POPC   D2A23572   2.049  12.863   8.316
 1504POPC   C3A23573   2.337  12.946   8.009
 1504POPC   C4A23574   2.203  12.951   7.584
 1504POPC   C1B23575   1.977  12.494   8.694
 1504POPC   C2B23576   1.734  12.469   8.311
 1504POPC   C3B23577   1.971  12.516   7.896
 1504POPC   C4B23578   1.937  12.542   7.440
 1505POPC   NC323579  31.986  43.181   9.510
 1505POPC   PO423580  32.585  42.925   9.390
 1505POPC   GL123581  32.295  43.036   9.108
 1505POPC   GL223582  32.290  43.389   9.126
 1505POPC   C1A23583  32.336  43.118   8.669
 1505POPC   D2A23584  32.555  43.234   8.293
 1505POPC   C3A23585  32.375  42.975   7.996
 1505POPC   C4A23586  32.051  42.748   7.817
 1505POPC   C1B23587  32.060  43.551   8.775
 1505POPC   C2B23588  32.106  43.499   8.329
 1505POPC   C3B23589  32.108  43.405   7.890
 1505POPC   C4B23590  32.146  43.514   7.439
 1506POPC   NC323591  24.025  42.874   9.388
 1506POPC   PO423592  23.418  43.116   9.550
 1506POPC   GL123593  23.621  43.139   9.181
 1506POPC   GL223594  23.371  43.348   9.063
 1506POPC   C1A23595  23.840  43.166   8.795
 1506POPC   D2A23596  23.748  43.071   8.413
 1506POPC   C3A23597  23.784  43.263   8.014
 1506POPC   C4A23598  23.797  42.833   7.861
 1506POPC   C1B23599  23.361  42.980   8.764
 1506POPC   C2B23600  23.262  43.067   8.306
 1506POPC   C3B23601  23.293  43.269   7.935
 1506POPC   C4B23602  23.502  43.131   7.567
 1507POPC   NC323603  44.170  40.378   9.461
 1507POPC   PO423604  43.646  39.888   9.576
 1507POPC   GL123605  43.808  40.095   9.235
 1507POPC   GL223606  43.703  40.440   9.249
 1507POPC   C1A23607  44.031  40.090   8.850
 1507POPC   D2A23608  43.858  39.939   8.478
 1507POPC   C3A23609  44.083  39.841   8.089
 1507POPC   C4A23610  43.828  39.704   7.741
 1507POPC   C1B23611  43.643  40.449   8.848
 1507POPC   C2B23612  43.882  40.478   8.498
 1507POPC   C3B23613  43.822  40.288   8.117
 1507POPC   C4B23614  43.987  40.208   7.752
 1508POPC   NC323615  15.797  44.667   9.480
 1508POPC   PO423616  16.390  44.455   9.672
 1508POPC   GL123617  16.203  44.452   9.214
 1508POPC   GL223618  16.110  44.789   9.124
 1508POPC   C1A23619  15.906  44.472   8.791
 1508POPC   D2A23620  16.044  44.398   8.380
 1508POPC   C3A23621  15.784  44.513   8.041
 1508POPC   C4A23622  15.655  44.323   7.666
 1508POPC   C1B23623  16.049  44.960   8.755
 1508POPC   C2B23624  15.934  44.908   8.370
 1508POPC   C3B23625  16.065  44.955   7.974
 1508POPC   C4B23626  15.791  44.843   7.626
 1509POPC   NC323627   2.365  43.571   9.509
 1509POPC   PO423628   1.957  44.138   9.467
 1509POPC   GL123629   2.100  44.053   9.121
 1509POPC   GL223630   2.015  43.744   9.173
 1509POPC   C1A23631   1.894  44.015   8.752
 1509POPC   D2A23632   2.007  43.882   8.408
 1509POPC   C3A23633   1.995  44.137   8.107
 1509POPC   C4A23634   1.913  43.997   7.712
 1509POPC   C1B23635   2.188  43.591   8.825
 1509POPC   C2B23636   2.167  43.401   8.425
 1509POPC   C3B23637   2.032  43.542   8.012
 1509POPC   C4B23638   2.149  43.567   7.590
 1510POPC   NC323639  15.325  10.860   9.409
 1510POPC   PO423640  14.901  10.423   9.596
 1510POPC   GL123641  14.974  10.525   9.138
 1510POPC   GL223642  15.203  10.778   8.941
 1510POPC   C1A23643  15.071  10.342   8.727
 1510POPC   D2A23644  15.290  10.583   8.443
 1510POPC   C3A23645  15.257  10.328   8.142
 1510POPC   C4A23646  15.221  10.335   7.763
 1510POPC   C1B23647  15.274  11.069   8.613
 1510POPC   C2B23648  14.935  10.991   8.322
 1510POPC   C3B23649  15.015  10.791   7.950
 1510POPC   C4B23650  15.396  10.821   7.767
 1511POPC   NC323651  32.655  17.163   9.545
 1511POPC   PO423652  33.132  17.628   9.596
 1511POPC   GL123653  32.839  17.548   9.246
 1511POPC   GL223654  32.979  17.201   9.159
 1511POPC   C1A23655  32.848  17.533   8.797
 1511POPC   D2A23656  33.205  17.663   8.536
 1511POPC   C3A23657  33.154  17.662   8.104
 1511POPC   C4A23658  32.943  17.383   7.849
 1511POPC   C1B23659  33.330  17.339   8.910
 1511POPC   C2B23660  33.564  17.278   8.502
 1511POPC   C3B23661  33.439  17.231   8.067
 1511POPC   C4B23662  33.307  17.107   7.626
 1512POPC   NC323663  10.205  28.268   9.420
 1512POPC   PO423664  10.902  28.425   9.461
 1512POPC   GL123665  10.736  28.501   9.050
 1512POPC   GL223666  10.472  28.209   8.966
 1512POPC   C1A23667  10.731  28.466   8.606
 1512POPC   D2A23668  10.602  28.142   8.338
 1512POPC   C3A23669  10.739  28.383   7.993
 1512POPC   C4A23670  10.616  28.535   7.626
 1512POPC   C1B23671  10.222  28.482   8.698
 1512POPC   C2B23672  10.230  28.480   8.242
 1512POPC   C3B23673  10.234  28.268   7.863
 1512POPC   C4B23674  10.186  28.328   7.419
 1513POPC   NC323675  30.842  20.933   9.377
 1513POPC   PO423676  30.669  21.679   9.445
 1513POPC   GL123677  30.820  21.512   9.069
 1513POPC   GL223678  31.128  21.295   9.103
 1513POPC   C1A23679  30.773  21.351   8.656
 1513POPC   D2A23680  30.710  20.985   8.410
 1513POPC   C3A23681  30.701  21.078   7.985
 1513POPC   C4A23682  30.511  21.460   7.780
 1513POPC   C1B23683  31.243  21.551   8.737
 1513POPC   C2B23684  31.258  21.421   8.301
 1513POPC   C3B23685  30.932  21.544   8.048
 1513POPC   C4B23686  30.909  21.781   7.651
 1514POPC   NC323687  40.959  40.107   9.773
 1514POPC   PO423688  40.579  39.763   9.476
 1514POPC   GL123689  40.779  39.947   9.103
 1514POPC   GL223690  41.058  39.904   9.252
 1514POPC   C1A23691  40.752  40.278   8.765
 1514POPC   D2A23692  40.552  40.463   8.414
 1514POPC   C3A23693  40.581  40.220   8.110
 1514POPC   C4A23694  40.915  40.283   7.859
 1514POPC   C1B23695  41.146  39.939   8.770
 1514POPC   C2B23696  41.001  40.011   8.309
 1514POPC   C3B23697  40.794  39.796   7.897
 1514POPC   C4B23698  40.984  39.540   7.563
 1515POPC   NC323699  32.515  29.643   9.368
 1515POPC   PO423700  32.354  30.317   9.490
 1515POPC   GL123701  32.320  30.073   9.128
 1515POPC   GL223702  32.019  29.848   9.142
 1515POPC   C1A23703  32.352  29.965   8.702
 1515POPC   D2A23704  32.158  30.166   8.355
 1515POPC   C3A23705  32.306  30.023   7.956
 1515POPC   C4A23706  32.632  29.779   7.763
 1515POPC   C1B23707  31.826  30.061   8.761
 1515POPC   C2B23708  31.728  29.898   8.336
 1515POPC   C3B23709  31.795  30.027   7.925
 1515POPC   C4B23710  31.696  29.934   7.504
 1516POPC   NC323711   1.824  18.842   9.555
 1516POPC   PO423712   2.392  19.004   9.362
 1516POPC   GL123713   2.049  19.114   9.095
 1516POPC   GL223714   1.765  18.939   9.072
 1516POPC   C1A23715   1.993  19.091   8.657
 1516POPC   D2A23716   2.278  19.157   8.367
 1516POPC   C3A23717   2.056  19.079   8.031
 1516POPC   C4A23718   2.141  18.855   7.689
 1516POPC   C1B23719   1.664  18.679   8.724
 1516POPC   C2B23720   1.738  18.778   8.285
 1516POPC   C3B23721   1.652  18.846   7.817
 1516POPC   C4B23722   1.768  18.755   7.336
 1517POPC   NC323723  17.646  35.944   9.546
 1517POPC   PO423724  17.324  36.519   9.484
 1517POPC   GL123725  17.488  36.231   9.144
 1517POPC   GL223726  17.851  36.076   9.096
 1517POPC   C1A23727  17.434  36.339   8.740
 1517POPC   D2A23728  17.221  36.299   8.405
 1517POPC   C3A23729  17.454  36.303   8.039
 1517POPC   C4A23730  17.209  36.258   7.691
 1517POPC   C1B23731  17.676  35.901   8.715
 1517POPC   C2B23732  17.527  35.878   8.304
 1517POPC   C3B23733  17.667  35.855   7.867
 1517POPC   C4B23734  17.734  36.167   7.480
 1518POPC   NC323735  38.752   9.272   9.874
 1518POPC   PO423736  38.251   9.541   9.438
 1518POPC   GL123737  38.517   9.635   9.049
 1518POPC   GL223738  38.585   9.986   8.947
 1518POPC   C1A23739  38.520   9.398   8.661
 1518POPC   D2A23740  38.636   9.673   8.384
 1518POPC   C3A23741  38.530   9.806   7.983
 1518POPC   C4A23742  38.876  10.070   7.884
 1518POPC   C1B23743  38.218   9.816   8.687
 1518POPC   C2B23744  38.112   9.545   8.330
 1518POPC   C3B23745  38.067   9.625   7.868
 1518POPC   C4B23746  38.113  10.047   7.702
 1519POPC   NC323747  24.333  24.288   9.566
 1519POPC   PO423748  24.721  24.794   9.510
 1519POPC   GL123749  24.771  24.399   9.265
 1519POPC   GL223750  24.460  24.491   9.114
 1519POPC   C1A23751  24.765  24.207   8.835
 1519POPC   D2A23752  24.499  24.220   8.461
 1519POPC   C3A23753  24.660  24.237   8.048
 1519POPC   C4A23754  24.666  24.292   7.627
 1519POPC   C1B23755  24.569  24.658   8.714
 1519POPC   C2B23756  24.729  24.712   8.304
 1519POPC   C3B23757  24.616  24.755   7.890
 1519POPC   C4B23758  24.257  24.522   7.796
 1520POPC   NC323759  38.439   2.254   9.337
 1520POPC   PO423760  38.573   2.904   9.546
 1520POPC   GL123761  38.660   2.892   9.114
 1520POPC   GL223762  38.589   2.583   8.973
 1520POPC   C1A23763  38.667   3.031   8.695
 1520POPC   D2A23764  38.413   2.998   8.351
 1520POPC   C3A23765  38.615   2.774   8.074
 1520POPC   C4A23766  38.459   2.775   7.684
 1520POPC   C1B23767  38.504   2.524   8.555
 1520POPC   C2B23768  38.368   2.214   8.245
 1520POPC   C3B23769  38.537   2.302   7.856
 1520POPC   C4B23770  38.800   2.344   7.509
 1521POPC   NC323771  12.291   8.883   9.595
 1521POPC   PO423772  11.778   9.247   9.468
 1521POPC   GL123773  12.126   9.141   9.168
 1521POPC   GL223774  12.115   8.775   9.133
 1521POPC   C1A23775  12.047   9.080   8.716
 1521POPC   D2A23776  11.664   9.063   8.460
 1521POPC   C3A23777  11.740   9.261   8.079
 1521POPC   C4A23778  12.212   9.340   7.967
 1521POPC   C1B23779  11.883   8.587   8.810
 1521POPC   C2B23780  11.957   8.641   8.386
 1521POPC   C3B23781  12.028   8.851   8.039
 1521POPC   C4B23782  12.348   8.886   7.785
 1522POPC   NC323783  35.548  12.513   9.718
 1522POPC   PO423784  35.327  13.038   9.631
 1522POPC   GL123785  35.314  13.221   9.225
 1522POPC   GL223786  34.997  13.153   9.156
 1522POPC   C1A23787  35.491  13.235   8.815
 1522POPC   D2A23788  35.540  12.896   8.496
 1522POPC   C3A23789  35.435  12.963   8.051
 1522POPC   C4A23790  35.345  12.981   7.607
 1522POPC   C1B23791  35.059  12.953   8.722
 1522POPC   C2B23792  35.002  12.843   8.265
 1522POPC   C3B23793  35.168  12.558   7.915
 1522POPC   C4B23794  35.243  12.480   7.458
 1523POPC   NC323795  23.694   5.423   9.485
 1523POPC   PO423796  24.195   5.618   9.142
 1523POPC   GL123797  23.814   5.554   8.936
 1523POPC   GL223798  23.646   5.245   9.010
 1523POPC   C1A23799  23.688   5.462   8.518
 1523POPC   D2A23800  23.699   5.087   8.268
 1523POPC   C3A23801  23.811   5.115   7.845
 1523POPC   C4A23802  23.925   4.888   7.485
 1523POPC   C1B23803  23.335   5.129   8.714
 1523POPC   C2B23804  23.233   5.252   8.324
 1523POPC   C3B23805  23.265   5.035   7.943
 1523POPC   C4B23806  23.415   5.185   7.533
 1524POPC   NC323807  37.329  29.022   9.410
 1524POPC   PO423808  37.949  29.126   9.794
 1524POPC   GL123809  37.781  29.224   9.334
 1524POPC   GL223810  37.753  28.876   9.178
 1524POPC   C1A23811  37.759  29.230   8.818
 1524POPC   D2A23812  38.046  29.218   8.406
 1524POPC   C3A23813  37.827  29.172   8.005
 1524POPC   C4A23814  37.396  29.261   7.846
 1524POPC   C1B23815  37.459  28.806   8.817
 1524POPC   C2B23816  37.402  29.020   8.419
 1524POPC   C3B23817  37.481  28.789   8.053
 1524POPC   C4B23818  37.359  28.746   7.650
 1525POPC   NC323819  14.695  12.449   9.292
 1525POPC   PO423820  14.402  12.905   9.665
 1525POPC   GL123821  14.323  12.851   9.206
 1525POPC   GL223822  14.010  12.686   9.069
 1525POPC   C1A23823  14.517  13.028   8.824
 1525POPC   D2A23824  14.645  12.841   8.411
 1525POPC   C3A23825  14.478  13.029   8.011
 1525POPC   C4A23826  14.501  13.122   7.556
 1525POPC   C1B23827  14.254  12.609   8.698
 1525POPC   C2B23828  14.249  12.512   8.270
 1525POPC   C3B23829  14.310  12.546   7.850
 1525POPC   C4B23830  14.035  12.656   7.545
 1526POPC   NC323831  32.790  22.746   9.359
 1526POPC   PO423832  32.819  23.395   9.319
 1526POPC   GL123833  33.160  23.136   9.134
 1526POPC   GL223834  33.323  22.824   9.254
 1526POPC   C1A23835  33.083  22.918   8.736
 1526POPC   D2A23836  32.929  22.671   8.389
 1526POPC   C3A23837  33.102  22.880   8.018
 1526POPC   C4A23838  32.833  23.154   7.779
 1526POPC   C1B23839  33.523  22.719   8.853
 1526POPC   C2B23840  33.430  22.526   8.420
 1526POPC   C3B23841  33.187  22.370   8.064
 1526POPC   C4B23842  33.229  22.527   7.644
 1527POPC   NC323843  14.712  40.103   9.626
 1527POPC   PO423844  14.101  40.392   9.447
 1527POPC   GL123845  14.397  40.113   9.193
 1527POPC   GL223846  14.151  40.004   8.941
 1527POPC   C1A23847  14.640  39.983   8.815
 1527POPC   D2A23848  14.484  39.954   8.418
 1527POPC   C3A23849  14.676  39.834   8.043
 1527POPC   C4A23850  14.527  39.805   7.648
 1527POPC   C1B23851  14.088  40.306   8.623
 1527POPC   C2B23852  14.099  40.313   8.166
 1527POPC   C3B23853  14.123  40.178   7.696
 1527POPC   C4B23854  13.990  40.275   7.234
 1528POPC   NC323855  34.419  28.686   9.521
 1528POPC   PO423856  34.411  28.004   9.718
 1528POPC   GL123857  34.504  28.222   9.291
 1528POPC   GL223858  34.773  28.535   9.173
 1528POPC   C1A23859  34.370  28.203   8.853
 1528POPC   D2A23860  34.314  28.449   8.471
 1528POPC   C3A23861  34.341  28.270   8.094
 1528POPC   C4A23862  34.624  28.156   7.808
 1528POPC   C1B23863  34.830  28.776   8.757
 1528POPC   C2B23864  34.711  28.722   8.310
 1528POPC   C3B23865  34.858  28.590   7.902
 1528POPC   C4B23866  34.808  28.497   7.465
 1529POPC   NC323867  43.830  35.135   9.598
 1529POPC   PO423868  43.717  35.743   9.612
 1529POPC   GL123869  43.850  35.514   9.196
 1529POPC   GL223870  43.882  35.157   9.071
 1529POPC   C1A23871  43.876  35.526   8.711
 1529POPC   D2A23872  43.629  35.485   8.303
 1529POPC   C3A23873  43.755  35.408   7.885
 1529POPC   C4A23874  44.173  35.412   7.744
 1529POPC   C1B23875  43.803  35.038   8.603
 1529POPC   C2B23876  43.991  35.058   8.166
 1529POPC   C3B23877  44.002  34.951   7.697
 1529POPC   C4B23878  43.844  34.977   7.277
 1530POPC   NC323879  44.723  38.944   9.622
 1530POPC   PO423880  44.819  38.323   9.766
 1530POPC   GL123881  44.754  38.534   9.330
 1530POPC   GL223882  44.477  38.803   9.187
 1530POPC   C1A23883  44.908  38.448   8.932
 1530POPC   D2A23884  44.805  38.360   8.517
 1530POPC   C3A23885   0.009  38.443   8.143
 1530POPC   C4A23886  44.827  38.254   7.786
 1530POPC   C1B23887  44.619  38.825   8.723
 1530POPC   C2B23888  44.578  38.757   8.252
 1530POPC   C3B23889  44.483  38.707   7.805
 1530POPC   C4B23890  44.232  38.803   7.407
 1531POPC   NC323891   7.933  24.494   9.462
 1531POPC   PO423892   8.599  24.413   9.453
 1531POPC   GL123893   8.290  24.390   9.131
 1531POPC   GL223894   8.096  24.063   9.158
 1531POPC   C1A23895   7.991  24.577   8.786
 1531POPC   D2A23896   8.144  24.786   8.368
 1531POPC   C3A23897   8.176  24.518   7.976
 1531POPC   C4A23898   7.928  24.669   7.664
 1531POPC   C1B23899   8.236  24.138   8.718
 1531POPC   C2B23900   8.009  24.267   8.375
 1531POPC   C3B23901   7.809  24.084   8.035
 1531POPC   C4B23902   7.950  24.172   7.628
 1532POPC   NC323903  14.575  37.487   9.557
 1532POPC   PO423904  14.592  38.061   9.229
 1532POPC   GL123905  14.307  37.848   8.997
 1532POPC   GL223906  14.197  37.597   9.223
 1532POPC   C1A23907  14.339  37.796   8.568
 1532POPC   D2A23908  14.677  37.599   8.320
 1532POPC   C3A23909  14.644  37.842   7.982
 1532POPC   C4A23910  14.695  37.990   7.609
 1532POPC   C1B23911  14.073  37.392   8.875
 1532POPC   C2B23912  14.323  37.301   8.563
 1532POPC   C3B23913  14.259  37.357   8.159
 1532POPC   C4B23914  14.158  37.679   7.902
 1533POPC   NC323915  31.647  39.429   9.479
 1533POPC   PO423916  31.219  38.978   9.433
 1533POPC   GL123917  31.331  39.149   9.057
 1533POPC   GL223918  31.248  39.484   9.054
 1533POPC   C1A23919  31.551  38.973   8.706
 1533POPC   D2A23920  31.677  39.088   8.306
 1533POPC   C3A23921  31.345  39.225   8.058
 1533POPC   C4A23922  31.329  39.227   7.622
 1533POPC   C1B23923  31.531  39.547   8.683
 1533POPC   C2B23924  31.807  39.595   8.305
 1533POPC   C3B23925  31.715  39.540   7.832
 1533POPC   C4B23926  31.778  39.484   7.339
 1534POPC   NC323927  43.288   7.643   9.440
 1534POPC   PO423928  42.793   7.129   9.358
 1534POPC   GL123929  42.929   7.513   9.107
 1534POPC   GL223930  43.293   7.401   8.996
 1534POPC   C1A23931  43.024   7.746   8.725
 1534POPC   D2A23932  43.191   7.505   8.388
 1534POPC   C3A23933  43.021   7.415   7.957
 1534POPC   C4A23934  42.874   6.966   7.854
 1534POPC   C1B23935  43.511   7.776   8.794
 1534POPC   C2B23936  43.451   7.948   8.354
 1534POPC   C3B23937  43.496   7.642   8.011
 1534POPC   C4B23938  43.588   7.457   7.629
 1535POPC   NC323939  30.653  34.927   9.570
 1535POPC   PO423940  30.818  34.340   9.338
 1535POPC   GL123941  30.634  34.671   9.129
 1535POPC   GL223942  30.946  34.829   9.161
 1535POPC   C1A23943  30.524  34.739   8.718
 1535POPC   D2A23944  30.686  34.422   8.438
 1535POPC   C3A23945  30.510  34.406   8.053
 1535POPC   C4A23946  30.311  34.692   7.796
 1535POPC   C1B23947  31.022  34.685   8.749
 1535POPC   C2B23948  30.918  34.867   8.368
 1535POPC   C3B23949  30.867  34.754   7.948
 1535POPC   C4B23950  31.042  34.749   7.531
 1536POPC   NC323951  27.454  35.739   9.670
 1536POPC   PO423952  27.955  36.193   9.614
 1536POPC   GL123953  27.548  36.186   9.338
 1536POPC   GL223954  27.416  35.869   9.176
 1536POPC   C1A23955  27.422  36.291   8.905
 1536POPC   D2A23956  27.679  36.275   8.523
 1536POPC   C3A23957  27.521  36.095   8.156
 1536POPC   C4A23958  27.385  36.270   7.778
 1536POPC   C1B23959  27.674  35.849   8.823
 1536POPC   C2B23960  27.812  35.763   8.408
 1536POPC   C3B23961  27.917  35.793   7.960
 1536POPC   C4B23962  27.891  36.189   7.768
 1537POPC   NC323963  44.141  29.194   9.626
 1537POPC   PO423964  43.496  29.362   9.589
 1537POPC   GL123965  43.822  29.259   9.221
 1537POPC   GL223966  44.205  29.407   9.186
 1537POPC   C1A23967  43.761  28.952   8.874
 1537POPC   D2A23968  43.916  28.897   8.446
 1537POPC   C3A23969  43.719  29.048   8.063
 1537POPC   C4A23970  43.860  28.958   7.641
 1537POPC   C1B23971  44.148  29.266   8.768
 1537POPC   C2B23972  44.026  29.393   8.359
 1537POPC   C3B23973  44.186  29.228   7.977
 1537POPC   C4B23974  44.337  29.372   7.606
 1538POPC   NC323975  42.982  41.005   9.470
 1538POPC   PO423976  43.662  40.887   9.530
 1538POPC   GL123977  43.334  40.803   9.168
 1538POPC   GL223978  43.086  40.567   9.132
 1538POPC   C1A23979  43.082  40.998   8.824
 1538POPC   D2A23980  43.142  41.199   8.437
 1538POPC   C3A23981  43.057  40.925   8.126
 1538POPC   C4A23982  42.981  40.833   7.759
 1538POPC   C1B23983  42.787  40.567   8.799
 1538POPC   C2B23984  43.028  40.551   8.448
 1538POPC   C3B23985  43.086  40.377   8.035
 1538POPC   C4B23986  42.969  40.355   7.595
 1539POPC   NC323987   4.790  40.309   9.699
 1539POPC   PO423988   5.228  39.889   9.392
 1539POPC   GL123989   4.877  40.010   9.125
 1539POPC   GL223990   4.704  40.355   9.121
 1539POPC   C1A23991   5.034  39.973   8.712
 1539POPC   D2A23992   5.125  40.195   8.349
 1539POPC   C3A23993   5.223  39.900   8.063
 1539POPC   C4A23994   5.316  40.125   7.709
 1539POPC   C1B23995   4.550  40.091   8.733
 1539POPC   C2B23996   4.710  39.901   8.308
 1539POPC   C3B23997   4.794  40.101   7.880
 1539POPC   C4B23998   4.894  39.983   7.458
 1540POPC   NC323999  35.857  26.366   9.407
 1540POPC   PO424000  36.433  26.068   9.603
 1540POPC   GL124001  36.205  26.037   9.207
 1540POPC   GL224002  36.110  26.346   8.967
 1540POPC   C1A24003  36.223  25.867   8.801
 1540POPC   D2A24004  36.147  26.033   8.385
 1540POPC   C3A24005  35.957  25.870   8.023
 1540POPC   C4A24006  36.128  26.018   7.627
 1540POPC   C1B24007  35.774  26.165   8.742
 1540POPC   C2B24008  35.661  26.212   8.326
 1540POPC   C3B24009  35.704  26.311   7.898
 1540POPC   C4B24010  35.685  26.232   7.451
 1541POPC   NC324011  20.091  37.740   9.504
 1541POPC   PO424012  19.506  37.937   9.520
 1541POPC   GL124013  19.498  37.844   9.084
 1541POPC   GL224014  19.798  37.637   9.060
 1541POPC   C1A24015  19.474  37.677   8.659
 1541POPC   D2A24016  19.729  37.807   8.307
 1541POPC   C3A24017  19.801  37.579   7.955
 1541POPC   C4A24018  19.740  37.470   7.565
 1541POPC   C1B24019  20.014  37.446   8.727
 1541POPC   C2B24020  20.103  37.416   8.326
 1541POPC   C3B24021  20.200  37.256   7.944
 1541POPC   C4B24022  20.230  37.526   7.622
 1542POPC   NC324023  38.090   8.535   9.737
 1542POPC   PO424024  38.247   7.907   9.551
 1542POPC   GL124025  38.560   8.003   9.255
 1542POPC   GL224026  38.430   8.328   9.153
 1542POPC   C1A24027  38.611   8.040   8.808
 1542POPC   D2A24028  38.757   8.225   8.436
 1542POPC   C3A24029  38.546   8.017   8.113
 1542POPC   C4A24030  38.539   7.916   7.689
 1542POPC   C1B24031  38.207   8.314   8.709
 1542POPC   C2B24032  38.296   8.439   8.307
 1542POPC   C3B24033  38.438   8.460   7.894
 1542POPC   C4B24034  38.217   8.734   7.673
 1543POPC   NC324035  41.718  43.738   9.629
 1543POPC   PO424036  41.075  43.920   9.567
 1543POPC   GL124037  41.245  43.778   9.178
 1543POPC   GL224038  41.453  43.466   9.250
 1543POPC   C1A24039  41.351  44.009   8.798
 1543POPC   D2A24040  41.517  43.908   8.407
 1543POPC   C3A24041  41.427  44.052   7.994
 1543POPC   C4A24042  41.476  43.969   7.531
 1543POPC   C1B24043  41.687  43.381   8.872
 1543POPC   C2B24044  41.848  43.517   8.464
 1543POPC   C3B24045  41.814  43.684   8.027
 1543POPC   C4B24046  41.889  43.696   7.556
 1544POPC   NC324047  40.033  44.462   9.509
 1544POPC   PO424048  40.060   0.104   9.611
 1544POPC   GL124049  39.891  44.858   9.234
 1544POPC   GL224050  40.234  44.829   9.198
 1544POPC   C1A24051  39.963  44.608   8.812
 1544POPC   D2A24052  40.108  44.399   8.413
 1544POPC   C3A24053  39.952  44.448   7.995
 1544POPC   C4A24054  40.048  44.577   7.567
 1544POPC   C1B24055  40.191   0.086   8.807
 1544POPC   C2B24056  39.983  44.942   8.401
 1544POPC   C3B24057  40.055  44.948   7.946
 1544POPC   C4B24058  40.164   0.069   7.509
 1545POPC   NC324059  27.465  25.362   9.530
 1545POPC   PO424060  28.058  25.070   9.353
 1545POPC   GL124061  27.686  25.190   9.085
 1545POPC   GL224062  27.292  25.138   9.114
 1545POPC   C1A24063  27.591  24.946   8.726
 1545POPC   D2A24064  27.492  25.107   8.357
 1545POPC   C3A24065  27.756  25.115   8.033
 1545POPC   C4A24066  27.639  25.467   7.837
 1545POPC   C1B24067  27.269  25.390   8.739
 1545POPC   C2B24068  27.042  25.519   8.361
 1545POPC   C3B24069  27.163  25.581   7.953
 1545POPC   C4B24070  27.181  25.407   7.543
 1546POPC   NC324071  30.380  37.108   9.375
 1546POPC   PO424072  29.701  37.053   9.556
 1546POPC   GL124073  29.640  36.855   9.151
 1546POPC   GL224074  29.979  36.929   9.102
 1546POPC   C1A24075  29.625  36.885   8.704
 1546POPC   D2A24076  29.751  37.200   8.369
 1546POPC   C3A24077  29.921  36.980   8.025
 1546POPC   C4A24078  29.783  36.600   7.770
 1546POPC   C1B24079  30.112  37.049   8.721
 1546POPC   C2B24080  30.391  36.895   8.445
 1546POPC   C3B24081  30.437  36.908   8.032
 1546POPC   C4B24082  30.253  36.770   7.673
 1547POPC   NC324083  25.784   9.334   9.410
 1547POPC   PO424084  26.317   9.770   9.501
 1547POPC   GL124085  26.098   9.659   9.137
 1547POPC   GL224086  26.328   9.412   9.033
 1547POPC   C1A24087  25.967   9.857   8.741
 1547POPC   D2A24088  25.958   9.702   8.319
 1547POPC   C3A24089  25.800   9.885   7.913
 1547POPC   C4A24090  25.696  10.023   7.468
 1547POPC   C1B24091  26.470   9.775   8.768
 1547POPC   C2B24092  26.452   9.869   8.315
 1547POPC   C3B24093  26.259   9.683   7.908
 1547POPC   C4B24094  26.055   9.686   7.471
 1548POPC   NC324095  16.395  38.587   9.452
 1548POPC   PO424096  16.955  38.868   9.584
 1548POPC   GL124097  17.004  38.673   9.175
 1548POPC   GL224098  16.741  38.429   9.112
 1548POPC   C1A24099  16.966  38.878   8.765
 1548POPC   D2A24100  17.048  38.747   8.344
 1548POPC   C3A24101  16.751  38.505   8.093
 1548POPC   C4A24102  16.526  38.484   7.694
 1548POPC   C1B24103  17.079  38.211   8.918
 1548POPC   C2B24104  17.156  38.146   8.495
 1548POPC   C3B24105  16.977  37.966   8.137
 1548POPC   C4B24106  16.916  38.162   7.751
 1549POPC   NC324107  13.859  21.785   9.626
 1549POPC   PO424108  13.360  22.251   9.745
 1549POPC   GL124109  13.519  22.318   9.275
 1549POPC   GL224110  13.727  22.073   9.159
 1549POPC   C1A24111  13.447  22.534   8.833
 1549POPC   D2A24112  13.624  22.476   8.398
 1549POPC   C3A24113  13.414  22.450   8.012
 1549POPC   C4A24114  13.541  22.296   7.642
 1549POPC   C1B24115  13.891  22.263   8.789
 1549POPC   C2B24116  14.156  22.061   8.488
 1549POPC   C3B24117  14.032  22.006   8.077
 1549POPC   C4B24118  13.908  21.926   7.675
 1550POPC   NC324119  30.775  18.844   9.411
 1550POPC   PO424120  30.410  19.517   9.516
 1550POPC   GL124121  30.547  19.266   9.162
 1550POPC   GL224122  30.241  19.128   9.042
 1550POPC   C1A24123  30.867  19.162   8.829
 1550POPC   D2A24124  31.008  19.303   8.432
 1550POPC   C3A24125  30.980  18.959   8.132
 1550POPC   C4A24126  30.790  19.040   7.747
 1550POPC   C1B24127  30.446  18.905   8.715
 1550POPC   C2B24128  30.523  19.110   8.336
 1550POPC   C3B24129  30.333  19.016   7.956
 1550POPC   C4B24130  30.317  18.883   7.526
 1551POPC   NC324131  35.149   1.374   9.412
 1551POPC   PO424132  35.705   1.007   9.514
 1551POPC   GL124133  35.371   0.910   9.196
 1551POPC   GL224134  35.273   1.208   8.971
 1551POPC   C1A24135  35.444   0.805   8.751
 1551POPC   D2A24136  35.382   1.155   8.448
 1551POPC   C3A24137  35.404   1.027   8.057
 1551POPC   C4A24138  35.390   0.891   7.652
 1551POPC   C1B24139  35.515   1.521   8.797
 1551POPC   C2B24140  35.615   1.669   8.419
 1551POPC   C3B24141  35.462   1.541   8.032
 1551POPC   C4B24142  35.633   1.340   7.699
 1552POPC   NC324143  12.818  25.516   9.554
 1552POPC   PO424144  12.733  24.863   9.463
 1552POPC   GL124145  12.708  25.188   9.170
 1552POPC   GL224146  12.453  25.457   9.183
 1552POPC   C1A24147  12.787  25.125   8.774
 1552POPC   D2A24148  13.017  25.007   8.459
 1552POPC   C3A24149  12.876  25.156   8.072
 1552POPC   C4A24150  13.062  25.380   7.734
 1552POPC   C1B24151  12.641  25.615   8.825
 1552POPC   C2B24152  12.780  25.523   8.414
 1552POPC   C3B24153  12.738  25.689   7.986
 1552POPC   C4B24154  12.710  25.797   7.530
 1553POPC   NC324155  24.987  12.459   9.504
 1553POPC   PO424156  25.588  12.231   9.500
 1553POPC   GL124157  25.261  12.212   9.117
 1553POPC   GL224158  24.883  12.310   9.026
 1553POPC   C1A24159  25.169  11.854   8.825
 1553POPC   D2A24160  25.463  11.634   8.519
 1553POPC   C3A24161  25.521  11.701   8.071
 1553POPC   C4A24162  25.340  11.782   7.668
 1553POPC   C1B24163  25.083  12.324   8.627
 1553POPC   C2B24164  25.110  12.303   8.183
 1553POPC   C3B24165  25.011  12.161   7.746
 1553POPC   C4B24166  25.005  12.423   7.353
 1554POPC   NC324167  31.050  30.664   9.627
 1554POPC   PO424168  31.732  30.684   9.604
 1554POPC   GL124169  31.436  30.653   9.247
 1554POPC   GL224170  31.368  30.948   9.065
 1554POPC   C1A24171  31.567  30.578   8.809
 1554POPC   D2A24172  31.795  30.504   8.460
 1554POPC   C3A24173  31.683  30.552   8.057
 1554POPC   C4A24174  31.748  30.884   7.757
 1554POPC   C1B24175  31.340  31.011   8.626
 1554POPC   C2B24176  31.264  30.695   8.304
 1554POPC   C3B24177  31.274  30.804   7.840
 1554POPC   C4B24178  31.075  30.963   7.449
 1555POPC   NC324179  13.466  18.575   9.409
 1555POPC   PO424180  13.984  18.113   9.381
 1555POPC   GL124181  13.748  18.257   9.069
 1555POPC   GL224182  13.440  18.101   9.186
 1555POPC   C1A24183  13.828  18.437   8.667
 1555POPC   D2A24184  13.815  18.613   8.229
 1555POPC   C3A24185  13.847  18.300   7.896
 1555POPC   C4A24186  13.642  18.086   7.538
 1555POPC   C1B24187  13.307  18.308   8.811
 1555POPC   C2B24188  13.364  18.529   8.450
 1555POPC   C3B24189  13.335  18.373   8.024
 1555POPC   C4B24190  13.474  18.586   7.684
 1556POPC   NC324191  29.230   6.154   9.614
 1556POPC   PO424192  28.885   6.768   9.598
 1556POPC   GL124193  28.918   6.532   9.248
 1556POPC   GL224194  29.245   6.484   9.194
 1556POPC   C1A24195  28.922   6.664   8.817
 1556POPC   D2A24196  29.087   6.626   8.419
 1556POPC   C3A24197  28.847   6.640   8.071
 1556POPC   C4A24198  28.995   6.671   7.692
 1556POPC   C1B24199  29.437   6.577   8.784
 1556POPC   C2B24200  29.575   6.704   8.366
 1556POPC   C3B24201  29.455   6.667   7.940
 1556POPC   C4B24202  29.455   6.606   7.482
 1557POPC   NC324203  28.632  11.459   9.516
 1557POPC   PO424204  28.042  11.703   9.755
 1557POPC   GL124205  28.209  11.312   9.306
 1557POPC   GL224206  28.000  11.047   9.128
 1557POPC   C1A24207  28.459  11.271   8.910
 1557POPC   D2A24208  28.667  11.170   8.526
 1557POPC   C3A24209  28.522  11.360   8.157
 1557POPC   C4A24210  28.688  11.387   7.748
 1557POPC   C1B24211  27.979  11.349   8.741
 1557POPC   C2B24212  28.123  11.685   8.456
 1557POPC   C3B24213  28.031  11.681   8.027
 1557POPC   C4B24214  28.172  11.349   7.758
 1558POPC   NC324215   7.035  38.919   9.690
 1558POPC   PO424216   7.740  39.238   9.597
 1558POPC   GL124217   7.428  39.272   9.294
 1558POPC   GL224218   7.308  38.956   9.267
 1558POPC   C1A24219   7.498  39.410   8.835
 1558POPC   D2A24220   7.657  39.319   8.443
 1558POPC   C3A24221   7.483  39.481   8.079
 1558POPC   C4A24222   7.647  39.398   7.711
 1558POPC   C1B24223   7.423  38.910   8.862
 1558POPC   C2B24224   7.225  39.031   8.493
 1558POPC   C3B24225   7.314  38.987   8.079
 1558POPC   C4B24226   7.169  39.231   7.762
 1559POPC   NC324227  27.767   7.418   9.954
 1559POPC   PO424228  27.283   7.153   9.504
 1559POPC   GL124229  27.356   7.528   9.269
 1559POPC   GL224230  27.706   7.530   9.332
 1559POPC   C1A24231  27.326   7.502   8.837
 1559POPC   D2A24232  27.507   7.340   8.454
 1559POPC   C3A24233  27.412   7.569   8.062
 1559POPC   C4A24234  27.345   7.461   7.633
 1559POPC   C1B24235  27.835   7.535   8.869
 1559POPC   C2B24236  28.021   7.265   8.555
 1559POPC   C3B24237  27.899   7.255   8.115
 1559POPC   C4B24238  27.698   7.094   7.741
 1560POPC   NC324239   4.502  23.307   9.515
 1560POPC   PO424240   4.092  22.793   9.528
 1560POPC   GL124241   4.121  23.090   9.187
 1560POPC   GL224242   4.439  23.151   9.054
 1560POPC   C1A24243   4.050  23.053   8.747
 1560POPC   D2A24244   3.878  22.835   8.417
 1560POPC   C3A24245   4.028  23.034   8.068
 1560POPC   C4A24246   4.369  23.261   7.879
 1560POPC   C1B24247   4.555  22.917   8.737
 1560POPC   C2B24248   4.380  22.814   8.362
 1560POPC   C3B24249   4.437  22.717   7.944
 1560POPC   C4B24250   4.802  22.547   7.734
 1561POPC   NC324251  44.823  28.742   9.337
 1561POPC   PO424252  44.578  29.208   9.781
 1561POPC   GL124253  44.726  29.247   9.257
 1561POPC   GL224254  44.630  29.028   8.957
 1561POPC   C1A24255  44.609  29.500   8.858
 1561POPC   D2A24256  44.531  29.292   8.412
 1561POPC   C3A24257  44.708  29.384   7.977
 1561POPC   C4A24258  44.804  29.137   7.575
 1561POPC   C1B24259  44.964  29.119   8.700
 1561POPC   C2B24260   0.056  29.153   8.283
 1561POPC   C3B24261  44.887  28.857   8.016
 1561POPC   C4B24262  44.952  28.476   7.841
 1562POPC   NC324263  38.170   5.953   9.392
 1562POPC   PO424264  38.704   5.529   9.473
 1562POPC   GL124265  38.814   5.880   9.189
 1562POPC   GL224266  38.505   5.970   9.000
 1562POPC   C1A24267  38.951   6.047   8.791
 1562POPC   D2A24268  38.693   6.014   8.405
 1562POPC   C3A24269  38.943   6.109   8.025
 1562POPC   C4A24270  38.760   6.202   7.619
 1562POPC   C1B24271  38.564   5.591   8.716
 1562POPC   C2B24272  38.629   5.508   8.265
 1562POPC   C3B24273  38.539   5.802   7.924
 1562POPC   C4B24274  38.174   5.669   7.719
 1563POPC   NC324275  43.201  28.985   9.561
 1563POPC   PO424276  42.777  29.432   9.617
 1563POPC   GL124277  43.063  29.351   9.219
 1563POPC   GL224278  43.380  29.507   9.128
 1563POPC   C1A24279  43.263  29.087   8.878
 1563POPC   D2A24280  43.398  28.961   8.447
 1563POPC   C3A24281  43.191  29.154   8.071
 1563POPC   C4A24282  42.943  29.155   7.684
 1563POPC   C1B24283  43.653  29.440   8.753
 1563POPC   C2B24284  43.520  29.475   8.326
 1563POPC   C3B24285  43.536  29.487   7.883
 1563POPC   C4B24286  43.437  29.230   7.526
 1564POPC   NC324287  20.806  35.360   9.392
 1564POPC   PO424288  20.306  35.793   9.511
 1564POPC   GL124289  20.494  35.668   9.101
 1564POPC   GL224290  20.806  35.775   9.074
 1564POPC   C1A24291  20.470  35.371   8.701
 1564POPC   D2A24292  20.624  35.152   8.318
 1564POPC   C3A24293  20.360  35.228   7.973
 1564POPC   C4A24294  20.522  35.587   7.894
 1564POPC   C1B24295  20.947  35.515   8.775
 1564POPC   C2B24296  20.843  35.659   8.375
 1564POPC   C3B24297  21.017  35.529   8.002
 1564POPC   C4B24298  20.840  35.143   7.822
 1565POPC   NC324299   8.391  34.893   9.977
 1565POPC   PO424300   8.361  35.528   9.582
 1565POPC   GL124301   8.207  35.589   9.177
 1565POPC   GL224302   8.165  35.240   9.153
 1565POPC   C1A24303   8.335  35.641   8.754
 1565POPC   D2A24304   8.330  35.781   8.341
 1565POPC   C3A24305   8.336  35.416   8.089
 1565POPC   C4A24306   8.152  35.339   7.728
 1565POPC   C1B24307   7.974  35.101   8.801
 1565POPC   C2B24308   8.110  35.055   8.403
 1565POPC   C3B24309   7.859  35.118   8.074
 1565POPC   C4B24310   7.828  34.919   7.680
 1566POPC   NC324311   6.932  41.185   9.541
 1566POPC   PO424312   6.777  40.515   9.388
 1566POPC   GL124313   6.768  40.922   9.138
 1566POPC   GL224314   7.083  41.041   9.055
 1566POPC   C1A24315   6.670  41.110   8.736
 1566POPC   D2A24316   6.493  41.190   8.327
 1566POPC   C3A24317   6.700  40.943   7.991
 1566POPC   C4A24318   6.659  40.517   7.775
 1566POPC   C1B24319   6.962  40.676   8.752
 1566POPC   C2B24320   6.975  40.679   8.344
 1566POPC   C3B24321   7.104  40.470   8.005
 1566POPC   C4B24322   7.042  40.187   7.681
 1567POPC   NC324323   3.330  17.704   9.289
 1567POPC   PO424324   2.706  17.588   9.542
 1567POPC   GL124325   2.637  17.510   9.142
 1567POPC   GL224326   2.659  17.863   9.098
 1567POPC   C1A24327   2.554  17.540   8.723
 1567POPC   D2A24328   2.673  17.414   8.364
 1567POPC   C3A24329   2.636  17.637   7.997
 1567POPC   C4A24330   2.862  17.436   7.683
 1567POPC   C1B24331   2.962  17.818   8.759
 1567POPC   C2B24332   2.919  17.914   8.351
 1567POPC   C3B24333   3.261  17.905   8.106
 1567POPC   C4B24334   3.263  17.758   7.700
 1568POPC   NC324335  18.561  24.526   9.482
 1568POPC   PO424336  17.947  24.515   9.345
 1568POPC   GL124337  18.262  24.611   9.070
 1568POPC   GL224338  18.370  24.285   9.084
 1568POPC   C1A24339  18.427  24.546   8.662
 1568POPC   D2A24340  18.171  24.346   8.359
 1568POPC   C3A24341  18.240  24.587   7.959
 1568POPC   C4A24342  18.558  24.908   7.915
 1568POPC   C1B24343  18.570  24.041   8.757
 1568POPC   C2B24344  18.445  23.896   8.334
 1568POPC   C3B24345  18.269  24.081   7.940
 1568POPC   C4B24346  18.272  24.182   7.485
 1569POPC   NC324347  39.301   6.729   9.432
 1569POPC   PO424348  38.843   6.250   9.682
 1569POPC   GL124349  38.885   6.395   9.271
 1569POPC   GL224350  39.186   6.264   9.220
 1569POPC   C1A24351  38.953   6.569   8.838
 1569POPC   D2A24352  39.127   6.841   8.536
 1569POPC   C3A24353  39.104   6.711   8.142
 1569POPC   C4A24354  39.109   6.828   7.757
 1569POPC   C1B24355  39.404   6.361   8.838
 1569POPC   C2B24356  39.243   6.287   8.425
 1569POPC   C3B24357  39.440   6.355   8.025
 1569POPC   C4B24358  39.266   6.292   7.635
 1570POPC   NC324359  15.377  12.941   9.834
 1570POPC   PO424360  15.027  13.080   9.287
 1570POPC   GL124361  15.269  12.839   9.041
 1570POPC   GL224362  15.092  12.539   8.965
 1570POPC   C1A24363  15.213  12.920   8.614
 1570POPC   D2A24364  15.382  12.812   8.223
 1570POPC   C3A24365  15.012  12.887   8.046
 1570POPC   C4A24366  14.953  13.114   7.740
 1570POPC   C1B24367  15.394  12.457   8.625
 1570POPC   C2B24368  15.139  12.363   8.248
 1570POPC   C3B24369  15.199  12.488   7.808
 1570POPC   C4B24370  15.390  12.497   7.396
 1571POPC   NC324371  28.863  30.574   9.555
 1571POPC   PO424372  29.372  30.797   9.621
 1571POPC   GL124373  29.245  30.698   9.186
 1571POPC   GL224374  29.030  30.419   9.096
 1571POPC   C1A24375  29.220  30.832   8.749
 1571POPC   D2A24376  29.149  31.124   8.405
 1571POPC   C3A24377  29.139  30.937   8.006
 1571POPC   C4A24378  29.323  30.601   7.808
 1571POPC   C1B24379  28.860  30.487   8.672
 1571POPC   C2B24380  29.033  30.467   8.221
 1571POPC   C3B24381  28.860  30.413   7.787
 1571POPC   C4B24382  28.797  30.106   7.458
 1572POPC   NC324383  19.228  27.783   9.375
 1572POPC   PO424384  19.860  27.748   9.766
 1572POPC   GL124385  19.745  27.584   9.364
 1572POPC   GL224386  19.701  27.863   9.229
 1572POPC   C1A24387  19.877  27.548   8.875
 1572POPC   D2A24388  19.843  27.350   8.435
 1572POPC   C3A24389  19.844  27.444   7.960
 1572POPC   C4A24390  19.976  27.201   7.588
 1572POPC   C1B24391  19.736  28.038   8.821
 1572POPC   C2B24392  19.878  27.864   8.426
 1572POPC   C3B24393  19.762  27.942   8.003
 1572POPC   C4B24394  19.656  27.790   7.592
 1573POPC   NC324395  29.909  28.203   9.327
 1573POPC   PO424396  30.486  28.661   9.500
 1573POPC   GL124397  30.256  28.536   9.136
 1573POPC   GL224398  30.337  28.164   9.068
 1573POPC   C1A24399  30.032  28.487   8.731
 1573POPC   D2A24400  29.916  28.246   8.367
 1573POPC   C3A24401  30.010  28.420   7.987
 1573POPC   C4A24402  29.738  28.618   7.693
 1573POPC   C1B24403  30.157  27.928   8.730
 1573POPC   C2B24404  30.031  27.736   8.334
 1573POPC   C3B24405  29.818  27.906   7.986
 1573POPC   C4B24406  29.932  28.087   7.605
 1574POPC   NC324407  38.137   4.379   9.523
 1574POPC   PO424408  38.817   4.593   9.560
 1574POPC   GL124409  38.644   4.602   9.152
 1574POPC   GL224410  38.382   4.381   9.088
 1574POPC   C1A24411  38.721   4.500   8.713
 1574POPC   D2A24412  38.477   4.413   8.351
 1574POPC   C3A24413  38.630   4.471   7.897
 1574POPC   C4A24414  38.579   4.576   7.407
 1574POPC   C1B24415  38.450   4.056   8.774
 1574POPC   C2B24416  38.497   3.870   8.386
 1574POPC   C3B24417  38.307   4.067   8.024
 1574POPC   C4B24418  38.493   4.103   7.590
 1575POPC   NC324419  12.593  29.741   9.677
 1575POPC   PO424420  13.135  29.631   9.540
 1575POPC   GL124421  12.838  29.923   9.238
 1575POPC   GL224422  12.461  29.911   9.190
 1575POPC   C1A24423  12.717  30.233   8.873
 1575POPC   D2A24424  12.838  30.300   8.420
 1575POPC   C3A24425  13.052  29.954   8.246
 1575POPC   C4A24426  13.025  29.743   7.855
 1575POPC   C1B24427  12.427  29.826   8.727
 1575POPC   C2B24428  12.544  29.868   8.263
 1575POPC   C3B24429  12.508  29.846   7.807
 1575POPC   C4B24430  12.272  29.774   7.379
 1576POPC   NC324431  12.438  23.827   9.555
 1576POPC   PO424432  11.820  23.539   9.388
 1576POPC   GL124433  12.024  23.432   9.031
 1576POPC   GL224434  12.333  23.591   9.101
 1576POPC   C1A24435  12.248  23.340   8.640
 1576POPC   D2A24436  12.100  23.370   8.211
 1576POPC   C3A24437  12.247  23.615   7.893
 1576POPC   C4A24438  11.953  23.949   7.840
 1576POPC   C1B24439  12.210  23.861   8.747
 1576POPC   C2B24440  12.403  23.889   8.334
 1576POPC   C3B24441  12.422  24.165   7.971
 1576POPC   C4B24442  12.388  24.019   7.577
 1577POPC   NC324443  31.092  13.817   9.538
 1577POPC   PO424444  31.772  13.544   9.579
 1577POPC   GL124445  31.564  13.817   9.272
 1577POPC   GL224446  31.785  14.131   9.251
 1577POPC   C1A24447  31.332  13.766   8.862
 1577POPC   D2A24448  31.171  13.578   8.452
 1577POPC   C3A24449  31.300  13.733   8.055
 1577POPC   C4A24450  31.420  13.521   7.693
 1577POPC   C1B24451  31.799  13.977   8.835
 1577POPC   C2B24452  31.658  13.748   8.453
 1577POPC   C3B24453  31.825  13.791   8.058
 1577POPC   C4B24454  31.841  13.953   7.664
 1578POPC   NC324455  17.589  24.792   9.428
 1578POPC   PO424456  17.425  24.230   9.660
 1578POPC   GL124457  17.533  24.276   9.187
 1578POPC   GL224458  17.369  24.570   9.027
 1578POPC   C1A24459  17.709  24.336   8.722
 1578POPC   D2A24460  17.440  24.454   8.360
 1578POPC   C3A24461  17.531  24.550   7.924
 1578POPC   C4A24462  17.852  24.336   7.725
 1578POPC   C1B24463  17.210  24.792   8.656
 1578POPC   C2B24464  17.110  24.822   8.173
 1578POPC   C3B24465  17.043  24.632   7.734
 1578POPC   C4B24466  17.037  24.457   7.310
 1579POPC   NC324467  10.133  37.959   9.522
 1579POPC   PO424468  10.733  37.447   9.456
 1579POPC   GL124469  10.560  37.754   9.225
 1579POPC   GL224470  10.239  37.603   9.152
 1579POPC   C1A24471  10.658  37.690   8.797
 1579POPC   D2A24472  10.589  37.511   8.400
 1579POPC   C3A24473  10.777  37.758   8.048
 1579POPC   C4A24474  10.590  37.599   7.651
 1579POPC   C1B24475  10.253  37.990   8.883
 1579POPC   C2B24476  10.384  37.979   8.466
 1579POPC   C3B24477  10.280  37.747   8.067
 1579POPC   C4B24478  10.143  37.919   7.710
 1580POPC   NC324479  11.762  10.989   9.616
 1580POPC   PO424480  11.099  11.303   9.587
 1580POPC   GL124481  11.104  11.176   9.177
 1580POPC   GL224482  11.455  11.157   9.228
 1580POPC   C1A24483  10.973  11.150   8.749
 1580POPC   D2A24484  11.085  11.383   8.383
 1580POPC   C3A24485  10.968  11.165   8.003
 1580POPC   C4A24486  11.057  11.367   7.633
 1580POPC   C1B24487  11.519  11.303   8.822
 1580POPC   C2B24488  11.653  11.094   8.446
 1580POPC   C3B24489  11.508  11.253   8.061
 1580POPC   C4B24490  11.555  11.230   7.592
 1581POPC   NC324491  23.595  35.830   9.434
 1581POPC   PO424492  24.045  36.330   9.607
 1581POPC   GL124493  23.714  36.328   9.295
 1581POPC   GL224494  23.937  36.479   9.108
 1581POPC   C1A24495  23.548  36.263   8.845
 1581POPC   D2A24496  23.722  36.010   8.508
 1581POPC   C3A24497  23.681  36.135   8.078
 1581POPC   C4A24498  23.827  35.929   7.698
 1581POPC   C1B24499  24.046  36.359   8.679
 1581POPC   C2B24500  24.135  36.340   8.232
 1581POPC   C3B24501  24.039  36.397   7.782
 1581POPC   C4B24502  23.873  36.347   7.360
 1582POPC   NC324503  44.260  42.006   9.572
 1582POPC   PO424504  44.876  42.390   9.413
 1582POPC   GL124505  44.890  42.438   9.018
 1582POPC   GL224506  44.644  42.142   9.005
 1582POPC   C1A24507  44.647  42.515   8.633
 1582POPC   D2A24508  44.285  42.678   8.424
 1582POPC   C3A24509  44.357  42.519   7.984
 1582POPC   C4A24510  44.718  42.561   7.687
 1582POPC   C1B24511   0.001  42.065   8.727
 1582POPC   C2B24512   0.089  42.246   8.378
 1582POPC   C3B24513  44.917  42.213   8.001
 1582POPC   C4B24514   0.126  42.198   7.636
 1583POPC   NC324515  21.116  40.712   9.486
 1583POPC   PO424516  21.621  40.341   9.614
 1583POPC   GL124517  21.588  40.688   9.279
 1583POPC   GL224518  21.325  40.587   9.043
 1583POPC   C1A24519  21.730  40.879   8.856
 1583POPC   D2A24520  21.839  40.789   8.406
 1583POPC   C3A24521  21.468  40.897   8.164
 1583POPC   C4A24522  21.266  40.889   7.762
 1583POPC   C1B24523  21.531  40.437   8.678
 1583POPC   C2B24524  21.544  40.392   8.241
 1583POPC   C3B24525  21.380  40.364   7.820
 1583POPC   C4B24526  21.059  40.482   7.514
 1584POPC   NC324527   3.183  16.229   9.464
 1584POPC   PO424528   3.687  15.766   9.514
 1584POPC   GL124529   3.578  15.798   9.086
 1584POPC   GL224530   3.643  16.135   9.059
 1584POPC   C1A24531   3.792  15.795   8.666
 1584POPC   D2A24532   3.957  15.730   8.264
 1584POPC   C3A24533   3.630  15.898   8.037
 1584POPC   C4A24534   3.373  15.738   7.720
 1584POPC   C1B24535   3.323  16.275   8.801
 1584POPC   C2B24536   3.167  16.432   8.424
 1584POPC   C3B24537   3.230  16.261   8.041
 1584POPC   C4B24538   3.518  16.288   7.732
 1585POPC   NC324539  26.818  40.053   9.619
 1585POPC   PO424540  26.590  39.457   9.460
 1585POPC   GL124541  26.855  39.793   9.178
 1585POPC   GL224542  26.700  40.124   9.142
 1585POPC   C1A24543  27.055  40.029   8.771
 1585POPC   D2A24544  27.233  40.078   8.312
 1585POPC   C3A24545  27.001  39.996   7.891
 1585POPC   C4A24546  26.553  39.968   7.787
 1585POPC   C1B24547  26.519  40.067   8.755
 1585POPC   C2B24548  26.693  40.040   8.370
 1585POPC   C3B24549  26.680  40.344   8.107
 1585POPC   C4B24550  26.911  40.505   7.788
 1586POPC   NC324551  21.874  43.360   9.642
 1586POPC   PO424552  21.242  42.998   9.625
 1586POPC   GL124553  21.425  43.182   9.314
 1586POPC   GL224554  21.427  42.860   9.161
 1586POPC   C1A24555  21.493  43.260   8.864
 1586POPC   D2A24556  21.212  43.184   8.522
 1586POPC   C3A24557  21.414  43.212   8.131
 1586POPC   C4A24558  21.289  43.169   7.733
 1586POPC   C1B24559  21.273  42.720   8.780
 1586POPC   C2B24560  21.430  42.699   8.374
 1586POPC   C3B24561  21.277  42.718   7.962
 1586POPC   C4B24562  21.215  42.596   7.529
 1587POPC   NC324563  30.870  19.586   9.438
 1587POPC   PO424564  30.459  20.077   9.598
 1587POPC   GL124565  30.548  19.970   9.172
 1587POPC   GL224566  30.891  19.966   9.069
 1587POPC   C1A24567  30.537  20.121   8.725
 1587POPC   D2A24568  30.435  20.193   8.296
 1587POPC   C3A24569  30.630  20.012   7.979
 1587POPC   C4A24570  30.743  20.099   7.580
 1587POPC   C1B24571  30.739  19.656   8.780
 1587POPC   C2B24572  30.530  19.664   8.387
 1587POPC   C3B24573  30.553  19.492   7.972
 1587POPC   C4B24574  30.848  19.580   7.648
 1588POPC   NC324575  34.793  20.130   9.529
 1588POPC   PO424576  34.250  19.528   9.489
 1588POPC   GL124577  34.369  19.602   9.034
 1588POPC   GL224578  34.543  19.932   8.936
 1588POPC   C1A24579  34.466  19.552   8.615
 1588POPC   D2A24580  34.569  19.938   8.420
 1588POPC   C3A24581  34.585  19.977   8.001
 1588POPC   C4A24582  34.748  19.686   7.714
 1588POPC   C1B24583  34.894  20.132   8.774
 1588POPC   C2B24584  35.065  20.171   8.353
 1588POPC   C3B24585  35.032  20.218   7.875
 1588POPC   C4B24586  34.896  20.375   7.456
 1589POPC   NC324587   1.857  42.972   9.663
 1589POPC   PO424588   1.954  43.621   9.693
 1589POPC   GL124589   2.019  43.265   9.287
 1589POPC   GL224590   1.793  42.989   9.167
 1589POPC   C1A24591   2.190  43.086   8.872
 1589POPC   D2A24592   2.304  42.915   8.460
 1589POPC   C3A24593   2.081  43.020   8.068
 1589POPC   C4A24594   1.870  43.148   7.678
 1589POPC   C1B24595   1.630  43.063   8.780
 1589POPC   C2B24596   1.732  42.868   8.416
 1589POPC   C3B24597   1.583  42.866   8.020
 1589POPC   C4B24598   1.660  42.680   7.665
 1590POPC   NC324599  21.794   1.665   9.433
 1590POPC   PO424600  21.235   1.990   9.300
 1590POPC   GL124601  21.452   2.267   9.100
 1590POPC   GL224602  21.727   2.063   9.030
 1590POPC   C1A24603  21.427   2.217   8.654
 1590POPC   D2A24604  21.717   2.290   8.384
 1590POPC   C3A24605  21.547   2.391   8.036
 1590POPC   C4A24606  21.316   2.216   7.732
 1590POPC   C1B24607  21.664   1.772   8.711
 1590POPC   C2B24608  21.445   1.829   8.326
 1590POPC   C3B24609  21.612   1.866   7.956
 1590POPC   C4B24610  21.872   1.558   7.776
 1591POPC   NC324611  39.199  17.378   9.655
 1591POPC   PO424612  39.687  17.350   9.376
 1591POPC   GL124613  39.265  17.442   9.125
 1591POPC   GL224614  38.987  17.662   9.245
 1591POPC   C1A24615  38.942  17.434   8.748
 1591POPC   D2A24616  38.718  17.516   8.323
 1591POPC   C3A24617  38.951  17.514   7.898
 1591POPC   C4A24618  39.254  17.743   7.628
 1591POPC   C1B24619  39.143  17.890   8.848
 1591POPC   C2B24620  39.097  17.901   8.375
 1591POPC   C3B24621  38.856  18.004   7.999
 1591POPC   C4B24622  38.828  18.033   7.550
 1592POPC   NC324623  15.839  35.015   9.547
 1592POPC   PO424624  16.221  35.553   9.754
 1592POPC   GL124625  16.119  35.447   9.314
 1592POPC   GL224626  16.231  35.683   9.078
 1592POPC   C1A24627  15.861  35.326   8.932
 1592POPC   D2A24628  15.973  35.009   8.563
 1592POPC   C3A24629  15.866  35.125   8.127
 1592POPC   C4A24630  15.680  35.058   7.730
 1592POPC   C1B24631  16.321  35.381   8.756
 1592POPC   C2B24632  16.281  35.369   8.326
 1592POPC   C3B24633  16.120  35.569   7.966
 1592POPC   C4B24634  16.120  35.276   7.669
 1593POPC   NC324635  18.765  33.028   9.280
 1593POPC   PO424636  18.093  32.923   9.529
 1593POPC   GL124637  18.259  32.948   9.150
 1593POPC   GL224638  18.311  33.274   9.201
 1593POPC   C1A24639  18.381  32.906   8.719
 1593POPC   D2A24640  18.142  32.877   8.336
 1593POPC   C3A24641  18.456  32.945   8.028
 1593POPC   C4A24642  18.554  32.741   7.657
 1593POPC   C1B24643  18.185  33.376   8.803
 1593POPC   C2B24644  18.413  33.337   8.438
 1593POPC   C3B24645  18.158  33.361   8.113
 1593POPC   C4B24646  18.163  33.259   7.713
 1594POPC   NC324647   5.749   2.946   9.455
 1594POPC   PO424648   5.819   2.326   9.457
 1594POPC   GL124649   5.772   2.573   9.100
 1594POPC   GL224650   5.462   2.654   9.116
 1594POPC   C1A24651   5.711   2.796   8.690
 1594POPC   D2A24652   5.686   2.938   8.252
 1594POPC   C3A24653   6.057   2.868   7.990
 1594POPC   C4A24654   6.235   2.928   7.565
 1594POPC   C1B24655   5.411   2.391   8.754
 1594POPC   C2B24656   5.380   2.529   8.328
 1594POPC   C3B24657   5.630   2.547   7.929
 1594POPC   C4B24658   5.715   2.855   7.622
 1595POPC   NC324659   0.255   1.346   9.505
 1595POPC   PO424660   0.703   0.947   9.407
 1595POPC   GL124661   0.502   1.180   9.081
 1595POPC   GL224662   0.165   1.022   9.053
 1595POPC   C1A24663   0.358   1.406   8.712
 1595POPC   D2A24664   0.437   1.605   8.315
 1595POPC   C3A24665   0.414   1.308   8.036
 1595POPC   C4A24666   0.602   1.166   7.676
 1595POPC   C1B24667  44.986   1.052   8.617
 1595POPC   C2B24668  44.931   1.082   8.166
 1595POPC   C3B24669   0.157   0.926   7.818
 1595POPC   C4B24670   0.176   1.052   7.398
 1596POPC   NC324671   4.174  17.945   9.492
 1596POPC   PO424672   4.126  18.630   9.475
 1596POPC   GL124673   4.383  18.432   9.128
 1596POPC   GL224674   4.355  18.056   9.044
 1596POPC   C1A24675   4.371  18.456   8.674
 1596POPC   D2A24676   4.114  18.450   8.308
 1596POPC   C3A24677   4.277  18.663   7.974
 1596POPC   C4A24678   4.563  18.588   7.653
 1596POPC   C1B24679   4.630  18.010   8.733
 1596POPC   C2B24680   4.523  18.098   8.333
 1596POPC   C3B24681   4.575  17.858   8.016
 1596POPC   C4B24682   4.622  17.941   7.615
 1597POPC   NC324683   7.437  36.357  10.016
 1597POPC   PO424684   7.772  36.044   9.537
 1597POPC   GL124685   7.643  35.914   9.172
 1597POPC   GL224686   7.359  35.746   9.284
 1597POPC   C1A24687   7.581  36.127   8.773
 1597POPC   D2A24688   7.406  36.327   8.405
 1597POPC   C3A24689   7.557  36.222   8.010
 1597POPC   C4A24690   7.637  35.984   7.652
 1597POPC   C1B24691   7.298  35.706   8.829
 1597POPC   C2B24692   7.450  35.765   8.380
 1597POPC   C3B24693   7.289  35.689   7.942
 1597POPC   C4B24694   6.934  35.729   7.617
 1598POPC   NC324695  21.651  22.791   9.409
 1598POPC   PO424696  21.230  23.190   9.314
 1598POPC   GL124697  21.438  23.296   8.949
 1598POPC   GL224698  21.705  23.074   8.965
 1598POPC   C1A24699  21.420  23.345   8.514
 1598POPC   D2A24700  21.428  23.040   8.206
 1598POPC   C3A24701  21.384  23.157   7.761
 1598POPC   C4A24702  21.094  23.301   7.442
 1598POPC   C1B24703  21.487  22.817   8.669
 1598POPC   C2B24704  21.403  22.510   8.320
 1598POPC   C3B24705  21.392  22.648   7.898
 1598POPC   C4B24706  21.245  22.744   7.498
 1599POPC   NC324707   0.533  23.814   9.870
 1599POPC   PO424708   0.062  23.525   9.674
 1599POPC   GL124709   0.449  23.640   9.373
 1599POPC   GL224710   0.552  23.384   9.125
 1599POPC   C1A24711   0.494  23.875   8.945
 1599POPC   D2A24712   0.328  23.809   8.485
 1599POPC   C3A24713   0.431  24.032   8.078
 1599POPC   C4A24714   0.527  24.143   7.625
 1599POPC   C1B24715   0.668  23.483   8.674
 1599POPC   C2B24716   0.782  23.637   8.263
 1599POPC   C3B24717   0.672  23.659   7.850
 1599POPC   C4B24718   0.346  23.681   7.521
 1600POPC   NC324719  20.542  40.171   9.486
 1600POPC   PO424720  20.453  40.797   9.559
 1600POPC   GL124721  20.541  40.786   9.147
 1600POPC   GL224722  20.731  40.502   9.138
 1600POPC   C1A24723  20.391  40.661   8.740
 1600POPC   D2A24724  20.595  40.750   8.369
 1600POPC   C3A24725  20.345  40.615   8.030
 1600POPC   C4A24726  20.232  40.821   7.696
 1600POPC   C1B24727  20.909  40.754   8.804
 1600POPC   C2B24728  21.114  40.631   8.448
 1600POPC   C3B24729  20.974  40.571   8.050
 1600POPC   C4B24730  20.742  40.857   7.823
 1601POPC   NC324731  23.004  35.457   9.527
 1601POPC   PO424732  23.148  34.783   9.664
 1601POPC   GL124733  23.169  35.063   9.245
 1601POPC   GL224734  22.876  35.306   9.069
 1601POPC   C1A24735  23.320  35.228   8.835
 1601POPC   D2A24736  23.080  35.167   8.464
 1601POPC   C3A24737  23.150  35.369   8.093
 1601POPC   C4A24738  22.939  35.438   7.755
 1601POPC   C1B24739  22.861  35.579   8.683
 1601POPC   C2B24740  22.864  35.775   8.247
 1601POPC   C3B24741  22.540  35.694   7.938
 1601POPC   C4B24742  22.439  35.470   7.546
 1602POPC   NC324743  20.953  25.853   9.468
 1602POPC   PO424744  20.315  25.997   9.722
 1602POPC   GL124745  20.507  26.063   9.265
 1602POPC   GL224746  20.590  25.791   9.059
 1602POPC   C1A24747  20.591  26.247   8.831
 1602POPC   D2A24748  20.615  26.083   8.406
 1602POPC   C3A24749  20.647  26.383   8.089
 1602POPC   C4A24750  20.447  26.253   7.710
 1602POPC   C1B24751  20.926  25.840   8.725
 1602POPC   C2B24752  21.089  25.919   8.282
 1602POPC   C3B24753  20.806  25.933   7.878
 1602POPC   C4B24754  20.842  26.082   7.361
 1603POPC   NC324755   4.182  24.901   9.431
 1603POPC   PO424756   4.523  25.500   9.559
 1603POPC   GL124757   4.219  25.396   9.208
 1603POPC   GL224758   4.066  25.129   8.995
 1603POPC   C1A24759   4.161  25.622   8.810
 1603POPC   D2A24760   4.397  25.678   8.423
 1603POPC   C3A24761   4.245  25.424   8.079
 1603POPC   C4A24762   4.290  25.601   7.685
 1603POPC   C1B24763   4.431  24.993   8.794
 1603POPC   C2B24764   4.558  25.157   8.408
 1603POPC   C3B24765   4.598  24.988   8.024
 1603POPC   C4B24766   4.434  25.100   7.669
 1604POPC   NC324767   6.084  35.019   9.507
 1604POPC   PO424768   5.806  35.634   9.559
 1604POPC   GL124769   5.905  35.391   9.196
 1604POPC   GL224770   5.583  35.285   9.062
 1604POPC   C1A24771   5.989  35.110   8.838
 1604POPC   D2A24772   5.701  35.115   8.509
 1604POPC   C3A24773   5.746  35.432   8.160
 1604POPC   C4A24774   5.955  35.378   7.771
 1604POPC   C1B24775   5.719  35.585   8.731
 1604POPC   C2B24776   5.559  35.868   8.406
 1604POPC   C3B24777   5.316  35.819   8.065
 1604POPC   C4B24778   5.605  35.758   7.772
 1605POPC   NC324779  38.691  39.738   9.675
 1605POPC   PO424780  38.361  40.368   9.575
 1605POPC   GL124781  38.549  40.119   9.262
 1605POPC   GL224782  38.509  39.826   9.099
 1605POPC   C1A24783  38.700  40.203   8.834
 1605POPC   D2A24784  38.547  40.096   8.419
 1605POPC   C3A24785  38.752  39.936   8.047
 1605POPC   C4A24786  38.677  39.752   7.620
 1605POPC   C1B24787  38.204  39.923   8.768
 1605POPC   C2B24788  38.002  39.820   8.406
 1605POPC   C3B24789  38.249  39.784   8.053
 1605POPC   C4B24790  38.092  39.786   7.642
 1606POPC   NC324791  36.664  38.093   9.543
 1606POPC   PO424792  36.995  38.699   9.489
 1606POPC   GL124793  36.835  38.517   9.127
 1606POPC   GL224794  36.866  38.144   9.087
 1606POPC   C1A24795  36.993  38.642   8.732
 1606POPC   D2A24796  37.265  38.640   8.374
 1606POPC   C3A24797  37.067  38.635   7.972
 1606POPC   C4A24798  37.155  38.278   7.711
 1606POPC   C1B24799  36.979  38.138   8.668
 1606POPC   C2B24800  36.787  38.374   8.335
 1606POPC   C3B24801  36.681  38.307   7.914
 1606POPC   C4B24802  36.531  38.164   7.535
 1607POPC   NC324803  38.847  30.513   9.357
 1607POPC   PO424804  38.595  31.018   9.712
 1607POPC   GL124805  38.452  30.891   9.250
 1607POPC   GL224806  38.072  30.971   9.147
 1607POPC   C1A24807  38.623  30.806   8.798
 1607POPC   D2A24808  38.850  30.707   8.398
 1607POPC   C3A24809  38.634  30.649   8.012
 1607POPC   C4A24810  38.452  30.379   7.765
 1607POPC   C1B24811  38.119  30.728   8.766
 1607POPC   C2B24812  38.313  30.854   8.381
 1607POPC   C3B24813  38.172  30.876   7.973
 1607POPC   C4B24814  38.056  31.026   7.580
 1608POPC   NC324815  25.532   8.001   9.473
 1608POPC   PO424816  24.898   8.255   9.548
 1608POPC   GL124817  25.052   8.046   9.199
 1608POPC   GL224818  25.343   8.237   9.055
 1608POPC   C1A24819  25.022   7.984   8.759
 1608POPC   D2A24820  25.276   8.157   8.459
 1608POPC   C3A24821  25.143   8.138   8.047
 1608POPC   C4A24822  25.031   8.130   7.645
 1608POPC   C1B24823  25.628   8.434   8.749
 1608POPC   C2B24824  25.523   8.607   8.351
 1608POPC   C3B24825  25.590   8.383   7.998
 1608POPC   C4B24826  25.461   8.413   7.576
 1609POPC   NC324827  32.623   1.620   9.502
 1609POPC   PO424828  32.108   1.090   9.578
 1609POPC   GL124829  32.275   1.307   9.267
 1609POPC   GL224830  32.427   0.985   9.195
 1609POPC   C1A24831  32.211   1.399   8.838
 1609POPC   D2A24832  32.026   1.139   8.497
 1609POPC   C3A24833  32.230   1.116   8.091
 1609POPC   C4A24834  32.121   1.280   7.707
 1609POPC   C1B24835  32.454   0.943   8.762
 1609POPC   C2B24836  32.688   0.949   8.361
 1609POPC   C3B24837  32.642   0.794   7.965
 1609POPC   C4B24838  32.441   0.889   7.616
 1610POPC   NC324839  23.794  23.241   9.352
 1610POPC   PO424840  23.472  22.682   9.526
 1610POPC   GL124841  23.636  22.823   9.094
 1610POPC   GL224842  24.020  22.808   9.107
 1610POPC   C1A24843  23.689  23.133   8.721
 1610POPC   D2A24844  23.746  23.041   8.291
 1610POPC   C3A24845  23.468  22.762   8.124
 1610POPC   C4A24846  23.572  22.842   7.728
 1610POPC   C1B24847  24.177  23.022   8.699
 1610POPC   C2B24848  24.238  23.112   8.257
 1610POPC   C3B24849  24.091  22.984   7.832
 1610POPC   C4B24850  23.970  22.754   7.426
 1611POPC   NC324851  44.756  32.867   9.563
 1611POPC   PO424852   0.110  33.419   9.625
 1611POPC   GL124853  44.914  33.165   9.171
 1611POPC   GL224854  44.581  32.927   9.092
 1611POPC   C1A24855  44.819  33.088   8.686
 1611POPC   D2A24856  44.668  33.322   8.323
 1611POPC   C3A24857  44.798  33.236   7.903
 1611POPC   C4A24858  44.787  32.847   7.773
 1611POPC   C1B24859  44.356  32.853   8.675
 1611POPC   C2B24860  44.466  32.842   8.223
 1611POPC   C3B24861  44.273  32.844   7.820
 1611POPC   C4B24862  44.265  32.762   7.379
 1612POPC   NC324863   0.637  28.447   9.582
 1612POPC   PO424864  44.926  28.372   9.655
 1612POPC   GL124865   0.207  28.305   9.251
 1612POPC   GL224866   0.584  28.254   9.128
 1612POPC   C1A24867   0.255  28.532   8.847
 1612POPC   D2A24868   0.236  28.702   8.432
 1612POPC   C3A24869   0.358  28.410   8.154
 1612POPC   C4A24870   0.369  28.211   7.778
 1612POPC   C1B24871   0.791  28.590   8.857
 1612POPC   C2B24872   0.774  28.640   8.395
 1612POPC   C3B24873   0.857  28.241   8.149
 1612POPC   C4B24874   0.843  28.105   7.723
 1613POPC   NC324875   7.866  28.343   9.603
 1613POPC   PO424876   7.192  28.222   9.523
 1613POPC   GL124877   7.480  28.228   9.170
 1613POPC   GL224878   7.695  28.523   9.124
 1613POPC   C1A24879   7.449  28.242   8.714
 1613POPC   D2A24880   7.633  28.389   8.329
 1613POPC   C3A24881   7.455  28.226   7.957
 1613POPC   C4A24882   7.349  28.169   7.528
 1613POPC   C1B24883   7.530  28.773   8.791
 1613POPC   C2B24884   7.247  28.785   8.451
 1613POPC   C3B24885   7.294  28.711   8.025
 1613POPC   C4B24886   7.275  28.664   7.583
 1614POPC   NC324887  23.982  18.997   9.610
 1614POPC   PO424888  24.086  19.583   9.566
 1614POPC   GL124889  23.866  19.300   9.209
 1614POPC   GL224890  23.723  18.959   9.179
 1614POPC   C1A24891  23.609  19.394   8.831
 1614POPC   D2A24892  23.432  19.224   8.411
 1614POPC   C3A24893  23.588  19.103   8.033
 1614POPC   C4A24894  23.829  19.235   7.735
 1614POPC   C1B24895  23.877  18.979   8.760
 1614POPC   C2B24896  23.989  19.066   8.327
 1614POPC   C3B24897  23.988  18.786   7.975
 1614POPC   C4B24898  23.639  18.718   7.693
 1615POPC   NC324899  33.276  24.343   9.485
 1615POPC   PO424900  32.634  24.420   9.364
 1615POPC   GL124901  32.942  24.607   9.177
 1615POPC   GL224902  32.855  24.376   8.920
 1615POPC   C1A24903  33.235  24.657   8.818
 1615POPC   D2A24904  33.093  24.363   8.464
 1615POPC   C3A24905  33.326  24.313   8.089
 1615POPC   C4A24906  33.154  24.556   7.788
 1615POPC   C1B24907  32.766  24.013   8.731
 1615POPC   C2B24908  32.712  24.037   8.295
 1615POPC   C3B24909  32.733  24.291   7.903
 1615POPC   C4B24910  32.938  24.214   7.470
 1616POPC   NC324911  21.160  12.873   9.456
 1616POPC   PO424912  21.829  12.570   9.433
 1616POPC   GL124913  21.533  12.754   9.154
 1616POPC   GL224914  21.213  12.538   9.103
 1616POPC   C1A24915  21.320  12.938   8.803
 1616POPC   D2A24916  21.418  12.687   8.465
 1616POPC   C3A24917  21.422  12.957   8.121
 1616POPC   C4A24918  21.442  13.051   7.726
 1616POPC   C1B24919  20.968  12.523   8.735
 1616POPC   C2B24920  21.038  12.307   8.359
 1616POPC   C3B24921  21.311  12.450   8.027
 1616POPC   C4B24922  21.045  12.713   7.855
 1617POPC   NC324923   6.398  32.465   9.282
 1617POPC   PO424924   6.750  31.890   9.396
 1617POPC   GL124925   6.672  32.093   9.082
 1617POPC   GL224926   6.865  32.413   9.091
 1617POPC   C1A24927   6.469  32.094   8.724
 1617POPC   D2A24928   6.667  32.215   8.401
 1617POPC   C3A24929   6.619  32.042   8.078
 1617POPC   C4A24930   6.708  32.146   7.679
 1617POPC   C1B24931   6.881  32.582   8.673
 1617POPC   C2B24932   6.727  32.687   8.241
 1617POPC   C3B24933   6.478  32.522   7.935
 1617POPC   C4B24934   6.437  32.576   7.471
 1618POPC   NC324935  21.075  34.524   9.743
 1618POPC   PO424936  21.644  34.908   9.563
 1618POPC   GL124937  21.346  34.827   9.261
 1618POPC   GL224938  21.249  34.475   9.234
 1618POPC   C1A24939  21.348  34.727   8.826
 1618POPC   D2A24940  21.642  34.563   8.610
 1618POPC   C3A24941  21.529  34.652   8.240
 1618POPC   C4A24942  21.540  34.727   7.837
 1618POPC   C1B24943  21.323  34.215   8.842
 1618POPC   C2B24944  21.191  34.246   8.441
 1618POPC   C3B24945  21.277  34.282   8.027
 1618POPC   C4B24946  21.381  34.331   7.603
 1619POPC   NC324947   8.083  16.387   9.247
 1619POPC   PO424948   8.621  16.771   9.240
 1619POPC   GL124949   8.313  17.038   9.030
 1619POPC   GL224950   7.966  17.024   9.175
 1619POPC   C1A24951   8.284  17.023   8.619
 1619POPC   D2A24952   8.263  16.665   8.397
 1619POPC   C3A24953   8.415  16.700   7.999
 1619POPC   C4A24954   8.176  16.506   7.678
 1619POPC   C1B24955   7.837  16.812   8.778
 1619POPC   C2B24956   7.811  16.922   8.383
 1619POPC   C3B24957   7.938  16.830   8.001
 1619POPC   C4B24958   8.010  16.985   7.589
 1620POPC   NC324959   5.545  20.221   9.548
 1620POPC   PO424960   6.193  20.415   9.507
 1620POPC   GL124961   6.053  20.665   9.159
 1620POPC   GL224962   6.222  20.970   9.091
 1620POPC   C1A24963   5.758  20.602   8.790
 1620POPC   D2A24964   5.637  20.356   8.415
 1620POPC   C3A24965   5.743  20.517   8.002
 1620POPC   C4A24966   5.989  20.371   7.686
 1620POPC   C1B24967   6.235  20.801   8.705
 1620POPC   C2B24968   6.078  20.644   8.360
 1620POPC   C3B24969   6.205  20.747   7.970
 1620POPC   C4B24970   6.175  20.868   7.532
 1621POPC   NC324971  23.451  11.625   9.523
 1621POPC   PO424972  23.790  11.021   9.483
 1621POPC   GL124973  23.814  11.080   9.108
 1621POPC   GL224974  23.658  11.375   9.108
 1621POPC   C1A24975  23.599  10.959   8.744
 1621POPC   D2A24976  23.514  11.124   8.360
 1621POPC   C3A24977  23.733  11.209   8.017
 1621POPC   C4A24978  23.374  11.334   7.847
 1621POPC   C1B24979  23.796  11.437   8.683
 1621POPC   C2B24980  23.796  11.741   8.376
 1621POPC   C3B24981  23.627  11.778   8.000
 1621POPC   C4B24982  23.726  11.633   7.630
 1622POPC   NC324983  36.439  29.402   9.532
 1622POPC   PO424984  37.029  29.175   9.730
 1622POPC   GL124985  36.864  29.085   9.252
 1622POPC   GL224986  36.694  29.302   9.113
 1622POPC   C1A24987  37.010  29.104   8.787
 1622POPC   D2A24988  36.774  29.078   8.392
 1622POPC   C3A24989  36.998  28.936   8.069
 1622POPC   C4A24990  36.922  28.986   7.669
 1622POPC   C1B24991  36.706  29.494   8.700
 1622POPC   C2B24992  36.863  29.570   8.302
 1622POPC   C3B24993  36.679  29.349   7.936
 1622POPC   C4B24994  36.536  29.298   7.482
 1623POPC   NC324995   6.941  10.921   9.433
 1623POPC   PO424996   6.556  11.492   9.537
 1623POPC   GL124997   6.613  11.234   9.170
 1623POPC   GL224998   6.380  11.476   9.052
 1623POPC   C1A24999   6.588  10.931   8.823
 1623POPC   D2A25000   6.528  10.878   8.373
 1623POPC   C3A25001   6.647  11.202   8.070
 1623POPC   C4A25002   6.924  11.304   7.725
 1623POPC   C1B25003   6.591  11.413   8.675
 1623POPC   C2B25004   6.568  11.637   8.340
 1623POPC   C3B25005   6.354  11.661   7.976
 1623POPC   C4B25006   6.575  11.653   7.581
 1624POPC   NC325007   6.539  16.693   9.595
 1624POPC   PO425008   6.187  17.178   9.433
 1624POPC   GL125009   6.340  16.850   9.149
 1624POPC   GL225010   6.736  16.765   9.138
 1624POPC   C1A25011   6.429  16.659   8.754
 1624POPC   D2A25012   6.676  16.458   8.469
 1624POPC   C3A25013   6.494  16.574   8.110
 1624POPC   C4A25014   6.644  16.654   7.728
 1624POPC   C1B25015   6.909  16.898   8.747
 1624POPC   C2B25016   6.799  16.937   8.334
 1624POPC   C3B25017   7.006  16.646   8.063
 1624POPC   C4B25018   7.159  16.759   7.670
 1625POPC   NC325019  29.163   9.614   9.482
 1625POPC   PO425020  28.790  10.171   9.673
 1625POPC   GL125021  28.830   9.955   9.237
 1625POPC   GL225022  29.180   9.954   9.103
 1625POPC   C1A25023  28.811   9.913   8.738
 1625POPC   D2A25024  28.683   9.835   8.303
 1625POPC   C3A25025  28.944   9.850   7.951
 1625POPC   C4A25026  29.059   9.571   7.648
 1625POPC   C1B25027  29.328   9.818   8.699
 1625POPC   C2B25028  29.334   9.543   8.360
 1625POPC   C3B25029  29.416   9.675   7.980
 1625POPC   C4B25030  29.400   9.942   7.625
 1626POPC   NC325031   1.994  31.837   9.466
 1626POPC   PO425032   2.079  31.168   9.335
 1626POPC   GL125033   2.149  31.520   9.079
 1626POPC   GL225034   1.798  31.617   9.057
 1626POPC   C1A25035   2.085  31.549   8.629
 1626POPC   D2A25036   1.769  31.355   8.347
 1626POPC   C3A25037   2.033  31.310   7.990
 1626POPC   C4A25038   2.138  31.725   7.850
 1626POPC   C1B25039   1.584  31.750   8.699
 1626POPC   C2B25040   1.669  31.866   8.310
 1626POPC   C3B25041   1.639  31.665   7.937
 1626POPC   C4B25042   1.721  31.883   7.586
 1627POPC   NC325043  14.721  13.242   9.599
 1627POPC   PO425044  14.379  13.840   9.604
 1627POPC   GL125045  14.383  13.562   9.251
 1627POPC   GL225046  14.582  13.782   9.116
 1627POPC   C1A25047  14.209  13.546   8.803
 1627POPC   D2A25048  13.961  13.588   8.407
 1627POPC   C3A25049  14.226  13.533   8.050
 1627POPC   C4A25050  14.375  13.838   7.804
 1627POPC   C1B25051  14.720  13.510   8.790
 1627POPC   C2B25052  14.654  13.370   8.358
 1627POPC   C3B25053  14.729  13.514   7.920
 1627POPC   C4B25054  14.682  13.632   7.444
 1628POPC   NC325055   3.096   3.294   9.744
 1628POPC   PO425056   2.671   3.747   9.495
 1628POPC   GL125057   2.883   3.514   9.209
 1628POPC   GL225058   2.564   3.496   9.037
 1628POPC   C1A25059   2.975   3.306   8.791
 1628POPC   D2A25060   2.959   3.450   8.346
 1628POPC   C3A25061   2.558   3.449   8.128
 1628POPC   C4A25062   2.389   3.098   7.842
 1628POPC   C1B25063   2.666   3.741   8.664
 1628POPC   C2B25064   2.721   3.947   8.254
 1628POPC   C3B25065   2.776   3.892   7.795
 1628POPC   C4B25066   2.852   3.573   7.479
 1629POPC   NC325067  24.145  35.092   9.385
 1629POPC   PO425068  23.495  35.384   9.508
 1629POPC   GL125069  23.712  35.464   9.073
 1629POPC   GL225070  23.853  35.839   9.005
 1629POPC   C1A25071  23.805  35.523   8.615
 1629POPC   D2A25072  24.092  35.275   8.340
 1629POPC   C3A25073  23.913  35.110   7.946
 1629POPC   C4A25074  23.550  35.276   7.780
 1629POPC   C1B25075  23.389  35.771   8.839
 1629POPC   C2B25076  23.333  35.617   8.482
 1629POPC   C3B25077  23.601  35.630   8.141
 1629POPC   C4B25078  23.353  35.758   7.802
 1630POPC   NC325079   9.252  12.220   9.328
 1630POPC   PO425080   9.158  12.854   9.496
 1630POPC   GL125081   9.042  12.668   9.112
 1630POPC   GL225082   8.660  12.661   9.160
 1630POPC   C1A25083   9.229  12.710   8.680
 1630POPC   D2A25084   9.342  12.503   8.269
 1630POPC   C3A25085   9.332  12.760   7.909
 1630POPC   C4A25086   9.098  12.754   7.489
 1630POPC   C1B25087   8.724  12.861   8.746
 1630POPC   C2B25088   8.948  13.059   8.392
 1630POPC   C3B25089   8.841  12.950   7.984
 1630POPC   C4B25090   8.485  12.714   7.818
 1631POPC   NC325091  37.594   0.003   9.424
 1631POPC   PO425092  38.053  44.528   9.489
 1631POPC   GL125093  37.778  44.542   9.157
 1631POPC   GL225094  37.418  44.526   9.184
 1631POPC   C1A25095  37.720  44.373   8.770
 1631POPC   D2A25096  37.545  44.286   8.365
 1631POPC   C3A25097  37.700  44.551   8.022
 1631POPC   C4A25098  37.698  44.589   7.563
 1631POPC   C1B25099  37.382  44.757   8.772
 1631POPC   C2B25100  37.295  44.754   8.327
 1631POPC   C3B25101  37.418  44.997   7.986
 1631POPC   C4B25102  37.709   0.073   7.670
 1632POPC   NC325103  21.631   4.151   9.648
 1632POPC   PO425104  20.975   4.446   9.652
 1632POPC   GL125105  21.296   4.415   9.315
 1632POPC   GL225106  21.389   4.094   9.164
 1632POPC   C1A25107  21.553   4.501   8.934
 1632POPC   D2A25108  21.671   4.457   8.511
 1632POPC   C3A25109  21.589   4.242   8.140
 1632POPC   C4A25110  21.357   4.473   7.807
 1632POPC   C1B25111  21.440   3.750   8.860
 1632POPC   C2B25112  21.340   3.729   8.440
 1632POPC   C3B25113  21.211   3.902   8.051
 1632POPC   C4B25114  21.478   3.960   7.710
 1633POPC   NC325115  42.485  21.640   9.591
 1633POPC   PO425116  42.579  21.060   9.590
 1633POPC   GL125117  42.387  21.283   9.200
 1633POPC   GL225118  42.165  21.611   9.170
 1633POPC   C1A25119  42.400  21.404   8.755
 1633POPC   D2A25120  42.438  21.744   8.458
 1633POPC   C3A25121  42.439  21.601   8.037
 1633POPC   C4A25122  42.736  21.498   7.704
 1633POPC   C1B25123  41.973  21.705   8.746
 1633POPC   C2B25124  41.943  21.661   8.276
 1633POPC   C3B25125  41.987  21.726   7.810
 1633POPC   C4B25126  42.006  21.643   7.360
 1634POPC   NC325127  11.913  43.629   9.495
 1634POPC   PO425128  12.505  43.927   9.541
 1634POPC   GL125129  12.214  43.852   9.168
 1634POPC   GL225130  11.886  44.049   9.202
 1634POPC   C1A25131  12.077  43.710   8.738
 1634POPC   D2A25132  12.266  43.503   8.356
 1634POPC   C3A25133  12.089  43.674   7.972
 1634POPC   C4A25134  12.215  44.029   7.688
 1634POPC   C1B25135  11.749  44.112   8.779
 1634POPC   C2B25136  11.915  44.086   8.348
 1634POPC   C3B25137  11.823  44.270   7.927
 1634POPC   C4B25138  11.863  44.324   7.473
 1635POPC   NC325139  31.700  35.191   9.394
 1635POPC   PO425140  31.297  35.785   9.382
 1635POPC   GL125141  31.419  35.523   9.105
 1635POPC   GL225142  31.230  35.245   9.211
 1635POPC   C1A25143  31.347  35.576   8.688
 1635POPC   D2A25144  31.461  35.765   8.317
 1635POPC   C3A25145  31.521  35.442   8.011
 1635POPC   C4A25146  31.283  35.361   7.664
 1635POPC   C1B25147  31.326  35.083   8.794
 1635POPC   C2B25148  31.418  34.938   8.352
 1635POPC   C3B25149  31.367  34.922   7.899
 1635POPC   C4B25150  31.488  34.941   7.443
 1636POPC   NC325151  28.632  20.497   9.443
 1636POPC   PO425152  28.026  20.648   9.712
 1636POPC   GL125153  28.180  20.643   9.248
 1636POPC   GL225154  28.428  20.916   9.196
 1636POPC   C1A25155  28.174  20.766   8.777
 1636POPC   D2A25156  27.999  20.867   8.328
 1636POPC   C3A25157  28.084  20.662   7.900
 1636POPC   C4A25158  28.025  20.713   7.407
 1636POPC   C1B25159  28.696  20.809   8.834
 1636POPC   C2B25160  28.618  20.639   8.425
 1636POPC   C3B25161  28.698  20.833   8.027
 1636POPC   C4B25162  28.500  20.735   7.623
 1637POPC   NC325163  12.044  40.244   9.503
 1637POPC   PO425164  12.295  39.731   9.737
 1637POPC   GL125165  12.177  39.826   9.253
 1637POPC   GL225166  11.812  39.969   9.150
 1637POPC   C1A25167  12.231  40.109   8.870
 1637POPC   D2A25168  12.362  40.109   8.441
 1637POPC   C3A25169  12.224  40.180   8.007
 1637POPC   C4A25170  12.280  39.785   7.784
 1637POPC   C1B25171  11.828  39.810   8.729
 1637POPC   C2B25172  11.862  39.961   8.304
 1637POPC   C3B25173  11.753  39.823   7.898
 1637POPC   C4B25174  11.846  39.674   7.529
 1638POPC   NC325175  24.886  40.781   9.403
 1638POPC   PO425176  25.499  40.620   9.516
 1638POPC   GL125177  25.352  40.795   9.137
 1638POPC   GL225178  25.483  41.129   9.095
 1638POPC   C1A25179  25.187  40.590   8.734
 1638POPC   D2A25180  25.261  40.728   8.307
 1638POPC   C3A25181  25.170  40.446   8.003
 1638POPC   C4A25182  25.386  40.363   7.626
 1638POPC   C1B25183  25.391  41.055   8.682
 1638POPC   C2B25184  25.523  41.208   8.299
 1638POPC   C3B25185  25.352  41.237   7.904
 1638POPC   C4B25186  25.472  40.897   7.662
 1639POPC   NC325187   4.216  10.028   9.473
 1639POPC   PO425188   4.753   9.633   9.431
 1639POPC   GL125189   4.486   9.753   9.063
 1639POPC   GL225190   4.357  10.082   9.007
 1639POPC   C1A25191   4.393   9.785   8.604
 1639POPC   D2A25192   4.073   9.690   8.310
 1639POPC   C3A25193   4.207   9.530   7.944
 1639POPC   C4A25194   4.639   9.481   7.802
 1639POPC   C1B25195   4.580  10.272   8.720
 1639POPC   C2B25196   4.754  10.114   8.363
 1639POPC   C3B25197   4.531   9.895   8.094
 1639POPC   C4B25198   4.420   9.961   7.709
 1640POPC   NC325199  12.375  15.773   9.815
 1640POPC   PO425200  11.879  16.085   9.551
 1640POPC   GL125201  11.969  15.879   9.180
 1640POPC   GL225202  11.809  15.537   9.180
 1640POPC   C1A25203  12.143  16.088   8.812
 1640POPC   D2A25204  12.351  15.975   8.456
 1640POPC   C3A25205  12.229  16.116   8.067
 1640POPC   C4A25206  12.157  16.038   7.653
 1640POPC   C1B25207  12.023  15.594   8.760
 1640POPC   C2B25208  12.219  15.513   8.321
 1640POPC   C3B25209  12.208  15.574   7.866
 1640POPC   C4B25210  12.034  15.596   7.389
 1641POPC   NC325211  29.420  18.955   9.574
 1641POPC   PO425212  28.763  19.183   9.495
 1641POPC   GL125213  29.009  19.195   9.144
 1641POPC   GL225214  29.121  18.886   9.115
 1641POPC   C1A25215  28.896  19.161   8.701
 1641POPC   D2A25216  29.096  19.176   8.295
 1641POPC   C3A25217  28.896  19.187   7.910
 1641POPC   C4A25218  28.935  18.884   7.596
 1641POPC   C1B25219  29.344  18.880   8.717
 1641POPC   C2B25220  29.449  18.798   8.292
 1641POPC   C3B25221  29.381  18.996   7.871
 1641POPC   C4B25222  29.423  18.988   7.387
 1642POPC   NC325223  35.046  13.404   9.636
 1642POPC   PO425224  35.617  13.684   9.454
 1642POPC   GL125225  35.423  13.693   9.069
 1642POPC   GL225226  35.114  13.700   9.164
 1642POPC   C1A25227  35.295  13.886   8.686
 1642POPC   D2A25228  35.351  14.115   8.326
 1642POPC   C3A25229  35.363  13.819   7.990
 1642POPC   C4A25230  35.507  13.416   7.852
 1642POPC   C1B25231  35.037  13.466   8.770
 1642POPC   C2B25232  35.230  13.325   8.369
 1642POPC   C3B25233  35.016  13.284   7.973
 1642POPC   C4B25234  34.823  13.656   7.829
 1643POPC   NC325235   7.776  38.784   9.458
 1643POPC   PO425236   8.241  38.360   9.305
 1643POPC   GL125237   8.172  38.678   9.063
 1643POPC   GL225238   7.872  38.519   8.952
 1643POPC   C1A25239   8.387  38.829   8.715
 1643POPC   D2A25240   8.502  38.660   8.338
 1643POPC   C3A25241   8.192  38.546   8.006
 1643POPC   C4A25242   8.279  38.431   7.541
 1643POPC   C1B25243   7.781  38.147   8.672
 1643POPC   C2B25244   7.938  38.064   8.255
 1643POPC   C3B25245   7.921  38.160   7.813
 1643POPC   C4B25246   7.794  38.480   7.474
 1644POPC   NC325247  16.823  19.698   9.546
 1644POPC   PO425248  16.328  20.000   9.562
 1644POPC   GL125249  16.594  19.985   9.168
 1644POPC   GL225250  16.972  19.991   9.146
 1644POPC   C1A25251  16.594  19.978   8.697
 1644POPC   D2A25252  16.295  19.832   8.361
 1644POPC   C3A25253  16.336  19.935   7.907
 1644POPC   C4A25254  16.459  19.898   7.489
 1644POPC   C1B25255  17.139  20.050   8.723
 1644POPC   C2B25256  17.117  19.924   8.289
 1644POPC   C3B25257  16.855  19.996   7.912
 1644POPC   C4B25258  16.952  19.979   7.473
 1645POPC   NC325259  35.482  22.397   9.455
 1645POPC   PO425260  35.419  21.806   9.590
 1645POPC   GL125261  35.242  22.018   9.193
 1645POPC   GL225262  35.182  22.395   9.047
 1645POPC   C1A25263  35.557  22.055   8.846
 1645POPC   D2A25264  35.766  22.042   8.430
 1645POPC   C3A25265  35.517  21.892   8.089
 1645POPC   C4A25266  35.441  21.987   7.647
 1645POPC   C1B25267  35.546  22.585   8.781
 1645POPC   C2B25268  35.739  22.604   8.330
 1645POPC   C3B25269  35.525  22.395   7.975
 1645POPC   C4B25270  35.081  22.258   7.929
 1646POPC   NC325271  42.766  40.173   9.510
 1646POPC   PO425272  42.014  40.165   9.547
 1646POPC   GL125273  42.329  40.150   9.237
 1646POPC   GL225274  42.511  39.844   9.181
 1646POPC   C1A25275  42.395  40.195   8.797
 1646POPC   D2A25276  42.090  40.162   8.443
 1646POPC   C3A25277  42.205  40.221   8.002
 1646POPC   C4A25278  42.540  40.096   7.713
 1646POPC   C1B25279  42.583  39.723   8.733
 1646POPC   C2B25280  42.506  39.867   8.285
 1646POPC   C3B25281  42.560  39.621   7.879
 1646POPC   C4B25282  42.481  39.580   7.410
 1647POPC   NC325283  30.535  18.081   9.436
 1647POPC   PO425284  30.252  18.709   9.327
 1647POPC   GL125285  30.622  18.542   9.039
 1647POPC   GL225286  30.681  18.169   8.963
 1647POPC   C1A25287  31.001  18.496   8.759
 1647POPC   D2A25288  31.005  18.098   8.524
 1647POPC   C3A25289  30.801  18.152   8.107
 1647POPC   C4A25290  31.034  18.089   7.722
 1647POPC   C1B25291  30.516  18.342   8.577
 1647POPC   C2B25292  30.418  18.602   8.243
 1647POPC   C3B25293  30.594  18.574   7.843
 1647POPC   C4B25294  30.572  18.237   7.590
 1648POPC   NC325295  17.383  38.719   9.534
 1648POPC   PO425296  17.515  38.108   9.420
 1648POPC   GL125297  17.525  38.444   9.133
 1648POPC   GL225298  17.805  38.674   9.228
 1648POPC   C1A25299  17.370  38.564   8.747
 1648POPC   D2A25300  17.519  38.522   8.360
 1648POPC   C3A25301  17.278  38.393   8.039
 1648POPC   C4A25302  17.147  38.603   7.674
 1648POPC   C1B25303  17.918  38.528   8.820
 1648POPC   C2B25304  17.991  38.657   8.404
 1648POPC   C3B25305  17.900  38.403   8.025
 1648POPC   C4B25306  17.632  38.337   7.686
 1649POPC   NC325307  12.062  10.407   9.473
 1649POPC   PO425308  11.872  10.870   9.185
 1649POPC   GL125309  11.857  10.526   8.965
 1649POPC   GL225310  12.170  10.322   8.978
 1649POPC   C1A25311  11.682  10.528   8.586
 1649POPC   D2A25312  11.912  10.409   8.329
 1649POPC   C3A25313  11.822  10.692   8.035
 1649POPC   C4A25314  11.721  10.549   7.646
 1649POPC   C1B25315  12.272  10.621   8.658
 1649POPC   C2B25316  12.379  10.571   8.237
 1649POPC   C3B25317  12.210  10.388   7.894
 1649POPC   C4B25318  12.176  10.729   7.623
 1650POPC   NC325319   7.314  16.260   9.440
 1650POPC   PO425320   7.579  15.638   9.575
 1650POPC   GL125321   7.404  15.678   9.132
 1650POPC   GL225322   7.332  16.007   9.016
 1650POPC   C1A25323   7.380  15.670   8.644
 1650POPC   D2A25324   7.568  15.938   8.305
 1650POPC   C3A25325   7.621  15.708   7.900
 1650POPC   C4A25326   7.484  15.799   7.452
 1650POPC   C1B25327   7.007  16.182   8.766
 1650POPC   C2B25328   7.113  16.218   8.334
 1650POPC   C3B25329   7.240  16.063   7.933
 1650POPC   C4B25330   7.266  16.279   7.578
 1651POPC   NC325331  32.485  18.034   9.407
 1651POPC   PO425332  31.899  18.391   9.458
 1651POPC   GL125333  32.100  18.224   9.115
 1651POPC   GL225334  32.000  17.863   9.209
 1651POPC   C1A25335  32.439  18.237   8.770
 1651POPC   D2A25336  32.716  18.348   8.421
 1651POPC   C3A25337  32.427  18.238   8.105
 1651POPC   C4A25338  32.283  18.379   7.727
 1651POPC   C1B25339  32.044  17.872   8.754
 1651POPC   C2B25340  32.039  18.229   8.463
 1651POPC   C3B25341  31.914  18.203   8.051
 1651POPC   C4B25342  32.092  17.876   7.766
 1652POPC   NC325343  25.815  38.104   9.517
 1652POPC   PO425344  26.471  38.259   9.660
 1652POPC   GL125345  26.225  38.306   9.247
 1652POPC   GL225346  25.860  38.312   9.074
 1652POPC   C1A25347  26.234  38.556   8.860
 1652POPC   D2A25348  26.431  38.787   8.522
 1652POPC   C3A25349  26.400  38.679   8.077
 1652POPC   C4A25350  26.221  38.609   7.657
 1652POPC   C1B25351  25.752  38.477   8.670
 1652POPC   C2B25352  25.603  38.406   8.252
 1652POPC   C3B25353  25.714  38.503   7.822
 1652POPC   C4B25354  25.779  38.308   7.416
 1653POPC   NC325355   2.917  37.857   9.590
 1653POPC   PO425356   3.115  37.203   9.654
 1653POPC   GL125357   2.997  37.459   9.255
 1653POPC   GL225358   2.655  37.636   9.191
 1653POPC   C1A25359   3.046  37.769   8.868
 1653POPC   D2A25360   2.898  37.990   8.434
 1653POPC   C3A25361   2.891  37.819   8.006
 1653POPC   C4A25362   2.813  37.408   7.775
 1653POPC   C1B25363   2.568  37.660   8.718
 1653POPC   C2B25364   2.664  37.442   8.323
 1653POPC   C3B25365   2.380  37.260   8.015
 1653POPC   C4B25366   2.329  37.565   7.718
 1654POPC   NC325367   4.468  18.947   9.467
 1654POPC   PO425368   4.135  19.236   9.898
 1654POPC   GL125369   4.061  19.192   9.326
 1654POPC   GL225370   4.393  19.274   9.090
 1654POPC   C1A25371   4.162  18.888   8.882
 1654POPC   D2A25372   4.134  18.943   8.425
 1654POPC   C3A25373   4.363  19.166   8.086
 1654POPC   C4A25374   4.294  19.058   7.639
 1654POPC   C1B25375   4.642  18.992   8.767
 1654POPC   C2B25376   4.620  18.770   8.348
 1654POPC   C3B25377   4.824  18.906   7.963
 1654POPC   C4B25378   4.772  19.191   7.595
 1655POPC   NC325379  30.034  20.817   9.693
 1655POPC   PO425380  29.741  21.419   9.434
 1655POPC   GL125381  29.825  21.146   9.136
 1655POPC   GL225382  30.128  21.033   9.225
 1655POPC   C1A25383  29.850  21.285   8.713
 1655POPC   D2A25384  30.005  21.580   8.392
 1655POPC   C3A25385  29.808  21.496   8.002
 1655POPC   C4A25386  29.661  21.637   7.595
 1655POPC   C1B25387  30.327  21.070   8.827
 1655POPC   C2B25388  30.161  21.024   8.405
 1655POPC   C3B25389  30.172  21.117   7.963
 1655POPC   C4B25390  30.051  21.307   7.580
 1656POPC   NC325391  25.181  24.818   9.580
 1656POPC   PO425392  25.536  24.247   9.702
 1656POPC   GL125393  25.306  24.358   9.270
 1656POPC   GL225394  25.228  24.641   9.120
 1656POPC   C1A25395  25.276  24.217   8.810
 1656POPC   D2A25396  25.027  24.296   8.408
 1656POPC   C3A25397  25.203  24.399   8.003
 1656POPC   C4A25398  25.618  24.267   7.910
 1656POPC   C1B25399  25.072  24.685   8.734
 1656POPC   C2B25400  25.212  24.851   8.343
 1656POPC   C3B25401  25.113  24.896   7.886
 1656POPC   C4B25402  25.008  24.642   7.502
 1657POPC   NC325403  10.667  22.920   9.496
 1657POPC   PO425404   9.978  22.791   9.483
 1657POPC   GL125405  10.290  22.769   9.182
 1657POPC   GL225406  10.199  23.061   9.055
 1657POPC   C1A25407  10.634  22.714   8.864
 1657POPC   D2A25408  10.682  22.836   8.432
 1657POPC   C3A25409  10.496  22.610   8.101
 1657POPC   C4A25410  10.364  22.909   7.813
 1657POPC   C1B25411  10.466  23.216   8.731
 1657POPC   C2B25412  10.678  23.359   8.343
 1657POPC   C3B25413  10.561  23.381   7.876
 1657POPC   C4B25414  10.238  23.369   7.535
 1658POPC   NC325415  10.862  44.834   9.453
 1658POPC   PO425416  10.117  44.653   9.402
 1658POPC   GL125417  10.372  44.519   9.103
 1658POPC   GL225418  10.690  44.577   9.085
 1658POPC   C1A25419  10.417  44.569   8.666
 1658POPC   D2A25420  10.377  44.250   8.368
 1658POPC   C3A25421  10.394  44.465   7.988
 1658POPC   C4A25422  10.190  44.434   7.608
 1658POPC   C1B25423  10.896  44.821   8.751
 1658POPC   C2B25424  10.781  44.858   8.319
 1658POPC   C3B25425  10.824  44.843   7.873
 1658POPC   C4B25426  10.608  44.696   7.488
 1659POPC   NC325427  38.562  41.677   9.811
 1659POPC   PO425428  38.024  41.477   9.365
 1659POPC   GL125429  38.257  41.331   9.005
 1659POPC   GL225430  38.657  41.319   8.975
 1659POPC   C1A25431  38.303  41.391   8.594
 1659POPC   D2A25432  38.068  41.341   8.249
 1659POPC   C3A25433  38.439  41.391   8.043
 1659POPC   C4A25434  38.556  41.206   7.665
 1659POPC   C1B25435  38.706  41.733   8.748
 1659POPC   C2B25436  38.608  41.932   8.406
 1659POPC   C3B25437  38.616  41.883   8.016
 1659POPC   C4B25438  38.546  41.714   7.663
 1660POPC   NC325439  29.748  27.425   9.522
 1660POPC   PO425440  29.160  27.837   9.588
 1660POPC   GL125441  29.281  27.539   9.195
 1660POPC   GL225442  29.061  27.214   9.132
 1660POPC   C1A25443  29.206  27.520   8.711
 1660POPC   D2A25444  28.999  27.749   8.335
 1660POPC   C3A25445  29.192  27.692   7.909
 1660POPC   C4A25446  29.482  27.842   7.590
 1660POPC   C1B25447  28.771  27.240   8.759
 1660POPC   C2B25448  28.922  27.254   8.309
 1660POPC   C3B25449  28.840  27.282   7.870
 1660POPC   C4B25450  29.004  27.104   7.503
 1661POPC   NC325451  26.346   8.513   9.509
 1661POPC   PO425452  25.590   8.473   9.447
 1661POPC   GL125453  25.897   8.225   9.145
 1661POPC   GL225454  26.279   8.312   9.071
 1661POPC   C1A25455  26.040   8.053   8.724
 1661POPC   D2A25456  26.011   8.286   8.336
 1661POPC   C3A25457  25.978   8.020   8.011
 1661POPC   C4A25458  25.692   7.977   7.696
 1661POPC   C1B25459  26.202   8.535   8.741
 1661POPC   C2B25460  26.409   8.638   8.343
 1661POPC   C3B25461  26.371   8.565   7.909
 1661POPC   C4B25462  26.014   8.398   7.679
 1662POPC   NC325463  11.256  33.749   9.680
 1662POPC   PO425464  11.399  34.320   9.658
 1662POPC   GL125465  11.207  34.050   9.246
 1662POPC   GL225466  11.254  33.737   9.110
 1662POPC   C1A25467  11.240  34.064   8.755
 1662POPC   D2A25468  11.542  33.883   8.470
 1662POPC   C3A25469  11.402  34.002   8.074
 1662POPC   C4A25470  11.515  34.119   7.667
 1662POPC   C1B25471  11.245  33.541   8.726
 1662POPC   C2B25472  11.135  33.625   8.296
 1662POPC   C3B25473  11.432  33.513   7.950
 1662POPC   C4B25474  11.399  33.185   7.651
 1663POPC   NC325475  33.993  33.866   9.559
 1663POPC   PO425476  33.370  33.665   9.613
 1663POPC   GL125477  33.501  33.891   9.245
 1663POPC   GL225478  33.734  33.670   9.168
 1663POPC   C1A25479  33.568  34.048   8.808
 1663POPC   D2A25480  33.822  34.126   8.427
 1663POPC   C3A25481  33.760  33.939   8.027
 1663POPC   C4A25482  34.000  33.669   7.777
 1663POPC   C1B25483  33.894  33.625   8.758
 1663POPC   C2B25484  33.724  33.527   8.359
 1663POPC   C3B25485  33.575  33.438   7.945
 1663POPC   C4B25486  33.411  33.238   7.600
 1664POPC   NC325487  34.719  43.912   9.681
 1664POPC   PO425488  34.294  43.308   9.391
 1664POPC   GL125489  34.453  43.679   9.187
 1664POPC   GL225490  34.364  44.018   9.311
 1664POPC   C1A25491  34.604  43.711   8.769
 1664POPC   D2A25492  34.401  43.756   8.380
 1664POPC   C3A25493  34.584  43.932   8.046
 1664POPC   C4A25494  34.526  43.845   7.628
 1664POPC   C1B25495  34.574  44.191   8.949
 1664POPC   C2B25496  34.645  44.199   8.515
 1664POPC   C3B25497  34.921  44.320   8.165
 1664POPC   C4B25498  34.809  44.243   7.713
 1665POPC   NC325499  44.949  14.170   9.719
 1665POPC   PO425500  44.384  13.929   9.746
 1665POPC   GL125501  44.488  14.143   9.302
 1665POPC   GL225502  44.801  14.309   9.160
 1665POPC   C1A25503  44.467  14.186   8.809
 1665POPC   D2A25504  44.508  14.525   8.490
 1665POPC   C3A25505  44.554  14.422   8.059
 1665POPC   C4A25506  44.820  14.462   7.738
 1665POPC   C1B25507  44.955  14.450   8.735
 1665POPC   C2B25508   0.053  14.538   8.263
 1665POPC   C3B25509   0.004  14.885   7.913
 1665POPC   C4B25510  44.635  14.946   7.611
 1666POPC   NC325511  21.216  25.209   9.503
 1666POPC   PO425512  21.786  24.895   9.344
 1666POPC   GL125513  21.484  25.146   9.074
 1666POPC   GL225514  21.124  25.004   9.052
 1666POPC   C1A25515  21.294  25.343   8.692
 1666POPC   D2A25516  21.268  25.197   8.269
 1666POPC   C3A25517  21.219  25.529   7.967
 1666POPC   C4A25518  21.432  25.540   7.573
 1666POPC   C1B25519  20.836  24.994   8.730
 1666POPC   C2B25520  20.757  24.989   8.307
 1666POPC   C3B25521  20.950  24.889   7.986
 1666POPC   C4B25522  21.298  25.062   7.766
 1667POPC   NC325523  30.086  40.451   9.441
 1667POPC   PO425524  29.699  40.920   9.636
 1667POPC   GL125525  29.859  40.873   9.216
 1667POPC   GL225526  30.239  40.927   9.248
 1667POPC   C1A25527  29.850  40.660   8.792
 1667POPC   D2A25528  29.680  40.678   8.350
 1667POPC   C3A25529  29.966  40.653   7.986
 1667POPC   C4A25530  29.788  40.729   7.560
 1667POPC   C1B25531  30.219  41.045   8.828
 1667POPC   C2B25532  30.078  40.991   8.438
 1667POPC   C3B25533  30.269  41.057   8.065
 1667POPC   C4B25534  30.192  41.007   7.667
 1668POPC   NC325535   7.408  21.026   9.467
 1668POPC   PO425536   7.223  21.620   9.453
 1668POPC   GL125537   7.398  21.407   9.116
 1668POPC   GL225538   7.724  21.513   9.208
 1668POPC   C1A25539   7.296  21.285   8.697
 1668POPC   D2A25540   7.391  21.519   8.358
 1668POPC   C3A25541   7.325  21.274   8.026
 1668POPC   C4A25542   7.423  21.344   7.599
 1668POPC   C1B25543   7.772  21.470   8.757
 1668POPC   C2B25544   7.914  21.545   8.343
 1668POPC   C3B25545   7.785  21.485   7.950
 1668POPC   C4B25546   7.888  21.458   7.504
 1669POPC   NC325547  27.390  42.199   9.389
 1669POPC   PO425548  27.730  42.791   9.222
 1669POPC   GL125549  27.819  42.424   8.979
 1669POPC   GL225550  27.922  42.131   9.113
 1669POPC   C1A25551  27.556  42.090   8.736
 1669POPC   D2A25552  27.530  41.851   8.332
 1669POPC   C3A25553  27.519  42.008   7.890
 1669POPC   C4A25554  27.614  42.406   7.660
 1669POPC   C1B25555  28.068  42.091   8.685
 1669POPC   C2B25556  27.965  42.096   8.237
 1669POPC   C3B25557  28.025  42.142   7.791
 1669POPC   C4B25558  27.863  42.085   7.343
 1670POPC   NC325559   3.501  26.530   9.407
 1670POPC   PO425560   3.325  27.075   9.666
 1670POPC   GL125561   3.509  27.010   9.169
 1670POPC   GL225562   3.309  27.240   8.906
 1670POPC   C1A25563   3.770  26.770   8.776
 1670POPC   D2A25564   3.739  26.472   8.364
 1670POPC   C3A25565   3.699  26.599   7.885
 1670POPC   C4A25566   3.442  26.374   7.533
 1670POPC   C1B25567   3.274  26.826   8.709
 1670POPC   C2B25568   3.308  26.715   8.269
 1670POPC   C3B25569   3.223  26.770   7.827
 1670POPC   C4B25570   3.348  27.098   7.532
 1671POPC   NC325571  44.969   5.723   9.451
 1671POPC   PO425572   0.615   5.868   9.531
 1671POPC   GL125573   0.430   5.701   9.170
 1671POPC   GL225574   0.254   5.982   9.112
 1671POPC   C1A25575   0.361   5.687   8.711
 1671POPC   D2A25576   0.245   5.457   8.362
 1671POPC   C3A25577   0.428   5.694   8.052
 1671POPC   C4A25578   0.353   5.942   7.711
 1671POPC   C1B25579   0.612   6.130   8.857
 1671POPC   C2B25580   0.637   6.026   8.415
 1671POPC   C3B25581   0.699   6.186   7.986
 1671POPC   C4B25582   0.733   6.209   7.488
 1672POPC   NC325583  33.386   0.977   9.437
 1672POPC   PO425584  33.918   1.382   9.565
 1672POPC   GL125585  33.800   1.233   9.182
 1672POPC   GL225586  33.486   1.390   9.135
 1672POPC   C1A25587  33.986   1.241   8.775
 1672POPC   D2A25588  34.102   0.991   8.398
 1672POPC   C3A25589  34.015   1.167   7.979
 1672POPC   C4A25590  34.013   1.039   7.546
 1672POPC   C1B25591  33.450   1.134   8.796
 1672POPC   C2B25592  33.621   1.158   8.404
 1672POPC   C3B25593  33.527   1.333   8.008
 1672POPC   C4B25594  33.500   1.048   7.661
 1673POPC   NC325595  26.480  37.798   9.560
 1673POPC   PO425596  25.815  37.647   9.542
 1673POPC   GL125597  26.072  37.760   9.192
 1673POPC   GL225598  26.041  37.412   9.087
 1673POPC   C1A25599  26.181  38.009   8.827
 1673POPC   D2A25600  25.984  38.065   8.410
 1673POPC   C3A25601  26.120  38.241   8.040
 1673POPC   C4A25602  26.258  38.105   7.641
 1673POPC   C1B25603  26.038  37.554   8.667
 1673POPC   C2B25604  26.293  37.659   8.313
 1673POPC   C3B25605  26.144  37.673   7.920
 1673POPC   C4B25606  25.758  37.460   7.888
 1674POPC   NC325607  39.978  21.041   9.549
 1674POPC   PO425608  40.443  21.521   9.405
 1674POPC   GL125609  40.022  21.463   9.143
 1674POPC   GL225610  39.743  21.751   9.120
 1674POPC   C1A25611  39.962  21.288   8.731
 1674POPC   D2A25612  40.215  21.425   8.362
 1674POPC   C3A25613  40.161  21.235   7.936
 1674POPC   C4A25614  40.042  21.065   7.523
 1674POPC   C1B25615  39.896  21.780   8.680
 1674POPC   C2B25616  39.798  21.677   8.223
 1674POPC   C3B25617  39.865  21.650   7.815
 1674POPC   C4B25618  39.997  21.927   7.531
 1675POPC   NC325619  29.850  18.465   9.422
 1675POPC   PO425620  30.125  17.882   9.333
 1675POPC   GL125621  29.885  18.080   9.079
 1675POPC   GL225622  30.160  18.314   8.998
 1675POPC   C1A25623  29.737  18.270   8.725
 1675POPC   D2A25624  29.949  18.404   8.377
 1675POPC   C3A25625  29.684  18.368   8.033
 1675POPC   C4A25626  29.691  18.097   7.696
 1675POPC   C1B25627  30.178  17.977   8.676
 1675POPC   C2B25628  30.351  17.920   8.277
 1675POPC   C3B25629  30.221  18.192   7.972
 1675POPC   C4B25630  30.084  18.485   7.719
 1676POPC   NC325631  40.341  11.368   9.759
 1676POPC   PO425632  40.977  11.327   9.404
 1676POPC   GL125633  40.965  11.054   9.082
 1676POPC   GL225634  40.603  10.964   9.151
 1676POPC   C1A25635  41.107  11.157   8.653
 1676POPC   D2A25636  40.858  11.409   8.367
 1676POPC   C3A25637  41.010  11.546   7.988
 1676POPC   C4A25638  40.729  11.667   7.671
 1676POPC   C1B25639  40.600  11.155   8.728
 1676POPC   C2B25640  40.431  11.079   8.300
 1676POPC   C3B25641  40.675  11.200   7.922
 1676POPC   C4B25642  40.619  11.232   7.419
 1677POPC   NC325643  11.694  28.240   9.422
 1677POPC   PO425644  12.357  28.227   9.497
 1677POPC   GL125645  12.100  28.242   9.093
 1677POPC   GL225646  11.823  28.517   9.020
 1677POPC   C1A25647  12.057  28.230   8.631
 1677POPC   D2A25648  12.392  28.096   8.332
 1677POPC   C3A25649  12.230  28.221   7.961
 1677POPC   C4A25650  11.816  28.282   7.800
 1677POPC   C1B25651  12.221  28.668   8.807
 1677POPC   C2B25652  12.294  28.601   8.354
 1677POPC   C3B25653  12.035  28.703   7.997
 1677POPC   C4B25654  11.583  28.773   7.907
 1678POPC   NC325655   4.020  29.513   9.519
 1678POPC   PO425656   4.487  29.068   9.712
 1678POPC   GL125657   4.366  29.144   9.209
 1678POPC   GL225658   4.072  29.330   9.044
 1678POPC   C1A25659   4.427  29.224   8.712
 1678POPC   D2A25660   4.607  29.172   8.297
 1678POPC   C3A25661   4.392  29.165   7.912
 1678POPC   C4A25662   4.338  29.062   7.475
 1678POPC   C1B25663   3.938  29.020   8.745
 1678POPC   C2B25664   4.088  29.066   8.336
 1678POPC   C3B25665   3.887  29.177   7.966
 1678POPC   C4B25666   4.073  28.776   7.825
 1679POPC   NC325667  42.847  39.098   9.449
 1679POPC   PO425668  42.903  39.710   9.497
 1679POPC   GL125669  42.899  39.501   9.100
 1679POPC   GL225670  43.161  39.258   9.078
 1679POPC   C1A25671  43.107  39.600   8.695
 1679POPC   D2A25672  43.482  39.594   8.416
 1679POPC   C3A25673  43.390  39.450   7.987
 1679POPC   C4A25674  43.476  39.224   7.614
 1679POPC   C1B25675  43.496  39.236   8.787
 1679POPC   C2B25676  43.627  39.038   8.405
 1679POPC   C3B25677  43.444  38.922   8.007
 1679POPC   C4B25678  43.044  38.983   7.763
 1680POPC   NC325679   5.373  35.314   9.540
 1680POPC   PO425680   4.934  35.850   9.390
 1680POPC   GL125681   5.062  35.448   9.142
 1680POPC   GL225682   5.138  35.064   9.159
 1680POPC   C1A25683   5.175  35.297   8.733
 1680POPC   D2A25684   5.315  35.429   8.410
 1680POPC   C3A25685   5.048  35.381   8.096
 1680POPC   C4A25686   5.265  35.369   7.736
 1680POPC   C1B25687   4.857  34.915   8.859
 1680POPC   C2B25688   4.767  35.093   8.440
 1680POPC   C3B25689   4.829  34.921   8.034
 1680POPC   C4B25690   4.923  34.915   7.572
 1681POPC   NC325691  15.143  31.736   9.678
 1681POPC   PO425692  14.899  31.111   9.615
 1681POPC   GL125693  15.177  31.364   9.322
 1681POPC   GL225694  15.129  31.714   9.161
 1681POPC   C1A25695  15.307  31.322   8.893
 1681POPC   D2A25696  15.121  31.282   8.518
 1681POPC   C3A25697  15.276  31.321   8.104
 1681POPC   C4A25698  15.150  31.360   7.692
 1681POPC   C1B25699  14.998  31.751   8.722
 1681POPC   C2B25700  15.000  31.719   8.280
 1681POPC   C3B25701  14.917  31.817   7.878
 1681POPC   C4B25702  15.229  31.885   7.590
 1682POPC   NC325703  21.903  27.652   9.456
 1682POPC   PO425704  22.405  27.263   9.367
 1682POPC   GL125705  22.255  27.535   9.083
 1682POPC   GL225706  22.288  27.873   9.203
 1682POPC   C1A25707  22.011  27.416   8.735
 1682POPC   D2A25708  22.057  27.216   8.357
 1682POPC   C3A25709  22.043  27.462   7.996
 1682POPC   C4A25710  22.097  27.401   7.594
 1682POPC   C1B25711  22.053  27.928   8.808
 1682POPC   C2B25712  22.158  27.812   8.390
 1682POPC   C3B25713  22.012  27.961   8.012
 1682POPC   C4B25714  22.089  27.912   7.622
 1683POPC   NC325715  25.330  37.826   9.619
 1683POPC   PO425716  24.975  37.282   9.513
 1683POPC   GL125717  25.242  37.513   9.162
 1683POPC   GL225718  25.515  37.802   9.153
 1683POPC   C1A25719  25.230  37.644   8.698
 1683POPC   D2A25720  25.060  37.483   8.281
 1683POPC   C3A25721  25.247  37.575   7.861
 1683POPC   C4A25722  25.068  37.642   7.414
 1683POPC   C1B25723  25.662  37.910   8.766
 1683POPC   C2B25724  25.533  37.839   8.322
 1683POPC   C3B25725  25.681  37.976   7.927
 1683POPC   C4B25726  25.417  37.975   7.572
 1684POPC   NC325727   9.167  40.900   9.560
 1684POPC   PO425728   8.770  40.460   9.337
 1684POPC   GL125729   9.050  40.684   9.080
 1684POPC   GL225730   8.916  41.015   9.128
 1684POPC   C1A25731   9.061  40.748   8.627
 1684POPC   D2A25732   8.911  40.595   8.207
 1684POPC   C3A25733   9.111  40.861   7.889
 1684POPC   C4A25734   9.482  41.099   7.852
 1684POPC   C1B25735   8.747  41.162   8.756
 1684POPC   C2B25736   8.649  41.298   8.339
 1684POPC   C3B25737   8.639  41.061   7.927
 1684POPC   C4B25738   8.795  41.101   7.493
 1685POPC   NC325739  13.068  16.984   9.595
 1685POPC   PO425740  12.682  16.465   9.386
 1685POPC   GL125741  12.859  16.823   9.143
 1685POPC   GL225742  13.220  16.938   9.123
 1685POPC   C1A25743  12.923  16.778   8.702
 1685POPC   D2A25744  12.995  16.625   8.264
 1685POPC   C3A25745  12.707  16.513   7.914
 1685POPC   C4A25746  12.660  16.740   7.503
 1685POPC   C1B25747  13.288  17.186   8.776
 1685POPC   C2B25748  13.190  17.074   8.378
 1685POPC   C3B25749  13.282  16.968   7.994
 1685POPC   C4B25750  13.039  17.031   7.661
 1686POPC   NC325751   6.183  33.352   9.388
 1686POPC   PO425752   6.693  32.770   9.460
 1686POPC   GL125753   6.494  32.984   9.185
 1686POPC   GL225754   6.777  33.110   9.059
 1686POPC   C1A25755   6.468  32.872   8.736
 1686POPC   D2A25756   6.783  33.105   8.515
 1686POPC   C3A25757   6.750  33.201   8.075
 1686POPC   C4A25758   6.609  33.053   7.651
 1686POPC   C1B25759   7.010  33.407   8.855
 1686POPC   C2B25760   7.212  33.393   8.448
 1686POPC   C3B25761   7.211  33.442   8.014
 1686POPC   C4B25762   7.114  33.138   7.684
 1687POPC   NC325763  12.109  42.559   9.826
 1687POPC   PO425764  11.848  42.078   9.371
 1687POPC   GL125765  12.097  42.269   9.102
 1687POPC   GL225766  12.436  42.216   9.112
 1687POPC   C1A25767  12.117  42.503   8.739
 1687POPC   D2A25768  11.798  42.532   8.441
 1687POPC   C3A25769  11.951  42.609   8.033
 1687POPC   C4A25770  11.872  42.348   7.673
 1687POPC   C1B25771  12.396  42.059   8.708
 1687POPC   C2B25772  12.295  42.277   8.303
 1687POPC   C3B25773  12.376  42.376   7.870
 1687POPC   C4B25774  12.321  42.142   7.497
 1688POPC   NC325775  29.284  24.995   9.786
 1688POPC   PO425776  29.001  25.404   9.372
 1688POPC   GL125777  29.323  25.154   9.221
 1688POPC   GL225778  29.478  25.451   9.091
 1688POPC   C1A25779  29.389  24.992   8.812
 1688POPC   D2A25780  29.298  24.664   8.501
 1688POPC   C3A25781  29.114  24.833   8.117
 1688POPC   C4A25782  29.280  25.092   7.814
 1688POPC   C1B25783  29.177  25.499   8.729
 1688POPC   C2B25784  29.314  25.610   8.307
 1688POPC   C3B25785  29.224  25.589   7.880
 1688POPC   C4B25786  28.915  25.384   7.620
 1689POPC   NC325787  37.112  25.060   9.581
 1689POPC   PO425788  36.565  25.431   9.470
 1689POPC   GL125789  36.904  25.347   9.197
 1689POPC   GL225790  37.162  25.639   9.233
 1689POPC   C1A25791  36.864  25.169   8.777
 1689POPC   D2A25792  36.561  25.334   8.489
 1689POPC   C3A25793  36.611  25.552   8.077
 1689POPC   C4A25794  36.772  25.394   7.684
 1689POPC   C1B25795  37.127  25.592   8.793
 1689POPC   C2B25796  37.031  25.499   8.376
 1689POPC   C3B25797  37.168  25.581   7.976
 1689POPC   C4B25798  37.593  25.600   7.853
 1690POPC   NC325799  28.992  34.246   9.610
 1690POPC   PO425800  29.206  34.879   9.475
 1690POPC   GL125801  29.153  34.626   9.153
 1690POPC   GL225802  29.430  34.391   9.283
 1690POPC   C1A25803  29.137  34.827   8.723
 1690POPC   D2A25804  28.895  34.905   8.338
 1690POPC   C3A25805  29.116  34.789   7.982
 1690POPC   C4A25806  29.006  34.606   7.614
 1690POPC   C1B25807  29.505  34.441   8.815
 1690POPC   C2B25808  29.601  34.243   8.397
 1690POPC   C3B25809  29.473  34.374   7.972
 1690POPC   C4B25810  29.416  34.336   7.519
 1691POPC   NC325811  14.897  35.051   9.438
 1691POPC   PO425812  15.481  35.328   9.520
 1691POPC   GL125813  15.220  35.369   9.130
 1691POPC   GL225814  15.047  35.117   8.960
 1691POPC   C1A25815  15.388  35.559   8.775
 1691POPC   D2A25816  15.624  35.491   8.390
 1691POPC   C3A25817  15.458  35.555   7.948
 1691POPC   C4A25818  15.300  35.347   7.567
 1691POPC   C1B25819  14.768  35.161   8.624
 1691POPC   C2B25820  14.772  35.335   8.215
 1691POPC   C3B25821  14.854  35.239   7.759
 1691POPC   C4B25822  14.934  35.001   7.325
 1692POPC   NC325823  13.065  44.711   9.455
 1692POPC   PO425824  12.420  44.901   9.334
 1692POPC   GL125825  12.502  44.723   8.932
 1692POPC   GL225826  12.775  44.580   9.061
 1692POPC   C1A25827  12.849  44.809   8.616
 1692POPC   D2A25828  12.821   0.067   8.284
 1692POPC   C3A25829  12.645  44.791   7.983
 1692POPC   C4A25830  12.985  44.758   7.714
 1692POPC   C1B25831  12.739  44.312   8.703
 1692POPC   C2B25832  12.744  44.393   8.321
 1692POPC   C3B25833  12.872  44.309   7.951
 1692POPC   C4B25834  12.674  44.315   7.590
 1693POPC   NC325835  43.298   9.328   9.612
 1693POPC   PO425836  42.944   8.719   9.524
 1693POPC   GL125837  42.981   8.908   9.166
 1693POPC   GL225838  43.016   9.242   9.198
 1693POPC   C1A25839  43.040   8.744   8.770
 1693POPC   D2A25840  42.800   8.729   8.425
 1693POPC   C3A25841  43.051   8.779   8.113
 1693POPC   C4A25842  42.925   8.892   7.739
 1693POPC   C1B25843  43.243   9.209   8.812
 1693POPC   C2B25844  43.198   9.371   8.405
 1693POPC   C3B25845  43.236   9.257   7.976
 1693POPC   C4B25846  43.435   8.945   7.775
 1694POPC   NC325847  28.878  12.906   9.665
 1694POPC   PO425848  29.395  12.467   9.460
 1694POPC   GL125849  29.244  12.557   9.055
 1694POPC   GL225850  29.141  12.879   9.128
 1694POPC   C1A25851  29.208  12.705   8.652
 1694POPC   D2A25852  29.160  13.046   8.417
 1694POPC   C3A25853  29.227  12.907   8.034
 1694POPC   C4A25854  29.110  12.883   7.605
 1694POPC   C1B25855  29.489  13.072   8.879
 1694POPC   C2B25856  29.653  12.989   8.469
 1694POPC   C3B25857  29.649  13.206   8.113
 1694POPC   C4B25858  29.574  13.130   7.724
 1695POPC   NC325859  35.330  14.064   9.500
 1695POPC   PO425860  34.995  14.636   9.495
 1695POPC   GL125861  35.340  14.517   9.127
 1695POPC   GL225862  35.478  14.196   9.047
 1695POPC   C1A25863  35.417  14.700   8.735
 1695POPC   D2A25864  35.067  14.739   8.452
 1695POPC   C3A25865  35.190  14.544   8.090
 1695POPC   C4A25866  35.137  14.406   7.670
 1695POPC   C1B25867  35.685  14.272   8.703
 1695POPC   C2B25868  35.728  14.488   8.296
 1695POPC   C3B25869  35.601  14.297   7.889
 1695POPC   C4B25870  35.526  14.197   7.442
 1696POPC   NC325871  38.177  15.457   9.431
 1696POPC   PO425872  38.612  14.917   9.383
 1696POPC   GL125873  38.229  14.977   9.054
 1696POPC   GL225874  38.050  15.307   8.979
 1696POPC   C1A25875  38.122  15.012   8.602
 1696POPC   D2A25876  38.174  15.288   8.284
 1696POPC   C3A25877  38.354  15.110   7.917
 1696POPC   C4A25878  38.734  15.206   7.667
 1696POPC   C1B25879  38.098  15.629   8.665
 1696POPC   C2B25880  38.350  15.795   8.326
 1696POPC   C3B25881  38.421  15.610   7.941
 1696POPC   C4B25882  37.997  15.476   7.851
 1697POPC   NC325883   6.131  24.787   9.491
 1697POPC   PO425884   5.567  24.399   9.498
 1697POPC   GL125885   5.842  24.430   9.207
 1697POPC   GL225886   5.656  24.681   9.056
 1697POPC   C1A25887   6.035  24.424   8.822
 1697POPC   D2A25888   5.872  24.320   8.406
 1697POPC   C3A25889   5.896  24.575   8.073
 1697POPC   C4A25890   6.080  24.439   7.721
 1697POPC   C1B25891   5.514  24.396   8.750
 1697POPC   C2B25892   5.387  24.647   8.395
 1697POPC   C3B25893   5.461  24.853   8.017
 1697POPC   C4B25894   5.660  24.693   7.599
 1698POPC   NC325895  27.993  34.261   9.558
 1698POPC   PO425896  28.606  34.507   9.599
 1698POPC   GL125897  28.594  34.602   9.175
 1698POPC   GL225898  28.230  34.603   9.204
 1698POPC   C1A25899  28.629  34.731   8.752
 1698POPC   D2A25900  28.462  34.565   8.357
 1698POPC   C3A25901  28.668  34.476   7.970
 1698POPC   C4A25902  28.603  34.295   7.540
 1698POPC   C1B25903  28.138  34.542   8.760
 1698POPC   C2B25904  28.008  34.776   8.384
 1698POPC   C3B25905  27.978  34.603   7.927
 1698POPC   C4B25906  28.174  34.599   7.495
 1699POPC   NC325907   8.578  37.236   9.601
 1699POPC   PO425908   8.810  37.930   9.624
 1699POPC   GL125909   8.628  37.689   9.264
 1699POPC   GL225910   8.586  38.020   9.104
 1699POPC   C1A25911   8.750  37.447   8.881
 1699POPC   D2A25912   9.091  37.551   8.582
 1699POPC   C3A25913   9.052  37.476   8.128
 1699POPC   C4A25914   9.286  37.397   7.753
 1699POPC   C1B25915   8.702  37.909   8.700
 1699POPC   C2B25916   8.616  37.599   8.390
 1699POPC   C3B25917   8.567  37.386   7.986
 1699POPC   C4B25918   8.769  37.707   7.733
 1700POPC   NC325919  33.116  18.589   9.499
 1700POPC   PO425920  33.374  19.184   9.456
 1700POPC   GL125921  33.173  19.120   9.063
 1700POPC   GL225922  33.035  18.770   9.030
 1700POPC   C1A25923  33.144  19.174   8.614
 1700POPC   D2A25924  33.304  19.450   8.298
 1700POPC   C3A25925  33.169  19.276   7.920
 1700POPC   C4A25926  32.777  19.041   7.793
 1700POPC   C1B25927  33.393  18.733   8.752
 1700POPC   C2B25928  33.346  18.658   8.306
 1700POPC   C3B25929  33.198  18.708   7.875
 1700POPC   C4B25930  33.408  18.841   7.486
 1701POPC   NC325931  13.967  41.425   9.844
 1701POPC   PO425932  13.516  41.829   9.619
 1701POPC   GL125933  13.479  41.582   9.257
 1701POPC   GL225934  13.793  41.491   9.212
 1701POPC   C1A25935  13.439  41.607   8.825
 1701POPC   D2A25936  13.653  41.611   8.444
 1701POPC   C3A25937  13.380  41.480   8.098
 1701POPC   C4A25938  13.457  41.370   7.686
 1701POPC   C1B25939  13.877  41.255   8.818
 1701POPC   C2B25940  14.042  41.281   8.365
 1701POPC   C3B25941  13.891  41.483   7.973
 1701POPC   C4B25942  13.979  41.319   7.516
 1702POPC   NC325943  16.452  15.643   9.401
 1702POPC   PO425944  17.030  15.913   9.753
 1702POPC   GL125945  16.915  15.861   9.341
 1702POPC   GL225946  16.639  16.135   9.265
 1702POPC   C1A25947  16.905  15.858   8.907
 1702POPC   D2A25948  17.038  15.974   8.511
 1702POPC   C3A25949  16.784  15.937   8.143
 1702POPC   C4A25950  16.970  16.022   7.737
 1702POPC   C1B25951  16.501  16.135   8.816
 1702POPC   C2B25952  16.326  16.365   8.493
 1702POPC   C3B25953  16.260  16.313   8.081
 1702POPC   C4B25954  16.467  16.061   7.750
 1703POPC   NC325955  27.724  17.257   9.942
 1703POPC   PO425956  27.264  17.295   9.445
 1703POPC   GL125957  27.296  17.631   9.140
 1703POPC   GL225958  27.630  17.749   9.114
 1703POPC   C1A25959  27.330  17.775   8.694
 1703POPC   D2A25960  27.623  17.921   8.353
 1703POPC   C3A25961  27.655  17.642   7.976
 1703POPC   C4A25962  27.495  17.174   7.927
 1703POPC   C1B25963  27.817  17.543   8.759
 1703POPC   C2B25964  27.988  17.522   8.359
 1703POPC   C3B25965  28.005  17.249   8.044
 1703POPC   C4B25966  27.890  17.299   7.652
 1704POPC   NC325967  27.918  33.354   9.467
 1704POPC   PO425968  27.828  32.820   9.383
 1704POPC   GL125969  27.600  33.156   9.103
 1704POPC   GL225970  27.595  33.544   9.114
 1704POPC   C1A25971  27.469  33.229   8.670
 1704POPC   D2A25972  27.717  33.162   8.303
 1704POPC   C3A25973  27.484  33.055   7.935
 1704POPC   C4A25974  27.586  32.854   7.544
 1704POPC   C1B25975  27.866  33.532   8.755
 1704POPC   C2B25976  27.860  33.656   8.309
 1704POPC   C3B25977  27.776  33.498   7.878
 1704POPC   C4B25978  27.494  33.374   7.536
 1705POPC   NC325979   7.602  11.669   9.478
 1705POPC   PO425980   7.411  11.001   9.467
 1705POPC   GL125981   7.313  11.082   9.067
 1705POPC   GL225982   7.411  11.432   8.982
 1705POPC   C1A25983   7.061  11.135   8.719
 1705POPC   D2A25984   7.100  11.308   8.293
 1705POPC   C3A25985   7.314  11.060   7.952
 1705POPC   C4A25986   7.386  11.192   7.496
 1705POPC   C1B25987   7.604  11.158   8.636
 1705POPC   C2B25988   7.825  11.145   8.226
 1705POPC   C3B25989   7.676  11.390   7.869
 1705POPC   C4B25990   7.460  11.701   7.560
 1706POPC   NC325991  21.861  43.973   9.503
 1706POPC   PO425992  22.423  44.360   9.338
 1706POPC   GL125993  22.250  44.000   9.177
 1706POPC   GL225994  21.946  44.180   9.047
 1706POPC   C1A25995  22.056  43.744   8.853
 1706POPC   D2A25996  21.885  43.812   8.473
 1706POPC   C3A25997  21.987  43.563   8.109
 1706POPC   C4A25998  22.180  43.574   7.694
 1706POPC   C1B25999  22.222  44.176   8.650
 1706POPC   C2B26000  22.213  44.105   8.182
 1706POPC   C3B26001  22.058  44.224   7.782
 1706POPC   C4B26002  22.315  44.425   7.459
 1707POPC   NC326003  15.806  33.779   9.646
 1707POPC   PO426004  16.413  33.586   9.440
 1707POPC   GL126005  16.109  33.848   9.182
 1707POPC   GL226006  15.719  33.858   9.153
 1707POPC   C1A26007  16.052  33.954   8.752
 1707POPC   D2A26008  16.251  33.996   8.376
 1707POPC   C3A26009  16.010  33.728   8.142
 1707POPC   C4A26010  15.965  33.681   7.708
 1707POPC   C1B26011  15.545  34.056   8.772
 1707POPC   C2B26012  15.741  34.137   8.376
 1707POPC   C3B26013  15.649  34.054   7.976
 1707POPC   C4B26014  15.790  34.142   7.606
 1708POPC   NC326015   7.214  25.099   9.436
 1708POPC   PO426016   7.658  25.587   9.733
 1708POPC   GL126017   7.541  25.533   9.283
 1708POPC   GL226018   7.563  25.192   9.068
 1708POPC   C1A26019   7.373  25.621   8.882
 1708POPC   D2A26020   7.525  25.416   8.517
 1708POPC   C3A26021   7.505  25.636   8.170
 1708POPC   C4A26022   7.473  25.539   7.764
 1708POPC   C1B26023   7.170  25.139   8.760
 1708POPC   C2B26024   7.102  25.186   8.288
 1708POPC   C3B26025   7.358  25.052   7.925
 1708POPC   C4B26026   7.348  25.145   7.470
 1709POPC   NC326027  36.544   6.259   9.850
 1709POPC   PO426028  36.802   5.731   9.589
 1709POPC   GL126029  36.816   5.597   9.140
 1709POPC   GL226030  36.464   5.475   9.079
 1709POPC   C1A26031  36.982   5.696   8.700
 1709POPC   D2A26032  37.121   5.675   8.266
 1709POPC   C3A26033  36.972   6.027   8.011
 1709POPC   C4A26034  36.641   6.140   7.732
 1709POPC   C1B26035  36.643   5.319   8.702
 1709POPC   C2B26036  36.679   5.395   8.239
 1709POPC   C3B26037  36.800   5.570   7.819
 1709POPC   C4B26038  36.669   5.366   7.436
 1710POPC   NC326039   4.403  37.337   9.490
 1710POPC   PO426040   4.026  36.766   9.479
 1710POPC   GL126041   4.195  36.890   9.084
 1710POPC   GL226042   4.461  36.656   8.926
 1710POPC   C1A26043   4.110  37.123   8.712
 1710POPC   D2A26044   3.964  37.107   8.293
 1710POPC   C3A26045   4.301  36.915   8.073
 1710POPC   C4A26046   4.368  36.784   7.656
 1710POPC   C1B26047   4.057  36.560   8.729
 1710POPC   C2B26048   3.875  36.587   8.316
 1710POPC   C3B26049   3.978  36.567   7.898
 1710POPC   C4B26050   4.014  36.474   7.454
 1711POPC   NC326051  11.403  27.296   9.580
 1711POPC   PO426052  11.138  26.702   9.543
 1711POPC   GL126053  11.203  26.699   9.128
 1711POPC   GL226054  11.134  27.051   9.153
 1711POPC   C1A26055  11.317  26.523   8.716
 1711POPC   D2A26056  11.568  26.630   8.377
 1711POPC   C3A26057  11.441  26.418   8.012
 1711POPC   C4A26058  11.373  26.555   7.582
 1711POPC   C1B26059  11.386  27.046   8.776
 1711POPC   C2B26060  11.411  27.194   8.363
 1711POPC   C3B26061  11.477  26.989   7.957
 1711POPC   C4B26062  11.394  27.090   7.522
 1712POPC   NC326063  38.725   0.823   9.635
 1712POPC   PO426064  38.268   0.376   9.426
 1712POPC   GL126065  38.525   0.621   9.206
 1712POPC   GL226066  38.851   0.465   9.299
 1712POPC   C1A26067  38.530   0.561   8.783
 1712POPC   D2A26068  38.394   0.256   8.503
 1712POPC   C3A26069  38.289   0.417   8.108
 1712POPC   C4A26070  38.427   0.184   7.779
 1712POPC   C1B26071  38.975   0.772   9.008
 1712POPC   C2B26072  38.962   0.732   8.591
 1712POPC   C3B26073  38.793   0.496   8.272
 1712POPC   C4B26074  38.718   0.618   7.847
 1713POPC   NC326075  16.568  34.420   9.457
 1713POPC   PO426076  17.218  34.597   9.324
 1713POPC   GL126077  16.937  34.423   9.096
 1713POPC   GL226078  16.679  34.644   9.006
 1713POPC   C1A26079  16.842  34.215   8.719
 1713POPC   D2A26080  17.018  34.190   8.319
 1713POPC   C3A26081  16.734  34.426   8.054
 1713POPC   C4A26082  16.928  34.709   7.778
 1713POPC   C1B26083  16.476  34.899   8.693
 1713POPC   C2B26084  16.432  34.877   8.250
 1713POPC   C3B26085  16.515  35.000   7.822
 1713POPC   C4B26086  16.528  34.817   7.401
 1714POPC   NC326087   0.044  11.888   9.327
 1714POPC   PO426088  44.576  12.286   9.423
 1714POPC   GL126089  44.751  12.171   9.034
 1714POPC   GL226090  44.628  11.809   9.005
 1714POPC   C1A26091  44.873  12.057   8.619
 1714POPC   D2A26092  44.899  12.338   8.296
 1714POPC   C3A26093  44.837  12.180   7.901
 1714POPC   C4A26094  44.863  11.844   7.629
 1714POPC   C1B26095  44.366  12.083   8.719
 1714POPC   C2B26096  44.456  12.103   8.295
 1714POPC   C3B26097  44.464  11.817   7.976
 1714POPC   C4B26098  44.392  12.071   7.678
 1715POPC   NC326099  34.977  31.243   9.357
 1715POPC   PO426100  34.484  31.667   9.546
 1715POPC   GL126101  34.542  31.443   9.141
 1715POPC   GL226102  34.520  31.076   9.185
 1715POPC   C1A26103  34.669  31.523   8.698
 1715POPC   D2A26104  34.791  31.399   8.265
 1715POPC   C3A26105  34.577  31.524   7.892
 1715POPC   C4A26106  34.312  31.823   7.624
 1715POPC   C1B26107  34.264  31.118   8.823
 1715POPC   C2B26108  34.301  31.327   8.429
 1715POPC   C3B26109  34.314  31.125   8.052
 1715POPC   C4B26110  34.283  31.210   7.639
 1716POPC   NC326111   9.888  24.192   9.465
 1716POPC   PO426112  10.128  24.759   9.640
 1716POPC   GL126113   9.848  24.639   9.246
 1716POPC   GL226114   9.557  24.485   9.135
 1716POPC   C1A26115   9.902  24.560   8.768
 1716POPC   D2A26116  10.065  24.611   8.343
 1716POPC   C3A26117   9.838  24.794   8.019
 1716POPC   C4A26118   9.823  24.684   7.596
 1716POPC   C1B26119   9.427  24.389   8.695
 1716POPC   C2B26120   9.586  24.393   8.252
 1716POPC   C3B26121   9.528  24.338   7.788
 1716POPC   C4B26122   9.428  24.163   7.365
 1717POPC   NC326123  25.211  20.765   9.634
 1717POPC   PO426124  25.650  20.270   9.502
 1717POPC   GL126125  25.403  20.412   9.129
 1717POPC   GL226126  25.169  20.659   9.137
 1717POPC   C1A26127  25.194  20.314   8.730
 1717POPC   D2A26128  25.019  20.447   8.334
 1717POPC   C3A26129  25.284  20.427   7.999
 1717POPC   C4A26130  25.334  20.319   7.575
 1717POPC   C1B26131  25.440  20.896   8.908
 1717POPC   C2B26132  25.558  20.897   8.485
 1717POPC   C3B26133  25.403  20.927   8.097
 1717POPC   C4B26134  25.480  20.782   7.708
 1718POPC   NC326135  23.653  14.681   9.407
 1718POPC   PO426136  23.681  13.990   9.570
 1718POPC   GL126137  23.816  14.218   9.211
 1718POPC   GL226138  23.471  14.251   9.168
 1718POPC   C1A26139  23.916  14.391   8.796
 1718POPC   D2A26140  24.033  14.352   8.379
 1718POPC   C3A26141  23.851  14.662   8.195
 1718POPC   C4A26142  23.749  14.715   7.797
 1718POPC   C1B26143  23.399  14.437   8.811
 1718POPC   C2B26144  23.488  14.357   8.429
 1718POPC   C3B26145  23.534  14.303   8.014
 1718POPC   C4B26146  23.752  14.138   7.693
 1719POPC   NC326147  13.900  13.729   9.455
 1719POPC   PO426148  13.694  13.108   9.488
 1719POPC   GL126149  13.515  13.474   9.251
 1719POPC   GL226150  13.290  13.796   9.250
 1719POPC   C1A26151  13.660  13.515   8.836
 1719POPC   D2A26152  13.565  13.220   8.495
 1719POPC   C3A26153  13.456  13.444   8.114
 1719POPC   C4A26154  13.758  13.567   7.817
 1719POPC   C1B26155  13.449  13.991   8.864
 1719POPC   C2B26156  13.626  13.979   8.451
 1719POPC   C3B26157  13.542  13.990   8.031
 1719POPC   C4B26158  13.449  14.045   7.601
 1720POPC   NC326159  26.058  24.752   9.291
 1720POPC   PO426160  26.102  25.327   9.570
 1720POPC   GL126161  26.043  25.466   9.167
 1720POPC   GL226162  25.875  25.200   9.058
 1720POPC   C1A26163  26.277  25.484   8.787
 1720POPC   D2A26164  26.067  25.411   8.391
 1720POPC   C3A26165  26.243  25.506   7.974
 1720POPC   C4A26166  26.017  25.569   7.556
 1720POPC   C1B26167  26.098  25.012   8.726
 1720POPC   C2B26168  26.097  24.842   8.370
 1720POPC   C3B26169  26.025  25.055   8.027
 1720POPC   C4B26170  26.238  25.119   7.661
 1721POPC   NC326171  36.665  32.860   9.638
 1721POPC   PO426172  37.099  33.269   9.513
 1721POPC   GL126173  36.795  33.153   9.201
 1721POPC   GL226174  36.809  32.773   9.170
 1721POPC   C1A26175  36.677  33.046   8.768
 1721POPC   D2A26176  36.898  32.947   8.407
 1721POPC   C3A26177  36.790  33.155   8.020
 1721POPC   C4A26178  36.925  33.268   7.586
 1721POPC   C1B26179  37.074  32.699   8.831
 1721POPC   C2B26180  37.343  32.698   8.465
 1721POPC   C3B26181  37.429  32.870   8.080
 1721POPC   C4B26182  37.269  32.928   7.697
 1722POPC   NC326183   3.348   6.688   9.434
 1722POPC   PO426184   3.339   5.989   9.422
 1722POPC   GL126185   3.482   6.310   9.096
 1722POPC   GL226186   3.794   6.502   9.167
 1722POPC   C1A26187   3.388   6.495   8.652
 1722POPC   D2A26188   3.269   6.387   8.195
 1722POPC   C3A26189   3.451   6.630   7.840
 1722POPC   C4A26190   3.885   6.519   7.633
 1722POPC   C1B26191   3.875   6.646   8.713
 1722POPC   C2B26192   3.733   6.689   8.259
 1722POPC   C3B26193   3.843   6.960   7.848
 1722POPC   C4B26194   3.837   6.966   7.335
 1723POPC   NC326195  11.790   5.528   9.731
 1723POPC   PO426196  11.180   5.608   9.693
 1723POPC   GL126197  11.390   5.736   9.288
 1723POPC   GL226198  11.642   5.520   9.199
 1723POPC   C1A26199  11.273   5.784   8.812
 1723POPC   D2A26200  11.243   5.561   8.366
 1723POPC   C3A26201  11.125   5.748   7.931
 1723POPC   C4A26202  10.999   5.658   7.471
 1723POPC   C1B26203  11.634   5.435   8.733
 1723POPC   C2B26204  11.738   5.422   8.272
 1723POPC   C3B26205  11.545   5.457   7.832
 1723POPC   C4B26206  11.434   5.408   7.363
 1724POPC   NC326207  34.328  41.882   9.456
 1724POPC   PO426208  34.739  41.370   9.537
 1724POPC   GL126209  34.813  41.451   9.125
 1724POPC   GL226210  34.494  41.566   9.085
 1724POPC   C1A26211  34.836  41.606   8.706
 1724POPC   D2A26212  34.797  41.454   8.314
 1724POPC   C3A26213  34.795  41.658   7.937
 1724POPC   C4A26214  35.064  41.564   7.621
 1724POPC   C1B26215  34.416  41.868   8.767
 1724POPC   C2B26216  34.607  41.967   8.368
 1724POPC   C3B26217  34.581  42.122   7.941
 1724POPC   C4B26218  34.475  42.000   7.545
 1725POPC   NC326219  37.419  44.020   9.477
 1725POPC   PO426220  37.988  43.768   9.507
 1725POPC   GL126221  37.854  43.982   9.128
 1725POPC   GL226222  37.637  43.715   9.098
 1725POPC   C1A26223  37.820  43.889   8.645
 1725POPC   D2A26224  37.897  43.885   8.195
 1725POPC   C3A26225  37.586  44.023   7.924
 1725POPC   C4A26226  37.304  44.334   7.788
 1725POPC   C1B26227  37.480  43.519   8.758
 1725POPC   C2B26228  37.453  43.640   8.330
 1725POPC   C3B26229  37.584  43.496   7.951
 1725POPC   C4B26230  37.562  43.652   7.549
 1726POPC   NC326231   9.583  41.468   9.495
 1726POPC   PO426232  10.291  41.737   9.500
 1726POPC   GL126233   9.992  41.558   9.209
 1726POPC   GL226234  10.041  41.194   9.237
 1726POPC   C1A26235   9.710  41.551   8.842
 1726POPC   D2A26236   9.630  41.773   8.458
 1726POPC   C3A26237   9.613  41.536   8.092
 1726POPC   C4A26238   9.861  41.794   7.876
 1726POPC   C1B26239  10.128  41.220   8.793
 1726POPC   C2B26240  10.013  41.428   8.418
 1726POPC   C3B26241  10.193  41.444   8.015
 1726POPC   C4B26242  10.296  41.573   7.600
 1727POPC   NC326243   7.901  44.497   9.395
 1727POPC   PO426244   8.495  44.887   9.377
 1727POPC   GL126245   8.146  44.843   9.075
 1727POPC   GL226246   8.212  44.494   8.986
 1727POPC   C1A26247   7.865  44.762   8.706
 1727POPC   D2A26248   7.814  44.513   8.295
 1727POPC   C3A26249   8.040  44.660   7.914
 1727POPC   C4A26250   8.097  44.549   7.480
 1727POPC   C1B26251   8.457  44.599   8.633
 1727POPC   C2B26252   8.456  44.674   8.196
 1727POPC   C3B26253   8.541  44.607   7.753
 1727POPC   C4B26254   8.531  44.329   7.381
 1728POPC   NC326255  44.217  22.314   9.621
 1728POPC   PO426256  43.610  22.400   9.529
 1728POPC   GL126257  43.839  22.113   9.202
 1728POPC   GL226258  44.174  21.943   9.251
 1728POPC   C1A26259  43.896  22.097   8.739
 1728POPC   D2A26260  43.927  22.327   8.357
 1728POPC   C3A26261  43.803  22.101   8.014
 1728POPC   C4A26262  43.645  22.206   7.648
 1728POPC   C1B26263  44.352  21.860   8.807
 1728POPC   C2B26264  44.128  21.855   8.344
 1728POPC   C3B26265  44.211  21.846   7.842
 1728POPC   C4B26266  44.111  22.051   7.414
 1729POPC   NC326267  22.860  27.283   9.486
 1729POPC   PO426268  22.798  27.945   9.601
 1729POPC   GL126269  22.782  27.692   9.184
 1729POPC   GL226270  22.748  27.371   8.997
 1729POPC   C1A26271  22.931  27.790   8.751
 1729POPC   D2A26272  22.997  27.541   8.370
 1729POPC   C3A26273  23.295  27.471   8.027
 1729POPC   C4A26274  22.972  27.509   7.724
 1729POPC   C1B26275  22.512  27.518   8.637
 1729POPC   C2B26276  22.511  27.427   8.200
 1729POPC   C3B26277  22.489  27.673   7.830
 1729POPC   C4B26278  22.502  27.606   7.387
 1730POPC   NC326279  15.991  32.071   9.458
 1730POPC   PO426280  15.929  32.715   9.532
 1730POPC   GL126281  16.024  32.527   9.130
 1730POPC   GL226282  15.753  32.306   9.070
 1730POPC   C1A26283  15.911  32.577   8.682
 1730POPC   D2A26284  15.670  32.302   8.434
 1730POPC   C3A26285  15.835  32.285   8.034
 1730POPC   C4A26286  15.638  32.396   7.652
 1730POPC   C1B26287  16.035  32.097   8.775
 1730POPC   C2B26288  16.037  31.910   8.365
 1730POPC   C3B26289  16.273  31.990   7.981
 1730POPC   C4B26290  16.137  32.194   7.600
 1731POPC   NC326291   7.156  42.099   9.425
 1731POPC   PO426292   7.724  42.352   9.404
 1731POPC   GL126293   7.304  42.548   9.255
 1731POPC   GL226294   7.296  42.870   9.230
 1731POPC   C1A26295   7.096  42.561   8.850
 1731POPC   D2A26296   7.314  42.328   8.572
 1731POPC   C3A26297   7.334  42.381   8.143
 1731POPC   C4A26298   7.419  42.362   7.719
 1731POPC   C1B26299   7.581  42.745   8.854
 1731POPC   C2B26300   7.750  42.602   8.447
 1731POPC   C3B26301   7.694  42.757   8.045
 1731POPC   C4B26302   7.878  42.686   7.664
 1732POPC   NC326303  37.849   3.764   9.490
 1732POPC   PO426304  37.413   3.363   9.541
 1732POPC   GL126305  37.525   3.579   9.160
 1732POPC   GL226306  37.661   3.250   9.120
 1732POPC   C1A26307  37.752   3.812   8.834
 1732POPC   D2A26308  38.003   3.904   8.489
 1732POPC   C3A26309  37.830   3.878   8.077
 1732POPC   C4A26310  37.670   3.667   7.740
 1732POPC   C1B26311  37.786   3.319   8.754
 1732POPC   C2B26312  37.683   3.463   8.370
 1732POPC   C3B26313  37.512   3.159   8.110
 1732POPC   C4B26314  37.594   3.143   7.693
 1733POPC   NC326315  15.723  38.626   9.565
 1733POPC   PO426316  16.169  38.228   9.274
 1733POPC   GL126317  15.936  38.572   9.054
 1733POPC   GL226318  15.613  38.725   9.090
 1733POPC   C1A26319  15.827  38.684   8.622
 1733POPC   D2A26320  15.858  38.378   8.324
 1733POPC   C3A26321  16.200  38.416   8.079
 1733POPC   C4A26322  16.069  38.203   7.734
 1733POPC   C1B26323  15.332  38.712   8.789
 1733POPC   C2B26324  15.365  38.745   8.377
 1733POPC   C3B26325  15.480  38.659   8.017
 1733POPC   C4B26326  15.824  38.645   7.835
 1734POPC   NC326327  29.665  36.529   9.534
 1734POPC   PO426328  30.348  36.080   9.643
 1734POPC   GL126329  30.047  36.120   9.316
 1734POPC   GL226330  30.057  36.448   9.205
 1734POPC   C1A26331  29.886  36.094   8.888
 1734POPC   D2A26332  29.928  36.127   8.433
 1734POPC   C3A26333  29.711  36.091   8.037
 1734POPC   C4A26334  29.920  35.923   7.655
 1734POPC   C1B26335  30.166  36.518   8.746
 1734POPC   C2B26336  30.345  36.396   8.310
 1734POPC   C3B26337  30.157  36.302   7.920
 1734POPC   C4B26338  30.188  36.316   7.452
 1735POPC   NC326339  10.570  25.628   9.677
 1735POPC   PO426340  10.350  26.258   9.495
 1735POPC   GL126341  10.624  26.074   9.182
 1735POPC   GL226342  10.856  26.328   9.185
 1735POPC   C1A26343  10.628  25.901   8.736
 1735POPC   D2A26344  10.578  25.687   8.325
 1735POPC   C3A26345  10.561  25.967   7.970
 1735POPC   C4A26346  10.289  26.296   7.839
 1735POPC   C1B26347  10.643  26.404   8.805
 1735POPC   C2B26348  10.440  26.265   8.417
 1735POPC   C3B26349  10.676  26.454   8.121
 1735POPC   C4B26350  10.959  26.535   7.858
 1736POPC   NC326351  25.149  20.076   9.393
 1736POPC   PO426352  25.381  19.400   9.498
 1736POPC   GL126353  25.346  19.634   9.093
 1736POPC   GL226354  25.573  19.917   9.130
 1736POPC   C1A26355  25.108  19.674   8.668
 1736POPC   D2A26356  24.866  19.493   8.279
 1736POPC   C3A26357  24.989  19.682   7.907
 1736POPC   C4A26358  24.950  20.098   7.814
 1736POPC   C1B26359  25.563  19.939   8.671
 1736POPC   C2B26360  25.308  20.002   8.287
 1736POPC   C3B26361  25.449  19.915   7.860
 1736POPC   C4B26362  25.684  19.998   7.424
 1737POPC   NC326363  21.437  26.829   9.671
 1737POPC   PO426364  21.173  26.281   9.512
 1737POPC   GL126365  21.296  26.642   9.225
 1737POPC   GL226366  21.293  27.037   9.230
 1737POPC   C1A26367  21.424  26.713   8.826
 1737POPC   D2A26368  21.580  26.580   8.466
 1737POPC   C3A26369  21.480  26.756   8.116
 1737POPC   C4A26370  21.343  26.750   7.718
 1737POPC   C1B26371  21.599  27.179   8.936
 1737POPC   C2B26372  21.581  27.130   8.503
 1737POPC   C3B26373  21.615  27.226   8.067
 1737POPC   C4B26374  21.768  27.028   7.719
 1738POPC   NC326375  12.357  20.027   9.846
 1738POPC   PO426376  12.322  19.446   9.494
 1738POPC   GL126377  12.107  19.604   9.150
 1738POPC   GL226378  11.799  19.442   9.041
 1738POPC   C1A26379  12.266  19.746   8.752
 1738POPC   D2A26380  12.138  19.568   8.387
 1738POPC   C3A26381  12.286  19.660   8.008
 1738POPC   C4A26382  12.154  19.420   7.636
 1738POPC   C1B26383  11.724  19.709   8.676
 1738POPC   C2B26384  11.799  19.955   8.277
 1738POPC   C3B26385  11.894  19.923   7.804
 1738POPC   C4B26386  11.915  20.046   7.320
 1739POPC   NC326387  31.664  14.613   9.432
 1739POPC   PO426388  31.114  14.293   9.651
 1739POPC   GL126389  31.290  14.285   9.244
 1739POPC   GL226390  31.213  14.619   9.175
 1739POPC   C1A26391  31.419  14.310   8.806
 1739POPC   D2A26392  31.296  14.109   8.428
 1739POPC   C3A26393  31.519  14.216   8.069
 1739POPC   C4A26394  31.362  14.115   7.691
 1739POPC   C1B26395  31.047  14.672   8.768
 1739POPC   C2B26396  31.223  14.632   8.345
 1739POPC   C3B26397  31.128  14.573   7.905
 1739POPC   C4B26398  31.181  14.813   7.542
 1740POPC   NC326399   1.604  36.915   9.510
 1740POPC   PO426400   1.735  37.447   9.180
 1740POPC   GL126401   1.466  37.163   9.028
 1740POPC   GL226402   1.198  36.962   9.179
 1740POPC   C1A26403   1.372  36.984   8.642
 1740POPC   D2A26404   1.566  36.734   8.342
 1740POPC   C3A26405   1.477  36.869   7.939
 1740POPC   C4A26406   1.365  36.569   7.638
 1740POPC   C1B26407   0.960  36.760   8.793
 1740POPC   C2B26408   1.044  36.745   8.289
 1740POPC   C3B26409   0.961  36.877   7.816
 1740POPC   C4B26410   0.777  37.081   7.414
 1741POPC   NC326411  25.916  15.618   9.648
 1741POPC   PO426412  26.401  16.077   9.522
 1741POPC   GL126413  26.301  16.061   9.128
 1741POPC   GL226414  26.115  15.736   9.169
 1741POPC   C1A26415  26.493  16.123   8.733
 1741POPC   D2A26416  26.244  16.152   8.361
 1741POPC   C3A26417  26.423  16.088   7.968
 1741POPC   C4A26418  26.120  16.097   7.679
 1741POPC   C1B26419  26.135  15.757   8.721
 1741POPC   C2B26420  25.985  15.700   8.342
 1741POPC   C3B26421  26.086  15.680   7.952
 1741POPC   C4B26422  25.865  15.697   7.535
 1742POPC   NC326423  31.000  40.853   9.507
 1742POPC   PO426424  30.542  40.403   9.486
 1742POPC   GL126425  30.675  40.623   9.147
 1742POPC   GL226426  31.005  40.474   9.153
 1742POPC   C1A26427  30.468  40.602   8.756
 1742POPC   D2A26428  30.570  40.782   8.385
 1742POPC   C3A26429  30.564  40.600   7.984
 1742POPC   C4A26430  30.711  40.964   7.794
 1742POPC   C1B26431  31.013  40.646   8.728
 1742POPC   C2B26432  31.231  40.645   8.326
 1742POPC   C3B26433  31.143  40.710   7.885
 1742POPC   C4B26434  31.304  40.625   7.466
 1743POPC   NC326435  16.044  21.866   9.545
 1743POPC   PO426436  15.422  21.931   9.296
 1743POPC   GL126437  15.597  22.175   8.997
 1743POPC   GL226438  15.884  22.214   9.170
 1743POPC   C1A26439  15.634  22.251   8.571
 1743POPC   D2A26440  15.955  22.326   8.208
 1743POPC   C3A26441  15.923  21.989   7.913
 1743POPC   C4A26442  15.606  21.654   7.941
 1743POPC   C1B26443  16.130  22.097   8.813
 1743POPC   C2B26444  16.349  22.090   8.418
 1743POPC   C3B26445  16.414  22.209   7.994
 1743POPC   C4B26446  16.229  22.531   7.784
 1744POPC   NC326447  26.050  11.919   9.504
 1744POPC   PO426448  26.331  12.637   9.463
 1744POPC   GL126449  26.091  12.277   9.161
 1744POPC   GL226450  25.760  12.069   9.063
 1744POPC   C1A26451  26.112  11.921   8.767
 1744POPC   D2A26452  25.930  11.857   8.354
 1744POPC   C3A26453  26.222  11.958   8.033
 1744POPC   C4A26454  26.350  12.257   7.770
 1744POPC   C1B26455  25.557  12.126   8.630
 1744POPC   C2B26456  25.619  12.214   8.147
 1744POPC   C3B26457  25.803  12.003   7.751
 1744POPC   C4B26458  25.702  11.866   7.277
 1745POPC   NC326459  27.402  23.203   9.350
 1745POPC   PO426460  27.685  22.562   9.494
 1745POPC   GL126461  27.703  22.826   9.184
 1745POPC   GL226462  27.359  22.736   9.137
 1745POPC   C1A26463  27.729  23.076   8.785
 1745POPC   D2A26464  27.426  23.324   8.552
 1745POPC   C3A26465  27.566  23.376   8.144
 1745POPC   C4A26466  27.534  23.271   7.725
 1745POPC   C1B26467  27.511  22.605   8.770
 1745POPC   C2B26468  27.477  22.808   8.400
 1745POPC   C3B26469  27.673  22.864   8.034
 1745POPC   C4B26470  27.386  22.773   7.756
 1746POPC   NC326471  23.987   9.368   9.504
 1746POPC   PO426472  23.748   8.750   9.596
 1746POPC   GL126473  23.570   9.055   9.301
 1746POPC   GL226474  23.857   9.122   9.077
 1746POPC   C1A26475  23.418   8.987   8.879
 1746POPC   D2A26476  23.647   8.806   8.575
 1746POPC   C3A26477  23.564   8.866   8.170
 1746POPC   C4A26478  23.472   8.954   7.768
 1746POPC   C1B26479  23.956   9.208   8.642
 1746POPC   C2B26480  24.067   9.019   8.241
 1746POPC   C3B26481  23.978   9.031   7.791
 1746POPC   C4B26482  23.931   9.125   7.360
 1747POPC   NC326483  11.691  23.934   9.177
 1747POPC   PO426484  11.169  23.957   9.620
 1747POPC   GL126485  11.164  23.975   9.172
 1747POPC   GL226486  11.280  23.618   9.077
 1747POPC   C1A26487  11.133  23.946   8.717
 1747POPC   D2A26488  11.108  23.601   8.430
 1747POPC   C3A26489  11.267  23.680   8.025
 1747POPC   C4A26490  11.135  23.531   7.649
 1747POPC   C1B26491  11.486  23.385   8.701
 1747POPC   C2B26492  11.566  23.290   8.231
 1747POPC   C3B26493  11.669  23.446   7.800
 1747POPC   C4B26494  11.527  23.414   7.318
 1748POPC   NC326495   4.825  25.857   9.551
 1748POPC   PO426496   5.487  26.004   9.537
 1748POPC   GL126497   5.268  26.006   9.171
 1748POPC   GL226498   5.020  26.248   9.206
 1748POPC   C1A26499   5.269  26.196   8.754
 1748POPC   D2A26500   5.373  25.939   8.396
 1748POPC   C3A26501   5.114  25.891   8.060
 1748POPC   C4A26502   5.300  26.035   7.688
 1748POPC   C1B26503   4.818  26.473   8.865
 1748POPC   C2B26504   4.815  26.574   8.417
 1748POPC   C3B26505   4.996  26.390   8.009
 1748POPC   C4B26506   4.961  26.402   7.525
 1749POPC   NC326507  29.639  42.120   9.452
 1749POPC   PO426508  29.990  42.758   9.494
 1749POPC   GL126509  29.879  42.477   9.150
 1749POPC   GL226510  29.968  42.162   9.092
 1749POPC   C1A26511  29.693  42.412   8.743
 1749POPC   D2A26512  29.844  42.575   8.363
 1749POPC   C3A26513  29.710  42.350   8.014
 1749POPC   C4A26514  29.728  42.505   7.625
 1749POPC   C1B26515  30.138  42.114   8.728
 1749POPC   C2B26516  29.918  42.066   8.391
 1749POPC   C3B26517  30.098  41.943   8.090
 1749POPC   C4B26518  30.087  42.143   7.726
 1750POPC   NC326519   4.833  22.464   9.395
 1750POPC   PO426520   5.532  22.474   9.399
 1750POPC   GL126521   5.359  22.306   9.052
 1750POPC   GL226522   5.108  22.078   9.161
 1750POPC   C1A26523   5.233  22.413   8.632
 1750POPC   D2A26524   5.385  22.349   8.205
 1750POPC   C3A26525   5.131  22.148   7.917
 1750POPC   C4A26526   5.250  21.917   7.562
 1750POPC   C1B26527   5.144  21.913   8.747
 1750POPC   C2B26528   5.262  21.789   8.317
 1750POPC   C3B26529   4.998  21.653   7.969
 1750POPC   C4B26530   4.746  21.815   7.631
 1751POPC   NC326531  22.274  24.200   9.385
 1751POPC   PO426532  22.147  24.753   9.728
 1751POPC   GL126533  22.171  24.639   9.196
 1751POPC   GL226534  21.848  24.402   9.092
 1751POPC   C1A26535  22.225  24.415   8.756
 1751POPC   D2A26536  22.261  24.560   8.326
 1751POPC   C3A26537  22.286  24.357   7.931
 1751POPC   C4A26538  22.338  24.642   7.602
 1751POPC   C1B26539  21.730  24.248   8.663
 1751POPC   C2B26540  21.812  24.273   8.193
 1751POPC   C3B26541  21.819  24.598   7.849
 1751POPC   C4B26542  21.855  24.660   7.385
 1752POPC   NC326543  21.108  10.101   9.500
 1752POPC   PO426544  20.673   9.557   9.461
 1752POPC   GL126545  20.633   9.691   9.100
 1752POPC   GL226546  20.924   9.832   9.086
 1752POPC   C1A26547  20.415   9.785   8.748
 1752POPC   D2A26548  20.298   9.594   8.376
 1752POPC   C3A26549  20.429   9.747   7.988
 1752POPC   C4A26550  20.272   9.890   7.662
 1752POPC   C1B26551  20.888   9.959   8.697
 1752POPC   C2B26552  20.793   9.868   8.307
 1752POPC   C3B26553  20.943   9.713   7.917
 1752POPC   C4B26554  20.762   9.797   7.520
 1753POPC   NC326555  31.325  31.765   9.431
 1753POPC   PO426556  31.543  32.414   9.467
 1753POPC   GL126557  31.527  32.158   9.143
 1753POPC   GL226558  31.197  32.179   9.156
 1753POPC   C1A26559  31.476  32.328   8.742
 1753POPC   D2A26560  31.712  32.591   8.472
 1753POPC   C3A26561  31.454  32.494   8.131
 1753POPC   C4A26562  31.561  32.517   7.695
 1753POPC   C1B26563  31.129  31.961   8.800
 1753POPC   C2B26564  31.221  32.050   8.384
 1753POPC   C3B26565  31.040  32.153   7.998
 1753POPC   C4B26566  31.145  32.197   7.580
 1754POPC   NC326567   8.639  32.491   9.459
 1754POPC   PO426568   9.056  31.892   9.558
 1754POPC   GL126569   8.937  32.145   9.187
 1754POPC   GL226570   9.134  32.425   9.110
 1754POPC   C1A26571   8.839  32.184   8.726
 1754POPC   D2A26572   8.681  32.440   8.377
 1754POPC   C3A26573   8.888  32.418   7.998
 1754POPC   C4A26574   8.851  32.024   7.851
 1754POPC   C1B26575   9.274  32.687   8.765
 1754POPC   C2B26576   9.271  32.569   8.327
 1754POPC   C3B26577   9.367  32.623   7.881
 1754POPC   C4B26578   9.458  32.608   7.394
 1755POPC   NC326579   7.448   0.388   9.419
 1755POPC   PO426580   6.841   0.694   9.225
 1755POPC   GL126581   7.173   0.440   9.001
 1755POPC   GL226582   7.514   0.612   8.974
 1755POPC   C1A26583   7.521   0.142   8.822
 1755POPC   D2A26584   7.757   0.282   8.479
 1755POPC   C3A26585   7.555   0.172   8.112
 1755POPC   C4A26586   7.591   0.307   7.710
 1755POPC   C1B26587   7.375   0.614   8.564
 1755POPC   C2B26588   7.535   0.686   8.177
 1755POPC   C3B26589   7.285   0.677   7.854
 1755POPC   C4B26590   6.880   0.717   7.809
 1756POPC   NC326591  17.253   1.800   9.531
 1756POPC   PO426592  18.034   1.603   9.431
 1756POPC   GL126593  17.685   1.779   9.254
 1756POPC   GL226594  17.775   2.105   9.205
 1756POPC   C1A26595  17.381   1.774   8.912
 1756POPC   D2A26596  17.465   1.726   8.469
 1756POPC   C3A26597  17.241   1.952   8.165
 1756POPC   C4A26598  17.266   1.794   7.745
 1756POPC   C1B26599  17.836   1.937   8.787
 1756POPC   C2B26600  17.852   2.065   8.352
 1756POPC   C3B26601  17.740   1.921   7.993
 1756POPC   C4B26602  17.686   2.067   7.625
 1757POPC   NC326603  30.435  42.719   9.546
 1757POPC   PO426604  30.856  42.215   9.521
 1757POPC   GL126605  30.760  42.431   9.168
 1757POPC   GL226606  30.457  42.219   9.183
 1757POPC   C1A26607  30.726  42.253   8.742
 1757POPC   D2A26608  31.024  42.056   8.497
 1757POPC   C3A26609  30.969  42.120   8.061
 1757POPC   C4A26610  30.784  42.345   7.728
 1757POPC   C1B26611  30.327  42.547   8.917
 1757POPC   C2B26612  30.353  42.535   8.493
 1757POPC   C3B26613  30.404  42.365   8.098
 1757POPC   C4B26614  30.203  42.620   7.808
 1758POPC   NC326615  40.761  12.891   9.562
 1758POPC   PO426616  40.752  12.288   9.455
 1758POPC   GL126617  40.692  12.610   9.150
 1758POPC   GL226618  41.041  12.779   9.154
 1758POPC   C1A26619  40.450  12.682   8.768
 1758POPC   D2A26620  40.626  12.799   8.358
 1758POPC   C3A26621  40.555  13.054   7.988
 1758POPC   C4A26622  40.783  13.281   7.672
 1758POPC   C1B26623  40.948  12.917   8.757
 1758POPC   C2B26624  41.130  12.860   8.361
 1758POPC   C3B26625  41.091  12.963   7.970
 1758POPC   C4B26626  40.873  12.660   7.806
 1759POPC   NC326627  10.024  34.550   9.759
 1759POPC   PO426628   9.425  34.384   9.539
 1759POPC   GL126629   9.753  34.615   9.263
 1759POPC   GL226630   9.507  34.774   9.031
 1759POPC   C1A26631   9.973  34.754   8.865
 1759POPC   D2A26632   9.700  34.797   8.498
 1759POPC   C3A26633   9.759  34.603   8.105
 1759POPC   C4A26634   9.859  34.755   7.703
 1759POPC   C1B26635   9.526  34.400   8.833
 1759POPC   C2B26636   9.351  34.381   8.441
 1759POPC   C3B26637   9.424  34.234   8.046
 1759POPC   C4B26638   9.402  34.471   7.718
 1760POPC   NC326639  24.147  26.087   9.473
 1760POPC   PO426640  23.575  26.069   9.618
 1760POPC   GL126641  23.671  26.076   9.189
 1760POPC   GL226642  23.526  25.782   9.023
 1760POPC   C1A26643  23.945  26.032   8.841
 1760POPC   D2A26644  23.960  26.016   8.396
 1760POPC   C3A26645  23.891  26.215   7.977
 1760POPC   C4A26646  23.850  26.001   7.556
 1760POPC   C1B26647  23.451  25.989   8.634
 1760POPC   C2B26648  23.449  26.074   8.184
 1760POPC   C3B26649  23.378  25.959   7.733
 1760POPC   C4B26650  23.459  25.755   7.316
 1761POPC   NC326651  38.220  14.714   9.487
 1761POPC   PO426652  38.511  14.183   9.378
 1761POPC   GL126653  38.313  14.407   9.091
 1761POPC   GL226654  38.018  14.167   9.135
 1761POPC   C1A26655  38.424  14.604   8.690
 1761POPC   D2A26656  38.284  14.703   8.241
 1761POPC   C3A26657  38.582  14.660   7.919
 1761POPC   C4A26658  38.548  14.761   7.494
 1761POPC   C1B26659  38.146  14.119   8.708
 1761POPC   C2B26660  38.175  14.210   8.292
 1761POPC   C3B26661  38.342  14.225   7.869
 1761POPC   C4B26662  38.662  14.241   7.541
 1762POPC   NC326663  15.298   0.828   9.374
 1762POPC   PO426664  14.789   1.199   9.446
 1762POPC   GL126665  15.050   1.202   9.123
 1762POPC   GL226666  15.382   1.301   9.160
 1762POPC   C1A26667  15.069   1.043   8.699
 1762POPC   D2A26668  14.816   1.068   8.303
 1762POPC   C3A26669  15.020   1.259   7.978
 1762POPC   C4A26670  15.155   0.954   7.780
 1762POPC   C1B26671  15.571   1.239   8.754
 1762POPC   C2B26672  15.422   1.237   8.322
 1762POPC   C3B26673  15.602   1.154   7.906
 1762POPC   C4B26674  15.388   1.366   7.564
 1763POPC   NC326675  32.831  32.233   9.294
 1763POPC   PO426676  33.198  32.697   9.593
 1763POPC   GL126677  33.277  32.476   9.210
 1763POPC   GL226678  33.414  32.737   9.063
 1763POPC   C1A26679  33.221  32.277   8.779
 1763POPC   D2A26680  32.881  32.249   8.456
 1763POPC   C3A26681  32.917  32.404   8.008
 1763POPC   C4A26682  33.049  32.094   7.681
 1763POPC   C1B26683  33.550  32.644   8.690
 1763POPC   C2B26684  33.360  32.518   8.324
 1763POPC   C3B26685  33.423  32.306   7.955
 1763POPC   C4B26686  33.433  32.396   7.551
 1764POPC   NC326687  22.044   6.664   9.338
 1764POPC   PO426688  22.733   6.593   9.219
 1764POPC   GL126689  22.414   6.808   9.000
 1764POPC   GL226690  22.079   6.698   8.851
 1764POPC   C1A26691  22.495   6.776   8.586
 1764POPC   D2A26692  22.197   6.797   8.301
 1764POPC   C3A26693  22.219   6.443   8.107
 1764POPC   C4A26694  22.120   6.354   7.701
 1764POPC   C1B26695  21.777   6.399   8.737
 1764POPC   C2B26696  21.787   6.448   8.361
 1764POPC   C3B26697  21.759   6.214   8.035
 1764POPC   C4B26698  21.584   6.282   7.696
 1765POPC   NC326699   4.472  35.640   9.457
 1765POPC   PO426700   4.941  35.138   9.634
 1765POPC   GL126701   4.638  35.165   9.248
 1765POPC   GL226702   4.287  35.203   9.126
 1765POPC   C1A26703   4.633  35.408   8.829
 1765POPC   D2A26704   4.410  35.600   8.448
 1765POPC   C3A26705   4.516  35.381   8.063
 1765POPC   C4A26706   4.436  35.034   7.761
 1765POPC   C1B26707   4.085  35.490   8.834
 1765POPC   C2B26708   3.923  35.435   8.409
 1765POPC   C3B26709   4.006  35.497   8.001
 1765POPC   C4B26710   4.078  35.647   7.611
 1766POPC   NC326711   7.745  37.234   9.579
 1766POPC   PO426712   7.312  36.649   9.686
 1766POPC   GL126713   7.277  36.826   9.264
 1766POPC   GL226714   7.550  36.933   9.093
 1766POPC   C1A26715   7.218  36.667   8.807
 1766POPC   D2A26716   7.310  36.836   8.373
 1766POPC   C3A26717   7.031  37.052   8.045
 1766POPC   C4A26718   6.939  37.236   7.602
 1766POPC   C1B26719   7.770  36.622   8.794
 1766POPC   C2B26720   7.881  36.591   8.334
 1766POPC   C3B26721   7.630  36.748   7.988
 1766POPC   C4B26722   7.228  36.601   7.853
 1767POPC   NC326723  24.985  42.595   9.426
 1767POPC   PO426724  25.140  43.267   9.462
 1767POPC   GL126725  25.273  42.985   9.155
 1767POPC   GL226726  24.954  42.961   9.093
 1767POPC   C1A26727  25.330  42.776   8.725
 1767POPC   D2A26728  25.534  42.599   8.314
 1767POPC   C3A26729  25.497  42.910   7.959
 1767POPC   C4A26730  25.560  43.017   7.508
 1767POPC   C1B26731  25.095  43.247   8.745
 1767POPC   C2B26732  25.119  43.096   8.321
 1767POPC   C3B26733  25.140  43.278   7.906
 1767POPC   C4B26734  25.053  43.092   7.525
 1768POPC   NC326735  35.495  27.961   9.447
 1768POPC   PO426736  35.330  28.596   9.347
 1768POPC   GL126737  35.283  28.249   9.063
 1768POPC   GL226738  34.978  28.063   9.135
 1768POPC   C1A26739  35.368  28.324   8.634
 1768POPC   D2A26740  35.203  28.632   8.366
 1768POPC   C3A26741  35.377  28.585   7.983
 1768POPC   C4A26742  35.670  28.269   7.871
 1768POPC   C1B26743  34.863  28.255   8.698
 1768POPC   C2B26744  34.973  28.192   8.236
 1768POPC   C3B26745  35.133  28.146   7.799
 1768POPC   C4B26746  35.010  28.024   7.351
 1769POPC   NC326747  38.795  18.915   9.532
 1769POPC   PO426748  39.333  18.794   9.608
 1769POPC   GL126749  39.145  18.818   9.176
 1769POPC   GL226750  39.029  19.152   9.096
 1769POPC   C1A26751  39.139  18.777   8.726
 1769POPC   D2A26752  39.123  18.959   8.323
 1769POPC   C3A26753  39.280  18.777   7.947
 1769POPC   C4A26754  39.435  19.010   7.570
 1769POPC   C1B26755  38.845  19.249   8.671
 1769POPC   C2B26756  38.829  19.358   8.207
 1769POPC   C3B26757  39.009  19.210   7.838
 1769POPC   C4B26758  38.935  18.868   7.574
 1770POPC   NC326759  32.928  41.105   9.504
 1770POPC   PO426760  33.129  40.569   9.396
 1770POPC   GL126761  32.995  40.787   9.045
 1770POPC   GL226762  32.949  41.176   9.011
 1770POPC   C1A26763  32.713  40.633   8.757
 1770POPC   D2A26764  32.708  40.858   8.388
 1770POPC   C3A26765  32.696  40.646   8.016
 1770POPC   C4A26766  32.686  40.511   7.596
 1770POPC   C1B26767  33.342  41.171   8.816
 1770POPC   C2B26768  33.493  41.012   8.413
 1770POPC   C3B26769  33.169  41.046   8.068
 1770POPC   C4B26770  33.026  40.904   7.685
 1771POPC   NC326771  44.138  12.259   9.529
 1771POPC   PO426772  43.719  11.788   9.556
 1771POPC   GL126773  43.809  12.012   9.206
 1771POPC   GL226774  44.140  11.890   9.164
 1771POPC   C1A26775  43.899  12.295   8.876
 1771POPC   D2A26776  43.821  12.175   8.451
 1771POPC   C3A26777  44.046  12.327   8.087
 1771POPC   C4A26778  43.925  12.243   7.671
 1771POPC   C1B26779  43.955  11.783   8.770
 1771POPC   C2B26780  44.109  11.752   8.367
 1771POPC   C3B26781  43.967  11.825   7.945
 1771POPC   C4B26782  44.007  11.793   7.448
 1772POPC   NC326783  36.404   3.804   9.489
 1772POPC   PO426784  35.886   3.296   9.530
 1772POPC   GL126785  36.047   3.507   9.185
 1772POPC   GL226786  36.326   3.599   8.992
 1772POPC   C1A26787  35.865   3.566   8.792
 1772POPC   D2A26788  36.092   3.473   8.438
 1772POPC   C3A26789  35.846   3.525   8.121
 1772POPC   C4A26790  35.820   3.323   7.736
 1772POPC   C1B26791  36.363   3.858   8.638
 1772POPC   C2B26792  36.504   3.752   8.244
 1772POPC   C3B26793  36.322   3.558   7.894
 1772POPC   C4B26794  36.038   3.783   7.737
 1773POPC   NC326795   3.588  15.315   9.441
 1773POPC   PO426796   3.792  14.696   9.674
 1773POPC   GL126797   3.740  14.888   9.227
 1773POPC   GL226798   3.421  15.036   9.057
 1773POPC   C1A26799   3.838  14.906   8.767
 1773POPC   D2A26800   3.606  15.055   8.403
 1773POPC   C3A26801   3.752  15.257   8.021
 1773POPC   C4A26802   3.660  14.890   7.762
 1773POPC   C1B26803   3.468  15.399   8.773
 1773POPC   C2B26804   3.399  15.521   8.329
 1773POPC   C3B26805   3.252  15.182   8.016
 1773POPC   C4B26806   3.328  15.248   7.571
 1774POPC   NC326807  34.157   4.030   9.370
 1774POPC   PO426808  33.662   4.450   9.661
 1774POPC   GL126809  33.699   4.311   9.204
 1774POPC   GL226810  33.758   4.013   9.036
 1774POPC   C1A26811  33.777   4.410   8.729
 1774POPC   D2A26812  33.918   4.319   8.342
 1774POPC   C3A26813  33.651   4.189   8.017
 1774POPC   C4A26814  33.824   4.518   7.781
 1774POPC   C1B26815  34.124   4.022   8.718
 1774POPC   C2B26816  34.288   3.853   8.361
 1774POPC   C3B26817  34.106   3.979   8.004
 1774POPC   C4B26818  33.973   4.046   7.606
 1775POPC   NC326819  31.817   0.704   9.518
 1775POPC   PO426820  32.462   0.318   9.469
 1775POPC   GL126821  32.166   0.468   9.157
 1775POPC   GL226822  31.991   0.776   9.036
 1775POPC   C1A26823  32.312   0.450   8.738
 1775POPC   D2A26824  32.261   0.676   8.360
 1775POPC   C3A26825  32.318   0.399   8.011
 1775POPC   C4A26826  32.381   0.390   7.574
 1775POPC   C1B26827  31.806   0.468   8.732
 1775POPC   C2B26828  31.874   0.363   8.297
 1775POPC   C3B26829  31.918   0.681   7.962
 1775POPC   C4B26830  31.816   0.359   7.704
 1776POPC   NC326831   3.089  39.788   9.645
 1776POPC   PO426832   2.435  39.767   9.457
 1776POPC   GL126833   2.711  39.809   9.133
 1776POPC   GL226834   3.095  39.679   9.146
 1776POPC   C1A26835   2.489  39.864   8.745
 1776POPC   D2A26836   2.369  40.096   8.404
 1776POPC   C3A26837   2.396  39.856   8.008
 1776POPC   C4A26838   2.480  39.879   7.552
 1776POPC   C1B26839   2.993  39.739   8.727
 1776POPC   C2B26840   2.889  40.014   8.422
 1776POPC   C3B26841   2.879  40.039   8.003
 1776POPC   C4B26842   2.876  39.668   7.808
 1777POPC   NC326843  16.999  11.604   9.320
 1777POPC   PO426844  16.531  11.208   9.552
 1777POPC   GL126845  16.394  11.369   9.135
 1777POPC   GL226846  16.741  11.357   8.963
 1777POPC   C1A26847  16.366  11.485   8.674
 1777POPC   D2A26848  16.705  11.411   8.405
 1777POPC   C3A26849  16.609  11.440   8.001
 1777POPC   C4A26850  16.414  11.248   7.682
 1777POPC   C1B26851  17.110  11.507   8.710
 1777POPC   C2B26852  17.231  11.500   8.319
 1777POPC   C3B26853  17.121  11.225   8.026
 1777POPC   C4B26854  16.923  11.269   7.603
 1778POPC   NC326855  24.677  43.247   9.500
 1778POPC   PO426856  24.069  43.344   9.374
 1778POPC   GL126857  24.290  43.123   9.043
 1778POPC   GL226858  24.571  43.237   8.957
 1778POPC   C1A26859  24.261  42.963   8.619
 1778POPC   D2A26860  24.189  43.039   8.179
 1778POPC   C3A26861  24.296  42.810   7.813
 1778POPC   C4A26862  24.192  43.278   7.708
 1778POPC   C1B26863  24.747  42.892   8.660
 1778POPC   C2B26864  24.644  42.872   8.251
 1778POPC   C3B26865  24.656  43.145   7.893
 1778POPC   C4B26866  24.555  43.108   7.429
 1779POPC   NC326867  41.230  29.849   9.473
 1779POPC   PO426868  41.735  29.419   9.326
 1779POPC   GL126869  41.503  29.737   9.026
 1779POPC   GL226870  41.307  30.073   9.016
 1779POPC   C1A26871  41.404  29.815   8.574
 1779POPC   D2A26872  41.379  29.677   8.141
 1779POPC   C3A26873  41.660  29.869   7.869
 1779POPC   C4A26874  41.866  30.273   7.887
 1779POPC   C1B26875  41.449  30.322   8.628
 1779POPC   C2B26876  41.412  30.198   8.193
 1779POPC   C3B26877  41.017  30.021   7.963
 1779POPC   C4B26878  40.872  29.868   7.560
 1780POPC   NC326879  23.489  39.149   9.461
 1780POPC   PO426880  24.067  39.463   9.489
 1780POPC   GL126881  23.805  39.392   9.160
 1780POPC   GL226882  23.814  39.048   9.055
 1780POPC   C1A26883  23.563  39.441   8.811
 1780POPC   D2A26884  23.795  39.265   8.477
 1780POPC   C3A26885  23.686  39.222   8.059
 1780POPC   C4A26886  23.879  39.077   7.668
 1780POPC   C1B26887  23.481  38.907   8.757
 1780POPC   C2B26888  23.307  38.912   8.333
 1780POPC   C3B26889  23.489  38.784   7.924
 1780POPC   C4B26890  23.516  38.774   7.468
 1781POPC   NC326891  14.464  21.916   9.458
 1781POPC   PO426892  13.924  22.250   9.575
 1781POPC   GL126893  14.201  22.308   9.200
 1781POPC   GL226894  14.263  21.994   8.997
 1781POPC   C1A26895  14.395  22.430   8.786
 1781POPC   D2A26896  14.646  22.252   8.448
 1781POPC   C3A26897  14.449  22.296   8.078
 1781POPC   C4A26898  14.335  22.192   7.699
 1781POPC   C1B26899  14.625  21.865   8.770
 1781POPC   C2B26900  14.656  21.717   8.346
 1781POPC   C3B26901  14.614  21.830   7.903
 1781POPC   C4B26902  14.676  21.895   7.410
 1782POPC   NC326903  36.948   1.424   9.534
 1782POPC   PO426904  36.799   0.792   9.730
 1782POPC   GL126905  36.958   0.972   9.289
 1782POPC   GL226906  36.783   1.268   9.078
 1782POPC   C1A26907  36.968   0.891   8.823
 1782POPC   D2A26908  36.805   1.167   8.466
 1782POPC   C3A26909  36.969   0.970   8.080
 1782POPC   C4A26910  36.881   1.122   7.660
 1782POPC   C1B26911  37.136   1.410   8.807
 1782POPC   C2B26912  37.258   1.361   8.356
 1782POPC   C3B26913  37.054   1.475   7.982
 1782POPC   C4B26914  37.319   1.405   7.625
 1783POPC   NC326915   6.066  31.047   9.339
 1783POPC   PO426916   5.856  31.594   9.735
 1783POPC   GL126917   5.770  31.604   9.276
 1783POPC   GL226918   5.536  31.343   9.218
 1783POPC   C1A26919   5.579  31.841   8.905
 1783POPC   D2A26920   5.681  31.726   8.469
 1783POPC   C3A26921   5.607  31.858   8.048
 1783POPC   C4A26922   5.897  31.706   7.706
 1783POPC   C1B26923   5.774  31.341   8.819
 1783POPC   C2B26924   6.060  31.248   8.460
 1783POPC   C3B26925   6.088  31.226   8.011
 1783POPC   C4B26926   5.716  31.228   7.773
 1784POPC   NC326927  37.700  23.323   9.801
 1784POPC   PO426928  38.234  23.534   9.598
 1784POPC   GL126929  38.356  23.696   9.190
 1784POPC   GL226930  38.558  23.455   9.025
 1784POPC   C1A26931  38.257  23.925   8.813
 1784POPC   D2A26932  38.151  24.041   8.383
 1784POPC   C3A26933  38.320  23.828   8.016
 1784POPC   C4A26934  38.225  23.841   7.573
 1784POPC   C1B26935  38.803  23.479   8.640
 1784POPC   C2B26936  38.697  23.458   8.168
 1784POPC   C3B26937  38.555  23.450   7.728
 1784POPC   C4B26938  38.780  23.520   7.345
 1785POPC   NC326939  33.061  18.056   9.737
 1785POPC   PO426940  32.655  18.465   9.327
 1785POPC   GL126941  32.962  18.153   9.201
 1785POPC   GL226942  33.242  17.909   9.155
 1785POPC   C1A26943  32.908  18.022   8.771
 1785POPC   D2A26944  32.750  17.841   8.369
 1785POPC   C3A26945  32.887  18.084   7.989
 1785POPC   C4A26946  32.743  18.233   7.581
 1785POPC   C1B26947  33.364  18.222   8.833
 1785POPC   C2B26948  33.237  18.154   8.380
 1785POPC   C3B26949  33.394  18.211   7.944
 1785POPC   C4B26950  33.232  18.343   7.504
 1786POPC   NC326951   3.780  23.987   9.487
 1786POPC   PO426952   3.384  23.402   9.502
 1786POPC   GL126953   3.484  23.567   9.128
 1786POPC   GL226954   3.497  23.915   9.074
 1786POPC   C1A26955   3.739  23.572   8.773
 1786POPC   D2A26956   3.826  23.361   8.402
 1786POPC   C3A26957   3.695  23.510   7.988
 1786POPC   C4A26958   3.584  23.701   7.604
 1786POPC   C1B26959   3.607  24.067   8.712
 1786POPC   C2B26960   3.695  23.891   8.339
 1786POPC   C3B26961   3.412  23.949   8.027
 1786POPC   C4B26962   3.374  24.188   7.667
 1787POPC   NC326963  15.966  20.160   9.772
 1787POPC   PO426964  15.592  19.646   9.559
 1787POPC   GL126965  15.977  19.686   9.267
 1787POPC   GL226966  16.071  20.007   9.092
 1787POPC   C1A26967  16.023  19.577   8.806
 1787POPC   D2A26968  16.011  19.373   8.386
 1787POPC   C3A26969  15.942  19.627   8.028
 1787POPC   C4A26970  15.741  19.918   7.788
 1787POPC   C1B26971  15.885  20.041   8.641
 1787POPC   C2B26972  15.941  20.169   8.189
 1787POPC   C3B26973  16.037  20.330   7.760
 1787POPC   C4B26974  16.031  20.179   7.334
 1788POPC   NC326975  13.804  32.851   9.312
 1788POPC   PO426976  13.308  33.224   9.468
 1788POPC   GL126977  13.521  33.211   9.107
 1788POPC   GL226978  13.332  32.887   9.076
 1788POPC   C1A26979  13.792  33.255   8.751
 1788POPC   D2A26980  13.802  33.416   8.366
 1788POPC   C3A26981  13.896  33.257   7.971
 1788POPC   C4A26982  13.661  33.211   7.613
 1788POPC   C1B26983  13.595  32.787   8.710
 1788POPC   C2B26984  13.762  32.904   8.303
 1788POPC   C3B26985  13.763  32.745   7.852
 1788POPC   C4B26986  13.423  32.746   7.534
 1789POPC   NC326987  12.058  25.715   9.406
 1789POPC   PO426988  11.764  25.117   9.699
 1789POPC   GL126989  11.924  25.204   9.261
 1789POPC   GL226990  12.229  25.026   9.126
 1789POPC   C1A26991  11.828  25.106   8.822
 1789POPC   D2A26992  12.012  24.859   8.519
 1789POPC   C3A26993  11.936  25.067   8.142
 1789POPC   C4A26994  11.986  25.073   7.727
 1789POPC   C1B26995  12.304  25.239   8.704
 1789POPC   C2B26996  12.404  25.214   8.249
 1789POPC   C3B26997  12.437  25.315   7.798
 1789POPC   C4B26998  12.258  25.577   7.460
 1790POPC   NC326999  30.290  29.106   9.527
 1790POPC   PO427000  29.847  29.600   9.556
 1790POPC   GL127001  29.927  29.274   9.193
 1790POPC   GL227002  30.265  29.266   9.042
 1790POPC   C1A27003  29.868  29.051   8.765
 1790POPC   D2A27004  29.987  29.109   8.296
 1790POPC   C3A27005  29.726  29.097   7.893
 1790POPC   C4A27006  29.565  29.393   7.579
 1790POPC   C1B27007  30.359  28.917   8.727
 1790POPC   C2B27008  30.319  28.740   8.298
 1790POPC   C3B27009  30.190  28.868   7.844
 1790POPC   C4B27010  30.389  28.924   7.446
 1791POPC   NC327011  19.411  33.210   9.468
 1791POPC   PO427012  19.715  32.596   9.643
 1791POPC   GL127013  19.739  32.686   9.180
 1791POPC   GL227014  20.042  32.821   9.041
 1791POPC   C1A27015  19.625  32.904   8.761
 1791POPC   D2A27016  19.688  33.151   8.367
 1791POPC   C3A27017  19.698  32.969   7.953
 1791POPC   C4A27018  19.686  33.171   7.543
 1791POPC   C1B27019  20.099  33.155   8.774
 1791POPC   C2B27020  20.219  33.089   8.378
 1791POPC   C3B27021  20.202  33.235   7.972
 1791POPC   C4B27022  20.179  33.319   7.542
 1792POPC   NC327023  16.128  36.918   9.574
 1792POPC   PO427024  15.585  37.196   9.498
 1792POPC   GL127025  15.735  36.887   9.209
 1792POPC   GL227026  16.097  36.911   9.077
 1792POPC   C1A27027  15.718  36.701   8.807
 1792POPC   D2A27028  15.957  36.840   8.463
 1792POPC   C3A27029  15.744  36.861   8.085
 1792POPC   C4A27030  15.922  36.823   7.714
 1792POPC   C1B27031  16.248  37.144   8.761
 1792POPC   C2B27032  16.460  37.132   8.375
 1792POPC   C3B27033  16.271  37.264   8.009
 1792POPC   C4B27034  16.204  37.208   7.595
 1793POPC   NC327035  19.466   2.972   9.527
 1793POPC   PO427036  20.077   2.699   9.535
 1793POPC   GL127037  19.875   2.874   9.199
 1793POPC   GL227038  19.630   2.608   9.157
 1793POPC   C1A27039  19.820   2.883   8.753
 1793POPC   D2A27040  19.835   2.877   8.318
 1793POPC   C3A27041  20.130   2.693   8.090
 1793POPC   C4A27042  19.914   2.599   7.724
 1793POPC   C1B27043  19.516   2.464   8.731
 1793POPC   C2B27044  19.410   2.583   8.282
 1793POPC   C3B27045  19.391   2.467   7.804
 1793POPC   C4B27046  19.590   2.476   7.347
 1794POPC   NC327047  27.699  40.058   9.922
 1794POPC   PO427048  27.272  39.886   9.463
 1794POPC   GL127049  27.631  39.959   9.147
 1794POPC   GL227050  27.906  40.280   9.216
 1794POPC   C1A27051  27.595  39.936   8.700
 1794POPC   D2A27052  27.754  39.850   8.280
 1794POPC   C3A27053  27.501  39.901   7.909
 1794POPC   C4A27054  27.507  40.071   7.485
 1794POPC   C1B27055  27.724  40.429   8.850
 1794POPC   C2B27056  27.822  40.336   8.464
 1794POPC   C3B27057  27.638  40.356   8.106
 1794POPC   C4B27058  27.856  40.313   7.760
 1795POPC   NC327059  41.549  32.140   9.665
 1795POPC   PO427060  41.110  31.670   9.479
 1795POPC   GL127061  41.436  31.443   9.182
 1795POPC   GL227062  41.512  31.093   9.035
 1795POPC   C1A27063  41.547  31.502   8.733
 1795POPC   D2A27064  41.465  31.284   8.340
 1795POPC   C3A27065  41.557  31.535   7.978
 1795POPC   C4A27066  41.730  31.491   7.579
 1795POPC   C1B27067  41.874  31.117   8.701
 1795POPC   C2B27068  41.948  31.088   8.251
 1795POPC   C3B27069  42.023  31.095   7.808
 1795POPC   C4B27070  42.015  31.122   7.350
 1796POPC   NC327071  21.235  27.808   9.623
 1796POPC   PO427072  21.604  27.284   9.604
 1796POPC   GL127073  21.454  27.562   9.228
 1796POPC   GL227074  21.112  27.663   9.122
 1796POPC   C1A27075  21.574  27.698   8.807
 1796POPC   D2A27076  21.694  27.624   8.377
 1796POPC   C3A27077  21.524  27.727   7.973
 1796POPC   C4A27078  21.602  27.519   7.592
 1796POPC   C1B27079  21.163  27.384   8.733
 1796POPC   C2B27080  21.178  27.413   8.252
 1796POPC   C3B27081  21.178  27.234   7.808
 1796POPC   C4B27082  21.270  27.228   7.359
 1797POPC   NC327083  23.183  12.427   9.458
 1797POPC   PO427084  23.771  12.001   9.630
 1797POPC   GL127085  23.853  11.865   9.179
 1797POPC   GL227086  23.578  11.835   8.898
 1797POPC   C1A27087  24.073  11.906   8.781
 1797POPC   D2A27088  24.215  12.118   8.410
 1797POPC   C3A27089  24.128  11.976   8.027
 1797POPC   C4A27090  23.888  12.107   7.722
 1797POPC   C1B27091  23.650  12.186   8.624
 1797POPC   C2B27092  23.697  12.260   8.179
 1797POPC   C3B27093  23.426  12.260   7.814
 1797POPC   C4B27094  23.370  11.980   7.475
 1798POPC   NC327095   7.613  30.273   9.500
 1798POPC   PO427096   7.277  30.850   9.396
 1798POPC   GL127097   7.353  30.508   9.112
 1798POPC   GL227098   7.710  30.589   9.093
 1798POPC   C1A27099   7.364  30.581   8.666
 1798POPC   D2A27100   7.494  30.975   8.452
 1798POPC   C3A27101   7.661  30.880   8.051
 1798POPC   C4A27102   7.627  30.792   7.622
 1798POPC   C1B27103   7.734  30.225   8.813
 1798POPC   C2B27104   7.663  30.146   8.346
 1798POPC   C3B27105   7.692  30.339   7.906
 1798POPC   C4B27106   7.807  30.362   7.442
 1799POPC   NC327107  10.367  14.227   9.430
 1799POPC   PO427108  10.067  14.792   9.790
 1799POPC   GL127109  10.245  14.703   9.314
 1799POPC   GL227110  10.599  14.621   9.218
 1799POPC   C1A27111  10.328  14.611   8.807
 1799POPC   D2A27112  10.444  14.797   8.382
 1799POPC   C3A27113  10.556  14.612   7.982
 1799POPC   C4A27114  10.265  14.363   7.770
 1799POPC   C1B27115  10.730  14.299   8.893
 1799POPC   C2B27116  10.738  14.200   8.461
 1799POPC   C3B27117  10.574  14.101   8.074
 1799POPC   C4B27118  10.748  14.171   7.665
 1800POPC   NC327119  24.332  25.046   9.493
 1800POPC   PO427120  24.222  25.650   9.377
 1800POPC   GL127121  24.487  25.374   9.069
 1800POPC   GL227122  24.573  25.015   9.054
 1800POPC   C1A27123  24.316  25.264   8.688
 1800POPC   D2A27124  24.208  25.556   8.385
 1800POPC   C3A27125  24.129  25.366   8.029
 1800POPC   C4A27126  24.157  25.011   7.804
 1800POPC   C1B27127  24.808  25.121   8.653
 1800POPC   C2B27128  24.594  25.216   8.248
 1800POPC   C3B27129  24.599  25.297   7.819
 1800POPC   C4B27130  24.803  25.103   7.509
 1801POPC   NC327131   5.436  32.689   9.438
 1801POPC   PO427132   4.787  32.760   9.369
 1801POPC   GL127133   5.015  32.984   9.082
 1801POPC   GL227134   5.311  33.154   9.174
 1801POPC   C1A27135   5.091  32.837   8.673
 1801POPC   D2A27136   5.399  32.789   8.349
 1801POPC   C3A27137   5.218  32.801   7.952
 1801POPC   C4A27138   4.762  32.790   7.824
 1801POPC   C1B27139   5.472  33.149   8.744
 1801POPC   C2B27140   5.287  33.302   8.337
 1801POPC   C3B27141   5.101  33.298   7.908
 1801POPC   C4B27142   5.123  33.056   7.495
 1802POPC   NC327143   8.600  41.647   9.407
 1802POPC   PO427144   9.139  41.354   9.593
 1802POPC   GL127145   9.180  41.450   9.164
 1802POPC   GL227146   8.889  41.607   8.995
 1802POPC   C1A27147   9.246  41.314   8.759
 1802POPC   D2A27148   9.171  41.550   8.403
 1802POPC   C3A27149   9.059  41.376   8.034
 1802POPC   C4A27150   8.749  41.535   7.765
 1802POPC   C1B27151   8.791  41.848   8.625
 1802POPC   C2B27152   8.767  41.803   8.195
 1802POPC   C3B27153   8.443  41.926   7.917
 1802POPC   C4B27154   8.487  41.897   7.469
 1803POPC   NC327155  38.793  11.073   9.495
 1803POPC   PO427156  39.073  11.715   9.337
 1803POPC   GL127157  38.720  11.541   9.111
 1803POPC   GL227158  38.472  11.272   9.152
 1803POPC   C1A27159  38.608  11.461   8.682
 1803POPC   D2A27160  38.303  11.284   8.384
 1803POPC   C3A27161  38.496  11.406   8.020
 1803POPC   C4A27162  38.341  11.420   7.611
 1803POPC   C1B27163  38.343  11.006   8.815
 1803POPC   C2B27164  38.196  10.775   8.431
 1803POPC   C3B27165  38.326  10.867   8.018
 1803POPC   C4B27166  38.617  11.012   7.729
 1804POPC   NC327167  12.165  22.263   9.413
 1804POPC   PO427168  11.616  21.904   9.574
 1804POPC   GL127169  11.904  21.891   9.167
 1804POPC   GL227170  12.248  21.946   9.026
 1804POPC   C1A27171  11.837  22.116   8.762
 1804POPC   D2A27172  11.928  22.353   8.393
 1804POPC   C3A27173  12.080  22.077   8.089
 1804POPC   C4A27174  11.983  22.213   7.696
 1804POPC   C1B27175  12.320  22.320   8.750
 1804POPC   C2B27176  12.452  22.392   8.321
 1804POPC   C3B27177  12.217  22.564   7.975
 1804POPC   C4B27178  12.207  22.701   7.559
 1805POPC   NC327179  37.705  21.814   9.857
 1805POPC   PO427180  37.348  22.247   9.494
 1805POPC   GL127181  37.502  22.484   9.154
 1805POPC   GL227182  37.765  22.237   9.125
 1805POPC   C1A27183  37.476  22.385   8.731
 1805POPC   D2A27184  37.484  22.066   8.421
 1805POPC   C3A27185  37.506  22.241   8.039
 1805POPC   C4A27186  37.445  22.012   7.680
 1805POPC   C1B27187  37.813  21.973   8.812
 1805POPC   C2B27188  37.977  21.910   8.413
 1805POPC   C3B27189  37.913  21.930   7.998
 1805POPC   C4B27190  37.910  22.264   7.691
 1806POPC   NC327191  37.358  32.441   9.455
 1806POPC   PO427192  36.691  32.356   9.520
 1806POPC   GL127193  37.001  32.274   9.135
 1806POPC   GL227194  36.788  32.063   8.948
 1806POPC   C1A27195  37.193  32.238   8.691
 1806POPC   D2A27196  36.919  32.366   8.362
 1806POPC   C3A27197  36.969  32.641   8.014
 1806POPC   C4A27198  36.730  32.799   7.675
 1806POPC   C1B27199  37.020  31.776   8.649
 1806POPC   C2B27200  37.137  31.891   8.209
 1806POPC   C3B27201  36.908  32.146   7.889
 1806POPC   C4B27202  36.699  32.084   7.462
 1807POPC   NC327203  43.648   0.179   9.391
 1807POPC   PO427204  44.147   0.662   9.498
 1807POPC   GL127205  44.149   0.737   9.083
 1807POPC   GL227206  43.806   0.580   9.045
 1807POPC   C1A27207  44.114   0.674   8.637
 1807POPC   D2A27208  43.707   0.555   8.498
 1807POPC   C3A27209  43.661   0.571   8.042
 1807POPC   C4A27210  43.845   0.847   7.743
 1807POPC   C1B27211  43.994   0.207   8.793
 1807POPC   C2B27212  44.009   0.175   8.315
 1807POPC   C3B27213  43.841   0.081   7.878
 1807POPC   C4B27214  44.065   0.118   7.449
 1808POPC   NC327215   1.021  25.403  10.001
 1808POPC   PO427216   1.470  25.689   9.522
 1808POPC   GL127217   1.247  25.541   9.125
 1808POPC   GL227218   1.083  25.266   9.118
 1808POPC   C1A27219   1.405  25.376   8.731
 1808POPC   D2A27220   1.475  25.584   8.339
 1808POPC   C3A27221   1.147  25.514   8.047
 1808POPC   C4A27222   1.215  25.389   7.611
 1808POPC   C1B27223   1.061  24.994   8.774
 1808POPC   C2B27224   1.129  25.106   8.357
 1808POPC   C3B27225   1.286  25.004   7.942
 1808POPC   C4B27226   0.974  24.950   7.617
 1809POPC   NC327227   3.400  24.593   9.482
 1809POPC   PO427228   3.996  24.403   9.548
 1809POPC   GL127229   3.763  24.377   9.150
 1809POPC   GL227230   3.803  24.702   9.160
 1809POPC   C1A27231   3.489  24.556   8.785
 1809POPC   D2A27232   3.420  24.394   8.354
 1809POPC   C3A27233   3.469  24.644   7.995
 1809POPC   C4A27234   3.631  24.622   7.586
 1809POPC   C1B27235   3.988  24.665   8.769
 1809POPC   C2B27236   3.841  24.724   8.343
 1809POPC   C3B27237   4.023  24.783   7.914
 1809POPC   C4B27238   4.052  24.831   7.424
 1810POPC   NC327239   0.435  19.977   9.583
 1810POPC   PO427240   0.845  19.424   9.660
 1810POPC   GL127241   0.782  19.715   9.238
 1810POPC   GL227242   0.686  20.085   9.137
 1810POPC   C1A27243   0.598  19.763   8.773
 1810POPC   D2A27244   0.697  20.036   8.393
 1810POPC   C3A27245   0.627  19.884   7.959
 1810POPC   C4A27246   0.559  19.561   7.617
 1810POPC   C1B27247   0.385  20.257   8.752
 1810POPC   C2B27248   0.279  20.378   8.283
 1810POPC   C3B27249   0.275  20.223   7.807
 1810POPC   C4B27250   0.117  20.344   7.368
 1811POPC   NC327251  11.223  22.590   9.327
 1811POPC   PO427252  11.811  22.545   9.280
 1811POPC   GL127253  11.491  22.188   9.140
 1811POPC   GL227254  11.399  21.800   9.138
 1811POPC   C1A27255  11.198  22.186   8.797
 1811POPC   D2A27256  11.098  22.548   8.509
 1811POPC   C3A27257  10.991  22.465   8.063
 1811POPC   C4A27258  11.109  22.088   7.829
 1811POPC   C1B27259  11.516  21.715   8.726
 1811POPC   C2B27260  11.371  21.946   8.375
 1811POPC   C3B27261  11.571  22.102   8.033
 1811POPC   C4B27262  11.723  21.773   7.772
 1812POPC   NC327263  11.812  15.155   9.539
 1812POPC   PO427264  12.390  15.329   9.696
 1812POPC   GL127265  12.262  15.293   9.238
 1812POPC   GL227266  12.095  14.969   9.172
 1812POPC   C1A27267  12.313  15.188   8.783
 1812POPC   D2A27268  12.109  15.036   8.432
 1812POPC   C3A27269  12.259  15.038   8.025
 1812POPC   C4A27270  12.060  15.155   7.642
 1812POPC   C1B27271  11.795  15.073   8.853
 1812POPC   C2B27272  11.636  14.877   8.481
 1812POPC   C3B27273  11.822  14.763   8.099
 1812POPC   C4B27274  11.638  14.894   7.747
 1813POPC   NC327275  37.319  42.269   9.493
 1813POPC   PO427276  37.819  42.784   9.554
 1813POPC   GL127277  37.879  42.692   9.141
 1813POPC   GL227278  37.588  42.458   9.024
 1813POPC   C1A27279  37.825  42.830   8.720
 1813POPC   D2A27280  37.532  42.615   8.492
 1813POPC   C3A27281  37.607  42.343   8.182
 1813POPC   C4A27282  37.542  42.438   7.742
 1813POPC   C1B27283  37.526  42.138   8.671
 1813POPC   C2B27284  37.180  42.070   8.367
 1813POPC   C3B27285  37.291  42.026   7.941
 1813POPC   C4B27286  37.742  41.980   7.835
 1814POPC   NC327287  11.401  24.354   9.688
 1814POPC   PO427288  11.073  24.951   9.568
 1814POPC   GL127289  11.105  24.559   9.252
 1814POPC   GL227290  11.440  24.429   9.132
 1814POPC   C1A27291  11.070  24.456   8.796
 1814POPC   D2A27292  11.094  24.688   8.392
 1814POPC   C3A27293  11.224  24.462   8.025
 1814POPC   C4A27294  11.172  24.129   7.730
 1814POPC   C1B27295  11.527  24.681   8.718
 1814POPC   C2B27296  11.641  24.623   8.270
 1814POPC   C3B27297  11.592  24.770   7.833
 1814POPC   C4B27298  11.483  25.025   7.463
 1815POPC   NC327299   7.522  34.062   9.385
 1815POPC   PO427300   6.989  33.710   9.617
 1815POPC   GL127301   7.238  33.631   9.239
 1815POPC   GL227302   7.611  33.572   9.243
 1815POPC   C1A27303   7.327  33.815   8.819
 1815POPC   D2A27304   7.189  33.906   8.420
 1815POPC   C3A27305   7.451  33.899   8.078
 1815POPC   C4A27306   7.204  33.880   7.731
 1815POPC   C1B27307   7.536  33.365   8.844
 1815POPC   C2B27308   7.674  33.602   8.474
 1815POPC   C3B27309   7.806  33.514   8.042
 1815POPC   C4B27310   7.612  33.563   7.633
 1816POPC   NC327311   6.732  10.120   9.471
 1816POPC   PO427312   6.343  10.753   9.403
 1816POPC   GL127313   6.464  10.412   9.134
 1816POPC   GL227314   6.752  10.507   9.121
 1816POPC   C1A27315   6.546  10.264   8.699
 1816POPC   D2A27316   6.836  10.304   8.304
 1816POPC   C3A27317   6.570  10.351   7.914
 1816POPC   C4A27318   6.382  10.270   7.490
 1816POPC   C1B27319   6.942  10.576   8.743
 1816POPC   C2B27320   7.039  10.787   8.354
 1816POPC   C3B27321   6.961  10.702   7.938
 1816POPC   C4B27322   6.620  10.835   7.722
 1817POPC   NC327323  29.973  10.912   9.716
 1817POPC   PO427324  29.666  11.375   9.456
 1817POPC   GL127325  29.715  11.148   9.072
 1817POPC   GL227326  30.066  11.062   9.135
 1817POPC   C1A27327  29.645  11.223   8.628
 1817POPC   D2A27328  29.594  11.533   8.308
 1817POPC   C3A27329  29.686  11.347   7.929
 1817POPC   C4A27330  30.130  11.384   7.737
 1817POPC   C1B27331  30.139  11.091   8.679
 1817POPC   C2B27332  30.041  11.106   8.204
 1817POPC   C3B27333  30.195  10.883   7.802
 1817POPC   C4B27334  30.315  11.077   7.367
 1818POPC   NC327335  10.554  24.912   9.696
 1818POPC   PO427336  10.302  24.362   9.329
 1818POPC   GL127337  10.611  24.470   9.061
 1818POPC   GL227338  10.694  24.148   8.956
 1818POPC   C1A27339  10.648  24.708   8.677
 1818POPC   D2A27340  10.551  24.698   8.250
 1818POPC   C3A27341  10.504  24.289   8.088
 1818POPC   C4A27342  10.770  24.443   7.800
 1818POPC   C1B27343  10.312  24.241   8.671
 1818POPC   C2B27344  10.045  24.111   8.311
 1818POPC   C3B27345  10.042  24.288   7.867
 1818POPC   C4B27346  10.382  24.344   7.505
 1819POPC   NC327347  13.373  19.369   9.252
 1819POPC   PO427348  13.849  18.905   9.416
 1819POPC   GL127349  13.752  18.788   9.030
 1819POPC   GL227350  13.453  18.913   9.033
 1819POPC   C1A27351  13.825  18.950   8.621
 1819POPC   D2A27352  13.595  19.113   8.302
 1819POPC   C3A27353  13.670  19.035   7.910
 1819POPC   C4A27354  13.955  18.786   7.772
 1819POPC   C1B27355  13.117  18.794   8.826
 1819POPC   C2B27356  13.137  18.998   8.465
 1819POPC   C3B27357  13.201  18.877   8.056
 1819POPC   C4B27358  13.086  18.943   7.662
 1820POPC   NC327359  42.554  30.828   9.550
 1820POPC   PO427360  41.854  31.049   9.396
 1820POPC   GL127361  42.240  30.910   9.118
 1820POPC   GL227362  42.594  31.099   9.125
 1820POPC   C1A27363  42.304  30.672   8.714
 1820POPC   D2A27364  42.444  30.457   8.315
 1820POPC   C3A27365  42.247  30.637   7.927
 1820POPC   C4A27366  42.374  30.768   7.489
 1820POPC   C1B27367  42.643  31.044   8.703
 1820POPC   C2B27368  42.453  30.957   8.284
 1820POPC   C3B27369  42.552  31.061   7.869
 1820POPC   C4B27370  42.863  30.971   7.569
 1821POPC   NC327371   0.952  25.614   9.504
 1821POPC   PO427372   1.120  26.230   9.727
 1821POPC   GL127373   1.260  26.066   9.266
 1821POPC   GL227374   0.973  25.990   9.098
 1821POPC   C1A27375   1.425  25.887   8.837
 1821POPC   D2A27376   1.346  26.095   8.465
 1821POPC   C3A27377   1.467  26.090   8.084
 1821POPC   C4A27378   1.517  25.743   7.825
 1821POPC   C1B27379   1.035  26.322   8.779
 1821POPC   C2B27380   0.990  26.433   8.308
 1821POPC   C3B27381   0.964  26.269   7.877
 1821POPC   C4B27382   0.999  26.492   7.471
 1822POPC   NC327383  19.963  32.167   9.556
 1822POPC   PO427384  19.350  31.901   9.464
 1822POPC   GL127385  19.605  32.177   9.159
 1822POPC   GL227386  19.971  32.117   9.075
 1822POPC   C1A27387  19.722  32.386   8.736
 1822POPC   D2A27388  19.616  32.548   8.327
 1822POPC   C3A27389  19.805  32.440   7.919
 1822POPC   C4A27390  19.771  32.198   7.510
 1822POPC   C1B27391  20.192  31.917   8.749
 1822POPC   C2B27392  20.052  32.029   8.361
 1822POPC   C3B27393  20.115  31.801   7.992
 1822POPC   C4B27394  20.283  31.586   7.619
 1823POPC   NC327395   1.740   6.247   9.383
 1823POPC   PO427396   2.097   6.910   9.554
 1823POPC   GL127397   2.178   6.704   9.142
 1823POPC   GL227398   1.847   6.633   9.103
 1823POPC   C1A27399   2.095   6.480   8.704
 1823POPC   D2A27400   1.908   6.632   8.328
 1823POPC   C3A27401   2.108   6.668   7.961
 1823POPC   C4A27402   2.411   6.406   7.805
 1823POPC   C1B27403   1.586   6.514   8.713
 1823POPC   C2B27404   1.417   6.698   8.304
 1823POPC   C3B27405   1.600   6.516   7.896
 1823POPC   C4B27406   1.905   6.440   7.530
 1824POPC   NC327407  20.580  38.612   9.508
 1824POPC   PO427408  21.017  38.191   9.173
 1824POPC   GL127409  20.593  38.293   9.099
 1824POPC   GL227410  20.762  38.493   8.855
 1824POPC   C1A27411  20.277  38.350   8.781
 1824POPC   D2A27412  20.316  38.547   8.408
 1824POPC   C3A27413  20.392  38.332   8.044
 1824POPC   C4A27414  20.196  38.445   7.667
 1824POPC   C1B27415  20.698  38.086   8.630
 1824POPC   C2B27416  20.798  38.045   8.240
 1824POPC   C3B27417  20.965  38.353   7.940
 1824POPC   C4B27418  20.820  38.286   7.518
 1825POPC   NC327419  20.761  34.337   9.278
 1825POPC   PO427420  20.943  34.939   9.551
 1825POPC   GL127421  20.867  34.844   9.089
 1825POPC   GL227422  20.882  34.523   8.829
 1825POPC   C1A27423  20.967  35.013   8.677
 1825POPC   D2A27424  21.000  34.724   8.327
 1825POPC   C3A27425  20.583  34.663   8.157
 1825POPC   C4A27426  20.427  34.744   7.752
 1825POPC   C1B27427  20.461  34.347   8.661
 1825POPC   C2B27428  20.286  34.237   8.243
 1825POPC   C3B27429  20.509  34.251   7.846
 1825POPC   C4B27430  20.910  34.547   7.752
 1826POPC   NC327431  22.644  39.657   9.291
 1826POPC   PO427432  22.882  40.125   9.732
 1826POPC   GL127433  22.866  40.100   9.215
 1826POPC   GL227434  23.119  39.832   9.061
 1826POPC   C1A27435  22.984  40.219   8.767
 1826POPC   D2A27436  23.113  40.027   8.376
 1826POPC   C3A27437  23.076  40.268   8.000
 1826POPC   C4A27438  22.849  40.324   7.619
 1826POPC   C1B27439  22.869  39.706   8.695
 1826POPC   C2B27440  22.859  39.601   8.261
 1826POPC   C3B27441  23.186  39.740   7.948
 1826POPC   C4B27442  22.831  39.825   7.750
 1827POPC   NC327443  18.555  43.706   9.330
 1827POPC   PO427444  18.203  44.206   9.492
 1827POPC   GL127445  18.172  44.016   9.122
 1827POPC   GL227446  18.499  44.077   8.962
 1827POPC   C1A27447  17.939  44.189   8.783
 1827POPC   D2A27448  17.880  44.287   8.361
 1827POPC   C3A27449  18.184  44.054   8.126
 1827POPC   C4A27450  17.984  43.727   7.890
 1827POPC   C1B27451  18.312  43.752   8.673
 1827POPC   C2B27452  18.337  43.561   8.242
 1827POPC   C3B27453  18.426  43.454   7.789
 1827POPC   C4B27454  18.570  43.727   7.463
 1828POPC   NC327455  25.750  19.680   9.588
 1828POPC   PO427456  26.369  19.971   9.580
 1828POPC   GL127457  26.086  19.898   9.268
 1828POPC   GL227458  26.279  19.680   9.112
 1828POPC   C1A27459  26.022  20.063   8.883
 1828POPC   D2A27460  26.114  19.817   8.557
 1828POPC   C3A27461  25.844  19.873   8.228
 1828POPC   C4A27462  25.942  19.822   7.820
 1828POPC   C1B27463  25.863  19.560   8.926
 1828POPC   C2B27464  25.842  19.410   8.514
 1828POPC   C3B27465  26.167  19.424   8.218
 1828POPC   C4B27466  26.220  19.399   7.790
 1829POPC   NC327467  26.892  36.557   9.548
 1829POPC   PO427468  27.061  35.915   9.527
 1829POPC   GL127469  26.841  36.138   9.198
 1829POPC   GL227470  26.536  35.960   9.205
 1829POPC   C1A27471  26.892  36.318   8.783
 1829POPC   D2A27472  27.192  36.442   8.471
 1829POPC   C3A27473  27.019  36.315   8.116
 1829POPC   C4A27474  26.897  36.467   7.750
 1829POPC   C1B27475  26.585  35.884   8.781
 1829POPC   C2B27476  26.412  36.101   8.437
 1829POPC   C3B27477  26.518  36.196   8.038
 1829POPC   C4B27478  26.740  36.013   7.705
 1830POPC   NC327479  19.614  12.707   9.576
 1830POPC   PO427480  20.007  13.286   9.619
 1830POPC   GL127481  19.633  13.117   9.283
 1830POPC   GL227482  19.863  12.807   9.162
 1830POPC   C1A27483  19.543  12.973   8.804
 1830POPC   D2A27484  19.822  12.980   8.413
 1830POPC   C3A27485  19.743  12.992   7.975
 1830POPC   C4A27486  19.693  13.341   7.755
 1830POPC   C1B27487  20.052  12.704   8.778
 1830POPC   C2B27488  20.049  12.516   8.404
 1830POPC   C3B27489  20.138  12.607   8.012
 1830POPC   C4B27490  19.995  12.639   7.628
 1831POPC   NC327491   5.633  31.201   9.795
 1831POPC   PO427492   5.029  31.388   9.592
 1831POPC   GL127493   5.035  31.439   9.158
 1831POPC   GL227494   4.727  31.533   9.080
 1831POPC   C1A27495   5.266  31.429   8.752
 1831POPC   D2A27496   5.500  31.250   8.385
 1831POPC   C3A27497   5.319  31.420   8.032
 1831POPC   C4A27498   5.253  31.317   7.590
 1831POPC   C1B27499   4.788  31.207   8.768
 1831POPC   C2B27500   5.002  31.100   8.360
 1831POPC   C3B27501   4.869  31.181   7.926
 1831POPC   C4B27502   4.769  31.467   7.572
 1832POPC   NC327503  14.075  24.831   9.348
 1832POPC   PO427504  14.672  25.063   9.361
 1832POPC   GL127505  14.387  25.090   9.021
 1832POPC   GL227506  14.169  25.343   9.162
 1832POPC   C1A27507  14.439  25.077   8.574
 1832POPC   D2A27508  14.439  25.402   8.257
 1832POPC   C3A27509  14.475  25.195   7.888
 1832POPC   C4A27510  14.667  24.787   7.824
 1832POPC   C1B27511  14.162  25.459   8.723
 1832POPC   C2B27512  13.984  25.196   8.360
 1832POPC   C3B27513  13.948  25.284   7.909
 1832POPC   C4B27514  14.175  25.410   7.504
 1833POPC   NC327515  37.920  40.369   9.755
 1833POPC   PO427516  37.553  40.923   9.464
 1833POPC   GL127517  37.675  40.635   9.166
 1833POPC   GL227518  37.391  40.521   9.034
 1833POPC   C1A27519  37.835  40.679   8.734
 1833POPC   D2A27520  37.673  40.590   8.298
 1833POPC   C3A27521  37.906  40.671   7.951
 1833POPC   C4A27522  37.959  41.099   7.798
 1833POPC   C1B27523  37.430  40.950   8.792
 1833POPC   C2B27524  37.631  41.093   8.390
 1833POPC   C3B27525  37.480  40.963   7.966
 1833POPC   C4B27526  37.144  41.088   7.718
 1834POPC   NC327527  12.460   5.747   9.579
 1834POPC   PO427528  13.027   5.969   9.426
 1834POPC   GL127529  12.706   5.993   9.130
 1834POPC   GL227530  12.502   6.273   9.199
 1834POPC   C1A27531  12.768   5.822   8.713
 1834POPC   D2A27532  13.088   5.768   8.384
 1834POPC   C3A27533  12.966   5.785   7.942
 1834POPC   C4A27534  12.835   5.577   7.554
 1834POPC   C1B27535  12.573   6.296   8.727
 1834POPC   C2B27536  12.671   6.068   8.276
 1834POPC   C3B27537  12.683   6.226   7.816
 1834POPC   C4B27538  12.617   6.275   7.326
 1835POPC   NC327539  28.520  16.680   9.623
 1835POPC   PO427540  28.079  17.131   9.642
 1835POPC   GL127541  28.139  16.902   9.240
 1835POPC   GL227542  28.368  16.630   9.153
 1835POPC   C1A27543  28.200  16.953   8.802
 1835POPC   D2A27544  28.329  17.139   8.426
 1835POPC   C3A27545  28.331  16.842   8.091
 1835POPC   C4A27546  28.244  16.953   7.692
 1835POPC   C1B27547  28.462  16.468   8.790
 1835POPC   C2B27548  28.438  16.327   8.378
 1835POPC   C3B27549  28.601  16.326   7.987
 1835POPC   C4B27550  28.584  16.602   7.656
 1836POPC   NC327551  22.957  37.247   9.487
 1836POPC   PO427552  22.566  36.726   9.349
 1836POPC   GL127553  22.787  36.988   9.058
 1836POPC   GL227554  23.144  36.965   9.097
 1836POPC   C1A27555  22.912  36.888   8.641
 1836POPC   D2A27556  23.097  37.078   8.306
 1836POPC   C3A27557  22.852  37.068   7.972
 1836POPC   C4A27558  22.606  36.721   7.856
 1836POPC   C1B27559  23.390  36.768   8.803
 1836POPC   C2B27560  23.319  36.594   8.395
 1836POPC   C3B27561  23.198  36.694   7.981
 1836POPC   C4B27562  23.387  37.061   7.811
 1837POPC   NC327563  28.471   7.260   9.497
 1837POPC   PO427564  28.068   7.722   9.750
 1837POPC   GL127565  28.196   7.623   9.252
 1837POPC   GL227566  28.183   7.247   9.086
 1837POPC   C1A27567  28.347   7.638   8.789
 1837POPC   D2A27568  28.484   7.423   8.400
 1837POPC   C3A27569  28.355   7.530   7.997
 1837POPC   C4A27570  28.492   7.512   7.581
 1837POPC   C1B27571  28.605   7.181   8.845
 1837POPC   C2B27572  28.692   6.958   8.442
 1837POPC   C3B27573  28.604   7.079   7.996
 1837POPC   C4B27574  28.214   7.083   7.752
 1838POPC   NC327575  20.326  39.343   9.178
 1838POPC   PO427576  19.901  39.107   9.632
 1838POPC   GL127577  19.683  39.114   9.263
 1838POPC   GL227578  19.936  38.927   9.152
 1838POPC   C1A27579  19.660  39.413   8.922
 1838POPC   D2A27580  19.900  39.494   8.528
 1838POPC   C3A27581  19.743  39.204   8.201
 1838POPC   C4A27582  19.626  39.245   7.810
 1838POPC   C1B27583  19.954  39.021   8.742
 1838POPC   C2B27584  20.177  39.062   8.401
 1838POPC   C3B27585  20.235  39.265   8.011
 1838POPC   C4B27586  20.230  38.995   7.687
 1839POPC   NC327587  17.990  13.566   9.505
 1839POPC   PO427588  18.628  13.798   9.477
 1839POPC   GL127589  18.514  13.607   9.049
 1839POPC   GL227590  18.219  13.577   9.066
 1839POPC   C1A27591  18.510  13.490   8.638
 1839POPC   D2A27592  18.510  13.693   8.283
 1839POPC   C3A27593  18.531  13.517   7.917
 1839POPC   C4A27594  18.296  13.621   7.567
 1839POPC   C1B27595  18.089  13.817   8.731
 1839POPC   C2B27596  18.099  14.033   8.360
 1839POPC   C3B27597  18.108  13.897   7.963
 1839POPC   C4B27598  17.840  13.832   7.607
 1840POPC   NC327599  20.333   4.551   9.295
 1840POPC   PO427600  20.661   5.101   9.602
 1840POPC   GL127601  20.747   4.972   9.165
 1840POPC   GL227602  20.837   4.640   9.202
 1840POPC   C1A27603  20.883   5.148   8.723
 1840POPC   D2A27604  21.091   5.324   8.334
 1840POPC   C3A27605  20.847   5.196   7.945
 1840POPC   C4A27606  20.393   5.127   7.842
 1840POPC   C1B27607  20.828   4.621   8.741
 1840POPC   C2B27608  20.773   4.738   8.288
 1840POPC   C3B27609  20.877   4.665   7.846
 1840POPC   C4B27610  20.719   4.913   7.517
 1841POPC   NC327611  31.947  17.194   9.336
 1841POPC   PO427612  31.512  17.622   9.644
 1841POPC   GL127613  31.274  17.597   9.250
 1841POPC   GL227614  31.310  17.294   9.089
 1841POPC   C1A27615  31.141  17.665   8.793
 1841POPC   D2A27616  31.408  17.639   8.414
 1841POPC   C3A27617  31.291  17.558   7.986
 1841POPC   C4A27618  31.230  17.670   7.535
 1841POPC   C1B27619  31.647  17.457   8.827
 1841POPC   C2B27620  31.869  17.335   8.446
 1841POPC   C3B27621  31.816  17.568   8.069
 1841POPC   C4B27622  31.739  17.497   7.629
 1842POPC   NC327623  31.483  28.199   9.546
 1842POPC   PO427624  32.141  28.249   9.357
 1842POPC   GL127625  31.749  28.376   9.083
 1842POPC   GL227626  31.351  28.399   9.089
 1842POPC   C1A27627  31.706  28.407   8.622
 1842POPC   D2A27628  31.591  28.131   8.285
 1842POPC   C3A27629  31.755  28.195   7.845
 1842POPC   C4A27630  31.645  28.316   7.439
 1842POPC   C1B27631  31.359  28.723   8.770
 1842POPC   C2B27632  31.332  28.600   8.298
 1842POPC   C3B27633  31.357  28.555   7.822
 1842POPC   C4B27634  31.226  28.571   7.335
 1843POPC   NC327635  36.429  27.854   9.786
 1843POPC   PO427636  36.022  27.495   9.499
 1843POPC   GL127637  36.144  27.615   9.131
 1843POPC   GL227638  36.129  27.323   8.986
 1843POPC   C1A27639  36.212  27.764   8.704
 1843POPC   D2A27640  36.320  27.600   8.309
 1843POPC   C3A27641  36.040  27.359   8.092
 1843POPC   C4A27642  36.177  27.563   7.768
 1843POPC   C1B27643  35.950  27.336   8.608
 1843POPC   C2B27644  35.758  27.677   8.383
 1843POPC   C3B27645  35.729  27.765   7.940
 1843POPC   C4B27646  35.719  27.562   7.560
 1844POPC   NC327647  35.784  28.703   9.333
 1844POPC   PO427648  36.415  28.943   9.486
 1844POPC   GL127649  36.247  29.078   9.155
 1844POPC   GL227650  35.918  29.177   9.211
 1844POPC   C1A27651  36.440  29.012   8.765
 1844POPC   D2A27652  36.280  28.876   8.382
 1844POPC   C3A27653  36.477  28.874   7.988
 1844POPC   C4A27654  36.202  28.963   7.667
 1844POPC   C1B27655  35.916  29.020   8.786
 1844POPC   C2B27656  35.906  29.243   8.462
 1844POPC   C3B27657  36.000  29.192   8.061
 1844POPC   C4B27658  35.749  29.213   7.704
 1845POPC   NC327659  22.797  34.493   9.692
 1845POPC   PO427660  22.780  33.860   9.556
 1845POPC   GL127661  22.657  34.272   9.251
 1845POPC   GL227662  22.896  34.589   9.210
 1845POPC   C1A27663  22.592  34.455   8.814
 1845POPC   D2A27664  22.774  34.287   8.444
 1845POPC   C3A27665  22.709  34.457   8.039
 1845POPC   C4A27666  22.507  34.704   7.747
 1845POPC   C1B27667  22.902  34.855   8.835
 1845POPC   C2B27668  22.714  34.818   8.417
 1845POPC   C3B27669  22.847  34.967   8.010
 1845POPC   C4B27670  23.054  34.715   7.719
 1846POPC   NC327671  42.067  11.725   9.629
 1846POPC   PO427672  41.540  12.115   9.652
 1846POPC   GL127673  41.492  11.992   9.233
 1846POPC   GL227674  41.807  12.067   9.213
 1846POPC   C1A27675  41.329  12.050   8.819
 1846POPC   D2A27676  41.458  12.171   8.405
 1846POPC   C3A27677  41.289  12.015   8.060
 1846POPC   C4A27678  41.469  12.071   7.710
 1846POPC   C1B27679  41.869  12.032   8.780
 1846POPC   C2B27680  41.961  12.330   8.463
 1846POPC   C3B27681  41.838  12.343   8.042
 1846POPC   C4B27682  41.894  12.327   7.632
 1847POPC   NC327683  28.797  43.065   9.694
 1847POPC   PO427684  28.150  43.064   9.690
 1847POPC   GL127685  28.205  43.088   9.236
 1847POPC   GL227686  28.556  43.141   9.212
 1847POPC   C1A27687  28.241  43.074   8.787
 1847POPC   D2A27688  28.469  42.984   8.398
 1847POPC   C3A27689  28.317  43.138   7.972
 1847POPC   C4A27690  28.153  43.122   7.528
 1847POPC   C1B27691  28.716  43.269   8.814
 1847POPC   C2B27692  28.671  43.452   8.394
 1847POPC   C3B27693  28.783  43.354   8.007
 1847POPC   C4B27694  28.599  43.424   7.635
 1848POPC   NC327695   1.681  27.253   9.518
 1848POPC   PO427696   2.365  27.235   9.622
 1848POPC   GL127697   2.121  27.384   9.246
 1848POPC   GL227698   2.037  27.071   9.187
 1848POPC   C1A27699   2.011  27.686   8.863
 1848POPC   D2A27700   1.872  27.882   8.452
 1848POPC   C3A27701   2.189  27.946   8.138
 1848POPC   C4A27702   2.230  27.740   7.763
 1848POPC   C1B27703   1.986  27.149   8.794
 1848POPC   C2B27704   1.892  27.363   8.460
 1848POPC   C3B27705   1.924  27.493   8.082
 1848POPC   C4B27706   1.963  27.283   7.701
 1849POPC   NC327707  18.923   0.053   9.544
 1849POPC   PO427708  19.151  44.394   9.492
 1849POPC   GL127709  19.215  44.697   9.151
 1849POPC   GL227710  19.064   0.007   9.049
 1849POPC   C1A27711  19.309  44.626   8.746
 1849POPC   D2A27712  19.062  44.498   8.421
 1849POPC   C3A27713  19.198  44.715   8.136
 1849POPC   C4A27714  19.131  44.818   7.728
 1849POPC   C1B27715  18.790  44.720   8.803
 1849POPC   C2B27716  18.610  44.833   8.409
 1849POPC   C3B27717  18.699  44.711   8.009
 1849POPC   C4B27718  18.620  44.949   7.679
 1850POPC   NC327719  14.223  35.081   9.463
 1850POPC   PO427720  14.793  35.512   9.422
 1850POPC   GL127721  14.592  35.393   9.074
 1850POPC   GL227722  14.548  35.072   9.085
 1850POPC   C1A27723  14.393  35.504   8.680
 1850POPC   D2A27724  14.238  35.479   8.256
 1850POPC   C3A27725  14.435  35.532   7.852
 1850POPC   C4A27726  14.132  35.462   7.544
 1850POPC   C1B27727  14.312  34.985   8.779
 1850POPC   C2B27728  14.398  34.861   8.382
 1850POPC   C3B27729  14.424  35.043   8.001
 1850POPC   C4B27730  14.473  34.962   7.582
 1851POPC   NC327731   0.700  26.342   9.915
 1851POPC   PO427732   0.486  25.846   9.596
 1851POPC   GL127733   0.471  25.775   9.162
 1851POPC   GL227734   0.700  25.570   9.064
 1851POPC   C1A27735   0.537  25.894   8.705
 1851POPC   D2A27736   0.374  25.861   8.274
 1851POPC   C3A27737   0.469  26.218   7.997
 1851POPC   C4A27738   0.507  26.397   7.576
 1851POPC   C1B27739   0.984  25.659   8.689
 1851POPC   C2B27740   0.910  25.912   8.302
 1851POPC   C3B27741   0.736  25.792   7.913
 1851POPC   C4B27742   0.518  25.871   7.561
 1852POPC   NC327743  23.246  26.496   9.617
 1852POPC   PO427744  22.710  26.938   9.785
 1852POPC   GL127745  22.697  26.825   9.313
 1852POPC   GL227746  22.580  26.545   9.093
 1852POPC   C1A27747  22.935  26.899   8.916
 1852POPC   D2A27748  22.799  27.098   8.519
 1852POPC   C3A27749  22.903  27.098   8.069
 1852POPC   C4A27750  23.009  26.950   7.649
 1852POPC   C1B27751  22.626  26.585   8.670
 1852POPC   C2B27752  22.869  26.607   8.295
 1852POPC   C3B27753  22.691  26.648   7.891
 1852POPC   C4B27754  22.568  26.707   7.447
 1853POPC   NC327755  21.743  34.505   9.369
 1853POPC   PO427756  22.329  34.494   9.659
 1853POPC   GL127757  22.229  34.710   9.286
 1853POPC   GL227758  22.183  34.444   9.107
 1853POPC   C1A27759  22.059  34.878   8.860
 1853POPC   D2A27760  22.204  34.859   8.431
 1853POPC   C3A27761  22.022  34.601   8.148
 1853POPC   C4A27762  22.015  34.656   7.732
 1853POPC   C1B27763  22.108  34.400   8.668
 1853POPC   C2B27764  22.278  34.204   8.321
 1853POPC   C3B27765  22.280  34.228   7.855
 1853POPC   C4B27766  22.621  34.203   7.590
 1854POPC   NC327767   6.480  43.501   9.425
 1854POPC   PO427768   6.910  44.085   9.522
 1854POPC   GL127769   6.599  43.944   9.124
 1854POPC   GL227770   6.364  44.207   9.000
 1854POPC   C1A27771   6.587  43.841   8.702
 1854POPC   D2A27772   6.846  43.942   8.362
 1854POPC   C3A27773   6.667  43.898   7.993
 1854POPC   C4A27774   6.772  43.582   7.697
 1854POPC   C1B27775   6.111  44.006   8.667
 1854POPC   C2B27776   6.125  44.019   8.209
 1854POPC   C3B27777   6.120  44.246   7.837
 1854POPC   C4B27778   6.483  44.184   7.596
 1855POPC   NC327779  35.527  40.343   9.401
 1855POPC   PO427780  35.455  41.036   9.594
 1855POPC   GL127781  35.442  40.915   9.175
 1855POPC   GL227782  35.102  41.035   9.194
 1855POPC   C1A27783  35.463  40.746   8.755
 1855POPC   D2A27784  35.205  40.876   8.413
 1855POPC   C3A27785  35.415  40.792   8.031
 1855POPC   C4A27786  35.610  40.495   7.780
 1855POPC   C1B27787  34.981  40.719   8.901
 1855POPC   C2B27788  34.961  40.434   8.576
 1855POPC   C3B27789  34.958  40.514   8.131
 1855POPC   C4B27790  34.974  40.755   7.756
 1856POPC   NC327791   4.685  39.698   9.485
 1856POPC   PO427792   4.329  40.313   9.496
 1856POPC   GL127793   4.218  40.167   9.125
 1856POPC   GL227794   4.350  39.824   9.117
 1856POPC   C1A27795   4.040  40.047   8.770
 1856POPC   D2A27796   4.224  39.825   8.436
 1856POPC   C3A27797   4.313  40.105   8.061
 1856POPC   C4A27798   4.054  40.278   7.741
 1856POPC   C1B27799   4.582  39.586   8.785
 1856POPC   C2B27800   4.499  39.382   8.378
 1856POPC   C3B27801   4.339  39.569   8.007
 1856POPC   C4B27802   4.437  39.799   7.651
 1857POPC   NC327803  10.420  16.133   9.421
 1857POPC   PO427804  10.310  15.544   9.309
 1857POPC   GL127805  10.543  15.795   9.027
 1857POPC   GL227806  10.683  16.173   8.999
 1857POPC   C1A27807  10.623  15.654   8.623
 1857POPC   D2A27808  10.872  15.753   8.252
 1857POPC   C3A27809  10.740  15.984   7.891
 1857POPC   C4A27810  10.710  15.717   7.548
 1857POPC   C1B27811  10.333  16.129   8.717
 1857POPC   C2B27812  10.421  16.010   8.316
 1857POPC   C3B27813  10.236  16.122   7.993
 1857POPC   C4B27814   9.950  16.179   7.733
 1858POPC   NC327815  25.129   8.583   9.342
 1858POPC   PO427816  25.290   9.174   9.590
 1858POPC   GL127817  25.440   8.968   9.205
 1858POPC   GL227818  25.096   8.975   9.024
 1858POPC   C1A27819  25.498   8.952   8.744
 1858POPC   D2A27820  25.175   9.010   8.402
 1858POPC   C3A27821  25.349   9.144   8.032
 1858POPC   C4A27822  25.575   8.865   7.792
 1858POPC   C1B27823  25.114   8.596   8.721
 1858POPC   C2B27824  24.961   8.541   8.336
 1858POPC   C3B27825  25.125   8.663   7.971
 1858POPC   C4B27826  24.950   9.014   7.753
 1859POPC   NC327827  22.312   8.428   9.556
 1859POPC   PO427828  22.430   7.773   9.553
 1859POPC   GL127829  22.248   8.031   9.178
 1859POPC   GL227830  22.101   8.397   9.113
 1859POPC   C1A27831  21.982   8.030   8.797
 1859POPC   D2A27832  21.944   8.203   8.384
 1859POPC   C3A27833  22.374   8.240   8.196
 1859POPC   C4A27834  22.525   7.995   7.871
 1859POPC   C1B27835  22.087   8.581   8.715
 1859POPC   C2B27836  22.137   8.690   8.288
 1859POPC   C3B27837  21.992   8.478   7.907
 1859POPC   C4B27838  21.811   8.510   7.495
 1860POPC   NC327839  20.767  38.053   9.534
 1860POPC   PO427840  20.863  37.386   9.724
 1860POPC   GL127841  20.726  37.508   9.301
 1860POPC   GL227842  20.502  37.783   9.218
 1860POPC   C1A27843  20.792  37.600   8.847
 1860POPC   D2A27844  20.568  37.562   8.466
 1860POPC   C3A27845  20.678  37.590   8.042
 1860POPC   C4A27846  20.737  37.532   7.615
 1860POPC   C1B27847  20.300  37.845   8.857
 1860POPC   C2B27848  20.243  37.935   8.432
 1860POPC   C3B27849  20.240  37.840   8.026
 1860POPC   C4B27850  20.453  37.974   7.634
 1861POPC   NC327851  35.703  29.878   9.495
 1861POPC   PO427852  36.422  29.886   9.520
 1861POPC   GL127853  36.136  29.984   9.182
 1861POPC   GL227854  36.088  29.647   9.195
 1861POPC   C1A27855  35.860  29.894   8.820
 1861POPC   D2A27856  35.973  29.747   8.409
 1861POPC   C3A27857  36.010  30.060   8.080
 1861POPC   C4A27858  35.687  30.300   7.883
 1861POPC   C1B27859  36.201  29.462   8.811
 1861POPC   C2B27860  36.363  29.417   8.356
 1861POPC   C3B27861  36.242  29.621   7.971
 1861POPC   C4B27862  36.117  29.541   7.579
 1862POPC   NC327863  30.640  31.445   9.531
 1862POPC   PO427864  31.210  31.414   9.163
 1862POPC   GL127865  30.981  31.305   8.849
 1862POPC   GL227866  30.691  31.426   8.989
 1862POPC   C1A27867  31.002  31.563   8.510
 1862POPC   D2A27868  30.833  31.682   8.173
 1862POPC   C3A27869  30.675  31.282   8.062
 1862POPC   C4A27870  30.630  31.069   7.687
 1862POPC   C1B27871  30.517  31.387   8.554
 1862POPC   C2B27872  30.319  31.618   8.176
 1862POPC   C3B27873  30.354  31.507   7.715
 1862POPC   C4B27874  30.339  31.248   7.308
 1863POPC   NC327875  20.323   0.909   9.432
 1863POPC   PO427876  20.306   1.636   9.408
 1863POPC   GL127877  20.592   1.497   9.078
 1863POPC   GL227878  20.579   1.149   9.069
 1863POPC   C1A27879  20.707   1.373   8.640
 1863POPC   D2A27880  20.379   1.308   8.319
 1863POPC   C3A27881  20.345   1.436   7.895
 1863POPC   C4A27882  20.760   1.356   7.725
 1863POPC   C1B27883  20.305   1.023   8.730
 1863POPC   C2B27884  20.047   0.857   8.424
 1863POPC   C3B27885  20.214   0.897   8.033
 1863POPC   C4B27886  20.397   0.988   7.644
 1864POPC   NC327887  41.265  43.033   9.497
 1864POPC   PO427888  41.882  43.315   9.533
 1864POPC   GL127889  41.700  42.919   9.255
 1864POPC   GL227890  41.384  42.902   9.032
 1864POPC   C1A27891  41.815  42.859   8.812
 1864POPC   D2A27892  41.520  43.050   8.508
 1864POPC   C3A27893  41.664  43.174   8.110
 1864POPC   C4A27894  41.547  42.964   7.756
 1864POPC   C1B27895  41.183  43.264   8.863
 1864POPC   C2B27896  41.167  43.561   8.550
 1864POPC   C3B27897  41.312  43.570   8.115
 1864POPC   C4B27898  41.452  43.473   7.708
 1865POPC   NC327899  40.198   1.021   9.497
 1865POPC   PO427900  39.741   1.512   9.561
 1865POPC   GL127901  39.945   1.366   9.181
 1865POPC   GL227902  39.750   1.052   9.130
 1865POPC   C1A27903  40.195   1.359   8.771
 1865POPC   D2A27904  40.373   1.597   8.377
 1865POPC   C3A27905  40.045   1.660   8.067
 1865POPC   C4A27906  39.825   1.374   7.760
 1865POPC   C1B27907  39.797   1.003   8.683
 1865POPC   C2B27908  39.907   1.253   8.328
 1865POPC   C3B27909  40.236   1.199   8.008
 1865POPC   C4B27910  40.404   0.833   7.885
 1866POPC   NC327911  24.165  18.083   9.447
 1866POPC   PO427912  24.866  17.983   9.411
 1866POPC   GL127913  24.618  18.128   9.078
 1866POPC   GL227914  24.514  18.498   9.030
 1866POPC   C1A27915  24.611  18.177   8.638
 1866POPC   D2A27916  24.410  18.176   8.250
 1866POPC   C3A27917  24.622  18.076   7.873
 1866POPC   C4A27918  24.502  18.194   7.463
 1866POPC   C1B27919  24.775  18.678   8.688
 1866POPC   C2B27920  24.811  18.534   8.269
 1866POPC   C3B27921  24.506  18.601   7.935
 1866POPC   C4B27922  24.573  18.689   7.523
 1867POPC   NC327923  44.530  42.690   9.280
 1867POPC   PO427924  44.471  43.312   9.534
 1867POPC   GL127925  44.635  43.181   9.146
 1867POPC   GL227926  44.945  42.950   9.116
 1867POPC   C1A27927  44.525  43.052   8.743
 1867POPC   D2A27928  44.754  43.052   8.396
 1867POPC   C3A27929  44.492  43.021   8.104
 1867POPC   C4A27930  44.412  42.958   7.735
 1867POPC   C1B27931  44.996  43.283   8.794
 1867POPC   C2B27932  44.977  43.518   8.394
 1867POPC   C3B27933   0.011  43.403   8.000
 1867POPC   C4B27934  44.905  43.032   7.809
 1868POPC   NC327935   2.354  14.536   9.573
 1868POPC   PO427936   1.891  14.107   9.547
 1868POPC   GL127937   1.906  14.335   9.196
 1868POPC   GL227938   1.950  14.690   9.231
 1868POPC   C1A27939   1.759  14.413   8.793
 1868POPC   D2A27940   1.951  14.514   8.424
 1868POPC   C3A27941   1.668  14.396   8.162
 1868POPC   C4A27942   1.693  14.368   7.738
 1868POPC   C1B27943   2.229  14.597   8.873
 1868POPC   C2B27944   2.449  14.415   8.522
 1868POPC   C3B27945   2.425  14.569   8.113
 1868POPC   C4B27946   2.368  14.398   7.710
 1869POPC   NC327947   7.837  32.665   9.496
 1869POPC   PO427948   8.442  33.067   9.414
 1869POPC   GL127949   8.344  32.792   9.094
 1869POPC   GL227950   8.030  32.885   9.094
 1869POPC   C1A27951   8.164  32.670   8.672
 1869POPC   D2A27952   8.097  32.572   8.263
 1869POPC   C3A27953   8.441  32.715   8.012
 1869POPC   C4A27954   8.595  33.086   7.804
 1869POPC   C1B27955   7.969  33.139   8.758
 1869POPC   C2B27956   8.128  33.123   8.376
 1869POPC   C3B27957   8.083  33.062   7.996
 1869POPC   C4B27958   8.032  33.257   7.628
 1870POPC   NC327959  40.015   6.029   9.407
 1870POPC   PO427960  40.052   5.393   9.448
 1870POPC   GL127961  40.281   5.550   9.127
 1870POPC   GL227962  40.022   5.762   8.985
 1870POPC   C1A27963  40.404   5.611   8.715
 1870POPC   D2A27964  40.076   5.778   8.460
 1870POPC   C3A27965  40.149   5.633   8.068
 1870POPC   C4A27966  40.004   5.754   7.671
 1870POPC   C1B27967  39.872   6.160   8.798
 1870POPC   C2B27968  39.761   6.210   8.421
 1870POPC   C3B27969  39.869   6.069   8.046
 1870POPC   C4B27970  39.789   6.232   7.634
 1871POPC   NC327971   8.948  15.138   9.673
 1871POPC   PO427972   8.474  15.101   9.194
 1871POPC   GL127973   8.906  15.143   9.115
 1871POPC   GL227974   9.084  15.424   9.251
 1871POPC   C1A27975   8.984  15.001   8.690
 1871POPC   D2A27976   9.003  14.865   8.268
 1871POPC   C3A27977   8.990  15.096   7.928
 1871POPC   C4A27978   8.959  14.971   7.503
 1871POPC   C1B27979   9.241  15.426   8.833
 1871POPC   C2B27980   9.183  15.389   8.390
 1871POPC   C3B27981   9.343  15.470   7.991
 1871POPC   C4B27982   9.133  15.493   7.563
 1872POPC   NC327983   8.686  14.739   9.362
 1872POPC   PO427984   8.093  14.426   9.489
 1872POPC   GL127985   8.122  14.452   9.107
 1872POPC   GL227986   7.795  14.563   9.075
 1872POPC   C1A27987   8.016  14.244   8.750
 1872POPC   D2A27988   7.750  14.217   8.428
 1872POPC   C3A27989   7.980  14.311   8.091
 1872POPC   C4A27990   8.238  14.225   7.772
 1872POPC   C1B27991   8.034  14.784   8.717
 1872POPC   C2B27992   8.173  14.752   8.294
 1872POPC   C3B27993   8.008  14.764   7.869
 1872POPC   C4B27994   8.045  14.739   7.421
 1873POPC   NC327995  36.718  33.559   9.541
 1873POPC   PO427996  37.363  33.903   9.528
 1873POPC   GL127997  37.056  33.708   9.199
 1873POPC   GL227998  36.732  33.910   9.149
 1873POPC   C1A27999  36.882  33.512   8.807
 1873POPC   D2A28000  37.076  33.419   8.384
 1873POPC   C3A28001  36.995  33.623   7.978
 1873POPC   C4A28002  36.784  33.755   7.615
 1873POPC   C1B28003  36.548  33.901   8.729
 1873POPC   C2B28004  36.687  33.907   8.283
 1873POPC   C3B28005  36.900  34.147   7.902
 1873POPC   C4B28006  36.960  34.225   7.438
 1874POPC   NC328007  28.078  27.246   9.509
 1874POPC   PO428008  28.714  27.007   9.469
 1874POPC   GL128009  28.371  26.843   9.147
 1874POPC   GL228010  28.175  26.524   9.121
 1874POPC   C1A28011  28.391  26.872   8.714
 1874POPC   D2A28012  28.679  26.815   8.383
 1874POPC   C3A28013  28.487  26.925   7.995
 1874POPC   C4A28014  28.556  26.871   7.558
 1874POPC   C1B28015  28.048  26.450   8.709
 1874POPC   C2B28016  28.205  26.595   8.316
 1874POPC   C3B28017  28.267  26.482   7.907
 1874POPC   C4B28018  28.048  26.275   7.591
 1875POPC   NC328019   2.849  22.773   9.481
 1875POPC   PO428020   2.656  23.374   9.429
 1875POPC   GL128021   2.773  23.101   9.102
 1875POPC   GL228022   3.114  23.187   9.099
 1875POPC   C1A28023   2.687  22.891   8.713
 1875POPC   D2A28024   2.477  23.178   8.391
 1875POPC   C3A28025   2.644  23.230   7.979
 1875POPC   C4A28026   2.641  22.821   7.763
 1875POPC   C1B28027   2.985  23.272   8.658
 1875POPC   C2B28028   2.958  23.005   8.282
 1875POPC   C3B28029   3.095  22.971   7.873
 1875POPC   C4B28030   3.125  22.782   7.476
 1876POPC   NC328031  31.801   3.203   9.388
 1876POPC   PO428032  31.399   2.754   9.796
 1876POPC   GL128033  31.486   2.785   9.293
 1876POPC   GL228034  31.474   3.061   9.045
 1876POPC   C1A28035  31.644   2.616   8.854
 1876POPC   D2A28036  31.666   2.746   8.388
 1876POPC   C3A28037  31.559   2.542   7.941
 1876POPC   C4A28038  31.608   2.454   7.465
 1876POPC   C1B28039  31.807   3.132   8.726
 1876POPC   C2B28040  31.740   3.255   8.304
 1876POPC   C3B28041  31.491   3.158   7.961
 1876POPC   C4B28042  31.604   2.950   7.599
 1877POPC   NC328043   1.583  34.406   9.404
 1877POPC   PO428044   1.046  34.726   9.630
 1877POPC   GL128045   1.254  34.726   9.194
 1877POPC   GL228046   1.252  34.360   9.032
 1877POPC   C1A28047   1.200  34.769   8.746
 1877POPC   D2A28048   1.135  34.519   8.344
 1877POPC   C3A28049   1.025  34.782   7.997
 1877POPC   C4A28050   1.097  35.014   7.645
 1877POPC   C1B28051   1.458  34.027   8.791
 1877POPC   C2B28052   1.452  33.882   8.390
 1877POPC   C3B28053   1.429  34.004   7.959
 1877POPC   C4B28054   1.038  34.232   7.867
 1878POPC   NC328055  27.789  35.012   9.450
 1878POPC   PO428056  27.226  35.326   9.760
 1878POPC   GL128057  27.368  35.353   9.293
 1878POPC   GL228058  27.701  35.444   9.179
 1878POPC   C1A28059  27.338  35.411   8.809
 1878POPC   D2A28060  27.324  35.612   8.385
 1878POPC   C3A28061  27.524  35.487   7.991
 1878POPC   C4A28062  27.565  35.304   7.574
 1878POPC   C1B28063  27.859  35.381   8.770
 1878POPC   C2B28064  27.960  35.293   8.360
 1878POPC   C3B28065  27.867  35.099   8.000
 1878POPC   C4B28066  28.031  35.058   7.642
 1879POPC   NC328067  13.603  38.965   9.423
 1879POPC   PO428068  13.778  38.332   9.321
 1879POPC   GL128069  13.589  38.277   8.932
 1879POPC   GL228070  13.684  38.612   8.873
 1879POPC   C1A28071  13.593  38.242   8.493
 1879POPC   D2A28072  13.713  38.623   8.276
 1879POPC   C3A28073  13.787  38.551   7.851
 1879POPC   C4A28074  13.632  38.155   7.713
 1879POPC   C1B28075  13.286  38.640   8.632
 1879POPC   C2B28076  13.064  38.610   8.256
 1879POPC   C3B28077  13.276  38.632   7.889
 1879POPC   C4B28078  13.255  38.931   7.591
 1880POPC   NC328079  26.968  38.195   9.552
 1880POPC   PO428080  26.933  38.792   9.772
 1880POPC   GL128081  26.709  38.586   9.334
 1880POPC   GL228082  26.665  38.778   9.003
 1880POPC   C1A28083  26.646  38.259   8.950
 1880POPC   D2A28084  26.463  38.270   8.500
 1880POPC   C3A28085  26.624  38.165   8.115
 1880POPC   C4A28086  26.754  38.369   7.764
 1880POPC   C1B28087  26.895  38.621   8.671
 1880POPC   C2B28088  26.883  38.612   8.230
 1880POPC   C3B28089  27.104  38.726   7.868
 1880POPC   C4B28090  27.016  38.651   7.416
 1881POPC   NC328091  12.834  15.325   9.615
 1881POPC   PO428092  13.336  14.880   9.491
 1881POPC   GL128093  13.080  15.130   9.198
 1881POPC   GL228094  13.085  15.491   9.208
 1881POPC   C1A28095  12.820  15.207   8.822
 1881POPC   D2A28096  12.642  15.065   8.418
 1881POPC   C3A28097  12.707  15.277   8.035
 1881POPC   C4A28098  12.601  15.123   7.649
 1881POPC   C1B28099  13.292  15.400   8.802
 1881POPC   C2B28100  13.142  15.252   8.395
 1881POPC   C3B28101  13.147  15.527   8.045
 1881POPC   C4B28102  13.084  15.358   7.641
 1882POPC   NC328103   8.033  39.335   9.946
 1882POPC   PO428104   8.295  38.908   9.516
 1882POPC   GL128105   8.122  39.182   9.189
 1882POPC   GL228106   7.840  39.091   9.079
 1882POPC   C1A28107   8.089  39.402   8.784
 1882POPC   D2A28108   8.164  39.276   8.372
 1882POPC   C3A28109   8.357  39.549   8.062
 1882POPC   C4A28110   8.150  39.430   7.682
 1882POPC   C1B28111   7.899  38.941   8.694
 1882POPC   C2B28112   7.693  38.785   8.373
 1882POPC   C3B28113   7.841  38.988   7.996
 1882POPC   C4B28114   8.085  38.893   7.627
 1883POPC   NC328115   9.426  12.227   9.837
 1883POPC   PO428116   9.420  11.790   9.238
 1883POPC   GL128117   9.594  12.077   9.000
 1883POPC   GL228118   9.902  12.180   9.055
 1883POPC   C1A28119   9.397  12.163   8.640
 1883POPC   D2A28120   9.416  11.897   8.291
 1883POPC   C3A28121   9.500  12.122   7.925
 1883POPC   C4A28122   9.666  11.983   7.545
 1883POPC   C1B28123   9.920  12.072   8.625
 1883POPC   C2B28124   9.829  12.237   8.273
 1883POPC   C3B28125  10.025  12.073   7.895
 1883POPC   C4B28126  10.160  11.896   7.445
 1884POPC   NC328127  42.692  44.425   9.422
 1884POPC   PO428128  43.265  44.852   9.481
 1884POPC   GL128129  43.160  44.599   9.157
 1884POPC   GL228130  42.855  44.767   9.087
 1884POPC   C1A28131  43.254  44.648   8.734
 1884POPC   D2A28132  43.335  44.900   8.391
 1884POPC   C3A28133  43.372  44.630   8.064
 1884POPC   C4A28134  43.173  44.713   7.729
 1884POPC   C1B28135  42.765  44.462   8.761
 1884POPC   C2B28136  42.926  44.398   8.368
 1884POPC   C3B28137  42.827  44.452   7.976
 1884POPC   C4B28138  42.647  44.241   7.654
 1885POPC   NC328139   4.162  31.347   9.568
 1885POPC   PO428140   4.606  30.872   9.391
 1885POPC   GL128141   4.373  31.162   9.129
 1885POPC   GL228142   4.220  31.530   9.105
 1885POPC   C1A28143   4.165  31.100   8.783
 1885POPC   D2A28144   3.984  31.032   8.411
 1885POPC   C3A28145   4.135  31.336   8.162
 1885POPC   C4A28146   4.376  31.273   7.831
 1885POPC   C1B28147   4.395  31.589   8.700
 1885POPC   C2B28148   4.655  31.497   8.343
 1885POPC   C3B28149   4.587  31.706   7.989
 1885POPC   C4B28150   4.149  31.771   7.843
 1886POPC   NC328151  11.109  35.492   9.400
 1886POPC   PO428152  11.668  35.077   9.477
 1886POPC   GL128153  11.434  35.208   9.115
 1886POPC   GL228154  11.492  35.576   9.035
 1886POPC   C1A28155  11.256  35.203   8.708
 1886POPC   D2A28156  11.251  34.892   8.404
 1886POPC   C3A28157  11.101  34.967   8.029
 1886POPC   C4A28158  10.940  35.160   7.693
 1886POPC   C1B28159  11.447  35.662   8.592
 1886POPC   C2B28160  11.476  35.318   8.248
 1886POPC   C3B28161  11.389  35.344   7.832
 1886POPC   C4B28162  11.090  35.662   7.717
 1887POPC   NC328163  36.685  43.832   9.355
 1887POPC   PO428164  37.075  44.319   9.515
 1887POPC   GL128165  37.106  44.026   9.095
 1887POPC   GL228166  36.883  43.761   8.915
 1887POPC   C1A28167  37.271  43.969   8.679
 1887POPC   D2A28168  36.959  43.739   8.389
 1887POPC   C3A28169  37.109  43.813   7.952
 1887POPC   C4A28170  37.146  43.941   7.512
 1887POPC   C1B28171  36.511  43.866   8.689
 1887POPC   C2B28172  36.533  44.079   8.321
 1887POPC   C3B28173  36.596  43.824   8.019
 1887POPC   C4B28174  36.682  43.762   7.604
 1888POPC   NC328175   5.509   1.321   9.416
 1888POPC   PO428176   5.894   0.793   9.426
 1888POPC   GL128177   5.996   0.892   9.037
 1888POPC   GL228178   5.877   1.261   9.007
 1888POPC   C1A28179   6.118   0.991   8.652
 1888POPC   D2A28180   5.924   1.276   8.403
 1888POPC   C3A28181   5.931   1.005   8.057
 1888POPC   C4A28182   5.906   0.791   7.681
 1888POPC   C1B28183   5.487   1.385   8.761
 1888POPC   C2B28184   5.345   1.534   8.364
 1888POPC   C3B28185   5.623   1.478   8.041
 1888POPC   C4B28186   5.939   1.443   7.794
 1889POPC   NC328187  22.342  26.428   9.532
 1889POPC   PO428188  22.278  25.718   9.502
 1889POPC   GL128189  22.195  26.039   9.210
 1889POPC   GL228190  22.554  26.033   9.173
 1889POPC   C1A28191  21.935  26.082   8.831
 1889POPC   D2A28192  22.069  25.897   8.455
 1889POPC   C3A28193  22.030  26.080   8.067
 1889POPC   C4A28194  22.161  25.935   7.659
 1889POPC   C1B28195  22.451  26.107   8.752
 1889POPC   C2B28196  22.481  26.235   8.330
 1889POPC   C3B28197  22.538  26.047   7.979
 1889POPC   C4B28198  22.634  26.197   7.603
 1890POPC   NC328199  32.195  44.928   9.565
 1890POPC   PO428200  32.748  44.770   9.599
 1890POPC   GL128201  32.436  44.675   9.207
 1890POPC   GL228202  32.333  44.987   9.061
 1890POPC   C1A28203  32.393  44.464   8.788
 1890POPC   D2A28204  32.586  44.470   8.334
 1890POPC   C3A28205  32.447  44.278   7.918
 1890POPC   C4A28206  32.524  44.363   7.417
 1890POPC   C1B28207  32.015  44.804   8.787
 1890POPC   C2B28208  31.992  44.487   8.451
 1890POPC   C3B28209  32.118  44.635   8.054
 1890POPC   C4B28210  32.133  44.992   7.780
 1891POPC   NC328211  14.460  31.221   9.661
 1891POPC   PO428212  14.004  31.497   9.390
 1891POPC   GL128213  14.424  31.620   9.249
 1891POPC   GL228214  14.713  31.588   9.426
 1891POPC   C1A28215  14.481  31.794   8.852
 1891POPC   D2A28216  14.183  31.772   8.480
 1891POPC   C3A28217  14.258  31.514   8.121
 1891POPC   C4A28218  14.452  31.650   7.740
 1891POPC   C1B28219  14.775  31.377   8.983
 1891POPC   C2B28220  14.636  31.424   8.516
 1891POPC   C3B28221  14.740  31.342   8.064
 1891POPC   C4B28222  14.478  31.143   7.743
 1892POPC   NC328223   6.086  17.630   9.451
 1892POPC   PO428224   5.462  17.465   9.509
 1892POPC   GL128225   5.762  17.333   9.131
 1892POPC   GL228226   6.104  17.433   8.990
 1892POPC   C1A28227   5.766  17.193   8.693
 1892POPC   D2A28228   5.802  17.374   8.293
 1892POPC   C3A28229   5.861  17.114   7.988
 1892POPC   C4A28230   6.036  17.249   7.621
 1892POPC   C1B28231   5.988  17.699   8.655
 1892POPC   C2B28232   6.094  17.847   8.236
 1892POPC   C3B28233   5.881  17.734   7.880
 1892POPC   C4B28234   5.540  17.911   7.638
 1893POPC   NC328235   2.915   9.058   9.508
 1893POPC   PO428236   2.249   9.177   9.369
 1893POPC   GL128237   2.354   8.886   9.093
 1893POPC   GL228238   2.700   8.858   9.098
 1893POPC   C1A28239   2.458   9.069   8.708
 1893POPC   D2A28240   2.688   9.060   8.328
 1893POPC   C3A28241   2.583   8.877   7.941
 1893POPC   C4A28242   2.820   8.612   7.673
 1893POPC   C1B28243   2.890   8.736   8.700
 1893POPC   C2B28244   2.972   8.649   8.244
 1893POPC   C3B28245   3.241   8.779   7.891
 1893POPC   C4B28246   3.495   8.844   7.512
 1894POPC   NC328247  44.461  16.568   9.838
 1894POPC   PO428248  44.901  16.475   9.466
 1894POPC   GL128249   0.068  16.675   9.062
 1894POPC   GL228250   0.138  16.336   8.961
 1894POPC   C1A28251   0.075  16.972   8.660
 1894POPC   D2A28252   0.084  17.195   8.211
 1894POPC   C3A28253  44.721  17.189   7.910
 1894POPC   C4A28254  44.643  17.073   7.463
 1894POPC   C1B28255  44.919  16.488   8.591
 1894POPC   C2B28256  44.760  16.742   8.247
 1894POPC   C3B28257  44.864  16.704   7.827
 1894POPC   C4B28258  44.904  16.407   7.510
 1895POPC   NC328259  25.100  24.074   9.627
 1895POPC   PO428260  25.455  23.518   9.456
 1895POPC   GL128261  25.422  23.855   9.183
 1895POPC   GL228262  25.050  23.906   9.154
 1895POPC   C1A28263  25.462  23.741   8.757
 1895POPC   D2A28264  25.655  23.589   8.387
 1895POPC   C3A28265  25.439  23.787   8.044
 1895POPC   C4A28266  25.556  23.827   7.620
 1895POPC   C1B28267  24.943  23.725   8.757
 1895POPC   C2B28268  24.830  23.818   8.321
 1895POPC   C3B28269  24.960  23.568   7.926
 1895POPC   C4B28270  25.232  23.444   7.580
 1896POPC   NC328271  35.090  26.810   9.578
 1896POPC   PO428272  35.661  26.783   9.351
 1896POPC   GL128273  35.318  26.840   9.106
 1896POPC   GL228274  35.233  27.171   9.186
 1896POPC   C1A28275  35.356  26.891   8.689
 1896POPC   D2A28276  35.581  26.709   8.345
 1896POPC   C3A28277  35.350  26.719   7.960
 1896POPC   C4A28278  35.655  26.774   7.693
 1896POPC   C1B28279  34.960  27.240   8.857
 1896POPC   C2B28280  34.932  27.047   8.457
 1896POPC   C3B28281  35.061  27.151   8.072
 1896POPC   C4B28282  34.794  27.233   7.716
 1897POPC   NC328283  34.518  22.527   9.528
 1897POPC   PO428284  34.740  21.900   9.425
 1897POPC   GL128285  34.527  21.961   9.045
 1897POPC   GL228286  34.391  22.289   9.088
 1897POPC   C1A28287  34.663  22.056   8.640
 1897POPC   D2A28288  34.740  21.957   8.232
 1897POPC   C3A28289  34.604  22.099   7.829
 1897POPC   C4A28290  34.921  22.008   7.485
 1897POPC   C1B28291  34.204  22.242   8.708
 1897POPC   C2B28292  34.344  22.331   8.268
 1897POPC   C3B28293  34.166  22.459   7.866
 1897POPC   C4B28294  34.078  22.443   7.429
 1898POPC   NC328295  12.552  44.385   9.637
 1898POPC   PO428296  11.923  44.512   9.659
 1898POPC   GL128297  12.078  44.518   9.244
 1898POPC   GL228298  12.317  44.345   9.210
 1898POPC   C1A28299  11.937  44.609   8.860
 1898POPC   D2A28300  11.762  44.580   8.474
 1898POPC   C3A28301  11.945  44.732   8.118
 1898POPC   C4A28302  11.754  44.742   7.716
 1898POPC   C1B28303  12.254  44.214   8.814
 1898POPC   C2B28304  12.267  44.469   8.476
 1898POPC   C3B28305  12.315  44.367   8.064
 1898POPC   C4B28306  12.235  44.566   7.719
 1899POPC   NC328307  28.317  13.173   9.540
 1899POPC   PO428308  28.554  12.553   9.634
 1899POPC   GL128309  28.497  12.774   9.273
 1899POPC   GL228310  28.668  13.095   9.180
 1899POPC   C1A28311  28.242  12.888   8.921
 1899POPC   D2A28312  28.281  12.993   8.479
 1899POPC   C3A28313  28.255  12.717   8.118
 1899POPC   C4A28314  28.272  12.998   7.787
 1899POPC   C1B28315  28.739  12.769   8.843
 1899POPC   C2B28316  28.729  12.764   8.415
 1899POPC   C3B28317  28.732  12.868   7.989
 1899POPC   C4B28318  28.730  13.244   7.732
 1900POPC   NC328319   2.521  31.153   9.464
 1900POPC   PO428320   2.462  31.849   9.524
 1900POPC   GL128321   2.650  31.566   9.193
 1900POPC   GL228322   2.999  31.432   9.130
 1900POPC   C1A28323   2.566  31.296   8.801
 1900POPC   D2A28324   2.420  31.142   8.372
 1900POPC   C3A28325   2.694  31.267   8.002
 1900POPC   C4A28326   2.885  31.448   7.616
 1900POPC   C1B28327   3.089  31.159   8.749
 1900POPC   C2B28328   3.057  30.999   8.297
 1900POPC   C3B28329   3.199  31.143   7.889
 1900POPC   C4B28330   3.139  31.050   7.424
 1901POPC   NC328331   6.973  29.630   9.276
 1901POPC   PO428332   6.508  30.212   9.368
 1901POPC   GL128333   6.612  29.974   9.080
 1901POPC   GL228334   6.487  29.651   9.071
 1901POPC   C1A28335   6.747  30.060   8.692
 1901POPC   D2A28336   6.769  29.892   8.301
 1901POPC   C3A28337   6.823  30.198   7.980
 1901POPC   C4A28338   6.886  29.893   7.679
 1901POPC   C1B28339   6.292  29.773   8.703
 1901POPC   C2B28340   6.180  29.839   8.289
 1901POPC   C3B28341   6.416  29.898   7.922
 1901POPC   C4B28342   6.419  29.629   7.567
 1902POPC   NC328343  17.969  12.773   9.506
 1902POPC   PO428344  18.385  13.330   9.589
 1902POPC   GL128345  18.274  13.085   9.192
 1902POPC   GL228346  18.339  12.705   9.163
 1902POPC   C1A28347  18.409  13.005   8.754
 1902POPC   D2A28348  18.452  12.771   8.368
 1902POPC   C3A28349  18.316  13.078   8.051
 1902POPC   C4A28350  18.353  13.130   7.585
 1902POPC   C1B28351  18.071  12.607   8.817
 1902POPC   C2B28352  18.053  12.448   8.433
 1902POPC   C3B28353  18.069  12.633   8.038
 1902POPC   C4B28354  18.466  12.661   7.837
 1903POPC   NC328355  39.979   2.670   9.505
 1903POPC   PO428356  40.362   3.089   9.153
 1903POPC   GL128357  39.976   2.904   9.053
 1903POPC   GL228358  40.105   2.554   9.019
 1903POPC   C1A28359  39.861   2.819   8.645
 1903POPC   D2A28360  40.205   2.623   8.390
 1903POPC   C3A28361  40.241   2.909   8.041
 1903POPC   C4A28362  39.908   3.051   7.753
 1903POPC   C1B28363  39.923   2.318   8.715
 1903POPC   C2B28364  39.700   2.404   8.394
 1903POPC   C3B28365  39.832   2.590   8.032
 1903POPC   C4B28366  39.954   2.564   7.602
 1904POPC   NC328367  30.976  17.185   9.481
 1904POPC   PO428368  30.561  17.654   9.630
 1904POPC   GL128369  30.746  17.570   9.220
 1904POPC   GL228370  30.496  17.701   9.053
 1904POPC   C1A28371  30.799  17.264   8.851
 1904POPC   D2A28372  30.957  17.310   8.443
 1904POPC   C3A28373  30.815  17.635   8.164
 1904POPC   C4A28374  30.838  17.448   7.775
 1904POPC   C1B28375  30.630  17.709   8.654
 1904POPC   C2B28376  30.435  17.390   8.404
 1904POPC   C3B28377  30.325  17.377   7.988
 1904POPC   C4B28378  30.426  17.764   7.787
 1905POPC   NC328379  33.786  14.805   9.542
 1905POPC   PO428380  33.495  15.487   9.498
 1905POPC   GL128381  33.841  15.344   9.185
 1905POPC   GL228382  33.767  15.042   9.109
 1905POPC   C1A28383  34.033  15.245   8.750
 1905POPC   D2A28384  34.062  15.080   8.356
 1905POPC   C3A28385  33.818  15.188   7.982
 1905POPC   C4A28386  33.869  15.093   7.517
 1905POPC   C1B28387  33.505  15.247   8.826
 1905POPC   C2B28388  33.570  15.331   8.439
 1905POPC   C3B28389  33.381  15.473   8.093
 1905POPC   C4B28390  33.424  15.329   7.662
 1906POPC   NC328391   3.592  39.294   9.588
 1906POPC   PO428392   3.806  38.739   9.277
 1906POPC   GL128393   3.518  38.988   9.085
 1906POPC   GL228394   3.502  39.353   9.103
 1906POPC   C1A28395   3.685  39.073   8.698
 1906POPC   D2A28396   3.441  39.142   8.373
 1906POPC   C3A28397   3.317  38.819   8.146
 1906POPC   C4A28398   3.548  38.993   7.802
 1906POPC   C1B28399   3.440  39.515   8.729
 1906POPC   C2B28400   3.272  39.623   8.319
 1906POPC   C3B28401   3.441  39.561   7.921
 1906POPC   C4B28402   3.282  39.576   7.523
 1907POPC   NC328403  36.412  15.794   9.777
 1907POPC   PO428404  35.908  15.975   9.447
 1907POPC   GL128405  36.148  16.074   9.097
 1907POPC   GL228406  36.414  15.824   9.146
 1907POPC   C1A28407  36.035  16.171   8.670
 1907POPC   D2A28408  35.849  16.138   8.283
 1907POPC   C3A28409  35.940  16.002   7.902
 1907POPC   C4A28410  36.024  15.593   7.877
 1907POPC   C1B28411  36.391  15.813   8.687
 1907POPC   C2B28412  36.333  15.911   8.238
 1907POPC   C3B28413  36.436  15.893   7.784
 1907POPC   C4B28414  36.509  15.954   7.345
 1908POPC   NC328415  36.997  20.237   9.668
 1908POPC   PO428416  36.447  20.607   9.482
 1908POPC   GL128417  36.752  20.435   9.255
 1908POPC   GL228418  36.965  20.671   9.290
 1908POPC   C1A28419  36.791  20.287   8.862
 1908POPC   D2A28420  36.618  20.329   8.479
 1908POPC   C3A28421  36.882  20.417   8.143
 1908POPC   C4A28422  36.805  20.430   7.709
 1908POPC   C1B28423  37.017  20.738   8.845
 1908POPC   C2B28424  36.841  20.833   8.458
 1908POPC   C3B28425  37.160  20.857   8.147
 1908POPC   C4B28426  37.137  20.819   7.723
 1909POPC   NC328427  25.584  21.833   9.416
 1909POPC   PO428428  25.400  21.212   9.725
 1909POPC   GL128429  25.208  21.190   9.309
 1909POPC   GL228430  25.379  21.451   9.107
 1909POPC   C1A28431  25.002  21.168   8.910
 1909POPC   D2A28432  25.082  21.081   8.470
 1909POPC   C3A28433  25.049  21.320   8.067
 1909POPC   C4A28434  25.281  21.244   7.698
 1909POPC   C1B28435  25.587  21.376   8.688
 1909POPC   C2B28436  25.532  21.417   8.209
 1909POPC   C3B28437  25.481  21.689   7.812
 1909POPC   C4B28438  25.167  21.717   7.425
 1910POPC   NC328439  18.460  22.647   9.598
 1910POPC   PO428440  18.724  22.075   9.578
 1910POPC   GL128441  18.915  22.215   9.195
 1910POPC   GL228442  18.911  22.560   9.232
 1910POPC   C1A28443  19.102  22.171   8.776
 1910POPC   D2A28444  19.015  21.901   8.418
 1910POPC   C3A28445  19.038  22.042   7.985
 1910POPC   C4A28446  18.782  22.200   7.604
 1910POPC   C1B28447  18.715  22.523   8.813
 1910POPC   C2B28448  18.897  22.432   8.372
 1910POPC   C3B28449  19.016  22.538   7.949
 1910POPC   C4B28450  19.254  22.355   7.569
 1911POPC   NC328451  14.099   9.468   9.402
 1911POPC   PO428452  14.732   9.532   9.562
 1911POPC   GL128453  14.552   9.694   9.156
 1911POPC   GL228454  14.387  10.014   9.205
 1911POPC   C1A28455  14.417   9.752   8.701
 1911POPC   D2A28456  14.231   9.751   8.256
 1911POPC   C3A28457  14.540   9.768   7.915
 1911POPC   C4A28458  14.855   9.464   7.726
 1911POPC   C1B28459  14.564  10.222   8.842
 1911POPC   C2B28460  14.380  10.220   8.432
 1911POPC   C3B28461  14.127  10.226   8.075
 1911POPC   C4B28462  14.243  10.130   7.667
 1912POPC   NC328463  13.935   6.775   9.770
 1912POPC   PO428464  13.376   6.705   9.691
 1912POPC   GL128465  13.577   6.653   9.269
 1912POPC   GL228466  13.414   6.388   9.081
 1912POPC   C1A28467  13.766   6.630   8.813
 1912POPC   D2A28468  13.576   6.399   8.446
 1912POPC   C3A28469  13.650   6.514   8.007
 1912POPC   C4A28470  13.881   6.841   7.784
 1912POPC   C1B28471  13.267   6.715   8.737
 1912POPC   C2B28472  13.214   6.721   8.279
 1912POPC   C3B28473  13.391   6.944   7.952
 1912POPC   C4B28474  13.433   6.841   7.509
 1913POPC   NC328475   5.069  30.958   9.405
 1913POPC   PO428476   4.877  30.290   9.560
 1913POPC   GL128477   4.954  30.507   9.186
 1913POPC   GL228478   5.315  30.526   9.202
 1913POPC   C1A28479   5.043  30.683   8.756
 1913POPC   D2A28480   4.833  30.602   8.361
 1913POPC   C3A28481   5.018  30.688   7.998
 1913POPC   C4A28482   5.356  30.915   7.931
 1913POPC   C1B28483   5.492  30.421   8.791
 1913POPC   C2B28484   5.397  30.548   8.356
 1913POPC   C3B28485   5.418  30.366   7.960
 1913POPC   C4B28486   5.386  30.549   7.557
 1914POPC   NC328487  44.314  21.204   9.897
 1914POPC   PO428488  43.735  20.841   9.658
 1914POPC   GL128489  43.960  20.654   9.282
 1914POPC   GL228490  43.952  20.291   9.218
 1914POPC   C1A28491  44.013  20.610   8.829
 1914POPC   D2A28492  43.809  20.514   8.442
 1914POPC   C3A28493  44.031  20.617   8.062
 1914POPC   C4A28494  43.945  20.825   7.648
 1914POPC   C1B28495  43.977  20.107   8.778
 1914POPC   C2B28496  44.189  20.178   8.369
 1914POPC   C3B28497  44.247  20.181   7.908
 1914POPC   C4B28498  44.064  20.286   7.510
 1915POPC   NC328499  39.523  40.211   9.384
 1915POPC   PO428500  39.142  39.743   9.563
 1915POPC   GL128501  39.026  39.973   9.206
 1915POPC   GL228502  39.016  40.356   9.261
 1915POPC   C1A28503  39.051  39.840   8.782
 1915POPC   D2A28504  39.384  39.946   8.507
 1915POPC   C3A28505  39.248  39.903   8.103
 1915POPC   C4A28506  39.298  40.102   7.732
 1915POPC   C1B28507  39.211  40.329   8.842
 1915POPC   C2B28508  39.030  40.289   8.451
 1915POPC   C3B28509  39.092  40.416   8.076
 1915POPC   C4B28510  38.865  40.376   7.733
 1916POPC   NC328511  40.451   5.157   9.440
 1916POPC   PO428512  41.082   5.176   9.674
 1916POPC   GL128513  40.928   5.041   9.236
 1916POPC   GL228514  41.239   4.889   9.139
 1916POPC   C1A28515  40.672   5.120   8.793
 1916POPC   D2A28516  40.769   5.425   8.434
 1916POPC   C3A28517  40.825   5.343   7.995
 1916POPC   C4A28518  40.560   5.015   7.877
 1916POPC   C1B28519  41.170   5.107   8.760
 1916POPC   C2B28520  41.047   5.018   8.333
 1916POPC   C3B28521  41.055   4.735   8.000
 1916POPC   C4B28522  40.922   4.833   7.584
 1917POPC   NC328523  37.153  40.593   9.507
 1917POPC   PO428524  36.584  41.031   9.640
 1917POPC   GL128525  36.701  40.776   9.240
 1917POPC   GL228526  37.058  40.924   9.152
 1917POPC   C1A28527  36.485  40.613   8.823
 1917POPC   D2A28528  36.694  40.507   8.409
 1917POPC   C3A28529  36.843  40.843   8.144
 1917POPC   C4A28530  36.823  40.695   7.722
 1917POPC   C1B28531  36.984  40.686   8.799
 1917POPC   C2B28532  37.199  40.489   8.490
 1917POPC   C3B28533  37.214  40.493   8.051
 1917POPC   C4B28534  37.528  40.369   7.785
 1918POPC   NC328535  10.166  19.287   9.437
 1918POPC   PO428536  10.849  19.087   9.505
 1918POPC   GL128537  10.837  19.258   9.142
 1918POPC   GL228538  10.529  19.110   9.084
 1918POPC   C1A28539  10.970  19.019   8.809
 1918POPC   D2A28540  10.897  19.146   8.384
 1918POPC   C3A28541  10.871  18.836   8.063
 1918POPC   C4A28542  10.674  18.889   7.663
 1918POPC   C1B28543  10.494  18.976   8.656
 1918POPC   C2B28544  10.363  18.813   8.259
 1918POPC   C3B28545  10.248  19.074   7.915
 1918POPC   C4B28546  10.522  19.405   7.773
 1919POPC   NC328547  43.317   2.517   9.350
 1919POPC   PO428548  43.806   2.982   9.503
 1919POPC   GL128549  43.766   2.939   9.096
 1919POPC   GL228550  43.409   3.048   9.096
 1919POPC   C1A28551  43.931   2.722   8.700
 1919POPC   D2A28552  43.864   2.483   8.295
 1919POPC   C3A28553  44.048   2.770   7.974
 1919POPC   C4A28554  44.351   2.947   7.693
 1919POPC   C1B28555  43.577   3.106   8.669
 1919POPC   C2B28556  43.684   2.969   8.296
 1919POPC   C3B28557  43.538   2.983   7.891
 1919POPC   C4B28558  43.538   2.751   7.493
 1920POPC   NC328559   3.216  10.007   9.443
 1920POPC   PO428560   3.845   9.727   9.491
 1920POPC   GL128561   3.610   9.877   9.154
 1920POPC   GL228562   3.851  10.086   9.071
 1920POPC   C1A28563   3.286   9.871   8.809
 1920POPC   D2A28564   3.346   9.601   8.467
 1920POPC   C3A28565   3.307   9.771   8.057
 1920POPC   C4A28566   3.538   9.703   7.694
 1920POPC   C1B28567   3.782   9.896   8.669
 1920POPC   C2B28568   3.705  10.048   8.243
 1920POPC   C3B28569   3.926   9.957   7.885
 1920POPC   C4B28570   4.024   9.759   7.477
 1921POPC   NC328571  37.789  13.814   9.496
 1921POPC   PO428572  37.147  13.579   9.394
 1921POPC   GL128573  37.455  13.690   9.111
 1921POPC   GL228574  37.687  13.408   9.200
 1921POPC   C1A28575  37.719  13.827   8.753
 1921POPC   D2A28576  38.011  13.717   8.380
 1921POPC   C3A28577  37.749  13.757   8.012
 1921POPC   C4A28578  37.329  13.686   7.894
 1921POPC   C1B28579  37.647  13.326   8.786
 1921POPC   C2B28580  37.572  13.448   8.383
 1921POPC   C3B28581  37.591  13.266   7.992
 1921POPC   C4B28582  37.960  13.309   7.854
 1922POPC   NC328583  16.249  16.893   9.402
 1922POPC   PO428584  16.975  16.863   9.591
 1922POPC   GL128585  16.753  16.674   9.252
 1922POPC   GL228586  16.662  16.982   9.126
 1922POPC   C1A28587  16.734  16.619   8.766
 1922POPC   D2A28588  16.817  16.419   8.360
 1922POPC   C3A28589  16.684  16.544   7.943
 1922POPC   C4A28590  16.738  16.448   7.520
 1922POPC   C1B28591  16.679  17.137   8.709
 1922POPC   C2B28592  16.583  16.945   8.287
 1922POPC   C3B28593  16.601  17.043   7.826
 1922POPC   C4B28594  16.905  16.929   7.476
 1923POPC   NC328595  39.301  13.605   9.507
 1923POPC   PO428596  38.750  13.323   9.220
 1923POPC   GL128597  39.167  13.484   9.039
 1923POPC   GL228598  39.509  13.364   9.124
 1923POPC   C1A28599  39.277  13.738   8.695
 1923POPC   D2A28600  39.040  13.799   8.308
 1923POPC   C3A28601  39.229  13.674   7.927
 1923POPC   C4A28602  39.081  13.405   7.612
 1923POPC   C1B28603  39.615  13.264   8.721
 1923POPC   C2B28604  39.388  13.353   8.343
 1923POPC   C3B28605  39.515  13.242   7.958
 1923POPC   C4B28606  39.564  13.412   7.567
 1924POPC   NC328607   2.909  32.912   9.413
 1924POPC   PO428608   2.481  33.394   9.348
 1924POPC   GL128609   2.725  33.241   9.072
 1924POPC   GL228610   2.543  32.955   9.056
 1924POPC   C1A28611   2.920  33.045   8.720
 1924POPC   D2A28612   3.008  32.756   8.390
 1924POPC   C3A28613   2.784  32.852   8.020
 1924POPC   C4A28614   2.894  32.899   7.588
 1924POPC   C1B28615   2.343  32.712   8.783
 1924POPC   C2B28616   2.427  32.533   8.394
 1924POPC   C3B28617   2.287  32.609   7.998
 1924POPC   C4B28618   2.399  32.786   7.641
 1925POPC   NC328619  18.481  27.418   9.734
 1925POPC   PO428620  17.992  27.146   9.674
 1925POPC   GL128621  18.243  27.324   9.285
 1925POPC   GL228622  18.023  27.551   9.097
 1925POPC   C1A28623  18.505  27.518   8.913
 1925POPC   D2A28624  18.548  27.526   8.412
 1925POPC   C3A28625  18.382  27.834   8.070
 1925POPC   C4A28626  18.261  27.834   7.614
 1925POPC   C1B28627  18.087  27.323   8.689
 1925POPC   C2B28628  18.152  27.237   8.238
 1925POPC   C3B28629  18.302  27.379   7.851
 1925POPC   C4B28630  18.164  27.339   7.446
 1926POPC   NC328631  31.531  18.085   9.520
 1926POPC   PO428632  30.902  18.389   9.445
 1926POPC   GL128633  31.259  18.414   9.196
 1926POPC   GL228634  31.184  18.083   9.102
 1926POPC   C1A28635  31.566  18.503   8.866
 1926POPC   D2A28636  31.711  18.640   8.460
 1926POPC   C3A28637  31.384  18.589   8.202
 1926POPC   C4A28638  31.510  18.438   7.832
 1926POPC   C1B28639  31.548  17.980   8.874
 1926POPC   C2B28640  31.542  18.142   8.482
 1926POPC   C3B28641  31.348  18.059   8.126
 1926POPC   C4B28642  31.567  17.943   7.778
 1927POPC   NC328643  10.941  19.621   9.518
 1927POPC   PO428644  10.203  19.805   9.584
 1927POPC   GL128645  10.414  19.645   9.178
 1927POPC   GL228646  10.713  19.779   9.093
 1927POPC   C1A28647  10.482  19.484   8.750
 1927POPC   D2A28648  10.235  19.351   8.397
 1927POPC   C3A28649  10.287  19.714   8.133
 1927POPC   C4A28650  10.413  19.892   7.748
 1927POPC   C1B28651  10.752  19.983   8.668
 1927POPC   C2B28652  10.830  19.886   8.199
 1927POPC   C3B28653  10.913  19.859   7.718
 1927POPC   C4B28654  10.689  19.727   7.321
 1928POPC   NC328655   8.297  22.610   9.520
 1928POPC   PO428656   7.831  23.150   9.485
 1928POPC   GL128657   8.157  23.014   9.197
 1928POPC   GL228658   8.512  23.135   9.286
 1928POPC   C1A28659   8.321  22.746   8.848
 1928POPC   D2A28660   8.233  22.580   8.420
 1928POPC   C3A28661   7.977  22.844   8.179
 1928POPC   C4A28662   8.129  23.134   7.855
 1928POPC   C1B28663   8.459  23.252   8.839
 1928POPC   C2B28664   8.271  23.332   8.419
 1928POPC   C3B28665   8.461  23.500   8.044
 1928POPC   C4B28666   8.625  23.221   7.763
 1929POPC   NC328667  23.275   8.698   9.524
 1929POPC   PO428668  23.094   9.390   9.535
 1929POPC   GL128669  23.077   9.212   9.158
 1929POPC   GL228670  22.981   8.846   9.120
 1929POPC   C1A28671  22.943   9.180   8.751
 1929POPC   D2A28672  23.095   8.957   8.409
 1929POPC   C3A28673  23.158   9.215   8.071
 1929POPC   C4A28674  23.033   9.199   7.664
 1929POPC   C1B28675  22.838   8.641   8.731
 1929POPC   C2B28676  22.710   8.644   8.287
 1929POPC   C3B28677  22.983   8.754   7.916
 1929POPC   C4B28678  23.123   8.742   7.450
 1930POPC   NC328679  40.614  43.651   9.580
 1930POPC   PO428680  40.822  42.970   9.617
 1930POPC   GL128681  40.654  43.146   9.210
 1930POPC   GL228682  40.800  43.493   9.139
 1930POPC   C1A28683  40.420  42.887   8.852
 1930POPC   D2A28684  40.558  42.710   8.446
 1930POPC   C3A28685  40.497  43.005   8.077
 1930POPC   C4A28686  40.615  42.962   7.678
 1930POPC   C1B28687  40.688  43.314   8.745
 1930POPC   C2B28688  40.866  43.176   8.390
 1930POPC   C3B28689  41.139  43.118   8.051
 1930POPC   C4B28690  40.947  43.330   7.738
 1931POPC   NC328691   9.373  33.881   9.364
 1931POPC   PO428692  10.009  33.567   9.427
 1931POPC   GL128693   9.840  33.784   9.109
 1931POPC   GL228694   9.829  34.107   9.293
 1931POPC   C1A28695   9.840  33.694   8.659
 1931POPC   D2A28696  10.119  33.605   8.298
 1931POPC   C3A28697   9.978  33.665   7.861
 1931POPC   C4A28698  10.035  33.756   7.399
 1931POPC   C1B28699  10.005  34.232   8.911
 1931POPC   C2B28700   9.932  34.333   8.507
 1931POPC   C3B28701   9.902  34.099   8.149
 1931POPC   C4B28702   9.839  34.209   7.714
 1932POPC   NC328703  28.076  39.526   9.507
 1932POPC   PO428704  28.575  39.012   9.579
 1932POPC   GL128705  28.297  39.133   9.233
 1932POPC   GL228706  28.017  38.902   9.184
 1932POPC   C1A28707  28.359  39.424   8.864
 1932POPC   D2A28708  28.435  39.348   8.423
 1932POPC   C3A28709  28.273  39.516   8.033
 1932POPC   C4A28710  28.131  39.368   7.598
 1932POPC   C1B28711  28.139  38.989   8.742
 1932POPC   C2B28712  28.288  38.872   8.333
 1932POPC   C3B28713  28.233  38.950   7.897
 1932POPC   C4B28714  27.951  38.906   7.564
 1933POPC   NC328715   8.945   0.022   9.485
 1933POPC   PO428716   9.274  44.443   9.551
 1933POPC   GL128717   9.200  44.688   9.152
 1933POPC   GL228718   9.222   0.076   9.059
 1933POPC   C1A28719   9.003  44.676   8.741
 1933POPC   D2A28720   9.117  44.781   8.319
 1933POPC   C3A28721   9.017  44.625   7.936
 1933POPC   C4A28722   9.256  44.297   7.768
 1933POPC   C1B28723   9.120   0.152   8.660
 1933POPC   C2B28724   8.701   0.044   8.480
 1933POPC   C3B28725   8.737   0.049   8.033
 1933POPC   C4B28726   9.179   0.131   7.956
 1934POPC   NC328727  20.676   6.381   9.603
 1934POPC   PO428728  20.559   7.018   9.497
 1934POPC   GL128729  20.750   6.701   9.177
 1934POPC   GL228730  20.560   6.402   9.097
 1934POPC   C1A28731  20.763   6.782   8.692
 1934POPC   D2A28732  20.732   7.052   8.267
 1934POPC   C3A28733  20.514   6.899   7.866
 1934POPC   C4A28734  20.210   6.600   7.642
 1934POPC   C1B28735  20.829   6.267   8.743
 1934POPC   C2B28736  20.885   6.468   8.299
 1934POPC   C3B28737  20.901   6.553   7.847
 1934POPC   C4B28738  20.650   6.377   7.474
 1935POPC   NC328739  31.113   0.628   9.473
 1935POPC   PO428740  30.490   0.473   9.457
 1935POPC   GL128741  30.714   0.286   9.099
 1935POPC   GL228742  31.084   0.182   9.178
 1935POPC   C1A28743  30.727   0.470   8.671
 1935POPC   D2A28744  30.961   0.519   8.288
 1935POPC   C3A28745  30.774   0.706   7.935
 1935POPC   C4A28746  30.696   1.037   7.648
 1935POPC   C1B28747  31.042   0.075   8.743
 1935POPC   C2B28748  30.774   0.038   8.392
 1935POPC   C3B28749  30.666   0.213   8.003
 1935POPC   C4B28750  30.862   0.195   7.640
 1936POPC   NC328751  41.577  41.435   9.483
 1936POPC   PO428752  41.292  42.089   9.573
 1936POPC   GL128753  41.455  41.872   9.200
 1936POPC   GL228754  41.161  41.711   9.111
 1936POPC   C1A28755  41.644  41.601   8.820
 1936POPC   D2A28756  41.652  41.359   8.392
 1936POPC   C3A28757  41.661  41.601   7.965
 1936POPC   C4A28758  41.647  41.614   7.472
 1936POPC   C1B28759  41.265  41.987   8.761
 1936POPC   C2B28760  41.412  41.813   8.407
 1936POPC   C3B28761  41.172  41.848   8.077
 1936POPC   C4B28762  41.269  41.859   7.693
 1937POPC   NC328763  21.696  38.286   9.821
 1937POPC   PO428764  21.039  38.443   9.630
 1937POPC   GL128765  21.361  38.568   9.185
 1937POPC   GL228766  21.459  38.308   8.924
 1937POPC   C1A28767  21.596  38.767   8.761
 1937POPC   D2A28768  21.578  38.921   8.308
 1937POPC   C3A28769  21.442  38.611   8.005
 1937POPC   C4A28770  21.579  38.244   7.819
 1937POPC   C1B28771  21.274  38.022   8.602
 1937POPC   C2B28772  21.314  37.966   8.180
 1937POPC   C3B28773  21.066  37.874   7.835
 1937POPC   C4B28774  21.235  38.017   7.500
 1938POPC   NC328775  25.162   5.323   9.489
 1938POPC   PO428776  24.929   4.941   9.081
 1938POPC   GL128777  25.173   5.313   8.974
 1938POPC   GL228778  25.486   5.154   9.111
 1938POPC   C1A28779  25.201   5.355   8.522
 1938POPC   D2A28780  25.385   5.012   8.285
 1938POPC   C3A28781  25.223   4.921   7.877
 1938POPC   C4A28782  25.281   4.811   7.442
 1938POPC   C1B28783  25.644   5.194   8.707
 1938POPC   C2B28784  25.659   5.454   8.328
 1938POPC   C3B28785  25.609   5.299   7.915
 1938POPC   C4B28786  25.692   5.090   7.534
 1939POPC   NC328787   6.080  30.395   9.407
 1939POPC   PO428788   5.604  30.890   9.452
 1939POPC   GL128789   5.698  30.861   9.034
 1939POPC   GL228790   6.028  30.662   8.973
 1939POPC   C1A28791   5.735  30.848   8.613
 1939POPC   D2A28792   5.921  30.511   8.437
 1939POPC   C3A28793   6.034  30.713   8.104
 1939POPC   C4A28794   5.801  30.717   7.762
 1939POPC   C1B28795   6.280  30.323   8.752
 1939POPC   C2B28796   6.406  30.297   8.300
 1939POPC   C3B28797   6.386  30.442   7.855
 1939POPC   C4B28798   6.266  30.861   7.650
 1940POPC   NC328799  23.863  36.770   9.629
 1940POPC   PO428800  23.380  37.073   9.534
 1940POPC   GL128801  23.722  37.012   9.193
 1940POPC   GL228802  23.915  37.330   9.103
 1940POPC   C1A28803  23.890  36.842   8.768
 1940POPC   D2A28804  24.049  36.832   8.359
 1940POPC   C3A28805  23.736  36.711   8.052
 1940POPC   C4A28806  23.773  36.798   7.608
 1940POPC   C1B28807  23.615  37.251   8.762
 1940POPC   C2B28808  23.580  37.062   8.405
 1940POPC   C3B28809  23.786  37.247   8.112
 1940POPC   C4B28810  23.845  37.293   7.722
 1941POPC   NC328811  43.214  43.581   9.858
 1941POPC   PO428812  42.753  43.999   9.578
 1941POPC   GL128813  43.050  44.084   9.193
 1941POPC   GL228814  43.287  43.785   9.068
 1941POPC   C1A28815  43.176  44.141   8.755
 1941POPC   D2A28816  43.417  44.225   8.403
 1941POPC   C3A28817  43.247  44.119   8.031
 1941POPC   C4A28818  43.134  44.115   7.641
 1941POPC   C1B28819  43.229  43.539   8.721
 1941POPC   C2B28820  43.275  43.675   8.312
 1941POPC   C3B28821  43.231  43.621   7.875
 1941POPC   C4B28822  43.163  43.641   7.410
 1942POPC   NC328823  42.538   2.489   9.471
 1942POPC   PO428824  42.178   3.093   9.481
 1942POPC   GL128825  42.023   2.975   9.103
 1942POPC   GL228826  42.107   2.627   9.183
 1942POPC   C1A28827  42.223   2.974   8.691
 1942POPC   D2A28828  42.615   2.921   8.418
 1942POPC   C3A28829  42.569   2.994   7.971
 1942POPC   C4A28830  42.233   2.826   7.707
 1942POPC   C1B28831  42.056   2.468   8.781
 1942POPC   C2B28832  42.252   2.501   8.369
 1942POPC   C3B28833  41.983   2.474   7.972
 1942POPC   C4B28834  41.919   2.471   7.462
 1943POPC   NC328835  14.219  11.828   9.762
 1943POPC   PO428836  14.265  12.310   9.296
 1943POPC   GL128837  14.353  12.032   9.004
 1943POPC   GL228838  14.708  11.954   8.990
 1943POPC   C1A28839  14.227  12.091   8.593
 1943POPC   D2A28840  14.074  11.828   8.286
 1943POPC   C3A28841  14.177  12.027   7.904
 1943POPC   C4A28842  14.272  11.720   7.559
 1943POPC   C1B28843  14.710  12.260   8.652
 1943POPC   C2B28844  14.617  12.166   8.240
 1943POPC   C3B28845  14.700  12.059   7.866
 1943POPC   C4B28846  14.722  12.360   7.601
 1944POPC   NC328847  40.151  41.861   9.462
 1944POPC   PO428848  39.888  41.313   9.515
 1944POPC   GL128849  39.886  41.597   9.131
 1944POPC   GL228850  39.889  42.005   9.062
 1944POPC   C1A28851  40.174  41.628   8.806
 1944POPC   D2A28852  40.180  41.596   8.389
 1944POPC   C3A28853  39.963  41.299   8.170
 1944POPC   C4A28854  40.046  41.368   7.756
 1944POPC   C1B28855  39.693  41.974   8.671
 1944POPC   C2B28856  39.715  41.771   8.266
 1944POPC   C3B28857  40.044  41.848   7.949
 1944POPC   C4B28858  39.880  42.211   7.749
 1945POPC   NC328859  14.061  42.696   9.472
 1945POPC   PO428860  14.418  42.030   9.417
 1945POPC   GL128861  14.237  42.307   9.163
 1945POPC   GL228862  14.561  42.413   9.046
 1945POPC   C1A28863  14.107  42.396   8.752
 1945POPC   D2A28864  14.249  42.317   8.339
 1945POPC   C3A28865  14.161  41.970   8.082
 1945POPC   C4A28866  14.299  42.256   7.749
 1945POPC   C1B28867  14.623  42.564   8.617
 1945POPC   C2B28868  14.527  42.725   8.182
 1945POPC   C3B28869  14.689  42.599   7.769
 1945POPC   C4B28870  14.615  42.548   7.292
 1946POPC   NC328871  22.656  44.035   9.552
 1946POPC   PO428872  23.249  43.777   9.514
 1946POPC   GL128873  23.016  43.709   9.152
 1946POPC   GL228874  22.686  43.645   9.239
 1946POPC   C1A28875  22.979  43.523   8.755
 1946POPC   D2A28876  22.907  43.459   8.300
 1946POPC   C3A28877  23.028  43.788   8.003
 1946POPC   C4A28878  22.956  43.868   7.575
 1946POPC   C1B28879  22.573  43.807   8.849
 1946POPC   C2B28880  22.399  43.709   8.465
 1946POPC   C3B28881  22.520  43.698   8.043
 1946POPC   C4B28882  22.489  43.992   7.696
 1947POPC   NC328883  10.110  27.520   9.510
 1947POPC   PO428884   9.519  27.811   9.455
 1947POPC   GL128885   9.853  27.822   9.151
 1947POPC   GL228886   9.828  27.462   9.100
 1947POPC   C1A28887  10.039  27.734   8.725
 1947POPC   D2A28888   9.878  27.740   8.283
 1947POPC   C3A28889  10.012  27.605   7.916
 1947POPC   C4A28890   9.729  27.536   7.589
 1947POPC   C1B28891   9.555  27.185   8.886
 1947POPC   C2B28892   9.566  27.108   8.437
 1947POPC   C3B28893   9.595  27.322   8.044
 1947POPC   C4B28894   9.270  27.329   7.733
 1948POPC   NC328895  35.737  27.227   9.281
 1948POPC   PO428896  35.151  27.616   9.432
 1948POPC   GL128897  35.313  27.688   9.061
 1948POPC   GL228898  35.653  27.659   8.998
 1948POPC   C1A28899  35.174  27.837   8.700
 1948POPC   D2A28900  34.997  27.563   8.438
 1948POPC   C3A28901  35.277  27.607   8.109
 1948POPC   C4A28902  35.215  27.658   7.673
 1948POPC   C1B28903  35.436  27.390   8.687
 1948POPC   C2B28904  35.537  27.209   8.320
 1948POPC   C3B28905  35.584  27.225   7.919
 1948POPC   C4B28906  35.306  27.160   7.631
 1949POPC   NC328907  20.030  32.928   9.544
 1949POPC   PO428908  20.658  33.250   9.827
 1949POPC   GL128909  20.631  33.095   9.333
 1949POPC   GL228910  20.697  33.367   9.078
 1949POPC   C1A28911  20.556  32.903   8.878
 1949POPC   D2A28912  20.617  32.705   8.452
 1949POPC   C3A28913  20.463  32.775   8.049
 1949POPC   C4A28914  20.456  32.922   7.663
 1949POPC   C1B28915  20.599  33.363   8.625
 1949POPC   C2B28916  20.702  33.198   8.223
 1949POPC   C3B28917  20.885  33.033   7.876
 1949POPC   C4B28918  21.065  32.646   7.773
 1950POPC   NC328919  31.020  27.682   9.386
 1950POPC   PO428920  30.316  27.763   9.393
 1950POPC   GL128921  30.578  27.690   9.102
 1950POPC   GL228922  30.596  27.351   9.114
 1950POPC   C1A28923  30.771  27.796   8.740
 1950POPC   D2A28924  30.552  27.775   8.398
 1950POPC   C3A28925  30.697  27.670   8.038
 1950POPC   C4A28926  30.868  27.807   7.714
 1950POPC   C1B28927  30.803  27.270   8.729
 1950POPC   C2B28928  31.018  27.459   8.392
 1950POPC   C3B28929  31.084  27.346   7.976
 1950POPC   C4B28930  31.238  27.500   7.610
 1951POPC   NC328931  14.256   2.517   9.489
 1951POPC   PO428932  14.550   3.042   9.403
 1951POPC   GL128933  14.376   2.776   9.072
 1951POPC   GL228934  14.033   2.857   9.101
 1951POPC   C1A28935  14.166   2.496   8.756
 1951POPC   D2A28936  14.085   2.541   8.310
 1951POPC   C3A28937  14.337   2.663   7.961
 1951POPC   C4A28938  14.649   2.471   7.715
 1951POPC   C1B28939  14.182   3.011   8.661
 1951POPC   C2B28940  14.064   3.041   8.207
 1951POPC   C3B28941  14.222   3.148   7.769
 1951POPC   C4B28942  13.986   3.154   7.364
 1952POPC   NC328943  23.241  23.978   9.513
 1952POPC   PO428944  22.591  23.891   9.484
 1952POPC   GL128945  22.876  23.729   9.179
 1952POPC   GL228946  23.186  23.863   9.037
 1952POPC   C1A28947  22.857  23.521   8.781
 1952POPC   D2A28948  22.861  23.530   8.346
 1952POPC   C3A28949  22.819  23.902   8.098
 1952POPC   C4A28950  22.793  23.607   7.791
 1952POPC   C1B28951  23.395  23.633   8.756
 1952POPC   C2B28952  23.307  23.817   8.389
 1952POPC   C3B28953  23.265  23.642   8.034
 1952POPC   C4B28954  23.264  23.785   7.676
 1953POPC   NC328955  11.587  41.643   9.414
 1953POPC   PO428956  10.921  41.761   9.571
 1953POPC   GL128957  11.175  41.837   9.176
 1953POPC   GL228958  11.356  41.559   8.975
 1953POPC   C1A28959  11.390  42.035   8.833
 1953POPC   D2A28960  11.307  42.097   8.405
 1953POPC   C3A28961  10.975  41.897   8.198
 1953POPC   C4A28962  11.088  41.734   7.806
 1953POPC   C1B28963  11.243  41.601   8.561
 1953POPC   C2B28964  11.483  41.652   8.224
 1953POPC   C3B28965  11.530  41.438   7.869
 1953POPC   C4B28966  11.120  41.235   7.802
 1954POPC   NC328967  25.940  35.192   9.355
 1954POPC   PO428968  26.303  35.684   9.618
 1954POPC   GL128969  26.163  35.621   9.197
 1954POPC   GL228970  25.829  35.668   9.167
 1954POPC   C1A28971  26.210  35.501   8.755
 1954POPC   D2A28972  26.396  35.590   8.352
 1954POPC   C3A28973  26.238  35.342   7.982
 1954POPC   C4A28974  26.173  35.396   7.515
 1954POPC   C1B28975  25.688  35.516   8.784
 1954POPC   C2B28976  25.798  35.401   8.376
 1954POPC   C3B28977  25.705  35.373   7.967
 1954POPC   C4B28978  25.868  35.056   7.750
 1955POPC   NC328979  32.720  30.622   9.386
 1955POPC   PO428980  33.271  30.640   9.726
 1955POPC   GL128981  33.189  30.805   9.294
 1955POPC   GL228982  33.093  30.478   9.082
 1955POPC   C1A28983  33.185  30.902   8.835
 1955POPC   D2A28984  33.078  30.541   8.555
 1955POPC   C3A28985  33.064  30.602   8.143
 1955POPC   C4A28986  33.154  30.814   7.787
 1955POPC   C1B28987  32.695  30.344   8.798
 1955POPC   C2B28988  32.625  30.368   8.323
 1955POPC   C3B28989  32.696  30.330   7.856
 1955POPC   C4B28990  32.666  30.213   7.441
 1956POPC   NC328991  33.557  43.306   9.731
 1956POPC   PO428992  33.994  42.838   9.540
 1956POPC   GL128993  33.892  42.930   9.117
 1956POPC   GL228994  34.165  42.870   8.894
 1956POPC   C1A28995  33.696  42.932   8.692
 1956POPC   D2A28996  33.891  42.759   8.306
 1956POPC   C3A28997  33.728  43.037   7.980
 1956POPC   C4A28998  33.735  43.084   7.538
 1956POPC   C1B28999  34.197  43.274   8.703
 1956POPC   C2B29000  34.104  43.357   8.265
 1956POPC   C3B29001  34.328  43.452   7.897
 1956POPC   C4B29002  34.160  43.361   7.501
 1957POPC   NC329003   3.396  11.343   9.658
 1957POPC   PO429004   3.915  11.402   9.328
 1957POPC   GL129005   3.593  11.204   9.083
 1957POPC   GL229006   3.345  10.948   9.215
 1957POPC   C1A29007   3.627  11.277   8.636
 1957POPC   D2A29008   3.994  11.428   8.414
 1957POPC   C3A29009   3.848  11.615   8.053
 1957POPC   C4A29010   3.462  11.491   7.852
 1957POPC   C1B29011   3.236  10.965   8.777
 1957POPC   C2B29012   3.167  11.167   8.339
 1957POPC   C3B29013   3.053  11.193   7.883
 1957POPC   C4B29014   3.037  11.171   7.420
 1958POPC   NC329015  31.466  13.221   9.466
 1958POPC   PO429016  31.340  12.623   9.725
 1958POPC   GL129017  31.497  12.739   9.308
 1958POPC   GL229018  31.217  12.875   9.198
 1958POPC   C1A29019  31.508  12.734   8.825
 1958POPC   D2A29020  31.514  12.980   8.476
 1958POPC   C3A29021  31.380  12.822   8.110
 1958POPC   C4A29022  31.449  13.007   7.720
 1958POPC   C1B29023  31.143  13.124   8.817
 1958POPC   C2B29024  30.982  13.084   8.409
 1958POPC   C3B29025  31.103  13.250   8.026
 1958POPC   C4B29026  30.948  13.258   7.623
 1959POPC   NC329027  11.714  33.751   9.278
 1959POPC   PO429028  12.211  34.104   9.580
 1959POPC   GL129029  12.209  33.942   9.134
 1959POPC   GL229030  12.131  33.580   9.047
 1959POPC   C1A29031  12.066  33.993   8.711
 1959POPC   D2A29032  11.875  34.263   8.397
 1959POPC   C3A29033  11.904  33.999   8.016
 1959POPC   C4A29034  12.257  33.883   7.798
 1959POPC   C1B29035  12.134  33.451   8.637
 1959POPC   C2B29036  12.375  33.488   8.258
 1959POPC   C3B29037  12.053  33.451   7.975
 1959POPC   C4B29038  11.859  33.413   7.619
 1960POPC   NC329039  31.762  26.315   9.315
 1960POPC   PO429040  32.184  25.851   9.462
 1960POPC   GL129041  32.335  25.865   9.060
 1960POPC   GL229042  32.008  25.954   8.940
 1960POPC   C1A29043  32.453  25.957   8.656
 1960POPC   D2A29044  32.223  26.094   8.319
 1960POPC   C3A29045  32.096  25.825   8.000
 1960POPC   C4A29046  32.353  25.834   7.656
 1960POPC   C1B29047  31.931  26.358   8.701
 1960POPC   C2B29048  31.987  26.554   8.334
 1960POPC   C3B29049  32.013  26.344   7.911
 1960POPC   C4B29050  31.904  26.062   7.554
 1961POPC   NC329051  25.700  41.997   9.532
 1961POPC   PO429052  26.338  42.156   9.507
 1961POPC   GL129053  26.244  42.127   9.078
 1961POPC   GL229054  25.875  42.162   9.085
 1961POPC   C1A29055  26.289  42.134   8.622
 1961POPC   D2A29056  26.307  42.469   8.333
 1961POPC   C3A29057  26.185  42.421   7.905
 1961POPC   C4A29058  26.402  42.539   7.496
 1961POPC   C1B29059  25.868  42.409   8.705
 1961POPC   C2B29060  25.865  42.179   8.326
 1961POPC   C3B29061  25.734  42.142   7.905
 1961POPC   C4B29062  25.690  42.518   7.714
 1962POPC   NC329063  36.270  22.572   9.482
 1962POPC   PO429064  35.646  22.816   9.502
 1962POPC   GL129065  35.897  22.706   9.141
 1962POPC   GL229066  36.168  22.965   9.167
 1962POPC   C1A29067  35.929  22.926   8.724
 1962POPC   D2A29068  36.189  23.176   8.462
 1962POPC   C3A29069  36.095  23.005   8.092
 1962POPC   C4A29070  35.866  22.751   7.821
 1962POPC   C1B29071  36.393  22.692   8.872
 1962POPC   C2B29072  36.492  22.645   8.464
 1962POPC   C3B29073  36.538  22.694   8.040
 1962POPC   C4B29074  36.412  22.935   7.711
 1963POPC   NC329075   1.251  29.665   9.735
 1963POPC   PO429076   1.170  29.010   9.506
 1963POPC   GL129077   1.046  29.125   9.106
 1963POPC   GL229078   1.276  29.376   8.986
 1963POPC   C1A29079   0.982  29.099   8.674
 1963POPC   D2A29080   1.131  29.242   8.289
 1963POPC   C3A29081   1.208  28.901   8.026
 1963POPC   C4A29082   1.310  28.947   7.600
 1963POPC   C1B29083   1.528  29.264   8.670
 1963POPC   C2B29084   1.685  29.404   8.283
 1963POPC   C3B29085   1.499  29.314   7.895
 1963POPC   C4B29086   1.530  29.378   7.428
 1964POPC   NC329087  22.996  31.390   9.567
 1964POPC   PO429088  23.180  32.020   9.415
 1964POPC   GL129089  23.307  31.739   9.031
 1964POPC   GL229090  23.108  31.441   9.063
 1964POPC   C1A29091  23.160  31.647   8.565
 1964POPC   D2A29092  22.794  31.418   8.346
 1964POPC   C3A29093  22.805  31.416   7.904
 1964POPC   C4A29094  22.797  31.864   7.783
 1964POPC   C1B29095  23.060  31.162   8.710
 1964POPC   C2B29096  23.247  31.176   8.281
 1964POPC   C3B29097  23.199  31.028   7.857
 1964POPC   C4B29098  23.014  31.134   7.462
 1965POPC   NC329099  18.693  42.958   9.502
 1965POPC   PO429100  18.174  43.457   9.452
 1965POPC   GL129101  18.256  43.385   9.060
 1965POPC   GL229102  18.369  43.060   9.101
 1965POPC   C1A29103  18.066  43.260   8.698
 1965POPC   D2A29104  18.278  43.085   8.389
 1965POPC   C3A29105  18.100  42.992   8.038
 1965POPC   C4A29106  17.960  43.247   7.737
 1965POPC   C1B29107  18.543  42.840   8.778
 1965POPC   C2B29108  18.575  42.696   8.362
 1965POPC   C3B29109  18.599  42.894   7.979
 1965POPC   C4B29110  18.376  42.953   7.599
 1966POPC   NC329111  29.723  31.072   9.668
 1966POPC   PO429112  30.325  31.051   9.455
 1966POPC   GL129113  30.077  30.914   9.106
 1966POPC   GL229114  29.761  30.769   9.229
 1966POPC   C1A29115  30.168  30.989   8.648
 1966POPC   D2A29116  30.332  30.881   8.228
 1966POPC   C3A29117  30.028  30.564   8.084
 1966POPC   C4A29118  29.884  30.339   7.722
 1966POPC   C1B29119  29.720  30.710   8.757
 1966POPC   C2B29120  29.556  30.787   8.307
 1966POPC   C3B29121  29.704  30.912   7.872
 1966POPC   C4B29122  29.661  30.715   7.445
 1967POPC   NC329123  10.809   5.469   9.916
 1967POPC   PO429124  10.403   5.048   9.596
 1967POPC   GL129125  10.597   5.004   9.150
 1967POPC   GL229126  10.866   4.766   9.046
 1967POPC   C1A29127  10.589   5.023   8.662
 1967POPC   D2A29128  10.397   5.041   8.237
 1967POPC   C3A29129  10.578   4.972   7.827
 1967POPC   C4A29130  10.301   4.937   7.448
 1967POPC   C1B29131  11.064   4.853   8.617
 1967POPC   C2B29132  10.943   5.115   8.236
 1967POPC   C3B29133  11.029   5.256   7.809
 1967POPC   C4B29134  11.022   5.083   7.394
 1968POPC   NC329135   3.511  18.663   9.511
 1968POPC   PO429136   3.645  17.950   9.514
 1968POPC   GL129137   3.580  18.140   9.136
 1968POPC   GL229138   3.893  18.275   9.182
 1968POPC   C1A29139   3.513  18.040   8.686
 1968POPC   D2A29140   3.634  18.259   8.315
 1968POPC   C3A29141   3.402  18.355   7.945
 1968POPC   C4A29142   3.674  18.043   7.734
 1968POPC   C1B29143   3.874  18.433   8.796
 1968POPC   C2B29144   3.684  18.714   8.546
 1968POPC   C3B29145   3.721  18.737   8.112
 1968POPC   C4B29146   3.841  18.522   7.759
 1969POPC   NC329147  14.924  23.585   9.759
 1969POPC   PO429148  15.534  23.486   9.566
 1969POPC   GL129149  15.367  23.647   9.183
 1969POPC   GL229150  14.995  23.556   9.189
 1969POPC   C1A29151  15.408  23.916   8.793
 1969POPC   D2A29152  15.140  24.026   8.409
 1969POPC   C3A29153  15.295  23.927   7.964
 1969POPC   C4A29154  15.394  23.594   7.613
 1969POPC   C1B29155  15.083  23.542   8.731
 1969POPC   C2B29156  15.254  23.535   8.320
 1969POPC   C3B29157  15.058  23.489   7.960
 1969POPC   C4B29158  14.793  23.742   7.714
 1970POPC   NC329159  26.222  22.264   9.575
 1970POPC   PO429160  25.554  22.254   9.634
 1970POPC   GL129161  25.770  22.287   9.205
 1970POPC   GL229162  26.096  22.092   9.124
 1970POPC   C1A29163  25.952  22.455   8.803
 1970POPC   D2A29164  26.104  22.243   8.417
 1970POPC   C3A29165  26.091  22.460   8.006
 1970POPC   C4A29166  26.130  22.369   7.536
 1970POPC   C1B29167  25.858  21.913   8.795
 1970POPC   C2B29168  25.860  21.766   8.379
 1970POPC   C3B29169  25.900  21.977   7.996
 1970POPC   C4B29170  26.324  21.995   7.858
 1971POPC   NC329171  17.204  37.753   9.419
 1971POPC   PO429172  16.588  37.938   9.622
 1971POPC   GL129173  16.703  37.633   9.285
 1971POPC   GL229174  16.775  37.891   9.128
 1971POPC   C1A29175  16.541  37.547   8.837
 1971POPC   D2A29176  16.636  37.635   8.391
 1971POPC   C3A29177  16.717  37.528   7.956
 1971POPC   C4A29178  17.066  37.373   7.690
 1971POPC   C1B29179  16.589  38.057   8.749
 1971POPC   C2B29180  16.310  38.024   8.388
 1971POPC   C3B29181  16.481  37.997   7.960
 1971POPC   C4B29182  16.489  38.027   7.479
 1972POPC   NC329183  40.941   1.689   9.511
 1972POPC   PO429184  40.502   2.160   9.554
 1972POPC   GL129185  40.674   1.960   9.184
 1972POPC   GL229186  40.761   2.255   9.084
 1972POPC   C1A29187  40.790   1.815   8.748
 1972POPC   D2A29188  40.967   1.672   8.340
 1972POPC   C3A29189  40.728   1.428   8.034
 1972POPC   C4A29190  40.626   1.585   7.604
 1972POPC   C1B29191  40.969   2.297   8.695
 1972POPC   C2B29192  41.124   2.168   8.287
 1972POPC   C3B29193  40.981   2.119   7.868
 1972POPC   C4B29194  40.858   2.400   7.568
 1973POPC   NC329195  31.273  44.647   9.363
 1973POPC   PO429196  31.951  44.466   9.588
 1973POPC   GL129197  31.780  44.648   9.207
 1973POPC   GL229198  31.801   0.035   9.214
 1973POPC   C1A29199  31.579  44.509   8.794
 1973POPC   D2A29200  31.207  44.638   8.529
 1973POPC   C3A29201  31.249  44.521   8.086
 1973POPC   C4A29202  31.243  44.701   7.670
 1973POPC   C1B29203  31.548   0.026   8.829
 1973POPC   C2B29204  31.647  44.866   8.384
 1973POPC   C3B29205  31.658  44.851   7.924
 1973POPC   C4B29206  31.676  44.913   7.463
 1974POPC   NC329207   1.209  31.862   9.342
 1974POPC   PO429208   1.313  31.230   9.557
 1974POPC   GL129209   1.049  31.359   9.209
 1974POPC   GL229210   0.816  31.623   9.087
 1974POPC   C1A29211   1.194  31.421   8.790
 1974POPC   D2A29212   1.173  31.193   8.415
 1974POPC   C3A29213   1.212  31.385   8.039
 1974POPC   C4A29214   0.896  31.357   7.722
 1974POPC   C1B29215   0.982  31.909   8.749
 1974POPC   C2B29216   1.139  31.783   8.365
 1974POPC   C3B29217   0.968  31.827   7.958
 1974POPC   C4B29218   1.240  31.708   7.617
 1975POPC   NC329219  36.919  23.288   9.449
 1975POPC   PO429220  36.724  23.929   9.406
 1975POPC   GL129221  36.473  23.782   9.088
 1975POPC   GL229222  36.383  24.104   9.000
 1975POPC   C1A29223  36.650  23.758   8.698
 1975POPC   D2A29224  37.021  23.854   8.476
 1975POPC   C3A29225  36.905  23.725   8.070
 1975POPC   C4A29226  37.078  23.557   7.728
 1975POPC   C1B29227  36.138  23.964   8.712
 1975POPC   C2B29228  36.247  23.785   8.375
 1975POPC   C3B29229  36.390  23.901   7.980
 1975POPC   C4B29230  36.547  23.607   7.696
 1976POPC   NC329231   1.318  23.939   9.270
 1976POPC   PO429232   0.893  23.582   9.664
 1976POPC   GL129233   1.086  23.453   9.258
 1976POPC   GL229234   0.958  23.676   9.031
 1976POPC   C1A29235   1.375  23.446   8.861
 1976POPC   D2A29236   1.484  23.602   8.424
 1976POPC   C3A29237   1.265  23.716   8.062
 1976POPC   C4A29238   1.380  23.738   7.591
 1976POPC   C1B29239   1.078  23.873   8.623
 1976POPC   C2B29240   0.971  24.119   8.231
 1976POPC   C3B29241   0.994  24.040   7.794
 1976POPC   C4B29242   0.901  23.826   7.434
 1977POPC   NC329243  31.660  40.201   9.489
 1977POPC   PO429244  31.197  39.650   9.551
 1977POPC   GL129245  31.294  39.962   9.258
 1977POPC   GL229246  31.613  39.846   9.109
 1977POPC   C1A29247  31.237  40.002   8.831
 1977POPC   D2A29248  31.294  40.137   8.454
 1977POPC   C3A29249  31.323  39.770   8.204
 1977POPC   C4A29250  31.201  39.713   7.789
 1977POPC   C1B29251  31.739  40.165   8.794
 1977POPC   C2B29252  31.782  40.121   8.340
 1977POPC   C3B29253  31.642  40.061   7.920
 1977POPC   C4B29254  31.847  39.937   7.537
 1978POPC   NC329255  26.623  15.684   9.604
 1978POPC   PO429256  27.139  16.170   9.544
 1978POPC   GL129257  26.863  15.999   9.198
 1978POPC   GL229258  26.662  15.695   9.113
 1978POPC   C1A29259  27.050  15.891   8.791
 1978POPC   D2A29260  27.272  15.936   8.389
 1978POPC   C3A29261  26.933  15.989   8.093
 1978POPC   C4A29262  26.823  15.953   7.650
 1978POPC   C1B29263  26.617  15.617   8.715
 1978POPC   C2B29264  26.505  15.696   8.325
 1978POPC   C3B29265  26.624  15.581   7.935
 1978POPC   C4B29266  26.398  15.686   7.563
 1979POPC   NC329267   0.420  11.657   9.813
 1979POPC   PO429268   0.572  12.221   9.482
 1979POPC   GL129269   0.505  12.100   9.101
 1979POPC   GL229270   0.529  11.790   9.168
 1979POPC   C1A29271   0.355  11.938   8.721
 1979POPC   D2A29272   0.356  12.120   8.348
 1979POPC   C3A29273   0.331  12.090   7.926
 1979POPC   C4A29274   0.559  12.397   7.682
 1979POPC   C1B29275   0.845  11.837   8.814
 1979POPC   C2B29276   0.755  11.744   8.411
 1979POPC   C3B29277   0.811  11.914   8.026
 1979POPC   C4B29278   0.702  11.917   7.620
 1980POPC   NC329279  21.773  14.648   9.449
 1980POPC   PO429280  21.347  14.050   9.492
 1980POPC   GL129281  21.513  14.268   9.215
 1980POPC   GL229282  21.356  14.550   9.127
 1980POPC   C1A29283  21.516  14.248   8.781
 1980POPC   D2A29284  21.417  14.552   8.475
 1980POPC   C3A29285  21.604  14.479   8.109
 1980POPC   C4A29286  21.732  14.367   7.727
 1980POPC   C1B29287  21.106  14.761   8.830
 1980POPC   C2B29288  20.949  14.748   8.383
 1980POPC   C3B29289  21.091  14.519   8.048
 1980POPC   C4B29290  21.285  14.584   7.684
 1981POPC   NC329291  16.860  33.476   9.342
 1981POPC   PO429292  16.926  34.143   9.602
 1981POPC   GL129293  16.699  33.975   9.228
 1981POPC   GL229294  17.004  33.898   9.082
 1981POPC   C1A29295  16.549  33.827   8.808
 1981POPC   D2A29296  16.758  33.745   8.377
 1981POPC   C3A29297  16.504  33.742   7.998
 1981POPC   C4A29298  16.266  34.095   7.848
 1981POPC   C1B29299  17.103  33.605   8.753
 1981POPC   C2B29300  17.314  33.524   8.379
 1981POPC   C3B29301  17.156  33.613   7.970
 1981POPC   C4B29302  16.924  33.986   7.848
 1982POPC   NC329303   0.769  23.143   9.546
 1982POPC   PO429304   0.252  22.759   9.561
 1982POPC   GL129305   0.488  22.620   9.172
 1982POPC   GL229306   0.647  22.884   9.140
 1982POPC   C1A29307   0.748  22.585   8.762
 1982POPC   D2A29308   0.560  22.659   8.368
 1982POPC   C3A29309   0.620  22.784   7.936
 1982POPC   C4A29310   0.227  22.772   7.682
 1982POPC   C1B29311   0.463  23.015   8.729
 1982POPC   C2B29312   0.518  23.174   8.281
 1982POPC   C3B29313   0.408  23.234   7.827
 1982POPC   C4B29314   0.690  23.321   7.467
 1983POPC   NC329315  41.875  39.734   9.628
 1983POPC   PO429316  41.397  40.153   9.929
 1983POPC   GL129317  41.532  40.010   9.377
 1983POPC   GL229318  41.372  40.276   9.094
 1983POPC   C1A29319  41.708  39.965   8.912
 1983POPC   D2A29320  41.525  40.077   8.468
 1983POPC   C3A29321  41.731  40.018   8.084
 1983POPC   C4A29322  41.812  40.143   7.669
 1983POPC   C1B29323  41.239  40.454   8.694
 1983POPC   C2B29324  41.179  40.538   8.253
 1983POPC   C3B29325  41.400  40.373   7.893
 1983POPC   C4B29326  41.307  39.931   7.765
 1984POPC   NC329327  29.619  16.717   9.823
 1984POPC   PO429328  28.993  16.725   9.614
 1984POPC   GL129329  28.865  16.818   9.214
 1984POPC   GL229330  29.150  16.984   9.102
 1984POPC   C1A29331  28.926  16.668   8.787
 1984POPC   D2A29332  28.697  16.779   8.430
 1984POPC   C3A29333  28.885  16.818   8.019
 1984POPC   C4A29334  29.054  16.459   7.765
 1984POPC   C1B29335  29.175  17.170   8.706
 1984POPC   C2B29336  29.374  17.289   8.331
 1984POPC   C3B29337  29.427  16.922   8.071
 1984POPC   C4B29338  29.274  16.904   7.684
 1985POPC   NC329339   8.620  38.608   9.369
 1985POPC   PO429340   9.114  38.205   9.189
 1985POPC   GL129341   8.867  38.438   8.952
 1985POPC   GL229342   9.039  38.732   9.076
 1985POPC   C1A29343   8.874  38.348   8.517
 1985POPC   D2A29344   8.933  37.986   8.226
 1985POPC   C3A29345   8.931  38.212   7.864
 1985POPC   C4A29346   8.686  38.559   7.872
 1985POPC   C1B29347   8.901  38.867   8.683
 1985POPC   C2B29348   9.004  38.783   8.268
 1985POPC   C3B29349   8.942  38.995   7.924
 1985POPC   C4B29350   9.043  38.997   7.514
 1986POPC   NC329351  37.986  41.013   9.334
 1986POPC   PO429352  38.614  41.239   9.536
 1986POPC   GL129353  38.467  40.916   9.212
 1986POPC   GL229354  38.561  40.604   9.142
 1986POPC   C1A29355  38.392  40.900   8.752
 1986POPC   D2A29356  38.151  40.853   8.381
 1986POPC   C3A29357  38.359  40.891   8.018
 1986POPC   C4A29358  38.322  40.667   7.634
 1986POPC   C1B29359  38.245  40.424   8.882
 1986POPC   C2B29360  38.093  40.334   8.452
 1986POPC   C3B29361  38.323  40.386   8.074
 1986POPC   C4B29362  38.415  40.168   7.730
 1987POPC   NC329363  32.585  25.590   9.426
 1987POPC   PO429364  32.046  25.111   9.442
 1987POPC   GL129365  32.180  25.386   9.158
 1987POPC   GL229366  32.477  25.199   9.072
 1987POPC   C1A29367  32.109  25.413   8.740
 1987POPC   D2A29368  32.301  25.044   8.504
 1987POPC   C3A29369  32.446  25.089   8.073
 1987POPC   C4A29370  32.247  25.338   7.765
 1987POPC   C1B29371  32.603  25.457   8.737
 1987POPC   C2B29372  32.427  25.549   8.324
 1987POPC   C3B29373  32.669  25.555   7.956
 1987POPC   C4B29374  32.714  25.516   7.527
 1988POPC   NC329375   3.823   1.721   9.369
 1988POPC   PO429376   3.266   1.987   9.633
 1988POPC   GL129377   3.438   2.002   9.190
 1988POPC   GL229378   3.356   2.312   9.002
 1988POPC   C1A29379   3.504   1.887   8.769
 1988POPC   D2A29380   3.576   1.965   8.367
 1988POPC   C3A29381   3.699   1.737   8.009
 1988POPC   C4A29382   3.594   1.975   7.641
 1988POPC   C1B29383   3.148   2.252   8.635
 1988POPC   C2B29384   3.098   2.111   8.257
 1988POPC   C3B29385   3.368   2.292   8.031
 1988POPC   C4B29386   3.468   2.461   7.675
 1989POPC   NC329387  43.950  41.220   9.344
 1989POPC   PO429388  43.764  41.846   9.571
 1989POPC   GL129389  43.853  41.689   9.150
 1989POPC   GL229390  43.549  41.803   9.026
 1989POPC   C1A29391  44.001  41.451   8.752
 1989POPC   D2A29392  44.202  41.387   8.338
 1989POPC   C3A29393  43.983  41.393   7.888
 1989POPC   C4A29394  44.004  41.310   7.376
 1989POPC   C1B29395  43.762  41.901   8.664
 1989POPC   C2B29396  43.872  41.783   8.258
 1989POPC   C3B29397  43.535  41.664   7.980
 1989POPC   C4B29398  43.289  41.826   7.648
 1990POPC   NC329399   3.024  34.639   9.584
 1990POPC   PO429400   2.467  34.207   9.377
 1990POPC   GL129401   2.598  34.460   9.035
 1990POPC   GL229402   2.863  34.691   9.116
 1990POPC   C1A29403   2.597  34.710   8.691
 1990POPC   D2A29404   2.595  34.761   8.273
 1990POPC   C3A29405   2.655  34.388   8.005
 1990POPC   C4A29406   2.753  34.408   7.557
 1990POPC   C1B29407   3.120  34.490   8.780
 1990POPC   C2B29408   3.299  34.369   8.357
 1990POPC   C3B29409   3.173  34.466   7.921
 1990POPC   C4B29410   2.893  34.821   7.829
 1991POPC   NC329411  19.118  24.210   9.601
 1991POPC   PO429412  18.853  24.858   9.596
 1991POPC   GL129413  19.079  24.629   9.287
 1991POPC   GL229414  18.884  24.383   9.114
 1991POPC   C1A29415  19.333  24.587   8.919
 1991POPC   D2A29416  19.326  24.691   8.490
 1991POPC   C3A29417  19.433  24.466   8.129
 1991POPC   C4A29418  19.237  24.326   7.759
 1991POPC   C1B29419  18.927  24.408   8.668
 1991POPC   C2B29420  18.812  24.574   8.275
 1991POPC   C3B29421  18.721  24.399   7.895
 1991POPC   C4B29422  18.786  24.125   7.561
 1992POPC   NC329423  38.731  33.141   9.534
 1992POPC   PO429424  38.097  33.285   9.454
 1992POPC   GL129425  38.404  33.153   9.101
 1992POPC   GL229426  38.637  33.399   9.036
 1992POPC   C1A29427  38.479  32.829   8.771
 1992POPC   D2A29428  38.362  32.773   8.361
 1992POPC   C3A29429  38.455  32.956   7.966
 1992POPC   C4A29430  38.254  32.921   7.548
 1992POPC   C1B29431  38.399  33.299   8.618
 1992POPC   C2B29432  38.108  33.223   8.270
 1992POPC   C3B29433  38.141  33.339   7.811
 1992POPC   C4B29434  38.453  33.377   7.451
 1993POPC   NC329435  27.277   9.412   9.513
 1993POPC   PO429436  27.890   9.563   9.578
 1993POPC   GL129437  27.655   9.577   9.220
 1993POPC   GL229438  27.754   9.894   9.114
 1993POPC   C1A29439  27.734   9.378   8.844
 1993POPC   D2A29440  27.936   9.473   8.465
 1993POPC   C3A29441  27.642   9.381   8.137
 1993POPC   C4A29442  27.573   9.581   7.730
 1993POPC   C1B29443  27.742  10.089   8.714
 1993POPC   C2B29444  27.794  10.245   8.297
 1993POPC   C3B29445  27.685  10.105   7.877
 1993POPC   C4B29446  27.967  10.180   7.539
 1994POPC   NC329447  14.993  34.149   9.860
 1994POPC   PO429448  15.136  34.575   9.355
 1994POPC   GL129449  15.321  34.686   9.031
 1994POPC   GL229450  15.648  34.817   9.114
 1994POPC   C1A29451  15.162  34.659   8.647
 1994POPC   D2A29452  15.281  34.331   8.411
 1994POPC   C3A29453  15.156  34.434   8.023
 1994POPC   C4A29454  15.293  34.266   7.659
 1994POPC   C1B29455  15.497  35.049   8.742
 1994POPC   C2B29456  15.233  35.164   8.436
 1994POPC   C3B29457  15.258  35.078   8.026
 1994POPC   C4B29458  15.233  34.810   7.677
 1995POPC   NC329459   3.156  27.360   9.364
 1995POPC   PO429460   2.709  27.800   9.357
 1995POPC   GL129461   2.837  27.544   9.040
 1995POPC   GL229462   2.652  27.251   9.204
 1995POPC   C1A29463   2.954  27.532   8.610
 1995POPC   D2A29464   3.237  27.520   8.263
 1995POPC   C3A29465   2.980  27.752   7.946
 1995POPC   C4A29466   2.679  27.984   7.700
 1995POPC   C1B29467   2.424  27.377   8.834
 1995POPC   C2B29468   2.375  27.559   8.435
 1995POPC   C3B29469   2.567  27.467   8.047
 1995POPC   C4B29470   2.473  27.315   7.633
 1996POPC   NC329471  10.765  10.987   9.542
 1996POPC   PO429472  10.333  11.468   9.492
 1996POPC   GL129473  10.578  11.302   9.174
 1996POPC   GL229474  10.433  10.939   9.165
 1996POPC   C1A29475  10.629  11.534   8.772
 1996POPC   D2A29476  10.438  11.694   8.388
 1996POPC   C3A29477  10.701  11.594   8.044
 1996POPC   C4A29478  10.568  11.506   7.623
 1996POPC   C1B29479  10.471  11.042   8.750
 1996POPC   C2B29480  10.596  11.187   8.377
 1996POPC   C3B29481  10.419  11.175   8.011
 1996POPC   C4B29482  10.421  11.008   7.638
 1997POPC   NC329483  40.903  42.119   9.312
 1997POPC   PO429484  40.879  41.418   9.428
 1997POPC   GL129485  40.590  41.607   9.192
 1997POPC   GL229486  40.331  41.360   9.240
 1997POPC   C1A29487  40.724  41.706   8.793
 1997POPC   D2A29488  40.559  41.925   8.475
 1997POPC   C3A29489  40.630  41.821   8.028
 1997POPC   C4A29490  40.889  41.508   7.792
 1997POPC   C1B29491  40.509  41.205   8.845
 1997POPC   C2B29492  40.626  41.346   8.440
 1997POPC   C3B29493  40.471  41.336   8.042
 1997POPC   C4B29494  40.547  41.142   7.661
 1998POPC   NC329495   1.126  38.677   9.470
 1998POPC   PO429496   1.649  38.294   9.515
 1998POPC   GL129497   1.392  38.383   9.162
 1998POPC   GL229498   1.522  38.708   9.118
 1998POPC   C1A29499   1.128  38.583   8.804
 1998POPC   D2A29500   0.813  38.710   8.461
 1998POPC   C3A29501   0.999  38.636   8.074
 1998POPC   C4A29502   1.184  38.288   7.922
 1998POPC   C1B29503   1.587  38.762   8.681
 1998POPC   C2B29504   1.546  38.521   8.314
 1998POPC   C3B29505   1.515  38.679   7.943
 1998POPC   C4B29506   1.256  38.696   7.597
 1999POPC   NC329507  19.178  32.403   9.478
 1999POPC   PO429508  18.536  32.053   9.577
 1999POPC   GL129509  18.747  32.103   9.100
 1999POPC   GL229510  19.081  32.077   9.075
 1999POPC   C1A29511  18.795  32.339   8.665
 1999POPC   D2A29512  18.757  32.634   8.323
 1999POPC   C3A29513  18.777  32.404   7.942
 1999POPC   C4A29514  18.788  32.210   7.472
 1999POPC   C1B29515  19.258  32.135   8.704
 1999POPC   C2B29516  19.148  32.268   8.283
 1999POPC   C3B29517  19.091  32.026   7.918
 1999POPC   C4B29518  19.281  32.137   7.518
 2000POPC   NC329519   2.628  15.453   9.585
 2000POPC   PO429520   3.113  14.949   9.461
 2000POPC   GL129521   2.926  15.283   9.194
 2000POPC   GL229522   3.140  15.574   9.254
 2000POPC   C1A29523   2.625  15.256   8.819
 2000POPC   D2A29524   2.715  14.933   8.478
 2000POPC   C3A29525   2.563  15.120   8.103
 2000POPC   C4A29526   2.472  14.930   7.712
 2000POPC   C1B29527   3.004  15.622   8.817
 2000POPC   C2B29528   2.908  15.423   8.414
 2000POPC   C3B29529   2.929  15.565   7.984
 2000POPC   C4B29530   2.646  15.433   7.693
 2001POPC   NC329531  18.275   9.477   9.614
 2001POPC   PO429532  18.826   9.884   9.530
 2001POPC   GL129533  18.579   9.887   9.138
 2001POPC   GL229534  18.239   9.756   9.167
 2001POPC   C1A29535  18.447   9.709   8.705
 2001POPC   D2A29536  18.464   9.898   8.289
 2001POPC   C3A29537  18.280   9.670   7.873
 2001POPC   C4A29538  18.337   9.637   7.385
 2001POPC   C1B29539  17.971   9.865   8.793
 2001POPC   C2B29540  17.992   9.723   8.349
 2001POPC   C3B29541  17.843   9.909   7.955
 2001POPC   C4B29542  17.872   9.818   7.510
 2002POPC   NC329543  20.573   4.628   9.816
 2002POPC   PO429544  20.568   4.156   9.304
 2002POPC   GL129545  20.832   4.178   8.988
 2002POPC   GL229546  20.968   3.916   8.931
 2002POPC   C1A29547  20.718   4.147   8.541
 2002POPC   D2A29548  20.351   4.242   8.293
 2002POPC   C3A29549  20.393   4.524   7.943
 2002POPC   C4A29550  20.547   4.415   7.545
 2002POPC   C1B29551  21.230   4.202   8.660
 2002POPC   C2B29552  21.106   4.362   8.257
 2002POPC   C3B29553  20.769   4.165   7.998
 2002POPC   C4B29554  20.610   3.923   7.628
 2003POPC   NC329555   4.000  14.273   9.546
 2003POPC   PO429556   4.609  14.566   9.507
 2003POPC   GL129557   4.397  14.315   9.191
 2003POPC   GL229558   4.682  14.385   9.024
 2003POPC   C1A29559   4.261  14.226   8.759
 2003POPC   D2A29560   4.339  14.360   8.335
 2003POPC   C3A29561   4.258  14.148   7.957
 2003POPC   C4A29562   4.259  14.570   7.784
 2003POPC   C1B29563   4.776  14.158   8.709
 2003POPC   C2B29564   4.871  14.378   8.350
 2003POPC   C3B29565   4.730  14.372   7.931
 2003POPC   C4B29566   4.710  14.689   7.590
 2004POPC   NC329567  43.176   6.844   9.342
 2004POPC   PO429568  43.210   6.277   9.675
 2004POPC   GL129569  43.048   6.367   9.216
 2004POPC   GL229570  42.719   6.526   9.134
 2004POPC   C1A29571  43.159   6.470   8.756
 2004POPC   D2A29572  43.254   6.727   8.364
 2004POPC   C3A29573  43.185   6.549   7.935
 2004POPC   C4A29574  43.201   6.707   7.500
 2004POPC   C1B29575  42.747   6.777   8.738
 2004POPC   C2B29576  42.738   6.658   8.305
 2004POPC   C3B29577  42.565   6.437   7.958
 2004POPC   C4B29578  42.775   6.475   7.613
 2005POPC   NC329579   1.619  44.452   9.494
 2005POPC   PO429580   2.222  44.746   9.532
 2005POPC   GL129581   2.025  44.567   9.206
 2005POPC   GL229582   1.854  44.836   9.107
 2005POPC   C1A29583   2.135  44.469   8.805
 2005POPC   D2A29584   1.961  44.652   8.471
 2005POPC   C3A29585   2.092  44.638   8.077
 2005POPC   C4A29586   2.208  44.400   7.722
 2005POPC   C1B29587   1.660  44.999   8.758
 2005POPC   C2B29588   1.509  44.883   8.363
 2005POPC   C3B29589   1.653  44.946   7.943
 2005POPC   C4B29590   1.433  44.841   7.568
 2006POPC   NC329591  17.008  31.820   9.434
 2006POPC   PO429592  16.436  32.095   9.362
 2006POPC   GL129593  16.781  32.132   9.082
 2006POPC   GL229594  16.876  32.470   9.027
 2006POPC   C1A29595  16.836  32.089   8.642
 2006POPC   D2A29596  16.799  32.361   8.284
 2006POPC   C3A29597  16.787  32.199   7.866
 2006POPC   C4A29598  17.029  31.873   7.674
 2006POPC   C1B29599  16.466  32.441   8.758
 2006POPC   C2B29600  16.276  32.365   8.365
 2006POPC   C3B29601  16.372  32.489   7.952
 2006POPC   C4B29602  16.555  32.519   7.526
 2007POPC   NC329603  10.183  10.051   9.305
 2007POPC   PO429604  10.551  10.579   9.589
 2007POPC   GL129605  10.550  10.402   9.194
 2007POPC   GL229606  10.887  10.226   9.138
 2007POPC   C1A29607  10.347  10.554   8.809
 2007POPC   D2A29608  10.208  10.523   8.390
 2007POPC   C3A29609  10.402  10.648   8.023
 2007POPC   C4A29610  10.224  10.538   7.617
 2007POPC   C1B29611  10.858  10.621   8.871
 2007POPC   C2B29612  10.737  10.692   8.445
 2007POPC   C3B29613  10.911  10.608   8.036
 2007POPC   C4B29614  10.714  10.413   7.694
 2008POPC   NC329615  28.510  26.568   9.547
 2008POPC   PO429616  28.158  25.932   9.481
 2008POPC   GL129617  28.343  26.020   9.090
 2008POPC   GL229618  28.584  26.246   9.179
 2008POPC   C1A29619  28.309  25.964   8.634
 2008POPC   D2A29620  28.192  26.084   8.215
 2008POPC   C3A29621  28.383  25.967   7.850
 2008POPC   C4A29622  28.457  25.587   7.643
 2008POPC   C1B29623  28.550  26.408   8.794
 2008POPC   C2B29624  28.618  26.312   8.398
 2008POPC   C3B29625  28.737  26.300   8.009
 2008POPC   C4B29626  28.643  26.351   7.579
 2009POPC   NC329627  35.310  37.015   9.498
 2009POPC   PO429628  35.009  36.602   9.123
 2009POPC   GL129629  35.436  36.782   9.055
 2009POPC   GL229630  35.384  37.125   9.026
 2009POPC   C1A29631  35.667  36.908   8.673
 2009POPC   D2A29632  35.462  36.849   8.274
 2009POPC   C3A29633  35.494  37.070   7.913
 2009POPC   C4A29634  35.576  36.838   7.583
 2009POPC   C1B29635  35.183  37.079   8.634
 2009POPC   C2B29636  35.228  37.332   8.269
 2009POPC   C3B29637  35.095  37.403   7.868
 2009POPC   C4B29638  35.152  37.291   7.444
 2010POPC   NC329639  27.872  43.385   9.488
 2010POPC   PO429640  28.254  44.012   9.387
 2010POPC   GL129641  28.278  43.617   9.191
 2010POPC   GL229642  27.961  43.683   9.077
 2010POPC   C1A29643  28.325  43.598   8.744
 2010POPC   D2A29644  28.406  43.909   8.445
 2010POPC   C3A29645  28.446  43.763   8.029
 2010POPC   C4A29646  28.570  43.960   7.654
 2010POPC   C1B29647  27.991  44.027   8.741
 2010POPC   C2B29648  27.994  44.203   8.291
 2010POPC   C3B29649  28.111  44.155   7.816
 2010POPC   C4B29650  28.170  44.117   7.341
 2011POPC   NC329651  20.016  24.632   9.729
 2011POPC   PO429652  19.341  24.639   9.739
 2011POPC   GL129653  19.614  24.537   9.329
 2011POPC   GL229654  19.918  24.715   9.220
 2011POPC   C1A29655  19.791  24.385   8.867
 2011POPC   D2A29656  19.807  24.268   8.420
 2011POPC   C3A29657  19.943  24.458   8.017
 2011POPC   C4A29658  19.928  24.281   7.610
 2011POPC   C1B29659  19.905  24.868   8.798
 2011POPC   C2B29660  19.813  24.776   8.390
 2011POPC   C3B29661  19.714  24.924   7.961
 2011POPC   C4B29662  19.479  24.765   7.606
 2012POPC   NC329663  22.661   6.989   9.423
 2012POPC   PO429664  23.099   6.516   9.709
 2012POPC   GL129665  23.227   6.591   9.237
 2012POPC   GL229666  23.194   6.272   9.081
 2012POPC   C1A29667  23.203   6.847   8.813
 2012POPC   D2A29668  23.070   6.764   8.359
 2012POPC   C3A29669  22.687   6.807   8.105
 2012POPC   C4A29670  22.466   6.703   7.745
 2012POPC   C1B29671  23.318   6.362   8.665
 2012POPC   C2B29672  23.163   6.274   8.246
 2012POPC   C3B29673  23.150   6.416   7.823
 2012POPC   C4B29674  23.482   6.350   7.536
 2013POPC   NC329675  23.991  17.375   9.577
 2013POPC   PO429676  23.782  17.946   9.250
 2013POPC   GL129677  23.943  17.560   9.102
 2013POPC   GL229678  23.701  17.318   9.140
 2013POPC   C1A29679  24.015  17.331   8.720
 2013POPC   D2A29680  23.725  17.193   8.372
 2013POPC   C3A29681  23.768  17.446   7.999
 2013POPC   C4A29682  24.041  17.396   7.658
 2013POPC   C1B29683  23.500  17.429   8.770
 2013POPC   C2B29684  23.467  17.646   8.371
 2013POPC   C3B29685  23.291  17.617   7.941
 2013POPC   C4B29686  23.282  17.496   7.515
 2014POPC   NC329687  14.946   9.957   9.612
 2014POPC   PO429688  15.418   9.570   9.526
 2014POPC   GL129689  15.085   9.639   9.180
 2014POPC   GL229690  14.966  10.004   9.114
 2014POPC   C1A29691  14.942   9.699   8.722
 2014POPC   D2A29692  14.850   9.981   8.346
 2014POPC   C3A29693  15.099   9.867   7.951
 2014POPC   C4A29694  15.381   9.505   7.821
 2014POPC   C1B29695  15.379   9.966   8.880
 2014POPC   C2B29696  15.606  10.168   8.515
 2014POPC   C3B29697  15.664  10.018   8.078
 2014POPC   C4B29698  15.572   9.933   7.654
 2015POPC   NC329699  34.075  39.317   9.522
 2015POPC   PO429700  33.455  39.178   9.559
 2015POPC   GL129701  33.688  39.186   9.213
 2015POPC   GL229702  33.721  39.542   9.189
 2015POPC   C1A29703  33.925  39.132   8.821
 2015POPC   D2A29704  33.791  38.869   8.470
 2015POPC   C3A29705  33.961  38.990   8.063
 2015POPC   C4A29706  33.818  38.828   7.665
 2015POPC   C1B29707  33.637  39.582   8.745
 2015POPC   C2B29708  33.708  39.406   8.319
 2015POPC   C3B29709  33.568  39.492   7.888
 2015POPC   C4B29710  33.612  39.514   7.428
 2016POPC   NC329711   4.773  14.091   9.449
 2016POPC   PO429712   5.412  14.338   9.485
 2016POPC   GL129713   5.173  14.189   9.130
 2016POPC   GL229714   5.326  13.897   8.950
 2016POPC   C1A29715   5.192  14.474   8.788
 2016POPC   D2A29716   5.490  14.511   8.440
 2016POPC   C3A29717   5.325  14.347   8.084
 2016POPC   C4A29718   5.168  14.445   7.679
 2016POPC   C1B29719   5.243  14.037   8.532
 2016POPC   C2B29720   5.007  13.932   8.153
 2016POPC   C3B29721   5.181  13.951   7.772
 2016POPC   C4B29722   5.562  14.108   7.682
 2017POPC   NC329723   1.698  30.945   9.468
 2017POPC   PO429724   2.344  30.689   9.601
 2017POPC   GL129725   2.154  30.655   9.197
 2017POPC   GL229726   1.800  30.548   9.156
 2017POPC   C1A29727   2.224  30.826   8.792
 2017POPC   D2A29728   2.290  30.612   8.433
 2017POPC   C3A29729   2.149  30.560   8.028
 2017POPC   C4A29730   2.206  30.823   7.668
 2017POPC   C1B29731   1.724  30.729   8.755
 2017POPC   C2B29732   1.851  30.854   8.332
 2017POPC   C3B29733   1.735  30.899   7.892
 2017POPC   C4B29734   1.780  30.910   7.426
 2018POPC   NC329735   3.597  32.778   9.460
 2018POPC   PO429736   3.117  33.328   9.511
 2018POPC   GL129737   3.347  33.112   9.175
 2018POPC   GL229738   3.742  33.179   9.141
 2018POPC   C1A29739   3.425  32.970   8.763
 2018POPC   D2A29740   3.316  33.182   8.399
 2018POPC   C3A29741   3.332  32.955   8.028
 2018POPC   C4A29742   3.348  33.174   7.666
 2018POPC   C1B29743   3.940  32.975   8.761
 2018POPC   C2B29744   3.810  32.941   8.324
 2018POPC   C3B29745   3.832  33.091   7.894
 2018POPC   C4B29746   3.780  32.928   7.474
 2019POPC   NC329747   6.617  33.970   9.793
 2019POPC   PO429748   6.554  33.269   9.644
 2019POPC   GL129749   6.674  33.564   9.257
 2019POPC   GL229750   6.428  33.769   9.188
 2019POPC   C1A29751   6.806  33.862   8.863
 2019POPC   D2A29752   6.765  33.617   8.456
 2019POPC   C3A29753   6.792  33.791   8.060
 2019POPC   C4A29754   6.810  33.551   7.684
 2019POPC   C1B29755   6.348  33.638   8.761
 2019POPC   C2B29756   6.370  33.900   8.376
 2019POPC   C3B29757   6.257  34.021   7.988
 2019POPC   C4B29758   6.506  33.959   7.650
 2020POPC   NC329759   9.948   0.080   9.517
 2020POPC   PO429760   9.924   0.793   9.704
 2020POPC   GL129761   9.911   0.507   9.284
 2020POPC   GL229762   9.633   0.430   9.113
 2020POPC   C1A29763  10.000   0.521   8.806
 2020POPC   D2A29764   9.781   0.520   8.407
 2020POPC   C3A29765   9.777   0.838   8.130
 2020POPC   C4A29766   9.832   0.686   7.722
 2020POPC   C1B29767   9.625   0.179   8.749
 2020POPC   C2B29768   9.546   0.065   8.331
 2020POPC   C3B29769   9.698   0.233   7.948
 2020POPC   C4B29770  10.142   0.210   7.774
 2021POPC   NC329771  24.505  36.582   9.424
 2021POPC   PO429772  24.097  37.168   9.555
 2021POPC   GL129773  24.412  37.062   9.251
 2021POPC   GL229774  24.255  36.873   9.085
 2021POPC   C1A29775  24.584  37.206   8.850
 2021POPC   D2A29776  24.453  37.244   8.408
 2021POPC   C3A29777  24.681  37.017   8.081
 2021POPC   C4A29778  24.640  36.950   7.617
 2021POPC   C1B29779  24.436  36.730   8.688
 2021POPC   C2B29780  24.675  36.541   8.335
 2021POPC   C3B29781  24.502  36.558   7.928
 2021POPC   C4B29782  24.194  36.913   7.868
 2022POPC   NC329783  13.625  15.430   9.392
 2022POPC   PO429784  14.097  15.012   9.235
 2022POPC   GL129785  13.827  15.194   9.001
 2022POPC   GL229786  13.527  14.988   8.985
 2022POPC   C1A29787  13.800  15.317   8.615
 2022POPC   D2A29788  13.565  15.528   8.386
 2022POPC   C3A29789  13.632  15.362   8.007
 2022POPC   C4A29790  13.567  15.542   7.646
 2022POPC   C1B29791  13.806  14.819   8.658
 2022POPC   C2B29792  13.741  14.899   8.238
 2022POPC   C3B29793  13.362  14.915   7.981
 2022POPC   C4B29794  13.487  15.017   7.571
 2023POPC   NC329795  31.631  19.529   9.467
 2023POPC   PO429796  31.097  19.184   9.437
 2023POPC   GL129797  31.295  18.955   9.101
 2023POPC   GL229798  31.528  19.235   9.036
 2023POPC   C1A29799  31.301  18.911   8.638
 2023POPC   D2A29800  31.475  19.116   8.258
 2023POPC   C3A29801  31.405  18.955   7.832
 2023POPC   C4A29802  31.175  19.058   7.435
 2023POPC   C1B29803  31.787  19.094   8.692
 2023POPC   C2B29804  31.981  19.052   8.283
 2023POPC   C3B29805  31.826  19.275   7.897
 2023POPC   C4B29806  31.678  19.225   7.483
 2024POPC   NC329807   2.416   4.842   9.423
 2024POPC   PO429808   2.015   5.205   9.743
 2024POPC   GL129809   2.096   5.218   9.256
 2024POPC   GL229810   1.882   5.423   9.046
 2024POPC   C1A29811   2.193   5.068   8.812
 2024POPC   D2A29812   2.195   5.243   8.375
 2024POPC   C3A29813   2.200   4.874   8.068
 2024POPC   C4A29814   1.821   4.834   7.773
 2024POPC   C1B29815   1.736   5.222   8.655
 2024POPC   C2B29816   1.738   5.053   8.247
 2024POPC   C3B29817   1.982   5.292   7.915
 2024POPC   C4B29818   1.900   5.303   7.522
 2025POPC   NC329819   0.343   0.398   9.376
 2025POPC   PO429820   0.989   0.396   9.509
 2025POPC   GL129821   0.801   0.372   9.101
 2025POPC   GL229822   0.575   0.653   9.016
 2025POPC   C1A29823   0.684   0.313   8.645
 2025POPC   D2A29824   0.686   0.216   8.189
 2025POPC   C3A29825   0.278   0.231   7.983
 2025POPC   C4A29826   0.240   0.362   7.558
 2025POPC   C1B29827   0.498   0.881   8.664
 2025POPC   C2B29828   0.418   0.858   8.246
 2025POPC   C3B29829   0.572   0.651   7.866
 2025POPC   C4B29830   0.568   0.731   7.418
 2026POPC   NC329831  23.386  10.793   9.457
 2026POPC   PO429832  24.010  10.562   9.647
 2026POPC   GL129833  23.793  10.553   9.254
 2026POPC   GL229834  23.909  10.245   9.222
 2026POPC   C1A29835  23.592  10.462   8.857
 2026POPC   D2A29836  23.778  10.508   8.469
 2026POPC   C3A29837  23.625  10.418   8.075
 2026POPC   C4A29838  23.569  10.760   7.796
 2026POPC   C1B29839  24.072  10.241   8.827
 2026POPC   C2B29840  24.046  10.070   8.414
 2026POPC   C3B29841  24.108  10.233   8.015
 2026POPC   C4B29842  23.924  10.392   7.669
 2027POPC   NC329843   1.148   8.666   9.268
 2027POPC   PO429844   0.982   8.092   9.507
 2027POPC   GL129845   0.947   8.164   9.066
 2027POPC   GL229846   1.290   8.220   9.016
 2027POPC   C1A29847   1.059   8.122   8.588
 2027POPC   D2A29848   1.267   8.043   8.199
 2027POPC   C3A29849   1.061   8.229   7.872
 2027POPC   C4A29850   0.955   8.283   7.438
 2027POPC   C1B29851   1.563   8.197   8.637
 2027POPC   C2B29852   1.794   8.151   8.244
 2027POPC   C3B29853   1.607   8.313   7.873
 2027POPC   C4B29854   1.424   8.081   7.541
 2028POPC   NC329855  17.251  40.801   9.471
 2028POPC   PO429856  17.858  41.106   9.448
 2028POPC   GL129857  17.688  40.843   9.095
 2028POPC   GL229858  17.391  40.603   9.045
 2028POPC   C1A29859  17.694  40.742   8.644
 2028POPC   D2A29860  17.744  40.569   8.245
 2028POPC   C3A29861  17.737  40.914   7.927
 2028POPC   C4A29862  17.631  40.892   7.461
 2028POPC   C1B29863  17.162  40.705   8.729
 2028POPC   C2B29864  17.102  40.520   8.364
 2028POPC   C3B29865  17.287  40.598   7.991
 2028POPC   C4B29866  17.139  40.852   7.694
 2029POPC   NC329867  29.790  34.035   9.646
 2029POPC   PO429868  30.278  33.648   9.477
 2029POPC   GL129869  30.099  33.863   9.133
 2029POPC   GL229870  29.734  33.885   9.161
 2029POPC   C1A29871  30.214  33.815   8.715
 2029POPC   D2A29872  29.945  33.846   8.384
 2029POPC   C3A29873  30.160  33.810   8.040
 2029POPC   C4A29874  29.842  33.866   7.761
 2029POPC   C1B29875  29.789  33.561   8.831
 2029POPC   C2B29876  30.034  33.366   8.468
 2029POPC   C3B29877  29.862  33.394   8.036
 2029POPC   C4B29878  29.932  33.187   7.626
 2030POPC   NC329879  12.715  38.615   9.483
 2030POPC   PO429880  13.300  38.630   9.267
 2030POPC   GL129881  12.915  38.694   9.024
 2030POPC   GL229882  12.649  38.382   9.041
 2030POPC   C1A29883  12.711  38.674   8.632
 2030POPC   D2A29884  12.567  38.309   8.477
 2030POPC   C3A29885  12.713  38.267   8.064
 2030POPC   C4A29886  12.775  38.587   7.767
 2030POPC   C1B29887  12.997  38.249   8.802
 2030POPC   C2B29888  13.083  38.135   8.429
 2030POPC   C3B29889  13.270  38.139   8.061
 2030POPC   C4B29890  13.101  38.204   7.648
 2031POPC   NC329891  34.422   6.753   9.605
 2031POPC   PO429892  34.925   6.387   9.817
 2031POPC   GL129893  34.870   6.534   9.330
 2031POPC   GL229894  34.646   6.826   9.149
 2031POPC   C1A29895  34.860   6.493   8.844
 2031POPC   D2A29896  34.916   6.539   8.363
 2031POPC   C3A29897  34.612   6.470   8.008
 2031POPC   C4A29898  34.677   6.384   7.565
 2031POPC   C1B29899  34.590   6.900   8.660
 2031POPC   C2B29900  34.442   6.912   8.218
 2031POPC   C3B29901  34.584   6.964   7.782
 2031POPC   C4B29902  34.495   7.097   7.339
 2032POPC   NC329903  26.591  23.613   9.446
 2032POPC   PO429904  27.184  24.031   9.501
 2032POPC   GL129905  26.900  23.909   9.116
 2032POPC   GL229906  26.549  23.978   9.092
 2032POPC   C1A29907  26.742  23.590   8.805
 2032POPC   D2A29908  26.914  23.433   8.422
 2032POPC   C3A29909  26.688  23.306   8.050
 2032POPC   C4A29910  27.008  23.381   7.706
 2032POPC   C1B29911  26.365  23.945   8.725
 2032POPC   C2B29912  26.651  23.916   8.396
 2032POPC   C3B29913  26.782  23.812   8.000
 2032POPC   C4B29914  26.786  24.041   7.620
 2033POPC   NC329915  44.702  29.622   9.579
 2033POPC   PO429916  44.924  30.269   9.638
 2033POPC   GL129917  44.937  29.980   9.284
 2033POPC   GL229918  44.599  29.975   9.113
 2033POPC   C1A29919   0.034  29.783   8.889
 2033POPC   D2A29920  44.927  29.611   8.479
 2033POPC   C3A29921  44.802  29.883   8.150
 2033POPC   C4A29922  44.899  29.844   7.718
 2033POPC   C1B29923  44.357  30.261   8.818
 2033POPC   C2B29924  44.138  30.262   8.406
 2033POPC   C3B29925  44.245  30.391   7.990
 2033POPC   C4B29926  44.313  30.445   7.566
 2034POPC   NC329927  24.793  23.276   9.357
 2034POPC   PO429928  24.612  23.913   9.559
 2034POPC   GL129929  24.513  23.925   9.156
 2034POPC   GL229930  24.202  24.051   9.131
 2034POPC   C1A29931  24.435  23.792   8.735
 2034POPC   D2A29932  24.270  23.621   8.368
 2034POPC   C3A29933  24.449  23.712   7.975
 2034POPC   C4A29934  24.334  23.526   7.593
 2034POPC   C1B29935  24.059  24.261   8.818
 2034POPC   C2B29936  24.018  24.047   8.472
 2034POPC   C3B29937  24.149  24.120   8.083
 2034POPC   C4B29938  24.205  24.043   7.651
 2035POPC   NC329939   1.478  13.321   9.680
 2035POPC   PO429940   1.111  13.836   9.512
 2035POPC   GL129941   1.122  13.595   9.143
 2035POPC   GL229942   1.410  13.387   9.175
 2035POPC   C1A29943   1.291  13.757   8.755
 2035POPC   D2A29944   1.385  14.014   8.384
 2035POPC   C3A29945   1.158  13.855   8.035
 2035POPC   C4A29946   1.364  13.775   7.673
 2035POPC   C1B29947   1.341  13.245   8.760
 2035POPC   C2B29948   1.174  13.379   8.345
 2035POPC   C3B29949   1.390  13.357   7.951
 2035POPC   C4B29950   1.274  13.219   7.526
 2036POPC   NC329951   3.481  17.853   9.926
 2036POPC   PO429952   3.615  17.343   9.492
 2036POPC   GL129953   3.608  17.199   9.105
 2036POPC   GL229954   3.296  17.214   9.075
 2036POPC   C1A29955   3.584  17.368   8.683
 2036POPC   D2A29956   3.878  17.565   8.410
 2036POPC   C3A29957   3.693  17.624   8.035
 2036POPC   C4A29958   3.721  17.524   7.627
 2036POPC   C1B29959   3.040  17.281   8.709
 2036POPC   C2B29960   3.173  17.431   8.284
 2036POPC   C3B29961   3.336  17.286   7.882
 2036POPC   C4B29962   3.300  17.328   7.425
 2037POPC   NC329963  17.574   2.747   9.548
 2037POPC   PO429964  18.242   2.559   9.503
 2037POPC   GL129965  18.389   2.541   9.077
 2037POPC   GL229966  18.395   2.919   9.038
 2037POPC   C1A29967  18.507   2.626   8.643
 2037POPC   D2A29968  18.446   2.917   8.297
 2037POPC   C3A29969  18.371   2.796   7.850
 2037POPC   C4A29970  18.458   3.097   7.483
 2037POPC   C1B29971  18.074   2.893   8.714
 2037POPC   C2B29972  17.948   2.769   8.291
 2037POPC   C3B29973  17.847   2.904   7.849
 2037POPC   C4B29974  17.985   2.901   7.404
 2038POPC   NC329975  19.343  34.763   9.782
 2038POPC   PO429976  18.764  34.419   9.651
 2038POPC   GL129977  18.872  34.467   9.226
 2038POPC   GL229978  18.664  34.689   9.018
 2038POPC   C1A29979  19.049  34.423   8.810
 2038POPC   D2A29980  18.925  34.518   8.407
 2038POPC   C3A29981  19.197  34.363   8.117
 2038POPC   C4A29982  19.188  34.281   7.681
 2038POPC   C1B29983  18.882  34.957   8.706
 2038POPC   C2B29984  18.813  34.999   8.251
 2038POPC   C3B29985  18.977  34.767   7.877
 2038POPC   C4B29986  18.943  34.924   7.436
 2039POPC   NC329987  29.949  10.227   9.402
 2039POPC   PO429988  29.543  10.707   9.706
 2039POPC   GL129989  29.496  10.596   9.237
 2039POPC   GL229990  29.818  10.624   9.114
 2039POPC   C1A29991  29.469  10.754   8.778
 2039POPC   D2A29992  29.823  10.738   8.496
 2039POPC   C3A29993  29.809  10.606   8.064
 2039POPC   C4A29994  29.481  10.766   7.787
 2039POPC   C1B29995  29.724  10.312   8.788
 2039POPC   C2B29996  30.037  10.272   8.488
 2039POPC   C3B29997  30.171  10.224   8.120
 2039POPC   C4B29998  30.192  10.354   7.717
 2040POPC   NC329999  40.765   6.149   9.534
 2040POPC   PO430000  40.780   5.578   9.288
 2040POPC   GL130001  40.820   5.955   9.055
 2040POPC   GL230002  40.472   6.053   9.133
 2040POPC   C1A30003  40.840   6.021   8.621
 2040POPC   D2A30004  40.575   5.878   8.297
 2040POPC   C3A30005  40.808   6.005   7.987
 2040POPC   C4A30006  41.084   6.294   7.857
 2040POPC   C1B30007  40.360   6.114   8.744
 2040POPC   C2B30008  40.286   6.303   8.378
 2040POPC   C3B30009  40.343   6.192   7.942
 2040POPC   C4B30010  40.319   6.114   7.516
 2041POPC   NC330011  37.243  37.279   9.496
 2041POPC   PO430012  36.639  36.994   9.586
 2041POPC   GL130013  36.744  36.831   9.194
 2041POPC   GL230014  36.939  37.104   9.102
 2041POPC   C1A30015  36.650  36.862   8.754
 2041POPC   D2A30016  36.772  37.091   8.369
 2041POPC   C3A30017  36.843  36.754   8.088
 2041POPC   C4A30018  36.817  36.772   7.665
 2041POPC   C1B30019  37.158  37.051   8.695
 2041POPC   C2B30020  37.278  36.948   8.247
 2041POPC   C3B30021  37.317  36.970   7.785
 2041POPC   C4B30022  37.562  37.003   7.367
 2042POPC   NC330023  10.684  11.794   9.572
 2042POPC   PO430024  10.066  12.067   9.702
 2042POPC   GL130025  10.302  12.012   9.317
 2042POPC   GL230026  10.361  12.345   9.203
 2042POPC   C1A30027  10.358  11.960   8.864
 2042POPC   D2A30028  10.680  12.121   8.589
 2042POPC   C3A30029  10.711  12.096   8.149
 2042POPC   C4A30030  10.524  11.982   7.775
 2042POPC   C1B30031  10.228  12.467   8.762
 2042POPC   C2B30032  10.308  12.376   8.321
 2042POPC   C3B30033  10.374  12.445   7.875
 2042POPC   C4B30034  10.463  12.327   7.388
 2043POPC   NC330035  22.059  19.209   9.696
 2043POPC   PO430036  22.555  18.958   9.609
 2043POPC   GL130037  22.336  19.053   9.204
 2043POPC   GL230038  21.970  19.008   9.173
 2043POPC   C1A30039  22.319  19.150   8.728
 2043POPC   D2A30040  22.178  18.959   8.312
 2043POPC   C3A30041  22.101  19.140   7.892
 2043POPC   C4A30042  22.274  18.980   7.488
 2043POPC   C1B30043  21.822  19.012   8.701
 2043POPC   C2B30044  21.674  19.066   8.239
 2043POPC   C3B30045  21.596  19.263   7.823
 2043POPC   C4B30046  21.904  19.406   7.506
 2044POPC   NC330047  27.750  27.933   9.577
 2044POPC   PO430048  27.628  27.320   9.427
 2044POPC   GL130049  27.850  27.390   9.078
 2044POPC   GL230050  27.867  27.719   9.097
 2044POPC   C1A30051  27.748  27.403   8.641
 2044POPC   D2A30052  27.926  27.443   8.244
 2044POPC   C3A30053  27.655  27.558   7.925
 2044POPC   C4A30054  27.200  27.442   7.833
 2044POPC   C1B30055  27.604  27.889   8.727
 2044POPC   C2B30056  27.359  27.932   8.293
 2044POPC   C3B30057  27.351  27.947   7.807
 2044POPC   C4B30058  27.615  27.823   7.451
 2045POPC   NC330059  12.638  19.098   9.610
 2045POPC   PO430060  13.325  18.987   9.551
 2045POPC   GL130061  12.974  19.055   9.225
 2045POPC   GL230062  12.774  18.759   9.244
 2045POPC   C1A30063  12.830  19.258   8.814
 2045POPC   D2A30064  12.637  19.456   8.424
 2045POPC   C3A30065  12.860  19.283   8.047
 2045POPC   C4A30066  12.651  19.224   7.647
 2045POPC   C1B30067  12.592  18.824   8.810
 2045POPC   C2B30068  12.664  18.951   8.387
 2045POPC   C3B30069  12.667  18.806   7.938
 2045POPC   C4B30070  12.650  18.709   7.482
 2046POPC   NC330071  14.858  14.010   9.507
 2046POPC   PO430072  15.165  13.346   9.734
 2046POPC   GL130073  15.023  13.574   9.252
 2046POPC   GL230074  15.102  13.859   9.075
 2046POPC   C1A30075  15.226  13.486   8.758
 2046POPC   D2A30076  15.178  13.321   8.311
 2046POPC   C3A30077  15.402  13.263   7.915
 2046POPC   C4A30078  15.229  13.485   7.537
 2046POPC   C1B30079  14.825  14.019   8.753
 2046POPC   C2B30080  14.965  13.796   8.406
 2046POPC   C3B30081  15.160  13.747   8.019
 2046POPC   C4B30082  15.049  13.928   7.669
 2047POPC   NC330083  21.877   1.002   9.673
 2047POPC   PO430084  22.252   1.489   9.483
 2047POPC   GL130085  22.211   1.088   9.267
 2047POPC   GL230086  21.870   1.064   9.133
 2047POPC   C1A30087  22.283   0.946   8.839
 2047POPC   D2A30088  22.131   1.027   8.418
 2047POPC   C3A30089  22.189   1.251   8.053
 2047POPC   C4A30090  22.453   1.117   7.764
 2047POPC   C1B30091  21.800   0.782   8.739
 2047POPC   C2B30092  21.694   0.840   8.288
 2047POPC   C3B30093  21.772   1.000   7.844
 2047POPC   C4B30094  21.769   0.884   7.362
 2048POPC   NC330095  40.871   9.972   9.450
 2048POPC   PO430096  40.542   9.415   9.455
 2048POPC   GL130097  40.565   9.742   9.118
 2048POPC   GL230098  40.904   9.592   9.104
 2048POPC   C1A30099  40.690   9.770   8.693
 2048POPC   D2A30100  40.838   9.438   8.443
 2048POPC   C3A30101  40.718   9.590   8.088
 2048POPC   C4A30102  40.796   9.955   7.869
 2048POPC   C1B30103  41.182   9.673   8.785
 2048POPC   C2B30104  41.129   9.835   8.353
 2048POPC   C3B30105  41.212   9.682   7.940
 2048POPC   C4B30106  41.514   9.830   7.672
 2049POPC   NC330107   5.494  13.888   9.424
 2049POPC   PO430108   5.848  13.289   9.407
 2049POPC   GL130109   5.635  13.484   9.110
 2049POPC   GL230110   5.537  13.162   9.004
 2049POPC   C1A30111   5.765  13.696   8.733
 2049POPC   D2A30112   5.619  13.780   8.320
 2049POPC   C3A30113   5.967  13.727   8.091
 2049POPC   C4A30114   6.009  13.885   7.705
 2049POPC   C1B30115   5.831  13.116   8.670
 2049POPC   C2B30116   6.069  13.070   8.283
 2049POPC   C3B30117   5.928  13.257   7.886
 2049POPC   C4B30118   5.564  13.581   7.815
 2050POPC   NC330119  22.447  13.900   9.370
 2050POPC   PO430120  22.221  14.509   9.335
 2050POPC   GL130121  21.980  14.306   9.049
 2050POPC   GL230122  21.923  13.953   9.205
 2050POPC   C1A30123  21.931  14.502   8.650
 2050POPC   D2A30124  22.272  14.598   8.389
 2050POPC   C3A30125  22.097  14.571   8.045
 2050POPC   C4A30126  22.235  14.613   7.696
 2050POPC   C1B30127  21.863  13.859   8.771
 2050POPC   C2B30128  21.773  14.044   8.380
 2050POPC   C3B30129  21.809  13.909   7.975
 2050POPC   C4B30130  22.154  14.103   7.755
 2051POPC   NC330131  11.711   9.703   9.515
 2051POPC   PO430132  12.361  10.021   9.407
 2051POPC   GL130133  12.067   9.835   9.130
 2051POPC   GL230134  11.762  10.060   9.166
 2051POPC   C1A30135  12.216   9.769   8.689
 2051POPC   D2A30136  12.328  10.054   8.320
 2051POPC   C3A30137  12.221   9.870   7.924
 2051POPC   C4A30138  11.861   9.661   7.781
 2051POPC   C1B30139  11.795  10.059   8.727
 2051POPC   C2B30140  11.655   9.945   8.317
 2051POPC   C3B30141  11.774  10.132   7.942
 2051POPC   C4B30142  11.928  10.109   7.529
 2052POPC   NC330143   4.199  28.761   9.520
 2052POPC   PO430144   4.380  28.102   9.477
 2052POPC   GL130145   4.350  28.437   9.174
 2052POPC   GL230146   4.657  28.658   9.313
 2052POPC   C1A30147   4.210  28.517   8.739
 2052POPC   D2A30148   4.210  28.178   8.462
 2052POPC   C3A30149   4.185  28.305   8.052
 2052POPC   C4A30150   4.383  28.356   7.699
 2052POPC   C1B30151   4.587  28.788   8.902
 2052POPC   C2B30152   4.654  28.664   8.484
 2052POPC   C3B30153   4.527  28.695   8.081
 2052POPC   C4B30154   4.704  28.749   7.696
 2053POPC   NC330155  32.541   2.347   9.564
 2053POPC   PO430156  32.210   1.817   9.588
 2053POPC   GL130157  32.393   1.988   9.229
 2053POPC   GL230158  32.159   2.272   9.206
 2053POPC   C1A30159  32.537   1.840   8.835
 2053POPC   D2A30160  32.346   1.734   8.439
 2053POPC   C3A30161  32.200   2.007   8.122
 2053POPC   C4A30162  32.252   1.763   7.747
 2053POPC   C1B30163  32.498   2.361   8.905
 2053POPC   C2B30164  32.492   2.402   8.475
 2053POPC   C3B30165  32.366   2.521   8.083
 2053POPC   C4B30166  32.384   2.265   7.730
 2054POPC   NC330167  24.609  15.844   9.615
 2054POPC   PO430168  24.452  16.285   9.205
 2054POPC   GL130169  24.193  15.965   9.046
 2054POPC   GL230170  24.382  15.659   9.099
 2054POPC   C1A30171  24.209  15.947   8.609
 2054POPC   D2A30172  24.614  16.167   8.432
 2054POPC   C3A30173  24.622  16.312   7.995
 2054POPC   C4A30174  24.399  16.114   7.665
 2054POPC   C1B30175  24.581  15.615   8.666
 2054POPC   C2B30176  24.475  15.730   8.212
 2054POPC   C3B30177  24.768  15.810   7.879
 2054POPC   C4B30178  24.768  15.558   7.535
 2055POPC   NC330179  20.300  13.015   9.359
 2055POPC   PO430180  20.784  12.606   9.391
 2055POPC   GL130181  20.612  12.725   9.076
 2055POPC   GL230182  20.325  12.509   9.155
 2055POPC   C1A30183  20.730  12.990   8.744
 2055POPC   D2A30184  20.989  12.955   8.371
 2055POPC   C3A30185  20.977  13.199   7.962
 2055POPC   C4A30186  20.635  13.217   7.675
 2055POPC   C1B30187  20.450  12.399   8.742
 2055POPC   C2B30188  20.575  12.627   8.407
 2055POPC   C3B30189  20.585  12.845   8.036
 2055POPC   C4B30190  20.585  12.695   7.625
 2056POPC   NC330191   0.610   4.048   9.541
 2056POPC   PO430192   0.354   4.674   9.544
 2056POPC   GL130193   0.337   4.359   9.192
 2056POPC   GL230194   0.120   4.073   9.273
 2056POPC   C1A30195   0.501   4.285   8.747
 2056POPC   D2A30196   0.372   4.550   8.410
 2056POPC   C3A30197   0.398   4.408   7.980
 2056POPC   C4A30198   0.348   4.355   7.548
 2056POPC   C1B30199   0.033   4.085   8.815
 2056POPC   C2B30200   0.164   4.083   8.350
 2056POPC   C3B30201   0.301   3.916   7.914
 2056POPC   C4B30202   0.635   3.955   7.601
 2057POPC   NC330203  38.185  32.057   9.539
 2057POPC   PO430204  37.388  31.973   9.489
 2057POPC   GL130205  37.536  32.134   9.104
 2057POPC   GL230206  37.852  31.996   9.115
 2057POPC   C1A30207  37.626  32.460   8.816
 2057POPC   D2A30208  37.665  32.255   8.423
 2057POPC   C3A30209  37.405  32.346   8.070
 2057POPC   C4A30210  37.621  32.541   7.734
 2057POPC   C1B30211  38.083  31.943   8.725
 2057POPC   C2B30212  37.958  31.850   8.289
 2057POPC   C3B30213  37.879  32.107   7.938
 2057POPC   C4B30214  37.853  31.856   7.579
 2058POPC   NC330215  13.280  11.965   9.471
 2058POPC   PO430216  13.913  12.172   9.762
 2058POPC   GL130217  13.860  11.996   9.271
 2058POPC   GL230218  13.574  12.151   9.100
 2058POPC   C1A30219  13.819  11.845   8.775
 2058POPC   D2A30220  13.560  11.781   8.360
 2058POPC   C3A30221  13.719  11.816   7.901
 2058POPC   C4A30222  13.778  11.820   7.410
 2058POPC   C1B30223  13.804  12.346   8.761
 2058POPC   C2B30224  13.795  12.247   8.321
 2058POPC   C3B30225  13.437  12.212   8.056
 2058POPC   C4B30226  13.287  12.490   7.755
 2059POPC   NC330227  22.629  13.257   9.386
 2059POPC   PO430228  22.879  13.777   9.511
 2059POPC   GL130229  22.945  13.582   9.120
 2059POPC   GL230230  23.157  13.296   9.228
 2059POPC   C1A30231  22.671  13.638   8.754
 2059POPC   D2A30232  22.613  13.784   8.308
 2059POPC   C3A30233  22.975  13.653   8.052
 2059POPC   C4A30234  22.996  13.542   7.628
 2059POPC   C1B30235  23.174  13.124   8.818
 2059POPC   C2B30236  23.248  13.317   8.395
 2059POPC   C3B30237  23.156  13.165   7.988
 2059POPC   C4B30238  23.313  13.123   7.573
 2060POPC   NC330239   4.468  32.450   9.357
 2060POPC   PO430240   4.319  31.821   9.516
 2060POPC   GL130241   4.474  31.986   9.141
 2060POPC   GL230242   4.134  32.153   9.099
 2060POPC   C1A30243   4.504  32.146   8.728
 2060POPC   D2A30244   4.620  32.106   8.303
 2060POPC   C3A30245   4.351  32.226   7.915
 2060POPC   C4A30246   4.551  31.947   7.550
 2060POPC   C1B30247   4.111  32.477   8.758
 2060POPC   C2B30248   4.029  32.468   8.318
 2060POPC   C3B30249   3.867  32.579   7.907
 2060POPC   C4B30250   4.087  32.525   7.550
 2061POPC   NC330251  14.454  35.834   9.328
 2061POPC   PO430252  14.797  36.403   9.402
 2061POPC   GL130253  14.461  36.285   9.105
 2061POPC   GL230254  14.176  36.526   9.156
 2061POPC   C1A30255  14.496  36.021   8.716
 2061POPC   D2A30256  14.616  35.822   8.334
 2061POPC   C3A30257  14.509  36.022   7.945
 2061POPC   C4A30258  14.780  36.214   7.684
 2061POPC   C1B30259  14.101  36.357   8.734
 2061POPC   C2B30260  14.015  36.525   8.351
 2061POPC   C3B30261  13.983  36.378   7.952
 2061POPC   C4B30262  14.200  36.254   7.583
 2062POPC   NC330263  10.555  39.505   9.616
 2062POPC   PO430264  10.306  40.139   9.575
 2062POPC   GL130265  10.437  39.875   9.267
 2062POPC   GL230266  10.742  39.886   9.176
 2062POPC   C1A30267  10.406  40.004   8.821
 2062POPC   D2A30268  10.366  39.761   8.461
 2062POPC   C3A30269  10.348  40.010   8.133
 2062POPC   C4A30270  10.336  39.920   7.720
 2062POPC   C1B30271  10.936  39.862   8.782
 2062POPC   C2B30272  10.871  39.979   8.373
 2062POPC   C3B30273  10.834  40.048   7.952
 2062POPC   C4B30274  10.792  40.075   7.522
 2063POPC   NC330275  33.689  30.438   9.690
 2063POPC   PO430276  34.248  30.775   9.557
 2063POPC   GL130277  34.026  30.806   9.177
 2063POPC   GL230278  33.683  30.666   9.201
 2063POPC   C1A30279  34.053  30.612   8.750
 2063POPC   D2A30280  33.857  30.455   8.377
 2063POPC   C3A30281  34.100  30.650   8.082
 2063POPC   C4A30282  34.017  30.784   7.699
 2063POPC   C1B30283  33.541  30.535   8.790
 2063POPC   C2B30284  33.480  30.789   8.399
 2063POPC   C3B30285  33.603  30.704   7.978
 2063POPC   C4B30286  33.570  30.662   7.487
 2064POPC   NC330287  11.886  12.482   9.394
 2064POPC   PO430288  11.933  11.834   9.442
 2064POPC   GL130289  12.091  12.092   9.121
 2064POPC   GL230290  11.961  12.389   8.900
 2064POPC   C1A30291  12.240  12.002   8.744
 2064POPC   D2A30292  12.101  11.896   8.375
 2064POPC   C3A30293  12.386  12.062   8.101
 2064POPC   C4A30294  12.255  12.054   7.718
 2064POPC   C1B30295  11.619  12.340   8.692
 2064POPC   C2B30296  11.632  12.142   8.351
 2064POPC   C3B30297  11.834  12.165   7.990
 2064POPC   C4B30298  11.587  12.134   7.663
 2065POPC   NC330299  21.003  14.469   9.514
 2065POPC   PO430300  20.539  14.005   9.310
 2065POPC   GL130301  20.748  14.332   9.092
 2065POPC   GL230302  21.038  14.169   9.097
 2065POPC   C1A30303  20.620  14.577   8.742
 2065POPC   D2A30304  20.281  14.427   8.500
 2065POPC   C3A30305  20.311  14.428   8.078
 2065POPC   C4A30306  20.621  14.546   7.786
 2065POPC   C1B30307  21.017  14.242   8.672
 2065POPC   C2B30308  20.749  14.252   8.342
 2065POPC   C3B30309  20.823  14.095   7.976
 2065POPC   C4B30310  20.927  14.222   7.550
 2066POPC   NC330311  22.885  32.370   9.399
 2066POPC   PO430312  22.572  32.849   9.458
 2066POPC   GL130313  22.638  32.996   9.063
 2066POPC   GL230314  22.952  32.803   9.076
 2066POPC   C1A30315  22.592  33.209   8.639
 2066POPC   D2A30316  22.661  33.361   8.194
 2066POPC   C3A30317  22.662  33.053   7.831
 2066POPC   C4A30318  22.794  32.603   7.790
 2066POPC   C1B30319  22.802  32.714   8.659
 2066POPC   C2B30320  22.865  32.886   8.262
 2066POPC   C3B30321  23.196  32.876   7.951
 2066POPC   C4B30322  23.483  32.531   7.778
 2067POPC   NC330323   3.467  31.127   9.763
 2067POPC   PO430324   3.337  30.484   9.520
 2067POPC   GL130325   3.208  30.523   9.091
 2067POPC   GL230326   3.581  30.556   8.958
 2067POPC   C1A30327   3.210  30.656   8.657
 2067POPC   D2A30328   3.574  30.663   8.388
 2067POPC   C3A30329   3.385  30.648   8.037
 2067POPC   C4A30330   3.364  30.441   7.662
 2067POPC   C1B30331   3.595  31.016   8.741
 2067POPC   C2B30332   3.513  31.237   8.373
 2067POPC   C3B30333   3.688  31.068   8.008
 2067POPC   C4B30334   3.578  30.891   7.634
 2068POPC   NC330335  13.555  44.314   9.763
 2068POPC   PO430336  13.789  44.901   9.449
 2068POPC   GL130337  13.632  44.693   9.050
 2068POPC   GL230338  13.310  44.635   9.038
 2068POPC   C1A30339  13.740  44.503   8.666
 2068POPC   D2A30340  13.702  44.683   8.264
 2068POPC   C3A30341  13.858  44.480   7.916
 2068POPC   C4A30342  13.720  44.344   7.526
 2068POPC   C1B30343  13.231  44.451   8.683
 2068POPC   C2B30344  13.201  44.599   8.274
 2068POPC   C3B30345  13.359  44.470   7.900
 2068POPC   C4B30346  13.188  44.295   7.547
 2069POPC   NC330347  10.000  17.034   9.518
 2069POPC   PO430348   9.604  17.609   9.494
 2069POPC   GL130349   9.731  17.354   9.189
 2069POPC   GL230350   9.454  17.181   9.119
 2069POPC   C1A30351   9.706  17.535   8.784
 2069POPC   D2A30352   9.815  17.848   8.506
 2069POPC   C3A30353   9.727  17.692   8.108
 2069POPC   C4A30354   9.793  17.749   7.691
 2069POPC   C1B30355   9.392  17.145   8.713
 2069POPC   C2B30356   9.233  17.027   8.352
 2069POPC   C3B30357   9.320  17.223   7.969
 2069POPC   C4B30358   9.660  17.242   7.705
 2070POPC   NC330359   0.377  10.959   9.487
 2070POPC   PO430360   0.782  11.484   9.586
 2070POPC   GL130361   0.575  11.310   9.202
 2070POPC   GL230362   0.729  11.066   9.110
 2070POPC   C1A30363   0.450  11.440   8.777
 2070POPC   D2A30364   0.264  11.599   8.357
 2070POPC   C3A30365   0.418  11.557   7.919
 2070POPC   C4A30366   0.368  11.593   7.442
 2070POPC   C1B30367   0.383  10.928   8.835
 2070POPC   C2B30368   0.182  11.099   8.457
 2070POPC   C3B30369   0.115  11.000   8.033
 2070POPC   C4B30370   0.426  11.060   7.702
 2071POPC   NC330371  26.478  43.309  10.298
 2071POPC   PO430372  26.440  43.035   9.767
 2071POPC   GL130373  26.754  43.015   9.389
 2071POPC   GL230374  26.912  43.287   9.164
 2071POPC   C1A30375  26.818  42.796   8.988
 2071POPC   D2A30376  26.661  42.774   8.561
 2071POPC   C3A30377  26.952  42.902   8.249
 2071POPC   C4A30378  26.897  43.056   7.823
 2071POPC   C1B30379  26.773  43.268   8.707
 2071POPC   C2B30380  26.716  43.359   8.246
 2071POPC   C3B30381  26.835  43.564   7.842
 2071POPC   C4B30382  26.803  43.473   7.379
 2072POPC   NC330383   3.544  37.330   9.508
 2072POPC   PO430384   3.317  36.625   9.337
 2072POPC   GL130385   3.672  36.774   9.088
 2072POPC   GL230386   3.751  37.149   9.091
 2072POPC   C1A30387   3.658  36.884   8.670
 2072POPC   D2A30388   3.455  37.057   8.334
 2072POPC   C3A30389   3.578  36.863   7.975
 2072POPC   C4A30390   3.540  36.589   7.615
 2072POPC   C1B30391   3.299  37.169   8.906
 2072POPC   C2B30392   3.133  37.398   8.543
 2072POPC   C3B30393   3.217  37.450   8.118
 2072POPC   C4B30394   3.252  37.171   7.749
 2073POPC   NC330395  32.391  15.557   9.377
 2073POPC   PO430396  32.084  16.053   9.490
 2073POPC   GL130397  32.110  15.877   9.086
 2073POPC   GL230398  32.445  15.983   9.070
 2073POPC   C1A30399  31.964  15.963   8.647
 2073POPC   D2A30400  31.798  16.219   8.313
 2073POPC   C3A30401  31.830  16.068   7.917
 2073POPC   C4A30402  31.962  15.671   7.756
 2073POPC   C1B30403  32.223  16.334   8.886
 2073POPC   C2B30404  32.228  16.427   8.468
 2073POPC   C3B30405  32.432  16.137   8.179
 2073POPC   C4B30406  32.312  16.027   7.778
 2074POPC   NC330407  28.056  36.656   9.843
 2074POPC   PO430408  27.400  36.856   9.511
 2074POPC   GL130409  27.568  36.881   9.133
 2074POPC   GL230410  27.850  37.083   9.180
 2074POPC   C1A30411  27.655  36.721   8.745
 2074POPC   D2A30412  27.565  36.896   8.370
 2074POPC   C3A30413  27.636  36.597   8.077
 2074POPC   C4A30414  27.704  36.677   7.675
 2074POPC   C1B30415  27.774  37.197   8.786
 2074POPC   C2B30416  28.048  37.131   8.470
 2074POPC   C3B30417  27.984  37.079   8.030
 2074POPC   C4B30418  27.830  37.263   7.661
 2075POPC   NC330419  10.935   9.522   9.519
 2075POPC   PO430420  11.370  10.017   9.508
 2075POPC   GL130421  11.266   9.782   9.152
 2075POPC   GL230422  10.916   9.665   9.040
 2075POPC   C1A30423  11.444   9.691   8.758
 2075POPC   D2A30424  11.356   9.480   8.387
 2075POPC   C3A30425  11.372   9.625   7.962
 2075POPC   C4A30426  11.454   9.928   7.629
 2075POPC   C1B30427  11.011   9.943   8.716
 2075POPC   C2B30428  11.130   9.948   8.283
 2075POPC   C3B30429  11.002   9.991   7.860
 2075POPC   C4B30430  10.656   9.923   7.595
 2076POPC   NC330431   7.574  17.193   9.481
 2076POPC   PO430432   7.650  16.551   9.329
 2076POPC   GL130433   7.279  16.666   9.113
 2076POPC   GL230434   7.198  17.013   9.163
 2076POPC   C1A30435   7.306  16.582   8.699
 2076POPC   D2A30436   7.589  16.455   8.415
 2076POPC   C3A30437   7.499  16.517   8.003
 2076POPC   C4A30438   7.659  16.621   7.604
 2076POPC   C1B30439   7.398  17.099   8.760
 2076POPC   C2B30440   7.321  16.929   8.334
 2076POPC   C3B30441   7.499  17.035   7.921
 2076POPC   C4B30442   7.523  17.081   7.449
 2077POPC   NC330443   1.999  42.002   9.465
 2077POPC   PO430444   1.621  42.576   9.587
 2077POPC   GL130445   1.957  42.497   9.227
 2077POPC   GL230446   2.158  42.197   9.026
 2077POPC   C1A30447   2.012  42.612   8.782
 2077POPC   D2A30448   2.218  42.421   8.408
 2077POPC   C3A30449   1.979  42.495   8.039
 2077POPC   C4A30450   1.927  42.118   7.781
 2077POPC   C1B30451   2.491  42.056   8.688
 2077POPC   C2B30452   2.586  42.051   8.239
 2077POPC   C3B30453   2.408  41.877   7.858
 2077POPC   C4B30454   2.281  41.946   7.416
 2078POPC   NC330455   7.700  17.832   9.595
 2078POPC   PO430456   7.158  17.409   9.495
 2078POPC   GL130457   7.387  17.504   9.131
 2078POPC   GL230458   7.338  17.818   9.177
 2078POPC   C1A30459   7.502  17.642   8.712
 2078POPC   D2A30460   7.550  17.397   8.345
 2078POPC   C3A30461   7.175  17.365   8.137
 2078POPC   C4A30462   7.226  17.407   7.715
 2078POPC   C1B30463   7.013  17.694   8.830
 2078POPC   C2B30464   7.095  17.832   8.388
 2078POPC   C3B30465   7.380  17.821   8.031
 2078POPC   C4B30466   7.242  17.902   7.618
 2079POPC   NC330467  42.599   8.364   9.521
 2079POPC   PO430468  42.117   7.895   9.483
 2079POPC   GL130469  42.215   8.195   9.171
 2079POPC   GL230470  42.535   8.055   9.115
 2079POPC   C1A30471  42.219   8.230   8.723
 2079POPC   D2A30472  42.452   8.306   8.341
 2079POPC   C3A30473  42.249   8.304   7.968
 2079POPC   C4A30474  42.343   8.255   7.547
 2079POPC   C1B30475  42.543   7.841   8.727
 2079POPC   C2B30476  42.713   7.735   8.319
 2079POPC   C3B30477  42.591   7.898   7.942
 2079POPC   C4B30478  42.756   7.977   7.533
 2080POPC   NC330479  44.876  28.836   9.825
 2080POPC   PO430480  44.359  28.899   9.352
 2080POPC   GL130481  44.460  28.555   9.045
 2080POPC   GL230482  44.687  28.284   9.175
 2080POPC   C1A30483  44.766  28.605   8.692
 2080POPC   D2A30484  44.859  28.388   8.326
 2080POPC   C3A30485  44.505  28.368   8.032
 2080POPC   C4A30486  44.490  28.288   7.571
 2080POPC   C1B30487  44.802  28.095   8.766
 2080POPC   C2B30488  44.794  27.893   8.334
 2080POPC   C3B30489  44.829  27.986   7.876
 2080POPC   C4B30490  44.694  27.809   7.455
 2081POPC   NC330491  24.029  16.412   9.311
 2081POPC   PO430492  23.741  16.961   9.503
 2081POPC   GL130493  23.813  16.829   9.121
 2081POPC   GL230494  23.574  16.612   9.091
 2081POPC   C1A30495  23.886  16.837   8.711
 2081POPC   D2A30496  23.971  16.738   8.301
 2081POPC   C3A30497  23.889  16.954   7.947
 2081POPC   C4A30498  23.477  17.047   7.876
 2081POPC   C1B30499  23.434  16.598   8.690
 2081POPC   C2B30500  23.447  16.749   8.307
 2081POPC   C3B30501  23.592  16.534   7.996
 2081POPC   C4B30502  23.685  16.191   7.781
 2082POPC   NC330503  10.907   2.653   9.361
 2082POPC   PO430504  11.405   3.009   9.438
 2082POPC   GL130505  11.270   2.840   9.053
 2082POPC   GL230506  11.373   2.519   9.099
 2082POPC   C1A30507  11.415   2.744   8.642
 2082POPC   D2A30508  11.523   2.978   8.312
 2082POPC   C3A30509  11.367   2.819   7.962
 2082POPC   C4A30510  11.482   2.975   7.596
 2082POPC   C1B30511  11.166   2.321   8.750
 2082POPC   C2B30512  11.106   2.445   8.359
 2082POPC   C3B30513  11.035   2.364   7.986
 2082POPC   C4B30514  10.919   2.694   7.713
 2083POPC   NC330515  14.857  41.457   9.653
 2083POPC   PO430516  15.169  41.948   9.303
 2083POPC   GL130517  15.086  41.874   8.908
 2083POPC   GL230518  15.064  41.504   8.958
 2083POPC   C1A30519  15.230  41.724   8.523
 2083POPC   D2A30520  14.976  41.579   8.219
 2083POPC   C3A30521  15.124  41.717   7.917
 2083POPC   C4A30522  15.461  41.555   7.749
 2083POPC   C1B30523  14.936  41.305   8.643
 2083POPC   C2B30524  15.145  41.082   8.341
 2083POPC   C3B30525  15.191  41.158   7.914
 2083POPC   C4B30526  14.846  41.363   7.675
 2084POPC   NC330527  24.136   6.903   9.551
 2084POPC   PO430528  24.639   6.489   9.724
 2084POPC   GL130529  24.339   6.590   9.237
 2084POPC   GL230530  24.570   6.798   8.998
 2084POPC   C1A30531  24.242   6.471   8.769
 2084POPC   D2A30532  24.091   6.496   8.311
 2084POPC   C3A30533  24.369   6.503   7.962
 2084POPC   C4A30534  24.316   6.700   7.550
 2084POPC   C1B30535  24.512   6.963   8.641
 2084POPC   C2B30536  24.547   7.172   8.275
 2084POPC   C3B30537  24.611   6.943   7.901
 2084POPC   C4B30538  24.853   6.519   7.797
 2085POPC   NC330539  15.876  40.274   9.690
 2085POPC   PO430540  15.690  39.571   9.531
 2085POPC   GL130541  15.781  39.920   9.219
 2085POPC   GL230542  15.813  40.305   9.191
 2085POPC   C1A30543  16.031  39.939   8.835
 2085POPC   D2A30544  15.843  39.868   8.429
 2085POPC   C3A30545  16.071  40.045   8.083
 2085POPC   C4A30546  16.140  39.807   7.740
 2085POPC   C1B30547  15.643  40.258   8.795
 2085POPC   C2B30548  15.467  40.206   8.387
 2085POPC   C3B30549  15.563  40.017   7.983
 2085POPC   C4B30550  15.770  40.282   7.729
 2086POPC   NC330551  42.137   0.108   9.713
 2086POPC   PO430552  42.650   0.629   9.614
 2086POPC   GL130553  42.565   0.535   9.199
 2086POPC   GL230554  42.183   0.571   9.208
 2086POPC   C1A30555  42.654   0.726   8.779
 2086POPC   D2A30556  42.877   0.771   8.346
 2086POPC   C3A30557  42.611   0.583   8.034
 2086POPC   C4A30558  42.309   0.314   7.835
 2086POPC   C1B30559  42.275   0.371   8.792
 2086POPC   C2B30560  42.249   0.229   8.360
 2086POPC   C3B30561  41.979  44.993   8.113
 2086POPC   C4B30562  41.878   0.079   7.709
 2087POPC   NC330563  21.129  38.897   9.491
 2087POPC   PO430564  21.514  39.467   9.519
 2087POPC   GL130565  21.581  39.364   9.133
 2087POPC   GL230566  21.580  39.032   9.186
 2087POPC   C1A30567  21.446  39.569   8.776
 2087POPC   D2A30568  21.163  39.568   8.435
 2087POPC   C3A30569  21.355  39.386   8.070
 2087POPC   C4A30570  21.170  39.454   7.685
 2087POPC   C1B30571  21.234  39.099   8.846
 2087POPC   C2B30572  21.065  39.046   8.395
 2087POPC   C3B30573  21.075  38.939   7.927
 2087POPC   C4B30574  21.374  38.984   7.590
 2088POPC   NC330575  40.994  28.031   9.662
 2088POPC   PO430576  40.883  28.578   9.608
 2088POPC   GL130577  40.774  28.549   9.143
 2088POPC   GL230578  40.514  28.779   8.984
 2088POPC   C1A30579  40.881  28.621   8.698
 2088POPC   D2A30580  40.900  28.710   8.220
 2088POPC   C3A30581  40.879  28.337   7.917
 2088POPC   C4A30582  41.042  27.897   7.789
 2088POPC   C1B30583  40.394  28.362   8.838
 2088POPC   C2B30584  40.208  28.229   8.431
 2088POPC   C3B30585  40.377  28.395   8.027
 2088POPC   C4B30586  40.478  28.383   7.571
 2089POPC   NC330587  26.730  11.629   9.519
 2089POPC   PO430588  26.605  10.996   9.255
 2089POPC   GL130589  26.867  11.297   9.062
 2089POPC   GL230590  26.973  11.651   9.063
 2089POPC   C1A30591  26.976  11.250   8.638
 2089POPC   D2A30592  26.752  11.014   8.275
 2089POPC   C3A30593  26.909  11.157   7.870
 2089POPC   C4A30594  27.196  11.413   7.640
 2089POPC   C1B30595  26.573  11.593   8.790
 2089POPC   C2B30596  26.400  11.648   8.402
 2089POPC   C3B30597  26.577  11.573   7.998
 2089POPC   C4B30598  26.646  11.488   7.565
 2090POPC   NC330599  39.093  44.294   9.243
 2090POPC   PO430600  39.480  44.756   9.620
 2090POPC   GL130601  39.368  44.794   9.188
 2090POPC   GL230602  39.515  44.537   9.048
 2090POPC   C1A30603  39.268  44.830   8.723
 2090POPC   D2A30604  39.085  44.518   8.460
 2090POPC   C3A30605  39.041  44.599   8.022
 2090POPC   C4A30606  39.208  44.815   7.640
 2090POPC   C1B30607  39.532  44.294   8.708
 2090POPC   C2B30608  39.619  44.558   8.399
 2090POPC   C3B30609  39.539  44.768   8.052
 2090POPC   C4B30610  39.464  44.409   7.797
 2091POPC   NC330611  34.050  44.321   9.694
 2091POPC   PO430612  33.600  44.829   9.708
 2091POPC   GL130613  33.864  44.764   9.348
 2091POPC   GL230614  33.715  44.448   9.237
 2091POPC   C1A30615  34.105  44.990   9.000
 2091POPC   D2A30616  34.026   0.079   8.550
 2091POPC   C3A30617  34.192  44.911   8.162
 2091POPC   C4A30618  34.012  44.852   7.744
 2091POPC   C1B30619  33.702  44.722   8.850
 2091POPC   C2B30620  33.874  44.616   8.460
 2091POPC   C3B30621  33.920  44.456   8.062
 2091POPC   C4B30622  33.649  44.438   7.764
 2092POPC   NC330623  37.034  24.281   9.429
 2092POPC   PO430624  36.781  24.825   9.810
 2092POPC   GL130625  36.845  24.755   9.287
 2092POPC   GL230626  36.637  24.535   9.090
 2092POPC   C1A30627  37.038  24.689   8.824
 2092POPC   D2A30628  36.844  24.741   8.374
 2092POPC   C3A30629  37.006  24.568   7.945
 2092POPC   C4A30630  37.212  24.804   7.623
 2092POPC   C1B30631  36.764  24.276   8.690
 2092POPC   C2B30632  36.750  24.204   8.209
 2092POPC   C3B30633  36.563  24.344   7.807
 2092POPC   C4B30634  36.475  24.129   7.417
 2093POPC   NC330635  21.108  16.066   9.589
 2093POPC   PO430636  21.675  15.771   9.646
 2093POPC   GL130637  21.623  15.818   9.179
 2093POPC   GL230638  21.272  15.751   9.139
 2093POPC   C1A30639  21.520  15.740   8.682
 2093POPC   D2A30640  21.578  15.982   8.262
 2093POPC   C3A30641  21.450  15.882   7.826
 2093POPC   C4A30642  21.724  15.728   7.453
 2093POPC   C1B30643  21.012  15.799   8.754
 2093POPC   C2B30644  21.077  15.885   8.279
 2093POPC   C3B30645  20.928  15.790   7.849
 2093POPC   C4B30646  20.893  15.783   7.401
 2094POPC   NC330647  10.470  34.924   9.430
 2094POPC   PO430648  10.651  35.651   9.456
 2094POPC   GL130649  10.555  35.462   9.079
 2094POPC   GL230650  10.179  35.523   9.190
 2094POPC   C1A30651  10.780  35.432   8.644
 2094POPC   D2A30652  10.796  35.367   8.165
 2094POPC   C3A30653  10.530  35.008   7.957
 2094POPC   C4A30654  10.527  34.946   7.486
 2094POPC   C1B30655  10.158  35.254   8.838
 2094POPC   C2B30656  10.334  35.281   8.443
 2094POPC   C3B30657  10.285  35.439   8.066
 2094POPC   C4B30658  10.176  35.267   7.666
 2095POPC   NC330659  13.295  33.671   9.332
 2095POPC   PO430660  13.869  34.046   9.449
 2095POPC   GL130661  13.666  33.956   9.056
 2095POPC   GL230662  13.308  34.026   8.946
 2095POPC   C1A30663  13.754  34.109   8.645
 2095POPC   D2A30664  13.939  33.976   8.287
 2095POPC   C3A30665  13.714  33.739   8.000
 2095POPC   C4A30666  13.762  33.701   7.593
 2095POPC   C1B30667  13.464  33.677   8.648
 2095POPC   C2B30668  13.312  33.475   8.231
 2095POPC   C3B30669  13.239  33.672   7.793
 2095POPC   C4B30670  13.351  33.541   7.356
 2096POPC   NC330671  26.578  14.130   9.409
 2096POPC   PO430672  25.903  14.308   9.452
 2096POPC   GL130673  26.059  14.382   9.049
 2096POPC   GL230674  26.367  14.578   9.150
 2096POPC   C1A30675  25.813  14.439   8.648
 2096POPC   D2A30676  25.638  14.330   8.226
 2096POPC   C3A30677  25.972  14.252   7.908
 2096POPC   C4A30678  26.258  13.971   7.655
 2096POPC   C1B30679  26.202  14.797   8.768
 2096POPC   C2B30680  26.306  14.722   8.347
 2096POPC   C3B30681  26.243  14.735   7.918
 2096POPC   C4B30682  26.287  14.478   7.556
 2097POPC   NC330683  32.479  41.993   9.535
 2097POPC   PO430684  31.944  41.565   9.599
 2097POPC   GL130685  32.167  41.717   9.217
 2097POPC   GL230686  31.887  41.776   9.054
 2097POPC   C1A30687  32.394  41.640   8.817
 2097POPC   D2A30688  32.511  41.888   8.433
 2097POPC   C3A30689  32.504  41.717   8.008
 2097POPC   C4A30690  32.436  41.516   7.569
 2097POPC   C1B30691  31.893  41.555   8.697
 2097POPC   C2B30692  32.125  41.556   8.356
 2097POPC   C3B30693  32.132  41.377   7.971
 2097POPC   C4B30694  32.012  41.214   7.603
 2098POPC   NC330695  23.570  10.324   9.659
 2098POPC   PO430696  23.994   9.826   9.538
 2098POPC   GL130697  23.589   9.878   9.340
 2098POPC   GL230698  23.495   9.561   9.257
 2098POPC   C1A30699  23.634   9.948   8.888
 2098POPC   D2A30700  23.636   9.756   8.477
 2098POPC   C3A30701  23.702   9.899   8.067
 2098POPC   C4A30702  23.639   9.977   7.630
 2098POPC   C1B30703  23.358   9.506   8.844
 2098POPC   C2B30704  23.467   9.287   8.476
 2098POPC   C3B30705  23.693   9.362   8.113
 2098POPC   C4B30706  23.711   9.460   7.700
 2099POPC   NC330707   4.695   0.851   9.430
 2099POPC   PO430708   5.139   0.352   9.655
 2099POPC   GL130709   5.129   0.581   9.268
 2099POPC   GL230710   5.167   0.237   9.129
 2099POPC   C1A30711   5.184   0.637   8.820
 2099POPC   D2A30712   5.221   0.407   8.463
 2099POPC   C3A30713   5.139   0.645   8.115
 2099POPC   C4A30714   5.176   0.528   7.728
 2099POPC   C1B30715   4.933   0.090   8.771
 2099POPC   C2B30716   4.686   0.243   8.410
 2099POPC   C3B30717   4.817   0.223   7.970
 2099POPC   C4B30718   4.919   0.133   7.533
 2100POPC   NC330719  13.423  19.372   9.779
 2100POPC   PO430720  13.351  19.834   9.253
 2100POPC   GL130721  13.414  20.058   8.925
 2100POPC   GL230722  13.748  20.049   9.007
 2100POPC   C1A30723  13.441  19.994   8.488
 2100POPC   D2A30724  13.635  19.609   8.294
 2100POPC   C3A30725  13.402  19.475   7.948
 2100POPC   C4A30726  13.252  19.851   7.753
 2100POPC   C1B30727  13.904  19.860   8.669
 2100POPC   C2B30728  13.916  20.024   8.266
 2100POPC   C3B30729  13.769  19.887   7.869
 2100POPC   C4B30730  13.811  20.080   7.449
 2101POPC   NC330731  13.946  44.439   9.323
 2101POPC   PO430732  14.576  44.762   9.466
 2101POPC   GL130733  14.412  44.564   9.139
 2101POPC   GL230734  14.153  44.819   9.051
 2101POPC   C1A30735  14.263  44.398   8.740
 2101POPC   D2A30736  14.123  44.355   8.329
 2101POPC   C3A30737  14.390  44.508   8.020
 2101POPC   C4A30738  14.535  44.930   8.052
 2101POPC   C1B30739  13.908  44.994   8.720
 2101POPC   C2B30740  13.853   0.147   8.292
 2101POPC   C3B30741  14.043  44.982   7.903
 2101POPC   C4B30742  14.181  44.673   7.595
 2102POPC   NC330743  13.525   0.288   9.541
 2102POPC   PO430744  14.082   0.631   9.471
 2102POPC   GL130745  13.857   0.345   9.134
 2102POPC   GL230746  13.509   0.175   9.053
 2102POPC   C1A30747  13.738   0.472   8.713
 2102POPC   D2A30748  13.887   0.650   8.354
 2102POPC   C3A30749  13.631   0.521   8.027
 2102POPC   C4A30750  13.860   0.454   7.696
 2102POPC   C1B30751  13.389  44.967   8.645
 2102POPC   C2B30752  13.342   0.085   8.198
 2102POPC   C3B30753  13.552  44.969   7.824
 2102POPC   C4B30754  13.607   0.166   7.377
 2103POPC   NC330755   9.424  22.432   9.342
 2103POPC   PO430756   9.761  22.050   9.784
 2103POPC   GL130757   9.857  22.093   9.270
 2103POPC   GL230758   9.976  22.370   9.131
 2103POPC   C1A30759   9.652  22.065   8.808
 2103POPC   D2A30760   9.779  22.170   8.440
 2103POPC   C3A30761   9.621  22.260   8.080
 2103POPC   C4A30762   9.725  22.079   7.715
 2103POPC   C1B30763  10.173  22.523   8.736
 2103POPC   C2B30764  10.012  22.596   8.269
 2103POPC   C3B30765  10.045  22.480   7.807
 2103POPC   C4B30766   9.910  22.354   7.343
 2104POPC   NC330767  34.005   4.152   9.843
 2104POPC   PO430768  34.584   4.239   9.382
 2104POPC   GL130769  34.493   4.184   9.009
 2104POPC   GL230770  34.188   4.417   9.035
 2104POPC   C1A30771  34.693   4.045   8.631
 2104POPC   D2A30772  34.955   4.017   8.262
 2104POPC   C3A30773  34.769   4.196   7.923
 2104POPC   C4A30774  34.480   3.964   7.674
 2104POPC   C1B30775  34.362   4.478   8.627
 2104POPC   C2B30776  34.414   4.319   8.248
 2104POPC   C3B30777  34.311   4.421   7.836
 2104POPC   C4B30778  34.536   4.562   7.502
 2105POPC   NC330779  37.346   2.903   9.566
 2105POPC   PO430780  36.675   2.708   9.705
 2105POPC   GL130781  36.845   2.625   9.282
 2105POPC   GL230782  36.561   2.641   9.064
 2105POPC   C1A30783  37.054   2.834   8.898
 2105POPC   D2A30784  37.052   3.084   8.496
 2105POPC   C3A30785  37.045   2.911   8.080
 2105POPC   C4A30786  36.672   2.905   7.810
 2105POPC   C1B30787  36.750   2.417   8.690
 2105POPC   C2B30788  36.756   2.477   8.208
 2105POPC   C3B30789  36.749   2.400   7.753
 2105POPC   C4B30790  36.738   2.454   7.290
 2106POPC   NC330791  18.158  39.024   9.499
 2106POPC   PO430792  18.437  39.605   9.416
 2106POPC   GL130793  18.417  39.251   9.126
 2106POPC   GL230794  18.143  38.990   9.002
 2106POPC   C1A30795  18.572  39.098   8.764
 2106POPC   D2A30796  18.381  39.002   8.393
 2106POPC   C3A30797  18.653  39.048   8.030
 2106POPC   C4A30798  18.514  39.283   7.671
 2106POPC   C1B30799  18.005  39.303   8.770
 2106POPC   C2B30800  17.926  39.288   8.380
 2106POPC   C3B30801  18.157  39.291   8.023
 2106POPC   C4B30802  18.020  39.149   7.594
 2107POPC   NC330803  35.951  42.092   9.455
 2107POPC   PO430804  36.292  41.496   9.297
 2107POPC   GL130805  36.024  41.475   9.050
 2107POPC   GL230806  35.775  41.307   9.221
 2107POPC   C1A30807  35.754  41.700   8.845
 2107POPC   D2A30808  35.714  41.790   8.405
 2107POPC   C3A30809  36.081  41.775   8.160
 2107POPC   C4A30810  35.956  41.832   7.740
 2107POPC   C1B30811  35.707  41.182   8.793
 2107POPC   C2B30812  35.712  41.068   8.372
 2107POPC   C3B30813  35.801  41.353   8.038
 2107POPC   C4B30814  36.208  41.379   7.795
 2108POPC   NC330815  32.486   3.074   9.708
 2108POPC   PO430816  31.910   2.770   9.570
 2108POPC   GL130817  32.063   2.805   9.167
 2108POPC   GL230818  32.395   2.753   9.272
 2108POPC   C1A30819  32.148   2.720   8.735
 2108POPC   D2A30820  32.152   2.960   8.369
 2108POPC   C3A30821  31.961   2.859   7.992
 2108POPC   C4A30822  32.037   2.606   7.665
 2108POPC   C1B30823  32.622   2.876   8.921
 2108POPC   C2B30824  32.638   2.887   8.471
 2108POPC   C3B30825  32.535   3.001   8.035
 2108POPC   C4B30826  32.573   2.758   7.658
 2109POPC   NC330827  17.441  14.812   9.373
 2109POPC   PO430828  17.547  15.365   9.704
 2109POPC   GL130829  17.558  15.336   9.260
 2109POPC   GL230830  17.202  15.302   9.170
 2109POPC   C1A30831  17.742  15.245   8.836
 2109POPC   D2A30832  17.573  15.310   8.409
 2109POPC   C3A30833  17.730  15.377   8.006
 2109POPC   C4A30834  17.630  15.184   7.651
 2109POPC   C1B30835  17.280  15.023   8.779
 2109POPC   C2B30836  17.163  15.031   8.343
 2109POPC   C3B30837  17.194  15.147   7.905
 2109POPC   C4B30838  17.195  14.970   7.486
 2110POPC   NC330839   0.727   3.198   9.490
 2110POPC   PO430840   0.331   3.674   9.555
 2110POPC   GL130841   0.373   3.641   9.147
 2110POPC   GL230842   0.577   3.908   9.070
 2110POPC   C1A30843   0.250   3.631   8.741
 2110POPC   D2A30844   0.287   3.606   8.318
 2110POPC   C3A30845   0.141   3.399   7.972
 2110POPC   C4A30846   0.270   3.516   7.557
 2110POPC   C1B30847   0.729   3.782   8.720
 2110POPC   C2B30848   0.775   3.523   8.431
 2110POPC   C3B30849   0.728   3.673   8.027
 2110POPC   C4B30850   0.757   3.448   7.668
 2111POPC   NC330851  13.015  11.118   9.479
 2111POPC   PO430852  12.815  11.829   9.543
 2111POPC   GL130853  12.813  11.648   9.134
 2111POPC   GL230854  12.635  11.327   9.186
 2111POPC   C1A30855  12.992  11.346   8.816
 2111POPC   D2A30856  12.884  11.077   8.467
 2111POPC   C3A30857  12.948  11.255   8.069
 2111POPC   C4A30858  13.187  11.296   7.693
 2111POPC   C1B30859  12.520  11.060   8.835
 2111POPC   C2B30860  12.380  11.065   8.387
 2111POPC   C3B30861  12.469  11.061   7.945
 2111POPC   C4B30862  12.676  11.298   7.636
 2112POPC   NC330863  19.489  37.476   9.433
 2112POPC   PO430864  18.852  37.744   9.325
 2112POPC   GL130865  19.026  37.701   8.960
 2112POPC   GL230866  19.169  37.399   9.026
 2112POPC   C1A30867  19.045  37.982   8.596
 2112POPC   D2A30868  18.759  38.020   8.222
 2112POPC   C3A30869  19.037  37.936   7.898
 2112POPC   C4A30870  19.464  37.956   7.882
 2112POPC   C1B30871  19.098  37.273   8.603
 2112POPC   C2B30872  19.154  37.558   8.252
 2112POPC   C3B30873  19.305  37.478   7.832
 2112POPC   C4B30874  19.286  37.424   7.375
 2113POPC   NC330875   8.674  43.027   9.471
 2113POPC   PO430876   8.010  43.295   9.486
 2113POPC   GL130877   8.072  43.080   9.120
 2113POPC   GL230878   8.379  43.105   9.073
 2113POPC   C1A30879   8.112  42.896   8.694
 2113POPC   D2A30880   8.126  42.950   8.253
 2113POPC   C3A30881   8.085  43.130   7.833
 2113POPC   C4A30882   7.949  43.364   7.445
 2113POPC   C1B30883   8.647  42.828   8.833
 2113POPC   C2B30884   8.649  42.783   8.396
 2113POPC   C3B30885   8.583  43.033   8.040
 2113POPC   C4B30886   8.498  42.872   7.667
 2114POPC   NC330887  33.284  39.791   9.354
 2114POPC   PO430888  32.723  39.837   9.729
 2114POPC   GL130889  32.890  40.115   9.317
 2114POPC   GL230890  32.613  40.058   9.137
 2114POPC   C1A30891  33.073  40.166   8.856
 2114POPC   D2A30892  33.164  39.793   8.559
 2114POPC   C3A30893  33.072  39.863   8.114
 2114POPC   C4A30894  33.095  40.286   7.903
 2114POPC   C1B30895  32.644  39.933   8.704
 2114POPC   C2B30896  32.764  40.214   8.379
 2114POPC   C3B30897  32.601  40.138   7.984
 2114POPC   C4B30898  32.791  39.911   7.683
 2115POPC   NC330899  26.369  16.557   9.395
 2115POPC   PO430900  25.693  16.783   9.506
 2115POPC   GL130901  25.853  16.839   9.080
 2115POPC   GL230902  25.959  16.541   9.112
 2115POPC   C1A30903  25.923  16.998   8.638
 2115POPC   D2A30904  26.246  16.925   8.283
 2115POPC   C3A30905  26.117  17.055   7.853
 2115POPC   C4A30906  25.709  16.978   7.648
 2115POPC   C1B30907  26.076  16.496   8.713
 2115POPC   C2B30908  25.891  16.543   8.342
 2115POPC   C3B30909  26.095  16.524   7.971
 2115POPC   C4B30910  25.948  16.547   7.584
 2116POPC   NC330911  40.480   0.214   9.468
 2116POPC   PO430912  39.898   0.663   9.484
 2116POPC   GL130913  39.862   0.353   9.181
 2116POPC   GL230914  39.895   0.572   8.965
 2116POPC   C1A30915  39.679   0.133   8.820
 2116POPC   D2A30916  39.780   0.412   8.479
 2116POPC   C3A30917  39.717   0.312   8.068
 2116POPC   C4A30918  40.050   0.461   7.828
 2116POPC   C1B30919  40.201   0.676   8.687
 2116POPC   C2B30920  40.085   0.770   8.283
 2116POPC   C3B30921  39.752   0.847   8.024
 2116POPC   C4B30922  39.866   0.889   7.613
 2117POPC   NC330923  22.050   0.129   9.469
 2117POPC   PO430924  22.239   0.729   9.745
 2117POPC   GL130925  22.281   0.560   9.292
 2117POPC   GL230926  21.957   0.557   9.160
 2117POPC   C1A30927  22.348   0.408   8.839
 2117POPC   D2A30928  22.188   0.526   8.431
 2117POPC   C3A30929  22.331   0.449   7.999
 2117POPC   C4A30930  22.138   0.704   7.681
 2117POPC   C1B30931  21.883   0.264   8.797
 2117POPC   C2B30932  22.123   0.029   8.506
 2117POPC   C3B30933  22.071  44.989   8.078
 2117POPC   C4B30934  21.969   0.213   7.672
 2118POPC   NC330935   6.209  19.975   9.368
 2118POPC   PO430936   5.624  19.670   9.478
 2118POPC   GL130937   5.730  19.873   9.158
 2118POPC   GL230938   5.965  19.589   9.064
 2118POPC   C1A30939   5.791  19.970   8.752
 2118POPC   D2A30940   5.848  19.706   8.380
 2118POPC   C3A30941   5.793  19.988   8.053
 2118POPC   C4A30942   5.568  20.073   7.711
 2118POPC   C1B30943   6.244  19.727   8.735
 2118POPC   C2B30944   6.480  19.764   8.353
 2118POPC   C3B30945   6.223  19.697   7.981
 2118POPC   C4B30946   6.036  19.865   7.596
 2119POPC   NC330947  22.064  40.406   9.569
 2119POPC   PO430948  22.392  40.972   9.524
 2119POPC   GL130949  22.302  40.937   9.130
 2119POPC   GL230950  22.082  40.672   9.140
 2119POPC   C1A30951  22.236  40.945   8.723
 2119POPC   D2A30952  22.406  40.729   8.435
 2119POPC   C3A30953  22.241  40.802   8.067
 2119POPC   C4A30954  22.230  40.941   7.677
 2119POPC   C1B30955  22.040  40.454   8.763
 2119POPC   C2B30956  22.079  40.305   8.357
 2119POPC   C3B30957  21.966  40.386   7.965
 2119POPC   C4B30958  21.778  40.702   7.809
 2120POPC   NC330959  26.559  19.101   9.488
 2120POPC   PO430960  25.944  19.275   9.677
 2120POPC   GL130961  26.109  19.203   9.228
 2120POPC   GL230962  26.039  18.895   8.998
 2120POPC   C1A30963  26.277  19.287   8.794
 2120POPC   D2A30964  26.392  18.944   8.567
 2120POPC   C3A30965  26.495  19.030   8.157
 2120POPC   C4A30966  26.238  18.886   7.841
 2120POPC   C1B30967  25.872  18.912   8.577
 2120POPC   C2B30968  25.630  19.023   8.208
 2120POPC   C3B30969  25.774  19.080   7.781
 2120POPC   C4B30970  25.857  18.774   7.441
 2121POPC   NC330971  17.130  32.759   9.412
 2121POPC   PO430972  17.334  32.170   9.487
 2121POPC   GL130973  17.690  32.265   9.187
 2121POPC   GL230974  17.797  32.629   9.196
 2121POPC   C1A30975  17.676  32.177   8.749
 2121POPC   D2A30976  17.293  32.275   8.499
 2121POPC   C3A30977  17.266  32.339   8.046
 2121POPC   C4A30978  17.479  32.130   7.698
 2121POPC   C1B30979  17.513  32.643   8.834
 2121POPC   C2B30980  17.672  32.607   8.401
 2121POPC   C3B30981  17.767  32.424   8.018
 2121POPC   C4B30982  17.535  32.630   7.691
 2122POPC   NC330983  14.821  42.460   9.520
 2122POPC   PO430984  15.485  42.598   9.713
 2122POPC   GL130985  15.410  42.607   9.222
 2122POPC   GL230986  15.089  42.452   9.104
 2122POPC   C1A30987  15.456  42.337   8.801
 2122POPC   D2A30988  15.068  42.281   8.523
 2122POPC   C3A30989  15.057  42.258   8.039
 2122POPC   C4A30990  15.352  42.109   7.702
 2122POPC   C1B30991  15.141  42.769   8.773
 2122POPC   C2B30992  15.013  42.793   8.334
 2122POPC   C3B30993  15.179  42.770   7.926
 2122POPC   C4B30994  15.163  42.557   7.534
 2123POPC   NC330995  44.447  30.332   9.532
 2123POPC   PO430996  44.765  30.977   9.458
 2123POPC   GL130997  44.581  30.726   9.196
 2123POPC   GL230998  44.803  30.464   9.161
 2123POPC   C1A30999  44.425  30.779   8.806
 2123POPC   D2A31000  44.464  30.641   8.394
 2123POPC   C3A31001  44.511  30.859   7.993
 2123POPC   C4A31002  44.499  30.926   7.526
 2123POPC   C1B31003  44.864  30.257   8.755
 2123POPC   C2B31004  44.877  30.374   8.295
 2123POPC   C3B31005  44.752  30.317   7.836
 2123POPC   C4B31006   0.023  30.270   7.450
 2124POPC   NC331007  40.494  40.217   9.394
 2124POPC   PO431008  39.846  39.847   9.403
 2124POPC   GL131009  40.020  40.120   9.145
 2124POPC   GL231010  40.272  39.901   9.036
 2124POPC   C1A31011  39.845  40.042   8.759
 2124POPC   D2A31012  39.888  39.868   8.388
 2124POPC   C3A31013  39.715  40.082   8.089
 2124POPC   C4A31014  39.837  40.086   7.685
 2124POPC   C1B31015  40.363  39.977   8.593
 2124POPC   C2B31016  40.349  39.756   8.194
 2124POPC   C3B31017  40.234  39.713   7.784
 2124POPC   C4B31018  40.497  39.697   7.409
 2125POPC   NC331019  36.853  15.001   9.965
 2125POPC   PO431020  36.280  15.062   9.612
 2125POPC   GL131021  36.048  15.120   9.226
 2125POPC   GL231022  35.988  15.499   9.158
 2125POPC   C1A31023  35.910  14.867   8.859
 2125POPC   D2A31024  35.918  14.975   8.422
 2125POPC   C3A31025  36.094  15.059   8.019
 2125POPC   C4A31026  35.961  15.176   7.620
 2125POPC   C1B31027  36.232  15.329   8.791
 2125POPC   C2B31028  36.288  15.404   8.344
 2125POPC   C3B31029  36.486  15.393   7.917
 2125POPC   C4B31030  36.367  15.445   7.459
 2126POPC   NC331031  23.446   7.609   9.391
 2126POPC   PO431032  23.729   7.118   9.505
 2126POPC   GL131033  23.794   7.345   9.098
 2126POPC   GL231034  23.680   7.703   8.952
 2126POPC   C1A31035  23.677   7.256   8.674
 2126POPC   D2A31036  23.752   7.341   8.228
 2126POPC   C3A31037  23.514   7.129   7.935
 2126POPC   C4A31038  23.704   7.330   7.611
 2126POPC   C1B31039  23.345   7.941   8.698
 2126POPC   C2B31040  23.333   7.960   8.241
 2126POPC   C3B31041  23.421   7.645   7.893
 2126POPC   C4B31042  23.468   7.734   7.391
 2127POPC   NC331043  12.705  13.785   9.289
 2127POPC   PO431044  12.862  13.197   9.348
 2127POPC   GL131045  12.760  13.351   8.978
 2127POPC   GL231046  13.116  13.423   8.944
 2127POPC   C1A31047  12.765  13.640   8.635
 2127POPC   D2A31048  12.877  13.457   8.233
 2127POPC   C3A31049  12.642  13.527   7.851
 2127POPC   C4A31050  12.664  13.931   7.658
 2127POPC   C1B31051  13.253  13.626   8.565
 2127POPC   C2B31052  13.102  13.929   8.289
 2127POPC   C3B31053  13.098  13.779   7.865
 2127POPC   C4B31054  13.316  13.567   7.525
 2128POPC   NC331055  29.567  42.809   9.655
 2128POPC   PO431056  29.917  43.345   9.516
 2128POPC   GL131057  29.920  43.111   9.124
 2128POPC   GL231058  29.621  42.906   9.131
 2128POPC   C1A31059  30.175  42.998   8.724
 2128POPC   D2A31060  30.178  42.961   8.255
 2128POPC   C3A31061  30.016  43.325   8.069
 2128POPC   C4A31062  29.842  43.328   7.664
 2128POPC   C1B31063  29.657  42.936   8.717
 2128POPC   C2B31064  29.636  43.099   8.330
 2128POPC   C3B31065  29.719  42.900   7.958
 2128POPC   C4B31066  29.508  42.958   7.583
 2129POPC   NC331067  32.431  39.617   9.431
 2129POPC   PO431068  32.134  39.042   9.585
 2129POPC   GL131069  32.141  39.269   9.197
 2129POPC   GL231070  32.523  39.191   9.150
 2129POPC   C1A31071  31.974  39.274   8.774
 2129POPC   D2A31072  32.178  39.070   8.437
 2129POPC   C3A31073  32.125  39.283   8.042
 2129POPC   C4A31074  32.044  39.181   7.646
 2129POPC   C1B31075  32.458  39.429   8.775
 2129POPC   C2B31076  32.385  39.545   8.385
 2129POPC   C3B31077  32.592  39.577   8.016
 2129POPC   C4B31078  32.540  39.251   7.729
 2130POPC   NC331079  24.129  42.171   9.514
 2130POPC   PO431080  24.508  42.788   9.409
 2130POPC   GL131081  24.466  42.615   9.023
 2130POPC   GL231082  24.369  42.257   9.082
 2130POPC   C1A31083  24.598  42.390   8.644
 2130POPC   D2A31084  24.800  42.119   8.325
 2130POPC   C3A31085  24.641  42.377   8.014
 2130POPC   C4A31086  24.471  42.269   7.618
 2130POPC   C1B31087  24.097  42.041   8.775
 2130POPC   C2B31088  24.288  42.071   8.385
 2130POPC   C3B31089  24.383  41.926   8.006
 2130POPC   C4B31090  24.110  41.799   7.694
 2131POPC   NC331091  34.947  35.439   9.286
 2131POPC   PO431092  34.351  35.065   9.443
 2131POPC   GL131093  34.542  35.160   9.082
 2131POPC   GL231094  34.473  35.511   9.110
 2131POPC   C1A31095  34.627  35.218   8.642
 2131POPC   D2A31096  34.850  35.296   8.277
 2131POPC   C3A31097  34.560  35.264   7.898
 2131POPC   C4A31098  34.580  35.426   7.484
 2131POPC   C1B31099  34.676  35.711   8.756
 2131POPC   C2B31100  34.567  35.707   8.347
 2131POPC   C3B31101  34.450  35.764   7.940
 2131POPC   C4B31102  34.242  35.770   7.591
 2132POPC   NC331103  32.410  27.097   9.784
 2132POPC   PO431104  32.525  27.675   9.431
 2132POPC   GL131105  32.417  27.477   9.056
 2132POPC   GL231106  32.127  27.260   9.133
 2132POPC   C1A31107  32.426  27.792   8.694
 2132POPC   D2A31108  32.584  28.044   8.339
 2132POPC   C3A31109  32.475  27.879   7.961
 2132POPC   C4A31110  32.052  27.797   7.814
 2132POPC   C1B31111  32.082  27.395   8.670
 2132POPC   C2B31112  32.396  27.466   8.299
 2132POPC   C3B31113  32.320  27.374   7.836
 2132POPC   C4B31114  32.464  27.189   7.451
 2133POPC   NC331115  19.004  30.811   9.535
 2133POPC   PO431116  18.845  30.291   9.196
 2133POPC   GL131117  18.898  30.777   9.039
 2133POPC   GL231118  19.222  30.925   9.109
 2133POPC   C1A31119  18.993  31.123   8.708
 2133POPC   D2A31120  19.139  31.037   8.293
 2133POPC   C3A31121  18.832  30.868   7.995
 2133POPC   C4A31122  18.960  30.755   7.561
 2133POPC   C1B31123  19.369  30.600   8.841
 2133POPC   C2B31124  19.456  30.623   8.382
 2133POPC   C3B31125  19.262  30.574   7.955
 2133POPC   C4B31126  19.339  30.377   7.514
 2134POPC   NC331127  44.296   8.816   9.558
 2134POPC   PO431128  43.764   9.266   9.588
 2134POPC   GL131129  43.556   9.098   9.206
 2134POPC   GL231130  43.479   8.740   9.080
 2134POPC   C1A31131  43.754   9.143   8.806
 2134POPC   D2A31132  43.704   9.286   8.394
 2134POPC   C3A31133  44.025   9.191   8.114
 2134POPC   C4A31134  43.942   9.139   7.706
 2134POPC   C1B31135  43.890   8.651   8.861
 2134POPC   C2B31136  43.987   8.692   8.410
 2134POPC   C3B31137  43.806   8.674   7.975
 2134POPC   C4B31138  43.618   8.494   7.583
 2135POPC   NC331139   3.764  10.844   9.463
 2135POPC   PO431140   3.190  10.469   9.351
 2135POPC   GL131141   3.408  10.339   9.028
 2135POPC   GL231142   3.667  10.576   9.041
 2135POPC   C1A31143   3.529  10.347   8.608
 2135POPC   D2A31144   3.351  10.679   8.376
 2135POPC   C3A31145   3.361  10.796   7.969
 2135POPC   C4A31146   3.152  10.719   7.600
 2135POPC   C1B31147   3.787  10.794   8.678
 2135POPC   C2B31148   3.858  10.594   8.281
 2135POPC   C3B31149   3.723  10.466   7.894
 2135POPC   C4B31150   3.963  10.784   7.651
 2136POPC   NC331151  26.531   9.294   9.490
 2136POPC   PO431152  26.800   8.643   9.637
 2136POPC   GL131153  26.726   8.706   9.199
 2136POPC   GL231154  26.780   9.058   9.101
 2136POPC   C1A31155  26.725   8.657   8.760
 2136POPC   D2A31156  26.835   8.932   8.421
 2136POPC   C3A31157  26.781   8.836   7.990
 2136POPC   C4A31158  26.629   8.848   7.550
 2136POPC   C1B31159  26.745   9.326   8.732
 2136POPC   C2B31160  26.454   9.371   8.378
 2136POPC   C3B31161  26.361   9.152   8.005
 2136POPC   C4B31162  26.370   9.298   7.565
 2137POPC   NC331163  20.244  29.056   9.637
 2137POPC   PO431164  20.754  29.397   9.662
 2137POPC   GL131165  20.724  29.160   9.247
 2137POPC   GL231166  20.420  28.993   9.119
 2137POPC   C1A31167  20.738  29.231   8.785
 2137POPC   D2A31168  20.943  29.171   8.391
 2137POPC   C3A31169  20.751  29.176   7.981
 2137POPC   C4A31170  20.420  29.427   7.843
 2137POPC   C1B31171  20.282  28.998   8.649
 2137POPC   C2B31172  20.290  29.049   8.184
 2137POPC   C3B31173  20.342  28.921   7.738
 2137POPC   C4B31174  20.244  28.891   7.266
 2138POPC   NC331175  44.343  31.809   9.627
 2138POPC   PO431176  44.766  32.386   9.613
 2138POPC   GL131177  44.820  32.446   9.158
 2138POPC   GL231178  44.684  32.152   9.081
 2138POPC   C1A31179  44.777  32.587   8.752
 2138POPC   D2A31180  44.556  32.375   8.432
 2138POPC   C3A31181  44.746  32.412   8.049
 2138POPC   C4A31182  44.539  32.428   7.679
 2138POPC   C1B31183  44.906  32.113   8.721
 2138POPC   C2B31184  44.865  31.971   8.343
 2138POPC   C3B31185  44.517  31.935   8.084
 2138POPC   C4B31186  44.462  31.905   7.672
 2139POPC   NC331187   1.977   0.157   9.481
 2139POPC   PO431188   1.597   0.784   9.506
 2139POPC   GL131189   1.812   0.565   9.173
 2139POPC   GL231190   2.073   0.355   9.032
 2139POPC   C1A31191   1.700   0.565   8.743
 2139POPC   D2A31192   1.861   0.852   8.435
 2139POPC   C3A31193   1.985   0.610   8.122
 2139POPC   C4A31194   1.887   0.489   7.739
 2139POPC   C1B31195   2.165   0.063   8.734
 2139POPC   C2B31196   1.977   0.135   8.329
 2139POPC   C3B31197   2.179   0.128   7.937
 2139POPC   C4B31198   2.040  44.863   7.629
 2140POPC   NC331199  41.245   0.810   9.710
 2140POPC   PO431200  41.880   0.595   9.638
 2140POPC   GL131201  41.627   0.595   9.246
 2140POPC   GL231202  41.303   0.528   9.177
 2140POPC   C1A31203  41.734   0.521   8.838
 2140POPC   D2A31204  41.699   0.243   8.495
 2140POPC   C3A31205  41.684   0.440   8.089
 2140POPC   C4A31206  41.723   0.666   7.697
 2140POPC   C1B31207  41.229   0.382   8.766
 2140POPC   C2B31208  41.238   0.500   8.349
 2140POPC   C3B31209  41.168   0.445   7.900
 2140POPC   C4B31210  41.190   0.656   7.506
 2141POPC   NC331211  20.896  42.671   9.432
 2141POPC   PO431212  20.567  43.323   9.535
 2141POPC   GL131213  20.851  43.340   9.161
 2141POPC   GL231214  20.939  43.020   9.052
 2141POPC   C1A31215  20.719  43.387   8.724
 2141POPC   D2A31216  20.537  43.323   8.298
 2141POPC   C3A31217  20.798  43.368   7.929
 2141POPC   C4A31218  20.793  43.692   7.649
 2141POPC   C1B31219  20.784  42.891   8.627
 2141POPC   C2B31220  20.861  42.914   8.175
 2141POPC   C3B31221  20.861  42.896   7.693
 2141POPC   C4B31222  20.843  42.826   7.234
 2142POPC   NC331223   8.321  10.980   9.576
 2142POPC   PO431224   8.060  11.627   9.475
 2142POPC   GL131225   8.127  11.269   9.214
 2142POPC   GL231226   7.823  11.160   9.134
 2142POPC   C1A31227   8.312  11.153   8.850
 2142POPC   D2A31228   8.353  11.409   8.500
 2142POPC   C3A31229   8.389  11.183   8.150
 2142POPC   C4A31230   8.176  11.276   7.807
 2142POPC   C1B31231   7.894  11.528   8.837
 2142POPC   C2B31232   8.050  11.829   8.557
 2142POPC   C3B31233   8.006  11.639   8.164
 2142POPC   C4B31234   7.982  11.779   7.724
 2143POPC   NC331235  36.590   5.307   9.547
 2143POPC   PO431236  37.142   4.973   9.725
 2143POPC   GL131237  37.045   5.181   9.325
 2143POPC   GL231238  36.752   5.046   9.136
 2143POPC   C1A31239  37.147   5.259   8.896
 2143POPC   D2A31240  37.103   5.202   8.469
 2143POPC   C3A31241  37.127   4.913   8.137
 2143POPC   C4A31242  36.818   5.051   7.842
 2143POPC   C1B31243  36.835   4.828   8.730
 2143POPC   C2B31244  36.730   4.659   8.315
 2143POPC   C3B31245  36.517   4.628   7.907
 2143POPC   C4B31246  36.453   4.866   7.523
 2144POPC   NC331247   8.308  30.310   9.523
 2144POPC   PO431248   7.808  29.824   9.570
 2144POPC   GL131249   8.087  29.882   9.238
 2144POPC   GL231250   8.480  29.881   9.247
 2144POPC   C1A31251   8.173  29.966   8.831
 2144POPC   D2A31252   8.153  30.194   8.475
 2144POPC   C3A31253   8.129  30.027   8.076
 2144POPC   C4A31254   8.241  30.267   7.706
 2144POPC   C1B31255   8.699  29.711   8.857
 2144POPC   C2B31256   8.698  29.498   8.430
 2144POPC   C3B31257   8.514  29.654   8.033
 2144POPC   C4B31258   8.279  29.748   7.657
 2145POPC   NC331259  33.434  22.044   9.459
 2145POPC   PO431260  34.092  22.280   9.497
 2145POPC   GL131261  33.846  22.231   9.163
 2145POPC   GL231262  33.977  21.930   9.090
 2145POPC   C1A31263  33.694  22.251   8.755
 2145POPC   D2A31264  33.855  22.187   8.350
 2145POPC   C3A31265  33.682  22.310   8.011
 2145POPC   C4A31266  33.652  22.240   7.598
 2145POPC   C1B31267  34.146  21.705   8.757
 2145POPC   C2B31268  34.248  21.839   8.357
 2145POPC   C3B31269  34.103  21.956   7.936
 2145POPC   C4B31270  34.020  21.914   7.489
 2146POPC   NC331271  38.249  42.598   9.578
 2146POPC   PO431272  38.460  43.202   9.471
 2146POPC   GL131273  38.371  42.889   9.168
 2146POPC   GL231274  38.654  42.633   9.196
 2146POPC   C1A31275  38.311  43.012   8.753
 2146POPC   D2A31276  38.377  43.282   8.405
 2146POPC   C3A31277  38.286  42.987   8.052
 2146POPC   C4A31278  38.396  42.987   7.630
 2146POPC   C1B31279  38.809  42.933   8.874
 2146POPC   C2B31280  38.761  42.948   8.416
 2146POPC   C3B31281  38.751  43.217   8.035
 2146POPC   C4B31282  38.903  43.169   7.618
 2147POPC   NC331283   4.840  43.355   9.428
 2147POPC   PO431284   4.790  42.664   9.530
 2147POPC   GL131285   4.930  42.815   9.131
 2147POPC   GL231286   4.682  43.060   9.036
 2147POPC   C1A31287   4.978  42.851   8.666
 2147POPC   D2A31288   4.963  42.833   8.210
 2147POPC   C3A31289   5.337  42.942   7.980
 2147POPC   C4A31290   5.319  42.994   7.572
 2147POPC   C1B31291   4.953  43.364   8.798
 2147POPC   C2B31292   4.979  43.560   8.421
 2147POPC   C3B31293   4.951  43.329   8.052
 2147POPC   C4B31294   5.052  43.402   7.679
 2148POPC   NC331295   3.601  42.138   9.515
 2148POPC   PO431296   3.216  42.726   9.408
 2148POPC   GL131297   3.414  42.428   9.124
 2148POPC   GL231298   3.757  42.443   9.084
 2148POPC   C1A31299   3.469  42.166   8.754
 2148POPC   D2A31300   3.599  42.297   8.355
 2148POPC   C3A31301   3.455  42.109   7.976
 2148POPC   C4A31302   3.280  42.205   7.571
 2148POPC   C1B31303   3.979  42.310   8.739
 2148POPC   C2B31304   4.091  42.475   8.346
 2148POPC   C3B31305   3.887  42.491   7.959
 2148POPC   C4B31306   3.704  42.480   7.554
 2149POPC   NC331307  19.207  11.341   9.566
 2149POPC   PO431308  18.667  11.353   9.228
 2149POPC   GL131309  19.080  11.318   9.063
 2149POPC   GL231310  19.266  11.645   9.100
 2149POPC   C1A31311  19.202  11.269   8.631
 2149POPC   D2A31312  19.445  11.175   8.258
 2149POPC   C3A31313  19.167  11.035   7.954
 2149POPC   C4A31314  18.823  10.965   7.759
 2149POPC   C1B31315  18.961  11.721   8.755
 2149POPC   C2B31316  19.017  11.654   8.318
 2149POPC   C3B31317  19.150  11.580   7.914
 2149POPC   C4B31318  19.482  11.348   7.750
 2150POPC   NC331319   5.007  12.370   9.440
 2150POPC   PO431320   4.713  11.738   9.601
 2150POPC   GL131321   4.857  11.913   9.236
 2150POPC   GL231322   5.222  11.924   9.211
 2150POPC   C1A31323   4.864  12.030   8.810
 2150POPC   D2A31324   5.161  11.997   8.441
 2150POPC   C3A31325   4.967  12.002   8.052
 2150POPC   C4A31326   4.709  11.863   7.728
 2150POPC   C1B31327   5.329  12.232   8.861
 2150POPC   C2B31328   5.314  12.476   8.498
 2150POPC   C3B31329   5.397  12.316   8.082
 2150POPC   C4B31330   5.299  12.524   7.726
 2151POPC   NC331331  19.729  13.673   9.607
 2151POPC   PO431332  20.047  13.278   9.085
 2151POPC   GL131333  19.785  13.611   8.968
 2151POPC   GL231334  19.595  13.816   9.152
 2151POPC   C1A31335  19.790  13.687   8.528
 2151POPC   D2A31336  20.102  13.419   8.370
 2151POPC   C3A31337  20.165  13.353   7.960
 2151POPC   C4A31338  20.017  13.713   7.769
 2151POPC   C1B31339  19.407  13.960   8.812
 2151POPC   C2B31340  19.362  13.948   8.376
 2151POPC   C3B31341  19.521  13.805   7.969
 2151POPC   C4B31342  19.569  13.807   7.502
 2152POPC   NC331343  14.852  16.364   9.483
 2152POPC   PO431344  15.440  16.064   9.611
 2152POPC   GL131345  15.270  16.153   9.217
 2152POPC   GL231346  15.249  15.796   9.123
 2152POPC   C1A31347  15.464  16.159   8.815
 2152POPC   D2A31348  15.516  15.853   8.587
 2152POPC   C3A31349  15.240  15.989   8.287
 2152POPC   C4A31350  15.341  16.157   7.872
 2152POPC   C1B31351  14.927  15.612   8.849
 2152POPC   C2B31352  14.788  15.746   8.460
 2152POPC   C3B31353  14.922  15.648   8.057
 2152POPC   C4B31354  14.917  15.911   7.730
 2153POPC   NC331355   7.542  10.556   9.618
 2153POPC   PO431356   6.833  10.536   9.631
 2153POPC   GL131357   7.231  10.584   9.203
 2153POPC   GL231358   7.548  10.420   9.140
 2153POPC   C1A31359   7.419  10.683   8.740
 2153POPC   D2A31360   7.397  10.440   8.329
 2153POPC   C3A31361   7.584  10.617   7.969
 2153POPC   C4A31362   7.404  10.689   7.547
 2153POPC   C1B31363   7.748  10.285   8.771
 2153POPC   C2B31364   7.900  10.365   8.364
 2153POPC   C3B31365   7.801  10.145   7.976
 2153POPC   C4B31366   7.732  10.265   7.563
 2154POPC   NC331367  18.179  32.370   9.448
 2154POPC   PO431368  18.804  32.580   9.231
 2154POPC   GL131369  18.416  32.491   9.010
 2154POPC   GL231370  18.265  32.177   8.977
 2154POPC   C1A31371  18.040  32.538   8.748
 2154POPC   D2A31372  18.064  32.248   8.415
 2154POPC   C3A31373  18.280  32.433   8.087
 2154POPC   C4A31374  18.362  32.197   7.743
 2154POPC   C1B31375  18.490  31.953   8.691
 2154POPC   C2B31376  18.565  32.066   8.296
 2154POPC   C3B31377  18.565  31.788   8.018
 2154POPC   C4B31378  18.705  31.758   7.678
 2155POPC   NC331379   8.423  19.670   9.513
 2155POPC   PO431380   7.803  19.861   9.452
 2155POPC   GL131381   8.076  20.053   9.159
 2155POPC   GL231382   8.410  19.913   9.081
 2155POPC   C1A31383   8.030  19.994   8.737
 2155POPC   D2A31384   7.871  20.118   8.358
 2155POPC   C3A31385   8.051  19.824   8.105
 2155POPC   C4A31386   8.114  19.684   7.714
 2155POPC   C1B31387   8.520  20.197   8.781
 2155POPC   C2B31388   8.381  20.153   8.379
 2155POPC   C3B31389   8.563  19.832   8.120
 2155POPC   C4B31390   8.625  19.799   7.677
 2156POPC   NC331391  13.759  14.744   9.354
 2156POPC   PO431392  13.602  14.104   9.519
 2156POPC   GL131393  13.756  14.259   9.175
 2156POPC   GL231394  13.455  14.443   9.098
 2156POPC   C1A31395  13.847  14.330   8.755
 2156POPC   D2A31396  13.984  14.442   8.346
 2156POPC   C3A31397  14.065  14.086   8.129
 2156POPC   C4A31398  13.934  14.040   7.717
 2156POPC   C1B31399  13.353  14.560   8.694
 2156POPC   C2B31400  13.466  14.454   8.269
 2156POPC   C3B31401  13.637  14.487   7.829
 2156POPC   C4B31402  13.386  14.510   7.432
 2157POPC   NC331403  27.860  26.280   9.499
 2157POPC   PO431404  27.428  25.823   9.537
 2157POPC   GL131405  27.379  25.967   9.133
 2157POPC   GL231406  27.086  25.720   9.090
 2157POPC   C1A31407  27.641  26.108   8.744
 2157POPC   D2A31408  27.744  26.283   8.322
 2157POPC   C3A31409  27.734  26.030   7.935
 2157POPC   C4A31410  27.972  25.776   7.636
 2157POPC   C1B31411  27.152  25.942   8.684
 2157POPC   C2B31412  27.291  25.998   8.280
 2157POPC   C3B31413  27.213  26.102   7.881
 2157POPC   C4B31414  27.392  25.866   7.573
 2158POPC   NC331415  27.936   8.105   9.544
 2158POPC   PO431416  28.268   8.671   9.510
 2158POPC   GL131417  28.405   8.338   9.228
 2158POPC   GL231418  28.148   8.123   9.090
 2158POPC   C1A31419  28.447   8.397   8.769
 2158POPC   D2A31420  28.158   8.580   8.469
 2158POPC   C3A31421  28.270   8.506   8.028
 2158POPC   C4A31422  28.666   8.471   7.768
 2158POPC   C1B31423  28.054   8.038   8.682
 2158POPC   C2B31424  28.293   7.949   8.299
 2158POPC   C3B31425  28.374   8.027   7.850
 2158POPC   C4B31426  28.169   7.880   7.462
 2159POPC   NC331427  22.279  38.281   9.303
 2159POPC   PO431428  21.766  38.697   9.600
 2159POPC   GL131429  21.965  38.672   9.168
 2159POPC   GL231430  22.347  38.770   9.209
 2159POPC   C1A31431  21.950  38.416   8.750
 2159POPC   D2A31432  21.812  38.379   8.287
 2159POPC   C3A31433  21.932  38.602   7.852
 2159POPC   C4A31434  21.731  38.589   7.400
 2159POPC   C1B31435  22.428  38.617   8.766
 2159POPC   C2B31436  22.333  38.335   8.426
 2159POPC   C3B31437  22.247  38.240   8.018
 2159POPC   C4B31438  22.477  38.581   7.804
 2160POPC   NC331439   9.703  44.453   9.410
 2160POPC   PO431440   9.483   0.144   9.483
 2160POPC   GL131441   9.680  44.870   9.132
 2160POPC   GL231442  10.001  44.850   8.942
 2160POPC   C1A31443   9.580  44.679   8.703
 2160POPC   D2A31444   9.978  44.667   8.415
 2160POPC   C3A31445   9.943  44.780   8.004
 2160POPC   C4A31446   9.519  44.705   7.954
 2160POPC   C1B31447   9.965  44.365   8.820
 2160POPC   C2B31448   9.878  44.115   8.460
 2160POPC   C3B31449   9.888  44.273   8.048
 2160POPC   C4B31450   9.725  44.200   7.644
 2161POPC   NC331451  36.690  17.734   9.413
 2161POPC   PO431452  37.037  17.137   9.515
 2161POPC   GL131453  36.905  17.320   9.149
 2161POPC   GL231454  36.804  17.045   9.024
 2161POPC   C1A31455  37.031  17.536   8.761
 2161POPC   D2A31456  36.913  17.845   8.441
 2161POPC   C3A31457  36.852  17.681   7.983
 2161POPC   C4A31458  37.075  17.554   7.569
 2161POPC   C1B31459  36.669  17.180   8.667
 2161POPC   C2B31460  36.921  17.248   8.292
 2161POPC   C3B31461  36.949  17.129   7.846
 2161POPC   C4B31462  37.168  17.049   7.440
 2162POPC   NC331463  29.075  14.566   9.554
 2162POPC   PO431464  29.466  14.017   9.411
 2162POPC   GL131465  29.102  14.240   9.155
 2162POPC   GL231466  28.847  14.556   9.106
 2162POPC   C1A31467  29.161  14.351   8.760
 2162POPC   D2A31468  29.284  14.565   8.429
 2162POPC   C3A31469  29.150  14.388   8.087
 2162POPC   C4A31470  29.250  14.140   7.780
 2162POPC   C1B31471  28.963  14.811   8.745
 2162POPC   C2B31472  28.915  14.965   8.338
 2162POPC   C3B31473  28.875  14.835   7.908
 2162POPC   C4B31474  29.139  14.604   7.625
 2163POPC   NC331475  14.020  24.084   9.580
 2163POPC   PO431476  14.549  23.561   9.503
 2163POPC   GL131477  14.532  23.798   9.166
 2163POPC   GL231478  14.201  23.864   9.159
 2163POPC   C1A31479  14.565  23.663   8.730
 2163POPC   D2A31480  14.743  23.686   8.314
 2163POPC   C3A31481  14.543  23.394   8.015
 2163POPC   C4A31482  14.162  23.455   7.855
 2163POPC   C1B31483  14.071  23.819   8.738
 2163POPC   C2B31484  14.205  23.667   8.338
 2163POPC   C3B31485  14.375  23.887   7.992
 2163POPC   C4B31486  14.081  24.062   7.752
 2164POPC   NC331487  17.056  12.375   9.528
 2164POPC   PO431488  16.694  12.966   9.413
 2164POPC   GL131489  16.613  12.726   9.076
 2164POPC   GL231490  16.942  12.601   9.082
 2164POPC   C1A31491  16.518  12.803   8.653
 2164POPC   D2A31492  16.650  12.917   8.233
 2164POPC   C3A31493  16.407  12.708   7.920
 2164POPC   C4A31494  16.303  12.699   7.440
 2164POPC   C1B31495  17.024  12.675   8.667
 2164POPC   C2B31496  17.159  12.877   8.300
 2164POPC   C3B31497  17.028  12.988   7.882
 2164POPC   C4B31498  16.623  13.149   7.703
 2165POPC   NC331499  18.718  13.539   9.850
 2165POPC   PO431500  19.277  13.783   9.582
 2165POPC   GL131501  19.081  13.798   9.196
 2165POPC   GL231502  19.235  13.455   9.110
 2165POPC   C1A31503  18.940  13.757   8.783
 2165POPC   D2A31504  19.004  13.579   8.400
 2165POPC   C3A31505  18.982  13.799   8.058
 2165POPC   C4A31506  19.087  13.788   7.636
 2165POPC   C1B31507  19.379  13.446   8.709
 2165POPC   C2B31508  19.463  13.354   8.273
 2165POPC   C3B31509  19.215  13.370   7.901
 2165POPC   C4B31510  19.325  13.379   7.419
 2166POPC   NC331511  11.947  22.982   9.343
 2166POPC   PO431512  12.456  22.614   9.520
 2166POPC   GL131513  12.300  22.690   9.102
 2166POPC   GL231514  12.395  23.046   9.046
 2166POPC   C1A31515  11.995  22.753   8.722
 2166POPC   D2A31516  12.066  22.888   8.331
 2166POPC   C3A31517  11.852  22.963   7.949
 2166POPC   C4A31518  11.898  23.102   7.520
 2166POPC   C1B31519  12.484  22.831   8.640
 2166POPC   C2B31520  12.554  22.878   8.221
 2166POPC   C3B31521  12.347  23.072   7.883
 2166POPC   C4B31522  12.382  23.258   7.490
 2167POPC   NC331523  23.221  14.069   9.595
 2167POPC   PO431524  23.188  14.727   9.474
 2167POPC   GL131525  23.005  14.497   9.139
 2167POPC   GL231526  22.968  14.124   9.147
 2167POPC   C1A31527  22.894  14.414   8.710
 2167POPC   D2A31528  22.933  14.541   8.291
 2167POPC   C3A31529  22.609  14.390   8.029
 2167POPC   C4A31530  22.733  14.662   7.750
 2167POPC   C1B31531  23.166  13.955   8.782
 2167POPC   C2B31532  23.070  14.058   8.347
 2167POPC   C3B31533  23.065  14.156   7.890
 2167POPC   C4B31534  23.288  13.978   7.522
 2168POPC   NC331535   2.171  19.408   9.496
 2168POPC   PO431536   2.059  20.135   9.428
 2168POPC   GL131537   2.052  20.135   8.996
 2168POPC   GL231538   1.981  19.781   9.013
 2168POPC   C1A31539   2.042  20.116   8.552
 2168POPC   D2A31540   2.144  19.831   8.225
 2168POPC   C3A31541   2.062  19.835   7.798
 2168POPC   C4A31542   2.287  19.661   7.432
 2168POPC   C1B31543   1.907  19.589   8.625
 2168POPC   C2B31544   1.701  19.348   8.306
 2168POPC   C3B31545   1.718  19.457   7.889
 2168POPC   C4B31546   1.812  19.245   7.521
 2169POPC   NC331547   6.495  25.193   9.733
 2169POPC   PO431548   6.966  25.529   9.421
 2169POPC   GL131549   6.760  25.276   9.101
 2169POPC   GL231550   6.402  25.184   9.223
 2169POPC   C1A31551   6.691  25.285   8.616
 2169POPC   D2A31552   6.375  25.219   8.311
 2169POPC   C3A31553   6.532  25.404   7.921
 2169POPC   C4A31554   6.955  25.308   7.752
 2169POPC   C1B31555   6.487  24.908   8.870
 2169POPC   C2B31556   6.778  24.804   8.484
 2169POPC   C3B31557   6.714  24.924   8.031
 2169POPC   C4B31558   6.238  24.940   7.888
 2170POPC   NC331559  11.506  17.090   9.335
 2170POPC   PO431560  11.119  16.548   9.511
 2170POPC   GL131561  11.103  16.793   9.130
 2170POPC   GL231562  11.419  16.676   9.065
 2170POPC   C1A31563  11.230  17.053   8.752
 2170POPC   D2A31564  11.493  17.143   8.376
 2170POPC   C3A31565  11.327  16.896   8.021
 2170POPC   C4A31566  11.408  16.840   7.588
 2170POPC   C1B31567  11.256  16.327   8.853
 2170POPC   C2B31568  11.336  16.242   8.409
 2170POPC   C3B31569  11.141  16.380   8.024
 2170POPC   C4B31570  11.327  16.332   7.637
 2171POPC   NC331571  38.560  13.743   9.259
 2171POPC   PO431572  38.066  13.359   9.553
 2171POPC   GL131573  38.201  13.292   9.131
 2171POPC   GL231574  38.134  13.634   8.976
 2171POPC   C1A31575  38.356  13.251   8.708
 2171POPC   D2A31576  38.657  13.335   8.372
 2171POPC   C3A31577  38.403  13.431   8.037
 2171POPC   C4A31578  38.221  13.735   7.841
 2171POPC   C1B31579  38.461  13.736   8.628
 2171POPC   C2B31580  38.544  13.871   8.222
 2171POPC   C3B31581  38.737  13.798   7.823
 2171POPC   C4B31582  38.897  13.811   7.381
 2172POPC   NC331583  32.572   3.862   9.530
 2172POPC   PO431584  32.119   3.378   9.689
 2172POPC   GL131585  32.310   3.288   9.249
 2172POPC   GL231586  32.417   3.623   9.119
 2172POPC   C1A31587  32.334   3.263   8.762
 2172POPC   D2A31588  32.204   3.475   8.388
 2172POPC   C3A31589  32.145   3.323   7.990
 2172POPC   C4A31590  32.166   3.099   7.585
 2172POPC   C1B31591  32.138   3.768   8.808
 2172POPC   C2B31592  32.181   3.978   8.416
 2172POPC   C3B31593  32.143   3.843   8.003
 2172POPC   C4B31594  32.357   3.642   7.673
 2173POPC   NC331595  16.680  14.671   9.355
 2173POPC   PO431596  16.771  15.326   9.520
 2173POPC   GL131597  16.706  15.137   9.162
 2173POPC   GL231598  16.687  15.427   9.002
 2173POPC   C1A31599  16.774  14.978   8.761
 2173POPC   D2A31600  16.749  15.307   8.509
 2173POPC   C3A31601  16.726  15.175   8.127
 2173POPC   C4A31602  16.725  14.977   7.750
 2173POPC   C1B31603  16.392  15.623   8.720
 2173POPC   C2B31604  16.265  15.400   8.343
 2173POPC   C3B31605  16.431  15.583   7.975
 2173POPC   C4B31606  16.841  15.517   7.788
 2174POPC   NC331607   9.024   7.766   9.471
 2174POPC   PO431608   9.129   8.302   9.539
 2174POPC   GL131609   9.013   8.426   9.120
 2174POPC   GL231610   8.919   8.107   9.023
 2174POPC   C1A31611   8.767   8.540   8.736
 2174POPC   D2A31612   8.716   8.316   8.335
 2174POPC   C3A31613   8.918   8.367   7.924
 2174POPC   C4A31614   8.831   8.219   7.515
 2174POPC   C1B31615   9.147   8.230   8.636
 2174POPC   C2B31616   9.178   8.043   8.239
 2174POPC   C3B31617   9.214   7.969   7.787
 2174POPC   C4B31618   9.346   8.172   7.400
 2175POPC   NC331619  15.529  42.203   9.496
 2175POPC   PO431620  15.943  42.778   9.406
 2175POPC   GL131621  15.916  42.446   9.092
 2175POPC   GL231622  16.161  42.155   9.128
 2175POPC   C1A31623  16.008  42.376   8.631
 2175POPC   D2A31624  16.266  42.427   8.233
 2175POPC   C3A31625  15.993  42.603   7.938
 2175POPC   C4A31626  15.565  42.466   8.031
 2175POPC   C1B31627  16.309  41.969   8.741
 2175POPC   C2B31628  16.306  41.908   8.292
 2175POPC   C3B31629  16.206  42.067   7.836
 2175POPC   C4B31630  16.100  41.953   7.380
 2176POPC   NC331631  31.688  17.210   9.789
 2176POPC   PO431632  32.300  17.477   9.469
 2176POPC   GL131633  32.292  17.452   9.045
 2176POPC   GL231634  32.475  17.184   9.058
 2176POPC   C1A31635  32.358  17.477   8.610
 2176POPC   D2A31636  32.254  17.763   8.275
 2176POPC   C3A31637  32.351  17.476   7.962
 2176POPC   C4A31638  32.070  17.144   7.869
 2176POPC   C1B31639  32.703  17.066   8.704
 2176POPC   C2B31640  32.730  17.225   8.300
 2176POPC   C3B31641  32.577  17.014   7.920
 2176POPC   C4B31642  32.620  17.156   7.528
 2177POPC   NC331643  12.829  36.803   9.393
 2177POPC   PO431644  12.415  37.274   9.549
 2177POPC   GL131645  12.449  37.058   9.124
 2177POPC   GL231646  12.768  37.092   8.960
 2177POPC   C1A31647  12.535  36.680   8.805
 2177POPC   D2A31648  12.682  36.864   8.436
 2177POPC   C3A31649  12.665  36.631   8.074
 2177POPC   C4A31650  12.821  36.471   7.702
 2177POPC   C1B31651  13.139  36.886   8.736
 2177POPC   C2B31652  13.288  37.056   8.323
 2177POPC   C3B31653  13.048  36.964   7.947
 2177POPC   C4B31654  13.091  36.897   7.481
 2178POPC   NC331655  34.056  24.501   9.550
 2178POPC   PO431656  33.521  24.869   9.476
 2178POPC   GL131657  33.685  24.496   9.203
 2178POPC   GL231658  33.968  24.190   9.162
 2178POPC   C1A31659  33.697  24.448   8.796
 2178POPC   D2A31660  33.554  24.581   8.435
 2178POPC   C3A31661  33.748  24.732   8.113
 2178POPC   C4A31662  33.644  24.627   7.735
 2178POPC   C1B31663  34.029  24.093   8.725
 2178POPC   C2B31664  33.740  24.119   8.375
 2178POPC   C3B31665  33.859  24.232   7.984
 2178POPC   C4B31666  34.136  24.526   7.817
 2179POPC   NC331667  15.535  32.884   9.658
 2179POPC   PO431668  14.932  32.796   9.528
 2179POPC   GL131669  15.226  32.984   9.226
 2179POPC   GL231670  15.528  32.769   9.154
 2179POPC   C1A31671  15.107  33.140   8.814
 2179POPC   D2A31672  15.302  33.236   8.411
 2179POPC   C3A31673  15.056  33.206   8.048
 2179POPC   C4A31674  15.146  33.191   7.630
 2179POPC   C1B31675  15.602  32.975   8.753
 2179POPC   C2B31676  15.589  32.811   8.314
 2179POPC   C3B31677  15.573  33.062   7.937
 2179POPC   C4B31678  15.595  32.899   7.517
 2180POPC   NC331679  12.461  43.026   9.507
 2180POPC   PO431680  13.131  43.337   9.490
 2180POPC   GL131681  12.816  43.294   9.185
 2180POPC   GL231682  12.826  42.965   9.141
 2180POPC   C1A31683  12.748  43.323   8.752
 2180POPC   D2A31684  12.979  43.222   8.409
 2180POPC   C3A31685  12.815  43.395   8.096
 2180POPC   C4A31686  12.974  43.383   7.695
 2180POPC   C1B31687  13.046  42.842   8.759
 2180POPC   C2B31688  12.944  42.714   8.361
 2180POPC   C3B31689  12.859  42.891   7.971
 2180POPC   C4B31690  12.707  42.687   7.621
 2181POPC   NC331691  34.469   0.131   9.565
 2181POPC   PO431692  34.500  44.441   9.564
 2181POPC   GL131693  34.367  44.606   9.192
 2181POPC   GL231694  34.630  44.866   9.098
 2181POPC   C1A31695  34.318  44.597   8.737
 2181POPC   D2A31696  34.579  44.678   8.391
 2181POPC   C3A31697  34.444  44.457   8.048
 2181POPC   C4A31698  34.495  44.709   7.698
 2181POPC   C1B31699  34.529   0.085   8.695
 2181POPC   C2B31700  34.643   0.224   8.282
 2181POPC   C3B31701  34.717   0.169   7.838
 2181POPC   C4B31702  34.468   0.156   7.436
 2182POPC   NC331703  11.676  31.326   9.489
 2182POPC   PO431704  12.306  31.649   9.667
 2182POPC   GL131705  12.219  31.651   9.220
 2182POPC   GL231706  12.115  31.298   9.208
 2182POPC   C1A31707  11.939  31.612   8.825
 2182POPC   D2A31708  11.822  31.422   8.386
 2182POPC   C3A31709  12.022  31.534   7.961
 2182POPC   C4A31710  11.913  31.582   7.487
 2182POPC   C1B31711  12.035  31.113   8.797
 2182POPC   C2B31712  12.216  31.106   8.395
 2182POPC   C3B31713  12.004  31.010   8.027
 2182POPC   C4B31714  12.123  31.010   7.641
 2183POPC   NC331715  29.301  25.801   9.437
 2183POPC   PO431716  28.942  26.387   9.542
 2183POPC   GL131717  29.083  26.175   9.161
 2183POPC   GL231718  28.877  25.844   9.168
 2183POPC   C1A31719  29.327  25.985   8.813
 2183POPC   D2A31720  29.480  26.113   8.414
 2183POPC   C3A31721  29.245  26.075   8.053
 2183POPC   C4A31722  29.167  26.308   7.745
 2183POPC   C1B31723  28.793  25.954   8.796
 2183POPC   C2B31724  28.964  25.958   8.439
 2183POPC   C3B31725  28.807  25.800   8.065
 2183POPC   C4B31726  28.870  25.896   7.663
 2184POPC   NC331727  35.475  32.620   9.764
 2184POPC   PO431728  35.043  32.229   9.733
 2184POPC   GL131729  35.075  32.239   9.203
 2184POPC   GL231730  35.460  32.236   9.123
 2184POPC   C1A31731  35.214  32.081   8.740
 2184POPC   D2A31732  35.431  32.270   8.392
 2184POPC   C3A31733  35.154  32.306   8.050
 2184POPC   C4A31734  35.159  32.112   7.657
 2184POPC   C1B31735  35.552  32.573   8.814
 2184POPC   C2B31736  35.691  32.795   8.458
 2184POPC   C3B31737  35.572  32.651   8.057
 2184POPC   C4B31738  35.425  32.535   7.661
 2185POPC   NC331739  34.996  18.453   9.516
 2185POPC   PO431740  34.427  18.064   9.550
 2185POPC   GL131741  34.614  18.320   9.208
 2185POPC   GL231742  34.682  18.713   9.210
 2185POPC   C1A31743  34.900  18.427   8.846
 2185POPC   D2A31744  34.761  18.522   8.439
 2185POPC   C3A31745  34.828  18.255   8.084
 2185POPC   C4A31746  34.689  18.338   7.675
 2185POPC   C1B31747  34.384  18.611   8.856
 2185POPC   C2B31748  34.239  18.454   8.452
 2185POPC   C3B31749  34.333  18.438   8.027
 2185POPC   C4B31750  34.359  18.733   7.687
 2186POPC   NC331751   0.847   8.615   9.734
 2186POPC   PO431752   1.261   9.063   9.466
 2186POPC   GL131753   1.248   9.101   9.056
 2186POPC   GL231754   0.887   9.151   9.129
 2186POPC   C1A31755   1.410   8.938   8.657
 2186POPC   D2A31756   1.292   8.569   8.380
 2186POPC   C3A31757   1.212   8.699   7.954
 2186POPC   C4A31758   1.346   9.050   7.740
 2186POPC   C1B31759   0.905   9.106   8.697
 2186POPC   C2B31760   0.933   8.983   8.292
 2186POPC   C3B31761   0.857   9.096   7.878
 2186POPC   C4B31762   0.957   9.476   7.709
 2187POPC   NC331763  15.576   1.455   9.594
 2187POPC   PO431764  16.003   1.956   9.685
 2187POPC   GL131765  16.100   1.976   9.225
 2187POPC   GL231766  16.387   1.801   9.118
 2187POPC   C1A31767  16.061   1.972   8.746
 2187POPC   D2A31768  15.865   1.992   8.311
 2187POPC   C3A31769  15.976   2.077   7.872
 2187POPC   C4A31770  15.717   2.335   7.571
 2187POPC   C1B31771  16.531   1.716   8.723
 2187POPC   C2B31772  16.321   1.782   8.333
 2187POPC   C3B31773  16.246   1.565   7.974
 2187POPC   C4B31774  16.352   1.734   7.617
 2188POPC   NC331775  42.502  32.372   9.471
 2188POPC   PO431776  41.949  31.985   9.525
 2188POPC   GL131777  42.228  32.020   9.140
 2188POPC   GL231778  42.615  31.995   9.139
 2188POPC   C1A31779  42.120  32.226   8.746
 2188POPC   D2A31780  42.366  32.404   8.410
 2188POPC   C3A31781  42.221  32.419   7.956
 2188POPC   C4A31782  41.980  32.577   7.580
 2188POPC   C1B31783  42.591  32.060   8.732
 2188POPC   C2B31784  42.371  31.906   8.401
 2188POPC   C3B31785  42.539  32.036   8.049
 2188POPC   C4B31786  42.542  31.915   7.689
 2189POPC   NC331787   8.413  11.812   9.733
 2189POPC   PO431788   9.074  11.945   9.669
 2189POPC   GL131789   8.897  11.821   9.262
 2189POPC   GL231790   8.741  12.138   9.143
 2189POPC   C1A31791   8.913  11.788   8.787
 2189POPC   D2A31792   8.684  11.956   8.420
 2189POPC   C3A31793   8.967  11.992   8.058
 2189POPC   C4A31794   9.125  12.096   7.611
 2189POPC   C1B31795   8.895  12.323   8.744
 2189POPC   C2B31796   8.819  12.529   8.337
 2189POPC   C3B31797   8.925  12.463   7.899
 2189POPC   C4B31798   8.722  12.393   7.502
 2190POPC   NC331799  15.213  19.374   9.515
 2190POPC   PO431800  14.624  19.015   9.677
 2190POPC   GL131801  14.996  18.955   9.274
 2190POPC   GL231802  15.374  19.005   9.199
 2190POPC   C1A31803  15.121  18.803   8.812
 2190POPC   D2A31804  15.365  18.901   8.421
 2190POPC   C3A31805  15.176  18.873   8.011
 2190POPC   C4A31806  15.235  18.987   7.557
 2190POPC   C1B31807  15.609  19.104   8.831
 2190POPC   C2B31808  15.510  19.401   8.492
 2190POPC   C3B31809  15.560  19.271   8.068
 2190POPC   C4B31810  15.639  19.412   7.657
 2191POPC   NC331811  36.746  16.753   9.418
 2191POPC   PO431812  37.364  16.463   9.550
 2191POPC   GL131813  37.066  16.353   9.177
 2191POPC   GL231814  36.665  16.310   9.141
 2191POPC   C1A31815  36.943  16.586   8.807
 2191POPC   D2A31816  36.777  16.741   8.441
 2191POPC   C3A31817  36.952  16.569   8.077
 2191POPC   C4A31818  37.013  16.627   7.679
 2191POPC   C1B31819  36.507  16.344   8.694
 2191POPC   C2B31820  36.462  16.403   8.227
 2191POPC   C3B31821  36.572  16.393   7.771
 2191POPC   C4B31822  36.580  16.453   7.282
 2192POPC   NC331823  25.551   7.180   9.481
 2192POPC   PO431824  24.890   7.400   9.396
 2192POPC   GL131825  25.086   7.553   9.019
 2192POPC   GL231826  25.391   7.620   9.145
 2192POPC   C1A31827  25.260   7.560   8.574
 2192POPC   D2A31828  25.569   7.314   8.333
 2192POPC   C3A31829  25.512   7.250   7.859
 2192POPC   C4A31830  25.228   7.268   7.459
 2192POPC   C1B31831  25.572   7.882   8.820
 2192POPC   C2B31832  25.682   7.868   8.413
 2192POPC   C3B31833  25.451   7.740   8.098
 2192POPC   C4B31834  25.252   7.690   7.752
 2193POPC   NC331835  12.375  36.346   9.616
 2193POPC   PO431836  12.351  35.667   9.595
 2193POPC   GL131837  12.039  35.822   9.249
 2193POPC   GL231838  12.073  36.172   9.182
 2193POPC   C1A31839  11.922  35.811   8.803
 2193POPC   D2A31840  12.198  35.962   8.451
 2193POPC   C3A31841  12.011  36.038   8.050
 2193POPC   C4A31842  12.168  35.884   7.660
 2193POPC   C1B31843  12.023  36.314   8.745
 2193POPC   C2B31844  12.180  36.588   8.426
 2193POPC   C3B31845  12.156  36.567   7.991
 2193POPC   C4B31846  12.298  36.370   7.628
 2194POPC   NC331847  37.553  39.073   9.490
 2194POPC   PO431848  38.051  39.479   9.236
 2194POPC   GL131849  37.701  39.334   9.034
 2194POPC   GL231850  37.432  39.531   9.210
 2194POPC   C1A31851  37.769  39.327   8.576
 2194POPC   D2A31852  38.048  39.332   8.227
 2194POPC   C3A31853  37.872  39.167   7.863
 2194POPC   C4A31854  37.802  39.394   7.499
 2194POPC   C1B31855  37.238  39.438   8.818
 2194POPC   C2B31856  37.246  39.147   8.473
 2194POPC   C3B31857  37.314  39.217   8.049
 2194POPC   C4B31858  37.379  39.166   7.621
 2195POPC   NC331859   1.454   7.988   9.463
 2195POPC   PO431860   1.181   7.312   9.555
 2195POPC   GL131861   1.468   7.489   9.261
 2195POPC   GL231862   1.223   7.698   9.131
 2195POPC   C1A31863   1.589   7.426   8.840
 2195POPC   D2A31864   1.395   7.665   8.526
 2195POPC   C3A31865   1.549   7.589   8.109
 2195POPC   C4A31866   1.371   7.609   7.688
 2195POPC   C1B31867   0.957   7.673   8.827
 2195POPC   C2B31868   0.851   7.557   8.439
 2195POPC   C3B31869   0.982   7.607   8.031
 2195POPC   C4B31870   0.904   7.815   7.646
 2196POPC   NC331871  13.138  39.610   9.400
 2196POPC   PO431872  13.831  39.430   9.398
 2196POPC   GL131873  13.739  39.223   9.015
 2196POPC   GL231874  13.376  39.206   9.039
 2196POPC   C1A31875  13.676  39.045   8.618
 2196POPC   D2A31876  13.379  39.020   8.300
 2196POPC   C3A31877  13.604  39.037   7.944
 2196POPC   C4A31878  14.010  39.127   7.798
 2196POPC   C1B31879  13.377  39.459   8.662
 2196POPC   C2B31880  13.655  39.464   8.300
 2196POPC   C3B31881  13.526  39.549   7.913
 2196POPC   C4B31882  13.537  39.342   7.526
 2197POPC   NC331883   6.188  27.264   9.690
 2197POPC   PO431884   6.798  27.472   9.406
 2197POPC   GL131885   6.743  27.749   9.092
 2197POPC   GL231886   6.440  27.980   9.103
 2197POPC   C1A31887   6.714  27.619   8.693
 2197POPC   D2A31888   6.898  27.698   8.326
 2197POPC   C3A31889   6.881  27.443   7.993
 2197POPC   C4A31890   6.768  27.592   7.633
 2197POPC   C1B31891   6.297  27.904   8.742
 2197POPC   C2B31892   6.440  27.911   8.356
 2197POPC   C3B31893   6.616  27.959   7.974
 2197POPC   C4B31894   6.373  28.135   7.671
 2198POPC   NC331895  31.172  42.600   9.483
 2198POPC   PO431896  31.661  42.135   9.325
 2198POPC   GL131897  31.342  42.329   9.086
 2198POPC   GL231898  31.537  42.624   9.072
 2198POPC   C1A31899  31.208  42.505   8.697
 2198POPC   D2A31900  31.352  42.426   8.304
 2198POPC   C3A31901  31.215  42.574   7.928
 2198POPC   C4A31902  31.303  42.228   7.621
 2198POPC   C1B31903  31.736  42.456   8.696
 2198POPC   C2B31904  31.845  42.522   8.254
 2198POPC   C3B31905  31.761  42.323   7.862
 2198POPC   C4B31906  31.873  42.272   7.415
 2199POPC   NC331907  12.225  16.400   9.415
 2199POPC   PO431908  11.965  17.065   9.387
 2199POPC   GL131909  11.999  16.721   9.073
 2199POPC   GL231910  11.816  16.370   9.111
 2199POPC   C1A31911  12.313  16.574   8.750
 2199POPC   D2A31912  12.385  16.568   8.305
 2199POPC   C3A31913  12.094  16.878   8.123
 2199POPC   C4A31914  11.778  17.130   7.885
 2199POPC   C1B31915  11.740  16.504   8.689
 2199POPC   C2B31916  11.869  16.421   8.284
 2199POPC   C3B31917  11.776  16.338   7.862
 2199POPC   C4B31918  11.801  16.355   7.388
 2200POPC   NC331919   6.101  10.375   9.474
 2200POPC   PO431920   5.419  10.376   9.479
 2200POPC   GL131921   5.720  10.483   9.131
 2200POPC   GL231922   5.895  10.822   9.141
 2200POPC   C1A31923   5.687  10.554   8.686
 2200POPC   D2A31924   5.732  10.282   8.322
 2200POPC   C3A31925   5.707  10.447   7.906
 2200POPC   C4A31926   5.664  10.871   7.762
 2200POPC   C1B31927   6.164  10.642   8.809
 2200POPC   C2B31928   6.167  10.521   8.427
 2200POPC   C3B31929   6.047  10.793   8.123
 2200POPC   C4B31930   6.157  10.672   7.737
 2201POPC   NC331931  20.472   8.418   9.611
 2201POPC   PO431932  20.204   7.816   9.816
 2201POPC   GL131933  20.482   7.911   9.348
 2201POPC   GL231934  20.651   8.224   9.182
 2201POPC   C1A31935  20.580   7.902   8.812
 2201POPC   D2A31936  20.546   7.839   8.308
 2201POPC   C3A31937  20.552   8.026   7.846
 2201POPC   C4A31938  20.317   8.017   7.428
 2201POPC   C1B31939  20.911   8.324   8.807
 2201POPC   C2B31940  20.698   8.326   8.418
 2201POPC   C3B31941  20.591   8.507   8.036
 2201POPC   C4B31942  20.898   8.519   7.728
 2202POPC   NC331943   1.063   5.933   9.476
 2202POPC   PO431944   1.665   5.717   9.426
 2202POPC   GL131945   1.351   5.717   9.116
 2202POPC   GL231946   1.039   5.493   9.217
 2202POPC   C1A31947   1.229   6.026   8.799
 2202POPC   D2A31948   1.115   5.842   8.424
 2202POPC   C3A31949   1.289   5.923   8.034
 2202POPC   C4A31950   1.149   6.284   7.787
 2202POPC   C1B31951   0.844   5.675   8.856
 2202POPC   C2B31952   0.763   5.483   8.444
 2202POPC   C3B31953   0.941   5.513   8.033
 2202POPC   C4B31954   0.894   5.787   7.698
 2203POPC   NC331955  20.039  23.823   9.650
 2203POPC   PO431956  19.448  23.672   9.567
 2203POPC   GL131957  19.683  23.942   9.236
 2203POPC   GL231958  19.960  24.176   9.290
 2203POPC   C1A31959  19.765  23.885   8.774
 2203POPC   D2A31960  19.829  23.767   8.327
 2203POPC   C3A31961  19.655  24.014   7.965
 2203POPC   C4A31962  19.586  23.883   7.524
 2203POPC   C1B31963  20.218  24.045   8.951
 2203POPC   C2B31964  20.278  24.085   8.485
 2203POPC   C3B31965  20.181  24.006   8.011
 2203POPC   C4B31966  20.191  23.854   7.563
 2204POPC   NC331967  29.349  40.569   9.445
 2204POPC   PO431968  29.376  41.193   9.222
 2204POPC   GL131969  29.099  40.981   8.973
 2204POPC   GL231970  29.020  40.662   9.042
 2204POPC   C1A31971  28.844  41.109   8.662
 2204POPC   D2A31972  28.905  41.160   8.239
 2204POPC   C3A31973  29.122  40.859   8.010
 2204POPC   C4A31974  29.332  40.956   7.630
 2204POPC   C1B31975  29.296  40.496   8.702
 2204POPC   C2B31976  29.271  40.374   8.260
 2204POPC   C3B31977  29.459  40.508   7.874
 2204POPC   C4B31978  29.345  40.512   7.404
 2205POPC   NC331979  13.280   8.908   9.529
 2205POPC   PO431980  12.692   9.125   9.549
 2205POPC   GL131981  12.630   8.932   9.171
 2205POPC   GL231982  12.971   8.856   9.064
 2205POPC   C1A31983  12.489   8.823   8.764
 2205POPC   D2A31984  12.415   8.978   8.351
 2205POPC   C3A31985  12.764   8.922   8.066
 2205POPC   C4A31986  12.796   9.111   7.665
 2205POPC   C1B31987  12.935   9.107   8.676
 2205POPC   C2B31988  13.151   9.187   8.295
 2205POPC   C3B31989  13.252   9.066   7.872
 2205POPC   C4B31990  13.255   9.242   7.447
 2206POPC   NC331991  37.748  20.189   9.501
 2206POPC   PO431992  37.776  19.537   9.567
 2206POPC   GL131993  37.554  19.669   9.178
 2206POPC   GL231994  37.351  19.417   9.026
 2206POPC   C1A31995  37.486  19.869   8.761
 2206POPC   D2A31996  37.657  20.150   8.429
 2206POPC   C3A31997  37.811  19.876   8.107
 2206POPC   C4A31998  37.592  19.798   7.749
 2206POPC   C1B31999  37.233  19.435   8.606
 2206POPC   C2B32000  37.413  19.562   8.231
 2206POPC   C3B32001  37.299  19.387   7.845
 2206POPC   C4B32002  37.187  19.363   7.411
 2207POPC   NC332003   3.699  23.050   9.520
 2207POPC   PO432004   3.253  22.565   9.453
 2207POPC   GL132005   3.481  22.771   9.148
 2207POPC   GL232006   3.814  22.676   9.103
 2207POPC   C1A32007   3.558  23.083   8.856
 2207POPC   D2A32008   3.395  22.995   8.508
 2207POPC   C3A32009   3.521  23.058   8.121
 2207POPC   C4A32010   3.522  23.133   7.674
 2207POPC   C1B32011   3.647  22.497   8.708
 2207POPC   C2B32012   3.462  22.533   8.279
 2207POPC   C3B32013   3.489  22.636   7.844
 2207POPC   C4B32014   3.649  22.680   7.437
 2208POPC   NC332015   8.658  27.842   9.647
 2208POPC   PO432016   9.008  28.411   9.485
 2208POPC   GL132017   8.915  28.383   9.093
 2208POPC   GL232018   8.672  28.179   9.140
 2208POPC   C1A32019   9.120  28.393   8.707
 2208POPC   D2A32020   9.385  28.429   8.360
 2208POPC   C3A32021   9.274  28.390   7.924
 2208POPC   C4A32022   9.011  28.645   7.666
 2208POPC   C1B32023   8.816  27.979   8.735
 2208POPC   C2B32024   8.866  27.828   8.374
 2208POPC   C3B32025   8.967  27.995   8.028
 2208POPC   C4B32026   8.819  28.171   7.703
 2209POPC   NC332027  12.915  22.499   9.583
 2209POPC   PO432028  12.599  21.943   9.395
 2209POPC   GL132029  12.678  22.291   9.132
 2209POPC   GL232030  13.044  22.314   9.130
 2209POPC   C1A32031  12.815  22.204   8.696
 2209POPC   D2A32032  13.101  22.348   8.401
 2209POPC   C3A32033  12.886  22.276   8.008
 2209POPC   C4A32034  12.504  22.155   7.778
 2209POPC   C1B32035  13.299  22.041   8.843
 2209POPC   C2B32036  13.141  21.815   8.478
 2209POPC   C3B32037  13.020  21.788   8.047
 2209POPC   C4B32038  13.095  21.994   7.640
 2210POPC   NC332039  20.939  24.258   9.638
 2210POPC   PO432040  20.264  24.234   9.690
 2210POPC   GL132041  20.382  24.480   9.269
 2210POPC   GL232042  20.719  24.612   9.081
 2210POPC   C1A32043  20.291  24.524   8.818
 2210POPC   D2A32044  20.603  24.549   8.506
 2210POPC   C3A32045  20.486  24.398   8.127
 2210POPC   C4A32046  20.377  24.477   7.733
 2210POPC   C1B32047  20.709  24.205   8.868
 2210POPC   C2B32048  20.809  24.077   8.441
 2210POPC   C3B32049  20.909  24.160   7.997
 2210POPC   C4B32050  20.669  24.076   7.629
 2211POPC   NC332051  37.025  14.085   9.501
 2211POPC   PO432052  36.800  14.767   9.569
 2211POPC   GL132053  36.783  14.482   9.239
 2211POPC   GL232054  37.088  14.424   9.147
 2211POPC   C1A32055  36.710  14.445   8.802
 2211POPC   D2A32056  36.847  14.268   8.429
 2211POPC   C3A32057  36.546  14.241   8.122
 2211POPC   C4A32058  36.684  14.428   7.750
 2211POPC   C1B32059  37.240  14.702   8.885
 2211POPC   C2B32060  37.282  14.667   8.440
 2211POPC   C3B32061  37.078  14.560   8.048
 2211POPC   C4B32062  37.176  14.471   7.605
 2212POPC   NC332063  33.065  38.133   9.525
 2212POPC   PO432064  33.073  38.717   9.627
 2212POPC   GL132065  32.902  38.523   9.236
 2212POPC   GL232066  33.227  38.399   9.106
 2212POPC   C1A32067  32.802  38.352   8.813
 2212POPC   D2A32068  33.029  38.220   8.416
 2212POPC   C3A32069  32.773  38.307   8.012
 2212POPC   C4A32070  32.609  38.733   7.858
 2212POPC   C1B32071  33.180  38.669   8.704
 2212POPC   C2B32072  33.026  38.702   8.243
 2212POPC   C3B32073  33.132  38.603   7.781
 2212POPC   C4B32074  33.289  38.682   7.343
 2213POPC   NC332075   4.249  20.807   9.396
 2213POPC   PO432076   4.734  20.292   9.332
 2213POPC   GL132077   4.408  20.429   9.079
 2213POPC   GL232078   4.079  20.273   9.202
 2213POPC   C1A32079   4.453  20.789   8.784
 2213POPC   D2A32080   4.719  20.796   8.433
 2213POPC   C3A32081   4.459  20.745   8.015
 2213POPC   C4A32082   4.338  20.334   7.777
 2213POPC   C1B32083   3.976  20.534   8.817
 2213POPC   C2B32084   4.133  20.625   8.413
 2213POPC   C3B32085   3.933  20.590   8.037
 2213POPC   C4B32086   4.036  20.755   7.718
 2214POPC   NC332087  27.142  19.072   9.186
 2214POPC   PO432088  26.906  18.872   9.711
 2214POPC   GL132089  26.805  18.707   9.232
 2214POPC   GL232090  26.645  18.974   9.000
 2214POPC   C1A32091  26.948  18.613   8.777
 2214POPC   D2A32092  26.793  18.647   8.371
 2214POPC   C3A32093  26.973  18.893   8.038
 2214POPC   C4A32094  26.731  19.046   7.680
 2214POPC   C1B32095  26.776  19.265   8.610
 2214POPC   C2B32096  27.138  19.299   8.363
 2214POPC   C3B32097  27.307  19.310   7.958
 2214POPC   C4B32098  27.100  19.470   7.626
 2215POPC   NC332099  17.581  22.999   9.571
 2215POPC   PO432100  17.895  23.522   9.243
 2215POPC   GL132101  17.712  23.142   9.089
 2215POPC   GL232102  17.369  22.983   9.116
 2215POPC   C1A32103  17.695  22.912   8.704
 2215POPC   D2A32104  17.504  23.048   8.313
 2215POPC   C3A32105  17.469  22.782   7.973
 2215POPC   C4A32106  17.850  22.777   7.751
 2215POPC   C1B32107  17.167  22.975   8.723
 2215POPC   C2B32108  16.993  22.969   8.312
 2215POPC   C3B32109  17.151  23.205   7.952
 2215POPC   C4B32110  17.569  23.229   7.754
 2216POPC   NC332111   3.785  36.365   9.420
 2216POPC   PO432112   3.251  35.818   9.449
 2216POPC   GL132113   3.521  36.014   9.137
 2216POPC   GL232114   3.806  35.800   9.141
 2216POPC   C1A32115   3.597  36.304   8.764
 2216POPC   D2A32116   3.375  36.531   8.411
 2216POPC   C3A32117   3.473  36.319   8.035
 2216POPC   C4A32118   3.207  36.146   7.694
 2216POPC   C1B32119   3.650  35.774   8.700
 2216POPC   C2B32120   3.757  35.905   8.272
 2216POPC   C3B32121   3.568  35.835   7.876
 2216POPC   C4B32122   3.610  35.842   7.446
 2217POPC   NC332123  31.020  23.222   9.489
 2217POPC   PO432124  31.627  22.786   9.464
 2217POPC   GL132125  31.550  22.918   9.086
 2217POPC   GL232126  31.249  23.049   9.045
 2217POPC   C1A32127  31.657  23.029   8.692
 2217POPC   D2A32128  31.590  22.782   8.311
 2217POPC   C3A32129  31.838  22.756   7.988
 2217POPC   C4A32130  31.726  23.132   7.802
 2217POPC   C1B32131  31.176  22.787   8.706
 2217POPC   C2B32132  31.052  22.840   8.304
 2217POPC   C3B32133  31.268  22.986   7.972
 2217POPC   C4B32134  31.294  22.741   7.694
 2218POPC   NC332135  33.439  28.829   9.853
 2218POPC   PO432136  33.820  29.214   9.518
 2218POPC   GL132137  33.862  29.238   9.109
 2218POPC   GL232138  33.880  28.858   9.114
 2218POPC   C1A32139  33.958  29.182   8.703
 2218POPC   D2A32140  33.702  29.189   8.364
 2218POPC   C3A32141  33.888  29.114   8.014
 2218POPC   C4A32142  33.911  29.491   7.810
 2218POPC   C1B32143  33.542  28.908   8.803
 2218POPC   C2B32144  33.341  28.858   8.422
 2218POPC   C3B32145  33.475  28.792   8.011
 2218POPC   C4B32146  33.495  28.779   7.570
 2219POPC   NC332147  34.219   1.740   9.431
 2219POPC   PO432148  33.668   2.127   9.516
 2219POPC   GL132149  33.754   1.869   9.151
 2219POPC   GL232150  34.069   2.059   9.068
 2219POPC   C1A32151  33.617   1.838   8.691
 2219POPC   D2A32152  33.772   2.018   8.265
 2219POPC   C3A32153  33.577   2.318   7.950
 2219POPC   C4A32154  33.544   2.342   7.478
 2219POPC   C1B32155  34.125   1.761   8.740
 2219POPC   C2B32156  33.965   1.547   8.370
 2219POPC   C3B32157  34.036   1.685   7.963
 2219POPC   C4B32158  33.845   1.976   7.667
 2220POPC   NC332159  42.107  10.746   9.743
 2220POPC   PO432160  42.578  11.183   9.488
 2220POPC   GL132161  42.543  11.209   9.052
 2220POPC   GL232162  42.234  11.268   9.057
 2220POPC   C1A32163  42.475  11.217   8.621
 2220POPC   D2A32164  42.750  11.204   8.314
 2220POPC   C3A32165  42.495  11.227   7.977
 2220POPC   C4A32166  42.388  11.622   7.762
 2220POPC   C1B32167  41.989  11.417   8.696
 2220POPC   C2B32168  42.069  11.395   8.237
 2220POPC   C3B32169  41.987  11.307   7.805
 2220POPC   C4B32170  41.990  11.006   7.438
 2221POPC   NC332171  39.867  10.671   9.449
 2221POPC   PO432172  40.378  10.125   9.431
 2221POPC   GL132173  40.166  10.238   9.091
 2221POPC   GL232174  40.249  10.585   9.119
 2221POPC   C1A32175  39.994  10.386   8.689
 2221POPC   D2A32176  39.914  10.817   8.473
 2221POPC   C3A32177  39.880  10.755   8.062
 2221POPC   C4A32178  39.900  10.370   7.876
 2221POPC   C1B32179  40.354  10.732   8.722
 2221POPC   C2B32180  40.339  10.547   8.294
 2221POPC   C3B32181  40.335  10.650   7.867
 2221POPC   C4B32182  40.264  11.031   7.740
 2222POPC   NC332183  30.917  24.535   9.864
 2222POPC   PO432184  31.056  24.532   9.187
 2222POPC   GL132185  30.670  24.622   9.096
 2222POPC   GL232186  30.576  24.343   8.951
 2222POPC   C1A32187  30.633  24.750   8.679
 2222POPC   D2A32188  30.655  24.515   8.335
 2222POPC   C3A32189  30.480  24.678   8.008
 2222POPC   C4A32190  30.795  24.655   7.747
 2222POPC   C1B32191  30.833  24.178   8.677
 2222POPC   C2B32192  30.746  24.010   8.288
 2222POPC   C3B32193  30.657  24.173   7.907
 2222POPC   C4B32194  30.963  23.960   7.676
 2223POPC   NC332195  15.883   8.576   9.394
 2223POPC   PO432196  15.903   7.958   9.482
 2223POPC   GL132197  16.033   8.133   9.059
 2223POPC   GL232198  16.087   8.482   8.940
 2223POPC   C1A32199  16.064   8.022   8.607
 2223POPC   D2A32200  15.989   8.275   8.231
 2223POPC   C3A32201  15.988   8.077   7.818
 2223POPC   C4A32202  16.268   7.749   7.602
 2223POPC   C1B32203  15.718   8.384   8.669
 2223POPC   C2B32204  15.558   8.525   8.269
 2223POPC   C3B32205  15.668   8.645   7.842
 2223POPC   C4B32206  15.699   8.403   7.485
 2224POPC   NC332207   0.217  33.855   9.504
 2224POPC   PO432208   0.842  33.553   9.523
 2224POPC   GL132209   0.615  33.682   9.169
 2224POPC   GL232210   0.320  33.493   9.152
 2224POPC   C1A32211   0.484  33.830   8.752
 2224POPC   D2A32212   0.594  33.701   8.318
 2224POPC   C3A32213   0.615  33.872   7.850
 2224POPC   C4A32214   0.444  33.810   7.411
 2224POPC   C1B32215   0.198  33.402   8.731
 2224POPC   C2B32216   0.194  33.357   8.277
 2224POPC   C3B32217   0.179  33.582   7.875
 2224POPC   C4B32218   0.008  33.531   7.442
 2225POPC   NC332219   4.486  36.640   9.431
 2225POPC   PO432220   4.137  36.049   9.468
 2225POPC   GL132221   4.201  36.240   9.121
 2225POPC   GL232222   4.537  36.114   9.089
 2225POPC   C1A32223   4.095  36.034   8.750
 2225POPC   D2A32224   4.186  36.185   8.367
 2225POPC   C3A32225   4.247  35.930   8.054
 2225POPC   C4A32226   3.971  36.093   7.765
 2225POPC   C1B32227   4.614  36.079   8.642
 2225POPC   C2B32228   4.648  36.361   8.269
 2225POPC   C3B32229   4.502  36.324   7.850
 2225POPC   C4B32230   4.466  35.974   7.578
 2226POPC   NC332231   1.311  32.558   9.585
 2226POPC   PO432232   1.013  33.083   9.768
 2226POPC   GL132233   1.164  33.027   9.292
 2226POPC   GL232234   1.049  32.769   9.159
 2226POPC   C1A32235   1.122  33.095   8.794
 2226POPC   D2A32236   1.026  32.835   8.415
 2226POPC   C3A32237   1.156  33.103   8.060
 2226POPC   C4A32238   1.020  33.175   7.618
 2226POPC   C1B32239   1.435  32.719   8.869
 2226POPC   C2B32240   1.515  32.756   8.438
 2226POPC   C3B32241   1.422  32.642   8.026
 2226POPC   C4B32242   1.459  32.851   7.686
 2227POPC   NC332243   3.930  34.688   9.412
 2227POPC   PO432244   3.304  35.006   9.471
 2227POPC   GL132245   3.383  34.608   9.203
 2227POPC   GL232246   3.579  34.798   9.043
 2227POPC   C1A32247   3.637  34.335   8.839
 2227POPC   D2A32248   3.963  34.475   8.472
 2227POPC   C3A32249   3.741  34.492   8.083
 2227POPC   C4A32250   3.617  34.371   7.669
 2227POPC   C1B32251   3.562  34.767   8.625
 2227POPC   C2B32252   3.657  34.967   8.309
 2227POPC   C3B32253   3.451  34.894   7.949
 2227POPC   C4B32254   3.607  34.873   7.551
 2228POPC   NC332255  25.292  26.159   9.682
 2228POPC   PO432256  25.127  25.545   9.533
 2228POPC   GL132257  25.317  25.833   9.213
 2228POPC   GL232258  25.411  26.203   9.179
 2228POPC   C1A32259  25.436  25.870   8.776
 2228POPC   D2A32260  25.197  25.951   8.389
 2228POPC   C3A32261  25.339  25.775   8.016
 2228POPC   C4A32262  25.279  25.845   7.561
 2228POPC   C1B32263  25.220  26.332   8.755
 2228POPC   C2B32264  25.180  26.459   8.286
 2228POPC   C3B32265  25.337  26.271   7.858
 2228POPC   C4B32266  25.353  26.309   7.358
 2229POPC   NC332267  30.326  25.140   9.557
 2229POPC   PO432268  29.692  25.115   9.597
 2229POPC   GL132269  29.872  25.122   9.179
 2229POPC   GL232270  30.107  25.414   9.161
 2229POPC   C1A32271  29.816  25.288   8.744
 2229POPC   D2A32272  29.998  25.430   8.365
 2229POPC   C3A32273  29.705  25.321   8.051
 2229POPC   C4A32274  29.635  25.430   7.641
 2229POPC   C1B32275  30.369  25.542   8.805
 2229POPC   C2B32276  30.468  25.692   8.408
 2229POPC   C3B32277  30.311  25.766   8.028
 2229POPC   C4B32278  30.149  25.557   7.698
 2230POPC   NC332279  24.143  13.911   9.479
 2230POPC   PO432280  24.767  13.501   9.503
 2230POPC   GL132281  24.620  13.634   9.087
 2230POPC   GL232282  24.365  13.851   9.044
 2230POPC   C1A32283  24.736  13.701   8.667
 2230POPC   D2A32284  24.589  13.455   8.316
 2230POPC   C3A32285  24.570  13.606   7.876
 2230POPC   C4A32286  24.297  13.444   7.525
 2230POPC   C1B32287  24.161  13.692   8.683
 2230POPC   C2B32288  24.246  13.826   8.259
 2230POPC   C3B32289  24.090  13.804   7.856
 2230POPC   C4B32290  23.848  13.692   7.487
 2231POPC   NC332291   0.597  40.232   9.732
 2231POPC   PO432292  44.963  40.184   9.609
 2231POPC   GL132293   0.313  40.098   9.299
 2231POPC   GL232294   0.667  39.992   9.260
 2231POPC   C1A32295   0.350  39.990   8.840
 2231POPC   D2A32296   0.089  39.944   8.466
 2231POPC   C3A32297   0.283  39.778   8.110
 2231POPC   C4A32298   0.395  39.828   7.726
 2231POPC   C1B32299   0.778  40.281   8.932
 2231POPC   C2B32300   0.724  40.293   8.498
 2231POPC   C3B32301   0.622  40.158   8.100
 2231POPC   C4B32302   0.598  40.293   7.700
 2232POPC   NC332303  20.944   1.648   9.428
 2232POPC   PO432304  21.498   1.218   9.500
 2232POPC   GL132305  21.453   1.372   9.100
 2232POPC   GL232306  21.093   1.276   9.064
 2232POPC   C1A32307  21.658   1.268   8.700
 2232POPC   D2A32308  21.758   1.395   8.291
 2232POPC   C3A32309  21.457   1.367   7.997
 2232POPC   C4A32310  21.340   1.171   7.640
 2232POPC   C1B32311  21.194   1.525   8.682
 2232POPC   C2B32312  21.048   1.524   8.243
 2232POPC   C3B32313  21.126   1.708   7.812
 2232POPC   C4B32314  21.110   1.509   7.375
 2233POPC   NC332315  20.724  29.854   9.700
 2233POPC   PO432316  20.283  30.257   9.465
 2233POPC   GL132317  20.545  29.993   9.189
 2233POPC   GL232318  20.747  29.679   9.212
 2233POPC   C1A32319  20.522  29.787   8.764
 2233POPC   D2A32320  20.554  29.546   8.362
 2233POPC   C3A32321  20.503  29.881   8.029
 2233POPC   C4A32322  20.528  29.844   7.565
 2233POPC   C1B32323  21.005  29.671   8.838
 2233POPC   C2B32324  20.949  29.869   8.450
 2233POPC   C3B32325  20.969  29.668   8.065
 2233POPC   C4B32326  20.929  29.565   7.671
 2234POPC   NC332327  31.747  16.368   9.497
 2234POPC   PO432328  31.411  16.983   9.487
 2234POPC   GL132329  31.594  16.715   9.150
 2234POPC   GL232330  31.704  16.972   8.978
 2234POPC   C1A32331  31.800  16.583   8.705
 2234POPC   D2A32332  31.776  16.775   8.286
 2234POPC   C3A32333  31.387  16.693   7.997
 2234POPC   C4A32334  31.334  16.657   7.563
 2234POPC   C1B32335  31.430  16.963   8.679
 2234POPC   C2B32336  31.403  17.127   8.301
 2234POPC   C3B32337  31.572  17.137   7.931
 2234POPC   C4B32338  31.281  17.178   7.628
 2235POPC   NC332339  15.734  23.057   9.505
 2235POPC   PO432340  16.143  22.459   9.542
 2235POPC   GL132341  16.189  22.627   9.100
 2235POPC   GL232342  15.966  22.901   9.069
 2235POPC   C1A32343  16.012  22.573   8.669
 2235POPC   D2A32344  15.674  22.718   8.355
 2235POPC   C3A32345  15.792  22.757   7.970
 2235POPC   C4A32346  15.757  22.424   7.701
 2235POPC   C1B32347  15.916  23.066   8.645
 2235POPC   C2B32348  15.830  23.222   8.232
 2235POPC   C3B32349  15.783  23.256   7.781
 2235POPC   C4B32350  16.164  23.308   7.456
 2236POPC   NC332351  36.017  13.952   9.421
 2236POPC   PO432352  36.211  13.307   9.304
 2236POPC   GL132353  35.917  13.574   9.046
 2236POPC   GL232354  36.027  13.939   8.924
 2236POPC   C1A32355  35.763  13.657   8.616
 2236POPC   D2A32356  36.132  13.609   8.347
 2236POPC   C3A32357  35.983  13.607   7.928
 2236POPC   C4A32358  36.207  13.520   7.597
 2236POPC   C1B32359  36.454  13.948   8.713
 2236POPC   C2B32360  36.710  13.757   8.388
 2236POPC   C3B32361  36.500  13.730   7.992
 2236POPC   C4B32362  36.440  13.990   7.652
 2237POPC   NC332363  28.903  37.923   9.837
 2237POPC   PO432364  29.098  38.440   9.438
 2237POPC   GL132365  29.229  38.341   9.059
 2237POPC   GL232366  29.259  38.722   9.042
 2237POPC   C1A32367  29.443  38.304   8.673
 2237POPC   D2A32368  29.603  38.432   8.302
 2237POPC   C3A32369  29.407  38.408   7.928
 2237POPC   C4A32370  29.415  38.826   7.787
 2237POPC   C1B32371  29.047  38.636   8.686
 2237POPC   C2B32372  29.146  38.659   8.274
 2237POPC   C3B32373  28.923  38.746   7.897
 2237POPC   C4B32374  28.658  38.861   7.563
 2238POPC   NC332375  22.619   0.866   9.549
 2238POPC   PO432376  22.607   0.155   9.445
 2238POPC   GL132377  22.767   0.360   9.095
 2238POPC   GL232378  22.705   0.715   9.036
 2238POPC   C1A32379  22.816   0.210   8.674
 2238POPC   D2A32380  22.634   0.111   8.265
 2238POPC   C3A32381  22.896   0.267   7.910
 2238POPC   C4A32382  22.827   0.220   7.494
 2238POPC   C1B32383  22.659   0.701   8.554
 2238POPC   C2B32384  22.779   0.740   8.102
 2238POPC   C3B32385  23.121   0.783   7.752
 2238POPC   C4B32386  23.216   0.825   7.286
 2239POPC   NC332387   6.470  44.200   9.518
 2239POPC   PO432388   6.822  44.764   9.593
 2239POPC   GL132389   6.619  44.609   9.231
 2239POPC   GL232390   6.911  44.426   9.144
 2239POPC   C1A32391   6.497  44.690   8.801
 2239POPC   D2A32392   6.803  44.734   8.473
 2239POPC   C3A32393   6.745  44.947   8.125
 2239POPC   C4A32394   6.810  44.808   7.725
 2239POPC   C1B32395   6.821  44.291   8.762
 2239POPC   C2B32396   6.493  44.301   8.466
 2239POPC   C3B32397   6.563  44.440   8.058
 2239POPC   C4B32398   6.917  44.333   7.872
 2240POPC   NC332399  17.879  37.851   9.481
 2240POPC   PO432400  17.400  37.355   9.618
 2240POPC   GL132401  17.748  37.400   9.238
 2240POPC   GL232402  17.647  37.752   9.059
 2240POPC   C1A32403  17.797  37.190   8.785
 2240POPC   D2A32404  17.564  37.157   8.365
 2240POPC   C3A32405  17.440  37.538   8.083
 2240POPC   C4A32406  17.312  37.843   7.760
 2240POPC   C1B32407  17.631  38.090   8.729
 2240POPC   C2B32408  17.613  38.025   8.270
 2240POPC   C3B32409  17.801  37.899   7.899
 2240POPC   C4B32410  17.688  37.918   7.430
 2241POPC   NC332411   2.264  27.787   9.510
 2241POPC   PO432412   1.988  28.450   9.595
 2241POPC   GL132413   2.017  28.317   9.192
 2241POPC   GL232414   2.238  28.595   9.155
 2241POPC   C1A32415   1.742  28.189   8.850
 2241POPC   D2A32416   1.676  28.381   8.469
 2241POPC   C3A32417   1.864  28.337   8.057
 2241POPC   C4A32418   1.664  28.319   7.649
 2241POPC   C1B32419   2.271  28.797   8.777
 2241POPC   C2B32420   2.142  28.619   8.397
 2241POPC   C3B32421   2.224  28.740   7.984
 2241POPC   C4B32422   2.122  28.533   7.619
 2242POPC   NC332423   5.819  11.739   9.530
 2242POPC   PO432424   5.481  12.351   9.484
 2242POPC   GL132425   5.717  12.072   9.158
 2242POPC   GL232426   6.017  11.853   9.080
 2242POPC   C1A32427   5.624  11.818   8.771
 2242POPC   D2A32428   5.676  12.044   8.412
 2242POPC   C3A32429   5.807  11.928   7.997
 2242POPC   C4A32430   5.814  12.301   7.747
 2242POPC   C1B32431   6.123  11.699   8.663
 2242POPC   C2B32432   6.204  12.014   8.361
 2242POPC   C3B32433   6.314  12.176   7.981
 2242POPC   C4B32434   6.184  11.981   7.618
 2243POPC   NC332435   9.758  23.210   9.325
 2243POPC   PO432436   9.965  23.773   9.670
 2243POPC   GL132437   9.780  23.771   9.225
 2243POPC   GL232438   9.621  23.564   8.986
 2243POPC   C1A32439   9.782  24.019   8.819
 2243POPC   D2A32440   9.499  23.922   8.467
 2243POPC   C3A32441   9.720  23.769   8.101
 2243POPC   C4A32442   9.774  23.854   7.674
 2243POPC   C1B32443   9.761  23.471   8.557
 2243POPC   C2B32444   9.525  23.289   8.220
 2243POPC   C3B32445   9.496  23.400   7.799
 2243POPC   C4B32446   9.728  23.339   7.450
 2244POPC   NC332447  31.761  32.844   9.473
 2244POPC   PO432448  31.109  33.091   9.483
 2244POPC   GL132449  31.364  33.034   9.150
 2244POPC   GL232450  31.355  32.685   9.088
 2244POPC   C1A32451  31.686  33.006   8.834
 2244POPC   D2A32452  31.706  33.190   8.417
 2244POPC   C3A32453  31.716  32.949   8.032
 2244POPC   C4A32454  31.662  33.236   7.718
 2244POPC   C1B32455  31.277  32.786   8.662
 2244POPC   C2B32456  31.257  32.980   8.273
 2244POPC   C3B32457  31.194  32.861   7.874
 2244POPC   C4B32458  31.337  32.921   7.482
 2245POPC   NC332459   9.157  13.906   9.518
 2245POPC   PO432460   9.060  14.640   9.630
 2245POPC   GL132461   9.078  14.356   9.293
 2245POPC   GL232462   8.765  14.147   9.261
 2245POPC   C1A32463   9.076  14.258   8.872
 2245POPC   D2A32464   8.929  14.437   8.522
 2245POPC   C3A32465   9.208  14.400   8.163
 2245POPC   C4A32466   9.146  14.541   7.747
 2245POPC   C1B32467   8.533  14.227   8.874
 2245POPC   C2B32468   8.410  14.329   8.441
 2245POPC   C3B32469   8.659  14.362   8.076
 2245POPC   C4B32470   8.753  14.189   7.674
 2246POPC   NC332471   9.949  26.534   9.475
 2246POPC   PO432472   9.324  26.772   9.566
 2246POPC   GL132473   9.599  26.748   9.171
 2246POPC   GL232474   9.911  26.954   9.140
 2246POPC   C1A32475   9.741  26.719   8.718
 2246POPC   D2A32476   9.598  26.561   8.316
 2246POPC   C3A32477   9.721  26.832   7.986
 2246POPC   C4A32478   9.649  27.023   7.547
 2246POPC   C1B32479  10.028  27.166   8.709
 2246POPC   C2B32480  10.067  27.212   8.252
 2246POPC   C3B32481  10.088  27.119   7.795
 2246POPC   C4B32482  10.059  26.710   7.617
 2247POPC   NC332483  13.255  12.964   9.441
 2247POPC   PO432484  12.698  12.693   9.704
 2247POPC   GL132485  12.834  12.662   9.189
 2247POPC   GL232486  13.044  12.884   8.996
 2247POPC   C1A32487  12.673  12.720   8.722
 2247POPC   D2A32488  12.602  13.046   8.404
 2247POPC   C3A32489  12.546  12.866   7.992
 2247POPC   C4A32490  12.552  12.496   7.707
 2247POPC   C1B32491  13.074  13.076   8.604
 2247POPC   C2B32492  13.142  13.014   8.191
 2247POPC   C3B32493  13.069  13.228   7.808
 2247POPC   C4B32494  13.182  13.112   7.380
 2248POPC   NC332495  34.093  18.375   9.491
 2248POPC   PO432496  33.470  18.184   9.536
 2248POPC   GL132497  33.751  18.108   9.185
 2248POPC   GL232498  34.086  17.956   9.199
 2248POPC   C1A32499  33.921  18.290   8.822
 2248POPC   D2A32500  33.716  18.323   8.430
 2248POPC   C3A32501  33.813  18.541   8.054
 2248POPC   C4A32502  33.727  18.435   7.605
 2248POPC   C1B32503  34.165  17.822   8.789
 2248POPC   C2B32504  34.090  17.969   8.358
 2248POPC   C3B32505  33.975  18.076   7.927
 2248POPC   C4B32506  34.192  18.253   7.535
 2249POPC   NC332507  43.868  33.313   9.447
 2249POPC   PO432508  44.272  32.890   9.491
 2249POPC   GL132509  44.062  32.775   9.123
 2249POPC   GL232510  44.070  33.123   9.008
 2249POPC   C1A32511  43.840  32.776   8.729
 2249POPC   D2A32512  43.976  33.010   8.352
 2249POPC   C3A32513  43.799  32.796   8.005
 2249POPC   C4A32514  43.813  32.932   7.577
 2249POPC   C1B32515  43.672  33.247   8.768
 2249POPC   C2B32516  43.521  33.230   8.329
 2249POPC   C3B32517  43.746  33.311   7.918
 2249POPC   C4B32518  43.668  33.444   7.471
 2250POPC   NC332519   7.275  28.686   9.407
 2250POPC   PO432520   7.594  29.198   9.633
 2250POPC   GL132521   7.466  29.116   9.209
 2250POPC   GL232522   7.782  29.157   9.094
 2250POPC   C1A32523   7.366  29.295   8.781
 2250POPC   D2A32524   7.458  29.257   8.336
 2250POPC   C3A32525   7.208  29.214   7.945
 2250POPC   C4A32526   7.279  29.152   7.507
 2250POPC   C1B32527   7.879  29.131   8.668
 2250POPC   C2B32528   7.773  28.879   8.302
 2250POPC   C3B32529   7.676  29.039   7.883
 2250POPC   C4B32530   7.730  28.947   7.408
 2251POPC   NC332531  26.115  39.598   9.489
 2251POPC   PO432532  26.371  40.246   9.552
 2251POPC   GL132533  26.182  40.029   9.177
 2251POPC   GL232534  26.360  39.718   9.065
 2251POPC   C1A32535  26.010  40.200   8.773
 2251POPC   D2A32536  26.233  40.296   8.392
 2251POPC   C3A32537  26.122  40.082   8.032
 2251POPC   C4A32538  25.756  40.080   7.805
 2251POPC   C1B32539  25.980  39.695   8.801
 2251POPC   C2B32540  25.826  39.827   8.394
 2251POPC   C3B32541  25.730  39.616   8.005
 2251POPC   C4B32542  25.905  39.633   7.587
 2252POPC   NC332543   1.856  15.403   9.588
 2252POPC   PO432544   2.376  14.990   9.449
 2252POPC   GL132545   2.072  15.189   9.163
 2252POPC   GL232546   1.765  15.408   9.106
 2252POPC   C1A32547   1.908  15.004   8.795
 2252POPC   D2A32548   2.210  14.940   8.473
 2252POPC   C3A32549   2.060  14.960   8.065
 2252POPC   C4A32550   2.000  14.772   7.653
 2252POPC   C1B32551   2.010  15.519   8.776
 2252POPC   C2B32552   2.054  15.421   8.389
 2252POPC   C3B32553   1.928  15.530   8.012
 2252POPC   C4B32554   2.124  15.327   7.704
 2253POPC   NC332555   0.357  16.414   9.421
 2253POPC   PO432556   0.784  16.940   9.542
 2253POPC   GL132557   0.578  16.779   9.133
 2253POPC   GL232558   0.433  17.082   9.048
 2253POPC   C1A32559   0.441  16.606   8.668
 2253POPC   D2A32560   0.264  16.733   8.244
 2253POPC   C3A32561   0.351  16.571   7.829
 2253POPC   C4A32562   0.320  16.133   7.706
 2253POPC   C1B32563   0.693  17.027   8.694
 2253POPC   C2B32564   0.718  16.935   8.293
 2253POPC   C3B32565   0.559  17.043   7.923
 2253POPC   C4B32566   0.596  16.870   7.497
 2254POPC   NC332567   7.038  19.443   9.537
 2254POPC   PO432568   6.410  19.548   9.370
 2254POPC   GL132569   6.623  19.790   9.099
 2254POPC   GL232570   6.935  19.945   9.178
 2254POPC   C1A32571   6.639  20.059   8.765
 2254POPC   D2A32572   6.915  20.130   8.471
 2254POPC   C3A32573   6.780  20.032   8.044
 2254POPC   C4A32574   6.572  19.878   7.667
 2254POPC   C1B32575   7.055  19.723   8.762
 2254POPC   C2B32576   7.136  19.712   8.269
 2254POPC   C3B32577   7.119  19.761   7.791
 2254POPC   C4B32578   6.981  19.768   7.320
 2255POPC   NC332579   8.076  23.585   9.497
 2255POPC   PO432580   8.708  23.631   9.466
 2255POPC   GL132581   8.448  23.672   9.138
 2255POPC   GL232582   8.604  23.967   9.026
 2255POPC   C1A32583   8.085  23.624   8.843
 2255POPC   D2A32584   8.025  23.771   8.436
 2255POPC   C3A32585   7.942  23.584   8.049
 2255POPC   C4A32586   8.052  23.670   7.642
 2255POPC   C1B32587   8.542  23.742   8.641
 2255POPC   C2B32588   8.470  23.951   8.295
 2255POPC   C3B32589   8.309  23.993   7.948
 2255POPC   C4B32590   8.501  24.189   7.642
 2256POPC   NC332591  18.568  44.515   9.493
 2256POPC   PO432592  18.516   0.110   9.781
 2256POPC   GL132593  18.192  44.838   9.416
 2256POPC   GL232594  18.080   0.017   9.144
 2256POPC   C1A32595  18.275  44.601   8.940
 2256POPC   D2A32596  18.366  44.393   8.536
 2256POPC   C3A32597  18.215  44.582   8.129
 2256POPC   C4A32598  18.299  44.557   7.680
 2256POPC   C1B32599  18.245   0.081   8.705
 2256POPC   C2B32600  18.088   0.047   8.300
 2256POPC   C3B32601  18.132   0.016   7.852
 2256POPC   C4B32602  18.079  44.967   7.415
 2257POPC   NC332603   2.563  18.187   9.710
 2257POPC   PO432604   3.106  18.444   9.582
 2257POPC   GL132605   2.832  18.320   9.258
 2257POPC   GL232606   2.516  18.461   9.233
 2257POPC   C1A32607   2.825  18.307   8.813
 2257POPC   D2A32608   3.145  18.370   8.514
 2257POPC   C3A32609   2.929  18.406   8.158
 2257POPC   C4A32610   2.914  18.139   7.806
 2257POPC   C1B32611   2.332  18.185   8.901
 2257POPC   C2B32612   2.418  17.998   8.503
 2257POPC   C3B32613   2.487  18.157   8.092
 2257POPC   C4B32614   2.526  18.465   7.749
 2258POPC   NC332615  42.342  10.818   9.310
 2258POPC   PO432616  42.205  10.280   9.704
 2258POPC   GL132617  42.247  10.305   9.237
 2258POPC   GL232618  41.985  10.527   9.065
 2258POPC   C1A32619  42.416  10.409   8.817
 2258POPC   D2A32620  42.486  10.719   8.496
 2258POPC   C3A32621  42.414  10.529   8.113
 2258POPC   C4A32622  42.549  10.718   7.734
 2258POPC   C1B32623  42.052  10.867   8.748
 2258POPC   C2B32624  41.933  10.912   8.334
 2258POPC   C3B32625  42.031  10.823   7.928
 2258POPC   C4B32626  42.089  10.482   7.688
 2259POPC   NC332627  10.779  17.722   9.390
 2259POPC   PO432628  10.431  17.207   9.562
 2259POPC   GL132629  10.452  17.392   9.157
 2259POPC   GL232630  10.778  17.228   9.087
 2259POPC   C1A32631  10.238  17.582   8.777
 2259POPC   D2A32632  10.059  17.382   8.398
 2259POPC   C3A32633  10.215  17.490   7.967
 2259POPC   C4A32634  10.323  17.824   7.667
 2259POPC   C1B32635  10.768  17.559   8.747
 2259POPC   C2B32636  10.609  17.599   8.318
 2259POPC   C3B32637  10.776  17.687   7.900
 2259POPC   C4B32638  10.748  17.535   7.467
 2260POPC   NC332639  10.766  16.888   9.514
 2260POPC   PO432640  10.159  16.547   9.420
 2260POPC   GL132641  10.313  16.895   9.149
 2260POPC   GL232642  10.584  16.723   9.055
 2260POPC   C1A32643  10.434  17.107   8.720
 2260POPC   D2A32644  10.822  17.147   8.450
 2260POPC   C3A32645  10.804  17.023   8.020
 2260POPC   C4A32646  10.931  16.727   7.685
 2260POPC   C1B32647  10.248  16.633   8.731
 2260POPC   C2B32648  10.452  16.518   8.378
 2260POPC   C3B32649  10.604  16.488   7.993
 2260POPC   C4B32650  10.316  16.556   7.699
 2261POPC   NC332651  22.551   3.369   9.478
 2261POPC   PO432652  23.180   3.060   9.531
 2261POPC   GL132653  22.873   2.877   9.213
 2261POPC   GL232654  22.581   3.073   9.047
 2261POPC   C1A32655  22.699   2.606   8.870
 2261POPC   D2A32656  22.751   2.512   8.433
 2261POPC   C3A32657  22.778   2.725   8.051
 2261POPC   C4A32658  22.863   3.064   7.772
 2261POPC   C1B32659  22.669   3.028   8.574
 2261POPC   C2B32660  22.636   3.303   8.203
 2261POPC   C3B32661  22.762   3.562   7.805
 2261POPC   C4B32662  22.882   3.419   7.370
 2262POPC   NC332663  29.283  21.245   9.484
 2262POPC   PO432664  29.085  21.869   9.568
 2262POPC   GL132665  29.244  21.707   9.174
 2262POPC   GL232666  29.428  21.445   9.030
 2262POPC   C1A32667  29.060  21.646   8.741
 2262POPC   D2A32668  28.892  21.280   8.495
 2262POPC   C3A32669  28.913  21.341   8.059
 2262POPC   C4A32670  29.204  21.656   7.867
 2262POPC   C1B32671  29.352  21.182   8.691
 2262POPC   C2B32672  29.400  21.241   8.237
 2262POPC   C3B32673  29.451  21.181   7.786
 2262POPC   C4B32674  29.458  21.231   7.328
 2263POPC   NC332675  41.373  11.033   9.433
 2263POPC   PO432676  42.043  11.256   9.557
 2263POPC   GL132677  41.773  11.214   9.209
 2263POPC   GL232678  41.726  11.541   9.138
 2263POPC   C1A32679  41.599  11.080   8.817
 2263POPC   D2A32680  41.574  11.261   8.405
 2263POPC   C3A32681  41.274  11.112   8.097
 2263POPC   C4A32682  41.564  11.031   7.768
 2263POPC   C1B32683  41.393  11.549   8.837
 2263POPC   C2B32684  41.304  11.667   8.406
 2263POPC   C3B32685  41.496  11.551   7.940
 2263POPC   C4B32686  41.235  11.665   7.545
 2264POPC   NC332687  42.877   4.738   9.359
 2264POPC   PO432688  43.202   5.296   9.511
 2264POPC   GL132689  43.227   5.095   9.133
 2264POPC   GL232690  42.942   5.221   9.047
 2264POPC   C1A32691  43.300   5.229   8.688
 2264POPC   D2A32692  43.323   4.952   8.311
 2264POPC   C3A32693  43.305   5.156   7.927
 2264POPC   C4A32694  42.959   5.259   7.674
 2264POPC   C1B32695  43.001   4.836   8.744
 2264POPC   C2B32696  42.872   4.696   8.358
 2264POPC   C3B32697  42.923   4.810   7.959
 2264POPC   C4B32698  42.701   4.784   7.602
 2265POPC   NC332699  16.081  11.299   9.573
 2265POPC   PO432700  15.590  11.681   9.397
 2265POPC   GL132701  15.822  11.438   9.141
 2265POPC   GL232702  15.625  11.143   9.034
 2265POPC   C1A32703  15.859  11.478   8.709
 2265POPC   D2A32704  15.844  11.196   8.386
 2265POPC   C3A32705  16.093  11.377   8.083
 2265POPC   C4A32706  15.947  11.433   7.679
 2265POPC   C1B32707  16.083  11.037   8.844
 2265POPC   C2B32708  16.333  11.040   8.420
 2265POPC   C3B32709  16.206  10.885   7.996
 2265POPC   C4B32710  15.887  10.921   7.727
 2266POPC   NC332711  32.523  40.242   9.628
 2266POPC   PO432712  31.962  39.794   9.462
 2266POPC   GL132713  32.122  39.913   9.128
 2266POPC   GL232714  32.135  40.245   9.253
 2266POPC   C1A32715  32.096  39.811   8.714
 2266POPC   D2A32716  32.270  40.017   8.368
 2266POPC   C3A32717  32.134  39.849   7.984
 2266POPC   C4A32718  32.306  39.718   7.603
 2266POPC   C1B32719  32.292  40.303   8.823
 2266POPC   C2B32720  32.325  40.510   8.421
 2266POPC   C3B32721  32.128  40.367   8.037
 2266POPC   C4B32722  32.251  40.241   7.615
 2267POPC   NC332723  30.990  28.679   9.460
 2267POPC   PO432724  30.720  29.322   9.519
 2267POPC   GL132725  30.812  29.248   9.156
 2267POPC   GL232726  30.666  28.952   9.129
 2267POPC   C1A32727  30.670  29.347   8.761
 2267POPC   D2A32728  30.709  29.162   8.404
 2267POPC   C3A32729  30.761  29.464   8.138
 2267POPC   C4A32730  30.585  29.196   7.835
 2267POPC   C1B32731  30.872  28.833   8.754
 2267POPC   C2B32732  30.824  28.638   8.339
 2267POPC   C3B32733  30.664  28.679   7.917
 2267POPC   C4B32734  30.887  28.851   7.576
 2268POPC   NC332735  41.454  40.445   9.558
 2268POPC   PO432736  41.771  40.997   9.545
 2268POPC   GL132737  41.685  40.740   9.158
 2268POPC   GL232738  41.867  40.425   9.139
 2268POPC   C1A32739  41.813  40.935   8.728
 2268POPC   D2A32740  41.989  40.970   8.287
 2268POPC   C3A32741  41.621  41.020   7.990
 2268POPC   C4A32742  41.349  41.271   7.727
 2268POPC   C1B32743  41.768  40.441   8.720
 2268POPC   C2B32744  41.736  40.518   8.262
 2268POPC   C3B32745  41.870  40.614   7.819
 2268POPC   C4B32746  41.825  40.523   7.325
 2269POPC   NC332747  37.181  21.007   9.599
 2269POPC   PO432748  37.789  21.368   9.676
 2269POPC   GL132749  37.598  21.189   9.288
 2269POPC   GL232750  37.767  21.445   9.099
 2269POPC   C1A32751  37.477  21.109   8.822
 2269POPC   D2A32752  37.395  21.274   8.358
 2269POPC   C3A32753  37.493  21.634   8.075
 2269POPC   C4A32754  37.738  21.602   7.671
 2269POPC   C1B32755  37.776  21.488   8.652
 2269POPC   C2B32756  37.946  21.427   8.262
 2269POPC   C3B32757  38.001  21.253   7.895
 2269POPC   C4B32758  38.103  21.363   7.410
 2270POPC   NC332759  16.833   1.175   9.734
 2270POPC   PO432760  16.220   0.990   9.551
 2270POPC   GL132761  16.477   1.014   9.190
 2270POPC   GL232762  16.812   1.205   9.223
 2270POPC   C1A32763  16.546   1.201   8.789
 2270POPC   D2A32764  16.490   1.321   8.385
 2270POPC   C3A32765  16.688   1.088   8.098
 2270POPC   C4A32766  16.559   0.987   7.691
 2270POPC   C1B32767  17.042   1.370   8.867
 2270POPC   C2B32768  16.970   1.549   8.475
 2270POPC   C3B32769  17.123   1.433   8.111
 2270POPC   C4B32770  16.923   1.400   7.755
 2271POPC   NC332771  28.173  12.199   9.710
 2271POPC   PO432772  28.069  11.775   9.236
 2271POPC   GL132773  28.210  12.227   9.088
 2271POPC   GL232774  28.569  12.290   9.084
 2271POPC   C1A32775  28.343  12.458   8.667
 2271POPC   D2A32776  28.544  12.315   8.285
 2271POPC   C3A32777  28.322  12.105   7.969
 2271POPC   C4A32778  28.393  11.814   7.660
 2271POPC   C1B32779  28.494  11.970   8.730
 2271POPC   C2B32780  28.678  11.820   8.339
 2271POPC   C3B32781  28.858  11.979   7.957
 2271POPC   C4B32782  28.737  12.370   7.807
 2272POPC   NC332783  44.567  12.756   9.550
 2272POPC   PO432784   0.217  13.036   9.585
 2272POPC   GL132785  44.900  12.932   9.199
 2272POPC   GL232786  44.489  12.970   9.112
 2272POPC   C1A32787  44.770  12.663   8.837
 2272POPC   D2A32788  44.490  12.589   8.490
 2272POPC   C3A32789  44.615  12.781   8.089
 2272POPC   C4A32790  44.621  12.585   7.698
 2272POPC   C1B32791  44.512  13.163   8.736
 2272POPC   C2B32792  44.288  13.223   8.363
 2272POPC   C3B32793  44.170  13.144   7.962
 2272POPC   C4B32794  44.459  13.064   7.647
 2273POPC   NC332795  11.486  24.895   9.361
 2273POPC   PO432796  11.815  24.291   9.452
 2273POPC   GL132797  11.973  24.362   9.092
 2273POPC   GL232798  11.902  24.667   9.065
 2273POPC   C1A32799  11.937  24.341   8.665
 2273POPC   D2A32800  12.250  24.380   8.396
 2273POPC   C3A32801  12.123  24.601   8.076
 2273POPC   C4A32802  11.987  24.448   7.723
 2273POPC   C1B32803  12.343  24.629   8.834
 2273POPC   C2B32804  12.551  24.778   8.472
 2273POPC   C3B32805  12.622  24.689   8.056
 2273POPC   C4B32806  12.410  24.793   7.700
 2274POPC   NC332807  38.761  29.229   9.913
 2274POPC   PO432808  39.237  29.369   9.564
 2274POPC   GL132809  39.298  29.309   9.143
 2274POPC   GL232810  39.005  29.462   9.023
 2274POPC   C1A32811  39.342  29.157   8.736
 2274POPC   D2A32812  39.394  29.318   8.332
 2274POPC   C3A32813  39.464  29.073   7.970
 2274POPC   C4A32814  39.136  28.828   7.764
 2274POPC   C1B32815  39.002  29.568   8.598
 2274POPC   C2B32816  38.976  29.683   8.189
 2274POPC   C3B32817  39.004  29.324   7.924
 2274POPC   C4B32818  39.238  29.280   7.526
 2275POPC   NC332819  18.773   5.802   9.631
 2275POPC   PO432820  19.316   5.969   9.647
 2275POPC   GL132821  19.219   5.878   9.213
 2275POPC   GL232822  18.921   5.685   9.146
 2275POPC   C1A32823  19.367   5.897   8.765
 2275POPC   D2A32824  19.219   5.996   8.323
 2275POPC   C3A32825  19.440   5.936   7.921
 2275POPC   C4A32826  19.403   5.637   7.555
 2275POPC   C1B32827  18.818   5.904   8.751
 2275POPC   C2B32828  18.700   5.971   8.300
 2275POPC   C3B32829  18.913   5.923   7.886
 2275POPC   C4B32830  18.691   6.013   7.503
 2276POPC   NC332831   2.736  30.439   9.542
 2276POPC   PO432832   3.060  31.048   9.488
 2276POPC   GL132833   2.813  30.902   9.109
 2276POPC   GL232834   2.656  30.557   9.068
 2276POPC   C1A32835   2.723  30.816   8.660
 2276POPC   D2A32836   2.767  30.462   8.418
 2276POPC   C3A32837   2.660  30.635   8.045
 2276POPC   C4A32838   2.951  30.717   7.768
 2276POPC   C1B32839   2.448  30.260   8.782
 2276POPC   C2B32840   2.329  30.114   8.362
 2276POPC   C3B32841   2.515  30.141   7.953
 2276POPC   C4B32842   2.520  30.419   7.583
 2277POPC   NC332843  23.973   8.368   9.487
 2277POPC   PO432844  23.373   8.057   9.379
 2277POPC   GL132845  23.688   8.222   9.086
 2277POPC   GL232846  23.713   8.601   9.093
 2277POPC   C1A32847  23.805   8.340   8.671
 2277POPC   D2A32848  23.914   8.484   8.282
 2277POPC   C3A32849  23.800   8.136   8.110
 2277POPC   C4A32850  23.654   8.047   7.750
 2277POPC   C1B32851  23.325   8.485   8.837
 2277POPC   C2B32852  23.250   8.467   8.387
 2277POPC   C3B32853  23.393   8.440   7.954
 2277POPC   C4B32854  23.782   8.549   7.785
 2278POPC   NC332855  26.325  25.743   9.479
 2278POPC   PO432856  25.691  25.961   9.556
 2278POPC   GL132857  25.835  25.934   9.126
 2278POPC   GL232858  26.153  25.985   9.074
 2278POPC   C1A32859  25.939  25.841   8.662
 2278POPC   D2A32860  26.230  25.895   8.330
 2278POPC   C3A32861  25.882  25.842   8.086
 2278POPC   C4A32862  25.737  25.960   7.730
 2278POPC   C1B32863  26.335  26.218   8.721
 2278POPC   C2B32864  26.409  26.389   8.303
 2278POPC   C3B32865  26.196  26.361   7.925
 2278POPC   C4B32866  26.273  25.970   7.755
 2279POPC   NC332867  35.968   1.427   9.337
 2279POPC   PO432868  36.225   1.827   9.755
 2279POPC   GL132869  36.154   1.892   9.210
 2279POPC   GL232870  35.815   1.830   9.071
 2279POPC   C1A32871  36.059   2.127   8.730
 2279POPC   D2A32872  36.023   1.923   8.268
 2279POPC   C3A32873  35.913   2.205   7.903
 2279POPC   C4A32874  36.086   2.154   7.461
 2279POPC   C1B32875  36.037   1.628   8.731
 2279POPC   C2B32876  36.274   1.475   8.411
 2279POPC   C3B32877  36.537   1.594   8.122
 2279POPC   C4B32878  36.549   1.512   7.717
 2280POPC   NC332879   2.820  18.822   9.470
 2280POPC   PO432880   2.520  19.328   9.796
 2280POPC   GL132881   2.669  19.407   9.285
 2280POPC   GL232882   2.937  19.191   9.116
 2280POPC   C1A32883   2.577  19.320   8.792
 2280POPC   D2A32884   2.833  19.147   8.423
 2280POPC   C3A32885   2.804  19.295   7.982
 2280POPC   C4A32886   2.403  19.304   7.767
 2280POPC   C1B32887   2.763  18.824   8.827
 2280POPC   C2B32888   2.531  18.665   8.463
 2280POPC   C3B32889   2.563  18.851   8.062
 2280POPC   C4B32890   2.947  18.790   7.841
 2281POPC   NC332891  24.555  37.476   9.477
 2281POPC   PO432892  24.902  38.053   9.524
 2281POPC   GL132893  24.643  37.937   9.161
 2281POPC   GL232894  24.260  37.854   9.156
 2281POPC   C1A32895  24.722  37.710   8.777
 2281POPC   D2A32896  24.594  37.759   8.367
 2281POPC   C3A32897  24.772  37.800   7.977
 2281POPC   C4A32898  24.772  37.411   7.764
 2281POPC   C1B32899  24.168  37.847   8.677
 2281POPC   C2B32900  24.122  37.651   8.235
 2281POPC   C3B32901  24.169  37.723   7.754
 2281POPC   C4B32902  24.156  37.998   7.312
 2282POPC   NC332903  18.642  33.187   9.790
 2282POPC   PO432904  19.115  32.869   9.555
 2282POPC   GL132905  19.222  32.882   9.101
 2282POPC   GL232906  19.280  32.550   9.009
 2282POPC   C1A32907  19.045  33.116   8.705
 2282POPC   D2A32908  18.997  33.434   8.370
 2282POPC   C3A32909  19.223  33.340   7.978
 2282POPC   C4A32910  18.945  33.018   7.834
 2282POPC   C1B32911  19.202  32.647   8.622
 2282POPC   C2B32912  19.238  32.888   8.267
 2282POPC   C3B32913  19.289  32.630   7.931
 2282POPC   C4B32914  19.071  32.592   7.587
 2283POPC   NC332915   4.086  16.318   9.610
 2283POPC   PO432916   4.503  16.883   9.506
 2283POPC   GL132917   4.417  16.788   9.101
 2283POPC   GL232918   4.080  16.675   9.173
 2283POPC   C1A32919   4.288  16.601   8.696
 2283POPC   D2A32920   4.109  16.588   8.271
 2283POPC   C3A32921   4.385  16.714   7.915
 2283POPC   C4A32922   4.639  16.858   7.566
 2283POPC   C1B32923   3.998  17.014   8.838
 2283POPC   C2B32924   3.870  17.042   8.373
 2283POPC   C3B32925   3.950  17.165   7.918
 2283POPC   C4B32926   4.233  17.188   7.522
 2284POPC   NC332927   8.096  25.529   9.630
 2284POPC   PO432928   8.544  25.113   9.607
 2284POPC   GL132929   8.288  25.155   9.190
 2284POPC   GL232930   8.051  25.462   9.132
 2284POPC   C1A32931   8.348  25.248   8.718
 2284POPC   D2A32932   8.548  25.465   8.341
 2284POPC   C3A32933   8.359  25.419   7.934
 2284POPC   C4A32934   8.257  25.010   7.843
 2284POPC   C1B32935   7.917  25.662   8.754
 2284POPC   C2B32936   8.011  25.538   8.335
 2284POPC   C3B32937   7.845  25.270   8.011
 2284POPC   C4B32938   7.858  25.281   7.555
 2285POPC   NC332939   0.229  38.110   9.711
 2285POPC   PO432940   0.697  38.598   9.569
 2285POPC   GL132941   0.724  38.618   9.117
 2285POPC   GL232942   0.386  38.575   9.047
 2285POPC   C1A32943   0.691  38.307   8.745
 2285POPC   D2A32944   0.442  38.217   8.345
 2285POPC   C3A32945   0.516  38.483   8.020
 2285POPC   C4A32946   0.782  38.454   7.647
 2285POPC   C1B32947   0.260  38.610   8.603
 2285POPC   C2B32948   0.054  38.927   8.353
 2285POPC   C3B32949  44.953  38.924   7.920
 2285POPC   C4B32950   0.158  38.630   7.679
 2286POPC   NC332951  37.183  27.330   9.640
 2286POPC   PO432952  36.605  27.594   9.441
 2286POPC   GL132953  36.619  27.452   9.079
 2286POPC   GL232954  36.925  27.541   9.016
 2286POPC   C1A32955  36.523  27.339   8.685
 2286POPC   D2A32956  36.803  27.386   8.331
 2286POPC   C3A32957  36.687  27.546   7.940
 2286POPC   C4A32958  36.907  27.456   7.584
 2286POPC   C1B32959  36.774  27.783   8.660
 2286POPC   C2B32960  36.933  27.903   8.232
 2286POPC   C3B32961  36.968  27.971   7.772
 2286POPC   C4B32962  37.020  27.865   7.330
 2287POPC   NC332963   0.576  34.784   9.600
 2287POPC   PO432964   0.184  34.290   9.371
 2287POPC   GL132965   0.312  34.703   9.149
 2287POPC   GL232966   0.063  34.958   9.246
 2287POPC   C1A32967   0.552  34.814   8.721
 2287POPC   D2A32968   0.563  34.981   8.265
 2287POPC   C3A32969   0.530  34.611   7.990
 2287POPC   C4A32970   0.110  34.401   7.920
 2287POPC   C1B32971   0.155  35.103   8.842
 2287POPC   C2B32972   0.015  34.943   8.425
 2287POPC   C3B32973  44.959  34.898   7.976
 2287POPC   C4B32974   0.223  34.856   7.686
 2288POPC   NC332975  25.915  14.778   9.371
 2288POPC   PO432976  26.340  15.297   9.699
 2288POPC   GL132977  26.175  15.234   9.310
 2288POPC   GL232978  25.823  15.233   9.149
 2288POPC   C1A32979  26.270  15.304   8.921
 2288POPC   D2A32980  26.006  15.258   8.589
 2288POPC   C3A32981  26.127  15.216   8.184
 2288POPC   C4A32982  25.891  15.241   7.808
 2288POPC   C1B32983  25.655  14.951   8.775
 2288POPC   C2B32984  25.787  14.844   8.318
 2288POPC   C3B32985  25.739  14.722   7.857
 2288POPC   C4B32986  25.959  14.878   7.478
 2289POPC   NC332987  28.494   6.483   9.699
 2289POPC   PO432988  28.038   6.995   9.553
 2289POPC   GL132989  28.385   6.789   9.272
 2289POPC   GL232990  28.423   6.422   9.224
 2289POPC   C1A32991  28.412   6.719   8.824
 2289POPC   D2A32992  28.195   6.724   8.463
 2289POPC   C3A32993  28.332   6.628   8.079
 2289POPC   C4A32994  28.097   6.562   7.712
 2289POPC   C1B32995  28.630   6.260   8.907
 2289POPC   C2B32996  28.642   6.381   8.486
 2289POPC   C3B32997  28.649   6.155   8.104
 2289POPC   C4B32998  28.571   6.335   7.741
 2290POPC   NC332999   3.750   8.611   9.607
 2290POPC   PO433000   3.442   8.100   9.462
 2290POPC   GL133001   3.547   8.472   9.164
 2290POPC   GL233002   3.923   8.585   9.126
 2290POPC   C1A33003   3.385   8.574   8.747
 2290POPC   D2A33004   3.302   8.297   8.384
 2290POPC   C3A33005   3.404   8.253   7.943
 2290POPC   C4A33006   3.571   7.939   7.582
 2290POPC   C1B33007   3.840   8.318   8.772
 2290POPC   C2B33008   3.808   8.351   8.343
 2290POPC   C3B33009   3.895   8.168   7.964
 2290POPC   C4B33010   4.167   8.395   7.802
 2291POPC   NC333011   7.313  24.116   9.587
 2291POPC   PO433012   7.498  24.682   9.428
 2291POPC   GL133013   7.561  24.508   9.060
 2291POPC   GL233014   7.590  24.189   9.153
 2291POPC   C1A33015   7.485  24.711   8.681
 2291POPC   D2A33016   7.259  24.689   8.303
 2291POPC   C3A33017   7.523  24.530   7.999
 2291POPC   C4A33018   7.430  24.645   7.613
 2291POPC   C1B33019   7.727  24.071   8.774
 2291POPC   C2B33020   7.485  24.235   8.437
 2291POPC   C3B33021   7.293  24.060   8.081
 2291POPC   C4B33022   7.435  24.129   7.663
 2292POPC   NC333023  19.977  30.581   9.537
 2292POPC   PO433024  19.465  30.916   9.589
 2292POPC   GL133025  19.730  30.881   9.206
 2292POPC   GL233026  19.665  31.159   9.085
 2292POPC   C1A33027  19.986  30.892   8.804
 2292POPC   D2A33028  19.990  30.601   8.471
 2292POPC   C3A33029  20.013  30.735   8.042
 2292POPC   C4A33030  20.159  30.764   7.651
 2292POPC   C1B33031  19.519  31.054   8.707
 2292POPC   C2B33032  19.736  31.060   8.376
 2292POPC   C3B33033  19.585  30.985   8.024
 2292POPC   C4B33034  19.619  30.785   7.673
 2293POPC   NC333035   1.651   2.105   9.407
 2293POPC   PO433036   2.290   2.205   9.628
 2293POPC   GL133037   2.215   1.983   9.239
 2293POPC   GL233038   2.497   2.098   9.120
 2293POPC   C1A33039   2.073   2.106   8.792
 2293POPC   D2A33040   1.842   2.193   8.400
 2293POPC   C3A33041   1.792   1.841   8.069
 2293POPC   C4A33042   1.698   1.720   7.661
 2293POPC   C1B33043   2.634   2.157   8.707
 2293POPC   C2B33044   2.427   2.257   8.368
 2293POPC   C3B33045   2.200   2.142   8.034
 2293POPC   C4B33046   2.179   1.884   7.682
 2294POPC   NC333047  35.067  21.509   9.580
 2294POPC   PO433048  35.798  21.204   9.516
 2294POPC   GL133049  35.504  21.216   9.180
 2294POPC   GL233050  35.453  21.554   9.122
 2294POPC   C1A33051  35.601  21.165   8.744
 2294POPC   D2A33052  35.391  21.132   8.349
 2294POPC   C3A33053  35.430  21.385   8.006
 2294POPC   C4A33054  35.601  21.314   7.636
 2294POPC   C1B33055  35.166  21.697   8.781
 2294POPC   C2B33056  35.061  21.568   8.356
 2294POPC   C3B33057  35.070  21.727   7.912
 2294POPC   C4B33058  35.185  21.590   7.473
 2295POPC   NC333059  20.122  36.618   9.334
 2295POPC   PO433060  19.945  37.287   9.417
 2295POPC   GL133061  19.746  36.922   9.211
 2295POPC   GL233062  19.471  37.036   9.184
 2295POPC   C1A33063  19.763  36.696   8.801
 2295POPC   D2A33064  19.968  36.929   8.466
 2295POPC   C3A33065  20.023  36.734   8.067
 2295POPC   C4A33066  20.067  36.864   7.638
 2295POPC   C1B33067  19.581  37.183   8.774
 2295POPC   C2B33068  19.594  37.287   8.324
 2295POPC   C3B33069  19.657  37.077   7.911
 2295POPC   C4B33070  19.619  36.992   7.446
 2296POPC   NC333071  33.200  20.324   9.501
 2296POPC   PO433072  33.174  20.934   9.233
 2296POPC   GL133073  33.031  20.599   9.054
 2296POPC   GL233074  32.773  20.443   9.252
 2296POPC   C1A33075  33.032  20.630   8.594
 2296POPC   D2A33076  33.321  20.546   8.283
 2296POPC   C3A33077  33.256  20.795   7.913
 2296POPC   C4A33078  33.420  20.550   7.603
 2296POPC   C1B33079  32.635  20.411   8.798
 2296POPC   C2B33080  32.593  20.455   8.339
 2296POPC   C3B33081  32.905  20.408   7.986
 2296POPC   C4B33082  32.916  20.501   7.529
 2297POPC   NC333083  18.616  38.134   9.292
 2297POPC   PO433084  18.554  38.767   9.451
 2297POPC   GL133085  18.337  38.536   9.130
 2297POPC   GL233086  18.104  38.236   9.204
 2297POPC   C1A33087  18.431  38.594   8.696
 2297POPC   D2A33088  18.445  38.501   8.246
 2297POPC   C3A33089  18.217  38.784   7.954
 2297POPC   C4A33090  18.433  38.591   7.695
 2297POPC   C1B33091  18.225  38.135   8.765
 2297POPC   C2B33092  18.144  38.060   8.337
 2297POPC   C3B33093  18.311  38.104   7.923
 2297POPC   C4B33094  18.106  38.181   7.550
 2298POPC   NC333095  24.551   8.549   9.601
 2298POPC   PO433096  24.415   9.127   9.388
 2298POPC   GL133097  24.338   8.889   9.060
 2298POPC   GL233098  24.656   8.722   9.082
 2298POPC   C1A33099  24.184   8.727   8.668
 2298POPC   D2A33100  24.416   8.548   8.329
 2298POPC   C3A33101  24.287   8.659   7.929
 2298POPC   C4A33102  24.522   8.832   7.589
 2298POPC   C1B33103  24.692   8.892   8.649
 2298POPC   C2B33104  24.572   9.207   8.317
 2298POPC   C3B33105  24.418   9.280   7.883
 2298POPC   C4B33106  24.541   9.301   7.437
 2299POPC   NC333107  22.575  28.365   9.511
 2299POPC   PO433108  21.857  28.110   9.418
 2299POPC   GL133109  21.886  28.344   9.070
 2299POPC   GL233110  22.220  28.375   9.136
 2299POPC   C1A33111  22.049  28.510   8.684
 2299POPC   D2A33112  22.151  28.336   8.311
 2299POPC   C3A33113  22.041  28.551   7.923
 2299POPC   C4A33114  21.788  28.455   7.590
 2299POPC   C1B33115  22.509  28.588   8.888
 2299POPC   C2B33116  22.560  28.599   8.474
 2299POPC   C3B33117  22.536  28.530   8.042
 2299POPC   C4B33118  22.448  28.246   7.727
 2300POPC   NC333119   2.329  40.887   9.740
 2300POPC   PO433120   1.715  40.644   9.533
 2300POPC   GL133121   1.938  40.725   9.181
 2300POPC   GL233122   2.142  41.020   9.217
 2300POPC   C1A33123   2.113  40.568   8.816
 2300POPC   D2A33124   2.245  40.633   8.410
 2300POPC   C3A33125   1.878  40.703   8.184
 2300POPC   C4A33126   1.837  40.626   7.759
 2300POPC   C1B33127   2.139  41.178   8.777
 2300POPC   C2B33128   2.131  41.145   8.317
 2300POPC   C3B33129   2.122  41.043   7.880
 2300POPC   C4B33130   2.343  40.716   7.626
 2301POPC   NC333131  42.926   0.215   9.525
 2301POPC   PO433132  43.406   0.659   9.396
 2301POPC   GL133133  43.124   0.518   9.142
 2301POPC   GL233134  43.217   0.165   9.071
 2301POPC   C1A33135  43.160   0.613   8.734
 2301POPC   D2A33136  43.245   0.419   8.355
 2301POPC   C3A33137  43.148   0.565   7.947
 2301POPC   C4A33138  43.311   0.197   7.758
 2301POPC   C1B33139  42.810   0.225   8.866
 2301POPC   C2B33140  42.742   0.305   8.468
 2301POPC   C3B33141  42.920   0.127   8.095
 2301POPC   C4B33142  42.806   0.220   7.669
 2302POPC   NC333143   1.242  22.263   9.587
 2302POPC   PO433144   1.337  21.584   9.697
 2302POPC   GL133145   1.167  21.838   9.296
 2302POPC   GL233146   0.934  22.138   9.206
 2302POPC   C1A33147   1.311  21.999   8.872
 2302POPC   D2A33148   1.495  21.834   8.471
 2302POPC   C3A33149   1.500  22.072   8.064
 2302POPC   C4A33150   1.314  22.005   7.645
 2302POPC   C1B33151   0.806  22.066   8.790
 2302POPC   C2B33152   1.011  22.271   8.437
 2302POPC   C3B33153   0.976  22.338   7.997
 2302POPC   C4B33154   0.831  22.472   7.595
 2303POPC   NC333155  24.687  25.673   9.419
 2303POPC   PO433156  24.530  26.347   9.521
 2303POPC   GL133157  24.544  26.083   9.158
 2303POPC   GL233158  24.901  26.174   9.189
 2303POPC   C1A33159  24.410  25.829   8.779
 2303POPC   D2A33160  24.501  26.015   8.375
 2303POPC   C3A33161  24.288  25.892   8.015
 2303POPC   C4A33162  24.259  25.687   7.661
 2303POPC   C1B33163  24.914  25.919   8.827
 2303POPC   C2B33164  24.796  25.619   8.508
 2303POPC   C3B33165  24.787  25.708   8.068
 2303POPC   C4B33166  24.763  25.762   7.628
 2304POPC   NC333167   9.153  40.217   9.332
 2304POPC   PO433168   8.721  39.725   9.543
 2304POPC   GL133169   8.757  39.700   9.081
 2304POPC   GL233170   8.734  40.073   8.981
 2304POPC   C1A33171   8.875  39.727   8.617
 2304POPC   D2A33172   8.770  40.037   8.284
 2304POPC   C3A33173   8.911  39.958   7.870
 2304POPC   C4A33174   9.336  39.863   7.774
 2304POPC   C1B33175   9.090  40.211   8.684
 2304POPC   C2B33176   9.327  40.223   8.307
 2304POPC   C3B33177   9.258  40.358   7.893
 2304POPC   C4B33178   9.141  40.272   7.490
 2305POPC   NC333179  31.989  28.707   9.420
 2305POPC   PO433180  32.251  29.326   9.576
 2305POPC   GL133181  32.089  29.193   9.179
 2305POPC   GL233182  32.394  29.092   9.127
 2305POPC   C1A33183  32.149  29.322   8.727
 2305POPC   D2A33184  32.329  29.160   8.332
 2305POPC   C3A33185  32.063  29.158   7.928
 2305POPC   C4A33186  32.033  29.121   7.449
 2305POPC   C1B33187  32.550  28.909   8.780
 2305POPC   C2B33188  32.492  28.653   8.416
 2305POPC   C3B33189  32.312  28.730   8.040
 2305POPC   C4B33190  32.411  28.844   7.650
 2306POPC   NC333191  27.298  37.285   9.299
 2306POPC   PO433192  26.770  37.032   9.641
 2306POPC   GL133193  26.872  36.912   9.192
 2306POPC   GL233194  27.115  36.630   9.117
 2306POPC   C1A33195  26.679  36.770   8.793
 2306POPC   D2A33196  26.644  36.565   8.390
 2306POPC   C3A33197  26.628  36.857   8.049
 2306POPC   C4A33198  26.813  36.941   7.668
 2306POPC   C1B33199  27.180  36.885   8.778
 2306POPC   C2B33200  27.019  36.919   8.404
 2306POPC   C3B33201  27.165  36.797   8.027
 2306POPC   C4B33202  27.337  37.037   7.722
 2307POPC   NC333203  35.112  19.439   9.394
 2307POPC   PO433204  35.258  20.072   9.618
 2307POPC   GL133205  35.446  19.842   9.274
 2307POPC   GL233206  35.170  19.842   9.072
 2307POPC   C1A33207  35.598  19.747   8.841
 2307POPC   D2A33208  35.385  19.763   8.466
 2307POPC   C3A33209  35.612  19.778   8.067
 2307POPC   C4A33210  35.697  19.893   7.633
 2307POPC   C1B33211  34.969  19.600   8.745
 2307POPC   C2B33212  34.907  19.528   8.335
 2307POPC   C3B33213  35.102  19.747   8.051
 2307POPC   C4B33214  35.251  19.658   7.667
 2308POPC   NC333215  43.315   1.865   9.555
 2308POPC   PO433216  42.729   2.061   9.406
 2308POPC   GL133217  43.047   1.926   9.100
 2308POPC   GL233218  43.382   1.729   9.087
 2308POPC   C1A33219  43.202   2.130   8.725
 2308POPC   D2A33220  43.346   2.443   8.411
 2308POPC   C3A33221  43.170   2.292   8.031
 2308POPC   C4A33222  42.815   2.069   7.846
 2308POPC   C1B33223  43.174   1.595   8.736
 2308POPC   C2B33224  42.989   1.743   8.393
 2308POPC   C3B33225  43.112   1.645   8.012
 2308POPC   C4B33226  43.291   1.905   7.723
 2309POPC   NC333227  24.537  34.471   9.618
 2309POPC   PO433228  24.727  35.142   9.463
 2309POPC   GL133229  24.546  34.854   9.162
 2309POPC   GL233230  24.441  34.509   9.117
 2309POPC   C1A33231  24.307  34.870   8.784
 2309POPC   D2A33232  24.465  34.855   8.406
 2309POPC   C3A33233  24.394  34.585   8.090
 2309POPC   C4A33234  24.718  34.661   7.859
 2309POPC   C1B33235  24.673  34.220   8.827
 2309POPC   C2B33236  24.544  34.154   8.394
 2309POPC   C3B33237  24.665  34.163   7.947
 2309POPC   C4B33238  24.314  34.240   7.653
 2310POPC   NC333239  13.855  17.740   9.637
 2310POPC   PO433240  13.367  17.328   9.437
 2310POPC   GL133241  13.582  17.560   9.159
 2310POPC   GL233242  13.251  17.649   9.003
 2310POPC   C1A33243  13.772  17.395   8.772
 2310POPC   D2A33244  13.578  17.404   8.363
 2310POPC   C3A33245  13.851  17.423   8.030
 2310POPC   C4A33246  13.840  17.622   7.625
 2310POPC   C1B33247  13.538  17.861   8.719
 2310POPC   C2B33248  13.615  18.097   8.342
 2310POPC   C3B33249  13.561  17.853   7.982
 2310POPC   C4B33250  13.375  17.449   7.784
 2311POPC   NC333251  11.383  36.444   9.538
 2311POPC   PO433252  11.483  35.772   9.511
 2311POPC   GL133253  11.268  36.021   9.188
 2311POPC   GL233254  10.900  36.152   9.164
 2311POPC   C1A33255  11.524  36.140   8.846
 2311POPC   D2A33256  11.666  36.113   8.426
 2311POPC   C3A33257  11.355  36.267   8.143
 2311POPC   C4A33258  11.356  36.563   7.838
 2311POPC   C1B33259  10.922  35.931   8.734
 2311POPC   C2B33260  11.070  35.805   8.286
 2311POPC   C3B33261  11.465  35.794   8.053
 2311POPC   C4B33262  11.613  36.060   7.713
 2312POPC   NC333263   7.742  19.407   9.487
 2312POPC   PO433264   7.259  19.837   9.617
 2312POPC   GL133265   7.391  19.717   9.193
 2312POPC   GL233266   7.548  20.041   9.054
 2312POPC   C1A33267   7.519  19.503   8.825
 2312POPC   D2A33268   7.801  19.593   8.500
 2312POPC   C3A33269   7.632  19.530   8.086
 2312POPC   C4A33270   7.603  19.590   7.671
 2312POPC   C1B33271   7.447  20.025   8.629
 2312POPC   C2B33272   7.339  20.196   8.234
 2312POPC   C3B33273   7.542  20.008   7.966
 2312POPC   C4B33274   7.848  20.116   7.732
 2313POPC   NC333275  40.669  28.954   9.455
 2313POPC   PO433276  40.812  29.619   9.374
 2313POPC   GL133277  40.839  29.358   9.018
 2313POPC   GL233278  40.982  29.017   9.021
 2313POPC   C1A33279  40.807  29.598   8.622
 2313POPC   D2A33280  40.952  29.436   8.242
 2313POPC   C3A33281  40.704  29.523   7.906
 2313POPC   C4A33282  40.278  29.507   7.941
 2313POPC   C1B33283  40.773  29.095   8.588
 2313POPC   C2B33284  40.538  29.106   8.171
 2313POPC   C3B33285  40.569  28.829   7.821
 2313POPC   C4B33286  40.895  28.706   7.524
 2314POPC   NC333287   2.112  36.427   9.499
 2314POPC   PO433288   2.364  35.774   9.391
 2314POPC   GL133289   2.107  35.988   9.113
 2314POPC   GL233290   1.794  36.130   9.150
 2314POPC   C1A33291   1.998  35.937   8.702
 2314POPC   D2A33292   2.124  35.763   8.320
 2314POPC   C3A33293   2.032  36.009   7.998
 2314POPC   C4A33294   1.806  35.838   7.676
 2314POPC   C1B33295   1.667  36.351   8.771
 2314POPC   C2B33296   1.795  36.274   8.378
 2314POPC   C3B33297   1.732  36.417   7.957
 2314POPC   C4B33298   1.811  36.336   7.521
 2315POPC   NC333299  41.972  44.489   9.677
 2315POPC   PO433300  41.337  44.639   9.547
 2315POPC   GL133301  41.509  44.689   9.145
 2315POPC   GL233302  41.591   0.049   9.040
 2315POPC   C1A33303  41.608  44.466   8.771
 2315POPC   D2A33304  41.370  44.398   8.399
 2315POPC   C3A33305  41.502  44.555   8.034
 2315POPC   C4A33306  41.711  44.384   7.699
 2315POPC   C1B33307  41.328  44.881   8.702
 2315POPC   C2B33308  41.300  44.974   8.301
 2315POPC   C3B33309  41.436   0.034   7.920
 2315POPC   C4B33310  41.410  44.803   7.572
 2316POPC   NC333311  30.585  41.795   9.477
 2316POPC   PO433312  30.981  41.305   9.534
 2316POPC   GL133313  30.743  41.152   9.187
 2316POPC   GL233314  30.492  41.403   9.102
 2316POPC   C1A33315  30.733  41.082   8.769
 2316POPC   D2A33316  30.495  41.323   8.479
 2316POPC   C3A33317  30.615  41.427   8.077
 2316POPC   C4A33318  30.813  41.453   7.699
 2316POPC   C1B33319  30.528  41.770   8.800
 2316POPC   C2B33320  30.549  41.897   8.342
 2316POPC   C3B33321  30.541  41.882   7.853
 2316POPC   C4B33322  30.440  41.642   7.436
 2317POPC   NC333323  43.470  28.038   9.738
 2317POPC   PO433324  43.210  28.530   9.609
 2317POPC   GL133325  43.239  28.592   9.163
 2317POPC   GL233326  43.224  28.231   9.085
 2317POPC   C1A33327  43.115  28.622   8.717
 2317POPC   D2A33328  42.891  28.400   8.381
 2317POPC   C3A33329  43.016  28.565   7.952
 2317POPC   C4A33330  43.377  28.777   7.786
 2317POPC   C1B33331  43.287  28.158   8.640
 2317POPC   C2B33332  43.400  28.430   8.276
 2317POPC   C3B33333  43.442  28.261   7.850
 2317POPC   C4B33334  43.432  27.936   7.507
 2318POPC   NC333335  10.637  41.379   9.579
 2318POPC   PO433336  11.292  41.252   9.368
 2318POPC   GL133337  10.877  41.428   9.118
 2318POPC   GL233338  10.486  41.463   9.085
 2318POPC   C1A33339  10.772  41.664   8.720
 2318POPC   D2A33340  10.505  41.588   8.422
 2318POPC   C3A33341  10.706  41.471   8.054
 2318POPC   C4A33342  10.600  41.184   7.765
 2318POPC   C1B33343  10.197  41.760   8.800
 2318POPC   C2B33344  10.115  41.940   8.383
 2318POPC   C3B33345  10.439  41.946   8.078
 2318POPC   C4B33346  10.703  42.050   7.744
 2319POPC   NC333347  24.262  40.562   9.630
 2319POPC   PO433348  24.593  41.073   9.594
 2319POPC   GL133349  24.394  40.842   9.216
 2319POPC   GL233350  24.325  40.461   9.134
 2319POPC   C1A33351  24.157  40.904   8.845
 2319POPC   D2A33352  24.127  41.114   8.455
 2319POPC   C3A33353  24.125  40.861   8.098
 2319POPC   C4A33354  24.350  40.941   7.770
 2319POPC   C1B33355  24.665  40.487   8.814
 2319POPC   C2B33356  24.754  40.613   8.371
 2319POPC   C3B33357  24.634  40.538   7.933
 2319POPC   C4B33358  24.532  40.579   7.472
 2320POPC   NC333359   4.062  15.798   9.257
 2320POPC   PO433360   4.519  16.143   9.584
 2320POPC   GL133361   4.397  16.265   9.151
 2320POPC   GL233362   4.126  16.147   8.896
 2320POPC   C1A33363   4.595  16.193   8.740
 2320POPC   D2A33364   4.299  16.124   8.390
 2320POPC   C3A33365   4.411  16.079   7.971
 2320POPC   C4A33366   4.205  16.329   7.629
 2320POPC   C1B33367   4.343  15.731   8.691
 2320POPC   C2B33368   4.472  15.605   8.273
 2320POPC   C3B33369   4.298  15.553   7.886
 2320POPC   C4B33370   3.906  15.631   7.695
 2321POPC   NC333371   5.559  12.619   9.845
 2321POPC   PO433372   4.974  12.827   9.552
 2321POPC   GL133373   5.122  12.958   9.192
 2321POPC   GL233374   5.221  12.674   9.084
 2321POPC   C1A33375   5.059  13.013   8.727
 2321POPC   D2A33376   5.163  12.926   8.304
 2321POPC   C3A33377   4.878  13.032   7.987
 2321POPC   C4A33378   4.903  12.864   7.625
 2321POPC   C1B33379   4.856  12.546   8.812
 2321POPC   C2B33380   4.789  12.351   8.424
 2321POPC   C3B33381   4.924  12.515   8.075
 2321POPC   C4B33382   4.804  12.358   7.710
 2322POPC   NC333383  33.517  16.888   9.616
 2322POPC   PO433384  32.876  16.663   9.540
 2322POPC   GL133385  32.974  16.667   9.154
 2322POPC   GL233386  32.826  16.323   9.145
 2322POPC   C1A33387  33.171  16.846   8.822
 2322POPC   D2A33388  33.084  16.676   8.458
 2322POPC   C3A33389  33.064  16.890   8.090
 2322POPC   C4A33390  32.965  16.765   7.705
 2322POPC   C1B33391  33.066  16.291   8.816
 2322POPC   C2B33392  32.904  16.190   8.434
 2322POPC   C3B33393  33.029  16.345   8.042
 2322POPC   C4B33394  33.124  16.270   7.612
 2323POPC   NC333395   9.217  11.370   9.366
 2323POPC   PO433396   8.539  11.425   9.470
 2323POPC   GL133397   8.739  11.332   9.103
 2323POPC   GL233398   8.805  10.977   9.120
 2323POPC   C1A33399   8.829  11.274   8.663
 2323POPC   D2A33400   8.824  11.471   8.262
 2323POPC   C3A33401   9.125  11.513   7.949
 2323POPC   C4A33402   8.853  11.684   7.668
 2323POPC   C1B33403   9.136  10.889   8.810
 2323POPC   C2B33404   9.141  10.721   8.394
 2323POPC   C3B33405   8.989  11.003   8.042
 2323POPC   C4B33406   8.707  11.222   7.754
 2324POPC   NC333407   2.391   6.463   9.595
 2324POPC   PO433408   2.899   6.884   9.481
 2324POPC   GL133409   2.700   6.628   9.191
 2324POPC   GL233410   2.998   6.528   9.010
 2324POPC   C1A33411   2.558   6.655   8.775
 2324POPC   D2A33412   2.425   6.648   8.360
 2324POPC   C3A33413   2.577   6.846   8.017
 2324POPC   C4A33414   2.584   6.920   7.598
 2324POPC   C1B33415   2.909   6.322   8.586
 2324POPC   C2B33416   2.773   6.340   8.160
 2324POPC   C3B33417   2.929   6.464   7.766
 2324POPC   C4B33418   3.037   6.738   7.447
 2325POPC   NC333419  38.036   1.557   9.499
 2325POPC   PO433420  37.411   1.358   9.447
 2325POPC   GL133421  37.444   1.092   9.124
 2325POPC   GL233422  37.795   1.096   9.155
 2325POPC   C1A33423  37.477   1.039   8.695
 2325POPC   D2A33424  37.531   0.791   8.343
 2325POPC   C3A33425  37.477   1.019   7.946
 2325POPC   C4A33426  37.732   1.078   7.560
 2325POPC   C1B33427  37.731   1.465   8.864
 2325POPC   C2B33428  37.770   1.454   8.421
 2325POPC   C3B33429  37.837   1.400   7.988
 2325POPC   C4B33430  37.793   1.606   7.607
 2326POPC   NC333431  30.155   5.177   9.924
 2326POPC   PO433432  30.793   5.045   9.716
 2326POPC   GL133433  30.882   4.991   9.265
 2326POPC   GL233434  30.622   5.203   9.152
 2326POPC   C1A33435  30.795   4.889   8.777
 2326POPC   D2A33436  30.541   5.001   8.390
 2326POPC   C3A33437  30.536   4.813   7.969
 2326POPC   C4A33438  30.876   4.886   7.699
 2326POPC   C1B33439  30.369   5.412   8.837
 2326POPC   C2B33440  30.451   5.543   8.392
 2326POPC   C3B33441  30.710   5.344   8.045
 2326POPC   C4B33442  30.518   5.251   7.657
 2327POPC   NC333443   8.637   0.928   9.632
 2327POPC   PO433444   9.275   1.121   9.537
 2327POPC   GL133445   8.979   1.106   9.216
 2327POPC   GL233446   8.750   1.366   9.184
 2327POPC   C1A33447   9.053   1.027   8.779
 2327POPC   D2A33448   9.301   1.016   8.400
 2327POPC   C3A33449   8.989   0.933   8.112
 2327POPC   C4A33450   8.858   1.003   7.703
 2327POPC   C1B33451   8.936   1.530   8.787
 2327POPC   C2B33452   8.825   1.361   8.388
 2327POPC   C3B33453   8.696   1.408   7.980
 2327POPC   C4B33454   8.744   1.441   7.485
 2328POPC   NC333455  41.504  10.129   9.565
 2328POPC   PO433456  41.729  10.728   9.460
 2328POPC   GL133457  41.432  10.492   9.193
 2328POPC   GL233458  41.239  10.135   9.126
 2328POPC   C1A33459  41.425  10.500   8.776
 2328POPC   D2A33460  41.418  10.773   8.447
 2328POPC   C3A33461  41.503  10.615   8.042
 2328POPC   C4A33462  41.229  10.637   7.657
 2328POPC   C1B33463  41.035  10.168   8.747
 2328POPC   C2B33464  41.130  10.350   8.355
 2328POPC   C3B33465  41.235  10.195   7.943
 2328POPC   C4B33466  41.108  10.105   7.498
 2329POPC   NC333467  23.256  42.658   9.508
 2329POPC   PO433468  22.948  42.000   9.442
 2329POPC   GL133469  22.962  42.347   9.181
 2329POPC   GL233470  23.321  42.379   9.098
 2329POPC   C1A33471  22.944  42.578   8.791
 2329POPC   D2A33472  23.190  42.573   8.411
 2329POPC   C3A33473  23.014  42.378   8.020
 2329POPC   C4A33474  23.210  42.303   7.595
 2329POPC   C1B33475  23.169  42.110   8.774
 2329POPC   C2B33476  23.292  42.083   8.375
 2329POPC   C3B33477  23.300  41.925   8.020
 2329POPC   C4B33478  23.076  41.835   7.716
 2330POPC   NC333479  42.309  23.173   9.720
 2330POPC   PO433480  41.954  22.767   9.604
 2330POPC   GL133481  42.191  22.680   9.240
 2330POPC   GL233482  42.462  22.449   9.248
 2330POPC   C1A33483  42.179  22.700   8.782
 2330POPC   D2A33484  42.259  22.564   8.341
 2330POPC   C3A33485  42.134  22.727   7.935
 2330POPC   C4A33486  42.223  23.032   7.594
 2330POPC   C1B33487  42.588  22.379   8.803
 2330POPC   C2B33488  42.637  22.220   8.356
 2330POPC   C3B33489  42.540  22.379   7.927
 2330POPC   C4B33490  42.400  22.522   7.524
 2331POPC   NC333491   1.708  20.417   9.529
 2331POPC   PO433492   2.219  20.828   9.512
 2331POPC   GL133493   2.043  20.617   9.193
 2331POPC   GL233494   1.770  20.791   9.156
 2331POPC   C1A33495   2.125  20.696   8.749
 2331POPC   D2A33496   2.191  20.543   8.336
 2331POPC   C3A33497   1.972  20.336   7.995
 2331POPC   C4A33498   2.103  20.605   7.622
 2331POPC   C1B33499   1.691  20.474   8.846
 2331POPC   C2B33500   1.633  20.405   8.416
 2331POPC   C3B33501   1.466  20.439   8.025
 2331POPC   C4B33502   1.592  20.606   7.675
 2332POPC   NC333503  12.176   6.410   9.971
 2332POPC   PO433504  11.867   6.821   9.494
 2332POPC   GL133505  11.993   6.898   9.067
 2332POPC   GL233506  12.285   6.716   8.994
 2332POPC   C1A33507  11.986   6.933   8.628
 2332POPC   D2A33508  12.333   6.799   8.433
 2332POPC   C3A33509  12.254   6.747   8.026
 2332POPC   C4A33510  12.089   6.978   7.687
 2332POPC   C1B33511  12.083   6.422   8.703
 2332POPC   C2B33512  12.240   6.300   8.332
 2332POPC   C3B33513  12.177   6.236   7.939
 2332POPC   C4B33514  12.253   6.478   7.586
 2333POPC   NC333515   1.905  11.158   9.290
 2333POPC   PO433516   2.304  11.775   9.466
 2333POPC   GL133517   2.156  11.606   9.106
 2333POPC   GL233518   2.386  11.338   9.151
 2333POPC   C1A33519   1.931  11.575   8.697
 2333POPC   D2A33520   1.647  11.338   8.443
 2333POPC   C3A33521   1.743  11.455   8.024
 2333POPC   C4A33522   1.697  11.695   7.655
 2333POPC   C1B33523   2.262  11.175   8.732
 2333POPC   C2B33524   2.121  11.224   8.324
 2333POPC   C3B33525   2.136  11.115   7.914
 2333POPC   C4B33526   2.182  11.481   7.655
 2334POPC   NC333527   3.693  21.507   9.275
 2334POPC   PO433528   3.094  21.288   9.359
 2334POPC   GL133529   3.338  21.266   9.017
 2334POPC   GL233530   3.545  20.976   9.006
 2334POPC   C1A33531   3.602  21.411   8.630
 2334POPC   D2A33532   3.740  21.565   8.213
 2334POPC   C3A33533   3.485  21.556   7.839
 2334POPC   C4A33534   3.772  21.674   7.552
 2334POPC   C1B33535   3.265  21.004   8.611
 2334POPC   C2B33536   3.386  21.173   8.218
 2334POPC   C3B33537   3.655  21.082   7.875
 2334POPC   C4B33538   3.476  21.142   7.466
 2335POPC   NC333539   6.683  24.215   9.438
 2335POPC   PO433540   6.589  24.783   9.552
 2335POPC   GL133541   6.811  24.606   9.142
 2335POPC   GL233542   7.083  24.304   9.144
 2335POPC   C1A33543   6.550  24.426   8.788
 2335POPC   D2A33544   6.285  24.657   8.453
 2335POPC   C3A33545   6.434  24.518   8.085
 2335POPC   C4A33546   6.550  24.583   7.647
 2335POPC   C1B33547   7.060  24.406   8.702
 2335POPC   C2B33548   6.887  24.334   8.270
 2335POPC   C3B33549   7.000  24.408   7.852
 2335POPC   C4B33550   7.057  24.357   7.404
 2336POPC   NC333551   1.561  29.237   9.413
 2336POPC   PO433552   2.223  29.127   9.392
 2336POPC   GL133553   1.952  29.102   9.093
 2336POPC   GL233554   1.759  28.792   9.192
 2336POPC   C1A33555   2.035  29.272   8.696
 2336POPC   D2A33556   2.181  29.124   8.332
 2336POPC   C3A33557   2.002  29.203   7.923
 2336POPC   C4A33558   2.166  29.365   7.554
 2336POPC   C1B33559   1.759  28.807   8.730
 2336POPC   C2B33560   1.703  28.894   8.286
 2336POPC   C3B33561   1.706  28.786   7.865
 2336POPC   C4B33562   1.809  28.936   7.436
 2337POPC   NC333563  39.154  12.617   9.550
 2337POPC   PO433564  39.566  12.099   9.560
 2337POPC   GL133565  39.371  12.088   9.156
 2337POPC   GL233566  39.419  12.397   9.148
 2337POPC   C1A33567  39.151  12.030   8.754
 2337POPC   D2A33568  38.820  11.932   8.445
 2337POPC   C3A33569  38.891  11.772   8.007
 2337POPC   C4A33570  39.016  11.967   7.598
 2337POPC   C1B33571  39.578  12.307   8.719
 2337POPC   C2B33572  39.596  12.141   8.300
 2337POPC   C3B33573  39.388  11.949   7.986
 2337POPC   C4B33574  39.499  12.195   7.655
 2338POPC   NC333575  32.617  28.157   9.402
 2338POPC   PO433576  32.407  28.824   9.592
 2338POPC   GL133577  32.518  28.602   9.198
 2338POPC   GL233578  32.237  28.585   9.002
 2338POPC   C1A33579  32.574  28.305   8.790
 2338POPC   D2A33580  32.185  28.265   8.571
 2338POPC   C3A33581  32.167  28.258   8.131
 2338POPC   C4A33582  32.289  28.292   7.700
 2338POPC   C1B33583  32.024  28.828   8.775
 2338POPC   C2B33584  31.877  28.886   8.401
 2338POPC   C3B33585  31.804  28.625   8.111
 2338POPC   C4B33586  31.887  28.693   7.709
 2339POPC   NC333587   4.054  12.591   9.535
 2339POPC   PO433588   4.219  13.209   9.446
 2339POPC   GL133589   4.270  12.919   9.126
 2339POPC   GL233590   4.626  12.900   9.116
 2339POPC   C1A33591   4.345  12.861   8.682
 2339POPC   D2A33592   4.637  12.829   8.372
 2339POPC   C3A33593   4.480  12.707   7.926
 2339POPC   C4A33594   4.058  12.674   7.802
 2339POPC   C1B33595   4.618  13.269   8.818
 2339POPC   C2B33596   4.580  13.347   8.383
 2339POPC   C3B33597   4.380  13.178   8.061
 2339POPC   C4B33598   4.534  13.237   7.637
 2340POPC   NC333599  20.603  37.049   9.560
 2340POPC   PO433600  20.481  36.456   9.563
 2340POPC   GL133601  20.543  36.788   9.126
 2340POPC   GL233602  20.823  37.048   9.071
 2340POPC   C1A33603  20.737  36.697   8.694
 2340POPC   D2A33604  20.820  36.688   8.246
 2340POPC   C3A33605  20.500  36.654   7.903
 2340POPC   C4A33606  20.588  36.628   7.457
 2340POPC   C1B33607  20.480  37.157   8.774
 2340POPC   C2B33608  20.478  37.054   8.325
 2340POPC   C3B33609  20.714  37.102   7.912
 2340POPC   C4B33610  20.482  37.105   7.518
 2341POPC   NC333611  28.199  14.084   9.561
 2341POPC   PO433612  28.590  13.545   9.514
 2341POPC   GL133613  28.204  13.570   9.253
 2341POPC   GL233614  28.104  13.857   9.118
 2341POPC   C1A33615  28.222  13.405   8.841
 2341POPC   D2A33616  28.383  13.507   8.439
 2341POPC   C3A33617  28.171  13.428   8.047
 2341POPC   C4A33618  28.301  13.499   7.605
 2341POPC   C1B33619  28.314  13.912   8.750
 2341POPC   C2B33620  28.488  14.011   8.358
 2341POPC   C3B33621  28.463  13.848   7.950
 2341POPC   C4B33622  28.442  13.974   7.504
 2342POPC   NC333623  17.795  41.560   9.425
 2342POPC   PO433624  18.370  41.921   9.486
 2342POPC   GL133625  18.240  41.734   9.125
 2342POPC   GL233626  18.207  41.359   9.130
 2342POPC   C1A33627  18.393  41.655   8.718
 2342POPC   D2A33628  18.199  41.557   8.322
 2342POPC   C3A33629  18.187  41.917   8.084
 2342POPC   C4A33630  18.599  41.884   7.920
 2342POPC   C1B33631  17.898  41.470   8.779
 2342POPC   C2B33632  17.726  41.372   8.370
 2342POPC   C3B33633  17.836  41.431   7.951
 2342POPC   C4B33634  18.195  41.537   7.756
 2343POPC   NC333635  12.618  31.344   9.820
 2343POPC   PO433636  13.113  31.676   9.566
 2343POPC   GL133637  12.758  31.492   9.289
 2343POPC   GL233638  12.893  31.719   9.055
 2343POPC   C1A33639  12.511  31.407   8.869
 2343POPC   D2A33640  12.537  31.503   8.409
 2343POPC   C3A33641  12.767  31.310   8.074
 2343POPC   C4A33642  12.471  31.366   7.769
 2343POPC   C1B33643  13.109  32.023   8.747
 2343POPC   C2B33644  13.344  31.993   8.337
 2343POPC   C3B33645  13.185  31.906   7.920
 2343POPC   C4B33646  13.234  31.752   7.458
 2344POPC   NC333647  29.954  22.646   9.514
 2344POPC   PO433648  29.939  23.276   9.547
 2344POPC   GL133649  29.765  23.053   9.211
 2344POPC   GL233650  29.938  22.828   9.056
 2344POPC   C1A33651  29.736  23.186   8.766
 2344POPC   D2A33652  29.511  23.199   8.400
 2344POPC   C3A33653  29.657  23.077   8.017
 2344POPC   C4A33654  29.653  23.298   7.625
 2344POPC   C1B33655  30.188  22.937   8.708
 2344POPC   C2B33656  30.045  22.956   8.331
 2344POPC   C3B33657  30.047  22.715   7.962
 2344POPC   C4B33658  29.841  22.808   7.609
 2345POPC   NC333659  31.799  25.565   9.456
 2345POPC   PO433660  31.200  25.286   9.538
 2345POPC   GL133661  31.331  25.432   9.174
 2345POPC   GL233662  31.627  25.231   9.124
 2345POPC   C1A33663  31.341  25.525   8.755
 2345POPC   D2A33664  31.474  25.644   8.357
 2345POPC   C3A33665  31.309  25.341   8.079
 2345POPC   C4A33666  31.297  25.352   7.657
 2345POPC   C1B33667  31.690  25.105   8.708
 2345POPC   C2B33668  31.838  25.288   8.327
 2345POPC   C3B33669  31.770  25.421   7.910
 2345POPC   C4B33670  31.746  25.117   7.588
 2346POPC   NC333671  40.370  13.917   9.271
 2346POPC   PO433672  39.784  13.617   9.500
 2346POPC   GL133673  39.967  13.584   9.093
 2346POPC   GL233674  40.289  13.456   9.045
 2346POPC   C1A33675  39.802  13.718   8.707
 2346POPC   D2A33676  39.852  13.554   8.317
 2346POPC   C3A33677  39.755  13.725   7.940
 2346POPC   C4A33678  40.051  13.917   7.716
 2346POPC   C1B33679  40.293  13.628   8.607
 2346POPC   C2B33680  40.271  13.842   8.190
 2346POPC   C3B33681  40.541  13.761   7.820
 2346POPC   C4B33682  40.520  13.623   7.380
 2347POPC   NC333683  32.975  13.397   9.576
 2347POPC   PO433684  33.019  14.074   9.779
 2347POPC   GL133685  32.906  13.886   9.349
 2347POPC   GL233686  33.179  13.747   9.181
 2347POPC   C1A33687  32.783  13.770   8.898
 2347POPC   D2A33688  32.726  13.939   8.477
 2347POPC   C3A33689  32.828  13.727   8.104
 2347POPC   C4A33690  32.771  13.595   7.691
 2347POPC   C1B33691  33.329  13.572   8.811
 2347POPC   C2B33692  33.190  13.457   8.421
 2347POPC   C3B33693  33.316  13.557   8.024
 2347POPC   C4B33694  33.249  13.433   7.653
 2348POPC   NC333695  19.195  40.718   9.434
 2348POPC   PO433696  18.578  41.044   9.393
 2348POPC   GL133697  18.811  40.850   9.037
 2348POPC   GL233698  18.994  40.527   9.020
 2348POPC   C1A33699  18.864  40.803   8.593
 2348POPC   D2A33700  18.631  40.796   8.216
 2348POPC   C3A33701  18.953  40.816   7.905
 2348POPC   C4A33702  18.926  40.927   7.471
 2348POPC   C1B33703  19.356  40.713   8.778
 2348POPC   C2B33704  19.508  40.567   8.371
 2348POPC   C3B33705  19.327  40.431   7.975
 2348POPC   C4B33706  19.281  40.597   7.550
 2349POPC   NC333707   2.544  17.142   9.547
 2349POPC   PO433708   2.985  16.630   9.618
 2349POPC   GL133709   2.760  16.747   9.265
 2349POPC   GL233710   2.849  17.028   9.156
 2349POPC   C1A33711   2.815  16.610   8.831
 2349POPC   D2A33712   2.855  16.830   8.438
 2349POPC   C3A33713   2.763  16.565   8.046
 2349POPC   C4A33714   3.009  16.486   7.652
 2349POPC   C1B33715   2.556  17.044   8.831
 2349POPC   C2B33716   2.393  16.993   8.393
 2349POPC   C3B33717   2.660  17.069   7.989
 2349POPC   C4B33718   2.447  17.111   7.568
 2350POPC   NC333719   0.677  17.380   9.484
 2350POPC   PO433720   0.307  17.855   9.479
 2350POPC   GL133721   0.380  17.592   9.109
 2350POPC   GL233722   0.699  17.683   9.078
 2350POPC   C1A33723   0.324  17.426   8.654
 2350POPC   D2A33724   0.307  17.661   8.244
 2350POPC   C3A33725   0.336  17.543   7.811
 2350POPC   C4A33726   0.685  17.830   7.582
 2350POPC   C1B33727   0.809  17.505   8.762
 2350POPC   C2B33728   0.760  17.424   8.358
 2350POPC   C3B33729   0.802  17.518   7.974
 2350POPC   C4B33730   0.738  17.346   7.551
 2351POPC   NC333731  12.215   1.041   9.695
 2351POPC   PO433732  11.658   1.443   9.609
 2351POPC   GL133733  11.926   1.187   9.318
 2351POPC   GL233734  11.904   1.434   9.135
 2351POPC   C1A33735  12.079   0.971   8.916
 2351POPC   D2A33736  11.963   0.997   8.447
 2351POPC   C3A33737  12.261   1.052   8.080
 2351POPC   C4A33738  12.366   1.132   7.640
 2351POPC   C1B33739  12.135   1.454   8.801
 2351POPC   C2B33740  12.191   1.461   8.395
 2351POPC   C3B33741  12.085   1.522   7.979
 2351POPC   C4B33742  12.293   1.786   7.725
 2352POPC   NC333743  11.954  44.947   9.466
 2352POPC   PO433744  12.194   0.605   9.523
 2352POPC   GL133745  11.880   0.591   9.199
 2352POPC   GL233746  12.151   0.420   9.016
 2352POPC   C1A33747  11.757   0.589   8.737
 2352POPC   D2A33748  12.091   0.483   8.423
 2352POPC   C3A33749  12.054   0.617   7.985
 2352POPC   C4A33750  12.394   0.617   7.670
 2352POPC   C1B33751  11.948   0.108   8.767
 2352POPC   C2B33752  11.712   0.122   8.377
 2352POPC   C3B33753  11.805   0.192   7.931
 2352POPC   C4B33754  12.167   0.133   7.637
 2353POPC   NC333755  17.441  34.963   9.503
 2353POPC   PO433756  17.815  35.538   9.472
 2353POPC   GL133757  17.642  35.588   9.112
 2353POPC   GL233758  17.604  35.243   9.105
 2353POPC   C1A33759  17.347  35.487   8.770
 2353POPC   D2A33760  17.335  35.185   8.458
 2353POPC   C3A33761  17.418  35.419   8.117
 2353POPC   C4A33762  17.334  35.405   7.709
 2353POPC   C1B33763  17.786  35.039   8.722
 2353POPC   C2B33764  17.853  35.156   8.291
 2353POPC   C3B33765  17.839  35.279   7.853
 2353POPC   C4B33766  17.797  35.061   7.452
 2354POPC   NC333767   4.015  22.345   9.457
 2354POPC   PO433768   4.671  21.967   9.442
 2354POPC   GL133769   4.386  22.218   9.127
 2354POPC   GL233770   4.391  22.615   9.158
 2354POPC   C1A33771   4.035  22.077   8.797
 2354POPC   D2A33772   4.134  21.823   8.405
 2354POPC   C3A33773   4.057  21.971   7.979
 2354POPC   C4A33774   4.436  22.191   7.833
 2354POPC   C1B33775   4.180  22.560   8.775
 2354POPC   C2B33776   4.132  22.362   8.381
 2354POPC   C3B33777   3.937  22.476   8.031
 2354POPC   C4B33778   4.076  22.518   7.633
 2355POPC   NC333779  11.782   4.246   9.595
 2355POPC   PO433780  12.322   4.564   9.795
 2355POPC   GL133781  12.084   4.544   9.337
 2355POPC   GL233782  12.047   4.167   9.175
 2355POPC   C1A33783  12.021   4.543   8.851
 2355POPC   D2A33784  12.308   4.395   8.498
 2355POPC   C3A33785  12.269   4.388   8.041
 2355POPC   C4A33786  12.250   4.033   7.750
 2355POPC   C1B33787  11.993   4.046   8.722
 2355POPC   C2B33788  11.948   4.015   8.258
 2355POPC   C3B33789  11.795   4.236   7.905
 2355POPC   C4B33790  11.801   4.123   7.486
 2356POPC   NC333791   2.757  10.638   9.353
 2356POPC   PO433792   2.338  10.064   9.449
 2356POPC   GL133793   2.558  10.236   9.089
 2356POPC   GL233794   2.900  10.172   9.053
 2356POPC   C1A33795   2.549  10.437   8.673
 2356POPC   D2A33796   2.839  10.754   8.477
 2356POPC   C3A33797   2.860  10.708   8.026
 2356POPC   C4A33798   2.718  10.491   7.611
 2356POPC   C1B33799   3.030  10.290   8.628
 2356POPC   C2B33800   3.123  10.255   8.176
 2356POPC   C3B33801   3.253  10.217   7.726
 2356POPC   C4B33802   3.132  10.304   7.278
 2357POPC   NC333803  19.751  31.290   9.549
 2357POPC   PO433804  20.259  31.779   9.456
 2357POPC   GL133805  20.078  31.486   9.177
 2357POPC   GL233806  19.743  31.662   9.174
 2357POPC   C1A33807  19.929  31.406   8.756
 2357POPC   D2A33808  19.900  31.547   8.373
 2357POPC   C3A33809  20.062  31.285   8.058
 2357POPC   C4A33810  19.925  31.200   7.687
 2357POPC   C1B33811  19.687  31.859   8.745
 2357POPC   C2B33812  19.536  31.937   8.332
 2357POPC   C3B33813  19.607  31.968   7.924
 2357POPC   C4B33814  19.789  31.685   7.627
 2358POPC   NC333815  36.173  11.990   9.621
 2358POPC   PO433816  35.828  11.533   9.399
 2358POPC   GL133817  36.103  11.871   9.128
 2358POPC   GL233818  36.260  12.236   9.184
 2358POPC   C1A33819  36.058  12.108   8.729
 2358POPC   D2A33820  36.084  12.437   8.407
 2358POPC   C3A33821  35.965  12.292   7.989
 2358POPC   C4A33822  36.019  11.909   7.745
 2358POPC   C1B33823  36.510  12.342   8.781
 2358POPC   C2B33824  36.593  12.549   8.363
 2358POPC   C3B33825  36.365  12.596   7.951
 2358POPC   C4B33826  36.291  12.318   7.585
 2359POPC   NC333827  26.491  38.746   9.877
 2359POPC   PO433828  26.017  39.125   9.550
 2359POPC   GL133829  25.970  38.940   9.150
 2359POPC   GL233830  26.112  39.267   9.066
 2359POPC   C1A33831  25.984  38.966   8.692
 2359POPC   D2A33832  25.949  39.300   8.383
 2359POPC   C3A33833  26.035  39.069   8.036
 2359POPC   C4A33834  25.878  38.970   7.650
 2359POPC   C1B33835  26.336  39.343   8.709
 2359POPC   C2B33836  26.330  39.677   8.396
 2359POPC   C3B33837  26.260  39.576   7.957
 2359POPC   C4B33838  26.330  39.241   7.656
 2360POPC   NC333839  38.003  12.300   9.381
 2360POPC   PO433840  37.569  11.727   9.480
 2360POPC   GL133841  37.657  11.996   9.149
 2360POPC   GL233842  37.494  12.302   9.303
 2360POPC   C1A33843  37.847  12.018   8.723
 2360POPC   D2A33844  37.922  12.103   8.265
 2360POPC   C3A33845  37.690  11.843   7.934
 2360POPC   C4A33846  37.549  11.795   7.475
 2360POPC   C1B33847  37.389  12.337   8.874
 2360POPC   C2B33848  37.397  12.175   8.448
 2360POPC   C3B33849  37.532  12.425   8.097
 2360POPC   C4B33850  37.862  12.306   7.790
 2361POPC   NC333851  44.524   0.949   9.534
 2361POPC   PO433852  44.914   1.423   9.794
 2361POPC   GL133853  44.787   1.306   9.295
 2361POPC   GL233854  44.564   1.486   9.136
 2361POPC   C1A33855  44.555   1.028   8.896
 2361POPC   D2A33856  44.401   1.067   8.429
 2361POPC   C3A33857  44.473   0.894   8.000
 2361POPC   C4A33858  44.717   1.109   7.680
 2361POPC   C1B33859  44.662   1.507   8.742
 2361POPC   C2B33860  44.444   1.580   8.393
 2361POPC   C3B33861  44.506   1.421   8.015
 2361POPC   C4B33862  44.526   1.570   7.600
 2362POPC   NC333863  40.312   8.263   9.445
 2362POPC   PO433864  40.949   8.047   9.553
 2362POPC   GL133865  40.769   8.225   9.163
 2362POPC   GL233866  41.088   8.157   9.008
 2362POPC   C1A33867  40.489   8.375   8.822
 2362POPC   D2A33868  40.383   8.177   8.421
 2362POPC   C3A33869  40.528   8.324   8.036
 2362POPC   C4A33870  40.720   8.374   7.667
 2362POPC   C1B33871  40.922   8.257   8.581
 2362POPC   C2B33872  41.029   8.465   8.169
 2362POPC   C3B33873  41.177   8.248   7.809
 2362POPC   C4B33874  41.156   7.783   7.736
 2363POPC   NC333875  11.600  29.893   9.662
 2363POPC   PO433876  12.240  30.032   9.653
 2363POPC   GL133877  11.952  29.984   9.295
 2363POPC   GL233878  11.775  30.271   9.151
 2363POPC   C1A33879  11.918  29.859   8.870
 2363POPC   D2A33880  11.848  30.148   8.511
 2363POPC   C3A33881  12.022  29.962   8.152
 2363POPC   C4A33882  12.016  29.674   7.819
 2363POPC   C1B33883  12.189  30.278   8.910
 2363POPC   C2B33884  12.345  30.272   8.505
 2363POPC   C3B33885  12.379  30.323   8.074
 2363POPC   C4B33886  12.145  30.179   7.687
 2364POPC   NC333887  28.328   9.726   9.527
 2364POPC   PO433888  28.846   9.431   9.212
 2364POPC   GL133889  28.508   9.588   9.020
 2364POPC   GL233890  28.152   9.544   9.091
 2364POPC   C1A33891  28.456   9.474   8.590
 2364POPC   D2A33892  28.682   9.306   8.230
 2364POPC   C3A33893  28.510   9.506   7.892
 2364POPC   C4A33894  28.438   9.950   7.848
 2364POPC   C1B33895  28.183   9.868   8.770
 2364POPC   C2B33896  28.179   9.915   8.330
 2364POPC   C3B33897  28.015   9.704   7.975
 2364POPC   C4B33898  28.104   9.687   7.522
 2365POPC   NC333899   4.346  42.796   9.624
 2365POPC   PO433900   4.257  43.402   9.427
 2365POPC   GL133901   4.162  43.150   9.106
 2365POPC   GL233902   4.213  42.820   9.141
 2365POPC   C1A33903   4.342  43.262   8.718
 2365POPC   D2A33904   4.609  43.186   8.392
 2365POPC   C3A33905   4.388  43.330   8.027
 2365POPC   C4A33906   4.086  43.638   7.867
 2365POPC   C1B33907   4.037  42.819   8.745
 2365POPC   C2B33908   4.120  42.977   8.361
 2365POPC   C3B33909   4.280  42.845   8.003
 2365POPC   C4B33910   4.675  42.928   7.794
 2366POPC   NC333911  31.909  23.201   9.483
 2366POPC   PO433912  32.307  22.638   9.413
 2366POPC   GL133913  32.016  22.632   9.038
 2366POPC   GL233914  32.051  22.981   9.036
 2366POPC   C1A33915  32.061  22.714   8.578
 2366POPC   D2A33916  32.435  22.918   8.336
 2366POPC   C3A33917  32.606  22.706   7.952
 2366POPC   C4A33918  32.476  22.569   7.547
 2366POPC   C1B33919  32.135  23.230   8.666
 2366POPC   C2B33920  31.977  23.153   8.273
 2366POPC   C3B33921  32.226  23.116   7.898
 2366POPC   C4B33922  32.425  23.485   7.793
 2367POPC   NC333923  30.629  36.436   9.784
 2367POPC   PO433924  30.782  37.076   9.613
 2367POPC   GL133925  30.824  36.927   9.133
 2367POPC   GL233926  30.520  36.829   8.942
 2367POPC   C1A33927  30.972  36.984   8.710
 2367POPC   D2A33928  30.809  37.154   8.341
 2367POPC   C3A33929  30.923  37.004   7.962
 2367POPC   C4A33930  30.756  37.009   7.590
 2367POPC   C1B33931  30.704  36.533   8.657
 2367POPC   C2B33932  30.832  36.567   8.236
 2367POPC   C3B33933  30.621  36.464   7.844
 2367POPC   C4B33934  30.649  36.548   7.395
 2368POPC   NC333935  21.602  26.124   9.626
 2368POPC   PO433936  21.300  25.629   9.690
 2368POPC   GL133937  21.401  25.816   9.225
 2368POPC   GL233938  21.513  26.184   9.129
 2368POPC   C1A33939  21.435  25.862   8.749
 2368POPC   D2A33940  21.591  26.089   8.380
 2368POPC   C3A33941  21.557  25.915   7.963
 2368POPC   C4A33942  21.246  25.986   7.669
 2368POPC   C1B33943  21.139  26.289   8.860
 2368POPC   C2B33944  21.066  26.414   8.450
 2368POPC   C3B33945  21.192  26.347   8.032
 2368POPC   C4B33946  20.947  26.441   7.686
 2369POPC   NC333947  20.304  44.435   9.557
 2369POPC   PO433948  20.875  44.830   9.555
 2369POPC   GL133949  20.547  44.765   9.204
 2369POPC   GL233950  20.349   0.039   9.086
 2369POPC   C1A33951  20.372  44.542   8.826
 2369POPC   D2A33952  20.505  44.284   8.458
 2369POPC   C3A33953  20.457  44.471   8.055
 2369POPC   C4A33954  20.793  44.553   7.776
 2369POPC   C1B33955  20.163  44.997   8.701
 2369POPC   C2B33956  20.433  44.904   8.375
 2369POPC   C3B33957  20.733  44.986   8.066
 2369POPC   C4B33958  20.420  44.937   7.787
 2370POPC   NC333959  21.955  10.330   9.378
 2370POPC   PO433960  21.602  10.830   9.716
 2370POPC   GL133961  21.481  10.541   9.336
 2370POPC   GL233962  21.206  10.673   9.156
 2370POPC   C1A33963  21.548  10.518   8.832
 2370POPC   D2A33964  21.305  10.629   8.416
 2370POPC   C3A33965  21.393  10.763   7.974
 2370POPC   C4A33966  21.544  10.560   7.586
 2370POPC   C1B33967  21.032  10.434   8.798
 2370POPC   C2B33968  20.809  10.394   8.406
 2370POPC   C3B33969  20.986  10.472   8.023
 2370POPC   C4B33970  20.932  10.597   7.585
 2371POPC   NC333971   9.099   8.762   9.507
 2371POPC   PO433972   8.563   9.089   9.296
 2371POPC   GL133973   8.903   8.931   9.039
 2371POPC   GL233974   9.180   9.082   9.086
 2371POPC   C1A33975   9.199   8.823   8.668
 2371POPC   D2A33976   9.202   8.622   8.267
 2371POPC   C3A33977   8.997   8.873   7.941
 2371POPC   C4A33978   8.673   9.223   7.935
 2371POPC   C1B33979   9.058   9.344   8.734
 2371POPC   C2B33980   9.179   9.268   8.303
 2371POPC   C3B33981   9.157   9.339   7.865
 2371POPC   C4B33982   9.335   9.080   7.562
 2372POPC   NC333983  27.032  18.424   9.613
 2372POPC   PO433984  26.610  17.882   9.497
 2372POPC   GL133985  26.624  18.025   9.098
 2372POPC   GL233986  26.327  17.831   9.051
 2372POPC   C1A33987  26.911  18.095   8.717
 2372POPC   D2A33988  27.101  18.028   8.288
 2372POPC   C3A33989  26.991  18.368   7.999
 2372POPC   C4A33990  26.629  18.534   7.792
 2372POPC   C1B33991  26.395  18.015   8.648
 2372POPC   C2B33992  26.605  18.172   8.297
 2372POPC   C3B33993  26.701  17.973   7.918
 2372POPC   C4B33994  26.430  18.026   7.635
 2373POPC   NC333995  11.137  28.021   9.684
 2373POPC   PO433996  11.429  28.600   9.502
 2373POPC   GL133997  11.284  28.385   9.104
 2373POPC   GL233998  11.343  28.028   9.050
 2373POPC   C1A33999  11.433  28.417   8.668
 2373POPC   D2A34000  11.605  28.373   8.247
 2373POPC   C3A34001  11.300  28.352   7.871
 2373POPC   C4A34002  11.056  28.330   7.509
 2373POPC   C1B34003  11.068  28.060   8.668
 2373POPC   C2B34004  11.104  28.189   8.305
 2373POPC   C3B34005  10.975  27.941   8.002
 2373POPC   C4B34006  11.097  27.840   7.629
 2374POPC   NC334007  10.450  36.083   9.533
 2374POPC   PO434008  10.123  36.702   9.335
 2374POPC   GL134009  10.350  36.344   9.105
 2374POPC   GL234010  10.429  35.970   9.053
 2374POPC   C1A34011  10.555  36.316   8.697
 2374POPC   D2A34012  10.334  36.290   8.290
 2374POPC   C3A34013  10.586  36.281   7.900
 2374POPC   C4A34014  10.593  36.324   7.433
 2374POPC   C1B34015  10.367  35.758   8.689
 2374POPC   C2B34016  10.554  35.811   8.305
 2374POPC   C3B34017  10.610  35.774   7.854
 2374POPC   C4B34018  10.331  35.908   7.521
 2375POPC   NC334019  40.194  39.540   9.421
 2375POPC   PO434020  39.803  39.030   9.535
 2375POPC   GL134021  39.885  39.209   9.147
 2375POPC   GL234022  39.574  39.140   9.022
 2375POPC   C1A34023  40.086  39.353   8.765
 2375POPC   D2A34024  40.003  39.383   8.335
 2375POPC   C3A34025  40.188  39.246   7.986
 2375POPC   C4A34026  40.597  39.297   7.827
 2375POPC   C1B34027  39.651  39.080   8.565
 2375POPC   C2B34028  39.678  39.079   8.082
 2375POPC   C3B34029  39.840  38.949   7.691
 2375POPC   C4B34030  39.913  38.879   7.267
 2376POPC   NC334031   9.029  22.355   9.719
 2376POPC   PO434032   9.388  21.963   9.350
 2376POPC   GL134033   9.044  22.035   9.078
 2376POPC   GL234034   8.882  22.381   9.168
 2376POPC   C1A34035   8.839  21.835   8.691
 2376POPC   D2A34036   8.612  21.927   8.285
 2376POPC   C3A34037   8.813  22.114   7.958
 2376POPC   C4A34038   9.230  21.994   7.810
 2376POPC   C1B34039   9.115  22.433   8.770
 2376POPC   C2B34040   9.171  22.208   8.384
 2376POPC   C3B34041   9.165  22.474   8.037
 2376POPC   C4B34042   9.059  22.457   7.654
 2377POPC   NC334043  11.561  18.023   9.484
 2377POPC   PO434044  11.179  17.439   9.372
 2377POPC   GL134045  11.446  17.606   9.113
 2377POPC   GL234046  11.768  17.564   9.288
 2377POPC   C1A34047  11.375  17.578   8.671
 2377POPC   D2A34048  11.130  17.716   8.335
 2377POPC   C3A34049  11.188  17.414   8.059
 2377POPC   C4A34050  11.132  17.268   7.692
 2377POPC   C1B34051  11.867  17.516   8.845
 2377POPC   C2B34052  11.885  17.653   8.425
 2377POPC   C3B34053  11.635  17.691   8.061
 2377POPC   C4B34054  11.580  17.546   7.674
 2378POPC   NC334055  35.560  15.670   9.421
 2378POPC   PO434056  35.264  16.288   9.437
 2378POPC   GL134057  35.257  15.975   9.153
 2378POPC   GL234058  35.600  16.035   9.055
 2378POPC   C1A34059  35.154  15.989   8.751
 2378POPC   D2A34060  35.035  16.279   8.424
 2378POPC   C3A34061  34.998  16.043   8.047
 2378POPC   C4A34062  35.085  16.151   7.617
 2378POPC   C1B34063  35.641  15.833   8.682
 2378POPC   C2B34064  35.416  15.899   8.306
 2378POPC   C3B34065  35.456  15.849   7.868
 2378POPC   C4B34066  35.604  16.063   7.487
 2379POPC   NC334067   9.761  25.041   9.659
 2379POPC   PO434068  10.174  25.343   9.194
 2379POPC   GL134069   9.882  25.063   8.959
 2379POPC   GL234070   9.587  25.068   9.170
 2379POPC   C1A34071   9.752  24.999   8.527
 2379POPC   D2A34072   9.647  25.362   8.288
 2379POPC   C3A34073   9.809  25.426   7.882
 2379POPC   C4A34074  10.051  25.169   7.585
 2379POPC   C1B34075   9.327  24.875   8.866
 2379POPC   C2B34076   9.251  24.993   8.446
 2379POPC   C3B34077   9.338  24.822   8.047
 2379POPC   C4B34078   9.505  25.061   7.696
 2380POPC   NC334079  25.865  12.613   9.533
 2380POPC   PO434080  25.751  13.321   9.498
 2380POPC   GL134081  26.036  13.097   9.229
 2380POPC   GL234082  26.028  12.794   9.094
 2380POPC   C1A34083  26.164  13.144   8.785
 2380POPC   D2A34084  26.000  12.881   8.465
 2380POPC   C3A34085  25.858  13.002   8.050
 2380POPC   C4A34086  25.809  13.052   7.600
 2380POPC   C1B34087  25.794  12.552   8.870
 2380POPC   C2B34088  25.963  12.376   8.520
 2380POPC   C3B34089  26.042  12.509   8.101
 2380POPC   C4B34090  25.753  12.563   7.764
 2381POPC   NC334091   2.416  28.760   9.616
 2381POPC   PO434092   2.889  29.256   9.471
 2381POPC   GL134093   2.829  29.177   9.075
 2381POPC   GL234094   2.628  28.915   9.149
 2381POPC   C1A34095   2.600  29.249   8.704
 2381POPC   D2A34096   2.803  29.364   8.324
 2381POPC   C3A34097   2.516  29.289   7.990
 2381POPC   C4A34098   2.530  29.012   7.649
 2381POPC   C1B34099   2.791  28.773   8.760
 2381POPC   C2B34100   2.613  28.827   8.374
 2381POPC   C3B34101   2.819  28.841   8.038
 2381POPC   C4B34102   3.069  28.769   7.700
 2382POPC   NC334103   9.169  44.031   9.699
 2382POPC   PO434104   8.754  43.600   9.414
 2382POPC   GL134105   8.824  43.860   9.102
 2382POPC   GL234106   9.082  44.120   9.149
 2382POPC   C1A34107   8.885  43.724   8.695
 2382POPC   D2A34108   8.725  43.829   8.315
 2382POPC   C3A34109   9.111  43.890   8.111
 2382POPC   C4A34110   9.223  43.784   7.705
 2382POPC   C1B34111   8.812  44.219   8.749
 2382POPC   C2B34112   8.816  44.326   8.297
 2382POPC   C3B34113   8.782  44.161   7.842
 2382POPC   C4B34114   8.975  44.092   7.389
 2383POPC   NC334115  16.206  37.761   9.431
 2383POPC   PO434116  15.510  37.804   9.530
 2383POPC   GL134117  15.741  37.721   9.159
 2383POPC   GL234118  15.944  37.397   9.165
 2383POPC   C1A34119  15.972  37.760   8.777
 2383POPC   D2A34120  16.103  37.532   8.432
 2383POPC   C3A34121  15.980  37.764   8.068
 2383POPC   C4A34122  16.172  37.698   7.694
 2383POPC   C1B34123  15.740  37.263   8.766
 2383POPC   C2B34124  15.642  37.304   8.303
 2383POPC   C3B34125  15.774  37.336   7.843
 2383POPC   C4B34126  15.749  37.208   7.379
 2384POPC   NC334127  19.542  10.751   9.460
 2384POPC   PO434128  20.199  10.432   9.364
 2384POPC   GL134129  19.860  10.513   9.124
 2384POPC   GL234130  19.947  10.872   9.134
 2384POPC   C1A34131  19.662  10.369   8.749
 2384POPC   D2A34132  19.893  10.302   8.392
 2384POPC   C3A34133  19.751  10.370   7.960
 2384POPC   C4A34134  19.543  10.327   7.582
 2384POPC   C1B34135  20.002  10.748   8.693
 2384POPC   C2B34136  19.841  10.780   8.253
 2384POPC   C3B34137  20.078  10.760   7.842
 2384POPC   C4B34138  20.036  10.833   7.380
 2385POPC   NC334139  35.759   3.792   9.488
 2385POPC   PO434140  35.234   3.556   9.717
 2385POPC   GL134141  35.323   3.561   9.254
 2385POPC   GL234142  35.553   3.332   9.154
 2385POPC   C1A34143  35.367   3.722   8.802
 2385POPC   D2A34144  35.399   3.775   8.332
 2385POPC   C3A34145  35.402   3.589   7.890
 2385POPC   C4A34146  35.622   3.729   7.463
 2385POPC   C1B34147  35.385   3.212   8.781
 2385POPC   C2B34148  35.496   3.264   8.381
 2385POPC   C3B34149  35.460   3.074   8.008
 2385POPC   C4B34150  35.356   3.151   7.612
 2386POPC   NC334151  22.499  42.248   9.480
 2386POPC   PO434152  22.020  42.766   9.526
 2386POPC   GL134153  22.190  42.542   9.128
 2386POPC   GL234154  22.171  42.139   9.098
 2386POPC   C1A34155  22.142  42.424   8.678
 2386POPC   D2A34156  22.196  42.042   8.436
 2386POPC   C3A34157  22.033  42.108   8.041
 2386POPC   C4A34158  22.099  42.471   7.864
 2386POPC   C1B34159  22.573  42.193   8.837
 2386POPC   C2B34160  22.629  42.372   8.432
 2386POPC   C3B34161  22.545  42.151   8.058
 2386POPC   C4B34162  22.653  42.202   7.665
 2387POPC   NC334163  33.085  30.258   9.914
 2387POPC   PO434164  32.959  29.720   9.492
 2387POPC   GL134165  33.120  29.961   9.183
 2387POPC   GL234166  32.809  29.871   8.992
 2387POPC   C1A34167  33.216  30.095   8.769
 2387POPC   D2A34168  32.915  29.962   8.477
 2387POPC   C3A34169  33.043  30.066   8.088
 2387POPC   C4A34170  33.338  30.309   7.839
 2387POPC   C1B34171  33.134  29.596   8.790
 2387POPC   C2B34172  33.263  29.546   8.350
 2387POPC   C3B34173  33.099  29.590   7.929
 2387POPC   C4B34174  32.983  29.453   7.530
 2388POPC   NC334175  40.663  31.762   9.398
 2388POPC   PO434176  40.152  31.314   9.548
 2388POPC   GL134177  40.575  31.264   9.275
 2388POPC   GL234178  40.963  31.211   9.270
 2388POPC   C1A34179  40.578  31.278   8.811
 2388POPC   D2A34180  40.364  31.476   8.453
 2388POPC   C3A34181  40.462  31.358   8.032
 2388POPC   C4A34182  40.637  31.637   7.740
 2388POPC   C1B34183  41.084  31.248   8.815
 2388POPC   C2B34184  40.916  31.294   8.370
 2388POPC   C3B34185  41.054  31.352   7.931
 2388POPC   C4B34186  41.196  31.642   7.586
 2389POPC   NC334187  24.678  31.642   9.490
 2389POPC   PO434188  24.156  31.808   9.371
 2389POPC   GL134189  24.382  31.532   9.094
 2389POPC   GL234190  24.463  31.807   8.899
 2389POPC   C1A34191  24.641  31.338   8.788
 2389POPC   D2A34192  24.544  31.431   8.385
 2389POPC   C3A34193  24.478  31.245   7.987
 2389POPC   C4A34194  24.608  31.346   7.547
 2389POPC   C1B34195  24.135  31.702   8.600
 2389POPC   C2B34196  24.098  31.516   8.185
 2389POPC   C3B34197  24.266  31.661   7.774
 2389POPC   C4B34198  24.082  31.871   7.423
 2390POPC   NC334199  22.775  11.713   9.515
 2390POPC   PO434200  23.369  12.029   9.299
 2390POPC   GL134201  22.963  12.032   9.103
 2390POPC   GL234202  22.712  11.746   9.014
 2390POPC   C1A34203  22.999  12.160   8.699
 2390POPC   D2A34204  23.228  12.105   8.330
 2390POPC   C3A34205  22.988  12.296   8.055
 2390POPC   C4A34206  22.934  12.210   7.662
 2390POPC   C1B34207  22.855  11.673   8.627
 2390POPC   C2B34208  22.745  11.913   8.305
 2390POPC   C3B34209  22.632  11.858   7.913
 2390POPC   C4B34210  22.449  11.606   7.606
 2391POPC   NC334211  24.116  28.383   9.456
 2391POPC   PO434212  24.524  28.698   9.214
 2391POPC   GL134213  24.506  28.314   8.999
 2391POPC   GL234214  24.185  28.317   8.953
 2391POPC   C1A34215  24.598  28.236   8.548
 2391POPC   D2A34216  24.521  28.496   8.166
 2391POPC   C3A34217  24.696  28.424   7.737
 2391POPC   C4A34218  24.521  28.527   7.331
 2391POPC   C1B34219  24.097  28.264   8.517
 2391POPC   C2B34220  24.251  28.064   8.153
 2391POPC   C3B34221  24.214  28.273   7.755
 2391POPC   C4B34222  24.202  28.115   7.327
 2392POPC   NC334223   8.391  20.854   9.523
 2392POPC   PO434224   8.405  21.511   9.363
 2392POPC   GL134225   8.204  21.475   9.032
 2392POPC   GL234226   8.082  21.122   9.073
 2392POPC   C1A34227   8.281  21.683   8.664
 2392POPC   D2A34228   8.432  21.464   8.306
 2392POPC   C3A34229   8.277  21.571   7.875
 2392POPC   C4A34230   8.371  21.526   7.386
 2392POPC   C1B34231   8.143  21.151   8.610
 2392POPC   C2B34232   8.148  21.101   8.130
 2392POPC   C3B34233   8.191  21.096   7.672
 2392POPC   C4B34234   8.050  20.860   7.280
 2393POPC   NC334235   2.503  12.225   9.550
 2393POPC   PO434236   3.052  11.903   9.272
 2393POPC   GL134237   2.644  11.976   9.129
 2393POPC   GL234238   2.716  11.679   8.978
 2393POPC   C1A34239   2.552  12.320   8.876
 2393POPC   D2A34240   2.621  12.099   8.512
 2393POPC   C3A34241   2.944  12.210   8.210
 2393POPC   C4A34242   2.895  12.236   7.764
 2393POPC   C1B34243   2.474  11.620   8.710
 2393POPC   C2B34244   2.358  11.674   8.356
 2393POPC   C3B34245   2.566  11.893   8.059
 2393POPC   C4B34246   2.542  11.844   7.665
 2394POPC   NC334247   1.599  12.647   9.490
 2394POPC   PO434248   1.057  13.083   9.631
 2394POPC   GL134249   1.055  13.003   9.165
 2394POPC   GL234250   1.371  12.842   9.094
 2394POPC   C1A34251   1.022  12.805   8.723
 2394POPC   D2A34252   1.224  12.627   8.345
 2394POPC   C3A34253   1.172  12.871   7.974
 2394POPC   C4A34254   0.890  13.203   7.873
 2394POPC   C1B34255   1.560  12.785   8.702
 2394POPC   C2B34256   1.564  13.018   8.316
 2394POPC   C3B34257   1.697  12.948   7.884
 2394POPC   C4B34258   1.450  12.716   7.578
 2395POPC   NC334259  17.047  43.366   9.566
 2395POPC   PO434260  16.615  42.802   9.526
 2395POPC   GL134261  16.609  42.921   9.125
 2395POPC   GL234262  16.772  43.221   9.177
 2395POPC   C1A34263  16.564  43.150   8.743
 2395POPC   D2A34264  16.836  43.203   8.418
 2395POPC   C3A34265  16.664  43.246   8.082
 2395POPC   C4A34266  16.704  43.151   7.702
 2395POPC   C1B34267  17.039  43.410   8.831
 2395POPC   C2B34268  17.179  43.573   8.407
 2395POPC   C3B34269  17.120  43.413   7.988
 2395POPC   C4B34270  17.123  43.410   7.518
 2396POPC   NC334271  33.365  35.599   9.480
 2396POPC   PO434272  33.172  36.250   9.447
 2396POPC   GL134273  33.159  35.951   9.103
 2396POPC   GL234274  33.155  36.249   8.928
 2396POPC   C1A34275  33.313  35.870   8.644
 2396POPC   D2A34276  33.266  35.902   8.195
 2396POPC   C3A34277  32.861  35.971   8.000
 2396POPC   C4A34278  32.728  36.155   7.651
 2396POPC   C1B34279  33.114  36.549   8.629
 2396POPC   C2B34280  32.931  36.374   8.291
 2396POPC   C3B34281  33.024  36.481   7.889
 2396POPC   C4B34282  32.776  36.650   7.534
 2397POPC   NC334283  29.799   5.352   9.435
 2397POPC   PO434284  30.061   4.783   9.725
 2397POPC   GL134285  30.189   4.961   9.295
 2397POPC   GL234286  29.883   5.046   9.060
 2397POPC   C1A34287  30.279   4.919   8.815
 2397POPC   D2A34288  30.071   5.205   8.472
 2397POPC   C3A34289  30.150   5.195   8.012
 2397POPC   C4A34290  30.067   5.030   7.573
 2397POPC   C1B34291  29.620   5.239   8.721
 2397POPC   C2B34292  29.605   5.201   8.244
 2397POPC   C3B34293  29.664   5.433   7.847
 2397POPC   C4B34294  29.685   5.375   7.375
 2398POPC   NC334295  36.710  25.852   9.314
 2398POPC   PO434296  37.210  26.194   9.503
 2398POPC   GL134297  36.987  26.216   9.107
 2398POPC   GL234298  36.626  26.306   9.079
 2398POPC   C1A34299  36.905  26.038   8.682
 2398POPC   D2A34300  36.864  25.984   8.228
 2398POPC   C3A34301  37.203  26.076   7.919
 2398POPC   C4A34302  36.975  25.980   7.528
 2398POPC   C1B34303  36.488  26.310   8.649
 2398POPC   C2B34304  36.564  26.437   8.228
 2398POPC   C3B34305  36.604  26.222   7.825
 2398POPC   C4B34306  36.537  26.227   7.373
 2399POPC   NC334307  37.947  36.574   9.456
 2399POPC   PO434308  37.368  36.805   9.457
 2399POPC   GL134309  37.440  36.459   9.119
 2399POPC   GL234310  37.197  36.654   8.991
 2399POPC   C1A34311  37.560  36.166   8.721
 2399POPC   D2A34312  37.719  35.980   8.291
 2399POPC   C3A34313  37.769  36.001   7.821
 2399POPC   C4A34314  37.574  35.673   7.536
 2399POPC   C1B34315  37.479  36.659   8.621
 2399POPC   C2B34316  37.435  36.438   8.205
 2399POPC   C3B34317  37.582  36.489   7.763
 2399POPC   C4B34318  37.715  36.480   7.326
 2400POPC   NC334319  10.258  30.609   9.596
 2400POPC   PO434320  10.825  31.040   9.519
 2400POPC   GL134321  10.576  30.797   9.264
 2400POPC   GL234322  10.771  30.502   9.289
 2400POPC   C1A34323  10.300  30.748   8.897
 2400POPC   D2A34324  10.242  30.593   8.471
 2400POPC   C3A34325  10.278  30.828   8.147
 2400POPC   C4A34326  10.464  30.822   7.772
 2400POPC   C1B34327  10.851  30.714   8.865
 2400POPC   C2B34328  10.771  30.709   8.418
 2400POPC   C3B34329  10.943  30.776   8.019
 2400POPC   C4B34330  10.885  30.628   7.601
 2401POPC   NC334331   1.130  10.348   9.511
 2401POPC   PO434332   1.561  10.843   9.422
 2401POPC   GL134333   1.390  10.567   9.122
 2401POPC   GL234334   1.107  10.735   9.084
 2401POPC   C1A34335   1.244  10.459   8.696
 2401POPC   D2A34336   1.505  10.618   8.380
 2401POPC   C3A34337   1.393  10.514   7.965
 2401POPC   C4A34338   1.455  10.713   7.585
 2401POPC   C1B34339   0.911  10.838   8.697
 2401POPC   C2B34340   0.987  10.633   8.276
 2401POPC   C3B34341   0.963  10.776   7.837
 2401POPC   C4B34342   0.662  10.631   7.533
 2402POPC   NC334343  40.290  12.273   9.524
 2402POPC   PO434344  40.059  11.566   9.410
 2402POPC   GL134345  40.187  11.925   9.151
 2402POPC   GL234346  39.903  12.184   9.162
 2402POPC   C1A34347  40.185  12.186   8.742
 2402POPC   D2A34348  40.233  12.015   8.334
 2402POPC   C3A34349  40.283  12.007   7.902
 2402POPC   C4A34350  39.952  12.273   7.876
 2402POPC   C1B34351  39.771  11.850   8.848
 2402POPC   C2B34352  39.637  11.679   8.465
 2402POPC   C3B34353  39.875  11.745   8.091
 2402POPC   C4B34354  39.769  11.767   7.684
 2403POPC   NC334355  35.775  16.436   9.361
 2403POPC   PO434356  36.311  16.889   9.391
 2403POPC   GL134357  36.390  16.761   8.991
 2403POPC   GL234358  36.071  16.588   8.963
 2403POPC   C1A34359  36.292  16.819   8.562
 2403POPC   D2A34360  35.938  16.622   8.419
 2403POPC   C3A34361  36.021  16.509   7.982
 2403POPC   C4A34362  36.260  16.787   7.717
 2403POPC   C1B34363  35.887  16.994   8.814
 2403POPC   C2B34364  35.766  17.149   8.437
 2403POPC   C3B34365  35.828  16.966   8.059
 2403POPC   C4B34366  35.822  17.028   7.674
 2404POPC   NC334367   9.858  11.777   9.401
 2404POPC   PO434368   9.610  11.128   9.453
 2404POPC   GL134369   9.723  11.351   9.119
 2404POPC   GL234370  10.066  11.357   9.089
 2404POPC   C1A34371   9.600  11.248   8.715
 2404POPC   D2A34372   9.291  11.225   8.396
 2404POPC   C3A34373   9.500  11.169   8.004
 2404POPC   C4A34374   9.666  11.471   7.723
 2404POPC   C1B34375  10.030  11.574   8.713
 2404POPC   C2B34376   9.921  11.663   8.270
 2404POPC   C3B34377  10.138  11.578   7.877
 2404POPC   C4B34378  10.101  11.349   7.465
 2405POPC   NC334379  31.675  23.977   9.526
 2405POPC   PO434380  31.462  23.346   9.411
 2405POPC   GL134381  31.207  23.558   9.122
 2405POPC   GL234382  31.202  23.917   9.252
 2405POPC   C1A34383  31.288  23.425   8.689
 2405POPC   D2A34384  31.476  23.291   8.306
 2405POPC   C3A34385  31.390  23.506   7.947
 2405POPC   C4A34386  31.595  23.562   7.543
 2405POPC   C1B34387  31.262  23.940   8.801
 2405POPC   C2B34388  31.263  23.826   8.364
 2405POPC   C3B34389  31.592  23.956   8.081
 2405POPC   C4B34390  31.625  24.078   7.669
 2406POPC   NC334391   7.810   1.117   9.426
 2406POPC   PO434392   8.405   1.331   9.698
 2406POPC   GL134393   8.285   1.208   9.282
 2406POPC   GL234394   8.272   0.871   9.257
 2406POPC   C1A34395   8.138   1.199   8.853
 2406POPC   D2A34396   8.312   1.281   8.454
 2406POPC   C3A34397   8.157   1.462   8.094
 2406POPC   C4A34398   7.929   1.409   7.690
 2406POPC   C1B34399   8.575   0.937   8.943
 2406POPC   C2B34400   8.623   0.914   8.506
 2406POPC   C3B34401   8.468   0.926   8.097
 2406POPC   C4B34402   8.360   1.150   7.734
 2407POPC   NC334403  36.453  35.767   9.452
 2407POPC   PO434404  36.495  36.363   9.374
 2407POPC   GL134405  36.100  36.327   9.141
 2407POPC   GL234406  36.025  35.944   9.165
 2407POPC   C1A34407  35.843  36.196   8.762
 2407POPC   D2A34408  35.924  35.872   8.449
 2407POPC   C3A34409  36.030  36.074   8.078
 2407POPC   C4A34410  35.716  36.221   7.835
 2407POPC   C1B34411  36.319  36.001   8.812
 2407POPC   C2B34412  36.425  35.801   8.427
 2407POPC   C3B34413  36.426  35.755   8.024
 2407POPC   C4B34414  36.546  35.509   7.702
 2408POPC   NC334415  31.832  43.997   9.593
 2408POPC   PO434416  31.295  44.216   9.514
 2408POPC   GL134417  31.552  44.116   9.160
 2408POPC   GL234418  31.715  43.761   9.141
 2408POPC   C1A34419  31.399  44.021   8.751
 2408POPC   D2A34420  31.244  43.874   8.383
 2408POPC   C3A34421  31.392  44.005   8.011
 2408POPC   C4A34422  31.361  44.172   7.616
 2408POPC   C1B34423  31.556  43.536   8.767
 2408POPC   C2B34424  31.520  43.377   8.348
 2408POPC   C3B34425  31.558  43.492   7.917
 2408POPC   C4B34426  31.325  43.669   7.596
 2409POPC   NC334427  24.804  18.454   9.438
 2409POPC   PO434428  25.503  18.412   9.586
 2409POPC   GL134429  25.265  18.356   9.165
 2409POPC   GL234430  25.444  18.060   8.990
 2409POPC   C1A34431  25.102  18.295   8.734
 2409POPC   D2A34432  25.268  18.008   8.407
 2409POPC   C3A34433  25.098  18.153   8.033
 2409POPC   C4A34434  24.975  18.480   7.746
 2409POPC   C1B34435  25.619  18.315   8.641
 2409POPC   C2B34436  25.777  18.511   8.272
 2409POPC   C3B34437  25.704  18.493   7.844
 2409POPC   C4B34438  25.442  18.194   7.659
 2410POPC   NC334439  24.161  15.533   9.538
 2410POPC   PO434440  23.661  15.132   9.491
 2410POPC   GL134441  23.777  15.073   9.087
 2410POPC   GL234442  23.909  15.399   9.116
 2410POPC   C1A34443  23.682  14.863   8.699
 2410POPC   D2A34444  23.798  15.122   8.381
 2410POPC   C3A34445  23.524  15.303   8.101
 2410POPC   C4A34446  23.530  15.148   7.716
 2410POPC   C1B34447  24.136  15.364   8.754
 2410POPC   C2B34448  24.267  15.282   8.361
 2410POPC   C3B34449  24.047  15.346   7.961
 2410POPC   C4B34450  24.293  15.573   7.689
 2411POPC   NC334451  22.270  26.994   9.703
 2411POPC   PO434452  21.819  26.525   9.668
 2411POPC   GL134453  21.812  26.802   9.273
 2411POPC   GL234454  22.180  26.847   9.203
 2411POPC   C1A34455  21.912  26.801   8.795
 2411POPC   D2A34456  22.087  26.496   8.530
 2411POPC   C3A34457  21.980  26.601   8.111
 2411POPC   C4A34458  22.236  26.468   7.795
 2411POPC   C1B34459  22.366  27.011   8.770
 2411POPC   C2B34460  22.400  26.854   8.306
 2411POPC   C3B34461  22.274  26.988   7.906
 2411POPC   C4B34462  22.560  27.183   7.676
 2412POPC   NC334463   3.399  12.155   9.442
 2412POPC   PO434464   3.122  11.685   9.792
 2412POPC   GL134465   3.500  11.687   9.328
 2412POPC   GL234466   3.823  11.915   9.282
 2412POPC   C1A34467   3.593  11.760   8.856
 2412POPC   D2A34468   3.329  11.972   8.537
 2412POPC   C3A34469   3.461  11.996   8.109
 2412POPC   C4A34470   3.350  12.028   7.690
 2412POPC   C1B34471   3.879  12.211   8.918
 2412POPC   C2B34472   3.838  12.164   8.450
 2412POPC   C3B34473   3.942  12.129   7.992
 2412POPC   C4B34474   3.791  12.282   7.574
 2413POPC   NC334475  39.795  43.589   9.344
 2413POPC   PO434476  39.639  44.225   9.399
 2413POPC   GL134477  39.937  44.161   9.098
 2413POPC   GL234478  40.178  43.915   9.210
 2413POPC   C1A34479  39.954  43.969   8.716
 2413POPC   D2A34480  39.781  44.020   8.326
 2413POPC   C3A34481  40.017  43.936   7.974
 2413POPC   C4A34482  39.865  44.108   7.581
 2413POPC   C1B34483  40.389  43.719   8.829
 2413POPC   C2B34484  40.419  43.514   8.367
 2413POPC   C3B34485  40.415  43.508   7.902
 2413POPC   C4B34486  40.125  43.661   7.559
 2414POPC   NC334487  34.884  39.767   9.403
 2414POPC   PO434488  34.683  40.432   9.397
 2414POPC   GL134489  34.665  40.115   9.057
 2414POPC   GL234490  34.411  39.849   9.059
 2414POPC   C1A34491  34.597  40.033   8.615
 2414POPC   D2A34492  34.528  40.281   8.281
 2414POPC   C3A34493  34.654  40.162   7.866
 2414POPC   C4A34494  34.757  40.347   7.476
 2414POPC   C1B34495  34.713  39.562   8.796
 2414POPC   C2B34496  34.767  39.553   8.355
 2414POPC   C3B34497  34.441  39.791   8.152
 2414POPC   C4B34498  34.273  39.831   7.734
 2415POPC   NC334499  39.520   4.793   9.434
 2415POPC   PO434500  39.255   5.339   9.665
 2415POPC   GL134501  39.185   5.172   9.236
 2415POPC   GL234502  39.085   4.840   9.201
 2415POPC   C1A34503  39.347   5.072   8.812
 2415POPC   D2A34504  39.336   5.259   8.417
 2415POPC   C3A34505  39.464   5.010   8.071
 2415POPC   C4A34506  39.281   5.185   7.679
 2415POPC   C1B34507  38.851   4.984   8.869
 2415POPC   C2B34508  38.963   4.899   8.446
 2415POPC   C3B34509  38.963   5.088   8.080
 2415POPC   C4B34510  38.856   4.888   7.723
 2416POPC   NC334511  38.189  32.838   9.402
 2416POPC   PO434512  38.479  32.384   9.742
 2416POPC   GL134513  38.488  32.334   9.260
 2416POPC   GL234514  38.157  32.405   9.148
 2416POPC   C1A34515  38.590  32.287   8.802
 2416POPC   D2A34516  38.706  32.216   8.352
 2416POPC   C3A34517  38.438  31.931   8.107
 2416POPC   C4A34518  38.324  31.974   7.693
 2416POPC   C1B34519  38.116  32.472   8.731
 2416POPC   C2B34520  38.185  32.305   8.349
 2416POPC   C3B34521  38.324  32.431   7.956
 2416POPC   C4B34522  38.115  32.420   7.571
 2417POPC   NC334523  21.861  11.310   9.553
 2417POPC   PO434524  22.229  10.751   9.625
 2417POPC   GL134525  22.366  11.062   9.260
 2417POPC   GL234526  22.345  11.420   9.236
 2417POPC   C1A34527  22.305  11.128   8.808
 2417POPC   D2A34528  22.118  11.078   8.382
 2417POPC   C3A34529  22.364  11.178   8.022
 2417POPC   C4A34530  22.228  11.151   7.604
 2417POPC   C1B34531  21.961  11.493   8.929
 2417POPC   C2B34532  21.873  11.546   8.489
 2417POPC   C3B34533  21.923  11.451   8.041
 2417POPC   C4B34534  21.763  11.597   7.650
 2418POPC   NC334535  35.558   0.542   9.530
 2418POPC   PO434536  35.581  44.942   9.202
 2418POPC   GL134537  35.600   0.342   9.043
 2418POPC   GL234538  35.274   0.409   9.114
 2418POPC   C1A34539  35.650   0.333   8.619
 2418POPC   D2A34540  35.392   0.239   8.293
 2418POPC   C3A34541  35.451   0.519   7.999
 2418POPC   C4A34542  35.634   0.433   7.635
 2418POPC   C1B34543  35.127   0.389   8.699
 2418POPC   C2B34544  35.106   0.707   8.360
 2418POPC   C3B34545  34.972   0.750   7.939
 2418POPC   C4B34546  35.104   0.453   7.616
 2419POPC   NC334547  19.363  36.639   9.473
 2419POPC   PO434548  19.002  37.177   9.507
 2419POPC   GL134549  18.985  36.891   9.201
 2419POPC   GL234550  18.633  36.807   9.201
 2419POPC   C1A34551  19.246  36.768   8.829
 2419POPC   D2A34552  19.424  36.817   8.419
 2419POPC   C3A34553  19.159  37.027   8.121
 2419POPC   C4A34554  19.183  37.003   7.677
 2419POPC   C1B34555  18.752  36.766   8.786
 2419POPC   C2B34556  18.723  36.840   8.403
 2419POPC   C3B34557  18.817  36.625   8.076
 2419POPC   C4B34558  18.713  36.887   7.784
 2420POPC   NC334559  25.059   6.314   9.574
 2420POPC   PO434560  25.014   5.689   9.711
 2420POPC   GL134561  25.219   5.816   9.298
 2420POPC   GL234562  25.535   5.637   9.272
 2420POPC   C1A34563  25.169   6.034   8.880
 2420POPC   D2A34564  24.898   6.197   8.532
 2420POPC   C3A34565  24.991   6.068   8.100
 2420POPC   C4A34566  25.110   5.631   7.964
 2420POPC   C1B34567  25.509   5.670   8.807
 2420POPC   C2B34568  25.345   5.847   8.398
 2420POPC   C3B34569  25.569   5.830   7.967
 2420POPC   C4B34570  25.779   6.002   7.619
 2421POPC   NC334571  18.009   0.303   9.573
 2421POPC   PO434572  18.572   0.120   9.257
 2421POPC   GL134573  18.361   0.487   9.112
 2421POPC   GL234574  18.019   0.516   9.115
 2421POPC   C1A34575  18.233   0.619   8.692
 2421POPC   D2A34576  18.272   0.526   8.298
 2421POPC   C3A34577  18.501   0.250   8.081
 2421POPC   C4A34578  18.335   0.494   7.759
 2421POPC   C1B34579  17.776   0.255   8.821
 2421POPC   C2B34580  17.694   0.356   8.428
 2421POPC   C3B34581  17.840   0.447   8.020
 2421POPC   C4B34582  17.726   0.248   7.666
 2422POPC   NC334583  39.439   1.116   9.543
 2422POPC   PO434584  38.777   1.259   9.478
 2422POPC   GL134585  39.106   1.315   9.160
 2422POPC   GL234586  39.430   1.514   9.168
 2422POPC   C1A34587  39.310   1.109   8.810
 2422POPC   D2A34588  39.386   0.911   8.390
 2422POPC   C3A34589  39.008   0.981   8.151
 2422POPC   C4A34590  39.047   0.993   7.722
 2422POPC   C1B34591  39.644   1.494   8.778
 2422POPC   C2B34592  39.428   1.425   8.396
 2422POPC   C3B34593  39.407   1.245   7.987
 2422POPC   C4B34594  39.326   1.449   7.582
 2423POPC   NC334595  22.057  35.641   9.500
 2423POPC   PO434596  22.190  36.253   9.473
 2423POPC   GL134597  21.952  36.215   9.141
 2423POPC   GL234598  21.750  36.517   9.092
 2423POPC   C1A34599  22.110  36.018   8.768
 2423POPC   D2A34600  22.413  35.958   8.437
 2423POPC   C3A34601  22.146  35.988   8.083
 2423POPC   C4A34602  22.195  35.944   7.635
 2423POPC   C1B34603  22.065  36.551   8.751
 2423POPC   C2B34604  22.255  36.451   8.320
 2423POPC   C3B34605  22.160  36.440   7.855
 2423POPC   C4B34606  21.985  36.377   7.424
 2424POPC   NC334607  14.513  15.561   9.521
 2424POPC   PO434608  14.389  16.307   9.514
 2424POPC   GL134609  14.409  15.987   9.236
 2424POPC   GL234610  14.756  15.911   9.230
 2424POPC   C1A34611  14.439  15.894   8.814
 2424POPC   D2A34612  14.308  16.052   8.423
 2424POPC   C3A34613  14.485  15.930   8.060
 2424POPC   C4A34614  14.383  15.820   7.659
 2424POPC   C1B34615  14.907  16.132   8.856
 2424POPC   C2B34616  14.762  16.258   8.476
 2424POPC   C3B34617  14.875  16.276   8.078
 2424POPC   C4B34618  14.619  16.324   7.736
 2425POPC   NC334619   5.299  30.076   9.506
 2425POPC   PO434620   5.241  29.414   9.664
 2425POPC   GL134621   5.212  29.660   9.240
 2425POPC   GL234622   4.879  29.886   9.250
 2425POPC   C1A34623   5.066  29.808   8.796
 2425POPC   D2A34624   5.104  30.154   8.508
 2425POPC   C3A34625   5.045  30.024   8.093
 2425POPC   C4A34626   5.004  29.774   7.712
 2425POPC   C1B34627   4.722  30.189   8.874
 2425POPC   C2B34628   4.584  30.167   8.420
 2425POPC   C3B34629   4.639  30.312   7.983
 2425POPC   C4B34630   4.969  30.300   7.664
 2426POPC   NC334631  37.182  21.827   9.363
 2426POPC   PO434632  36.613  22.242   9.463
 2426POPC   GL134633  36.809  22.084   9.126
 2426POPC   GL234634  37.009  22.361   9.113
 2426POPC   C1A34635  37.049  22.039   8.730
 2426POPC   D2A34636  37.064  21.762   8.407
 2426POPC   C3A34637  37.073  21.969   8.040
 2426POPC   C4A34638  36.910  21.872   7.669
 2426POPC   C1B34639  36.933  22.538   8.732
 2426POPC   C2B34640  37.115  22.423   8.358
 2426POPC   C3B34641  37.034  22.499   7.976
 2426POPC   C4B34642  37.098  22.369   7.581
 2427POPC   NC334643  21.937   5.026   9.663
 2427POPC   PO434644  22.366   5.446   9.469
 2427POPC   GL134645  22.033   5.231   9.191
 2427POPC   GL234646  21.879   4.851   9.190
 2427POPC   C1A34647  22.226   5.000   8.842
 2427POPC   D2A34648  22.420   5.055   8.469
 2427POPC   C3A34649  22.172   5.048   8.109
 2427POPC   C4A34650  22.310   5.039   7.721
 2427POPC   C1B34651  21.720   4.969   8.790
 2427POPC   C2B34652  21.713   4.940   8.363
 2427POPC   C3B34653  21.755   4.716   8.041
 2427POPC   C4B34654  21.785   4.953   7.730
 2428POPC   NC334655  13.473  35.386   9.458
 2428POPC   PO434656  14.140  35.515   9.321
 2428POPC   GL134657  13.749  35.556   9.075
 2428POPC   GL234658  13.645  35.224   8.993
 2428POPC   C1A34659  13.527  35.680   8.702
 2428POPC   D2A34660  13.753  35.660   8.310
 2428POPC   C3A34661  13.658  35.433   7.965
 2428POPC   C4A34662  13.574  35.687   7.651
 2428POPC   C1B34663  13.915  35.289   8.641
 2428POPC   C2B34664  13.944  35.058   8.239
 2428POPC   C3B34665  13.963  35.049   7.801
 2428POPC   C4B34666  13.786  35.082   7.437
 2429POPC   NC334667  22.873  16.089   9.333
 2429POPC   PO434668  23.254  15.691   9.730
 2429POPC   GL134669  23.066  15.597   9.298
 2429POPC   GL234670  23.279  15.810   9.179
 2429POPC   C1A34671  23.038  15.573   8.786
 2429POPC   D2A34672  23.079  15.502   8.308
 2429POPC   C3A34673  22.906  15.815   7.981
 2429POPC   C4A34674  22.645  15.633   7.644
 2429POPC   C1B34675  23.325  16.015   8.787
 2429POPC   C2B34676  23.143  15.997   8.436
 2429POPC   C3B34677  23.164  16.267   8.141
 2429POPC   C4B34678  23.194  16.173   7.742
 2430POPC   NC334679  36.474  27.984   9.251
 2430POPC   PO434680  35.857  28.258   9.419
 2430POPC   GL134681  36.191  28.404   9.132
 2430POPC   GL234682  36.488  28.617   9.100
 2430POPC   C1A34683  36.136  28.528   8.725
 2430POPC   D2A34684  35.802  28.607   8.455
 2430POPC   C3A34685  35.936  28.686   8.030
 2430POPC   C4A34686  35.756  28.711   7.629
 2430POPC   C1B34687  36.623  28.376   8.714
 2430POPC   C2B34688  36.479  28.099   8.391
 2430POPC   C3B34689  36.479  28.080   7.945
 2430POPC   C4B34690  36.314  28.446   7.715
 2431POPC   NC334691  33.066  27.694   9.521
 2431POPC   PO434692  32.916  27.052   9.666
 2431POPC   GL134693  32.889  27.225   9.212
 2431POPC   GL234694  33.182  27.402   9.124
 2431POPC   C1A34695  32.813  27.415   8.772
 2431POPC   D2A34696  32.894  27.638   8.403
 2431POPC   C3A34697  32.809  27.489   8.006
 2431POPC   C4A34698  33.078  27.189   7.885
 2431POPC   C1B34699  33.154  27.794   8.854
 2431POPC   C2B34700  33.056  28.103   8.521
 2431POPC   C3B34701  33.027  28.026   8.074
 2431POPC   C4B34702  33.192  27.729   7.788
 2432POPC   NC334703  30.920  12.637   9.538
 2432POPC   PO434704  31.009  13.335   9.454
 2432POPC   GL134705  30.761  13.127   9.146
 2432POPC   GL234706  30.744  12.791   9.079
 2432POPC   C1A34707  30.572  13.144   8.768
 2432POPC   D2A34708  30.462  13.001   8.385
 2432POPC   C3A34709  30.554  13.187   7.979
 2432POPC   C4A34710  30.461  13.134   7.528
 2432POPC   C1B34711  30.452  12.648   8.770
 2432POPC   C2B34712  30.485  12.485   8.344
 2432POPC   C3B34713  30.528  12.682   7.966
 2432POPC   C4B34714  30.793  12.767   7.618
 2433POPC   NC334715   7.225  44.422   9.550
 2433POPC   PO434716   7.716  44.978   9.444
 2433POPC   GL134717   7.351  44.820   9.235
 2433POPC   GL234718   7.508  44.525   9.093
 2433POPC   C1A34719   7.156  44.752   8.835
 2433POPC   D2A34720   7.393  44.787   8.460
 2433POPC   C3A34721   7.225  44.781   8.055
 2433POPC   C4A34722   7.566  44.736   7.774
 2433POPC   C1B34723   7.342  44.286   8.746
 2433POPC   C2B34724   7.149  44.350   8.349
 2433POPC   C3B34725   7.415  44.307   8.000
 2433POPC   C4B34726   7.771  44.243   7.749
 2434POPC   NC334727  29.074  10.520   9.786
 2434POPC   PO434728  28.996  10.766   9.222
 2434POPC   GL134729  29.012  10.426   9.057
 2434POPC   GL234730  28.684  10.344   8.948
 2434POPC   C1A34731  29.180  10.312   8.688
 2434POPC   D2A34732  29.029  10.235   8.289
 2434POPC   C3A34733  29.326  10.293   7.959
 2434POPC   C4A34734  29.232  10.408   7.499
 2434POPC   C1B34735  28.690  10.656   8.654
 2434POPC   C2B34736  28.833  10.746   8.294
 2434POPC   C3B34737  29.003  10.666   7.948
 2434POPC   C4B34738  28.926  10.800   7.565
 2435POPC   NC334739   9.768  19.910   9.757
 2435POPC   PO434740   9.689  19.346   9.451
 2435POPC   GL134741   9.894  19.654   9.188
 2435POPC   GL234742   9.879  20.010   9.246
 2435POPC   C1A34743  10.015  19.696   8.771
 2435POPC   D2A34744   9.822  19.794   8.381
 2435POPC   C3A34745   9.852  19.458   8.059
 2435POPC   C4A34746   9.909  19.739   7.760
 2435POPC   C1B34747   9.811  20.163   8.830
 2435POPC   C2B34748   9.839  20.366   8.431
 2435POPC   C3B34749   9.816  20.194   8.024
 2435POPC   C4B34750   9.467  20.241   7.752
 2436POPC   NC334751  15.494  41.645   9.153
 2436POPC   PO434752  16.027  41.786   9.495
 2436POPC   GL134753  16.012  41.606   9.088
 2436POPC   GL234754  15.826  41.250   9.057
 2436POPC   C1A34755  15.967  41.577   8.656
 2436POPC   D2A34756  16.148  41.330   8.368
 2436POPC   C3A34757  16.249  41.482   8.003
 2436POPC   C4A34758  15.962  41.611   7.718
 2436POPC   C1B34759  15.571  41.192   8.687
 2436POPC   C2B34760  15.584  41.346   8.287
 2436POPC   C3B34761  15.806  41.184   7.966
 2436POPC   C4B34762  15.689  41.159   7.537
 2437POPC   NC334763  10.141  32.272   9.496
 2437POPC   PO434764  10.727  31.883   9.543
 2437POPC   GL134765  10.623  32.217   9.262
 2437POPC   GL234766  10.856  32.517   9.212
 2437POPC   C1A34767  10.482  32.078   8.868
 2437POPC   D2A34768  10.690  32.146   8.493
 2437POPC   C3A34769  10.453  32.145   8.146
 2437POPC   C4A34770  10.625  32.108   7.731
 2437POPC   C1B34771  10.610  32.570   8.816
 2437POPC   C2B34772  10.439  32.625   8.369
 2437POPC   C3B34773  10.572  32.613   7.904
 2437POPC   C4B34774  10.661  32.535   7.440
 2438POPC   NC334775   5.999  36.852   9.408
 2438POPC   PO434776   5.585  37.306   9.627
 2438POPC   GL134777   5.715  37.376   9.207
 2438POPC   GL234778   6.077  37.316   9.228
 2438POPC   C1A34779   5.784  37.120   8.823
 2438POPC   D2A34780   5.689  36.865   8.436
 2438POPC   C3A34781   5.901  36.695   8.060
 2438POPC   C4A34782   5.803  36.923   7.681
 2438POPC   C1B34783   6.333  37.206   8.831
 2438POPC   C2B34784   6.147  37.151   8.451
 2438POPC   C3B34785   6.008  37.207   8.070
 2438POPC   C4B34786   5.968  37.433   7.738
 2439POPC   NC334787   3.254  20.869   9.438
 2439POPC   PO434788   3.809  20.602   9.496
 2439POPC   GL134789   3.577  20.472   9.122
 2439POPC   GL234790   3.243  20.420   9.124
 2439POPC   C1A34791   3.463  20.497   8.684
 2439POPC   D2A34792   3.622  20.724   8.400
 2439POPC   C3A34793   3.397  20.673   8.053
 2439POPC   C4A34794   3.493  20.642   7.651
 2439POPC   C1B34795   3.024  20.220   8.746
 2439POPC   C2B34796   3.043  20.389   8.319
 2439POPC   C3B34797   2.962  20.477   7.865
 2439POPC   C4B34798   3.015  20.399   7.385
 2440POPC   NC334799  44.384  31.213   9.387
 2440POPC   PO434800  44.789  31.817   9.452
 2440POPC   GL134801  44.816  31.449   9.209
 2440POPC   GL234802  44.544  31.620   9.028
 2440POPC   C1A34803  44.718  31.193   8.813
 2440POPC   D2A34804  44.443  31.154   8.445
 2440POPC   C3A34805  44.515  31.397   8.073
 2440POPC   C4A34806  44.401  31.411   7.623
 2440POPC   C1B34807  44.960  31.622   8.765
 2440POPC   C2B34808   0.131  31.509   8.377
 2440POPC   C3B34809  44.973  31.620   8.002
 2440POPC   C4B34810  44.914  31.670   7.596
 2441POPC   NC334811  27.566  23.790   9.629
 2441POPC   PO434812  27.848  23.258   9.438
 2441POPC   GL134813  27.721  23.603   9.181
 2441POPC   GL234814  27.360  23.674   9.142
 2441POPC   C1A34815  27.747  23.824   8.808
 2441POPC   D2A34816  27.924  23.670   8.433
 2441POPC   C3A34817  27.779  23.857   8.075
 2441POPC   C4A34818  27.719  23.785   7.638
 2441POPC   C1B34819  27.221  23.796   8.701
 2441POPC   C2B34820  27.263  23.798   8.230
 2441POPC   C3B34821  27.244  23.816   7.756
 2441POPC   C4B34822  27.361  24.049   7.364
 2442POPC   NC334823  35.226   6.162   9.549
 2442POPC   PO434824  35.355   5.570   9.374
 2442POPC   GL134825  35.341   5.794   9.018
 2442POPC   GL234826  35.054   6.006   9.085
 2442POPC   C1A34827  35.593   5.834   8.634
 2442POPC   D2A34828  35.861   5.913   8.277
 2442POPC   C3A34829  35.640   5.937   7.870
 2442POPC   C4A34830  35.334   5.828   7.553
 2442POPC   C1B34831  35.154   6.116   8.659
 2442POPC   C2B34832  35.313   6.114   8.249
 2442POPC   C3B34833  35.051   6.150   7.874
 2442POPC   C4B34834  34.840   5.910   7.516
 2443POPC   NC334835  41.658  19.742   9.826
 2443POPC   PO434836  41.237  20.081   9.662
 2443POPC   GL134837  41.491  20.087   9.241
 2443POPC   GL234838  41.731  19.813   9.121
 2443POPC   C1A34839  41.483  20.100   8.751
 2443POPC   D2A34840  41.235  20.140   8.339
 2443POPC   C3A34841  41.393  20.056   7.909
 2443POPC   C4A34842  41.447  19.746   7.547
 2443POPC   C1B34843  41.728  19.652   8.664
 2443POPC   C2B34844  41.604  19.714   8.219
 2443POPC   C3B34845  41.858  19.853   7.828
 2443POPC   C4B34846  41.948  19.846   7.354
 2444POPC   NC334847  23.476  40.616   9.649
 2444POPC   PO434848  24.039  40.976   9.566
 2444POPC   GL134849  23.872  40.703   9.261
 2444POPC   GL234850  23.551  40.801   9.159
 2444POPC   C1A34851  23.813  40.535   8.819
 2444POPC   D2A34852  23.742  40.796   8.431
 2444POPC   C3A34853  23.651  40.641   7.996
 2444POPC   C4A34854  23.921  40.690   7.630
 2444POPC   C1B34855  23.353  40.778   8.761
 2444POPC   C2B34856  23.283  40.994   8.378
 2444POPC   C3B34857  23.178  40.859   8.000
 2444POPC   C4B34858  23.258  40.609   7.617
 2445POPC   NC334859  12.790  40.370   9.465
 2445POPC   PO434860  12.671  39.667   9.366
 2445POPC   GL134861  12.679  39.973   9.090
 2445POPC   GL234862  12.992  40.030   9.125
 2445POPC   C1A34863  12.752  40.271   8.746
 2445POPC   D2A34864  12.695  40.503   8.351
 2445POPC   C3A34865  12.728  40.166   8.098
 2445POPC   C4A34866  12.727  40.022   7.724
 2445POPC   C1B34867  13.157  39.914   8.786
 2445POPC   C2B34868  13.016  39.878   8.386
 2445POPC   C3B34869  13.182  39.948   7.966
 2445POPC   C4B34870  13.211  39.736   7.559
 2446POPC   NC334871  18.696  15.056   9.387
 2446POPC   PO434872  19.336  14.957   9.375
 2446POPC   GL134873  19.040  14.874   9.061
 2446POPC   GL234874  19.035  15.244   9.032
 2446POPC   C1A34875  18.781  14.951   8.711
 2446POPC   D2A34876  18.997  15.169   8.402
 2446POPC   C3A34877  18.917  15.045   7.995
 2446POPC   C4A34878  18.692  15.324   7.728
 2446POPC   C1B34879  19.407  15.392   8.793
 2446POPC   C2B34880  19.441  15.436   8.344
 2446POPC   C3B34881  19.233  15.468   7.941
 2446POPC   C4B34882  19.530  15.547   7.592
 2447POPC   NC334883  44.789   9.604   9.189
 2447POPC   PO434884  44.713   8.979   9.456
 2447POPC   GL134885  44.677   8.811   9.089
 2447POPC   GL234886   0.029   8.792   9.026
 2447POPC   C1A34887  44.458   8.779   8.684
 2447POPC   D2A34888  44.655   8.683   8.275
 2447POPC   C3A34889  44.483   8.950   8.050
 2447POPC   C4A34890  44.391   8.907   7.696
 2447POPC   C1B34891  44.979   8.854   8.613
 2447POPC   C2B34892  44.937   9.127   8.242
 2447POPC   C3B34893  44.856   9.235   7.798
 2447POPC   C4B34894   0.086   9.283   7.369
 2448POPC   NC334895  22.049  31.662   9.395
 2448POPC   PO434896  22.557  31.250   9.600
 2448POPC   GL134897  22.291  31.259   9.177
 2448POPC   GL234898  21.939  31.151   9.217
 2448POPC   C1A34899  22.120  31.446   8.753
 2448POPC   D2A34900  22.098  31.701   8.367
 2448POPC   C3A34901  22.339  31.666   7.984
 2448POPC   C4A34902  22.159  31.667   7.563
 2448POPC   C1B34903  21.826  31.039   8.785
 2448POPC   C2B34904  21.802  31.227   8.367
 2448POPC   C3B34905  21.834  31.465   7.969
 2448POPC   C4B34906  21.783  31.315   7.534
 2449POPC   NC334907  29.424  13.552   9.353
 2449POPC   PO434908  30.013  13.252   9.426
 2449POPC   GL134909  29.865  13.438   9.066
 2449POPC   GL234910  29.963  13.787   9.015
 2449POPC   C1A34911  29.793  13.456   8.636
 2449POPC   D2A34912  29.583  13.673   8.314
 2449POPC   C3A34913  29.900  13.656   7.983
 2449POPC   C4A34914  30.065  13.316   7.772
 2449POPC   C1B34915  29.618  13.950   8.759
 2449POPC   C2B34916  29.627  14.180   8.374
 2449POPC   C3B34917  29.782  14.147   7.970
 2449POPC   C4B34918  29.670  13.989   7.587
 2450POPC   NC334919   3.475  30.886   9.328
 2450POPC   PO434920   3.710  31.503   9.593
 2450POPC   GL134921   3.538  31.416   9.184
 2450POPC   GL234922   3.825  31.213   9.145
 2450POPC   C1A34923   3.345  31.594   8.763
 2450POPC   D2A34924   3.075  31.531   8.376
 2450POPC   C3A34925   3.221  31.652   7.973
 2450POPC   C4A34926   3.392  31.534   7.588
 2450POPC   C1B34927   3.845  31.484   8.767
 2450POPC   C2B34928   3.725  31.714   8.408
 2450POPC   C3B34929   3.708  31.576   8.007
 2450POPC   C4B34930   3.887  31.371   7.656
 2451POPC   NC334931  43.505   4.122   9.357
 2451POPC   PO434932  43.029   3.602   9.609
 2451POPC   GL134933  43.049   3.424   9.209
 2451POPC   GL234934  43.273   3.684   9.164
 2451POPC   C1A34935  43.155   3.340   8.750
 2451POPC   D2A34936  43.377   3.408   8.296
 2451POPC   C3A34937  43.137   3.306   7.890
 2451POPC   C4A34938  42.964   3.469   7.458
 2451POPC   C1B34939  42.951   3.810   8.893
 2451POPC   C2B34940  43.074   3.770   8.511
 2451POPC   C3B34941  43.077   3.786   8.093
 2451POPC   C4B34942  42.794   3.982   7.828
 2452POPC   NC334943   3.750  19.448   9.772
 2452POPC   PO434944   3.224  19.058   9.527
 2452POPC   GL134945   3.452  19.076   9.157
 2452POPC   GL234946   3.715  18.839   9.085
 2452POPC   C1A34947   3.281  19.009   8.735
 2452POPC   D2A34948   3.231  18.839   8.320
 2452POPC   C3A34949   3.304  19.120   8.003
 2452POPC   C4A34950   3.416  18.831   7.699
 2452POPC   C1B34951   3.773  19.172   8.762
 2452POPC   C2B34952   3.693  19.197   8.324
 2452POPC   C3B34953   3.832  19.180   7.882
 2452POPC   C4B34954   3.834  18.929   7.483
 2453POPC   NC334955  25.162  43.714   9.558
 2453POPC   PO434956  24.817  44.251   9.360
 2453POPC   GL134957  25.029  43.910   9.103
 2453POPC   GL234958  24.918  43.573   9.122
 2453POPC   C1A34959  25.236  43.782   8.710
 2453POPC   D2A34960  25.141  43.953   8.301
 2453POPC   C3A34961  25.220  43.820   7.868
 2453POPC   C4A34962  25.320  44.238   7.701
 2453POPC   C1B34963  24.763  43.631   8.701
 2453POPC   C2B34964  24.846  43.531   8.252
 2453POPC   C3B34965  24.746  43.641   7.817
 2453POPC   C4B34966  24.830  43.545   7.400
 2454POPC   NC334967  26.438  22.900   9.496
 2454POPC   PO434968  26.987  23.375   9.440
 2454POPC   GL134969  26.934  23.051   9.139
 2454POPC   GL234970  26.854  22.710   9.215
 2454POPC   C1A34971  27.091  22.935   8.754
 2454POPC   D2A34972  26.873  22.919   8.414
 2454POPC   C3A34973  27.127  23.054   8.090
 2454POPC   C4A34974  26.887  22.896   7.729
 2454POPC   C1B34975  26.661  22.631   8.820
 2454POPC   C2B34976  26.353  22.707   8.497
 2454POPC   C3B34977  26.498  22.778   8.072
 2454POPC   C4B34978  26.578  22.433   7.833
 2455POPC   NC334979  16.466  41.777   9.349
 2455POPC   PO434980  16.231  41.241   9.356
 2455POPC   GL134981  16.554  41.348   9.080
 2455POPC   GL234982  16.870  41.536   9.117
 2455POPC   C1A34983  16.558  41.521   8.653
 2455POPC   D2A34984  16.827  41.641   8.307
 2455POPC   C3A34985  16.647  41.793   7.920
 2455POPC   C4A34986  16.465  41.596   7.557
 2455POPC   C1B34987  17.031  41.839   8.798
 2455POPC   C2B34988  17.232  41.963   8.371
 2455POPC   C3B34989  17.132  41.919   7.931
 2455POPC   C4B34990  17.006  41.576   7.607
 2456POPC   NC334991  37.418  29.435   9.731
 2456POPC   PO434992  37.657  30.049   9.541
 2456POPC   GL134993  37.470  29.927   9.161
 2456POPC   GL234994  37.224  30.187   9.101
 2456POPC   C1A34995  37.603  29.771   8.743
 2456POPC   D2A34996  37.608  29.501   8.380
 2456POPC   C3A34997  37.694  29.707   8.013
 2456POPC   C4A34998  37.579  29.966   7.692
 2456POPC   C1B34999  37.604  30.289   8.811
 2456POPC   C2B35000  37.721  30.162   8.382
 2456POPC   C3B35001  37.697  30.369   7.978
 2456POPC   C4B35002  37.949  30.530   7.675
 2457POPC   NC335003  15.291  37.479   9.286
 2457POPC   PO435004  14.849  37.839   9.711
 2457POPC   GL135005  15.061  37.915   9.292
 2457POPC   GL235006  14.858  37.668   9.081
 2457POPC   C1A35007  15.255  37.923   8.858
 2457POPC   D2A35008  15.452  37.746   8.491
 2457POPC   C3A35009  15.146  37.835   8.159
 2457POPC   C4A35010  15.178  37.881   7.716
 2457POPC   C1B35011  15.034  37.491   8.671
 2457POPC   C2B35012  15.109  37.263   8.298
 2457POPC   C3B35013  15.268  37.405   7.914
 2457POPC   C4B35014  15.286  37.446   7.452
 2458POPC   NC335015  15.089   0.129   9.782
 2458POPC   PO435016  15.339  44.517   9.565
 2458POPC   GL135017  15.300  44.327   9.165
 2458POPC   GL235018  14.987  44.484   9.084
 2458POPC   C1A35019  15.176  44.137   8.786
 2458POPC   D2A35020  14.879  44.253   8.494
 2458POPC   C3A35021  15.065  44.437   8.131
 2458POPC   C4A35022  14.857  44.612   7.781
 2458POPC   C1B35023  15.373  44.646   8.794
 2458POPC   C2B35024  15.437  44.794   8.360
 2458POPC   C3B35025  15.167  44.950   8.028
 2458POPC   C4B35026  14.879   0.136   7.747
 2459POPC   NC335027  33.665   0.263   9.596
 2459POPC   PO435028  34.244   0.581   9.569
 2459POPC   GL135029  33.956   0.458   9.221
 2459POPC   GL235030  33.661   0.633   9.223
 2459POPC   C1A35031  33.685   0.258   8.890
 2459POPC   D2A35032  33.502   0.125   8.501
 2459POPC   C3A35033  33.749   0.189   8.117
 2459POPC   C4A35034  33.695   0.260   7.682
 2459POPC   C1B35035  33.795   0.774   8.840
 2459POPC   C2B35036  33.701   0.615   8.456
 2459POPC   C3B35037  33.580   0.766   8.086
 2459POPC   C4B35038  33.875   0.690   7.871
 2460POPC   NC335039  32.161  30.615   9.779
 2460POPC   PO435040  32.607  31.082   9.462
 2460POPC   GL135041  32.254  30.797   9.275
 2460POPC   GL235042  32.176  31.047   9.055
 2460POPC   C1A35043  32.161  30.544   8.859
 2460POPC   D2A35044  32.246  30.720   8.437
 2460POPC   C3A35045  32.187  30.546   8.019
 2460POPC   C4A35046  32.229  30.828   7.682
 2460POPC   C1B35047  32.567  30.869   8.827
 2460POPC   C2B35048  32.721  30.886   8.428
 2460POPC   C3B35049  32.617  30.800   8.016
 2460POPC   C4B35050  32.713  30.747   7.570
 2461POPC   NC335051  24.182  23.700   9.498
 2461POPC   PO435052  23.508  23.597   9.409
 2461POPC   GL135053  23.756  23.793   9.151
 2461POPC   GL235054  23.647  24.112   9.146
 2461POPC   C1A35055  23.936  23.656   8.788
 2461POPC   D2A35056  23.757  23.551   8.393
 2461POPC   C3A35057  23.935  23.461   7.990
 2461POPC   C4A35058  23.586  23.358   7.731
 2461POPC   C1B35059  23.532  24.141   8.730
 2461POPC   C2B35060  23.619  24.266   8.302
 2461POPC   C3B35061  23.685  23.921   8.047
 2461POPC   C4B35062  23.765  23.824   7.652
 2462POPC   NC335063  25.779  23.854   9.570
 2462POPC   PO435064  26.203  23.315   9.417
 2462POPC   GL135065  26.231  23.554   9.067
 2462POPC   GL235066  25.960  23.782   9.093
 2462POPC   C1A35067  26.086  23.526   8.652
 2462POPC   D2A35068  26.260  23.617   8.256
 2462POPC   C3A35069  25.931  23.594   7.932
 2462POPC   C4A35070  26.027  23.683   7.488
 2462POPC   C1B35071  25.859  24.054   8.735
 2462POPC   C2B35072  25.925  24.009   8.280
 2462POPC   C3B35073  26.233  23.999   7.914
 2462POPC   C4B35074  25.987  24.178   7.589
 2463POPC   NC335075   4.738  37.951   9.354
 2463POPC   PO435076   4.094  37.697   9.482
 2463POPC   GL135077   4.195  37.484   9.070
 2463POPC   GL235078   4.545  37.581   9.018
 2463POPC   C1A35079   4.134  37.642   8.669
 2463POPC   D2A35080   4.330  37.482   8.309
 2463POPC   C3A35081   4.179  37.375   7.890
 2463POPC   C4A35082   4.023  37.632   7.559
 2463POPC   C1B35083   4.556  37.948   8.705
 2463POPC   C2B35084   4.437  38.043   8.280
 2463POPC   C3B35085   4.312  37.855   7.927
 2463POPC   C4B35086   4.552  37.666   7.606
 2464POPC   NC335087   2.619  26.067   9.496
 2464POPC   PO435088   3.012  25.571   9.432
 2464POPC   GL135089   2.677  25.724   9.111
 2464POPC   GL235090   2.632  26.100   8.991
 2464POPC   C1A35091   2.636  25.725   8.659
 2464POPC   D2A35092   2.761  26.062   8.406
 2464POPC   C3A35093   2.704  26.045   7.966
 2464POPC   C4A35094   2.383  25.842   7.779
 2464POPC   C1B35095   2.398  26.346   8.661
 2464POPC   C2B35096   2.358  26.540   8.261
 2464POPC   C3B35097   2.343  26.380   7.824
 2464POPC   C4B35098   2.238  26.175   7.419
 2465POPC   NC335099  11.288   1.656   9.416
 2465POPC   PO435100  11.093   2.246   9.415
 2465POPC   GL135101  11.079   1.965   9.089
 2465POPC   GL235102  11.446   2.005   9.069
 2465POPC   C1A35103  11.170   1.805   8.660
 2465POPC   D2A35104  10.892   1.919   8.339
 2465POPC   C3A35105  10.913   1.872   7.891
 2465POPC   C4A35106  10.939   2.125   7.534
 2465POPC   C1B35107  11.715   2.290   8.801
 2465POPC   C2B35108  11.576   2.267   8.394
 2465POPC   C3B35109  11.382   1.941   8.150
 2465POPC   C4B35110  11.383   1.923   7.706
 2466POPC   NC335111   0.102  13.555   9.505
 2466POPC   PO435112  44.527  13.237   9.540
 2466POPC   GL135113  44.746  13.413   9.180
 2466POPC   GL235114  44.754  13.744   9.151
 2466POPC   C1A35115  44.963  13.421   8.800
 2466POPC   D2A35116  44.761  13.558   8.426
 2466POPC   C3A35117  44.672  13.356   8.047
 2466POPC   C4A35118  44.427  13.574   7.762
 2466POPC   C1B35119  44.916  13.930   8.763
 2466POPC   C2B35120  44.789  14.093   8.390
 2466POPC   C3B35121  44.732  13.929   8.005
 2466POPC   C4B35122  44.607  14.031   7.594
 2467POPC   NC335123   2.407  44.266   9.508
 2467POPC   PO435124   2.974  44.672   9.475
 2467POPC   GL135125   2.823  44.835   9.095
 2467POPC   GL235126   2.493  44.716   9.087
 2467POPC   C1A35127   2.675   0.009   8.728
 2467POPC   D2A35128   2.469  44.884   8.342
 2467POPC   C3A35129   2.840  44.718   8.195
 2467POPC   C4A35130   3.066  44.781   7.822
 2467POPC   C1B35131   2.618  44.512   8.666
 2467POPC   C2B35132   2.472  44.318   8.268
 2467POPC   C3B35133   2.680  44.359   7.882
 2467POPC   C4B35134   2.531  44.779   7.789
 2468POPC   NC335135  34.102  35.534   9.491
 2468POPC   PO435136  33.592  35.114   9.450
 2468POPC   GL135137  33.718  35.377   9.169
 2468POPC   GL235138  34.022  35.237   9.080
 2468POPC   C1A35139  33.546  35.427   8.794
 2468POPC   D2A35140  33.727  35.525   8.404
 2468POPC   C3A35141  33.539  35.500   8.032
 2468POPC   C4A35142  33.475  35.343   7.673
 2468POPC   C1B35143  34.156  35.448   8.690
 2468POPC   C2B35144  34.175  35.372   8.218
 2468POPC   C3B35145  34.006  35.361   7.776
 2468POPC   C4B35146  34.097  35.360   7.299
 2469POPC   NC335147  22.527   1.862   9.544
 2469POPC   PO435148  21.924   2.123   9.488
 2469POPC   GL135149  22.185   1.897   9.149
 2469POPC   GL235150  22.033   1.567   9.018
 2469POPC   C1A35151  22.146   1.990   8.698
 2469POPC   D2A35152  21.982   1.858   8.300
 2469POPC   C3A35153  22.045   2.155   7.983
 2469POPC   C4A35154  22.399   2.412   7.891
 2469POPC   C1B35155  22.138   1.476   8.639
 2469POPC   C2B35156  22.423   1.607   8.344
 2469POPC   C3B35157  22.340   1.734   7.926
 2469POPC   C4B35158  22.472   1.582   7.541
 2470POPC   NC335159  44.900   2.799   9.576
 2470POPC   PO435160   0.607   2.716   9.485
 2470POPC   GL135161   0.373   2.804   9.158
 2470POPC   GL235162   0.299   3.135   9.207
 2470POPC   C1A35163   0.249   2.757   8.747
 2470POPC   D2A35164   0.024   2.731   8.368
 2470POPC   C3A35165   0.279   2.606   7.987
 2470POPC   C4A35166   0.304   2.656   7.483
 2470POPC   C1B35167   0.526   3.194   8.825
 2470POPC   C2B35168   0.400   3.134   8.426
 2470POPC   C3B35169   0.604   3.188   8.091
 2470POPC   C4B35170   0.427   3.043   7.768
 2471POPC   NC335171  25.381  17.979   9.489
 2471POPC   PO435172  25.156  17.445   9.844
 2471POPC   GL135173  25.149  17.339   9.362
 2471POPC   GL235174  25.215  17.638   9.157
 2471POPC   C1A35175  25.097  17.245   8.891
 2471POPC   D2A35176  25.154  17.462   8.462
 2471POPC   C3A35177  25.257  17.223   8.099
 2471POPC   C4A35178  25.351  17.319   7.665
 2471POPC   C1B35179  24.958  17.807   8.785
 2471POPC   C2B35180  24.769  17.795   8.336
 2471POPC   C3B35181  24.962  17.666   7.960
 2471POPC   C4B35182  25.374  17.722   7.973
 2472POPC   NC335183   9.975   9.244   9.488
 2472POPC   PO435184   9.275   9.273   9.531
 2472POPC   GL135185   9.598   9.334   9.170
 2472POPC   GL235186   9.760   9.002   9.089
 2472POPC   C1A35187   9.548   9.278   8.727
 2472POPC   D2A35188   9.723   9.083   8.388
 2472POPC   C3A35189   9.547   9.009   8.007
 2472POPC   C4A35190   9.595   8.652   7.717
 2472POPC   C1B35191  10.069   9.202   8.774
 2472POPC   C2B35192  10.214   9.221   8.317
 2472POPC   C3B35193  10.095   8.994   7.917
 2472POPC   C4B35194   9.861   9.073   7.549
 2473POPC   NC335195  34.527  21.049   9.443
 2473POPC   PO435196  34.315  20.394   9.532
 2473POPC   GL135197  34.528  20.438   9.132
 2473POPC   GL235198  34.622  20.792   9.006
 2473POPC   C1A35199  34.317  20.349   8.753
 2473POPC   D2A35200  34.375  20.404   8.363
 2473POPC   C3A35201  34.187  20.381   8.012
 2473POPC   C4A35202  34.511  20.438   7.775
 2473POPC   C1B35203  34.797  20.602   8.647
 2473POPC   C2B35204  34.798  20.586   8.202
 2473POPC   C3B35205  34.935  20.715   7.832
 2473POPC   C4B35206  34.640  20.957   7.613
 2474POPC   NC335207  29.356  35.704   9.320
 2474POPC   PO435208  28.743  35.763   9.408
 2474POPC   GL135209  28.924  35.492   9.110
 2474POPC   GL235210  28.934  35.117   9.094
 2474POPC   C1A35211  29.189  35.454   8.736
 2474POPC   D2A35212  29.329  35.225   8.378
 2474POPC   C3A35213  29.315  35.385   7.963
 2474POPC   C4A35214  29.207  35.117   7.594
 2474POPC   C1B35215  28.729  35.236   8.732
 2474POPC   C2B35216  28.809  35.412   8.357
 2474POPC   C3B35217  28.816  35.260   7.939
 2474POPC   C4B35218  28.977  35.551   7.610
 2475POPC   NC335219   1.249  19.616   9.503
 2475POPC   PO435220   1.078  20.262   9.570
 2475POPC   GL135221   1.203  20.042   9.192
 2475POPC   GL235222   1.560  20.066   9.163
 2475POPC   C1A35223   1.098  19.838   8.794
 2475POPC   D2A35224   1.256  19.588   8.423
 2475POPC   C3A35225   1.123  19.712   7.987
 2475POPC   C4A35226   0.958  19.874   7.569
 2475POPC   C1B35227   1.579  19.976   8.712
 2475POPC   C2B35228   1.649  19.887   8.259
 2475POPC   C3B35229   1.550  19.953   7.837
 2475POPC   C4B35230   1.335  20.201   7.551
 2476POPC   NC335231  18.388  34.648   9.509
 2476POPC   PO435232  17.954  34.076   9.499
 2476POPC   GL135233  18.079  34.339   9.173
 2476POPC   GL235234  18.418  34.247   9.185
 2476POPC   C1A35235  18.172  34.678   8.858
 2476POPC   D2A35236  18.459  34.726   8.509
 2476POPC   C3A35237  18.424  34.693   8.071
 2476POPC   C4A35238  18.512  34.691   7.643
 2476POPC   C1B35239  18.519  34.283   8.749
 2476POPC   C2B35240  18.535  34.231   8.301
 2476POPC   C3B35241  18.713  34.261   7.907
 2476POPC   C4B35242  18.488  34.204   7.553
 2477POPC   NC335243  41.439  33.951   9.955
 2477POPC   PO435244  41.746  33.570   9.688
 2477POPC   GL135245  41.754  33.709   9.209
 2477POPC   GL235246  41.541  34.004   9.091
 2477POPC   C1A35247  41.720  33.702   8.719
 2477POPC   D2A35248  41.502  33.734   8.309
 2477POPC   C3A35249  41.686  33.700   7.911
 2477POPC   C4A35250  41.510  33.803   7.495
 2477POPC   C1B35251  41.361  34.086   8.651
 2477POPC   C2B35252  41.514  34.244   8.239
 2477POPC   C3B35253  41.669  34.221   7.792
 2477POPC   C4B35254  41.572  34.287   7.329
 2478POPC   NC335255  34.688  38.920   9.528
 2478POPC   PO435256  34.457  39.570   9.480
 2478POPC   GL135257  34.478  39.254   9.182
 2478POPC   GL235258  34.841  39.231   9.150
 2478POPC   C1A35259  34.442  38.976   8.826
 2478POPC   D2A35260  34.664  38.968   8.424
 2478POPC   C3A35261  34.470  39.180   8.069
 2478POPC   C4A35262  34.649  39.492   7.809
 2478POPC   C1B35263  34.979  38.895   8.869
 2478POPC   C2B35264  35.165  38.875   8.455
 2478POPC   C3B35265  35.094  39.180   8.170
 2478POPC   C4B35266  34.919  39.075   7.826
 2479POPC   NC335267  36.681  44.617   9.449
 2479POPC   PO435268  37.162   0.113   9.329
 2479POPC   GL135269  36.951  44.839   9.039
 2479POPC   GL235270  36.927  44.494   9.029
 2479POPC   C1A35271  36.864  44.768   8.601
 2479POPC   D2A35272  36.665  44.610   8.229
 2479POPC   C3A35273  36.979  44.690   7.924
 2479POPC   C4A35274  37.229  44.805   7.557
 2479POPC   C1B35275  36.867  44.261   8.657
 2479POPC   C2B35276  37.031  44.235   8.228
 2479POPC   C3B35277  36.799  44.233   7.817
 2479POPC   C4B35278  36.515  44.560   7.725
 2480POPC   NC335279  22.565  24.748   9.905
 2480POPC   PO435280  23.101  24.495   9.580
 2480POPC   GL135281  22.910  24.282   9.246
 2480POPC   GL235282  23.214  24.376   9.100
 2480POPC   C1A35283  22.745  24.375   8.830
 2480POPC   D2A35284  22.748  24.703   8.490
 2480POPC   C3A35285  22.782  24.542   8.063
 2480POPC   C4A35286  22.853  24.703   7.662
 2480POPC   C1B35287  23.196  24.613   8.758
 2480POPC   C2B35288  23.134  24.353   8.405
 2480POPC   C3B35289  23.233  24.196   7.999
 2480POPC   C4B35290  22.974  24.211   7.686
 2481POPC   NC335291   3.158  43.203   9.401
 2481POPC   PO435292   2.509  43.059   9.475
 2481POPC   GL135293   2.693  43.291   9.151
 2481POPC   GL235294   2.874  42.985   9.027
 2481POPC   C1A35295   2.618  43.334   8.712
 2481POPC   D2A35296   2.721  43.179   8.326
 2481POPC   C3A35297   2.503  43.349   8.021
 2481POPC   C4A35298   2.392  43.131   7.676
 2481POPC   C1B35299   3.113  43.184   8.698
 2481POPC   C2B35300   3.236  43.076   8.289
 2481POPC   C3B35301   2.988  42.903   7.971
 2481POPC   C4B35302   2.898  43.202   7.734
 2482POPC   NC335303  23.020  21.659   9.521
 2482POPC   PO435304  22.695  22.309   9.572
 2482POPC   GL135305  22.955  22.300   9.187
 2482POPC   GL235306  23.197  22.054   9.221
 2482POPC   C1A35307  23.154  22.398   8.766
 2482POPC   D2A35308  23.290  22.283   8.301
 2482POPC   C3A35309  23.039  22.492   7.955
 2482POPC   C4A35310  22.619  22.564   7.763
 2482POPC   C1B35311  23.110  21.865   8.809
 2482POPC   C2B35312  23.299  21.757   8.390
 2482POPC   C3B35313  23.257  21.695   7.936
 2482POPC   C4B35314  23.003  21.923   7.628
 2483POPC   NC335315  40.832  42.509   9.698
 2483POPC   PO435316  40.440  42.131   9.230
 2483POPC   GL135317  40.597  42.415   8.975
 2483POPC   GL235318  40.751  42.629   9.190
 2483POPC   C1A35319  40.899  42.339   8.660
 2483POPC   D2A35320  40.866  42.235   8.241
 2483POPC   C3A35321  40.911  42.252   7.812
 2483POPC   C4A35322  40.691  42.490   7.469
 2483POPC   C1B35323  40.925  42.826   8.826
 2483POPC   C2B35324  41.097  42.736   8.417
 2483POPC   C3B35325  40.898  42.693   8.028
 2483POPC   C4B35326  41.087  42.768   7.628
 2484POPC   NC335327   8.946  20.480   9.777
 2484POPC   PO435328   9.416  20.195   9.388
 2484POPC   GL135329   9.208  20.438   9.056
 2484POPC   GL235330   8.888  20.580   9.170
 2484POPC   C1A35331   9.174  20.503   8.640
 2484POPC   D2A35332   9.342  20.364   8.250
 2484POPC   C3A35333   9.057  20.522   7.919
 2484POPC   C4A35334   8.785  20.297   7.615
 2484POPC   C1B35335   8.802  20.827   8.791
 2484POPC   C2B35336   8.574  20.950   8.403
 2484POPC   C3B35337   8.641  21.041   7.978
 2484POPC   C4B35338   9.060  21.025   7.836
 2485POPC   NC335339  23.695  31.800   9.400
 2485POPC   PO435340  23.418  31.224   9.584
 2485POPC   GL135341  23.597  31.313   9.160
 2485POPC   GL235342  23.884  31.502   9.025
 2485POPC   C1A35343  23.548  31.324   8.699
 2485POPC   D2A35344  23.610  31.546   8.316
 2485POPC   C3A35345  23.275  31.615   7.988
 2485POPC   C4A35346  23.306  32.014   7.732
 2485POPC   C1B35347  24.113  31.213   8.709
 2485POPC   C2B35348  24.060  31.022   8.276
 2485POPC   C3B35349  23.768  31.201   7.961
 2485POPC   C4B35350  23.755  31.661   7.826
 2486POPC   NC335351  17.933  43.835   9.580
 2486POPC   PO435352  17.311  43.953   9.548
 2486POPC   GL135353  17.582  43.924   9.207
 2486POPC   GL235354  17.383  43.631   9.127
 2486POPC   C1A35355  17.834  43.698   8.904
 2486POPC   D2A35356  17.755  43.622   8.486
 2486POPC   C3A35357  17.560  43.896   8.186
 2486POPC   C4A35358  17.482  43.707   7.785
 2486POPC   C1B35359  17.370  43.919   8.739
 2486POPC   C2B35360  17.079  44.066   8.405
 2486POPC   C3B35361  17.060  43.928   8.011
 2486POPC   C4B35362  16.969  44.158   7.681
 2487POPC   NC335363  36.485  12.548   9.562
 2487POPC   PO435364  36.885  13.029   9.496
 2487POPC   GL135365  37.043  13.053   9.080
 2487POPC   GL235366  37.197  12.717   9.199
 2487POPC   C1A35367  37.000  13.050   8.631
 2487POPC   D2A35368  36.710  13.069   8.314
 2487POPC   C3A35369  36.742  12.911   7.898
 2487POPC   C4A35370  36.588  12.695   7.457
 2487POPC   C1B35371  36.945  12.597   8.862
 2487POPC   C2B35372  37.111  12.588   8.456
 2487POPC   C3B35373  37.012  12.461   8.060
 2487POPC   C4B35374  37.015  12.570   7.671
 2488POPC   NC335375  12.276  39.345   9.441
 2488POPC   PO435376  11.637  39.585   9.426
 2488POPC   GL135377  11.910  39.427   9.068
 2488POPC   GL235378  12.018  39.049   9.072
 2488POPC   C1A35379  12.125  39.376   8.657
 2488POPC   D2A35380  12.111  38.955   8.443
 2488POPC   C3A35381  11.881  38.973   8.071
 2488POPC   C4A35382  12.003  39.340   7.850
 2488POPC   C1B35383  12.452  39.045   8.871
 2488POPC   C2B35384  12.576  39.171   8.459
 2488POPC   C3B35385  12.461  39.188   8.038
 2488POPC   C4B35386  12.290  38.936   7.739
 2489POPC   NC335387   1.033  24.885   9.425
 2489POPC   PO435388   1.425  24.366   9.344
 2489POPC   GL135389   1.199  24.559   9.047
 2489POPC   GL235390   1.476  24.732   8.911
 2489POPC   C1A35391   1.049  24.472   8.632
 2489POPC   D2A35392   1.251  24.577   8.249
 2489POPC   C3A35393   1.075  24.520   7.849
 2489POPC   C4A35394   0.873  24.469   7.428
 2489POPC   C1B35395   1.524  24.309   8.709
 2489POPC   C2B35396   1.469  24.107   8.345
 2489POPC   C3B35397   1.483  24.181   7.934
 2489POPC   C4B35398   1.576  24.570   7.755
 2490POPC   NC335399   5.829  14.538   9.482
 2490POPC   PO435400   6.033  13.842   9.368
 2490POPC   GL135401   5.835  14.149   9.159
 2490POPC   GL235402   6.156  14.313   9.151
 2490POPC   C1A35403   5.701  14.199   8.775
 2490POPC   D2A35404   5.998  14.110   8.471
 2490POPC   C3A35405   5.861  14.236   8.079
 2490POPC   C4A35406   6.004  14.386   7.665
 2490POPC   C1B35407   6.005  14.604   8.860
 2490POPC   C2B35408   5.992  14.705   8.463
 2490POPC   C3B35409   5.977  14.726   8.043
 2490POPC   C4B35410   5.588  14.724   7.831
 2491POPC   NC335411  13.249  23.986   9.557
 2491POPC   PO435412  12.804  23.551   9.563
 2491POPC   GL135413  12.812  23.764   9.176
 2491POPC   GL235414  13.078  23.975   9.072
 2491POPC   C1A35415  12.704  23.699   8.742
 2491POPC   D2A35416  12.921  23.809   8.359
 2491POPC   C3A35417  12.746  23.758   7.945
 2491POPC   C4A35418  12.917  23.917   7.548
 2491POPC   C1B35419  13.187  23.557   8.860
 2491POPC   C2B35420  13.196  23.368   8.413
 2491POPC   C3B35421  13.230  23.534   7.985
 2491POPC   C4B35422  13.350  23.585   7.543
 2492POPC   NC335423  14.811  28.284   9.538
 2492POPC   PO435424  14.264  28.210   9.541
 2492POPC   GL135425  14.466  28.407   9.160
 2492POPC   GL235426  14.756  28.218   9.030
 2492POPC   C1A35427  14.425  28.439   8.690
 2492POPC   D2A35428  14.086  28.394   8.396
 2492POPC   C3A35429  14.174  28.552   7.978
 2492POPC   C4A35430  14.433  28.845   7.747
 2492POPC   C1B35431  14.383  27.972   8.900
 2492POPC   C2B35432  14.253  27.914   8.477
 2492POPC   C3B35433  14.316  28.068   8.062
 2492POPC   C4B35434  14.015  28.115   7.766
 2493POPC   NC335435  44.032  39.547   9.576
 2493POPC   PO435436  43.351  39.243   9.565
 2493POPC   GL135437  43.700  39.321   9.249
 2493POPC   GL235438  43.974  39.095   9.289
 2493POPC   C1A35439  43.911  39.546   8.884
 2493POPC   D2A35440  44.123  39.505   8.462
 2493POPC   C3A35441  43.899  39.345   8.096
 2493POPC   C4A35442  43.980  39.212   7.654
 2493POPC   C1B35443  43.955  39.014   8.847
 2493POPC   C2B35444  44.156  38.998   8.437
 2493POPC   C3B35445  44.042  38.857   8.024
 2493POPC   C4B35446  43.784  38.732   7.671
 2494POPC   NC335447  12.537   0.345   9.356
 2494POPC   PO435448  13.093   0.166   9.508
 2494POPC   GL135449  13.029   0.358   9.132
 2494POPC   GL235450  12.859   0.092   9.025
 2494POPC   C1A35451  12.855   0.561   8.751
 2494POPC   D2A35452  12.690   0.614   8.326
 2494POPC   C3A35453  13.049   0.522   8.049
 2494POPC   C4A35454  13.246   0.343   7.694
 2494POPC   C1B35455  12.502   0.182   8.719
 2494POPC   C2B35456  12.301  44.997   8.387
 2494POPC   C3B35457  12.405   0.250   8.053
 2494POPC   C4B35458  12.739   0.238   7.743
 2495POPC   NC335459  14.819  24.709   9.589
 2495POPC   PO435460  14.246  24.494   9.596
 2495POPC   GL135461  14.520  24.310   9.302
 2495POPC   GL235462  14.532  24.609   9.118
 2495POPC   C1A35463  14.499  24.179   8.842
 2495POPC   D2A35464  14.337  24.158   8.429
 2495POPC   C3A35465  14.394  24.398   8.032
 2495POPC   C4A35466  14.355  24.455   7.563
 2495POPC   C1B35467  14.283  24.624   8.717
 2495POPC   C2B35468  14.043  24.652   8.312
 2495POPC   C3B35469  14.127  24.813   7.885
 2495POPC   C4B35470  13.893  24.970   7.498
 2496POPC   NC335471  32.867  14.501   9.893
 2496POPC   PO435472  33.395  14.531   9.548
 2496POPC   GL135473  33.052  14.398   9.281
 2496POPC   GL235474  33.285  14.283   9.084
 2496POPC   C1A35475  32.963  14.523   8.804
 2496POPC   D2A35476  33.216  14.432   8.420
 2496POPC   C3A35477  33.025  14.553   8.049
 2496POPC   C4A35478  33.086  14.446   7.634
 2496POPC   C1B35479  33.178  14.045   8.748
 2496POPC   C2B35480  33.340  13.947   8.351
 2496POPC   C3B35481  33.178  14.051   7.941
 2496POPC   C4B35482  32.716  14.109   7.761
 2497POPC   NC335483  24.273  41.391   9.521
 2497POPC   PO435484  24.577  41.992   9.562
 2497POPC   GL135485  24.571  41.782   9.190
 2497POPC   GL235486  24.250  41.715   9.123
 2497POPC   C1A35487  24.585  41.874   8.753
 2497POPC   D2A35488  24.657  41.609   8.379
 2497POPC   C3A35489  24.664  41.514   7.919
 2497POPC   C4A35490  24.637  41.792   7.556
 2497POPC   C1B35491  24.090  41.537   8.748
 2497POPC   C2B35492  24.135  41.600   8.331
 2497POPC   C3B35493  24.164  41.376   7.961
 2497POPC   C4B35494  23.946  41.247   7.585
 2498POPC   NC335495  23.217  15.206   9.597
 2498POPC   PO435496  22.550  15.356   9.399
 2498POPC   GL135497  22.788  15.209   9.048
 2498POPC   GL235498  23.158  15.118   9.091
 2498POPC   C1A35499  22.672  15.177   8.608
 2498POPC   D2A35500  22.622  14.949   8.198
 2498POPC   C3A35501  22.945  15.097   7.938
 2498POPC   C4A35502  23.127  15.430   7.769
 2498POPC   C1B35503  23.148  14.887   8.685
 2498POPC   C2B35504  23.358  14.830   8.266
 2498POPC   C3B35505  23.237  14.690   7.854
 2498POPC   C4B35506  23.136  14.863   7.438
 2499POPC   NC335507  39.412   7.494   9.600
 2499POPC   PO435508  38.937   7.000   9.533
 2499POPC   GL135509  39.206   7.213   9.227
 2499POPC   GL235510  39.211   7.605   9.163
 2499POPC   C1A35511  39.311   7.223   8.828
 2499POPC   D2A35512  39.192   7.436   8.496
 2499POPC   C3A35513  39.213   7.212   8.130
 2499POPC   C4A35514  39.433   7.268   7.743
 2499POPC   C1B35515  39.506   7.734   8.828
 2499POPC   C2B35516  39.658   7.687   8.441
 2499POPC   C3B35517  39.443   7.668   8.054
 2499POPC   C4B35518  39.158   7.827   7.732
 2500POPC   NC335519  35.510  23.253   9.547
 2500POPC   PO435520  35.010  22.711   9.477
 2500POPC   GL135521  35.238  22.922   9.165
 2500POPC   GL235522  35.552  23.088   9.072
 2500POPC   C1A35523  35.130  22.910   8.752
 2500POPC   D2A35524  34.888  23.111   8.439
 2500POPC   C3A35525  35.013  22.981   8.040
 2500POPC   C4A35526  35.347  22.841   7.811
 2500POPC   C1B35527  35.487  23.267   8.687
 2500POPC   C2B35528  35.492  23.086   8.277
 2500POPC   C3B35529  35.666  23.220   7.894
 2500POPC   C4B35530  35.663  23.566   7.644
 2501POPC   NC335531  35.302  31.930   9.497
 2501POPC   PO435532  35.448  31.229   9.496
 2501POPC   GL135533  35.417  31.291   9.063
 2501POPC   GL235534  35.461  31.654   8.989
 2501POPC   C1A35535  35.294  31.012   8.732
 2501POPC   D2A35536  35.132  31.033   8.302
 2501POPC   C3A35537  35.278  31.357   8.066
 2501POPC   C4A35538  35.082  31.634   7.810
 2501POPC   C1B35539  35.184  31.533   8.622
 2501POPC   C2B35540  35.126  31.816   8.286
 2501POPC   C3B35541  35.490  31.892   8.026
 2501POPC   C4B35542  35.676  32.102   7.677
 2502POPC   NC335543  42.976  43.612   9.397
 2502POPC   PO435544  42.914  43.072   9.803
 2502POPC   GL135545  43.183  43.064   9.350
 2502POPC   GL235546  43.339  43.297   9.212
 2502POPC   C1A35547  43.068  43.028   8.862
 2502POPC   D2A35548  43.225  43.069   8.439
 2502POPC   C3A35549  43.028  43.100   8.061
 2502POPC   C4A35550  43.112  43.191   7.655
 2502POPC   C1B35551  43.560  43.165   8.812
 2502POPC   C2B35552  43.648  43.323   8.397
 2502POPC   C3B35553  43.561  43.202   7.970
 2502POPC   C4B35554  43.582  43.394   7.549
 2503POPC   NC335555  37.137  18.694   9.639
 2503POPC   PO435556  37.040  18.014   9.535
 2503POPC   GL135557  36.793  18.249   9.280
 2503POPC   GL235558  37.026  18.480   9.193
 2503POPC   C1A35559  36.717  18.254   8.849
 2503POPC   D2A35560  36.868  18.389   8.464
 2503POPC   C3A35561  36.728  18.169   8.096
 2503POPC   C4A35562  36.857  18.162   7.675
 2503POPC   C1B35563  37.218  18.570   8.822
 2503POPC   C2B35564  37.347  18.598   8.403
 2503POPC   C3B35565  37.143  18.485   8.034
 2503POPC   C4B35566  37.241  18.524   7.625
 2504POPC   NC335567   7.581  39.753   9.612
 2504POPC   PO435568   7.771  40.417   9.347
 2504POPC   GL135569   7.563  40.048   9.134
 2504POPC   GL235570   7.334  39.751   9.166
 2504POPC   C1A35571   7.299  40.046   8.762
 2504POPC   D2A35572   7.402  39.831   8.427
 2504POPC   C3A35573   7.418  40.018   8.020
 2504POPC   C4A35574   7.416  39.882   7.577
 2504POPC   C1B35575   7.024  39.618   8.802
 2504POPC   C2B35576   6.979  39.570   8.325
 2504POPC   C3B35577   7.015  39.707   7.872
 2504POPC   C4B35578   6.927  39.773   7.389
 2505POPC   NC335579   4.408  40.767   9.464
 2505POPC   PO435580   3.804  41.045   9.536
 2505POPC   GL135581   4.008  40.956   9.152
 2505POPC   GL235582   4.317  41.067   9.079
 2505POPC   C1A35583   4.146  40.620   8.850
 2505POPC   D2A35584   4.284  40.425   8.457
 2505POPC   C3A35585   4.249  40.663   8.055
 2505POPC   C4A35586   3.900  40.930   7.890
 2505POPC   C1B35587   4.543  40.934   8.753
 2505POPC   C2B35588   4.551  41.058   8.342
 2505POPC   C3B35589   4.712  40.967   7.944
 2505POPC   C4B35590   4.621  41.005   7.548
 2506POPC   NC335591  39.501  30.741   9.573
 2506POPC   PO435592  38.993  30.964   9.334
 2506POPC   GL135593  39.279  30.674   9.105
 2506POPC   GL235594  39.564  30.413   9.132
 2506POPC   C1A35595  39.239  30.562   8.702
 2506POPC   D2A35596  39.377  30.746   8.321
 2506POPC   C3A35597  39.152  30.625   7.947
 2506POPC   C4A35598  39.001  30.862   7.617
 2506POPC   C1B35599  39.521  30.158   8.785
 2506POPC   C2B35600  39.604  30.278   8.365
 2506POPC   C3B35601  39.648  30.445   7.975
 2506POPC   C4B35602  39.655  30.227   7.611
 2507POPC   NC335603  34.017  27.772   9.567
 2507POPC   PO435604  33.458  27.384   9.641
 2507POPC   GL135605  33.668  27.492   9.235
 2507POPC   GL235606  33.944  27.656   9.087
 2507POPC   C1A35607  33.552  27.487   8.781
 2507POPC   D2A35608  33.435  27.734   8.392
 2507POPC   C3A35609  33.569  27.503   8.021
 2507POPC   C4A35610  33.909  27.524   7.738
 2507POPC   C1B35611  34.167  27.717   8.735
 2507POPC   C2B35612  34.161  27.606   8.317
 2507POPC   C3B35613  34.294  27.775   7.965
 2507POPC   C4B35614  34.127  28.024   7.645
 2508POPC   NC335615  12.514  37.709   9.674
 2508POPC   PO435616  12.879  38.158   9.491
 2508POPC   GL135617  12.998  37.856   9.148
 2508POPC   GL235618  13.031  37.482   9.185
 2508POPC   C1A35619  12.815  37.777   8.749
 2508POPC   D2A35620  12.685  37.825   8.363
 2508POPC   C3A35621  12.891  37.802   8.010
 2508POPC   C4A35622  12.745  37.835   7.617
 2508POPC   C1B35623  13.117  37.380   8.734
 2508POPC   C2B35624  12.863  37.342   8.313
 2508POPC   C3B35625  12.729  37.344   7.849
 2508POPC   C4B35626  12.915  37.390   7.431
 2509POPC   NC335627   6.881  17.790   9.459
 2509POPC   PO435628   6.317  17.951   9.695
 2509POPC   GL135629   6.477  17.772   9.187
 2509POPC   GL235630   6.610  17.416   9.198
 2509POPC   C1A35631   6.504  17.697   8.736
 2509POPC   D2A35632   6.767  17.443   8.442
 2509POPC   C3A35633   6.737  17.600   8.023
 2509POPC   C4A35634   6.373  17.607   7.770
 2509POPC   C1B35635   6.506  17.191   8.815
 2509POPC   C2B35636   6.280  17.275   8.438
 2509POPC   C3B35637   6.408  17.137   8.019
 2509POPC   C4B35638   6.831  17.114   7.841
 2510POPC   NC335639  15.775   9.301   9.455
 2510POPC   PO435640  16.200   8.900   9.326
 2510POPC   GL135641  15.884   9.008   9.054
 2510POPC   GL235642  15.655   8.784   8.964
 2510POPC   C1A35643  15.786   9.318   8.735
 2510POPC   D2A35644  15.629   9.498   8.299
 2510POPC   C3A35645  15.791   9.214   7.970
 2510POPC   C4A35646  16.149   9.086   7.719
 2510POPC   C1B35647  15.930   8.835   8.587
 2510POPC   C2B35648  16.020   8.793   8.172
 2510POPC   C3B35649  16.175   8.566   7.813
 2510POPC   C4B35650  16.094   8.703   7.382
 2511POPC   NC335651  12.112  30.442   9.517
 2511POPC   PO435652  11.698  30.865   9.539
 2511POPC   GL135653  11.900  30.785   9.166
 2511POPC   GL235654  12.247  30.792   9.166
 2511POPC   C1A35655  11.839  30.615   8.763
 2511POPC   D2A35656  12.033  30.634   8.376
 2511POPC   C3A35657  11.881  30.439   8.041
 2511POPC   C4A35658  11.797  30.611   7.696
 2511POPC   C1B35659  12.381  30.728   8.751
 2511POPC   C2B35660  12.566  30.737   8.353
 2511POPC   C3B35661  12.517  30.866   7.948
 2511POPC   C4B35662  12.441  30.584   7.651
 2512POPC   NC335663   0.434  10.215   9.522
 2512POPC   PO435664   0.820  10.729   9.492
 2512POPC   GL135665   0.610  10.562   9.150
 2512POPC   GL235666   0.268  10.456   9.103
 2512POPC   C1A35667   0.659  10.424   8.735
 2512POPC   D2A35668   0.501  10.685   8.401
 2512POPC   C3A35669   0.557  10.487   8.043
 2512POPC   C4A35670   0.240  10.518   7.831
 2512POPC   C1B35671   0.155  10.413   8.674
 2512POPC   C2B35672  44.902  10.150   8.424
 2512POPC   C3B35673  44.846  10.225   8.000
 2512POPC   C4B35674  44.923  10.242   7.556
 2513POPC   NC335675  43.501  32.386   9.518
 2513POPC   PO435676  42.978  32.003   9.486
 2513POPC   GL135677  43.186  32.185   9.140
 2513POPC   GL235678  43.506  32.020   9.106
 2513POPC   C1A35679  43.106  32.366   8.725
 2513POPC   D2A35680  42.866  32.274   8.353
 2513POPC   C3A35681  42.890  32.431   7.917
 2513POPC   C4A35682  43.021  32.560   7.484
 2513POPC   C1B35683  43.615  32.331   8.844
 2513POPC   C2B35684  43.586  32.266   8.445
 2513POPC   C3B35685  43.315  32.099   8.137
 2513POPC   C4B35686  43.472  32.274   7.757
 2514POPC   NC335687  21.101   4.900   9.585
 2514POPC   PO435688  21.611   5.413   9.607
 2514POPC   GL135689  21.494   5.212   9.241
 2514POPC   GL235690  21.146   5.291   9.232
 2514POPC   C1A35691  21.393   5.368   8.797
 2514POPC   D2A35692  21.677   5.417   8.463
 2514POPC   C3A35693  21.521   5.312   8.005
 2514POPC   C4A35694  21.599   5.398   7.523
 2514POPC   C1B35695  21.233   4.890   8.962
 2514POPC   C2B35696  21.261   4.785   8.532
 2514POPC   C3B35697  21.259   4.884   8.095
 2514POPC   C4B35698  21.242   5.006   7.635
 2515POPC   NC335699  43.470  13.001   9.462
 2515POPC   PO435700  44.106  12.708   9.620
 2515POPC   GL135701  44.032  12.717   9.181
 2515POPC   GL235702  43.683  12.792   9.048
 2515POPC   C1A35703  44.098  12.817   8.736
 2515POPC   D2A35704  43.819  12.973   8.390
 2515POPC   C3A35705  43.781  12.778   7.988
 2515POPC   C4A35706  44.109  12.704   7.706
 2515POPC   C1B35707  43.493  13.140   8.780
 2515POPC   C2B35708  43.359  13.209   8.327
 2515POPC   C3B35709  43.551  13.240   7.891
 2515POPC   C4B35710  43.718  13.015   7.509
 2516POPC   NC335711   9.747  31.276   9.530
 2516POPC   PO435712   9.730  31.987   9.614
 2516POPC   GL135713   9.859  31.712   9.227
 2516POPC   GL235714   9.735  31.396   9.055
 2516POPC   C1A35715   9.678  31.785   8.785
 2516POPC   D2A35716   9.435  31.666   8.455
 2516POPC   C3A35717   9.686  31.554   8.093
 2516POPC   C4A35718   9.649  31.706   7.663
 2516POPC   C1B35719   9.818  31.331   8.620
 2516POPC   C2B35720  10.140  31.339   8.290
 2516POPC   C3B35721  10.155  31.248   7.859
 2516POPC   C4B35722   9.820  31.243   7.530
 2517POPC   NC335723  24.530  27.573   9.549
 2517POPC   PO435724  24.003  28.015   9.726
 2517POPC   GL135725  24.238  27.909   9.279
 2517POPC   GL235726  24.176  27.560   9.179
 2517POPC   C1A35727  24.371  27.850   8.811
 2517POPC   D2A35728  24.229  27.621   8.427
 2517POPC   C3A35729  24.472  27.616   8.013
 2517POPC   C4A35730  24.593  27.927   7.642
 2517POPC   C1B35731  24.419  27.336   8.834
 2517POPC   C2B35732  24.570  27.235   8.405
 2517POPC   C3B35733  24.261  27.090   8.122
 2517POPC   C4B35734  24.245  27.264   7.699
 2518POPC   NC335735  23.274  40.016   9.503
 2518POPC   PO435736  23.859  40.315   9.639
 2518POPC   GL135737  23.694  40.216   9.228
 2518POPC   GL235738  23.684  39.873   9.239
 2518POPC   C1A35739  23.493  40.128   8.802
 2518POPC   D2A35740  23.456  40.380   8.417
 2518POPC   C3A35741  23.562  40.121   8.050
 2518POPC   C4A35742  23.857  40.139   7.705
 2518POPC   C1B35743  23.912  39.823   8.855
 2518POPC   C2B35744  23.745  39.787   8.435
 2518POPC   C3B35745  23.874  39.695   8.020
 2518POPC   C4B35746  23.687  39.565   7.651
 2519POPC   NC335747   8.275   1.779  10.013
 2519POPC   PO435748   7.977   2.221   9.544
 2519POPC   GL135749   8.285   2.048   9.196
 2519POPC   GL235750   8.362   1.718   9.330
 2519POPC   C1A35751   8.214   2.057   8.743
 2519POPC   D2A35752   7.996   1.881   8.375
 2519POPC   C3A35753   8.060   2.095   8.001
 2519POPC   C4A35754   8.344   2.206   7.633
 2519POPC   C1B35755   8.434   1.615   8.869
 2519POPC   C2B35756   8.480   1.743   8.420
 2519POPC   C3B35757   8.515   1.876   8.019
 2519POPC   C4B35758   8.358   1.696   7.692
 2520POPC   NC335759   2.501  29.485   9.353
 2520POPC   PO435760   2.409  30.124   9.424
 2520POPC   GL135761   2.785  30.062   9.177
 2520POPC   GL235762   2.922  29.721   9.172
 2520POPC   C1A35763   2.978  30.182   8.794
 2520POPC   D2A35764   3.248  30.189   8.434
 2520POPC   C3A35765   3.041  30.264   8.046
 2520POPC   C4A35766   2.961  30.136   7.650
 2520POPC   C1B35767   2.671  29.768   8.767
 2520POPC   C2B35768   2.810  29.912   8.367
 2520POPC   C3B35769   2.868  29.741   7.967
 2520POPC   C4B35770   2.618  29.619   7.607
 2521POPC   NC335771   5.897   9.420   9.426
 2521POPC   PO435772   6.286   9.956   9.439
 2521POPC   GL135773   5.894   9.979   9.202
 2521POPC   GL235774   5.764   9.678   9.005
 2521POPC   C1A35775   5.906  10.102   8.775
 2521POPC   D2A35776   5.839   9.792   8.427
 2521POPC   C3A35777   5.854   9.904   7.996
 2521POPC   C4A35778   6.233   9.864   7.748
 2521POPC   C1B35779   6.097   9.495   8.740
 2521POPC   C2B35780   6.211   9.482   8.261
 2521POPC   C3B35781   5.993   9.409   7.846
 2521POPC   C4B35782   5.926   9.588   7.441
 2522POPC   NC335783  33.295  27.074   9.949
 2522POPC   PO435784  33.048  26.609   9.416
 2522POPC   GL135785  33.076  26.724   9.023
 2522POPC   GL235786  32.784  26.566   8.955
 2522POPC   C1A35787  33.180  27.057   8.757
 2522POPC   D2A35788  33.287  27.229   8.389
 2522POPC   C3A35789  33.314  26.847   8.192
 2522POPC   C4A35790  33.364  26.789   7.783
 2522POPC   C1B35791  32.670  26.924   8.728
 2522POPC   C2B35792  32.786  27.104   8.363
 2522POPC   C3B35793  32.604  27.007   8.012
 2522POPC   C4B35794  32.760  26.809   7.712
 2523POPC   NC335795  22.348  30.819   9.832
 2523POPC   PO435796  21.734  30.695   9.502
 2523POPC   GL135797  21.928  30.623   9.139
 2523POPC   GL235798  22.266  30.743   9.149
 2523POPC   C1A35799  22.032  30.542   8.722
 2523POPC   D2A35800  22.059  30.775   8.363
 2523POPC   C3A35801  22.154  30.704   7.947
 2523POPC   C4A35802  21.805  30.953   7.911
 2523POPC   C1B35803  22.345  30.987   8.730
 2523POPC   C2B35804  22.306  31.220   8.284
 2523POPC   C3B35805  22.270  31.199   7.810
 2523POPC   C4B35806  22.535  30.993   7.514
 2524POPC   NC335807  34.901  37.811   9.769
 2524POPC   PO435808  34.293  37.590   9.538
 2524POPC   GL135809  34.481  37.482   9.162
 2524POPC   GL235810  34.803  37.580   9.243
 2524POPC   C1A35811  34.383  37.588   8.744
 2524POPC   D2A35812  34.173  37.628   8.354
 2524POPC   C3A35813  34.300  37.271   8.099
 2524POPC   C4A35814  34.670  37.135   7.883
 2524POPC   C1B35815  34.908  37.496   8.796
 2524POPC   C2B35816  34.725  37.387   8.388
 2524POPC   C3B35817  34.637  37.656   8.015
 2524POPC   C4B35818  34.848  37.785   7.630
 2525POPC   NC335819  28.552  23.763   9.466
 2525POPC   PO435820  27.921  24.100   9.557
 2525POPC   GL135821  28.145  23.930   9.150
 2525POPC   GL235822  28.479  24.053   9.005
 2525POPC   C1A35823  28.281  23.616   8.815
 2525POPC   D2A35824  28.537  23.547   8.425
 2525POPC   C3A35825  28.291  23.706   8.055
 2525POPC   C4A35826  28.000  23.438   7.858
 2525POPC   C1B35827  28.490  24.038   8.541
 2525POPC   C2B35828  28.719  23.953   8.155
 2525POPC   C3B35829  28.656  23.962   7.721
 2525POPC   C4B35830  28.838  23.869   7.317
 2526POPC   NC335831  34.793   3.484   9.789
 2526POPC   PO435832  34.362   3.889   9.767
 2526POPC   GL135833  34.535   3.707   9.295
 2526POPC   GL235834  34.812   3.460   9.293
 2526POPC   C1A35835  34.427   3.598   8.804
 2526POPC   D2A35836  34.153   3.374   8.427
 2526POPC   C3A35837  34.232   3.498   7.976
 2526POPC   C4A35838  34.540   3.423   7.670
 2526POPC   C1B35839  34.934   3.439   8.895
 2526POPC   C2B35840  35.004   3.463   8.475
 2526POPC   C3B35841  34.722   3.565   8.153
 2526POPC   C4B35842  34.915   3.727   7.809
 2527POPC   NC335843  13.066   3.318   9.658
 2527POPC   PO435844  12.775   3.751   9.430
 2527POPC   GL135845  12.904   3.390   9.166
 2527POPC   GL235846  12.624   3.311   8.997
 2527POPC   C1A35847  13.047   3.211   8.730
 2527POPC   D2A35848  12.917   3.339   8.288
 2527POPC   C3A35849  13.169   3.282   7.913
 2527POPC   C4A35850  13.111   3.523   7.489
 2527POPC   C1B35851  12.493   3.701   8.799
 2527POPC   C2B35852  12.414   3.885   8.403
 2527POPC   C3B35853  12.636   3.834   8.017
 2527POPC   C4B35854  12.694   3.442   7.806
 2528POPC   NC335855   2.046   8.792   9.520
 2528POPC   PO435856   1.924   9.492   9.686
 2528POPC   GL135857   1.724   9.382   9.256
 2528POPC   GL235858   1.727   9.020   9.206
 2528POPC   C1A35859   1.823   9.297   8.788
 2528POPC   D2A35860   2.038   9.062   8.433
 2528POPC   C3A35861   2.123   9.148   8.002
 2528POPC   C4A35862   1.817   9.235   7.701
 2528POPC   C1B35863   1.897   8.767   8.859
 2528POPC   C2B35864   1.795   8.619   8.452
 2528POPC   C3B35865   1.700   8.810   8.064
 2528POPC   C4B35866   1.862   8.729   7.659
 2529POPC   NC335867  44.188   3.395   9.427
 2529POPC   PO435868  43.604   3.711   9.565
 2529POPC   GL135869  43.732   3.459   9.204
 2529POPC   GL235870  43.795   3.773   9.083
 2529POPC   C1A35871  43.988   3.366   8.815
 2529POPC   D2A35872  43.885   3.479   8.406
 2529POPC   C3A35873  43.983   3.291   8.040
 2529POPC   C4A35874  44.090   3.553   7.723
 2529POPC   C1B35875  43.551   3.675   8.742
 2529POPC   C2B35876  43.554   3.894   8.369
 2529POPC   C3B35877  43.680   3.730   7.996
 2529POPC   C4B35878  43.557   3.494   7.700
 2530POPC   NC335879   2.902   0.129   9.508
 2530POPC   PO435880   2.345   0.492   9.451
 2530POPC   GL135881   2.580   0.325   9.127
 2530POPC   GL235882   2.888   0.486   9.088
 2530POPC   C1A35883   2.516   0.472   8.705
 2530POPC   D2A35884   2.413   0.391   8.304
 2530POPC   C3A35885   2.464   0.592   7.911
 2530POPC   C4A35886   2.673   0.548   7.511
 2530POPC   C1B35887   3.049   0.412   8.671
 2530POPC   C2B35888   2.883   0.214   8.329
 2530POPC   C3B35889   2.776   0.201   7.941
 2530POPC   C4B35890   3.095   0.283   7.690
 2531POPC   NC335891  19.727   9.118   9.725
 2531POPC   PO435892  20.222   8.796   9.664
 2531POPC   GL135893  20.092   8.985   9.250
 2531POPC   GL235894  19.776   9.157   9.151
 2531POPC   C1A35895  20.114   8.896   8.790
 2531POPC   D2A35896  20.285   8.864   8.337
 2531POPC   C3A35897  19.970   8.931   7.975
 2531POPC   C4A35898  19.768   8.957   7.539
 2531POPC   C1B35899  19.590   9.449   8.784
 2531POPC   C2B35900  19.440   9.475   8.309
 2531POPC   C3B35901  19.473   9.165   7.930
 2531POPC   C4B35902  19.262   9.030   7.528
 2532POPC   NC335903  14.657  44.258   9.623
 2532POPC   PO435904  13.971  44.082   9.628
 2532POPC   GL135905  14.311  44.069   9.312
 2532POPC   GL235906  14.389  43.726   9.208
 2532POPC   C1A35907  14.633  44.096   8.952
 2532POPC   D2A35908  14.563  43.852   8.568
 2532POPC   C3A35909  14.532  44.035   8.155
 2532POPC   C4A35910  14.671  44.115   7.721
 2532POPC   C1B35911  14.137  43.913   8.867
 2532POPC   C2B35912  14.011  43.886   8.463
 2532POPC   C3B35913  14.026  43.955   8.027
 2532POPC   C4B35914  14.173  44.156   7.669
 2533POPC   NC335915  15.791  14.241   9.483
 2533POPC   PO435916  15.577  14.925   9.695
 2533POPC   GL135917  15.805  14.721   9.298
 2533POPC   GL235918  15.652  14.480   9.061
 2533POPC   C1A35919  16.077  14.672   8.885
 2533POPC   D2A35920  15.797  14.547   8.530
 2533POPC   C3A35921  15.990  14.604   8.108
 2533POPC   C4A35922  15.787  14.588   7.703
 2533POPC   C1B35923  15.975  14.186   8.853
 2533POPC   C2B35924  15.929  14.071   8.420
 2533POPC   C3B35925  15.766  14.158   8.015
 2533POPC   C4B35926  16.071  14.141   7.679
 2534POPC   NC335927  17.951  43.036   9.423
 2534POPC   PO435928  17.315  42.953   9.541
 2534POPC   GL135929  17.306  43.106   9.166
 2534POPC   GL235930  17.112  42.869   9.017
 2534POPC   C1A35931  17.549  43.256   8.831
 2534POPC   D2A35932  17.433  43.145   8.448
 2534POPC   C3A35933  17.623  43.305   8.113
 2534POPC   C4A35934  17.476  43.139   7.749
 2534POPC   C1B35935  17.089  42.787   8.571
 2534POPC   C2B35936  17.133  42.892   8.107
 2534POPC   C3B35937  17.079  42.838   7.652
 2534POPC   C4B35938  17.014  43.013   7.199
 2535POPC   NC335939  11.556  43.132   9.743
 2535POPC   PO435940  11.059  42.732   9.481
 2535POPC   GL135941  11.185  43.051   9.195
 2535POPC   GL235942  11.145  43.406   9.339
 2535POPC   C1A35943  11.214  43.006   8.747
 2535POPC   D2A35944  11.459  43.063   8.390
 2535POPC   C3A35945  11.288  42.912   7.991
 2535POPC   C4A35946  11.588  42.770   7.697
 2535POPC   C1B35947  11.083  43.480   8.892
 2535POPC   C2B35948  11.077  43.417   8.450
 2535POPC   C3B35949  11.305  43.424   8.070
 2535POPC   C4B35950  11.493  43.332   7.659
 2536POPC   NC335951  33.792  37.619   9.546
 2536POPC   PO435952  33.711  38.293   9.364
 2536POPC   GL135953  33.637  37.886   9.149
 2536POPC   GL235954  33.984  37.674   9.079
 2536POPC   C1A35955  33.531  37.555   8.841
 2536POPC   D2A35956  33.647  37.597   8.402
 2536POPC   C3A35957  33.493  37.943   8.202
 2536POPC   C4A35958  33.550  37.809   7.799
 2536POPC   C1B35959  33.883  37.928   8.718
 2536POPC   C2B35960  33.925  38.185   8.375
 2536POPC   C3B35961  34.005  38.000   8.000
 2536POPC   C4B35962  34.023  37.612   7.855
 2537POPC   NC335963  33.692  42.248   9.449
 2537POPC   PO435964  34.324  42.319   9.617
 2537POPC   GL135965  34.117  42.445   9.213
 2537POPC   GL235966  34.063  42.114   9.097
 2537POPC   C1A35967  33.872  42.470   8.801
 2537POPC   D2A35968  33.600  42.316   8.480
 2537POPC   C3A35969  33.671  42.344   8.035
 2537POPC   C4A35970  33.786  42.612   7.698
 2537POPC   C1B35971  33.911  41.950   8.729
 2537POPC   C2B35972  34.078  42.093   8.348
 2537POPC   C3B35973  34.061  41.954   7.934
 2537POPC   C4B35974  33.965  42.131   7.558
 2538POPC   NC335975  14.529   0.830   9.527
 2538POPC   PO435976  14.258   1.462   9.534
 2538POPC   GL135977  14.391   1.287   9.125
 2538POPC   GL235978  14.328   0.960   9.083
 2538POPC   C1A35979  14.598   1.318   8.702
 2538POPC   D2A35980  14.524   1.686   8.392
 2538POPC   C3A35981  14.541   1.555   7.985
 2538POPC   C4A35982  14.545   1.158   7.816
 2538POPC   C1B35983  14.187   0.998   8.675
 2538POPC   C2B35984  14.344   0.879   8.271
 2538POPC   C3B35985  14.141   0.869   7.884
 2538POPC   C4B35986  14.048   1.308   7.739
 2539POPC   NC335987  30.718  37.502   9.737
 2539POPC   PO435988  31.033  38.051   9.550
 2539POPC   GL135989  30.821  37.799   9.212
 2539POPC   GL235990  30.780  37.426   9.224
 2539POPC   C1A35991  30.929  37.635   8.804
 2539POPC   D2A35992  30.780  37.644   8.442
 2539POPC   C3A35993  31.026  37.546   8.075
 2539POPC   C4A35994  30.849  37.511   7.676
 2539POPC   C1B35995  30.555  37.312   8.795
 2539POPC   C2B35996  30.322  37.416   8.414
 2539POPC   C3B35997  30.479  37.435   8.016
 2539POPC   C4B35998  30.283  37.271   7.663
 2540POPC   NC335999  35.573  20.736   9.371
 2540POPC   PO436000  34.981  20.939   9.352
 2540POPC   GL136001  35.151  20.696   9.044
 2540POPC   GL236002  35.171  20.358   9.179
 2540POPC   C1A36003  35.303  20.721   8.641
 2540POPC   D2A36004  35.285  20.626   8.232
 2540POPC   C3A36005  35.455  20.855   7.923
 2540POPC   C4A36006  35.394  20.714   7.510
 2540POPC   C1B36007  35.414  20.236   8.801
 2540POPC   C2B36008  35.589  20.226   8.372
 2540POPC   C3B36009  35.544  20.311   7.917
 2540POPC   C4B36010  35.815  20.373   7.549
 2541POPC   NC336011  17.826  11.080   9.519
 2541POPC   PO436012  17.152  11.311   9.641
 2541POPC   GL136013  17.440  11.327   9.293
 2541POPC   GL236014  17.232  11.173   9.093
 2541POPC   C1A36015  17.590  11.574   8.937
 2541POPC   D2A36016  17.796  11.629   8.546
 2541POPC   C3A36017  17.656  11.692   8.143
 2541POPC   C4A36018  17.487  11.475   7.809
 2541POPC   C1B36019  17.437  11.127   8.666
 2541POPC   C2B36020  17.648  11.179   8.242
 2541POPC   C3B36021  17.598  10.930   7.847
 2541POPC   C4B36022  17.529  10.643   7.498
 2542POPC   NC336023  29.367  22.240   9.547
 2542POPC   PO436024  28.694  22.433   9.353
 2542POPC   GL136025  28.822  22.233   9.021
 2542POPC   GL236026  29.148  22.199   9.107
 2542POPC   C1A36027  29.068  22.386   8.661
 2542POPC   D2A36028  29.344  22.246   8.363
 2542POPC   C3A36029  29.089  22.176   8.025
 2542POPC   C4A36030  29.054  22.458   7.684
 2542POPC   C1B36031  29.447  22.003   8.808
 2542POPC   C2B36032  29.498  21.744   8.411
 2542POPC   C3B36033  29.598  21.960   8.002
 2542POPC   C4B36034  29.389  22.086   7.640
 2543POPC   NC336035  25.276  36.463   9.293
 2543POPC   PO436036  25.580  35.916   9.533
 2543POPC   GL136037  25.424  35.985   9.112
 2543POPC   GL236038  25.078  35.938   9.059
 2543POPC   C1A36039  25.518  36.018   8.674
 2543POPC   D2A36040  25.492  35.827   8.254
 2543POPC   C3A36041  25.441  36.065   7.872
 2543POPC   C4A36042  25.503  36.524   7.867
 2543POPC   C1B36043  25.024  36.132   8.660
 2543POPC   C2B36044  25.151  36.281   8.267
 2543POPC   C3B36045  24.902  36.214   7.934
 2543POPC   C4B36046  24.929  35.909   7.666
 2544POPC   NC336047  10.472  23.930   9.522
 2544POPC   PO436048  10.344  23.254   9.507
 2544POPC   GL136049  10.405  23.557   9.147
 2544POPC   GL236050  10.243  23.908   9.076
 2544POPC   C1A36051  10.713  23.655   8.814
 2544POPC   D2A36052  10.669  23.932   8.464
 2544POPC   C3A36053  10.767  23.815   8.053
 2544POPC   C4A36054  10.712  23.958   7.638
 2544POPC   C1B36055  10.208  23.708   8.683
 2544POPC   C2B36056  10.267  23.650   8.255
 2544POPC   C3B36057  10.259  23.818   7.854
 2544POPC   C4B36058  10.276  23.865   7.402
 2545POPC   NC336059  28.481  17.717   9.477
 2545POPC   PO436060  27.900  17.689   9.528
 2545POPC   GL136061  28.146  17.453   9.170
 2545POPC   GL236062  28.485  17.271   9.210
 2545POPC   C1A36063  28.344  17.552   8.754
 2545POPC   D2A36064  28.498  17.667   8.317
 2545POPC   C3A36065  28.304  17.654   7.867
 2545POPC   C4A36066  28.458  17.870   7.479
 2545POPC   C1B36067  28.682  17.144   8.812
 2545POPC   C2B36068  28.825  17.274   8.361
 2545POPC   C3B36069  28.611  17.266   7.981
 2545POPC   C4B36070  28.739  17.130   7.598
 2546POPC   NC336071  22.284  22.561   9.570
 2546POPC   PO436072  21.895  23.173   9.446
 2546POPC   GL136073  22.185  23.053   9.152
 2546POPC   GL236074  22.101  22.717   9.127
 2546POPC   C1A36075  22.453  23.170   8.817
 2546POPC   D2A36076  22.402  23.277   8.375
 2546POPC   C3A36077  22.298  22.936   8.084
 2546POPC   C4A36078  22.252  22.912   7.634
 2546POPC   C1B36079  22.069  22.809   8.700
 2546POPC   C2B36080  21.864  22.722   8.311
 2546POPC   C3B36081  21.893  22.640   7.896
 2546POPC   C4B36082  21.763  22.864   7.530
 2547POPC   NC336083  29.110   7.916   9.471
 2547POPC   PO436084  29.107   8.596   9.436
 2547POPC   GL136085  29.209   8.239   9.098
 2547POPC   GL236086  29.399   7.873   9.073
 2547POPC   C1A36087  28.957   8.135   8.717
 2547POPC   D2A36088  28.704   8.253   8.339
 2547POPC   C3A36089  28.934   8.117   7.989
 2547POPC   C4A36090  29.195   8.284   7.670
 2547POPC   C1B36091  29.498   8.001   8.713
 2547POPC   C2B36092  29.317   8.028   8.348
 2547POPC   C3B36093  29.374   7.863   7.974
 2547POPC   C4B36094  29.569   7.944   7.603
 2548POPC   NC336095  13.423  40.536   9.649
 2548POPC   PO436096  13.721  41.136   9.583
 2548POPC   GL136097  13.524  40.890   9.232
 2548POPC   GL236098  13.663  40.542   9.190
 2548POPC   C1A36099  13.559  40.807   8.760
 2548POPC   D2A36100  13.540  41.116   8.443
 2548POPC   C3A36101  13.530  40.977   8.035
 2548POPC   C4A36102  13.928  40.992   7.906
 2548POPC   C1B36103  13.269  40.425   8.961
 2548POPC   C2B36104  13.225  40.344   8.532
 2548POPC   C3B36105  13.575  40.466   8.296
 2548POPC   C4B36106  13.717  40.515   7.883
 2549POPC   NC336107  38.021  28.656   9.559
 2549POPC   PO436108  37.332  28.570   9.510
 2549POPC   GL136109  37.652  28.364   9.245
 2549POPC   GL236110  37.384  28.342   9.043
 2549POPC   C1A36111  37.891  28.503   8.857
 2549POPC   D2A36112  37.825  28.726   8.455
 2549POPC   C3A36113  37.897  28.504   8.067
 2549POPC   C4A36114  37.774  28.441   7.644
 2549POPC   C1B36115  37.593  28.115   8.767
 2549POPC   C2B36116  37.824  28.128   8.416
 2549POPC   C3B36117  37.745  28.016   7.989
 2549POPC   C4B36118  37.509  27.866   7.660
 2550POPC   NC336119  27.458  40.309   9.437
 2550POPC   PO436120  27.746  40.859   9.609
 2550POPC   GL136121  27.692  40.973   9.186
 2550POPC   GL236122  27.433  40.755   9.184
 2550POPC   C1A36123  27.580  40.943   8.747
 2550POPC   D2A36124  27.725  40.829   8.365
 2550POPC   C3A36125  27.834  41.115   8.046
 2550POPC   C4A36126  27.581  41.057   7.680
 2550POPC   C1B36127  27.228  40.510   8.859
 2550POPC   C2B36128  27.276  40.562   8.452
 2550POPC   C3B36129  27.307  40.754   8.064
 2550POPC   C4B36130  27.414  40.561   7.678
 2551POPC   NC336131  31.014  24.974   9.265
 2551POPC   PO436132  30.597  25.511   9.446
 2551POPC   GL136133  30.776  25.394   9.108
 2551POPC   GL236134  30.541  25.113   9.098
 2551POPC   C1A36135  30.824  25.244   8.692
 2551POPC   D2A36136  30.839  25.042   8.306
 2551POPC   C3A36137  30.611  25.290   8.040
 2551POPC   C4A36138  30.813  25.188   7.689
 2551POPC   C1B36139  30.254  25.051   8.788
 2551POPC   C2B36140  30.294  25.016   8.361
 2551POPC   C3B36141  30.156  25.082   7.940
 2551POPC   C4B36142  30.378  24.953   7.574
 2552POPC   NC336143   5.502  33.500   9.519
 2552POPC   PO436144   6.016  33.877   9.458
 2552POPC   GL136145   5.922  33.762   9.059
 2552POPC   GL236146   5.745  33.459   9.061
 2552POPC   C1A36147   5.936  33.923   8.640
 2552POPC   D2A36148   5.971  33.595   8.314
 2552POPC   C3A36149   6.308  33.519   7.983
 2552POPC   C4A36150   5.972  33.571   7.706
 2552POPC   C1B36151   5.517  33.645   8.735
 2552POPC   C2B36152   5.486  33.809   8.378
 2552POPC   C3B36153   5.777  34.037   8.154
 2552POPC   C4B36154   5.794  34.053   7.725
 2553POPC   NC336155  10.731   2.096   9.659
 2553POPC   PO436156  10.183   1.730   9.470
 2553POPC   GL136157  10.468   1.998   9.231
 2553POPC   GL236158  10.217   1.968   8.992
 2553POPC   C1A36159  10.676   2.118   8.812
 2553POPC   D2A36160  10.401   1.942   8.501
 2553POPC   C3A36161  10.449   1.926   8.069
 2553POPC   C4A36162  10.461   1.959   7.634
 2553POPC   C1B36163  10.074   1.627   8.708
 2553POPC   C2B36164  10.193   1.534   8.269
 2553POPC   C3B36165  10.079   1.652   7.841
 2553POPC   C4B36166  10.233   1.468   7.473
 2554POPC   NC336167  43.396  38.784   9.696
 2554POPC   PO436168  42.839  38.668   9.570
 2554POPC   GL136169  43.139  38.755   9.207
 2554POPC   GL236170  43.490  38.858   9.170
 2554POPC   C1A36171  43.136  38.868   8.755
 2554POPC   D2A36172  43.258  38.649   8.381
 2554POPC   C3A36173  42.958  38.553   8.041
 2554POPC   C4A36174  42.914  38.189   7.756
 2554POPC   C1B36175  43.456  38.488   8.865
 2554POPC   C2B36176  43.410  38.178   8.510
 2554POPC   C3B36177  43.367  38.241   8.039
 2554POPC   C4B36178  43.319  38.536   7.677
 2555POPC   NC336179   2.001  30.304   9.560
 2555POPC   PO436180   1.694  29.647   9.615
 2555POPC   GL136181   1.889  29.647   9.210
 2555POPC   GL236182   1.861  30.020   9.170
 2555POPC   C1A36183   2.126  29.768   8.823
 2555POPC   D2A36184   1.907  29.839   8.438
 2555POPC   C3A36185   2.104  29.701   8.056
 2555POPC   C4A36186   1.802  29.692   7.724
 2555POPC   C1B36187   1.927  30.247   8.777
 2555POPC   C2B36188   1.760  30.335   8.382
 2555POPC   C3B36189   1.837  30.147   7.991
 2555POPC   C4B36190   1.822  30.423   7.656
 2556POPC   NC336191   0.338  21.691   9.535
 2556POPC   PO436192   0.487  21.057   9.707
 2556POPC   GL136193   0.455  21.260   9.338
 2556POPC   GL236194   0.159  21.267   9.258
 2556POPC   C1A36195   0.552  21.396   8.927
 2556POPC   D2A36196   0.358  21.333   8.535
 2556POPC   C3A36197   0.562  21.560   8.213
 2556POPC   C4A36198   0.600  21.538   7.776
 2556POPC   C1B36199   0.016  21.536   8.938
 2556POPC   C2B36200  44.836  21.442   8.534
 2556POPC   C3B36201  44.941  21.393   8.088
 2556POPC   C4B36202   0.120  21.439   7.645
 2557POPC   NC336203  17.805  39.956   9.417
 2557POPC   PO436204  17.203  39.769   9.546
 2557POPC   GL136205  17.434  39.753   9.118
 2557POPC   GL236206  17.375  40.074   9.033
 2557POPC   C1A36207  17.755  39.813   8.716
 2557POPC   D2A36208  18.017  39.777   8.310
 2557POPC   C3A36209  17.773  39.815   7.913
 2557POPC   C4A36210  17.368  39.643   7.688
 2557POPC   C1B36211  17.438  40.234   8.617
 2557POPC   C2B36212  17.399  40.086   8.205
 2557POPC   C3B36213  17.418  40.152   7.783
 2557POPC   C4B36214  17.742  40.446   7.735
 2558POPC   NC336215  13.366  42.937   9.531
 2558POPC   PO436216  13.991  43.182   9.400
 2558POPC   GL136217  13.666  43.196   9.120
 2558POPC   GL236218  13.326  43.106   9.069
 2558POPC   C1A36219  13.679  43.048   8.699
 2558POPC   D2A36220  13.424  42.975   8.353
 2558POPC   C3A36221  13.707  42.987   8.018
 2558POPC   C4A36222  14.086  42.737   7.899
 2558POPC   C1B36223  13.252  43.421   8.793
 2558POPC   C2B36224  13.310  43.611   8.413
 2558POPC   C3B36225  13.370  43.405   8.032
 2558POPC   C4B36226  13.482  43.439   7.604
 2559POPC   NC336227  43.319  13.918   9.439
 2559POPC   PO436228  42.698  14.024   9.440
 2559POPC   GL136229  42.940  13.809   9.103
 2559POPC   GL236230  43.137  13.484   9.139
 2559POPC   C1A36231  43.186  13.880   8.736
 2559POPC   D2A36232  43.294  13.716   8.324
 2559POPC   C3A36233  43.019  13.806   7.968
 2559POPC   C4A36234  43.197  13.825   7.573
 2559POPC   C1B36235  43.025  13.393   8.709
 2559POPC   C2B36236  42.861  13.438   8.294
 2559POPC   C3B36237  43.029  13.297   7.893
 2559POPC   C4B36238  42.846  13.245   7.495
 2560POPC   NC336239  15.313  17.243   9.364
 2560POPC   PO436240  15.531  17.871   9.454
 2560POPC   GL136241  15.230  17.842   9.087
 2560POPC   GL236242  15.023  17.537   9.022
 2560POPC   C1A36243  15.195  17.837   8.620
 2560POPC   D2A36244  14.941  17.640   8.268
 2560POPC   C3A36245  15.215  17.621   7.890
 2560POPC   C4A36246  15.363  17.677   7.450
 2560POPC   C1B36247  14.894  17.178   8.730
 2560POPC   C2B36248  14.732  17.171   8.299
 2560POPC   C3B36249  15.034  17.149   7.933
 2560POPC   C4B36250  15.103  17.240   7.484
 2561POPC   NC336251  25.041  21.538   9.685
 2561POPC   PO436252  24.403  21.281   9.680
 2561POPC   GL136253  24.587  21.278   9.222
 2561POPC   GL236254  24.541  21.584   9.009
 2561POPC   C1A36255  24.529  21.125   8.751
 2561POPC   D2A36256  24.624  21.360   8.364
 2561POPC   C3A36257  24.567  21.203   7.923
 2561POPC   C4A36258  24.812  21.373   7.574
 2561POPC   C1B36259  24.206  21.504   8.695
 2561POPC   C2B36260  24.121  21.312   8.320
 2561POPC   C3B36261  24.174  21.577   7.970
 2561POPC   C4B36262  24.289  21.464   7.559
 2562POPC   NC336263  37.421  30.474   9.507
 2562POPC   PO436264  37.749  31.044   9.569
 2562POPC   GL136265  37.525  31.032   9.145
 2562POPC   GL236266  37.259  30.741   9.067
 2562POPC   C1A36267  37.677  30.991   8.721
 2562POPC   D2A36268  37.775  30.720   8.348
 2562POPC   C3A36269  37.642  30.904   7.924
 2562POPC   C4A36270  37.598  30.870   7.455
 2562POPC   C1B36271  37.139  30.457   8.693
 2562POPC   C2B36272  37.299  30.489   8.282
 2562POPC   C3B36273  37.198  30.338   7.875
 2562POPC   C4B36274  37.429  30.386   7.463
 2563POPC   NC336275  21.933  13.040   9.381
 2563POPC   PO436276  22.505  12.825   9.523
 2563POPC   GL136277  22.312  12.751   9.101
 2563POPC   GL236278  22.078  12.473   9.004
 2563POPC   C1A36279  22.325  12.758   8.633
 2563POPC   D2A36280  22.349  12.994   8.240
 2563POPC   C3A36281  22.362  12.861   7.794
 2563POPC   C4A36282  22.201  12.556   7.492
 2563POPC   C1B36283  21.842  12.819   8.766
 2563POPC   C2B36284  21.856  13.015   8.374
 2563POPC   C3B36285  21.884  12.812   7.965
 2563POPC   C4B36286  21.912  12.970   7.527
 2564POPC   NC336287  30.808  24.224   9.402
 2564POPC   PO436288  30.572  23.579   9.413
 2564POPC   GL136289  30.707  23.821   9.077
 2564POPC   GL236290  30.356  23.913   9.081
 2564POPC   C1A36291  30.817  23.671   8.673
 2564POPC   D2A36292  30.511  23.549   8.355
 2564POPC   C3A36293  30.612  23.632   7.922
 2564POPC   C4A36294  30.615  23.432   7.511
 2564POPC   C1B36295  30.365  23.942   8.645
 2564POPC   C2B36296  30.132  23.976   8.268
 2564POPC   C3B36297  30.168  23.965   7.826
 2564POPC   C4B36298  30.460  23.915   7.512
 2565POPC   NC336299   8.386   2.403   9.535
 2565POPC   PO436300   8.719   2.885   9.447
 2565POPC   GL136301   8.581   2.579   9.107
 2565POPC   GL236302   8.203   2.553   9.082
 2565POPC   C1A36303   8.489   2.478   8.676
 2565POPC   D2A36304   8.439   2.275   8.310
 2565POPC   C3A36305   8.243   2.561   8.017
 2565POPC   C4A36306   7.919   2.518   7.687
 2565POPC   C1B36307   8.122   2.838   8.714
 2565POPC   C2B36308   7.984   2.940   8.266
 2565POPC   C3B36309   8.052   3.016   7.806
 2565POPC   C4B36310   8.328   3.192   7.453
 2566POPC   NC336311  43.179   4.051   9.742
 2566POPC   PO436312  43.326   4.556   9.249
 2566POPC   GL136313  43.094   4.267   9.109
 2566POPC   GL236314  43.338   4.115   8.882
 2566POPC   C1A36315  42.890   4.334   8.750
 2566POPC   D2A36316  42.833   4.172   8.370
 2566POPC   C3A36317  43.125   4.320   8.069
 2566POPC   C4A36318  43.027   4.402   7.645
 2566POPC   C1B36319  43.684   4.298   8.722
 2566POPC   C2B36320  43.722   4.372   8.322
 2566POPC   C3B36321  43.633   4.223   7.942
 2566POPC   C4B36322  43.319   3.984   7.695
 2567POPC   NC336323  16.295   1.440   9.442
 2567POPC   PO436324  15.699   1.022   9.500
 2567POPC   GL136325  15.908   1.157   9.163
 2567POPC   GL236326  15.874   1.513   9.152
 2567POPC   C1A36327  16.094   0.959   8.822
 2567POPC   D2A36328  16.330   0.826   8.449
 2567POPC   C3A36329  16.158   1.028   8.087
 2567POPC   C4A36330  16.037   0.869   7.707
 2567POPC   C1B36331  16.076   1.460   8.743
 2567POPC   C2B36332  15.892   1.448   8.337
 2567POPC   C3B36333  15.721   1.636   7.953
 2567POPC   C4B36334  15.901   1.486   7.555
 2568POPC   NC336335  31.010  32.546   9.462
 2568POPC   PO436336  30.894  31.845   9.602
 2568POPC   GL136337  30.781  31.885   9.183
 2568POPC   GL236338  30.696  32.248   9.117
 2568POPC   C1A36339  30.638  31.870   8.737
 2568POPC   D2A36340  30.704  32.139   8.393
 2568POPC   C3A36341  30.498  32.098   7.998
 2568POPC   C4A36342  30.209  32.408   7.806
 2568POPC   C1B36343  30.936  32.430   8.765
 2568POPC   C2B36344  30.930  32.589   8.315
 2568POPC   C3B36345  30.755  32.567   7.878
 2568POPC   C4B36346  30.924  32.633   7.442
 2569POPC   NC336347   0.907  21.433   9.692
 2569POPC   PO436348   1.413  21.058   9.397
 2569POPC   GL136349   1.173  21.333   9.233
 2569POPC   GL236350   0.922  21.156   9.228
 2569POPC   C1A36351   1.127  21.491   8.820
 2569POPC   D2A36352   1.364  21.311   8.459
 2569POPC   C3A36353   1.358  21.532   8.063
 2569POPC   C4A36354   1.548  21.472   7.669
 2569POPC   C1B36355   0.880  21.027   8.811
 2569POPC   C2B36356   0.864  21.207   8.444
 2569POPC   C3B36357   0.902  21.096   8.047
 2569POPC   C4B36358   1.037  21.317   7.696
 2570POPC   NC336359  11.166   4.372   9.776
 2570POPC   PO436360  11.652   4.687   9.698
 2570POPC   GL136361  11.444   4.495   9.311
 2570POPC   GL236362  11.104   4.360   9.255
 2570POPC   C1A36363  11.559   4.256   8.931
 2570POPC   D2A36364  11.525   4.209   8.459
 2570POPC   C3A36365  11.361   4.422   8.085
 2570POPC   C4A36366  11.312   4.234   7.661
 2570POPC   C1B36367  11.077   4.342   8.769
 2570POPC   C2B36368  10.984   4.171   8.335
 2570POPC   C3B36369  10.880   4.312   7.914
 2570POPC   C4B36370  11.030   4.737   7.820
 2571POPC   NC336371   4.930  39.350   9.945
 2571POPC   PO436372   4.420  39.318   9.534
 2571POPC   GL136373   4.344  39.298   9.140
 2571POPC   GL236374   3.992  39.222   9.182
 2571POPC   C1A36375   4.268  39.109   8.757
 2571POPC   D2A36376   4.080  39.029   8.358
 2571POPC   C3A36377   4.351  39.003   7.987
 2571POPC   C4A36378   4.520  39.251   7.653
 2571POPC   C1B36379   3.961  39.527   8.831
 2571POPC   C2B36380   3.822  39.512   8.393
 2571POPC   C3B36381   3.889  39.322   7.996
 2571POPC   C4B36382   3.908  39.512   7.610
 2572POPC   NC336383  22.802  40.758   9.615
 2572POPC   PO436384  23.231  40.440   9.317
 2572POPC   GL136385  22.992  40.799   9.141
 2572POPC   GL236386  22.790  41.116   9.225
 2572POPC   C1A36387  22.854  40.833   8.735
 2572POPC   D2A36388  22.976  40.587   8.405
 2572POPC   C3A36389  22.727  40.637   8.064
 2572POPC   C4A36390  22.759  40.822   7.717
 2572POPC   C1B36391  22.623  41.266   8.824
 2572POPC   C2B36392  22.769  41.169   8.356
 2572POPC   C3B36393  22.551  41.230   7.952
 2572POPC   C4B36394  22.600  41.212   7.464
 2573POPC   NC336395  17.290  29.952   9.559
 2573POPC   PO436396  17.330  30.493   9.564
 2573POPC   GL136397  17.466  30.246   9.176
 2573POPC   GL236398  17.127  30.198   9.108
 2573POPC   C1A36399  17.433  29.973   8.759
 2573POPC   D2A36400  17.683  29.905   8.353
 2573POPC   C3A36401  17.500  29.894   7.898
 2573POPC   C4A36402  17.130  29.754   7.656
 2573POPC   C1B36403  17.032  30.258   8.668
 2573POPC   C2B36404  17.196  30.088   8.279
 2573POPC   C3B36405  17.119  30.245   7.864
 2573POPC   C4B36406  17.101  30.220   7.416
 2574POPC   NC336407  31.572  20.382   9.241
 2574POPC   PO436408  31.244  19.864   9.429
 2574POPC   GL136409  31.586  19.859   9.087
 2574POPC   GL236410  31.692  20.125   8.822
 2574POPC   C1A36411  31.622  19.624   8.696
 2574POPC   D2A36412  31.716  19.881   8.349
 2574POPC   C3A36413  31.591  19.743   7.959
 2574POPC   C4A36414  31.322  19.460   7.756
 2574POPC   C1B36415  31.257  20.019   8.724
 2574POPC   C2B36416  30.959  19.994   8.385
 2574POPC   C3B36417  31.134  20.040   7.942
 2574POPC   C4B36418  31.208  19.929   7.488
 2575POPC   NC336419  18.989  35.804   9.534
 2575POPC   PO436420  18.937  36.498   9.545
 2575POPC   GL136421  19.022  36.359   9.159
 2575POPC   GL236422  19.315  36.130   9.255
 2575POPC   C1A36423  18.884  36.035   8.877
 2575POPC   D2A36424  18.713  35.859   8.499
 2575POPC   C3A36425  18.908  36.051   8.140
 2575POPC   C4A36426  18.770  35.941   7.745
 2575POPC   C1B36427  19.398  36.268   8.830
 2575POPC   C2B36428  19.146  36.382   8.486
 2575POPC   C3B36429  19.294  36.430   8.078
 2575POPC   C4B36430  19.141  36.493   7.684
 2576POPC   NC336431  28.281  35.815   9.474
 2576POPC   PO436432  28.353  36.525   9.492
 2576POPC   GL136433  28.224  36.229   9.139
 2576POPC   GL236434  28.489  35.976   9.035
 2576POPC   C1A36435  28.152  36.073   8.678
 2576POPC   D2A36436  28.082  36.174   8.250
 2576POPC   C3A36437  28.365  36.121   7.965
 2576POPC   C4A36438  28.347  35.832   7.682
 2576POPC   C1B36439  28.596  36.341   8.801
 2576POPC   C2B36440  28.528  36.410   8.390
 2576POPC   C3B36441  28.824  36.304   8.092
 2576POPC   C4B36442  28.640  36.500   7.747
 2577POPC   NC336443  44.151   2.609   9.528
 2577POPC   PO436444  44.583   3.132   9.503
 2577POPC   GL136445  44.556   2.780   9.195
 2577POPC   GL236446  44.855   2.889   9.078
 2577POPC   C1A36447  44.645   2.580   8.758
 2577POPC   D2A36448  44.355   2.496   8.425
 2577POPC   C3A36449  44.490   2.429   8.021
 2577POPC   C4A36450  44.880   2.324   7.836
 2577POPC   C1B36451  44.492   3.116   8.818
 2577POPC   C2B36452  44.314   3.034   8.397
 2577POPC   C3B36453  44.633   2.897   8.098
 2577POPC   C4B36454  44.866   2.806   7.714
 2578POPC   NC336455  35.836  18.993   9.569
 2578POPC   PO436456  35.083  18.976   9.474
 2578POPC   GL136457  35.297  19.002   9.112
 2578POPC   GL236458  35.526  19.306   9.134
 2578POPC   C1A36459  35.297  18.773   8.722
 2578POPC   D2A36460  35.461  18.899   8.321
 2578POPC   C3A36461  35.306  19.255   8.074
 2578POPC   C4A36462  35.305  19.020   7.701
 2578POPC   C1B36463  35.401  19.288   8.698
 2578POPC   C2B36464  35.704  19.352   8.397
 2578POPC   C3B36465  35.819  19.191   8.027
 2578POPC   C4B36466  35.671  19.401   7.707
 2579POPC   NC336467  29.835  12.668   9.498
 2579POPC   PO436468  30.484  12.758   9.626
 2579POPC   GL136469  30.261  12.863   9.214
 2579POPC   GL236470  30.067  12.571   9.070
 2579POPC   C1A36471  30.066  12.992   8.800
 2579POPC   D2A36472  30.039  12.677   8.460
 2579POPC   C3A36473  30.071  12.901   8.091
 2579POPC   C4A36474  30.081  12.760   7.705
 2579POPC   C1B36475  29.689  12.596   8.821
 2579POPC   C2B36476  29.564  12.466   8.393
 2579POPC   C3B36477  29.651  12.652   7.997
 2579POPC   C4B36478  29.584  12.664   7.538
 2580POPC   NC336479   2.319   9.720   9.777
 2580POPC   PO436480   1.668   9.974   9.534
 2580POPC   GL136481   1.794   9.899   9.101
 2580POPC   GL236482   2.144   9.973   8.948
 2580POPC   C1A36483   1.775   9.803   8.654
 2580POPC   D2A36484   2.081   9.838   8.308
 2580POPC   C3A36485   1.876   9.846   7.937
 2580POPC   C4A36486   1.801   9.857   7.516
 2580POPC   C1B36487   2.271   9.573   8.707
 2580POPC   C2B36488   2.389   9.447   8.339
 2580POPC   C3B36489   2.464   9.608   7.948
 2580POPC   C4B36490   2.191   9.568   7.639
 2581POPC   NC336491  18.751  39.854   9.194
 2581POPC   PO436492  18.218  40.133   9.594
 2581POPC   GL136493  18.237  39.998   9.148
 2581POPC   GL236494  18.082  39.685   9.071
 2581POPC   C1A36495  18.213  40.054   8.712
 2581POPC   D2A36496  18.494  39.998   8.374
 2581POPC   C3A36497  18.274  40.098   7.989
 2581POPC   C4A36498  18.388  40.250   7.610
 2581POPC   C1B36499  18.407  39.589   8.724
 2581POPC   C2B36500  18.610  39.460   8.367
 2581POPC   C3B36501  18.526  39.650   8.008
 2581POPC   C4B36502  18.204  39.675   7.680
 2582POPC   NC336503  40.150   9.712   9.434
 2582POPC   PO436504  39.626   9.446   9.054
 2582POPC   GL136505  40.071   9.525   8.978
 2582POPC   GL236506  40.346   9.293   9.009
 2582POPC   C1A36507  40.181   9.858   8.711
 2582POPC   D2A36508  39.859   9.950   8.410
 2582POPC   C3A36509  39.859   9.882   7.976
 2582POPC   C4A36510  39.830   9.655   7.622
 2582POPC   C1B36511  40.358   9.390   8.578
 2582POPC   C2B36512  40.221   9.602   8.224
 2582POPC   C3B36513  40.305   9.642   7.788
 2582POPC   C4B36514  40.309   9.444   7.380
 2583POPC   NC336515  44.788   1.807   9.580
 2583POPC   PO436516  44.598   2.438   9.587
 2583POPC   GL136517  44.601   2.177   9.176
 2583POPC   GL236518  44.834   1.900   9.080
 2583POPC   C1A36519  44.554   2.069   8.715
 2583POPC   D2A36520  44.801   2.178   8.371
 2583POPC   C3A36521  44.672   1.915   8.050
 2583POPC   C4A36522  44.470   2.046   7.703
 2583POPC   C1B36523   0.055   1.818   8.657
 2583POPC   C2B36524  44.947   1.564   8.304
 2583POPC   C3B36525  44.987   1.527   7.858
 2583POPC   C4B36526  44.952   1.875   7.597
 2584POPC   NC336527  38.828  31.372   9.510
 2584POPC   PO436528  39.324  31.874   9.583
 2584POPC   GL136529  39.216  31.616   9.179
 2584POPC   GL236530  39.326  31.256   9.103
 2584POPC   C1A36531  39.320  31.571   8.710
 2584POPC   D2A36532  39.218  31.358   8.316
 2584POPC   C3A36533  39.531  31.456   8.028
 2584POPC   C4A36534  39.699  31.771   7.774
 2584POPC   C1B36535  39.097  31.078   8.721
 2584POPC   C2B36536  38.736  31.196   8.467
 2584POPC   C3B36537  38.830  31.111   8.048
 2584POPC   C4B36538  39.126  31.317   7.778
 2585POPC   NC336539  35.553  24.040   9.513
 2585POPC   PO436540  35.105  23.535   9.519
 2585POPC   GL136541  35.380  23.592   9.172
 2585POPC   GL236542  35.110  23.408   9.008
 2585POPC   C1A36543  35.525  23.805   8.790
 2585POPC   D2A36544  35.502  24.005   8.382
 2585POPC   C3A36545  35.415  23.804   8.037
 2585POPC   C4A36546  35.378  24.001   7.661
 2585POPC   C1B36547  35.024  23.853   8.885
 2585POPC   C2B36548  35.009  23.886   8.453
 2585POPC   C3B36549  34.993  23.538   8.163
 2585POPC   C4B36550  35.200  23.394   7.812
 2586POPC   NC336551  34.425  42.855   9.315
 2586POPC   PO436552  34.975  42.865   9.731
 2586POPC   GL136553  34.945  42.970   9.197
 2586POPC   GL236554  34.687  42.752   8.911
 2586POPC   C1A36555  34.822  43.227   8.838
 2586POPC   D2A36556  34.633  43.325   8.429
 2586POPC   C3A36557  34.815  43.454   8.073
 2586POPC   C4A36558  34.830  43.199   7.774
 2586POPC   C1B36559  34.560  42.855   8.572
 2586POPC   C2B36560  34.783  42.856   8.222
 2586POPC   C3B36561  34.611  42.725   7.873
 2586POPC   C4B36562  34.204  42.944   7.783
 2587POPC   NC336563  12.831  35.732   9.556
 2587POPC   PO436564  12.846  36.401   9.623
 2587POPC   GL136565  12.859  36.187   9.253
 2587POPC   GL236566  12.550  35.999   9.245
 2587POPC   C1A36567  12.971  36.331   8.830
 2587POPC   D2A36568  13.073  36.503   8.402
 2587POPC   C3A36569  13.020  36.194   8.096
 2587POPC   C4A36570  13.167  36.069   7.707
 2587POPC   C1B36571  12.487  36.121   8.850
 2587POPC   C2B36572  12.600  36.281   8.451
 2587POPC   C3B36573  12.511  36.142   8.041
 2587POPC   C4B36574  12.699  35.848   7.780
 2588POPC   NC336575  43.494   4.885   9.537
 2588POPC   PO436576  43.915   5.368   9.540
 2588POPC   GL136577  43.694   5.324   9.161
 2588POPC   GL236578  43.727   4.972   9.100
 2588POPC   C1A36579  43.802   5.315   8.709
 2588POPC   D2A36580  43.610   5.383   8.297
 2588POPC   C3A36581  43.854   5.209   7.975
 2588POPC   C4A36582  44.146   4.993   7.760
 2588POPC   C1B36583  43.602   4.819   8.717
 2588POPC   C2B36584  43.848   4.860   8.358
 2588POPC   C3B36585  43.665   4.738   7.967
 2588POPC   C4B36586  43.628   4.940   7.607
 2589POPC   NC336587  13.354  21.866   9.500
 2589POPC   PO436588  13.828  21.372   9.833
 2589POPC   GL136589  13.799  21.288   9.296
 2589POPC   GL236590  13.634  21.576   9.178
 2589POPC   C1A36591  13.727  21.259   8.810
 2589POPC   D2A36592  13.495  21.436   8.443
 2589POPC   C3A36593  13.651  21.387   8.013
 2589POPC   C4A36594  13.886  21.236   7.633
 2589POPC   C1B36595  13.763  21.763   8.772
 2589POPC   C2B36596  13.632  21.966   8.410
 2589POPC   C3B36597  13.508  21.910   7.990
 2589POPC   C4B36598  13.488  21.639   7.600
 2590POPC   NC336599  38.482   9.950   9.473
 2590POPC   PO436600  38.706  10.610   9.588
 2590POPC   GL136601  38.545  10.691   9.187
 2590POPC   GL236602  38.338  10.388   9.206
 2590POPC   C1A36603  38.528  10.534   8.749
 2590POPC   D2A36604  38.502  10.179   8.470
 2590POPC   C3A36605  38.422  10.298   8.068
 2590POPC   C4A36606  38.656  10.515   7.831
 2590POPC   C1B36607  38.088  10.298   8.820
 2590POPC   C2B36608  37.999  10.262   8.368
 2590POPC   C3B36609  37.956  10.482   7.966
 2590POPC   C4B36610  38.218  10.526   7.598
 2591POPC   NC336611  43.284  35.676   9.525
 2591POPC   PO436612  43.396  35.060   9.523
 2591POPC   GL136613  43.383  35.292   9.150
 2591POPC   GL236614  43.057  35.436   9.121
 2591POPC   C1A36615  43.349  35.293   8.687
 2591POPC   D2A36616  43.121  35.547   8.359
 2591POPC   C3A36617  43.181  35.508   7.912
 2591POPC   C4A36618  42.884  35.671   7.549
 2591POPC   C1B36619  42.834  35.262   8.756
 2591POPC   C2B36620  42.972  35.059   8.365
 2591POPC   C3B36621  43.370  35.073   8.131
 2591POPC   C4B36622  43.501  34.968   7.714
 2592POPC   NC336623   9.029   2.578   9.553
 2592POPC   PO436624   9.672   2.580   9.423
 2592POPC   GL136625   9.291   2.533   9.107
 2592POPC   GL236626   9.048   2.810   9.078
 2592POPC   C1A36627   9.000   2.472   8.729
 2592POPC   D2A36628   8.847   2.568   8.305
 2592POPC   C3A36629   8.968   2.644   7.865
 2592POPC   C4A36630   9.276   2.732   7.517
 2592POPC   C1B36631   8.703   2.933   8.760
 2592POPC   C2B36632   8.486   2.919   8.352
 2592POPC   C3B36633   8.550   2.941   7.892
 2592POPC   C4B36634   8.374   2.701   7.533
 2593POPC   NC336635  11.055  37.066   9.487
 2593POPC   PO436636  11.681  36.774   9.631
 2593POPC   GL136637  11.353  36.802   9.189
 2593POPC   GL236638  11.246  36.523   9.058
 2593POPC   C1A36639  11.270  36.998   8.769
 2593POPC   D2A36640  11.485  37.140   8.361
 2593POPC   C3A36641  11.270  37.048   7.963
 2593POPC   C4A36642  11.411  36.970   7.534
 2593POPC   C1B36643  11.133  36.428   8.670
 2593POPC   C2B36644  11.193  36.695   8.343
 2593POPC   C3B36645  10.873  36.727   8.063
 2593POPC   C4B36646  10.892  36.687   7.646
 2594POPC   NC336647   4.139   0.115   9.817
 2594POPC   PO436648   4.211   0.660   9.446
 2594POPC   GL136649   4.303   0.354   9.161
 2594POPC   GL236650   4.656   0.254   9.213
 2594POPC   C1A36651   4.200   0.394   8.729
 2594POPC   D2A36652   4.277   0.575   8.353
 2594POPC   C3A36653   4.321   0.324   8.026
 2594POPC   C4A36654   4.400   0.195   7.616
 2594POPC   C1B36655   4.682   0.544   8.854
 2594POPC   C2B36656   4.777   0.766   8.475
 2594POPC   C3B36657   4.646   0.724   8.040
 2594POPC   C4B36658   4.660   0.608   7.644
 2595POPC   NC336659  31.048  43.331   9.629
 2595POPC   PO436660  31.595  42.889   9.516
 2595POPC   GL136661  31.541  43.136   9.140
 2595POPC   GL236662  31.273  43.381   9.159
 2595POPC   C1A36663  31.674  43.005   8.721
 2595POPC   D2A36664  31.919  43.020   8.344
 2595POPC   C3A36665  31.640  42.991   7.990
 2595POPC   C4A36666  31.812  43.134   7.577
 2595POPC   C1B36667  31.190  43.185   8.738
 2595POPC   C2B36668  31.198  42.949   8.362
 2595POPC   C3B36669  31.125  43.136   7.960
 2595POPC   C4B36670  31.294  43.155   7.548
 2596POPC   NC336671  44.417   6.365   9.353
 2596POPC   PO436672  44.544   5.785   9.626
 2596POPC   GL136673  44.476   5.852   9.170
 2596POPC   GL236674  44.704   6.068   9.020
 2596POPC   C1A36675  44.404   5.799   8.694
 2596POPC   D2A36676  44.611   6.083   8.392
 2596POPC   C3A36677  44.504   6.055   7.950
 2596POPC   C4A36678  44.477   5.739   7.630
 2596POPC   C1B36679  44.885   5.771   8.781
 2596POPC   C2B36680  44.750   5.555   8.406
 2596POPC   C3B36681  44.875   5.672   8.002
 2596POPC   C4B36682  44.978   5.643   7.584
 2597POPC   NC336683  35.042  16.719   9.380
 2597POPC   PO436684  35.632  16.879   9.384
 2597POPC   GL136685  35.450  16.798   9.035
 2597POPC   GL236686  35.303  16.475   8.982
 2597POPC   C1A36687  35.400  16.828   8.625
 2597POPC   D2A36688  35.103  16.814   8.352
 2597POPC   C3A36689  35.338  16.938   8.062
 2597POPC   C4A36690  35.335  16.818   7.675
 2597POPC   C1B36691  35.540  16.343   8.652
 2597POPC   C2B36692  35.477  16.473   8.250
 2597POPC   C3B36693  35.511  16.370   7.874
 2597POPC   C4B36694  35.743  16.544   7.551
 2598POPC   NC336695   9.549  18.817   9.507
 2598POPC   PO436696  10.194  18.832   9.352
 2598POPC   GL136697   9.864  18.971   9.130
 2598POPC   GL236698  10.046  19.213   8.939
 2598POPC   C1A36699   9.566  19.030   8.807
 2598POPC   D2A36700   9.595  19.346   8.488
 2598POPC   C3A36701   9.377  19.260   8.098
 2598POPC   C4A36702   9.267  19.034   7.705
 2598POPC   C1B36703  10.015  18.848   8.661
 2598POPC   C2B36704   9.868  18.964   8.272
 2598POPC   C3B36705   9.722  18.896   7.888
 2598POPC   C4B36706   9.686  18.767   7.457
 2599POPC   NC336707  16.388   2.043   9.971
 2599POPC   PO436708  16.716   1.588   9.545
 2599POPC   GL136709  16.899   1.754   9.157
 2599POPC   GL236710  16.809   2.097   9.204
 2599POPC   C1A36711  16.971   1.983   8.739
 2599POPC   D2A36712  16.754   2.042   8.372
 2599POPC   C3A36713  16.756   1.813   7.987
 2599POPC   C4A36714  16.812   1.906   7.525
 2599POPC   C1B36715  16.514   2.219   8.834
 2599POPC   C2B36716  16.303   2.292   8.412
 2599POPC   C3B36717  16.459   2.234   7.994
 2599POPC   C4B36718  16.841   2.359   7.766
 2600POPC   NC336719  20.263  13.606   9.319
 2600POPC   PO436720  20.892  13.278   9.407
 2600POPC   GL136721  20.690  13.465   9.059
 2600POPC   GL236722  20.796  13.785   8.907
 2600POPC   C1A36723  20.521  13.444   8.662
 2600POPC   D2A36724  20.594  13.294   8.279
 2600POPC   C3A36725  20.604  13.615   7.977
 2600POPC   C4A36726  20.811  13.733   7.630
 2600POPC   C1B36727  20.444  13.949   8.635
 2600POPC   C2B36728  20.288  13.935   8.191
 2600POPC   C3B36729  20.392  14.053   7.721
 2600POPC   C4B36730  20.543  14.041   7.271
 2601POPC   NC336731  13.131  16.246   9.360
 2601POPC   PO436732  12.815  15.770   9.706
 2601POPC   GL136733  12.585  15.689   9.320
 2601POPC   GL236734  12.476  16.006   9.214
 2601POPC   C1A36735  12.526  15.658   8.849
 2601POPC   D2A36736  12.738  15.599   8.442
 2601POPC   C3A36737  12.654  15.799   8.028
 2601POPC   C4A36738  12.952  15.845   7.687
 2601POPC   C1B36739  12.666  16.167   8.809
 2601POPC   C2B36740  12.800  16.165   8.373
 2601POPC   C3B36741  13.065  16.173   8.040
 2601POPC   C4B36742  13.191  16.496   7.768
 2602POPC   NC336743  14.793  34.255   9.333
 2602POPC   PO436744  14.558  34.768   9.574
 2602POPC   GL136745  14.424  34.588   9.171
 2602POPC   GL236746  14.287  34.272   9.254
 2602POPC   C1A36747  14.641  34.572   8.757
 2602POPC   D2A36748  14.786  34.368   8.366
 2602POPC   C3A36749  14.613  34.564   7.998
 2602POPC   C4A36750  14.168  34.598   7.888
 2602POPC   C1B36751  14.254  34.220   8.801
 2602POPC   C2B36752  14.285  34.359   8.393
 2602POPC   C3B36753  14.338  34.132   8.020
 2602POPC   C4B36754  13.979  34.120   7.778
 2603POPC   NC336755  30.211  16.576   9.474
 2603POPC   PO436756  29.566  16.811   9.363
 2603POPC   GL136757  29.950  16.843   9.123
 2603POPC   GL236758  30.061  16.501   8.994
 2603POPC   C1A36759  30.129  16.953   8.726
 2603POPC   D2A36760  30.133  16.627   8.375
 2603POPC   C3A36761  29.998  16.759   7.955
 2603POPC   C4A36762  29.687  16.631   7.688
 2603POPC   C1B36763  30.291  16.200   8.740
 2603POPC   C2B36764  30.524  16.293   8.385
 2603POPC   C3B36765  30.289  16.209   8.039
 2603POPC   C4B36766  30.091  16.323   7.645
 2604POPC   NC336767   2.748  42.652   9.421
 2604POPC   PO436768   2.466  42.060   9.448
 2604POPC   GL136769   2.659  42.263   9.120
 2604POPC   GL236770   2.996  42.137   9.172
 2604POPC   C1A36771   2.548  42.579   8.789
 2604POPC   D2A36772   2.769  42.666   8.390
 2604POPC   C3A36773   2.508  42.716   8.020
 2604POPC   C4A36774   2.395  42.375   7.767
 2604POPC   C1B36775   3.005  42.351   8.758
 2604POPC   C2B36776   3.077  42.223   8.329
 2604POPC   C3B36777   2.914  42.347   7.914
 2604POPC   C4B36778   2.776  42.102   7.544
 2605POPC   NC336779  35.646  37.576   9.487
 2605POPC   PO436780  36.262  37.861   9.594
 2605POPC   GL136781  36.037  37.842   9.224
 2605POPC   GL236782  36.007  37.525   9.132
 2605POPC   C1A36783  36.019  37.870   8.756
 2605POPC   D2A36784  36.173  37.652   8.391
 2605POPC   C3A36785  36.026  37.818   8.003
 2605POPC   C4A36786  35.881  37.777   7.558
 2605POPC   C1B36787  35.917  37.352   8.720
 2605POPC   C2B36788  35.803  37.236   8.292
 2605POPC   C3B36789  35.984  37.314   7.892
 2605POPC   C4B36790  35.709  37.320   7.515
 2606POPC   NC336791  40.512  11.499   9.302
 2606POPC   PO436792  40.252  10.919   9.600
 2606POPC   GL136793  40.081  11.085   9.185
 2606POPC   GL236794  40.195  11.377   8.950
 2606POPC   C1A36795  39.772  11.156   8.835
 2606POPC   D2A36796  40.002  11.340   8.479
 2606POPC   C3A36797  39.962  11.247   8.083
 2606POPC   C4A36798  39.823  11.257   7.675
 2606POPC   C1B36799  40.404  11.615   8.613
 2606POPC   C2B36800  40.397  11.568   8.142
 2606POPC   C3B36801  40.241  11.540   7.692
 2606POPC   C4B36802  40.326  11.628   7.235
 2607POPC   NC336803  24.313  10.240   9.544
 2607POPC   PO436804  24.763  10.789   9.473
 2607POPC   GL136805  24.637  10.579   9.160
 2607POPC   GL236806  24.297  10.598   9.190
 2607POPC   C1A36807  24.521  10.515   8.751
 2607POPC   D2A36808  24.295  10.512   8.421
 2607POPC   C3A36809  24.495  10.635   8.073
 2607POPC   C4A36810  24.445  10.503   7.712
 2607POPC   C1B36811  24.077  10.756   8.843
 2607POPC   C2B36812  24.031  10.967   8.451
 2607POPC   C3B36813  24.005  10.767   8.066
 2607POPC   C4B36814  24.080  10.860   7.663
 2608POPC   NC336815  42.885  31.448   9.501
 2608POPC   PO436816  43.549  31.205   9.420
 2608POPC   GL136817  43.240  31.319   9.120
 2608POPC   GL236818  43.134  31.660   9.124
 2608POPC   C1A36819  43.049  31.361   8.705
 2608POPC   D2A36820  42.868  31.266   8.307
 2608POPC   C3A36821  43.115  31.151   7.991
 2608POPC   C4A36822  43.266  31.304   7.615
 2608POPC   C1B36823  43.053  31.866   8.761
 2608POPC   C2B36824  42.852  31.759   8.401
 2608POPC   C3B36825  42.995  31.697   8.014
 2608POPC   C4B36826  43.039  31.985   7.718
 2609POPC   NC336827  13.788  10.338   9.364
 2609POPC   PO436828  13.386  10.829   9.524
 2609POPC   GL136829  13.588  10.809   9.143
 2609POPC   GL236830  13.440  11.119   9.103
 2609POPC   C1A36831  13.631  10.563   8.778
 2609POPC   D2A36832  13.775  10.378   8.420
 2609POPC   C3A36833  13.660  10.474   8.012
 2609POPC   C4A36834  13.923  10.549   7.659
 2609POPC   C1B36835  13.242  10.895   8.791
 2609POPC   C2B36836  13.280  10.704   8.413
 2609POPC   C3B36837  13.316  10.880   8.041
 2609POPC   C4B36838  13.550  10.903   7.736
 2610POPC   NC336839   5.191  10.782   9.558
 2610POPC   PO436840   4.684  10.317   9.575
 2610POPC   GL136841   4.955  10.377   9.162
 2610POPC   GL236842   5.225  10.639   9.075
 2610POPC   C1A36843   5.081  10.351   8.700
 2610POPC   D2A36844   4.883  10.598   8.381
 2610POPC   C3A36845   5.026  10.627   7.934
 2610POPC   C4A36846   4.809  10.262   7.845
 2610POPC   C1B36847   5.271  10.837   8.666
 2610POPC   C2B36848   5.384  10.661   8.289
 2610POPC   C3B36849   5.245  10.239   8.190
 2610POPC   C4B36850   5.319  10.132   7.786
 2611POPC   NC336851  42.237  42.885   9.677
 2611POPC   PO436852  42.694  43.225   9.340
 2611POPC   GL136853  42.440  42.893   9.189
 2611POPC   GL236854  42.170  43.059   9.191
 2611POPC   C1A36855  42.318  42.703   8.811
 2611POPC   D2A36856  42.494  42.597   8.395
 2611POPC   C3A36857  42.453  42.867   8.013
 2611POPC   C4A36858  42.600  43.272   7.832
 2611POPC   C1B36859  42.178  43.221   8.804
 2611POPC   C2B36860  42.107  43.024   8.426
 2611POPC   C3B36861  42.169  43.285   8.129
 2611POPC   C4B36862  42.060  43.250   7.748
 2612POPC   NC336863  32.177  14.891   9.730
 2612POPC   PO436864  32.649  15.180   9.326
 2612POPC   GL136865  32.328  15.083   9.075
 2612POPC   GL236866  32.561  15.223   8.811
 2612POPC   C1A36867  32.116  15.058   8.669
 2612POPC   D2A36868  32.372  15.215   8.307
 2612POPC   C3A36869  32.138  15.200   7.919
 2612POPC   C4A36870  32.071  14.945   7.564
 2612POPC   C1B36871  32.262  15.553   8.693
 2612POPC   C2B36872  32.161  15.685   8.249
 2612POPC   C3B36873  32.471  15.575   7.923
 2612POPC   C4B36874  32.516  15.652   7.462
 2613POPC   NC336875  27.414  38.852   9.570
 2613POPC   PO436876  27.825  38.363   9.628
 2613POPC   GL136877  27.676  38.508   9.244
 2613POPC   GL236878  27.945  38.388   9.064
 2613POPC   C1A36879  27.431  38.473   8.857
 2613POPC   D2A36880  27.356  38.652   8.437
 2613POPC   C3A36881  27.479  38.439   8.071
 2613POPC   C4A36882  27.319  38.307   7.673
 2613POPC   C1B36883  27.895  38.552   8.655
 2613POPC   C2B36884  28.025  38.390   8.272
 2613POPC   C3B36885  27.926  38.504   7.858
 2613POPC   C4B36886  27.795  38.349   7.450
 2614POPC   NC336887  12.468  12.942   9.393
 2614POPC   PO436888  11.734  12.891   9.527
 2614POPC   GL136889  11.899  12.924   9.121
 2614POPC   GL236890  11.616  12.739   9.039
 2614POPC   C1A36891  12.169  12.961   8.753
 2614POPC   D2A36892  12.085  13.001   8.332
 2614POPC   C3A36893  12.257  13.292   8.090
 2614POPC   C4A36894  12.213  13.155   7.686
 2614POPC   C1B36895  11.681  12.835   8.626
 2614POPC   C2B36896  11.724  12.645   8.226
 2614POPC   C3B36897  12.070  12.631   7.942
 2614POPC   C4B36898  12.042  12.487   7.545
 2615POPC   NC336899  29.298  20.286   9.582
 2615POPC   PO436900  28.893  20.892   9.483
 2615POPC   GL136901  29.233  20.682   9.262
 2615POPC   GL236902  29.053  20.380   9.134
 2615POPC   C1A36903  29.368  20.655   8.830
 2615POPC   D2A36904  29.108  20.785   8.460
 2615POPC   C3A36905  29.253  20.762   8.041
 2615POPC   C4A36906  29.469  20.478   7.767
 2615POPC   C1B36907  28.747  20.291   8.813
 2615POPC   C2B36908  28.684  20.121   8.428
 2615POPC   C3B36909  28.990  20.258   8.148
 2615POPC   C4B36910  28.916  20.431   7.758
 2616POPC   NC336911  42.567  11.612   9.357
 2616POPC   PO436912  42.244  12.167   9.519
 2616POPC   GL136913  42.335  12.071   9.121
 2616POPC   GL236914  42.180  11.764   9.095
 2616POPC   C1A36915  42.409  12.232   8.712
 2616POPC   D2A36916  42.432  12.282   8.272
 2616POPC   C3A36917  42.287  12.092   7.935
 2616POPC   C4A36918  42.395  12.382   7.638
 2616POPC   C1B36919  42.411  11.713   8.741
 2616POPC   C2B36920  42.194  11.855   8.409
 2616POPC   C3B36921  41.827  11.856   8.182
 2616POPC   C4B36922  41.891  11.800   7.740
 2617POPC   NC336923  43.667   5.781   9.494
 2617POPC   PO436924  44.061   6.331   9.664
 2617POPC   GL136925  44.029   6.058   9.305
 2617POPC   GL236926  43.980   6.299   9.073
 2617POPC   C1A36927  43.960   5.790   8.911
 2617POPC   D2A36928  43.952   5.902   8.449
 2617POPC   C3A36929  43.944   5.694   8.059
 2617POPC   C4A36930  43.575   5.574   7.763
 2617POPC   C1B36931  44.204   6.267   8.701
 2617POPC   C2B36932  44.177   6.340   8.260
 2617POPC   C3B36933  43.986   6.180   7.886
 2617POPC   C4B36934  43.991   5.812   7.566
 2618POPC   NC336935   9.417  31.711   9.799
 2618POPC   PO436936   9.210  31.134   9.652
 2618POPC   GL136937   9.264  31.474   9.273
 2618POPC   GL236938   9.258  31.297   8.941
 2618POPC   C1A36939   9.089  31.747   8.868
 2618POPC   D2A36940   8.891  31.679   8.434
 2618POPC   C3A36941   9.134  31.592   8.041
 2618POPC   C4A36942   9.369  31.261   7.817
 2618POPC   C1B36943   8.774  31.303   8.793
 2618POPC   C2B36944   8.617  31.126   8.383
 2618POPC   C3B36945   8.794  31.186   7.970
 2618POPC   C4B36946   8.650  31.571   7.816
 2619POPC   NC336947  33.333   4.063   9.653
 2619POPC   PO436948  32.679   4.274   9.722
 2619POPC   GL136949  32.938   4.147   9.339
 2619POPC   GL236950  33.197   4.394   9.284
 2619POPC   C1A36951  33.076   4.012   8.929
 2619POPC   D2A36952  32.988   4.157   8.528
 2619POPC   C3A36953  33.134   4.101   8.110
 2619POPC   C4A36954  32.984   4.192   7.712
 2619POPC   C1B36955  33.291   4.482   8.841
 2619POPC   C2B36956  33.385   4.450   8.378
 2619POPC   C3B36957  33.317   4.557   7.896
 2619POPC   C4B36958  33.167   4.590   7.437
 2620POPC   NC336959  27.676  19.067   9.712
 2620POPC   PO436960  27.318  18.663   9.320
 2620POPC   GL136961  27.588  18.876   9.073
 2620POPC   GL236962  27.691  19.199   9.179
 2620POPC   C1A36963  27.435  18.920   8.648
 2620POPC   D2A36964  27.590  19.053   8.305
 2620POPC   C3A36965  27.478  18.804   7.949
 2620POPC   C4A36966  27.226  18.946   7.586
 2620POPC   C1B36967  27.905  19.110   8.757
 2620POPC   C2B36968  28.066  18.882   8.392
 2620POPC   C3B36969  27.957  19.049   7.970
 2620POPC   C4B36970  27.747  19.034   7.573
 2621POPC   NC336971  24.554  14.702   9.932
 2621POPC   PO436972  24.311  14.381   9.385
 2621POPC   GL136973  24.372  14.367   8.998
 2621POPC   GL236974  24.699  14.252   9.010
 2621POPC   C1A36975  24.413  14.140   8.627
 2621POPC   D2A36976  24.718  14.097   8.326
 2621POPC   C3A36977  24.508  14.139   7.944
 2621POPC   C4A36978  24.154  14.397   7.867
 2621POPC   C1B36979  24.706  14.563   8.663
 2621POPC   C2B36980  24.828  14.646   8.258
 2621POPC   C3B36981  24.683  14.619   7.864
 2621POPC   C4B36982  24.460  14.578   7.473
 2622POPC   NC336983  19.159  23.349   9.461
 2622POPC   PO436984  18.648  23.072   9.553
 2622POPC   GL136985  18.767  23.033   9.120
 2622POPC   GL236986  19.123  23.006   9.052
 2622POPC   C1A36987  18.798  23.261   8.729
 2622POPC   D2A36988  18.955  23.256   8.308
 2622POPC   C3A36989  18.950  23.065   7.897
 2622POPC   C4A36990  19.100  23.173   7.489
 2622POPC   C1B36991  19.073  22.843   8.623
 2622POPC   C2B36992  19.297  22.871   8.211
 2622POPC   C3B36993  19.387  22.826   7.736
 2622POPC   C4B36994  19.326  22.758   7.262
 2623POPC   NC336995  10.479  44.493   9.644
 2623POPC   PO436996  10.483  43.817   9.810
 2623POPC   GL136997  10.457  44.076   9.356
 2623POPC   GL236998  10.771  44.078   9.134
 2623POPC   C1A36999  10.374  44.053   8.864
 2623POPC   D2A37000  10.710  43.806   8.613
 2623POPC   C3A37001  10.620  43.832   8.165
 2623POPC   C4A37002  10.567  43.627   7.781
 2623POPC   C1B37003  10.837  44.284   8.699
 2623POPC   C2B37004  10.882  44.355   8.226
 2623POPC   C3B37005  10.831  44.305   7.755
 2623POPC   C4B37006  10.985  44.172   7.320
 2624POPC   NC337007  37.330  13.133   9.478
 2624POPC   PO437008  37.825  12.691   9.549
 2624POPC   GL137009  37.704  12.868   9.165
 2624POPC   GL237010  37.823  12.582   9.007
 2624POPC   C1A37011  37.447  12.854   8.783
 2624POPC   D2A37012  37.544  12.907   8.356
 2624POPC   C3A37013  37.241  12.905   8.051
 2624POPC   C4A37014  37.217  13.078   7.658
 2624POPC   C1B37015  37.763  12.494   8.579
 2624POPC   C2B37016  37.972  12.624   8.257
 2624POPC   C3B37017  37.877  12.817   7.886
 2624POPC   C4B37018  37.992  12.689   7.432
 2625POPC   NC337019  12.001  34.512   9.733
 2625POPC   PO437020  11.683  34.199   9.211
 2625POPC   GL137021  12.068  34.444   9.167
 2625POPC   GL237022  12.044  34.806   9.113
 2625POPC   C1A37023  12.243  34.499   8.742
 2625POPC   D2A37024  12.276  34.654   8.300
 2625POPC   C3A37025  11.972  34.523   7.973
 2625POPC   C4A37026  11.995  34.316   7.603
 2625POPC   C1B37027  12.220  35.029   8.707
 2625POPC   C2B37028  12.170  35.148   8.217
 2625POPC   C3B37029  12.269  34.895   7.812
 2625POPC   C4B37030  11.941  34.782   7.444
 2626POPC   NC337031  40.861   3.197   9.474
 2626POPC   PO437032  40.561   3.880   9.445
 2626POPC   GL137033  40.811   3.752   9.122
 2626POPC   GL237034  40.736   3.434   9.051
 2626POPC   C1A37035  41.071   3.723   8.762
 2626POPC   D2A37036  40.920   3.796   8.350
 2626POPC   C3A37037  40.963   3.544   7.983
 2626POPC   C4A37038  40.578   3.574   7.793
 2626POPC   C1B37039  40.804   3.287   8.645
 2626POPC   C2B37040  40.981   3.095   8.285
 2626POPC   C3B37041  40.747   3.016   7.931
 2626POPC   C4B37042  40.863   3.116   7.539
 2627POPC   NC337043  10.302  33.938   9.447
 2627POPC   PO437044  10.908  33.601   9.417
 2627POPC   GL137045  10.684  33.809   9.124
 2627POPC   GL237046  10.709  34.133   9.197
 2627POPC   C1A37047  10.322  33.838   8.806
 2627POPC   D2A37048  10.356  34.055   8.404
 2627POPC   C3A37049  10.608  33.764   8.204
 2627POPC   C4A37050  10.572  33.596   7.821
 2627POPC   C1B37051  10.743  34.111   8.733
 2627POPC   C2B37052  10.945  34.129   8.312
 2627POPC   C3B37053  10.726  34.167   7.916
 2627POPC   C4B37054  10.309  34.044   7.853
 2628POPC   NC337055   1.708  37.888   9.303
 2628POPC   PO437056   1.346  37.343   9.576
 2628POPC   GL137057   1.251  37.654   9.164
 2628POPC   GL237058   1.499  37.741   8.863
 2628POPC   C1A37059   1.120  38.058   8.890
 2628POPC   D2A37060   1.128  38.205   8.450
 2628POPC   C3A37061   1.150  37.825   8.188
 2628POPC   C4A37062   1.111  37.821   7.774
 2628POPC   C1B37063   1.604  37.448   8.544
 2628POPC   C2B37064   1.365  37.286   8.215
 2628POPC   C3B37065   1.368  37.399   7.807
 2628POPC   C4B37066   1.539  37.726   7.497
 2629POPC   NC337067   6.746  23.464   9.351
 2629POPC   PO437068   6.317  23.019   9.541
 2629POPC   GL137069   6.558  22.994   9.154
 2629POPC   GL237070   6.458  23.274   8.998
 2629POPC   C1A37071   6.871  22.718   8.914
 2629POPC   D2A37072   6.933  22.610   8.482
 2629POPC   C3A37073   6.550  22.596   8.253
 2629POPC   C4A37074   6.583  22.700   7.835
 2629POPC   C1B37075   6.650  23.083   8.646
 2629POPC   C2B37076   6.768  23.072   8.235
 2629POPC   C3B37077   6.694  23.192   7.814
 2629POPC   C4B37078   6.509  23.199   7.385
 2630POPC   NC337079  21.952   9.567   9.450
 2630POPC   PO437080  22.212  10.113   9.699
 2630POPC   GL137081  22.217   9.936   9.209
 2630POPC   GL237082  21.909   9.929   9.059
 2630POPC   C1A37083  22.425   9.959   8.789
 2630POPC   D2A37084  22.618   9.919   8.365
 2630POPC   C3A37085  22.387   9.691   8.069
 2630POPC   C4A37086  22.471   9.875   7.682
 2630POPC   C1B37087  21.959  10.227   8.728
 2630POPC   C2B37088  21.778  10.156   8.344
 2630POPC   C3B37089  21.943  10.000   7.966
 2630POPC   C4B37090  21.937   9.559   7.844
 2631POPC   NC337091  43.746  30.068   9.583
 2631POPC   PO437092  44.321  29.882   9.532
 2631POPC   GL137093  44.081  30.086   9.213
 2631POPC   GL237094  43.833  29.787   9.151
 2631POPC   C1A37095  43.846  30.179   8.824
 2631POPC   D2A37096  43.833  29.861   8.465
 2631POPC   C3A37097  43.878  29.989   8.029
 2631POPC   C4A37098  43.946  29.682   7.698
 2631POPC   C1B37099  44.166  29.770   8.840
 2631POPC   C2B37100  44.391  29.791   8.483
 2631POPC   C3B37101  44.318  29.713   8.073
 2631POPC   C4B37102  44.367  29.953   7.739
 2632POPC   NC337103  37.132  11.810   9.401
 2632POPC   PO437104  36.618  12.105   9.623
 2632POPC   GL137105  36.788  12.202   9.226
 2632POPC   GL237106  36.642  11.883   9.145
 2632POPC   C1A37107  36.964  12.083   8.811
 2632POPC   D2A37108  36.870  12.114   8.404
 2632POPC   C3A37109  37.137  11.968   8.053
 2632POPC   C4A37110  37.332  12.170   7.716
 2632POPC   C1B37111  36.500  11.835   8.720
 2632POPC   C2B37112  36.380  12.033   8.310
 2632POPC   C3B37113  36.622  12.153   7.941
 2632POPC   C4B37114  36.817  12.125   7.527
 2633POPC   NC337115  33.522  38.706   9.497
 2633POPC   PO437116  34.217  38.852   9.485
 2633POPC   GL137117  33.957  38.740   9.127
 2633POPC   GL237118  33.636  38.698   9.005
 2633POPC   C1A37119  34.067  38.532   8.750
 2633POPC   D2A37120  34.282  38.624   8.388
 2633POPC   C3A37121  34.116  38.505   8.022
 2633POPC   C4A37122  33.987  38.359   7.654
 2633POPC   C1B37123  33.576  38.354   8.723
 2633POPC   C2B37124  33.481  38.465   8.326
 2633POPC   C3B37125  33.587  38.407   7.940
 2633POPC   C4B37126  33.478  38.251   7.542
 2634POPC   NC337127  15.353  16.670  10.230
 2634POPC   PO437128  15.002  16.711   9.744
 2634POPC   GL137129  15.246  16.683   9.326
 2634POPC   GL237130  14.958  16.760   9.169
 2634POPC   C1A37131  15.319  16.648   8.827
 2634POPC   D2A37132  15.453  16.601   8.354
 2634POPC   C3A37133  15.246  16.652   7.940
 2634POPC   C4A37134  15.362  16.803   7.515
 2634POPC   C1B37135  14.801  16.654   8.795
 2634POPC   C2B37136  14.952  16.720   8.386
 2634POPC   C3B37137  14.740  16.748   8.003
 2634POPC   C4B37138  14.867  16.760   7.602
 2635POPC   NC337139  27.435  13.408   9.627
 2635POPC   PO437140  27.309  14.067   9.502
 2635POPC   GL137141  27.622  13.734   9.265
 2635POPC   GL237142  27.465  13.484   9.115
 2635POPC   C1A37143  27.779  13.663   8.785
 2635POPC   D2A37144  27.957  13.798   8.374
 2635POPC   C3A37145  27.695  13.675   8.014
 2635POPC   C4A37146  27.563  13.988   7.748
 2635POPC   C1B37147  27.354  13.268   8.723
 2635POPC   C2B37148  27.520  13.227   8.298
 2635POPC   C3B37149  27.344  13.249   7.892
 2635POPC   C4B37150  27.030  13.259   7.570
 2636POPC   NC337151  13.959  39.899   9.400
 2636POPC   PO437152  13.213  40.121   9.557
 2636POPC   GL137153  13.503  40.042   9.215
 2636POPC   GL237154  13.530  39.710   9.088
 2636POPC   C1A37155  13.644  40.121   8.790
 2636POPC   D2A37156  13.511  39.933   8.417
 2636POPC   C3A37157  13.694  40.019   8.055
 2636POPC   C4A37158  13.612  40.046   7.654
 2636POPC   C1B37159  13.835  39.641   8.762
 2636POPC   C2B37160  14.002  39.841   8.443
 2636POPC   C3B37161  14.153  39.818   8.055
 2636POPC   C4B37162  13.981  39.649   7.708
 2637POPC   NC337163  15.147  39.662   9.526
 2637POPC   PO437164  15.090  40.354   9.586
 2637POPC   GL137165  15.278  40.237   9.209
 2637POPC   GL237166  15.037  39.983   9.144
 2637POPC   C1A37167  15.138  40.303   8.783
 2637POPC   D2A37168  14.981  40.058   8.435
 2637POPC   C3A37169  15.095  40.220   8.044
 2637POPC   C4A37170  14.919  40.137   7.713
 2637POPC   C1B37171  15.353  39.820   8.859
 2637POPC   C2B37172  15.310  39.646   8.458
 2637POPC   C3B37173  15.168  39.697   8.050
 2637POPC   C4B37174  15.270  39.748   7.632
 2638POPC   NC337175  34.839   2.523   9.381
 2638POPC   PO437176  34.920   3.067   9.653
 2638POPC   GL137177  34.619   2.980   9.265
 2638POPC   GL237178  34.378   2.688   9.197
 2638POPC   C1A37179  34.445   3.077   8.848
 2638POPC   D2A37180  34.611   3.137   8.437
 2638POPC   C3A37181  34.384   3.032   8.063
 2638POPC   C4A37182  34.553   2.930   7.667
 2638POPC   C1B37183  34.540   2.548   8.798
 2638POPC   C2B37184  34.676   2.456   8.398
 2638POPC   C3B37185  34.569   2.566   8.020
 2638POPC   C4B37186  34.589   2.410   7.633
 2639POPC   NC337187  19.155  34.872   9.314
 2639POPC   PO437188  19.365  35.512   9.505
 2639POPC   GL137189  19.026  35.380   9.231
 2639POPC   GL237190  19.240  35.250   8.970
 2639POPC   C1A37191  18.815  35.494   8.856
 2639POPC   D2A37192  19.002  35.415   8.472
 2639POPC   C3A37193  18.807  35.529   8.091
 2639POPC   C4A37194  19.015  35.469   7.722
 2639POPC   C1B37195  19.457  34.908   8.753
 2639POPC   C2B37196  19.314  34.845   8.368
 2639POPC   C3B37197  19.271  35.174   8.077
 2639POPC   C4B37198  19.355  35.086   7.684
 2640POPC   NC337199   6.177  42.534   9.486
 2640POPC   PO437200   6.780  42.315   9.582
 2640POPC   GL137201   6.771  42.324   9.158
 2640POPC   GL237202   6.456  42.439   9.082
 2640POPC   C1A37203   6.764  42.160   8.730
 2640POPC   D2A37204   6.470  42.085   8.396
 2640POPC   C3A37205   6.625  42.063   7.962
 2640POPC   C4A37206   6.898  42.404   7.793
 2640POPC   C1B37207   6.284  42.478   8.690
 2640POPC   C2B37208   6.502  42.615   8.338
 2640POPC   C3B37209   6.380  42.559   7.962
 2640POPC   C4B37210   6.380  42.371   7.612
 2641POPC   NC337211   1.299  33.414   9.583
 2641POPC   PO437212   1.629  33.944   9.410
 2641POPC   GL137213   1.198  33.838   9.196
 2641POPC   GL237214   1.108  33.492   9.110
 2641POPC   C1A37215   0.999  33.804   8.754
 2641POPC   D2A37216   1.072  33.498   8.444
 2641POPC   C3A37217   1.055  33.685   8.073
 2641POPC   C4A37218   1.131  33.684   7.661
 2641POPC   C1B37219   1.450  33.495   8.844
 2641POPC   C2B37220   1.522  33.266   8.479
 2641POPC   C3B37221   1.531  33.468   8.108
 2641POPC   C4B37222   1.495  33.342   7.731
 2642POPC   NC337223  13.533  34.388   9.430
 2642POPC   PO437224  13.765  34.995   9.444
 2642POPC   GL137225  13.951  34.792   9.096
 2642POPC   GL237226  13.852  34.442   9.042
 2642POPC   C1A37227  13.894  34.746   8.647
 2642POPC   D2A37228  13.817  34.516   8.301
 2642POPC   C3A37229  13.595  34.717   7.983
 2642POPC   C4A37230  13.735  34.597   7.598
 2642POPC   C1B37231  13.448  34.502   8.779
 2642POPC   C2B37232  13.336  34.350   8.370
 2642POPC   C3B37233  13.524  34.205   8.013
 2642POPC   C4B37234  13.475  34.133   7.589
 2643POPC   NC337235  17.447  44.385   9.432
 2643POPC   PO437236  17.629   0.020   9.572
 2643POPC   GL137237  17.585  44.867   9.164
 2643POPC   GL237238  17.800  44.573   9.107
 2643POPC   C1A37239  17.376  44.814   8.769
 2643POPC   D2A37240  17.416  44.426   8.528
 2643POPC   C3A37241  17.331  44.423   8.075
 2643POPC   C4A37242  17.241  44.799   7.808
 2643POPC   C1B37243  17.859  44.726   8.661
 2643POPC   C2B37244  17.615  44.851   8.271
 2643POPC   C3B37245  17.744  44.688   7.869
 2643POPC   C4B37246  17.820  44.259   7.843
 2644POPC   NC337247  30.075  19.825   9.712
 2644POPC   PO437248  29.556  19.419   9.540
 2644POPC   GL137249  29.777  19.643   9.195
 2644POPC   GL237250  30.073  19.791   9.216
 2644POPC   C1A37251  29.699  19.857   8.825
 2644POPC   D2A37252  29.575  20.163   8.527
 2644POPC   C3A37253  29.628  19.937   8.138
 2644POPC   C4A37254  29.757  19.866   7.708
 2644POPC   C1B37255  30.208  19.730   8.820
 2644POPC   C2B37256  30.049  19.904   8.439
 2644POPC   C3B37257  30.153  19.818   8.044
 2644POPC   C4B37258  30.265  19.874   7.635
 2645POPC   NC337259   8.899  24.062   9.422
 2645POPC   PO437260   9.403  23.558   9.487
 2645POPC   GL137261   9.157  23.701   9.164
 2645POPC   GL237262   9.325  24.016   9.101
 2645POPC   C1A37263   8.944  23.501   8.817
 2645POPC   D2A37264   8.792  23.323   8.432
 2645POPC   C3A37265   9.027  23.416   8.063
 2645POPC   C4A37266   9.022  23.490   7.642
 2645POPC   C1B37267   9.046  24.011   8.750
 2645POPC   C2B37268   8.960  23.839   8.354
 2645POPC   C3B37269   8.842  23.884   7.921
 2645POPC   C4B37270   9.268  23.900   7.767
 2646POPC   NC337271  22.057  25.222   9.546
 2646POPC   PO437272  22.707  25.127   9.660
 2646POPC   GL137273  22.471  25.284   9.232
 2646POPC   GL237274  22.116  25.167   9.049
 2646POPC   C1A37275  22.354  25.546   8.843
 2646POPC   D2A37276  22.128  25.397   8.460
 2646POPC   C3A37277  22.219  25.488   8.039
 2646POPC   C4A37278  22.406  25.083   7.876
 2646POPC   C1B37279  21.817  25.516   8.844
 2646POPC   C2B37280  21.645  25.572   8.381
 2646POPC   C3B37281  21.714  25.383   7.969
 2646POPC   C4B37282  21.933  25.496   7.575
 2647POPC   NC337283  11.598   7.160   9.653
 2647POPC   PO437284  11.122   7.459   9.687
 2647POPC   GL137285  11.383   7.514   9.264
 2647POPC   GL237286  11.666   7.800   9.204
 2647POPC   C1A37287  11.127   7.453   8.856
 2647POPC   D2A37288  10.883   7.536   8.456
 2647POPC   C3A37289  11.017   7.339   8.058
 2647POPC   C4A37290  11.399   7.428   7.816
 2647POPC   C1B37291  11.495   7.772   8.785
 2647POPC   C2B37292  11.395   7.611   8.372
 2647POPC   C3B37293  11.571   7.847   8.044
 2647POPC   C4B37294  11.767   7.813   7.616
 2648POPC   NC337295  24.875  38.450   9.279
 2648POPC   PO437296  25.422  38.285   9.665
 2648POPC   GL137297  25.372  38.337   9.228
 2648POPC   GL237298  25.474  38.690   9.164
 2648POPC   C1A37299  25.281  38.272   8.768
 2648POPC   D2A37300  25.038  38.081   8.418
 2648POPC   C3A37301  25.208  38.169   8.008
 2648POPC   C4A37302  25.246  38.456   7.631
 2648POPC   C1B37303  25.223  38.789   8.801
 2648POPC   C2B37304  25.042  38.687   8.409
 2648POPC   C3B37305  25.230  38.738   8.047
 2648POPC   C4B37306  25.132  38.955   7.685
 2649POPC   NC337307  19.830   1.585   9.305
 2649POPC   PO437308  19.872   0.900   9.307
 2649POPC   GL137309  19.945   1.183   9.030
 2649POPC   GL237310  19.583   1.217   9.022
 2649POPC   C1A37311  19.960   1.414   8.645
 2649POPC   D2A37312  19.887   1.302   8.229
 2649POPC   C3A37313  19.659   1.000   8.046
 2649POPC   C4A37314  19.895   1.105   7.693
 2649POPC   C1B37315  19.604   1.030   8.638
 2649POPC   C2B37316  19.404   1.315   8.407
 2649POPC   C3B37317  19.404   1.463   8.013
 2649POPC   C4B37318  19.413   1.263   7.610
 2650POPC   NC337319  34.166  38.375   9.393
 2650POPC   PO437320  34.854  38.414   9.448
 2650POPC   GL137321  34.616  38.349   9.127
 2650POPC   GL237322  34.492  38.003   9.192
 2650POPC   C1A37323  34.654  38.515   8.724
 2650POPC   D2A37324  34.811  38.469   8.316
 2650POPC   C3A37325  34.612  38.681   7.988
 2650POPC   C4A37326  34.420  38.578   7.603
 2650POPC   C1B37327  34.356  38.100   8.762
 2650POPC   C2B37328  34.432  38.109   8.323
 2650POPC   C3B37329  34.521  38.162   7.898
 2650POPC   C4B37330  34.363  37.908   7.581
 2651POPC   NC337331  23.316  16.985   9.340
 2651POPC   PO437332  23.268  16.330   9.397
 2651POPC   GL137333  23.095  16.399   9.005
 2651POPC   GL237334  23.036  16.739   8.992
 2651POPC   C1A37335  22.957  16.456   8.575
 2651POPC   D2A37336  22.943  16.787   8.264
 2651POPC   C3A37337  23.109  16.695   7.881
 2651POPC   C4A37338  22.773  16.441   7.836
 2651POPC   C1B37339  23.179  17.035   8.664
 2651POPC   C2B37340  23.195  17.224   8.256
 2651POPC   C3B37341  23.001  17.183   7.824
 2651POPC   C4B37342  23.168  17.007   7.416
 2652POPC   NC337343   2.078  37.395   9.491
 2652POPC   PO437344   2.159  38.048   9.378
 2652POPC   GL137345   2.123  37.771   9.042
 2652POPC   GL237346   2.216  37.435   9.015
 2652POPC   C1A37347   2.028  37.931   8.679
 2652POPC   D2A37348   2.389  38.075   8.463
 2652POPC   C3A37349   2.393  37.962   8.037
 2652POPC   C4A37350   2.057  38.018   7.739
 2652POPC   C1B37351   2.131  37.397   8.630
 2652POPC   C2B37352   2.159  37.612   8.312
 2652POPC   C3B37353   1.904  37.606   8.013
 2652POPC   C4B37354   1.849  37.333   7.711
 2653POPC   NC337355  19.708  38.655   9.558
 2653POPC   PO437356  20.310  38.199   9.541
 2653POPC   GL137357  20.093  38.437   9.241
 2653POPC   GL237358  19.928  38.131   9.174
 2653POPC   C1A37359  19.809  38.545   8.855
 2653POPC   D2A37360  19.699  38.723   8.424
 2653POPC   C3A37361  19.964  38.726   8.070
 2653POPC   C4A37362  19.772  38.788   7.694
 2653POPC   C1B37363  19.835  38.049   8.752
 2653POPC   C2B37364  19.899  38.278   8.397
 2653POPC   C3B37365  19.874  38.225   7.985
 2653POPC   C4B37366  19.933  37.962   7.639
 2654POPC   NC337367   5.084   9.999   9.503
 2654POPC   PO437368   5.474   9.387   9.617
 2654POPC   GL137369   5.287   9.660   9.188
 2654POPC   GL237370   5.384  10.046   9.082
 2654POPC   C1A37371   4.967   9.826   8.822
 2654POPC   D2A37372   4.853   9.620   8.405
 2654POPC   C3A37373   5.023   9.782   8.005
 2654POPC   C4A37374   4.937   9.839   7.565
 2654POPC   C1B37375   5.419   9.977   8.640
 2654POPC   C2B37376   5.370   9.632   8.360
 2654POPC   C3B37377   5.496   9.550   7.955
 2654POPC   C4B37378   5.440   9.698   7.553
 2655POPC   NC337379  31.883  42.518   9.446
 2655POPC   PO437380  32.450  42.413   9.724
 2655POPC   GL137381  32.392  42.466   9.263
 2655POPC   GL237382  32.175  42.216   9.179
 2655POPC   C1A37383  32.213  42.612   8.844
 2655POPC   D2A37384  32.325  42.661   8.410
 2655POPC   C3A37385  32.300  42.313   8.116
 2655POPC   C4A37386  32.320  42.352   7.681
 2655POPC   C1B37387  32.180  42.103   8.779
 2655POPC   C2B37388  31.963  42.045   8.437
 2655POPC   C3B37389  31.966  41.902   8.037
 2655POPC   C4B37390  32.130  41.897   7.668
 2656POPC   NC337391  11.600  21.410   9.518
 2656POPC   PO437392  12.258  21.158   9.434
 2656POPC   GL137393  12.163  21.417   9.096
 2656POPC   GL237394  11.819  21.397   9.062
 2656POPC   C1A37395  12.278  21.560   8.692
 2656POPC   D2A37396  12.264  21.398   8.275
 2656POPC   C3A37397  12.337  21.669   7.889
 2656POPC   C4A37398  12.168  21.790   7.494
 2656POPC   C1B37399  11.838  21.295   8.644
 2656POPC   C2B37400  11.732  21.487   8.233
 2656POPC   C3B37401  11.953  21.339   7.866
 2656POPC   C4B37402  12.328  21.105   7.855
 2657POPC   NC337403   0.023   7.148   9.490
 2657POPC   PO437404  44.430   7.569   9.616
 2657POPC   GL137405  44.580   7.351   9.283
 2657POPC   GL237406  44.837   7.577   9.217
 2657POPC   C1A37407  44.465   7.284   8.844
 2657POPC   D2A37408  44.343   7.513   8.476
 2657POPC   C3A37409  44.467   7.408   8.069
 2657POPC   C4A37410  44.514   7.705   7.765
 2657POPC   C1B37411  44.976   7.450   8.826
 2657POPC   C2B37412   0.156   7.226   8.475
 2657POPC   C3B37413   0.006   7.348   8.100
 2657POPC   C4B37414  44.981   7.501   7.722
 2658POPC   NC337415   9.797  13.752   9.577
 2658POPC   PO437416  10.175  13.222   9.542
 2658POPC   GL137417   9.946  13.422   9.194
 2658POPC   GL237418  10.051  13.780   9.131
 2658POPC   C1A37419   9.659  13.559   8.852
 2658POPC   D2A37420   9.789  13.675   8.433
 2658POPC   C3A37421   9.502  13.754   8.111
 2658POPC   C4A37422   9.616  13.648   7.718
 2658POPC   C1B37423   9.945  14.052   8.771
 2658POPC   C2B37424  10.164  14.205   8.400
 2658POPC   C3B37425  10.066  13.945   8.040
 2658POPC   C4B37426   9.967  13.992   7.605
 2659POPC   NC337427  44.459   6.258   9.877
 2659POPC   PO437428  44.946   6.216   9.432
 2659POPC   GL137429  44.838   6.548   9.142
 2659POPC   GL237430  44.636   6.839   9.187
 2659POPC   C1A37431  44.654   6.495   8.744
 2659POPC   D2A37432  44.880   6.542   8.398
 2659POPC   C3A37433  44.614   6.559   8.116
 2659POPC   C4A37434  44.699   6.508   7.746
 2659POPC   C1B37435  44.848   6.950   8.785
 2659POPC   C2B37436  44.686   7.025   8.345
 2659POPC   C3B37437  44.734   7.000   7.855
 2659POPC   C4B37438  44.841   7.124   7.402
 2660POPC   NC337439  43.315  41.904   9.704
 2660POPC   PO437440  42.841  41.464   9.521
 2660POPC   GL137441  43.160  41.554   9.249
 2660POPC   GL237442  43.443  41.316   9.276
 2660POPC   C1A37443  43.076  41.703   8.836
 2660POPC   D2A37444  43.271  41.691   8.443
 2660POPC   C3A37445  43.021  41.785   8.091
 2660POPC   C4A37446  42.754  41.717   7.722
 2660POPC   C1B37447  43.479  41.351   8.829
 2660POPC   C2B37448  43.645  41.355   8.413
 2660POPC   C3B37449  43.504  41.159   8.060
 2660POPC   C4B37450  43.118  41.344   7.844
 2661POPC   NC337451  32.014  33.788   9.596
 2661POPC   PO437452  31.769  34.310   9.279
 2661POPC   GL137453  32.066  33.948   9.065
 2661POPC   GL237454  32.155  33.585   9.143
 2661POPC   C1A37455  32.140  33.940   8.624
 2661POPC   D2A37456  31.933  33.971   8.252
 2661POPC   C3A37457  31.830  33.592   8.088
 2661POPC   C4A37458  32.098  33.593   7.790
 2661POPC   C1B37459  32.419  33.547   8.775
 2661POPC   C2B37460  32.281  33.524   8.341
 2661POPC   C3B37461  32.561  33.495   8.023
 2661POPC   C4B37462  32.670  33.729   7.717
 2662POPC   NC337463  12.797  10.222   9.419
 2662POPC   PO437464  12.623  10.849   9.498
 2662POPC   GL137465  12.892  10.756   9.142
 2662POPC   GL237466  13.167  10.510   9.152
 2662POPC   C1A37467  12.800  10.626   8.735
 2662POPC   D2A37468  12.851  10.430   8.362
 2662POPC   C3A37469  12.836  10.739   8.089
 2662POPC   C4A37470  12.644  10.600   7.769
 2662POPC   C1B37471  13.185  10.283   8.744
 2662POPC   C2B37472  13.301  10.202   8.298
 2662POPC   C3B37473  13.156  10.406   7.898
 2662POPC   C4B37474  13.401  10.474   7.505
 2663POPC   NC337475  29.679  34.922   9.346
 2663POPC   PO437476  30.082  34.404   9.559
 2663POPC   GL137477  30.102  34.629   9.189
 2663POPC   GL237478  29.918  34.354   9.079
 2663POPC   C1A37479  30.013  34.722   8.735
 2663POPC   D2A37480  30.205  34.743   8.311
 2663POPC   C3A37481  29.852  34.800   8.022
 2663POPC   C4A37482  29.564  34.790   7.675
 2663POPC   C1B37483  30.290  34.300   8.840
 2663POPC   C2B37484  30.220  34.250   8.436
 2663POPC   C3B37485  29.998  34.295   8.070
 2663POPC   C4B37486  29.892  34.405   7.682
 2664POPC   NC337487  20.299  41.252   9.546
 2664POPC   PO437488  20.697  41.766   9.610
 2664POPC   GL137489  20.517  41.639   9.205
 2664POPC   GL237490  20.301  41.345   9.056
 2664POPC   C1A37491  20.610  41.659   8.780
 2664POPC   D2A37492  20.466  41.604   8.358
 2664POPC   C3A37493  20.696  41.640   8.004
 2664POPC   C4A37494  20.479  41.782   7.664
 2664POPC   C1B37495  20.410  41.174   8.622
 2664POPC   C2B37496  20.381  41.145   8.134
 2664POPC   C3B37497  20.440  41.282   7.722
 2664POPC   C4B37498  20.328  41.415   7.308
 2665POPC   NC337499  32.833  42.689   9.709
 2665POPC   PO437500  33.265  42.154   9.583
 2665POPC   GL137501  33.211  42.300   9.191
 2665POPC   GL237502  32.919  42.519   9.223
 2665POPC   C1A37503  33.025  42.136   8.840
 2665POPC   D2A37504  32.852  42.272   8.477
 2665POPC   C3A37505  33.151  42.309   8.181
 2665POPC   C4A37506  33.046  42.252   7.795
 2665POPC   C1B37507  32.734  42.628   8.832
 2665POPC   C2B37508  32.827  42.794   8.438
 2665POPC   C3B37509  32.744  42.602   8.081
 2665POPC   C4B37510  32.689  42.708   7.710
 2666POPC   NC337511   8.549  35.116   9.455
 2666POPC   PO437512   9.205  35.360   9.526
 2666POPC   GL137513   8.945  35.365   9.177
 2666POPC   GL237514   8.921  35.010   9.129
 2666POPC   C1A37515   8.792  35.391   8.740
 2666POPC   D2A37516   8.624  35.149   8.412
 2666POPC   C3A37517   8.864  35.164   8.035
 2666POPC   C4A37518   9.172  35.369   7.793
 2666POPC   C1B37519   9.180  35.080   8.789
 2666POPC   C2B37520   9.322  35.115   8.364
 2666POPC   C3B37521   9.372  34.914   7.992
 2666POPC   C4B37522   9.386  34.950   7.542
 2667POPC   NC337523  13.095   1.581   9.386
 2667POPC   PO437524  12.495   1.449   9.689
 2667POPC   GL137525  12.426   1.307   9.248
 2667POPC   GL237526  12.462   1.642   9.138
 2667POPC   C1A37527  12.655   1.019   8.914
 2667POPC   D2A37528  13.075   1.086   8.630
 2667POPC   C3A37529  13.076   1.046   8.159
 2667POPC   C4A37530  12.741   0.913   7.901
 2667POPC   C1B37531  12.641   1.485   8.748
 2667POPC   C2B37532  12.628   1.197   8.392
 2667POPC   C3B37533  12.603   1.429   7.981
 2667POPC   C4B37534  12.678   1.546   7.525
 2668POPC   NC337535  21.149  41.779   9.558
 2668POPC   PO437536  21.508  41.211   9.421
 2668POPC   GL137537  21.428  41.627   9.153
 2668POPC   GL237538  21.105  41.824   9.063
 2668POPC   C1A37539  21.570  41.817   8.766
 2668POPC   D2A37540  21.545  41.551   8.396
 2668POPC   C3A37541  21.792  41.664   8.078
 2668POPC   C4A37542  21.752  41.835   7.672
 2668POPC   C1B37543  21.093  41.684   8.649
 2668POPC   C2B37544  21.068  41.890   8.275
 2668POPC   C3B37545  21.313  41.775   7.946
 2668POPC   C4B37546  21.420  41.353   7.909
 2669POPC   NC337547  19.339  43.225   9.313
 2669POPC   PO437548  19.074  42.631   9.502
 2669POPC   GL137549  18.971  42.835   9.099
 2669POPC   GL237550  18.876  43.186   8.992
 2669POPC   C1A37551  19.079  42.839   8.703
 2669POPC   D2A37552  19.356  42.847   8.441
 2669POPC   C3A37553  19.118  42.962   8.175
 2669POPC   C4A37554  19.072  42.787   7.847
 2669POPC   C1B37555  19.249  43.323   8.676
 2669POPC   C2B37556  19.443  43.361   8.262
 2669POPC   C3B37557  19.241  43.313   7.823
 2669POPC   C4B37558  18.842  43.162   7.594
 2670POPC   NC337559  24.963  41.729   9.524
 2670POPC   PO437560  25.347  42.289   9.480
 2670POPC   GL137561  25.308  42.151   9.113
 2670POPC   GL237562  24.929  42.145   9.096
 2670POPC   C1A37563  25.526  42.040   8.728
 2670POPC   D2A37564  25.375  42.049   8.302
 2670POPC   C3A37565  25.257  42.304   7.970
 2670POPC   C4A37566  24.975  42.192   7.675
 2670POPC   C1B37567  25.096  42.321   8.697
 2670POPC   C2B37568  25.032  42.573   8.349
 2670POPC   C3B37569  25.014  42.753   7.943
 2670POPC   C4B37570  24.751  42.686   7.616
 2671POPC   NC337571   0.755  14.113   9.668
 2671POPC   PO437572   0.139  14.004   9.349
 2671POPC   GL137573   0.325  14.163   9.022
 2671POPC   GL237574   0.579  14.328   9.226
 2671POPC   C1A37575   0.365  14.200   8.582
 2671POPC   D2A37576   0.525  14.152   8.187
 2671POPC   C3A37577   0.287  14.302   7.867
 2671POPC   C4A37578   0.313  14.600   7.595
 2671POPC   C1B37579   0.725  14.481   8.827
 2671POPC   C2B37580   0.585  14.630   8.401
 2671POPC   C3B37581   0.696  14.589   7.970
 2671POPC   C4B37582   0.847  14.566   7.560
 2672POPC   NC337583  30.356  28.212   9.592
 2672POPC   PO437584  31.031  28.199   9.476
 2672POPC   GL137585  30.883  28.148   9.096
 2672POPC   GL237586  30.765  28.452   9.076
 2672POPC   C1A37587  31.040  28.266   8.679
 2672POPC   D2A37588  31.045  27.989   8.326
 2672POPC   C3A37589  30.809  28.191   8.043
 2672POPC   C4A37590  30.924  28.330   7.655
 2672POPC   C1B37591  30.546  28.434   8.710
 2672POPC   C2B37592  30.412  28.247   8.366
 2672POPC   C3B37593  30.319  28.018   8.005
 2672POPC   C4B37594  30.423  28.246   7.667
 2673POPC   NC337595  31.974  21.473   9.508
 2673POPC   PO437596  32.629  21.430   9.745
 2673POPC   GL137597  32.436  21.414   9.283
 2673POPC   GL237598  32.160  21.169   9.151
 2673POPC   C1A37599  32.301  21.674   8.871
 2673POPC   D2A37600  32.267  21.907   8.458
 2673POPC   C3A37601  32.378  21.768   8.044
 2673POPC   C4A37602  32.111  21.585   7.715
 2673POPC   C1B37603  32.095  21.237   8.729
 2673POPC   C2B37604  32.389  21.377   8.402
 2673POPC   C3B37605  32.403  21.252   7.946
 2673POPC   C4B37606  32.203  21.007   7.625
 2674POPC   NC337607   1.059  30.204   9.595
 2674POPC   PO437608   1.011  29.593   9.351
 2674POPC   GL137609   1.378  29.809   9.241
 2674POPC   GL237610   1.343  30.135   9.176
 2674POPC   C1A37611   1.552  29.815   8.825
 2674POPC   D2A37612   1.304  29.704   8.488
 2674POPC   C3A37613   1.412  29.820   8.071
 2674POPC   C4A37614   1.176  29.675   7.715
 2674POPC   C1B37615   1.385  30.329   8.796
 2674POPC   C2B37616   1.238  30.212   8.394
 2674POPC   C3B37617   1.359  30.340   7.978
 2674POPC   C4B37618   1.380  30.170   7.565
 2675POPC   NC337619  20.729  36.050   9.496
 2675POPC   PO437620  20.932  36.718   9.446
 2675POPC   GL137621  20.720  36.337   9.100
 2675POPC   GL237622  20.373  36.182   9.143
 2675POPC   C1A37623  20.645  36.083   8.717
 2675POPC   D2A37624  20.853  36.195   8.368
 2675POPC   C3A37625  20.695  36.033   8.048
 2675POPC   C4A37626  20.726  36.233   7.733
 2675POPC   C1B37627  20.295  36.446   8.762
 2675POPC   C2B37628  20.372  36.396   8.339
 2675POPC   C3B37629  20.203  36.225   7.968
 2675POPC   C4B37630  20.166  36.386   7.570
 2676POPC   NC337631  39.069   5.792   9.624
 2676POPC   PO437632  39.617   6.266   9.526
 2676POPC   GL137633  39.570   5.948   9.163
 2676POPC   GL237634  39.352   5.660   9.207
 2676POPC   C1A37635  39.449   5.877   8.719
 2676POPC   D2A37636  39.565   5.737   8.300
 2676POPC   C3A37637  39.435   5.870   7.883
 2676POPC   C4A37638  39.483   5.845   7.447
 2676POPC   C1B37639  39.082   5.530   8.857
 2676POPC   C2B37640  39.070   5.688   8.429
 2676POPC   C3B37641  39.052   5.575   7.997
 2676POPC   C4B37642  38.998   5.717   7.588
 2677POPC   NC337643  44.766  10.184   9.652
 2677POPC   PO437644  44.428   9.900   9.190
 2677POPC   GL137645  44.648   9.949   8.828
 2677POPC   GL237646  44.998  10.004   8.942
 2677POPC   C1A37647  44.553   9.792   8.427
 2677POPC   D2A37648  44.531   9.448   8.165
 2677POPC   C3A37649  44.352   9.478   7.776
 2677POPC   C4A37650  44.515   9.746   7.439
 2677POPC   C1B37651   0.067   9.678   8.608
 2677POPC   C2B37652   0.037   9.650   8.186
 2677POPC   C3B37653  44.872   9.752   7.798
 2677POPC   C4B37654   0.080   9.794   7.399
 2678POPC   NC337655  26.213  20.238   5.466
 2678POPC   PO437656  25.937  19.673   5.287
 2678POPC   GL137657  26.067  19.604   5.711
 2678POPC   GL237658  25.979  19.936   5.835
 2678POPC   C1A37659  26.197  19.582   6.141
 2678POPC   D2A37660  25.983  19.752   6.523
 2678POPC   C3A37661  26.186  19.674   6.930
 2678POPC   C4A37662  26.134  19.727   7.364
 2678POPC   C1B37663  26.222  20.097   6.221
 2678POPC   C2B37664  26.274  20.143   6.690
 2678POPC   C3B37665  26.035  20.145   7.085
 2678POPC   C4B37666  26.179  20.199   7.554
 2679POPC   NC337667  13.963   8.141   5.620
 2679POPC   PO437668  13.561   8.444   5.219
 2679POPC   GL137669  13.550   8.392   5.781
 2679POPC   GL237670  13.753   8.219   6.052
 2679POPC   C1A37671  13.451   8.537   6.273
 2679POPC   D2A37672  13.743   8.242   6.553
 2679POPC   C3A37673  13.727   8.269   6.980
 2679POPC   C4A37674  13.409   8.524   7.097
 2679POPC   C1B37675  13.352   8.056   6.266
 2679POPC   C2B37676  13.238   8.218   6.698
 2679POPC   C3B37677  13.290   8.032   7.129
 2679POPC   C4B37678  13.672   7.905   7.375
 2680POPC   NC337679  13.319   4.304   5.385
 2680POPC   PO437680  12.725   4.061   5.441
 2680POPC   GL137681  12.728   4.219   5.864
 2680POPC   GL237682  13.041   4.444   5.899
 2680POPC   C1A37683  12.516   4.124   6.279
 2680POPC   D2A37684  12.399   4.229   6.718
 2680POPC   C3A37685  12.717   4.366   7.023
 2680POPC   C4A37686  12.627   4.548   7.431
 2680POPC   C1B37687  13.155   4.694   6.309
 2680POPC   C2B37688  13.065   4.836   6.765
 2680POPC   C3B37689  13.078   4.694   7.216
 2680POPC   C4B37690  13.066   4.286   7.456
 2681POPC   NC337691  23.263   2.525   5.400
 2681POPC   PO437692  22.627   2.520   5.329
 2681POPC   GL137693  22.748   2.620   5.778
 2681POPC   GL237694  23.079   2.500   5.866
 2681POPC   C1A37695  22.816   2.840   6.205
 2681POPC   D2A37696  23.049   2.963   6.619
 2681POPC   C3A37697  22.924   3.000   7.070
 2681POPC   C4A37698  23.238   3.059   7.431
 2681POPC   C1B37699  22.901   2.336   6.238
 2681POPC   C2B37700  22.767   2.517   6.621
 2681POPC   C3B37701  22.900   2.484   7.031
 2681POPC   C4B37702  22.964   2.638   7.444
 2682POPC   NC337703  12.990  24.774   5.303
 2682POPC   PO437704  12.349  24.570   5.390
 2682POPC   GL137705  12.594  24.743   5.733
 2682POPC   GL237706  12.806  24.458   5.744
 2682POPC   C1A37707  12.784  24.771   6.155
 2682POPC   D2A37708  12.909  24.562   6.535
 2682POPC   C3A37709  12.812  24.627   6.923
 2682POPC   C4A37710  12.686  24.776   7.275
 2682POPC   C1B37711  12.838  24.242   6.142
 2682POPC   C2B37712  13.155  24.140   6.443
 2682POPC   C3B37713  12.999  24.103   6.864
 2682POPC   C4B37714  13.097  24.305   7.268
 2683POPC   NC337715  34.922  26.024   5.239
 2683POPC   PO437716  35.627  25.873   5.269
 2683POPC   GL137717  35.448  25.882   5.667
 2683POPC   GL237718  35.541  26.174   5.846
 2683POPC   C1A37719  35.452  25.730   6.094
 2683POPC   D2A37720  35.498  25.765   6.537
 2683POPC   C3A37721  35.204  25.992   6.800
 2683POPC   C4A37722  35.255  25.921   7.266
 2683POPC   C1B37723  35.346  26.197   6.271
 2683POPC   C2B37724  35.298  26.468   6.614
 2683POPC   C3B37725  35.406  26.377   7.038
 2683POPC   C4B37726  35.349  26.627   7.349
 2684POPC   NC337727  29.496  13.629   5.493
 2684POPC   PO437728  30.191  13.845   5.573
 2684POPC   GL137729  29.854  13.709   5.854
 2684POPC   GL237730  29.525  13.878   5.935
 2684POPC   C1A37731  29.918  13.615   6.264
 2684POPC   D2A37732  29.868  13.841   6.626
 2684POPC   C3A37733  30.142  13.667   6.924
 2684POPC   C4A37734  30.198  13.504   7.302
 2684POPC   C1B37735  29.415  13.578   6.233
 2684POPC   C2B37736  29.503  13.487   6.652
 2684POPC   C3B37737  29.615  13.691   7.045
 2684POPC   C4B37738  29.703  13.513   7.432
 2685POPC   NC337739  12.119  38.056   5.547
 2685POPC   PO437740  11.791  37.460   5.533
 2685POPC   GL137741  11.977  37.686   5.850
 2685POPC   GL237742  12.353  37.643   5.798
 2685POPC   C1A37743  11.858  37.817   6.264
 2685POPC   D2A37744  12.050  37.626   6.625
 2685POPC   C3A37745  12.007  37.791   7.034
 2685POPC   C4A37746  11.798  37.644   7.395
 2685POPC   C1B37747  12.429  37.566   6.252
 2685POPC   C2B37748  12.520  37.799   6.669
 2685POPC   C3B37749  12.507  37.818   7.134
 2685POPC   C4B37750  12.262  37.800   7.516
 2686POPC   NC337751  38.575   8.832   5.388
 2686POPC   PO437752  38.402   9.393   5.126
 2686POPC   GL137753  38.382   9.206   5.631
 2686POPC   GL237754  38.140   8.919   5.704
 2686POPC   C1A37755  38.512   8.945   6.035
 2686POPC   D2A37756  38.505   9.222   6.376
 2686POPC   C3A37757  38.457   9.133   6.816
 2686POPC   C4A37758  38.612   9.329   7.199
 2686POPC   C1B37759  38.044   9.025   6.161
 2686POPC   C2B37760  38.167   8.813   6.543
 2686POPC   C3B37761  38.388   8.630   6.903
 2686POPC   C4B37762  38.319   8.883   7.224
 2687POPC   NC337763  21.605  22.841   5.492
 2687POPC   PO437764  20.895  22.915   5.324
 2687POPC   GL137765  21.169  23.036   5.708
 2687POPC   GL237766  21.187  22.736   5.880
 2687POPC   C1A37767  21.425  23.122   6.128
 2687POPC   D2A37768  21.769  22.944   6.411
 2687POPC   C3A37769  21.800  23.001   6.867
 2687POPC   C4A37770  21.487  23.106   7.192
 2687POPC   C1B37771  21.330  22.672   6.325
 2687POPC   C2B37772  21.340  22.871   6.717
 2687POPC   C3B37773  21.068  22.802   7.037
 2687POPC   C4B37774  20.898  22.421   7.239
 2688POPC   NC337775   9.338  11.599   5.351
 2688POPC   PO437776   9.791  11.170   5.360
 2688POPC   GL137777   9.748  11.477   5.710
 2688POPC   GL237778   9.403  11.530   5.864
 2688POPC   C1A37779   9.826  11.418   6.165
 2688POPC   D2A37780   9.692  11.101   6.479
 2688POPC   C3A37781   9.827  11.190   6.904
 2688POPC   C4A37782   9.638  11.169   7.308
 2688POPC   C1B37783   9.317  11.429   6.298
 2688POPC   C2B37784   9.486  11.552   6.690
 2688POPC   C3B37785   9.321  11.487   7.060
 2688POPC   C4B37786   9.292  11.643   7.440
 2689POPC   NC337787  13.630  14.635   5.351
 2689POPC   PO437788  13.501  14.049   5.488
 2689POPC   GL137789  13.435  14.360   5.816
 2689POPC   GL237790  13.472  14.731   5.817
 2689POPC   C1A37791  13.471  14.429   6.263
 2689POPC   D2A37792  13.805  14.481   6.566
 2689POPC   C3A37793  13.579  14.443   6.939
 2689POPC   C4A37794  13.791  14.237   7.269
 2689POPC   C1B37795  13.748  14.852   6.150
 2689POPC   C2B37796  13.569  14.919   6.554
 2689POPC   C3B37797  13.670  14.981   6.961
 2689POPC   C4B37798  13.830  14.742   7.293
 2690POPC   NC337799  10.240  18.876   5.484
 2690POPC   PO437800  10.375  18.152   5.313
 2690POPC   GL137801  10.604  18.207   5.688
 2690POPC   GL237802  10.624  18.557   5.648
 2690POPC   C1A37803  10.659  18.125   6.147
 2690POPC   D2A37804  10.387  18.150   6.531
 2690POPC   C3A37805  10.491  18.225   6.972
 2690POPC   C4A37806  10.281  18.287   7.399
 2690POPC   C1B37807  10.824  18.604   6.069
 2690POPC   C2B37808  10.782  18.490   6.508
 2690POPC   C3B37809  10.704  18.690   6.906
 2690POPC   C4B37810  10.755  18.543   7.303
 2691POPC   NC337811  27.021  13.240   5.523
 2691POPC   PO437812  26.426  12.911   5.355
 2691POPC   GL137813  26.689  12.881   5.762
 2691POPC   GL237814  27.052  12.757   5.769
 2691POPC   C1A37815  26.729  12.726   6.219
 2691POPC   D2A37816  26.950  12.760   6.637
 2691POPC   C3A37817  26.871  12.515   7.011
 2691POPC   C4A37818  26.537  12.492   7.330
 2691POPC   C1B37819  27.187  12.940   6.175
 2691POPC   C2B37820  27.273  13.142   6.600
 2691POPC   C3B37821  26.921  13.237   6.815
 2691POPC   C4B37822  26.849  13.003   7.163
 2692POPC   NC337823  20.358  11.584   5.314
 2692POPC   PO437824  20.793  11.112   5.154
 2692POPC   GL137825  20.586  11.177   5.542
 2692POPC   GL237826  20.490  10.909   5.746
 2692POPC   C1A37827  20.625  11.364   5.948
 2692POPC   D2A37828  20.545  11.386   6.400
 2692POPC   C3A37829  20.651  11.309   6.842
 2692POPC   C4A37830  20.386  11.350   7.242
 2692POPC   C1B37831  20.332  10.981   6.142
 2692POPC   C2B37832  20.460  10.854   6.558
 2692POPC   C3B37833  20.385  10.894   6.996
 2692POPC   C4B37834  20.803  10.900   7.181
 2693POPC   NC337835  19.073  39.866   5.330
 2693POPC   PO437836  19.251  40.552   5.389
 2693POPC   GL137837  19.235  40.157   5.746
 2693POPC   GL237838  19.101  39.800   5.822
 2693POPC   C1A37839  19.366  39.962   6.198
 2693POPC   D2A37840  19.235  39.697   6.526
 2693POPC   C3A37841  19.314  39.925   6.876
 2693POPC   C4A37842  19.436  39.837   7.256
 2693POPC   C1B37843  18.854  39.942   6.222
 2693POPC   C2B37844  18.831  40.045   6.691
 2693POPC   C3B37845  18.873  39.939   7.152
 2693POPC   C4B37846  18.735  39.850   7.598
 2694POPC   NC337847   2.923  33.301   5.533
 2694POPC   PO437848   2.435  32.834   5.341
 2694POPC   GL137849   2.630  32.887   5.706
 2694POPC   GL237850   2.465  32.623   5.857
 2694POPC   C1A37851   2.869  32.916   6.106
 2694POPC   D2A37852   2.993  33.184   6.474
 2694POPC   C3A37853   2.865  33.032   6.878
 2694POPC   C4A37854   2.770  32.671   7.133
 2694POPC   C1B37855   2.375  32.909   6.159
 2694POPC   C2B37856   2.451  33.150   6.515
 2694POPC   C3B37857   2.356  32.970   6.886
 2694POPC   C4B37858   2.512  33.105   7.258
 2695POPC   NC337859  19.497  32.171   5.579
 2695POPC   PO437860  20.056  32.600   5.560
 2695POPC   GL137861  19.904  32.290   5.879
 2695POPC   GL237862  20.170  32.131   6.041
 2695POPC   C1A37863  19.624  32.144   6.220
 2695POPC   D2A37864  19.481  32.297   6.626
 2695POPC   C3A37865  19.691  32.207   6.995
 2695POPC   C4A37866  20.063  32.390   7.148
 2695POPC   C1B37867  20.074  32.300   6.425
 2695POPC   C2B37868  19.917  31.952   6.594
 2695POPC   C3B37869  20.107  31.722   6.857
 2695POPC   C4B37870  20.055  31.875   7.234
 2696POPC   NC337871   5.880  15.285   5.440
 2696POPC   PO437872   6.167  14.642   5.529
 2696POPC   GL137873   6.146  14.912   5.897
 2696POPC   GL237874   5.943  15.202   5.922
 2696POPC   C1A37875   6.088  14.968   6.338
 2696POPC   D2A37876   6.055  15.215   6.701
 2696POPC   C3A37877   6.057  15.123   7.124
 2696POPC   C4A37878   6.000  14.751   7.327
 2696POPC   C1B37879   5.907  15.474   6.269
 2696POPC   C2B37880   5.682  15.553   6.659
 2696POPC   C3B37881   5.665  15.458   7.108
 2696POPC   C4B37882   5.683  15.513   7.574
 2697POPC   NC337883  43.398   0.610   5.539
 2697POPC   PO437884  42.812   0.200   5.494
 2697POPC   GL137885  43.016   0.369   5.789
 2697POPC   GL237886  42.935   0.715   5.829
 2697POPC   C1A37887  43.245   0.340   6.152
 2697POPC   D2A37888  43.168   0.553   6.514
 2697POPC   C3A37889  43.228   0.334   6.909
 2697POPC   C4A37890  43.149   0.458   7.340
 2697POPC   C1B37891  42.762   0.880   6.231
 2697POPC   C2B37892  42.805   0.891   6.703
 2697POPC   C3B37893  42.942   0.919   7.165
 2697POPC   C4B37894  42.816   0.751   7.595
 2698POPC   NC337895  32.865  34.325   5.605
 2698POPC   PO437896  33.285  34.921   5.388
 2698POPC   GL137897  33.170  34.733   5.794
 2698POPC   GL237898  33.299  34.393   5.869
 2698POPC   C1A37899  33.008  34.614   6.220
 2698POPC   D2A37900  33.175  34.479   6.610
 2698POPC   C3A37901  32.914  34.463   6.985
 2698POPC   C4A37902  32.844  34.889   7.097
 2698POPC   C1B37903  33.299  34.128   6.266
 2698POPC   C2B37904  33.166  33.991   6.704
 2698POPC   C3B37905  33.309  34.144   7.119
 2698POPC   C4B37906  33.308  34.146   7.607
 2699POPC   NC337907  24.660   4.649   4.892
 2699POPC   PO437908  24.263   4.553   5.406
 2699POPC   GL137909  24.304   4.535   5.858
 2699POPC   GL237910  24.557   4.307   5.928
 2699POPC   C1A37911  24.167   4.301   6.256
 2699POPC   D2A37912  24.166   4.193   6.702
 2699POPC   C3A37913  24.391   4.394   7.041
 2699POPC   C4A37914  24.439   4.746   7.344
 2699POPC   C1B37915  24.601   4.582   6.316
 2699POPC   C2B37916  24.690   4.691   6.764
 2699POPC   C3B37917  24.894   4.579   7.186
 2699POPC   C4B37918  24.927   4.528   7.657
 2700POPC   NC337919  15.582   1.239   5.116
 2700POPC   PO437920  15.016   1.544   5.436
 2700POPC   GL137921  14.961   1.351   5.832
 2700POPC   GL237922  14.708   1.086   5.904
 2700POPC   C1A37923  15.157   1.189   6.223
 2700POPC   D2A37924  15.181   1.003   6.632
 2700POPC   C3A37925  15.263   1.261   7.004
 2700POPC   C4A37926  15.223   0.961   7.295
 2700POPC   C1B37927  14.688   1.396   6.238
 2700POPC   C2B37928  14.881   1.406   6.649
 2700POPC   C3B37929  14.790   1.110   7.019
 2700POPC   C4B37930  14.877   1.297   7.460
 2701POPC   NC337931  29.034  28.177   5.070
 2701POPC   PO437932  29.302  28.667   5.424
 2701POPC   GL137933  29.356  28.323   5.795
 2701POPC   GL237934  29.299  27.929   5.804
 2701POPC   C1A37935  29.243  28.234   6.269
 2701POPC   D2A37936  29.015  28.086   6.679
 2701POPC   C3A37937  29.097  28.372   7.056
 2701POPC   C4A37938  28.895  28.610   7.405
 2701POPC   C1B37939  29.372  27.749   6.243
 2701POPC   C2B37940  29.489  27.907   6.687
 2701POPC   C3B37941  29.270  27.883   7.103
 2701POPC   C4B37942  29.053  28.088   7.483
 2702POPC   NC337943  30.855  18.730   5.446
 2702POPC   PO437944  30.464  18.199   5.404
 2702POPC   GL137945  30.607  18.406   5.814
 2702POPC   GL237946  30.935  18.290   5.887
 2702POPC   C1A37947  30.392  18.346   6.254
 2702POPC   D2A37948  30.304  18.320   6.685
 2702POPC   C3A37949  30.700  18.423   6.897
 2702POPC   C4A37950  30.923  18.230   7.220
 2702POPC   C1B37951  30.876  18.438   6.334
 2702POPC   C2B37952  31.107  18.654   6.676
 2702POPC   C3B37953  31.188  18.652   7.129
 2702POPC   C4B37954  31.087  18.593   7.627
 2703POPC   NC337955   6.034  28.312   5.415
 2703POPC   PO437956   5.411  28.551   5.489
 2703POPC   GL137957   5.674  28.372   5.819
 2703POPC   GL237958   5.911  28.095   5.838
 2703POPC   C1A37959   5.840  28.488   6.232
 2703POPC   D2A37960   6.068  28.591   6.622
 2703POPC   C3A37961   5.876  28.450   7.024
 2703POPC   C4A37962   5.963  28.377   7.489
 2703POPC   C1B37963   5.866  27.977   6.222
 2703POPC   C2B37964   5.975  28.089   6.625
 2703POPC   C3B37965   5.818  27.928   6.988
 2703POPC   C4B37966   6.052  27.911   7.334
 2704POPC   NC337967  19.874  36.273   5.581
 2704POPC   PO437968  20.326  35.864   5.451
 2704POPC   GL137969  20.083  35.940   5.899
 2704POPC   GL237970  19.709  36.059   5.991
 2704POPC   C1A37971  19.912  35.704   6.269
 2704POPC   D2A37972  19.676  35.710   6.633
 2704POPC   C3A37973  19.790  36.081   6.842
 2704POPC   C4A37974  20.024  36.094   7.187
 2704POPC   C1B37975  19.359  36.273   6.204
 2704POPC   C2B37976  19.411  36.396   6.634
 2704POPC   C3B37977  19.350  36.489   7.044
 2704POPC   C4B37978  19.462  36.228   7.357
 2705POPC   NC337979  21.070   0.081   5.476
 2705POPC   PO437980  20.735  44.481   5.522
 2705POPC   GL137981  20.622  44.629   5.920
 2705POPC   GL237982  20.789  44.904   5.864
 2705POPC   C1A37983  20.536  44.758   6.325
 2705POPC   D2A37984  20.676  44.559   6.684
 2705POPC   C3A37985  20.348  44.563   6.966
 2705POPC   C4A37986  20.341  44.720   7.350
 2705POPC   C1B37987  20.869   0.160   6.199
 2705POPC   C2B37988  20.788   0.128   6.614
 2705POPC   C3B37989  20.608   0.005   7.002
 2705POPC   C4B37990  20.785  44.931   7.418
 2706POPC   NC337991  10.137  22.529   5.380
 2706POPC   PO437992  10.533  21.933   5.326
 2706POPC   GL137993  10.378  22.129   5.728
 2706POPC   GL237994  10.483  22.472   5.773
 2706POPC   C1A37995  10.459  22.022   6.188
 2706POPC   D2A37996  10.732  21.822   6.488
 2706POPC   C3A37997  10.628  21.904   6.900
 2706POPC   C4A37998  10.463  21.928   7.285
 2706POPC   C1B37999  10.375  22.529   6.230
 2706POPC   C2B38000  10.352  22.340   6.657
 2706POPC   C3B38001  10.450  22.385   7.115
 2706POPC   C4B38002  10.556  22.417   7.593
 2707POPC   NC338003  28.850  40.741   5.382
 2707POPC   PO438004  29.522  40.912   5.516
 2707POPC   GL138005  29.189  40.666   5.790
 2707POPC   GL238006  28.829  40.510   5.854
 2707POPC   C1A38007  29.029  40.872   6.173
 2707POPC   D2A38008  29.186  41.005   6.584
 2707POPC   C3A38009  29.192  40.847   6.993
 2707POPC   C4A38010  28.926  40.913   7.321
 2707POPC   C1B38011  29.036  40.386   6.251
 2707POPC   C2B38012  28.937  40.542   6.672
 2707POPC   C3B38013  28.925  40.425   7.130
 2707POPC   C4B38014  28.855  40.495   7.594
 2708POPC   NC338015  27.768  40.147   5.383
 2708POPC   PO438016  27.147  39.787   5.288
 2708POPC   GL138017  27.354  39.839   5.728
 2708POPC   GL238018  27.736  39.773   5.766
 2708POPC   C1A38019  27.460  39.869   6.190
 2708POPC   D2A38020  27.264  39.833   6.610
 2708POPC   C3A38021  27.537  39.907   6.973
 2708POPC   C4A38022  27.801  39.711   7.263
 2708POPC   C1B38023  27.963  40.004   6.114
 2708POPC   C2B38024  27.915  40.123   6.539
 2708POPC   C3B38025  27.980  40.382   6.887
 2708POPC   C4B38026  27.999  40.200   7.300
 2709POPC   NC338027  33.243  21.823   5.527
 2709POPC   PO438028  33.166  21.109   5.535
 2709POPC   GL138029  32.962  21.465   5.749
 2709POPC   GL238030  32.987  21.239   5.990
 2709POPC   C1A38031  33.053  21.707   6.156
 2709POPC   D2A38032  32.963  21.386   6.482
 2709POPC   C3A38033  33.074  21.455   6.879
 2709POPC   C4A38034  32.954  21.335   7.277
 2709POPC   C1B38035  32.715  21.009   6.193
 2709POPC   C2B38036  32.501  21.100   6.552
 2709POPC   C3B38037  32.657  21.102   6.952
 2709POPC   C4B38038  32.625  20.888   7.353
 2710POPC   NC338039  32.944  14.727   5.370
 2710POPC   PO438040  32.837  14.010   5.371
 2710POPC   GL138041  32.787  14.356   5.670
 2710POPC   GL238042  33.141  14.498   5.765
 2710POPC   C1A38043  32.793  14.422   6.121
 2710POPC   D2A38044  32.979  14.206   6.488
 2710POPC   C3A38045  32.906  14.406   6.880
 2710POPC   C4A38046  32.764  14.291   7.279
 2710POPC   C1B38047  33.415  14.557   6.120
 2710POPC   C2B38048  33.521  14.385   6.521
 2710POPC   C3B38049  33.398  14.295   6.909
 2710POPC   C4B38050  33.258  14.584   7.194
 2711POPC   NC338051  22.713  15.552   5.407
 2711POPC   PO438052  22.613  14.844   5.257
 2711POPC   GL138053  22.621  15.061   5.664
 2711POPC   GL238054  22.916  15.182   5.754
 2711POPC   C1A38055  22.624  15.238   6.148
 2711POPC   D2A38056  22.614  15.344   6.590
 2711POPC   C3A38057  22.923  15.256   6.939
 2711POPC   C4A38058  22.853  15.265   7.365
 2711POPC   C1B38059  23.131  15.125   6.131
 2711POPC   C2B38060  23.257  15.144   6.545
 2711POPC   C3B38061  23.443  15.343   6.873
 2711POPC   C4B38062  23.351  15.340   7.291
 2712POPC   NC338063  42.074  41.400   5.680
 2712POPC   PO438064  42.530  41.533   5.195
 2712POPC   GL138065  42.554  41.654   5.688
 2712POPC   GL238066  42.296  41.843   5.845
 2712POPC   C1A38067  42.582  41.587   6.160
 2712POPC   D2A38068  42.383  41.323   6.489
 2712POPC   C3A38069  42.458  41.536   6.871
 2712POPC   C4A38070  42.506  41.602   7.289
 2712POPC   C1B38071  42.097  41.701   6.255
 2712POPC   C2B38072  41.996  41.692   6.695
 2712POPC   C3B38073  41.977  41.511   7.090
 2712POPC   C4B38074  42.081  41.877   7.327
 2713POPC   NC338075  11.327  13.476   5.346
 2713POPC   PO438076  11.279  14.048   5.513
 2713POPC   GL138077  11.417  13.718   5.792
 2713POPC   GL238078  11.151  13.458   5.833
 2713POPC   C1A38079  11.545  13.751   6.209
 2713POPC   D2A38080  11.408  13.738   6.614
 2713POPC   C3A38081  11.563  13.655   7.005
 2713POPC   C4A38082  11.353  13.737   7.407
 2713POPC   C1B38083  11.416  13.269   6.166
 2713POPC   C2B38084  11.254  13.239   6.584
 2713POPC   C3B38085  11.103  13.448   6.946
 2713POPC   C4B38086  11.053  13.324   7.363
 2714POPC   NC338087  24.251  24.931   5.348
 2714POPC   PO438088  24.709  25.341   5.085
 2714POPC   GL138089  24.651  25.417   5.570
 2714POPC   GL238090  24.468  25.123   5.767
 2714POPC   C1A38091  24.638  25.514   6.048
 2714POPC   D2A38092  24.391  25.448   6.452
 2714POPC   C3A38093  24.484  25.290   6.881
 2714POPC   C4A38094  24.507  25.439   7.295
 2714POPC   C1B38095  24.283  24.879   6.141
 2714POPC   C2B38096  24.312  24.921   6.568
 2714POPC   C3B38097  24.241  24.783   6.985
 2714POPC   C4B38098  24.446  24.789   7.396
 2715POPC   NC338099  11.705   3.633   5.199
 2715POPC   PO438100  12.310   3.328   5.383
 2715POPC   GL138101  12.097   3.450   5.740
 2715POPC   GL238102  11.837   3.274   5.628
 2715POPC   C1A38103  12.048   3.643   6.147
 2715POPC   D2A38104  12.172   3.817   6.525
 2715POPC   C3A38105  12.125   3.646   6.917
 2715POPC   C4A38106  12.115   3.721   7.340
 2715POPC   C1B38107  11.794   3.211   6.105
 2715POPC   C2B38108  11.876   3.340   6.560
 2715POPC   C3B38109  11.722   3.296   6.995
 2715POPC   C4B38110  11.724   3.394   7.433
 2716POPC   NC338111   3.177  29.997   5.463
 2716POPC   PO438112   2.551  29.643   5.290
 2716POPC   GL138113   2.675  29.899   5.685
 2716POPC   GL238114   2.770  29.693   6.004
 2716POPC   C1A38115   2.734  30.196   6.058
 2716POPC   D2A38116   2.864  30.052   6.488
 2716POPC   C3A38117   2.675  30.225   6.874
 2716POPC   C4A38118   2.674  30.020   7.269
 2716POPC   C1B38119   3.143  29.616   6.302
 2716POPC   C2B38120   3.356  29.813   6.656
 2716POPC   C3B38121   3.233  29.656   7.080
 2716POPC   C4B38122   3.125  29.658   7.514
 2717POPC   NC338123  30.324  38.090   5.526
 2717POPC   PO438124  30.354  37.394   5.443
 2717POPC   GL138125  30.481  37.649   5.753
 2717POPC   GL238126  30.784  37.803   5.631
 2717POPC   C1A38127  30.438  37.808   6.170
 2717POPC   D2A38128  30.480  37.607   6.565
 2717POPC   C3A38129  30.336  37.755   6.965
 2717POPC   C4A38130  30.511  37.557   7.309
 2717POPC   C1B38131  30.933  37.649   6.054
 2717POPC   C2B38132  30.954  37.832   6.481
 2717POPC   C3B38133  30.895  37.729   6.909
 2717POPC   C4B38134  30.883  37.898   7.323
 2718POPC   NC338135  13.664   3.035   5.455
 2718POPC   PO438136  13.471   2.483   5.125
 2718POPC   GL138137  13.591   2.558   5.621
 2718POPC   GL238138  13.323   2.739   5.833
 2718POPC   C1A38139  13.741   2.563   6.076
 2718POPC   D2A38140  13.844   2.669   6.523
 2718POPC   C3A38141  13.838   2.869   6.909
 2718POPC   C4A38142  13.728   2.724   7.284
 2718POPC   C1B38143  13.178   2.777   6.270
 2718POPC   C2B38144  13.350   2.804   6.702
 2718POPC   C3B38145  13.338   3.064   7.093
 2718POPC   C4B38146  13.462   3.066   7.554
 2719POPC   NC338147   3.602  10.895   5.642
 2719POPC   PO438148   3.456  10.351   5.224
 2719POPC   GL138149   3.229  10.391   5.712
 2719POPC   GL238150   3.377  10.602   5.971
 2719POPC   C1A38151   3.063  10.287   6.179
 2719POPC   D2A38152   3.129  10.397   6.664
 2719POPC   C3A38153   3.510  10.473   6.948
 2719POPC   C4A38154   3.580  10.560   7.391
 2719POPC   C1B38155   3.637  10.759   6.320
 2719POPC   C2B38156   3.847  10.894   6.721
 2719POPC   C3B38157   3.793  10.986   7.173
 2719POPC   C4B38158   3.526  11.061   7.547
 2720POPC   NC338159  31.269  38.078   5.577
 2720POPC   PO438160  31.563  37.568   5.338
 2720POPC   GL138161  31.734  37.870   5.654
 2720POPC   GL238162  31.514  37.706   5.867
 2720POPC   C1A38163  31.894  37.938   6.115
 2720POPC   D2A38164  31.936  37.761   6.555
 2720POPC   C3A38165  31.797  38.026   6.951
 2720POPC   C4A38166  31.731  37.945   7.453
 2720POPC   C1B38167  31.432  37.713   6.305
 2720POPC   C2B38168  31.451  37.691   6.768
 2720POPC   C3B38169  31.324  37.566   7.180
 2720POPC   C4B38170  30.929  37.300   7.188
 2721POPC   NC338171   5.073  26.535   5.399
 2721POPC   PO438172   5.159  25.840   5.371
 2721POPC   GL138173   5.146  26.120   5.715
 2721POPC   GL238174   5.442  26.340   5.687
 2721POPC   C1A38175   5.009  25.994   6.118
 2721POPC   D2A38176   5.099  25.824   6.518
 2721POPC   C3A38177   4.841  25.883   6.874
 2721POPC   C4A38178   5.001  25.949   7.282
 2721POPC   C1B38179   5.442  26.280   6.161
 2721POPC   C2B38180   5.174  26.355   6.558
 2721POPC   C3B38181   5.151  26.369   7.017
 2721POPC   C4B38182   5.450  26.424   7.364
 2722POPC   NC338183  21.794  34.036   5.288
 2722POPC   PO438184  21.107  33.751   5.421
 2722POPC   GL138185  21.360  33.822   5.769
 2722POPC   GL238186  21.171  34.104   5.951
 2722POPC   C1A38187  21.597  33.911   6.146
 2722POPC   D2A38188  21.388  34.108   6.488
 2722POPC   C3A38189  21.482  33.940   6.882
 2722POPC   C4A38190  21.482  33.946   7.304
 2722POPC   C1B38191  21.120  33.760   6.221
 2722POPC   C2B38192  20.958  33.811   6.624
 2722POPC   C3B38193  21.031  34.209   6.845
 2722POPC   C4B38194  21.045  34.279   7.250
 2723POPC   NC338195  13.609  42.001   5.443
 2723POPC   PO438196  13.893  41.374   5.385
 2723POPC   GL138197  13.597  41.521   5.688
 2723POPC   GL238198  13.216  41.585   5.625
 2723POPC   C1A38199  13.714  41.492   6.115
 2723POPC   D2A38200  13.662  41.346   6.521
 2723POPC   C3A38201  13.698  41.607   6.871
 2723POPC   C4A38202  13.664  41.691   7.294
 2723POPC   C1B38203  13.209  41.517   6.093
 2723POPC   C2B38204  13.298  41.696   6.528
 2723POPC   C3B38205  13.204  41.600   7.001
 2723POPC   C4B38206  13.176  41.748   7.465
 2724POPC   NC338207  29.343  19.735   5.489
 2724POPC   PO438208  29.136  20.356   5.341
 2724POPC   GL138209  29.013  20.103   5.708
 2724POPC   GL238210  29.339  20.071   5.860
 2724POPC   C1A38211  28.868  20.046   6.145
 2724POPC   D2A38212  29.060  19.984   6.577
 2724POPC   C3A38213  28.827  19.949   6.966
 2724POPC   C4A38214  28.901  19.914   7.426
 2724POPC   C1B38215  29.328  19.756   6.189
 2724POPC   C2B38216  29.337  19.525   6.593
 2724POPC   C3B38217  29.191  19.620   7.008
 2724POPC   C4B38218  29.405  19.851   7.311
 2725POPC   NC338219  13.090  29.448   5.447
 2725POPC   PO438220  12.608  29.882   5.404
 2725POPC   GL138221  12.776  29.874   5.799
 2725POPC   GL238222  12.745  30.183   5.926
 2725POPC   C1A38223  12.634  29.804   6.238
 2725POPC   D2A38224  12.574  30.013   6.625
 2725POPC   C3A38225  12.643  29.821   7.016
 2725POPC   C4A38226  12.786  29.654   7.410
 2725POPC   C1B38227  12.956  30.213   6.284
 2725POPC   C2B38228  12.995  30.292   6.671
 2725POPC   C3B38229  12.966  30.208   7.065
 2725POPC   C4B38230  13.098  30.057   7.442
 2726POPC   NC338231  11.124  41.766   5.493
 2726POPC   PO438232  11.457  41.235   5.446
 2726POPC   GL138233  11.449  41.545   5.827
 2726POPC   GL238234  11.749  41.786   5.881
 2726POPC   C1A38235  11.299  41.510   6.271
 2726POPC   D2A38236  11.400  41.301   6.682
 2726POPC   C3A38237  11.245  41.407   7.063
 2726POPC   C4A38238  11.413  41.628   7.422
 2726POPC   C1B38239  11.624  41.899   6.253
 2726POPC   C2B38240  11.628  41.768   6.635
 2726POPC   C3B38241  11.405  41.892   6.985
 2726POPC   C4B38242  11.492  42.142   7.356
 2727POPC   NC338243   1.148  33.575   5.449
 2727POPC   PO438244   1.417  34.260   5.488
 2727POPC   GL138245   1.274  33.978   5.786
 2727POPC   GL238246   0.913  33.980   5.745
 2727POPC   C1A38247   1.206  33.728   6.159
 2727POPC   D2A38248   1.073  33.527   6.539
 2727POPC   C3A38249   1.158  33.704   6.957
 2727POPC   C4A38250   0.870  33.525   7.258
 2727POPC   C1B38251   0.956  34.173   6.161
 2727POPC   C2B38252   1.023  34.043   6.583
 2727POPC   C3B38253   1.062  34.202   7.020
 2727POPC   C4B38254   0.889  34.050   7.415
 2728POPC   NC338255  15.435  23.443   5.486
 2728POPC   PO438256  15.130  22.790   5.369
 2728POPC   GL138257  15.095  22.848   5.813
 2728POPC   GL238258  14.829  22.620   5.863
 2728POPC   C1A38259  15.238  22.939   6.253
 2728POPC   D2A38260  15.572  22.929   6.614
 2728POPC   C3A38261  15.511  22.859   7.078
 2728POPC   C4A38262  15.370  23.002   7.516
 2728POPC   C1B38263  14.735  22.768   6.264
 2728POPC   C2B38264  15.002  22.785   6.673
 2728POPC   C3B38265  15.014  22.922   7.110
 2728POPC   C4B38266  14.937  22.715   7.515
 2729POPC   NC338267  35.500   5.674   5.464
 2729POPC   PO438268  35.038   5.308   5.514
 2729POPC   GL138269  35.229   5.525   5.892
 2729POPC   GL238270  35.194   5.899   5.896
 2729POPC   C1A38271  35.339   5.646   6.336
 2729POPC   D2A38272  35.253   6.031   6.617
 2729POPC   C3A38273  35.379   6.014   7.064
 2729POPC   C4A38274  35.690   6.155   7.390
 2729POPC   C1B38275  34.929   6.146   6.223
 2729POPC   C2B38276  34.755   6.227   6.658
 2729POPC   C3B38277  34.885   6.225   7.102
 2729POPC   C4B38278  35.191   6.335   7.424
 2730POPC   NC338279  13.325  40.432   5.465
 2730POPC   PO438280  13.581  39.935   5.610
 2730POPC   GL138281  13.558  40.077   5.937
 2730POPC   GL238282  13.592  40.414   5.915
 2730POPC   C1A38283  13.681  39.852   6.281
 2730POPC   D2A38284  13.492  39.911   6.656
 2730POPC   C3A38285  13.799  39.907   6.916
 2730POPC   C4A38286  13.680  39.748   7.270
 2730POPC   C1B38287  13.617  40.362   6.350
 2730POPC   C2B38288  13.682  40.394   6.742
 2730POPC   C3B38289  13.494  40.296   7.067
 2730POPC   C4B38290  13.556  40.472   7.408
 2731POPC   NC338291  16.626  35.694   5.352
 2731POPC   PO438292  16.755  35.035   5.508
 2731POPC   GL138293  16.702  35.335   5.821
 2731POPC   GL238294  16.955  35.603   5.755
 2731POPC   C1A38295  16.723  35.209   6.261
 2731POPC   D2A38296  16.492  35.235   6.635
 2731POPC   C3A38297  16.715  35.131   7.000
 2731POPC   C4A38298  16.450  35.295   7.282
 2731POPC   C1B38299  16.849  35.720   6.173
 2731POPC   C2B38300  16.927  35.601   6.604
 2731POPC   C3B38301  16.741  35.653   7.014
 2731POPC   C4B38302  16.927  35.636   7.413
 2732POPC   NC338303  21.769  27.173   5.482
 2732POPC   PO438304  22.261  27.738   5.510
 2732POPC   GL138305  22.203  27.630   5.898
 2732POPC   GL238306  22.160  27.293   5.789
 2732POPC   C1A38307  22.154  27.662   6.324
 2732POPC   D2A38308  22.032  27.388   6.652
 2732POPC   C3A38309  22.279  27.594   6.923
 2732POPC   C4A38310  21.973  27.728   7.179
 2732POPC   C1B38311  22.160  27.172   6.189
 2732POPC   C2B38312  22.499  27.291   6.473
 2732POPC   C3B38313  22.561  27.153   6.887
 2732POPC   C4B38314  22.333  27.155   7.222
 2733POPC   NC338315  26.821  39.822   5.607
 2733POPC   PO438316  26.755  39.266   5.255
 2733POPC   GL138317  26.861  39.106   5.663
 2733POPC   GL238318  26.989  39.406   5.821
 2733POPC   C1A38319  26.757  39.065   6.120
 2733POPC   D2A38320  26.886  39.000   6.539
 2733POPC   C3A38321  26.706  39.189   6.905
 2733POPC   C4A38322  26.733  39.304   7.286
 2733POPC   C1B38323  27.146  39.452   6.248
 2733POPC   C2B38324  27.253  39.324   6.688
 2733POPC   C3B38325  27.191  39.516   7.105
 2733POPC   C4B38326  27.275  39.629   7.539
 2734POPC   NC338327  28.698  43.428   5.432
 2734POPC   PO438328  28.015  43.459   5.531
 2734POPC   GL138329  28.148  43.743   5.825
 2734POPC   GL238330  28.519  43.793   5.804
 2734POPC   C1A38331  28.236  43.688   6.228
 2734POPC   D2A38332  28.495  43.668   6.560
 2734POPC   C3A38333  28.327  43.847   6.902
 2734POPC   C4A38334  28.494  43.717   7.238
 2734POPC   C1B38335  28.607  44.027   6.209
 2734POPC   C2B38336  28.665  44.150   6.658
 2734POPC   C3B38337  28.664  44.190   7.135
 2734POPC   C4B38338  28.560  44.444   7.518
 2735POPC   NC338339  32.616  16.565   5.374
 2735POPC   PO438340  32.992  17.105   5.389
 2735POPC   GL138341  32.895  16.844   5.731
 2735POPC   GL238342  33.096  16.529   5.747
 2735POPC   C1A38343  32.938  16.884   6.169
 2735POPC   D2A38344  33.252  16.988   6.500
 2735POPC   C3A38345  33.172  16.777   6.874
 2735POPC   C4A38346  32.951  16.947   7.205
 2735POPC   C1B38347  32.995  16.340   6.142
 2735POPC   C2B38348  32.878  16.523   6.514
 2735POPC   C3B38349  32.770  16.462   6.928
 2735POPC   C4B38350  33.080  16.255   7.109
 2736POPC   NC338351  28.604   5.392   5.449
 2736POPC   PO438352  28.082   5.772   5.517
 2736POPC   GL138353  28.330   5.667   5.862
 2736POPC   GL238354  28.490   5.954   5.917
 2736POPC   C1A38355  28.278   5.668   6.335
 2736POPC   D2A38356  28.458   5.923   6.681
 2736POPC   C3A38357  28.426   5.829   7.151
 2736POPC   C4A38358  28.088   5.909   7.477
 2736POPC   C1B38359  28.318   6.190   6.248
 2736POPC   C2B38360  28.172   6.396   6.598
 2736POPC   C3B38361  28.130   6.199   6.977
 2736POPC   C4B38362  28.322   6.338   7.317
 2737POPC   NC338363   2.010  26.157   5.256
 2737POPC   PO438364   2.690  26.332   5.337
 2737POPC   GL138365   2.858  26.171   5.725
 2737POPC   GL238366   2.626  25.903   5.785
 2737POPC   C1A38367   2.755  26.270   6.200
 2737POPC   D2A38368   2.750  26.094   6.670
 2737POPC   C3A38369   2.965  26.277   7.094
 2737POPC   C4A38370   2.928  26.406   7.607
 2737POPC   C1B38371   2.809  25.773   6.206
 2737POPC   C2B38372   2.906  25.594   6.617
 2737POPC   C3B38373   2.836  25.726   7.063
 2737POPC   C4B38374   2.724  25.983   7.425
 2738POPC   NC338375  28.493  36.300   5.409
 2738POPC   PO438376  27.854  36.043   5.548
 2738POPC   GL138377  28.243  36.052   5.813
 2738POPC   GL238378  28.512  35.815   5.830
 2738POPC   C1A38379  28.098  35.968   6.226
 2738POPC   D2A38380  28.085  36.154   6.618
 2738POPC   C3A38381  27.926  35.967   6.944
 2738POPC   C4A38382  28.045  35.997   7.323
 2738POPC   C1B38383  28.597  36.036   6.229
 2738POPC   C2B38384  28.786  36.009   6.613
 2738POPC   C3B38385  28.487  36.030   6.947
 2738POPC   C4B38386  28.501  36.210   7.346
 2739POPC   NC338387  17.870  32.742   5.435
 2739POPC   PO438388  18.515  32.982   5.435
 2739POPC   GL138389  18.260  32.890   5.782
 2739POPC   GL238390  18.091  33.211   5.829
 2739POPC   C1A38391  18.300  32.906   6.227
 2739POPC   D2A38392  18.139  32.757   6.593
 2739POPC   C3A38393  18.356  32.835   6.930
 2739POPC   C4A38394  18.213  32.912   7.326
 2739POPC   C1B38395  17.823  32.976   6.106
 2739POPC   C2B38396  17.719  33.019   6.540
 2739POPC   C3B38397  17.829  32.998   6.987
 2739POPC   C4B38398  17.764  33.116   7.447
 2740POPC   NC338399   3.739   9.984   5.386
 2740POPC   PO438400   4.389   9.786   5.379
 2740POPC   GL138401   4.214   9.759   5.786
 2740POPC   GL238402   4.036   9.475   5.910
 2740POPC   C1A38403   4.396   9.864   6.174
 2740POPC   D2A38404   4.652   9.744   6.530
 2740POPC   C3A38405   4.488   9.829   6.900
 2740POPC   C4A38406   4.540   9.677   7.312
 2740POPC   C1B38407   4.005   9.492   6.338
 2740POPC   C2B38408   4.245   9.456   6.671
 2740POPC   C3B38409   4.176   9.393   7.111
 2740POPC   C4B38410   4.253   9.299   7.511
 2741POPC   NC338411  25.147   9.564   5.641
 2741POPC   PO438412  25.377  10.208   5.475
 2741POPC   GL138413  25.218  10.038   5.826
 2741POPC   GL238414  25.522   9.835   5.904
 2741POPC   C1A38415  25.146   9.873   6.256
 2741POPC   D2A38416  25.158  10.083   6.652
 2741POPC   C3A38417  25.273   9.885   7.040
 2741POPC   C4A38418  25.194   9.931   7.481
 2741POPC   C1B38419  25.612   9.540   6.257
 2741POPC   C2B38420  25.437   9.455   6.626
 2741POPC   C3B38421  25.649   9.529   6.973
 2741POPC   C4B38422  25.516   9.548   7.371
 2742POPC   NC338423  27.320  21.288   5.201
 2742POPC   PO438424  27.853  21.210   5.599
 2742POPC   GL138425  27.595  21.496   5.866
 2742POPC   GL238426  27.228  21.606   5.860
 2742POPC   C1A38427  27.657  21.694   6.245
 2742POPC   D2A38428  27.556  21.543   6.639
 2742POPC   C3A38429  27.749  21.539   7.036
 2742POPC   C4A38430  27.712  21.143   7.264
 2742POPC   C1B38431  27.121  21.590   6.316
 2742POPC   C2B38432  27.119  21.274   6.648
 2742POPC   C3B38433  27.247  21.352   7.067
 2742POPC   C4B38434  27.214  21.665   7.360
 2743POPC   NC338435  27.217  39.317   5.301
 2743POPC   PO438436  27.775  39.028   5.415
 2743POPC   GL138437  27.825  39.248   5.822
 2743POPC   GL238438  27.477  39.292   5.886
 2743POPC   C1A38439  27.778  39.370   6.283
 2743POPC   D2A38440  27.739  39.121   6.668
 2743POPC   C3A38441  27.875  39.246   7.088
 2743POPC   C4A38442  27.620  39.272   7.476
 2743POPC   C1B38443  27.354  38.984   6.260
 2743POPC   C2B38444  27.331  38.785   6.701
 2743POPC   C3B38445  27.247  38.996   7.116
 2743POPC   C4B38446  27.123  39.136   7.562
 2744POPC   NC338447  36.266  21.419   5.289
 2744POPC   PO438448  35.793  21.043   5.544
 2744POPC   GL138449  36.104  21.288   5.764
 2744POPC   GL238450  36.492  21.205   5.688
 2744POPC   C1A38451  36.064  21.578   6.108
 2744POPC   D2A38452  36.286  21.625   6.511
 2744POPC   C3A38453  36.025  21.653   6.867
 2744POPC   C4A38454  36.109  21.584   7.284
 2744POPC   C1B38455  36.502  21.288   6.128
 2744POPC   C2B38456  36.397  21.113   6.531
 2744POPC   C3B38457  36.209  21.162   6.904
 2744POPC   C4B38458  36.406  21.198   7.324
 2745POPC   NC338459   9.542  19.234   5.216
 2745POPC   PO438460   9.869  18.683   5.304
 2745POPC   GL138461   9.730  18.882   5.706
 2745POPC   GL238462   9.969  19.090   5.884
 2745POPC   C1A38463   9.548  18.996   6.147
 2745POPC   D2A38464   9.313  18.904   6.537
 2745POPC   C3A38465   9.529  18.908   6.942
 2745POPC   C4A38466   9.471  19.209   7.255
 2745POPC   C1B38467  10.087  19.043   6.317
 2745POPC   C2B38468   9.924  19.148   6.718
 2745POPC   C3B38469   9.973  19.192   7.150
 2745POPC   C4B38470   9.897  19.250   7.578
 2746POPC   NC338471  38.914  40.027   5.374
 2746POPC   PO438472  39.540  40.167   5.352
 2746POPC   GL138473  39.250  40.175   5.751
 2746POPC   GL238474  39.066  39.835   5.879
 2746POPC   C1A38475  39.312  40.154   6.202
 2746POPC   D2A38476  39.470  40.056   6.606
 2746POPC   C3A38477  39.274  40.171   6.990
 2746POPC   C4A38478  38.988  40.046   7.333
 2746POPC   C1B38479  39.089  39.736   6.356
 2746POPC   C2B38480  39.095  39.722   6.820
 2746POPC   C3B38481  39.137  39.571   7.242
 2746POPC   C4B38482  39.189  39.604   7.680
 2747POPC   NC338483  19.369  26.280   5.107
 2747POPC   PO438484  19.146  25.674   5.310
 2747POPC   GL138485  19.266  25.946   5.686
 2747POPC   GL238486  19.315  25.632   5.827
 2747POPC   C1A38487  19.245  26.132   6.134
 2747POPC   D2A38488  19.119  26.029   6.586
 2747POPC   C3A38489  19.151  26.225   7.038
 2747POPC   C4A38490  19.181  26.192   7.510
 2747POPC   C1B38491  19.563  25.742   6.142
 2747POPC   C2B38492  19.458  25.615   6.540
 2747POPC   C3B38493  19.414  25.800   6.925
 2747POPC   C4B38494  19.175  25.707   7.292
 2748POPC   NC338495   1.845  27.296   4.719
 2748POPC   PO438496   2.205  27.361   5.282
 2748POPC   GL138497   2.098  27.641   5.648
 2748POPC   GL238498   1.890  27.453   5.833
 2748POPC   C1A38499   2.211  27.757   6.122
 2748POPC   D2A38500   2.114  27.672   6.582
 2748POPC   C3A38501   2.044  27.967   6.950
 2748POPC   C4A38502   2.057  28.062   7.408
 2748POPC   C1B38503   1.725  27.581   6.233
 2748POPC   C2B38504   1.614  27.605   6.692
 2748POPC   C3B38505   1.759  27.567   7.094
 2748POPC   C4B38506   2.116  27.333   7.220
 2749POPC   NC338507  12.011  30.856   4.886
 2749POPC   PO438508  12.191  30.407   5.330
 2749POPC   GL138509  12.126  30.530   5.761
 2749POPC   GL238510  11.760  30.386   5.773
 2749POPC   C1A38511  12.191  30.779   6.145
 2749POPC   D2A38512  11.931  30.850   6.499
 2749POPC   C3A38513  12.109  30.789   6.889
 2749POPC   C4A38514  12.134  30.655   7.276
 2749POPC   C1B38515  11.859  30.389   6.195
 2749POPC   C2B38516  11.668  30.401   6.554
 2749POPC   C3B38517  11.804  30.400   6.936
 2749POPC   C4B38518  11.818  30.250   7.314
 2750POPC   NC338519  29.312  42.221   5.450
 2750POPC   PO438520  28.648  42.036   5.393
 2750POPC   GL138521  28.887  42.220   5.792
 2750POPC   GL238522  29.255  42.112   5.926
 2750POPC   C1A38523  28.989  42.435   6.204
 2750POPC   D2A38524  29.295  42.263   6.530
 2750POPC   C3A38525  29.149  42.288   6.960
 2750POPC   C4A38526  28.921  42.354   7.338
 2750POPC   C1B38527  29.476  42.483   6.069
 2750POPC   C2B38528  29.360  42.758   6.366
 2750POPC   C3B38529  29.273  42.760   6.809
 2750POPC   C4B38530  29.402  42.606   7.247
 2751POPC   NC338531  36.255  33.430   5.453
 2751POPC   PO438532  35.930  32.867   5.439
 2751POPC   GL138533  35.945  33.109   5.777
 2751POPC   GL238534  36.061  32.765   5.939
 2751POPC   C1A38535  36.092  33.197   6.158
 2751POPC   D2A38536  36.129  32.918   6.467
 2751POPC   C3A38537  36.124  33.155   6.828
 2751POPC   C4A38538  36.122  33.316   7.246
 2751POPC   C1B38539  36.343  32.513   6.210
 2751POPC   C2B38540  36.424  32.515   6.648
 2751POPC   C3B38541  36.164  32.672   6.978
 2751POPC   C4B38542  36.196  32.812   7.416
 2752POPC   NC338543  28.647  17.567   5.487
 2752POPC   PO438544  28.037  17.277   5.372
 2752POPC   GL138545  28.250  17.396   5.779
 2752POPC   GL238546  28.161  17.193   6.013
 2752POPC   C1A38547  28.572  17.418   6.170
 2752POPC   D2A38548  28.549  17.595   6.609
 2752POPC   C3A38549  28.608  17.376   7.027
 2752POPC   C4A38550  28.336  17.373   7.404
 2752POPC   C1B38551  28.114  17.604   6.239
 2752POPC   C2B38552  27.996  17.708   6.651
 2752POPC   C3B38553  28.165  17.744   7.056
 2752POPC   C4B38554  27.978  17.741   7.441
 2753POPC   NC338555   1.549  15.108   5.394
 2753POPC   PO438556   0.843  15.034   5.358
 2753POPC   GL138557   1.000  14.866   5.765
 2753POPC   GL238558   1.271  15.110   5.837
 2753POPC   C1A38559   1.222  14.781   6.216
 2753POPC   D2A38560   1.268  15.046   6.579
 2753POPC   C3A38561   1.108  14.959   6.993
 2753POPC   C4A38562   1.379  15.116   7.333
 2753POPC   C1B38563   1.496  15.316   6.198
 2753POPC   C2B38564   1.653  15.400   6.648
 2753POPC   C3B38565   1.592  15.530   7.098
 2753POPC   C4B38566   1.648  15.487   7.564
 2754POPC   NC338567  19.446  32.230   5.075
 2754POPC   PO438568  19.080  32.404   5.546
 2754POPC   GL138569  19.038  32.463   5.928
 2754POPC   GL238570  19.176  32.145   5.964
 2754POPC   C1A38571  19.083  32.431   6.351
 2754POPC   D2A38572  18.963  32.130   6.630
 2754POPC   C3A38573  19.164  32.132   6.994
 2754POPC   C4A38574  19.249  32.515   7.126
 2754POPC   C1B38575  19.187  31.881   6.256
 2754POPC   C2B38576  19.353  31.796   6.617
 2754POPC   C3B38577  19.606  31.669   6.883
 2754POPC   C4B38578  19.509  31.782   7.236
 2755POPC   NC338579  17.173  22.227   5.496
 2755POPC   PO438580  16.503  22.102   5.492
 2755POPC   GL138581  16.495  22.143   5.895
 2755POPC   GL238582  16.770  21.926   5.912
 2755POPC   C1A38583  16.583  22.212   6.329
 2755POPC   D2A38584  16.730  22.079   6.726
 2755POPC   C3A38585  16.581  22.273   7.084
 2755POPC   C4A38586  16.643  22.408   7.525
 2755POPC   C1B38587  16.879  21.786   6.299
 2755POPC   C2B38588  16.977  21.599   6.700
 2755POPC   C3B38589  17.008  21.830   7.084
 2755POPC   C4B38590  16.691  21.891   7.391
 2756POPC   NC338591  18.820  14.130   5.370
 2756POPC   PO438592  19.481  14.059   5.532
 2756POPC   GL138593  19.329  14.276   5.873
 2756POPC   GL238594  18.992  14.261   5.848
 2756POPC   C1A38595  19.217  14.346   6.318
 2756POPC   D2A38596  19.228  14.601   6.683
 2756POPC   C3A38597  18.944  14.631   7.003
 2756POPC   C4A38598  18.822  14.682   7.461
 2756POPC   C1B38599  18.718  14.335   6.192
 2756POPC   C2B38600  18.595  14.227   6.618
 2756POPC   C3B38601  18.618  14.263   7.071
 2756POPC   C4B38602  19.019  14.220   7.317
 2757POPC   NC338603   3.672  31.051   5.377
 2757POPC   PO438604   3.423  30.450   5.496
 2757POPC   GL138605   3.521  30.692   5.802
 2757POPC   GL238606   3.267  30.947   5.696
 2757POPC   C1A38607   3.585  30.563   6.224
 2757POPC   D2A38608   3.644  30.701   6.650
 2757POPC   C3A38609   3.801  30.434   6.973
 2757POPC   C4A38610   3.818  30.498   7.405
 2757POPC   C1B38611   3.309  31.066   6.112
 2757POPC   C2B38612   3.196  30.939   6.513
 2757POPC   C3B38613   3.318  31.023   6.908
 2757POPC   C4B38614   3.406  30.685   7.185
 2758POPC   NC338615  31.352  35.634   5.580
 2758POPC   PO438616  31.205  35.070   5.261
 2758POPC   GL138617  31.470  35.153   5.696
 2758POPC   GL238618  31.768  35.406   5.790
 2758POPC   C1A38619  31.523  35.176   6.170
 2758POPC   D2A38620  31.603  35.355   6.574
 2758POPC   C3A38621  31.287  35.541   6.811
 2758POPC   C4A38622  31.386  35.340   7.161
 2758POPC   C1B38623  31.627  35.703   6.168
 2758POPC   C2B38624  31.685  35.877   6.605
 2758POPC   C3B38625  31.736  35.704   7.054
 2758POPC   C4B38626  31.725  35.593   7.517
 2759POPC   NC338627  33.639  37.901   5.464
 2759POPC   PO438628  33.911  37.296   5.714
 2759POPC   GL138629  33.579  37.608   5.892
 2759POPC   GL238630  33.735  37.957   5.969
 2759POPC   C1A38631  33.444  37.737   6.323
 2759POPC   D2A38632  33.789  37.685   6.613
 2759POPC   C3A38633  33.761  37.466   7.014
 2759POPC   C4A38634  33.766  37.460   7.451
 2759POPC   C1B38635  34.018  38.175   6.256
 2759POPC   C2B38636  34.131  38.064   6.687
 2759POPC   C3B38637  33.848  37.975   7.029
 2759POPC   C4B38638  33.890  37.932   7.447
 2760POPC   NC338639  12.655  39.502   5.187
 2760POPC   PO438640  13.034  39.127   5.593
 2760POPC   GL138641  12.781  39.148   5.909
 2760POPC   GL238642  12.670  39.512   5.881
 2760POPC   C1A38643  12.979  39.143   6.299
 2760POPC   D2A38644  13.193  39.470   6.532
 2760POPC   C3A38645  12.985  39.465   6.916
 2760POPC   C4A38646  13.077  39.311   7.304
 2760POPC   C1B38647  12.510  39.366   6.297
 2760POPC   C2B38648  12.602  39.144   6.684
 2760POPC   C3B38649  12.558  39.168   7.141
 2760POPC   C4B38650  12.398  39.375   7.520
 2761POPC   NC338651  17.645  39.208   5.229
 2761POPC   PO438652  17.054  39.469   5.456
 2761POPC   GL138653  17.333  39.274   5.802
 2761POPC   GL238654  17.523  39.583   5.849
 2761POPC   C1A38655  17.513  39.057   6.215
 2761POPC   D2A38656  17.605  38.863   6.665
 2761POPC   C3A38657  17.676  39.108   7.077
 2761POPC   C4A38658  17.449  39.150   7.492
 2761POPC   C1B38659  17.316  39.539   6.269
 2761POPC   C2B38660  17.382  39.386   6.700
 2761POPC   C3B38661  17.335  39.493   7.141
 2761POPC   C4B38662  17.771  39.551   7.377
 2762POPC   NC338663  40.694  11.360   5.203
 2762POPC   PO438664  40.512  10.891   5.566
 2762POPC   GL138665  40.574  11.334   5.730
 2762POPC   GL238666  40.944  11.388   5.815
 2762POPC   C1A38667  40.581  11.431   6.177
 2762POPC   D2A38668  40.537  11.159   6.532
 2762POPC   C3A38669  40.680  11.360   6.917
 2762POPC   C4A38670  40.877  11.656   7.182
 2762POPC   C1B38671  40.955  11.084   6.207
 2762POPC   C2B38672  41.027  11.041   6.684
 2762POPC   C3B38673  41.156  11.241   7.104
 2762POPC   C4B38674  41.112  11.178   7.579
 2763POPC   NC338675  35.012  36.501   5.294
 2763POPC   PO438676  35.467  35.971   5.316
 2763POPC   GL138677  35.456  35.967   5.749
 2763POPC   GL238678  35.251  36.256   5.747
 2763POPC   C1A38679  35.522  36.112   6.190
 2763POPC   D2A38680  35.327  35.985   6.590
 2763POPC   C3A38681  35.605  35.960   6.950
 2763POPC   C4A38682  35.730  36.031   7.368
 2763POPC   C1B38683  35.109  36.438   6.149
 2763POPC   C2B38684  34.997  36.416   6.578
 2763POPC   C3B38685  35.190  36.339   6.964
 2763POPC   C4B38686  35.033  36.039   7.227
 2764POPC   NC338687  32.812  20.813   5.525
 2764POPC   PO438688  32.962  20.132   5.606
 2764POPC   GL138689  32.887  20.472   5.908
 2764POPC   GL238690  33.203  20.686   5.840
 2764POPC   C1A38691  32.869  20.515   6.363
 2764POPC   D2A38692  33.203  20.384   6.673
 2764POPC   C3A38693  33.263  20.384   7.129
 2764POPC   C4A38694  33.595  20.162   7.321
 2764POPC   C1B38695  33.233  20.871   6.233
 2764POPC   C2B38696  33.054  20.910   6.630
 2764POPC   C3B38697  33.252  20.863   6.998
 2764POPC   C4B38698  33.170  20.921   7.410
 2765POPC   NC338699  13.166   6.353   5.566
 2765POPC   PO438700  12.583   6.426   5.167
 2765POPC   GL138701  12.595   6.626   5.689
 2765POPC   GL238702  12.450   6.946   5.775
 2765POPC   C1A38703  12.761   6.586   6.171
 2765POPC   D2A38704  12.681   6.339   6.584
 2765POPC   C3A38705  12.807   6.563   6.959
 2765POPC   C4A38706  12.999   6.603   7.365
 2765POPC   C1B38707  12.391   6.992   6.216
 2765POPC   C2B38708  12.557   6.847   6.609
 2765POPC   C3B38709  12.616   7.026   7.045
 2765POPC   C4B38710  12.543   6.867   7.459
 2766POPC   NC338711  43.556   5.698   5.552
 2766POPC   PO438712  44.208   5.921   5.669
 2766POPC   GL138713  43.897   5.840   5.931
 2766POPC   GL238714  43.668   6.109   5.860
 2766POPC   C1A38715  43.882   5.887   6.369
 2766POPC   D2A38716  44.102   5.944   6.743
 2766POPC   C3A38717  44.022   5.667   7.079
 2766POPC   C4A38718  44.209   5.351   7.371
 2766POPC   C1B38719  43.531   6.258   6.257
 2766POPC   C2B38720  43.401   6.342   6.666
 2766POPC   C3B38721  43.619   6.073   6.955
 2766POPC   C4B38722  43.549   5.813   7.295
 2767POPC   NC338723  10.870  17.848   5.342
 2767POPC   PO438724  10.352  17.488   5.611
 2767POPC   GL138725  10.742  17.476   5.794
 2767POPC   GL238726  10.777  17.139   5.720
 2767POPC   C1A38727  10.861  17.573   6.234
 2767POPC   D2A38728  10.816  17.873   6.570
 2767POPC   C3A38729  10.778  17.722   6.975
 2767POPC   C4A38730  10.400  17.764   7.174
 2767POPC   C1B38731  10.585  17.145   6.178
 2767POPC   C2B38732  10.578  17.331   6.642
 2767POPC   C3B38733  10.521  17.248   7.108
 2767POPC   C4B38734  10.566  17.081   7.570
 2768POPC   NC338735  33.839   0.518   5.531
 2768POPC   PO438736  33.216   0.394   5.283
 2768POPC   GL138737  33.315   0.708   5.761
 2768POPC   GL238738  33.662   0.800   5.898
 2768POPC   C1A38739  33.377   0.643   6.264
 2768POPC   D2A38740  33.414   0.600   6.710
 2768POPC   C3A38741  33.752   0.509   6.960
 2768POPC   C4A38742  33.688   0.662   7.371
 2768POPC   C1B38743  33.866   0.503   6.213
 2768POPC   C2B38744  34.113   0.400   6.565
 2768POPC   C3B38745  34.083   0.091   6.878
 2768POPC   C4B38746  33.978   0.158   7.283
 2769POPC   NC338747  39.976  43.793   5.406
 2769POPC   PO438748  39.940  44.445   5.411
 2769POPC   GL138749  40.091  44.202   5.779
 2769POPC   GL238750  40.176  43.851   5.849
 2769POPC   C1A38751  39.988  44.236   6.244
 2769POPC   D2A38752  39.704  44.335   6.637
 2769POPC   C3A38753  39.835  44.193   7.065
 2769POPC   C4A38754  40.264  44.141   7.258
 2769POPC   C1B38755  40.199  43.764   6.251
 2769POPC   C2B38756  40.055  43.902   6.640
 2769POPC   C3B38757  40.075  43.730   7.019
 2769POPC   C4B38758  39.707  43.724   7.265
 2770POPC   NC338759  29.971  24.186   5.446
 2770POPC   PO438760  29.777  24.859   5.465
 2770POPC   GL138761  29.753  24.625   5.844
 2770POPC   GL238762  29.610  24.312   5.815
 2770POPC   C1A38763  29.975  24.532   6.250
 2770POPC   D2A38764  29.936  24.245   6.609
 2770POPC   C3A38765  30.043  24.461   7.019
 2770POPC   C4A38766  30.289  24.848   7.079
 2770POPC   C1B38767  29.489  24.381   6.270
 2770POPC   C2B38768  29.539  24.575   6.701
 2770POPC   C3B38769  29.567  24.519   7.169
 2770POPC   C4B38770  29.725  24.319   7.589
 2771POPC   NC338771   7.044  43.095   5.565
 2771POPC   PO438772   7.714  43.265   5.329
 2771POPC   GL138773   7.627  43.174   5.751
 2771POPC   GL238774   7.523  42.884   5.658
 2771POPC   C1A38775   7.579  43.362   6.190
 2771POPC   D2A38776   7.539  43.630   6.577
 2771POPC   C3A38777   7.402  43.349   6.854
 2771POPC   C4A38778   7.473  43.229   7.245
 2771POPC   C1B38779   7.489  42.816   6.117
 2771POPC   C2B38780   7.464  42.935   6.565
 2771POPC   C3B38781   7.281  42.816   6.998
 2771POPC   C4B38782   7.428  42.776   7.442
 2772POPC   NC338783  34.980  30.893   5.606
 2772POPC   PO438784  34.452  30.509   5.472
 2772POPC   GL138785  34.633  30.529   5.873
 2772POPC   GL238786  34.926  30.319   5.855
 2772POPC   C1A38787  34.517  30.726   6.296
 2772POPC   D2A38788  34.733  30.949   6.650
 2772POPC   C3A38789  34.684  30.715   7.034
 2772POPC   C4A38790  34.395  30.798   7.366
 2772POPC   C1B38791  34.898  30.369   6.317
 2772POPC   C2B38792  35.039  30.507   6.729
 2772POPC   C3B38793  34.996  30.331   7.169
 2772POPC   C4B38794  34.810  30.567   7.548
 2773POPC   NC338795   4.106   9.392   5.409
 2773POPC   PO438796   4.347   8.790   5.455
 2773POPC   GL138797   4.254   9.031   5.797
 2773POPC   GL238798   4.486   9.298   5.730
 2773POPC   C1A38799   4.091   8.998   6.209
 2773POPC   D2A38800   3.983   8.833   6.606
 2773POPC   C3A38801   4.303   8.971   6.825
 2773POPC   C4A38802   4.366   8.931   7.200
 2773POPC   C1B38803   4.485   9.359   6.171
 2773POPC   C2B38804   4.687   9.225   6.538
 2773POPC   C3B38805   4.677   9.333   6.961
 2773POPC   C4B38806   4.736   9.198   7.387
 2774POPC   NC338807   3.885  13.972   5.408
 2774POPC   PO438808   4.357  13.541   5.187
 2774POPC   GL138809   4.257  13.518   5.688
 2774POPC   GL238810   4.068  13.767   5.897
 2774POPC   C1A38811   4.161  13.274   6.112
 2774POPC   D2A38812   4.140  13.060   6.547
 2774POPC   C3A38813   4.236  13.326   6.918
 2774POPC   C4A38814   4.583  13.478   7.177
 2774POPC   C1B38815   4.241  14.045   6.227
 2774POPC   C2B38816   4.277  13.983   6.671
 2774POPC   C3B38817   4.288  13.921   7.115
 2774POPC   C4B38818   4.047  14.016   7.505
 2775POPC   NC338819  36.804   1.216   5.329
 2775POPC   PO438820  37.396   0.989   5.414
 2775POPC   GL138821  37.094   1.109   5.759
 2775POPC   GL238822  36.694   1.127   5.820
 2775POPC   C1A38823  36.995   1.484   6.029
 2775POPC   D2A38824  36.812   1.504   6.459
 2775POPC   C3A38825  36.949   1.149   6.746
 2775POPC   C4A38826  37.120   1.156   7.168
 2775POPC   C1B38827  36.889   1.010   6.221
 2775POPC   C2B38828  36.777   0.702   6.501
 2775POPC   C3B38829  36.684   0.645   6.894
 2775POPC   C4B38830  36.772   0.814   7.280
 2776POPC   NC338831   6.760  21.298   5.555
 2776POPC   PO438832   6.422  21.857   5.490
 2776POPC   GL138833   6.510  21.606   5.887
 2776POPC   GL238834   6.356  21.242   5.856
 2776POPC   C1A38835   6.909  21.613   6.174
 2776POPC   D2A38836   7.170  21.641   6.575
 2776POPC   C3A38837   6.932  21.556   6.958
 2776POPC   C4A38838   6.506  21.524   7.173
 2776POPC   C1B38839   6.557  21.238   6.263
 2776POPC   C2B38840   6.545  21.314   6.699
 2776POPC   C3B38841   6.693  21.075   7.062
 2776POPC   C4B38842   6.600  21.152   7.496
 2777POPC   NC338843  39.869  30.254   5.594
 2777POPC   PO438844  39.497  29.638   5.532
 2777POPC   GL138845  39.791  29.800   5.858
 2777POPC   GL238846  40.175  29.912   5.823
 2777POPC   C1A38847  39.915  29.954   6.253
 2777POPC   D2A38848  40.090  30.071   6.619
 2777POPC   C3A38849  39.996  29.944   6.998
 2777POPC   C4A38850  39.611  30.083   7.127
 2777POPC   C1B38851  40.390  30.120   6.198
 2777POPC   C2B38852  40.563  29.920   6.606
 2777POPC   C3B38853  40.577  29.874   7.062
 2777POPC   C4B38854  40.443  29.625   7.448
 2778POPC   NC338855  13.127  33.016   5.432
 2778POPC   PO438856  12.498  32.733   5.195
 2778POPC   GL138857  12.596  32.835   5.636
 2778POPC   GL238858  12.593  33.202   5.632
 2778POPC   C1A38859  12.800  32.820   6.069
 2778POPC   D2A38860  13.022  33.036   6.412
 2778POPC   C3A38861  12.873  32.933   6.827
 2778POPC   C4A38862  13.015  32.894   7.208
 2778POPC   C1B38863  12.497  33.245   6.102
 2778POPC   C2B38864  12.488  33.068   6.541
 2778POPC   C3B38865  12.506  33.253   6.998
 2778POPC   C4B38866  12.247  33.155   7.403
 2779POPC   NC338867   6.494  42.468   5.401
 2779POPC   PO438868   7.026  41.986   5.331
 2779POPC   GL138869   6.801  42.215   5.738
 2779POPC   GL238870   6.454  42.219   5.853
 2779POPC   C1A38871   6.789  42.203   6.226
 2779POPC   D2A38872   6.547  42.143   6.613
 2779POPC   C3A38873   6.779  42.223   6.983
 2779POPC   C4A38874   6.746  42.090   7.413
 2779POPC   C1B38875   6.419  42.574   6.184
 2779POPC   C2B38876   6.254  42.689   6.559
 2779POPC   C3B38877   6.325  42.493   6.936
 2779POPC   C4B38878   6.304  42.143   7.161
 2780POPC   NC338879  29.279  34.749   5.294
 2780POPC   PO438880  28.644  34.955   5.351
 2780POPC   GL138881  29.001  34.866   5.689
 2780POPC   GL238882  29.077  34.497   5.744
 2780POPC   C1A38883  29.362  34.830   6.006
 2780POPC   D2A38884  29.224  34.779   6.448
 2780POPC   C3A38885  29.408  34.792   6.857
 2780POPC   C4A38886  29.244  34.776   7.223
 2780POPC   C1B38887  29.284  34.340   6.155
 2780POPC   C2B38888  29.534  34.362   6.570
 2780POPC   C3B38889  29.411  34.297   7.003
 2780POPC   C4B38890  29.018  34.274   7.211
 2781POPC   NC338891   6.869   0.615   5.163
 2781POPC   PO438892   6.500   0.090   5.007
 2781POPC   GL138893   6.600   0.307   5.527
 2781POPC   GL238894   6.923   0.522   5.676
 2781POPC   C1A38895   6.578   0.430   6.042
 2781POPC   D2A38896   6.500   0.408   6.532
 2781POPC   C3A38897   6.748   0.634   6.874
 2781POPC   C4A38898   6.765   0.603   7.329
 2781POPC   C1B38899   7.016   0.187   6.005
 2781POPC   C2B38900   6.833   0.050   6.413
 2781POPC   C3B38901   6.896   0.138   6.857
 2781POPC   C4B38902   6.865   0.092   7.297
 2782POPC   NC338903  11.229   2.989   5.589
 2782POPC   PO438904  11.494   2.449   5.231
 2782POPC   GL138905  11.507   2.557   5.735
 2782POPC   GL238906  11.706   2.811   5.756
 2782POPC   C1A38907  11.269   2.607   6.172
 2782POPC   D2A38908  11.084   2.855   6.490
 2782POPC   C3A38909  11.056   2.734   6.886
 2782POPC   C4A38910  11.169   2.826   7.261
 2782POPC   C1B38911  11.753   2.714   6.174
 2782POPC   C2B38912  11.591   2.891   6.495
 2782POPC   C3B38913  11.557   2.811   6.895
 2782POPC   C4B38914  11.661   2.645   7.251
 2783POPC   NC338915  21.625  37.510   5.355
 2783POPC   PO438916  21.231  38.079   5.434
 2783POPC   GL138917  21.411  37.801   5.732
 2783POPC   GL238918  21.780  37.871   5.796
 2783POPC   C1A38919  21.288  37.634   6.133
 2783POPC   D2A38920  21.442  37.813   6.498
 2783POPC   C3A38921  21.153  37.912   6.803
 2783POPC   C4A38922  21.335  37.732   7.126
 2783POPC   C1B38923  21.767  37.486   6.043
 2783POPC   C2B38924  21.755  37.362   6.469
 2783POPC   C3B38925  21.497  37.384   6.808
 2783POPC   C4B38926  21.438  37.211   7.195
 2784POPC   NC338927  28.647  42.540   5.458
 2784POPC   PO438928  28.056  42.207   5.317
 2784POPC   GL138929  28.285  42.243   5.740
 2784POPC   GL238930  28.399  41.903   5.836
 2784POPC   C1A38931  28.125  42.377   6.190
 2784POPC   D2A38932  27.904  42.318   6.629
 2784POPC   C3A38933  28.176  42.370   6.997
 2784POPC   C4A38934  28.518  42.603   7.169
 2784POPC   C1B38935  28.572  42.141   6.198
 2784POPC   C2B38936  28.734  42.283   6.622
 2784POPC   C3B38937  28.631  42.104   7.017
 2784POPC   C4B38938  28.257  41.872   7.086
 2785POPC   NC338939  12.840  26.545   5.237
 2785POPC   PO438940  12.741  27.110   5.575
 2785POPC   GL138941  12.797  26.762   5.896
 2785POPC   GL238942  12.842  26.432   5.773
 2785POPC   C1A38943  12.782  26.633   6.350
 2785POPC   D2A38944  12.545  26.605   6.756
 2785POPC   C3A38945  12.645  26.933   7.105
 2785POPC   C4A38946  12.731  27.082   7.559
 2785POPC   C1B38947  13.064  26.231   6.124
 2785POPC   C2B38948  13.006  26.233   6.587
 2785POPC   C3B38949  12.987  26.474   6.978
 2785POPC   C4B38950  13.069  26.747   7.330
 2786POPC   NC338951  28.891  22.841   5.354
 2786POPC   PO438952  28.303  23.075   5.360
 2786POPC   GL138953  28.216  22.925   5.783
 2786POPC   GL238954  28.105  22.572   5.799
 2786POPC   C1A38955  28.549  22.805   6.115
 2786POPC   D2A38956  28.518  22.626   6.530
 2786POPC   C3A38957  28.647  22.837   6.889
 2786POPC   C4A38958  28.565  22.954   7.253
 2786POPC   C1B38959  28.060  22.748   6.253
 2786POPC   C2B38960  28.083  22.831   6.716
 2786POPC   C3B38961  28.076  22.855   7.160
 2786POPC   C4B38962  27.809  22.866   7.511
 2787POPC   NC338963   4.170  37.873   5.402
 2787POPC   PO438964   4.317  37.156   5.222
 2787POPC   GL138965   4.328  37.349   5.707
 2787POPC   GL238966   4.212  37.668   5.848
 2787POPC   C1A38967   4.208  37.343   6.210
 2787POPC   D2A38968   4.428  37.490   6.598
 2787POPC   C3A38969   4.331  37.574   7.055
 2787POPC   C4A38970   4.304  37.264   7.389
 2787POPC   C1B38971   4.421  37.825   6.221
 2787POPC   C2B38972   4.375  38.001   6.658
 2787POPC   C3B38973   4.122  38.070   7.016
 2787POPC   C4B38974   4.279  38.041   7.415
 2788POPC   NC338975   1.576   7.907   5.373
 2788POPC   PO438976   1.069   8.355   5.318
 2788POPC   GL138977   1.183   8.167   5.709
 2788POPC   GL238978   1.418   8.416   5.787
 2788POPC   C1A38979   0.995   8.094   6.141
 2788POPC   D2A38980   1.097   8.315   6.546
 2788POPC   C3A38981   0.992   8.128   6.951
 2788POPC   C4A38982   1.195   7.783   7.200
 2788POPC   C1B38983   1.480   8.213   6.191
 2788POPC   C2B38984   1.609   8.271   6.639
 2788POPC   C3B38985   1.463   8.295   7.081
 2788POPC   C4B38986   1.383   8.583   7.470
 2789POPC   NC338987  11.039  14.462   5.509
 2789POPC   PO438988  10.372  14.285   5.464
 2789POPC   GL138989  10.594  14.484   5.805
 2789POPC   GL238990  10.856  14.228   5.907
 2789POPC   C1A38991  10.671  14.576   6.251
 2789POPC   D2A38992  10.913  14.448   6.614
 2789POPC   C3A38993  10.688  14.663   6.950
 2789POPC   C4A38994  10.568  14.561   7.383
 2789POPC   C1B38995  10.644  14.061   6.260
 2789POPC   C2B38996  10.501  14.184   6.624
 2789POPC   C3B38997  10.631  14.166   7.010
 2789POPC   C4B38998  10.379  14.091   7.328
 2790POPC   NC338999  41.064  37.290   5.211
 2790POPC   PO439000  40.911  37.832   5.335
 2790POPC   GL139001  40.897  37.854   5.798
 2790POPC   GL239002  40.538  37.806   5.836
 2790POPC   C1A39003  40.900  37.724   6.269
 2790POPC   D2A39004  40.730  37.529   6.665
 2790POPC   C3A39005  40.910  37.550   7.116
 2790POPC   C4A39006  40.852  37.835   7.494
 2790POPC   C1B39007  40.377  37.702   6.279
 2790POPC   C2B39008  40.270  37.763   6.750
 2790POPC   C3B39009  40.426  37.675   7.190
 2790POPC   C4B39010  40.509  37.478   7.609
 2791POPC   NC339011  34.799  20.763   5.350
 2791POPC   PO439012  34.117  20.957   5.493
 2791POPC   GL139013  34.555  20.851   5.781
 2791POPC   GL239014  34.705  20.488   5.800
 2791POPC   C1A39015  34.584  20.763   6.209
 2791POPC   D2A39016  34.833  20.649   6.539
 2791POPC   C3A39017  34.616  20.694   6.914
 2791POPC   C4A39018  34.447  20.585   7.302
 2791POPC   C1B39019  34.625  20.236   6.189
 2791POPC   C2B39020  34.513  20.224   6.616
 2791POPC   C3B39021  34.672  20.198   7.025
 2791POPC   C4B39022  34.507  20.053   7.429
 2792POPC   NC339023  38.508   6.672   5.405
 2792POPC   PO439024  37.950   7.183   5.497
 2792POPC   GL139025  38.206   6.894   5.758
 2792POPC   GL239026  38.575   6.972   5.815
 2792POPC   C1A39027  38.313   6.604   6.084
 2792POPC   D2A39028  38.247   6.548   6.522
 2792POPC   C3A39029  38.339   6.654   6.968
 2792POPC   C4A39030  38.217   6.641   7.402
 2792POPC   C1B39031  38.785   6.870   6.185
 2792POPC   C2B39032  38.701   6.803   6.619
 2792POPC   C3B39033  38.782   6.977   7.024
 2792POPC   C4B39034  38.650   6.987   7.468
 2793POPC   NC339035  14.588  12.422   5.553
 2793POPC   PO439036  14.152  11.926   5.478
 2793POPC   GL139037  14.286  12.088   5.834
 2793POPC   GL239038  14.651  11.952   5.795
 2793POPC   C1A39039  14.125  12.032   6.276
 2793POPC   D2A39040  14.067  12.191   6.704
 2793POPC   C3A39041  14.128  11.935   7.063
 2793POPC   C4A39042  14.255  12.204   7.434
 2793POPC   C1B39043  14.610  12.137   6.214
 2793POPC   C2B39044  14.520  11.975   6.623
 2793POPC   C3B39045  14.552  12.184   7.010
 2793POPC   C4B39046  14.690  11.923   7.359
 2794POPC   NC339047  20.320   7.980   5.467
 2794POPC   PO439048  19.670   8.076   5.509
 2794POPC   GL139049  19.924   7.964   5.854
 2794POPC   GL239050  20.132   8.234   5.873
 2794POPC   C1A39051  19.886   8.101   6.313
 2794POPC   D2A39052  19.751   8.231   6.756
 2794POPC   C3A39053  19.821   8.037   7.174
 2794POPC   C4A39054  19.592   8.093   7.570
 2794POPC   C1B39055  20.392   8.151   6.243
 2794POPC   C2B39056  20.265   8.140   6.688
 2794POPC   C3B39057  20.202   8.368   7.072
 2794POPC   C4B39058  19.960   8.460   7.472
 2795POPC   NC339059  31.273  44.400   5.430
 2795POPC   PO439060  31.788  44.838   5.423
 2795POPC   GL139061  31.539  44.708   5.764
 2795POPC   GL239062  31.242  44.947   5.779
 2795POPC   C1A39063  31.442  44.387   6.107
 2795POPC   D2A39064  31.564  44.166   6.479
 2795POPC   C3A39065  31.495  44.271   6.910
 2795POPC   C4A39066  31.643  44.424   7.308
 2795POPC   C1B39067  31.419  44.894   6.217
 2795POPC   C2B39068  31.368  44.666   6.582
 2795POPC   C3B39069  31.435  44.790   7.011
 2795POPC   C4B39070  31.155  44.997   7.270
 2796POPC   NC339071  28.722  15.346   5.551
 2796POPC   PO439072  28.178  15.117   5.210
 2796POPC   GL139073  28.434  14.957   5.677
 2796POPC   GL239074  28.758  14.886   5.812
 2796POPC   C1A39075  28.429  15.068   6.154
 2796POPC   D2A39076  28.052  15.170   6.390
 2796POPC   C3A39077  28.061  15.333   6.803
 2796POPC   C4A39078  28.220  15.307   7.218
 2796POPC   C1B39079  28.975  15.043   6.198
 2796POPC   C2B39080  28.777  15.180   6.588
 2796POPC   C3B39081  28.684  15.152   7.022
 2796POPC   C4B39082  28.840  14.882   7.338
 2797POPC   NC339083  42.488  12.198   5.017
 2797POPC   PO439084  42.425  12.816   5.390
 2797POPC   GL139085  42.230  12.860   5.800
 2797POPC   GL239086  42.284  12.554   5.816
 2797POPC   C1A39087  42.268  12.757   6.280
 2797POPC   D2A39088  42.514  12.822   6.661
 2797POPC   C3A39089  42.235  13.009   7.001
 2797POPC   C4A39090  42.327  13.282   7.371
 2797POPC   C1B39091  41.863  12.560   6.035
 2797POPC   C2B39092  41.795  12.453   6.473
 2797POPC   C3B39093  42.117  12.525   6.760
 2797POPC   C4B39094  42.362  12.533   7.152
 2798POPC   NC339095   1.509   9.622   5.167
 2798POPC   PO439096   2.083   9.859   5.364
 2798POPC   GL139097   1.932   9.707   5.745
 2798POPC   GL239098   2.035  10.006   5.944
 2798POPC   C1A39099   2.028   9.507   6.143
 2798POPC   D2A39100   1.986   9.773   6.489
 2798POPC   C3A39101   2.025   9.618   6.872
 2798POPC   C4A39102   1.909   9.424   7.245
 2798POPC   C1B39103   2.306  10.129   6.309
 2798POPC   C2B39104   2.308  10.066   6.800
 2798POPC   C3B39105   2.223   9.903   7.240
 2798POPC   C4B39106   2.274  10.082   7.681
 2799POPC   NC339107  35.198  14.025   5.417
 2799POPC   PO439108  35.168  14.651   5.463
 2799POPC   GL139109  35.248  14.383   5.816
 2799POPC   GL239110  34.997  14.120   5.865
 2799POPC   C1A39111  35.484  14.453   6.184
 2799POPC   D2A39112  35.626  14.347   6.583
 2799POPC   C3A39113  35.491  14.647   6.859
 2799POPC   C4A39114  35.324  14.611   7.250
 2799POPC   C1B39115  34.897  14.331   6.231
 2799POPC   C2B39116  35.112  14.464   6.563
 2799POPC   C3B39117  35.209  14.230   6.914
 2799POPC   C4B39118  34.925  14.251   7.237
 2800POPC   NC339119  16.035  22.028   5.490
 2800POPC   PO439120  16.118  22.637   5.380
 2800POPC   GL139121  16.054  22.412   5.815
 2800POPC   GL239122  15.745  22.435   5.997
 2800POPC   C1A39123  16.081  22.124   6.233
 2800POPC   D2A39124  16.186  22.205   6.697
 2800POPC   C3A39125  16.165  21.961   7.077
 2800POPC   C4A39126  16.234  22.072   7.518
 2800POPC   C1B39127  15.544  22.101   6.230
 2800POPC   C2B39128  15.632  22.163   6.640
 2800POPC   C3B39129  15.707  22.329   7.026
 2800POPC   C4B39130  15.755  22.067   7.355
 2801POPC   NC339131  15.433   8.601   5.350
 2801POPC   PO439132  15.349   9.224   5.272
 2801POPC   GL139133  15.288   9.004   5.696
 2801POPC   GL239134  15.330   8.664   5.854
 2801POPC   C1A39135  15.135   9.101   6.129
 2801POPC   D2A39136  15.203   9.302   6.554
 2801POPC   C3A39137  15.356   9.148   6.984
 2801POPC   C4A39138  15.211   9.244   7.412
 2801POPC   C1B39139  15.131   8.604   6.266
 2801POPC   C2B39140  15.197   8.775   6.660
 2801POPC   C3B39141  15.208   8.604   7.056
 2801POPC   C4B39142  15.305   8.734   7.458
 2802POPC   NC339143   2.628  16.599   5.311
 2802POPC   PO439144   3.317  16.678   5.214
 2802POPC   GL139145   3.000  16.716   5.664
 2802POPC   GL239146   2.598  16.648   5.798
 2802POPC   C1A39147   2.885  16.876   6.124
 2802POPC   D2A39148   2.955  16.940   6.565
 2802POPC   C3A39149   2.876  16.665   6.907
 2802POPC   C4A39150   2.708  16.736   7.341
 2802POPC   C1B39151   2.406  16.671   6.197
 2802POPC   C2B39152   2.476  16.548   6.616
 2802POPC   C3B39153   2.404  16.470   7.047
 2802POPC   C4B39154   2.207  16.657   7.438
 2803POPC   NC339155   3.840  21.647   5.545
 2803POPC   PO439156   3.325  21.243   5.598
 2803POPC   GL139157   3.677  21.296   5.877
 2803POPC   GL239158   3.746  21.607   6.037
 2803POPC   C1A39159   3.883  21.133   6.233
 2803POPC   D2A39160   3.784  21.352   6.627
 2803POPC   C3A39161   3.762  21.143   7.019
 2803POPC   C4A39162   3.954  21.204   7.442
 2803POPC   C1B39163   3.387  21.452   6.278
 2803POPC   C2B39164   3.304  21.528   6.713
 2803POPC   C3B39165   3.452  21.562   7.143
 2803POPC   C4B39166   3.314  21.863   7.445
 2804POPC   NC339167  32.329  14.088   5.229
 2804POPC   PO439168  32.413  14.763   5.368
 2804POPC   GL139169  32.295  14.509   5.745
 2804POPC   GL239170  32.318  14.119   5.756
 2804POPC   C1A39171  32.264  14.429   6.191
 2804POPC   D2A39172  32.524  14.443   6.559
 2804POPC   C3A39173  32.426  14.541   6.984
 2804POPC   C4A39174  32.083  14.620   7.195
 2804POPC   C1B39175  32.026  13.961   6.110
 2804POPC   C2B39176  32.130  14.070   6.557
 2804POPC   C3B39177  32.126  14.119   7.002
 2804POPC   C4B39178  32.264  14.184   7.425
 2805POPC   NC339179  17.505  35.961   5.424
 2805POPC   PO439180  17.453  36.634   5.666
 2805POPC   GL139181  17.555  36.260   5.847
 2805POPC   GL239182  17.285  36.009   5.871
 2805POPC   C1A39183  17.615  36.217   6.258
 2805POPC   D2A39184  17.494  36.463   6.611
 2805POPC   C3A39185  17.502  36.280   7.018
 2805POPC   C4A39186  17.336  36.542   7.310
 2805POPC   C1B39187  17.341  35.795   6.244
 2805POPC   C2B39188  17.274  35.993   6.633
 2805POPC   C3B39189  17.258  35.755   6.997
 2805POPC   C4B39190  17.383  35.826   7.442
 2806POPC   NC339191  18.124  13.264   5.269
 2806POPC   PO439192  18.521  13.750   5.453
 2806POPC   GL139193  18.357  13.621   5.838
 2806POPC   GL239194  18.100  13.529   5.726
 2806POPC   C1A39195  18.375  13.474   6.290
 2806POPC   D2A39196  18.064  13.397   6.656
 2806POPC   C3A39197  18.300  13.447   7.056
 2806POPC   C4A39198  18.757  13.335   7.068
 2806POPC   C1B39199  17.904  13.623   6.157
 2806POPC   C2B39200  17.683  13.705   6.593
 2806POPC   C3B39201  17.816  13.697   7.044
 2806POPC   C4B39202  17.900  13.367   7.359
 2807POPC   NC339203  43.709   2.164   5.289
 2807POPC   PO439204  44.227   1.744   5.377
 2807POPC   GL139205  44.067   2.041   5.717
 2807POPC   GL239206  43.700   1.997   5.800
 2807POPC   C1A39207  44.168   2.181   6.168
 2807POPC   D2A39208  44.393   2.053   6.566
 2807POPC   C3A39209  44.139   2.062   6.912
 2807POPC   C4A39210  44.122   2.159   7.329
 2807POPC   C1B39211  43.651   2.315   6.162
 2807POPC   C2B39212  43.765   2.427   6.624
 2807POPC   C3B39213  43.609   2.441   7.077
 2807POPC   C4B39214  43.638   2.222   7.494
 2808POPC   NC339215  18.635  43.217   5.539
 2808POPC   PO439216  18.102  42.984   5.238
 2808POPC   GL139217  18.052  43.042   5.658
 2808POPC   GL239218  17.918  42.745   5.792
 2808POPC   C1A39219  18.137  43.277   6.031
 2808POPC   D2A39220  18.069  43.254   6.493
 2808POPC   C3A39221  18.457  43.337   6.759
 2808POPC   C4A39222  18.473  43.294   7.223
 2808POPC   C1B39223  18.178  42.788   6.169
 2808POPC   C2B39224  18.415  42.840   6.559
 2808POPC   C3B39225  18.193  42.921   6.928
 2808POPC   C4B39226  18.000  43.073   7.276
 2809POPC   NC339227  29.588  40.459   5.486
 2809POPC   PO439228  30.248  40.816   5.397
 2809POPC   GL139229  29.985  40.807   5.782
 2809POPC   GL239230  29.926  40.463   5.887
 2809POPC   C1A39231  30.041  40.790   6.255
 2809POPC   D2A39232  30.081  40.424   6.529
 2809POPC   C3A39233  30.221  40.493   6.944
 2809POPC   C4A39234  30.122  40.817   7.191
 2809POPC   C1B39235  29.562  40.663   6.145
 2809POPC   C2B39236  29.574  41.123   6.287
 2809POPC   C3B39237  29.631  41.249   6.740
 2809POPC   C4B39238  29.621  41.047   7.181
 2810POPC   NC339239  38.562  41.090   5.645
 2810POPC   PO439240  38.606  40.450   5.368
 2810POPC   GL139241  38.399  40.597   5.731
 2810POPC   GL239242  38.729  40.669   5.841
 2810POPC   C1A39243  38.386  40.594   6.190
 2810POPC   D2A39244  38.710  40.592   6.527
 2810POPC   C3A39245  38.489  40.641   6.871
 2810POPC   C4A39246  38.155  40.507   7.136
 2810POPC   C1B39247  38.738  40.983   6.228
 2810POPC   C2B39248  38.394  41.061   6.485
 2810POPC   C3B39249  38.243  41.088   6.877
 2810POPC   C4B39250  38.386  40.974   7.249
 2811POPC   NC339251  23.867  39.355   5.378
 2811POPC   PO439252  23.320  38.920   5.425
 2811POPC   GL139253  23.495  39.102   5.833
 2811POPC   GL239254  23.782  39.347   5.875
 2811POPC   C1A39255  23.554  39.042   6.290
 2811POPC   D2A39256  23.348  39.213   6.669
 2811POPC   C3A39257  23.534  39.514   6.955
 2811POPC   C4A39258  23.567  39.241   7.261
 2811POPC   C1B39259  24.034  39.269   6.223
 2811POPC   C2B39260  23.865  39.435   6.569
 2811POPC   C3B39261  24.030  39.611   6.914
 2811POPC   C4B39262  24.026  39.401   7.267
 2812POPC   NC339263  44.323  13.663   5.121
 2812POPC   PO439264  43.773  13.558   5.563
 2812POPC   GL139265  44.059  13.553   5.860
 2812POPC   GL239266  44.215  13.233   5.809
 2812POPC   C1A39267  43.989  13.736   6.257
 2812POPC   D2A39268  43.900  13.549   6.658
 2812POPC   C3A39269  43.889  13.748   7.072
 2812POPC   C4A39270  43.481  13.891   7.159
 2812POPC   C1B39271  44.150  13.225   6.261
 2812POPC   C2B39272  44.096  13.081   6.684
 2812POPC   C3B39273  44.197  13.338   7.016
 2812POPC   C4B39274  44.085  13.373   7.451
 2813POPC   NC339275  31.980  43.631   5.513
 2813POPC   PO439276  32.381  44.106   5.561
 2813POPC   GL139277  32.211  43.884   5.896
 2813POPC   GL239278  31.895  44.058   5.942
 2813POPC   C1A39279  32.282  43.509   6.181
 2813POPC   D2A39280  32.150  43.451   6.607
 2813POPC   C3A39281  32.414  43.461   6.973
 2813POPC   C4A39282  32.464  43.846   7.194
 2813POPC   C1B39283  32.032  43.974   6.360
 2813POPC   C2B39284  32.003  44.178   6.748
 2813POPC   C3B39285  32.099  44.212   7.168
 2813POPC   C4B39286  32.175  44.024   7.583
 2814POPC   NC339287   1.500  37.233   5.379
 2814POPC   PO439288   1.306  37.851   5.395
 2814POPC   GL139289   1.433  37.643   5.765
 2814POPC   GL239290   1.582  37.948   5.832
 2814POPC   C1A39291   1.321  37.536   6.236
 2814POPC   D2A39292   1.103  37.691   6.622
 2814POPC   C3A39293   1.275  37.671   7.038
 2814POPC   C4A39294   1.084  37.501   7.389
 2814POPC   C1B39295   1.208  38.011   6.112
 2814POPC   C2B39296   0.986  38.173   6.504
 2814POPC   C3B39297   0.983  38.089   6.965
 2814POPC   C4B39298   1.221  38.123   7.383
 2815POPC   NC339299  37.275   3.800   5.655
 2815POPC   PO439300  37.557   3.223   5.489
 2815POPC   GL139301  37.651   3.207   5.903
 2815POPC   GL239302  37.664   3.578   5.901
 2815POPC   C1A39303  37.505   3.280   6.317
 2815POPC   D2A39304  37.547   3.573   6.643
 2815POPC   C3A39305  37.795   3.453   6.973
 2815POPC   C4A39306  37.937   3.374   7.390
 2815POPC   C1B39307  37.541   3.876   6.232
 2815POPC   C2B39308  37.299   4.026   6.564
 2815POPC   C3B39309  37.358   3.924   6.996
 2815POPC   C4B39310  37.710   3.927   7.289
 2816POPC   NC339311   8.681  18.986   5.160
 2816POPC   PO439312   8.074  19.091   5.479
 2816POPC   GL139313   8.301  19.231   5.809
 2816POPC   GL239314   8.045  19.415   5.913
 2816POPC   C1A39315   8.554  19.246   6.159
 2816POPC   D2A39316   8.355  19.302   6.541
 2816POPC   C3A39317   8.348  18.945   6.779
 2816POPC   C4A39318   8.282  19.063   7.145
 2816POPC   C1B39319   7.821  19.549   6.239
 2816POPC   C2B39320   7.642  19.406   6.638
 2816POPC   C3B39321   7.914  19.421   6.991
 2816POPC   C4B39322   7.929  19.318   7.411
 2817POPC   NC339323  23.634  44.641   5.533
 2817POPC   PO439324  24.303  44.508   5.605
 2817POPC   GL139325  23.928  44.427   5.907
 2817POPC   GL239326  23.537  44.379   5.949
 2817POPC   C1A39327  23.735  44.727   6.228
 2817POPC   D2A39328  23.609  44.652   6.646
 2817POPC   C3A39329  23.982  44.699   6.896
 2817POPC   C4A39330  24.005  44.677   7.348
 2817POPC   C1B39331  23.730  44.212   6.325
 2817POPC   C2B39332  23.555  44.138   6.738
 2817POPC   C3B39333  23.675  44.356   7.088
 2817POPC   C4B39334  23.552  44.487   7.496
 2818POPC   NC339335  17.490  34.272   5.386
 2818POPC   PO439336  18.050  34.717   5.453
 2818POPC   GL139337  17.796  34.457   5.774
 2818POPC   GL239338  17.416  34.566   5.796
 2818POPC   C1A39339  17.682  34.397   6.230
 2818POPC   D2A39340  17.678  34.608   6.653
 2818POPC   C3A39341  17.784  34.368   7.070
 2818POPC   C4A39342  17.628  34.473   7.516
 2818POPC   C1B39343  17.318  34.746   6.210
 2818POPC   C2B39344  17.139  34.516   6.568
 2818POPC   C3B39345  17.285  34.408   6.968
 2818POPC   C4B39346  17.513  34.792   7.117
 2819POPC   NC339347  11.652  40.857   5.637
 2819POPC   PO439348  11.003  40.789   5.543
 2819POPC   GL139349  11.200  40.789   5.894
 2819POPC   GL239350  11.165  41.126   5.966
 2819POPC   C1A39351  11.227  40.556   6.286
 2819POPC   D2A39352  10.999  40.524   6.694
 2819POPC   C3A39353  11.209  40.783   6.995
 2819POPC   C4A39354  11.434  40.571   7.300
 2819POPC   C1B39355  11.487  41.006   6.266
 2819POPC   C2B39356  11.614  40.825   6.656
 2819POPC   C3B39357  11.680  41.001   7.078
 2819POPC   C4B39358  11.420  41.110   7.417
 2820POPC   NC339359  35.560  23.939   5.313
 2820POPC   PO439360  35.072  23.492   5.352
 2820POPC   GL139361  35.101  23.570   5.762
 2820POPC   GL239362  35.271  23.881   5.744
 2820POPC   C1A39363  35.062  23.608   6.202
 2820POPC   D2A39364  35.347  23.763   6.512
 2820POPC   C3A39365  35.392  23.611   6.915
 2820POPC   C4A39366  35.125  23.727   7.275
 2820POPC   C1B39367  35.592  23.851   6.066
 2820POPC   C2B39368  35.815  23.979   6.446
 2820POPC   C3B39369  35.746  24.116   6.879
 2820POPC   C4B39370  35.646  23.881   7.257
 2821POPC   NC339371  13.965  31.757   5.072
 2821POPC   PO439372  13.434  31.603   5.463
 2821POPC   GL139373  13.487  31.790   5.849
 2821POPC   GL239374  13.809  31.679   5.900
 2821POPC   C1A39375  13.321  31.847   6.256
 2821POPC   D2A39376  13.269  31.544   6.574
 2821POPC   C3A39377  13.407  31.571   6.995
 2821POPC   C4A39378  13.767  31.698   7.230
 2821POPC   C1B39379  13.758  31.573   6.337
 2821POPC   C2B39380  13.892  31.519   6.762
 2821POPC   C3B39381  13.889  31.226   7.121
 2821POPC   C4B39382  14.027  31.032   7.510
 2822POPC   NC339383   7.809  11.033   5.606
 2822POPC   PO439384   7.389  10.561   5.329
 2822POPC   GL139385   7.464  10.413   5.804
 2822POPC   GL239386   7.490  10.745   5.931
 2822POPC   C1A39387   7.350  10.416   6.289
 2822POPC   D2A39388   7.350  10.652   6.690
 2822POPC   C3A39389   7.525  10.506   7.055
 2822POPC   C4A39390   7.308  10.258   7.309
 2822POPC   C1B39391   7.507  10.967   6.332
 2822POPC   C2B39392   7.735  10.993   6.732
 2822POPC   C3B39393   7.727  10.960   7.198
 2822POPC   C4B39394   7.835  10.937   7.654
 2823POPC   NC339395   7.555  15.088   5.427
 2823POPC   PO439396   6.899  15.290   5.320
 2823POPC   GL139397   7.199  15.335   5.693
 2823POPC   GL239398   7.265  15.015   5.832
 2823POPC   C1A39399   7.337  15.448   6.130
 2823POPC   D2A39400   7.664  15.430   6.492
 2823POPC   C3A39401   7.504  15.468   6.918
 2823POPC   C4A39402   7.138  15.468   7.185
 2823POPC   C1B39403   7.073  14.907   6.179
 2823POPC   C2B39404   7.021  14.930   6.607
 2823POPC   C3B39405   7.320  15.003   6.870
 2823POPC   C4B39406   7.359  15.031   7.287
 2824POPC   NC339407   4.673  13.820   5.368
 2824POPC   PO439408   5.252  14.003   5.195
 2824POPC   GL139409   5.062  13.719   5.655
 2824POPC   GL239410   4.729  13.678   5.839
 2824POPC   C1A39411   5.164  13.618   6.124
 2824POPC   D2A39412   5.400  13.562   6.536
 2824POPC   C3A39413   5.168  13.528   6.950
 2824POPC   C4A39414   5.450  13.660   7.329
 2824POPC   C1B39415   4.588  13.645   6.269
 2824POPC   C2B39416   4.691  13.664   6.715
 2824POPC   C3B39417   4.810  14.007   6.994
 2824POPC   C4B39418   4.787  14.220   7.404
 2825POPC   NC339419  32.863  36.103   5.551
 2825POPC   PO439420  33.276  35.856   5.032
 2825POPC   GL139421  33.391  35.994   5.611
 2825POPC   GL239422  33.290  35.780   5.895
 2825POPC   C1A39423  33.290  36.257   6.044
 2825POPC   D2A39424  33.093  36.040   6.437
 2825POPC   C3A39425  33.139  36.218   6.874
 2825POPC   C4A39426  32.799  36.329   7.156
 2825POPC   C1B39427  33.304  35.569   6.288
 2825POPC   C2B39428  33.328  35.634   6.723
 2825POPC   C3B39429  33.123  35.750   7.112
 2825POPC   C4B39430  33.183  36.116   7.416
 2826POPC   NC339431   0.757  28.065   5.513
 2826POPC   PO439432   0.308  28.603   5.391
 2826POPC   GL139433   0.596  28.500   5.717
 2826POPC   GL239434   0.328  28.456   5.923
 2826POPC   C1A39435   0.826  28.459   6.119
 2826POPC   D2A39436   0.720  28.695   6.496
 2826POPC   C3A39437   0.581  28.440   6.844
 2826POPC   C4A39438   0.592  28.348   7.296
 2826POPC   C1B39439   0.385  28.348   6.344
 2826POPC   C2B39440   0.283  28.051   6.642
 2826POPC   C3B39441   0.264  27.943   7.045
 2826POPC   C4B39442   0.441  27.881   7.412
 2827POPC   NC339443  34.189  24.659   5.379
 2827POPC   PO439444  33.638  24.254   5.450
 2827POPC   GL139445  33.645  24.664   5.690
 2827POPC   GL239446  33.964  24.709   5.845
 2827POPC   C1A39447  33.573  24.799   6.148
 2827POPC   D2A39448  33.483  24.574   6.553
 2827POPC   C3A39449  33.579  24.769   6.932
 2827POPC   C4A39450  33.767  24.849   7.299
 2827POPC   C1B39451  33.806  24.349   6.098
 2827POPC   C2B39452  33.775  24.156   6.519
 2827POPC   C3B39453  33.691  24.222   6.977
 2827POPC   C4B39454  33.862  24.302   7.416
 2828POPC   NC339455  10.330  24.949   5.502
 2828POPC   PO439456  10.195  25.693   5.602
 2828POPC   GL139457  10.475  25.457   5.919
 2828POPC   GL239458  10.579  25.123   5.907
 2828POPC   C1A39459  10.562  25.536   6.325
 2828POPC   D2A39460  10.427  25.335   6.687
 2828POPC   C3A39461  10.549  25.551   7.041
 2828POPC   C4A39462  10.495  25.383   7.417
 2828POPC   C1B39463  10.428  25.016   6.277
 2828POPC   C2B39464  10.489  24.819   6.655
 2828POPC   C3B39465  10.577  24.999   7.055
 2828POPC   C4B39466  10.663  24.802   7.443
 2829POPC   NC339467  19.708  40.448   5.459
 2829POPC   PO439468  19.560  39.702   5.476
 2829POPC   GL139469  19.702  39.840   5.853
 2829POPC   GL239470  19.721  40.192   5.896
 2829POPC   C1A39471  19.915  39.912   6.260
 2829POPC   D2A39472  20.007  40.197   6.588
 2829POPC   C3A39473  19.859  39.969   6.941
 2829POPC   C4A39474  19.944  39.900   7.353
 2829POPC   C1B39475  19.610  40.390   6.310
 2829POPC   C2B39476  19.550  40.373   6.782
 2829POPC   C3B39477  19.589  40.313   7.266
 2829POPC   C4B39478  19.654  40.132   7.707
 2830POPC   NC339479  20.905  27.349   5.393
 2830POPC   PO439480  21.009  27.935   5.311
 2830POPC   GL139481  20.709  27.725   5.654
 2830POPC   GL239482  20.543  27.399   5.776
 2830POPC   C1A39483  20.799  27.714   6.105
 2830POPC   D2A39484  20.615  27.947   6.472
 2830POPC   C3A39485  20.667  27.908   6.883
 2830POPC   C4A39486  20.648  27.855   7.309
 2830POPC   C1B39487  20.610  27.242   6.205
 2830POPC   C2B39488  20.558  27.438   6.628
 2830POPC   C3B39489  20.496  27.449   7.058
 2830POPC   C4B39490  20.788  27.379   7.437
 2831POPC   NC339491  24.931  41.673   5.425
 2831POPC   PO439492  25.587  41.587   5.541
 2831POPC   GL139493  25.223  41.576   5.845
 2831POPC   GL239494  25.281  41.893   5.879
 2831POPC   C1A39495  25.100  41.682   6.300
 2831POPC   D2A39496  25.297  41.487   6.645
 2831POPC   C3A39497  25.088  41.433   7.030
 2831POPC   C4A39498  25.127  41.084   7.299
 2831POPC   C1B39499  25.604  41.689   6.207
 2831POPC   C2B39500  25.673  41.837   6.651
 2831POPC   C3B39501  25.342  41.900   6.950
 2831POPC   C4B39502  25.042  41.895   7.257
 2832POPC   NC339503  35.921  43.452   5.444
 2832POPC   PO439504  36.377  44.042   5.495
 2832POPC   GL139505  36.234  43.778   5.804
 2832POPC   GL239506  35.912  43.926   5.811
 2832POPC   C1A39507  36.211  43.906   6.237
 2832POPC   D2A39508  36.201  43.685   6.611
 2832POPC   C3A39509  36.250  43.837   7.016
 2832POPC   C4A39510  36.343  43.518   7.296
 2832POPC   C1B39511  35.790  44.194   6.164
 2832POPC   C2B39512  35.807  44.135   6.602
 2832POPC   C3B39513  35.740  43.884   6.965
 2832POPC   C4B39514  35.909  43.787   7.386
 2833POPC   NC339515   7.161  40.198   5.271
 2833POPC   PO439516   7.537  39.671   5.311
 2833POPC   GL139517   7.410  39.955   5.675
 2833POPC   GL239518   7.569  40.289   5.662
 2833POPC   C1A39519   7.407  39.902   6.153
 2833POPC   D2A39520   7.259  39.968   6.589
 2833POPC   C3A39521   7.456  39.946   7.000
 2833POPC   C4A39522   7.284  40.272   7.234
 2833POPC   C1B39523   7.681  40.343   6.118
 2833POPC   C2B39524   7.816  40.181   6.531
 2833POPC   C3B39525   7.844  40.298   6.949
 2833POPC   C4B39526   7.803  40.195   7.364
 2834POPC   NC339527  30.234  19.336   5.704
 2834POPC   PO439528  29.740  19.079   5.291
 2834POPC   GL139529  29.731  18.913   5.706
 2834POPC   GL239530  29.661  19.241   5.835
 2834POPC   C1A39531  29.597  18.788   6.127
 2834POPC   D2A39532  29.522  18.993   6.533
 2834POPC   C3A39533  29.690  18.904   6.928
 2834POPC   C4A39534  29.968  19.085   7.228
 2834POPC   C1B39535  29.867  19.227   6.235
 2834POPC   C2B39536  30.199  19.398   6.481
 2834POPC   C3B39537  30.292  19.301   6.892
 2834POPC   C4B39538  30.123  19.573   7.190
 2835POPC   NC339539  14.973  39.584   5.454
 2835POPC   PO439540  15.397  39.153   5.212
 2835POPC   GL139541  15.202  39.130   5.673
 2835POPC   GL239542  15.418  39.233   5.947
 2835POPC   C1A39543  14.968  39.156   6.130
 2835POPC   D2A39544  14.826  39.363   6.564
 2835POPC   C3A39545  15.068  39.434   6.972
 2835POPC   C4A39546  15.199  39.074   7.229
 2835POPC   C1B39547  15.297  39.541   6.208
 2835POPC   C2B39548  15.363  39.336   6.569
 2835POPC   C3B39549  15.593  39.290   6.932
 2835POPC   C4B39550  15.518  39.457   7.305
 2836POPC   NC339551  24.633  20.154   5.490
 2836POPC   PO439552  24.631  19.478   5.276
 2836POPC   GL139553  24.709  19.668   5.724
 2836POPC   GL239554  24.421  19.820   5.789
 2836POPC   C1A39555  24.737  19.850   6.225
 2836POPC   D2A39556  24.503  19.985   6.649
 2836POPC   C3A39557  24.620  20.023   7.106
 2836POPC   C4A39558  24.693  19.727   7.462
 2836POPC   C1B39559  24.210  19.898   6.187
 2836POPC   C2B39560  23.988  19.957   6.566
 2836POPC   C3B39561  23.952  19.792   6.953
 2836POPC   C4B39562  24.167  19.882   7.308
 2837POPC   NC339563  37.476  19.030   5.423
 2837POPC   PO439564  38.179  18.746   5.498
 2837POPC   GL139565  37.927  18.956   5.839
 2837POPC   GL239566  37.658  19.189   5.859
 2837POPC   C1A39567  37.892  19.137   6.288
 2837POPC   D2A39568  37.903  18.965   6.704
 2837POPC   C3A39569  37.824  19.253   7.053
 2837POPC   C4A39570  37.689  19.446   7.407
 2837POPC   C1B39571  37.487  18.865   6.125
 2837POPC   C2B39572  37.305  19.010   6.498
 2837POPC   C3B39573  37.435  19.000   6.894
 2837POPC   C4B39574  37.701  18.775   7.192
 2838POPC   NC339575   6.775  26.556   5.455
 2838POPC   PO439576   6.402  27.138   5.208
 2838POPC   GL139577   6.557  27.013   5.693
 2838POPC   GL239578   6.303  26.969   5.943
 2838POPC   C1A39579   6.780  26.818   6.097
 2838POPC   D2A39580   6.738  26.916   6.554
 2838POPC   C3A39581   6.888  26.720   6.941
 2838POPC   C4A39582   6.906  26.892   7.368
 2838POPC   C1B39583   6.304  26.688   6.324
 2838POPC   C2B39584   6.226  26.751   6.785
 2838POPC   C3B39585   6.230  26.917   7.228
 2838POPC   C4B39586   6.241  26.751   7.653
 2839POPC   NC339587  18.123  44.831   5.471
 2839POPC   PO439588  18.455  44.341   5.494
 2839POPC   GL139589  18.271  44.512   5.842
 2839POPC   GL239590  18.514  44.776   5.819
 2839POPC   C1A39591  18.276  44.510   6.282
 2839POPC   D2A39592  18.460  44.670   6.650
 2839POPC   C3A39593  18.139  44.542   6.948
 2839POPC   C4A39594  17.927  44.459   7.354
 2839POPC   C1B39595  18.428  44.993   6.195
 2839POPC   C2B39596  18.373   0.186   6.584
 2839POPC   C3B39597  18.276   0.045   6.958
 2839POPC   C4B39598  18.520  44.756   7.223
 2840POPC   NC339599  37.672  36.359   5.513
 2840POPC   PO439600  38.034  35.792   5.306
 2840POPC   GL139601  37.799  35.893   5.703
 2840POPC   GL239602  37.407  35.967   5.752
 2840POPC   C1A39603  37.780  36.080   6.139
 2840POPC   D2A39604  37.605  36.229   6.569
 2840POPC   C3A39605  37.641  35.984   6.974
 2840POPC   C4A39606  37.914  35.996   7.325
 2840POPC   C1B39607  37.254  36.233   6.137
 2840POPC   C2B39608  37.101  36.334   6.581
 2840POPC   C3B39609  37.299  36.357   7.001
 2840POPC   C4B39610  37.341  36.128   7.425
 2841POPC   NC339611  35.340   1.330   5.422
 2841POPC   PO439612  35.729   0.772   5.549
 2841POPC   GL139613  35.559   1.102   5.820
 2841POPC   GL239614  35.171   1.118   5.864
 2841POPC   C1A39615  35.528   1.310   6.210
 2841POPC   D2A39616  35.450   1.132   6.602
 2841POPC   C3A39617  35.601   1.409   6.894
 2841POPC   C4A39618  35.530   1.166   7.236
 2841POPC   C1B39619  35.030   1.455   6.156
 2841POPC   C2B39620  35.164   1.555   6.579
 2841POPC   C3B39621  35.100   1.399   7.009
 2841POPC   C4B39622  35.251   1.546   7.426
 2842POPC   NC339623   3.315   0.331   5.504
 2842POPC   PO439624   3.895   0.023   5.669
 2842POPC   GL139625   3.624   0.324   5.929
 2842POPC   GL239626   3.485   0.688   5.821
 2842POPC   C1A39627   3.263   0.339   6.249
 2842POPC   D2A39628   3.134   0.228   6.691
 2842POPC   C3A39629   3.485   0.144   7.005
 2842POPC   C4A39630   3.524   0.306   7.430
 2842POPC   C1B39631   3.614   0.713   6.260
 2842POPC   C2B39632   3.562   0.537   6.666
 2842POPC   C3B39633   3.448   0.696   7.073
 2842POPC   C4B39634   3.718   0.785   7.423
 2843POPC   NC339635  23.415  41.986   5.418
 2843POPC   PO439636  23.173  41.312   5.315
 2843POPC   GL139637  23.387  41.530   5.716
 2843POPC   GL239638  23.315  41.842   5.875
 2843POPC   C1A39639  23.741  41.359   6.025
 2843POPC   D2A39640  23.960  41.485   6.415
 2843POPC   C3A39641  23.751  41.533   6.828
 2843POPC   C4A39642  23.836  41.676   7.263
 2843POPC   C1B39643  23.479  41.727   6.249
 2843POPC   C2B39644  23.444  41.928   6.614
 2843POPC   C3B39645  23.289  41.770   6.969
 2843POPC   C4B39646  23.377  41.875   7.339
 2844POPC   NC339647  33.880  17.790   5.402
 2844POPC   PO439648  33.556  17.239   5.622
 2844POPC   GL139649  33.905  17.315   5.845
 2844POPC   GL239650  33.930  17.663   5.890
 2844POPC   C1A39651  33.925  17.314   6.274
 2844POPC   D2A39652  33.985  17.616   6.560
 2844POPC   C3A39653  34.044  17.351   6.867
 2844POPC   C4A39654  33.935  17.381   7.243
 2844POPC   C1B39655  33.569  17.701   6.155
 2844POPC   C2B39656  33.450  17.479   6.526
 2844POPC   C3B39657  33.560  17.557   6.940
 2844POPC   C4B39658  33.469  17.550   7.372
 2845POPC   NC339659   0.708  42.967   5.485
 2845POPC   PO439660   0.053  43.012   5.426
 2845POPC   GL139661   0.316  43.196   5.795
 2845POPC   GL239662   0.706  43.230   5.894
 2845POPC   C1A39663   0.327  43.079   6.236
 2845POPC   D2A39664   0.354  43.272   6.680
 2845POPC   C3A39665   0.269  43.093   7.122
 2845POPC   C4A39666   0.256  43.285   7.550
 2845POPC   C1B39667   0.817  42.881   6.133
 2845POPC   C2B39668   0.686  42.882   6.549
 2845POPC   C3B39669   0.744  43.031   6.946
 2845POPC   C4B39670   0.874  42.733   7.253
 2846POPC   NC339671   6.414  30.391   5.018
 2846POPC   PO439672   6.635  30.894   5.446
 2846POPC   GL139673   6.551  30.833   5.880
 2846POPC   GL239674   6.213  30.724   5.885
 2846POPC   C1A39675   6.763  30.999   6.263
 2846POPC   D2A39676   6.729  30.982   6.718
 2846POPC   C3A39677   6.502  30.643   6.868
 2846POPC   C4A39678   6.518  30.583   7.311
 2846POPC   C1B39679   6.225  30.659   6.357
 2846POPC   C2B39680   5.993  30.637   6.749
 2846POPC   C3B39681   6.094  30.822   7.142
 2846POPC   C4B39682   6.458  31.057   7.184
 2847POPC   NC339683  30.201  42.653   5.598
 2847POPC   PO439684  30.058  43.299   5.445
 2847POPC   GL139685  29.904  43.075   5.792
 2847POPC   GL239686  30.252  43.076   5.929
 2847POPC   C1A39687  29.848  42.925   6.238
 2847POPC   D2A39688  29.771  42.741   6.655
 2847POPC   C3A39689  29.681  42.987   7.032
 2847POPC   C4A39690  29.952  43.314   7.146
 2847POPC   C1B39691  30.341  42.741   6.241
 2847POPC   C2B39692  30.228  42.533   6.646
 2847POPC   C3B39693  30.178  42.829   7.005
 2847POPC   C4B39694  29.997  42.893   7.426
 2848POPC   NC339695  15.955  41.454   5.349
 2848POPC   PO439696  15.661  41.936   5.777
 2848POPC   GL139697  16.063  41.650   5.870
 2848POPC   GL239698  16.178  41.298   5.772
 2848POPC   C1A39699  16.278  41.572   6.285
 2848POPC   D2A39700  16.140  41.607   6.756
 2848POPC   C3A39701  15.763  41.829   6.942
 2848POPC   C4A39702  15.603  41.816   7.347
 2848POPC   C1B39703  16.034  41.126   6.127
 2848POPC   C2B39704  16.134  41.142   6.526
 2848POPC   C3B39705  16.022  41.126   6.929
 2848POPC   C4B39706  15.983  41.465   7.237
 2849POPC   NC339707  41.360  44.770   5.381
 2849POPC   PO439708  41.905  44.437   5.314
 2849POPC   GL139709  41.797  44.487   5.748
 2849POPC   GL239710  41.429  44.510   5.823
 2849POPC   C1A39711  41.773  44.641   6.194
 2849POPC   D2A39712  41.575  44.585   6.576
 2849POPC   C3A39713  41.732  44.716   6.945
 2849POPC   C4A39714  41.860  44.735   7.344
 2849POPC   C1B39715  41.224  44.633   6.214
 2849POPC   C2B39716  41.088  44.692   6.620
 2849POPC   C3B39717  41.219  44.406   6.901
 2849POPC   C4B39718  41.466  44.408   7.249
 2850POPC   NC339719  22.582  22.642   5.569
 2850POPC   PO439720  22.046  22.906   5.330
 2850POPC   GL139721  22.105  22.922   5.776
 2850POPC   GL239722  22.401  23.092   5.856
 2850POPC   C1A39723  22.204  22.753   6.205
 2850POPC   D2A39724  22.195  22.625   6.670
 2850POPC   C3A39725  22.079  22.664   7.131
 2850POPC   C4A39726  22.147  22.434   7.507
 2850POPC   C1B39727  22.147  23.266   6.187
 2850POPC   C2B39728  22.214  23.133   6.590
 2850POPC   C3B39729  22.355  23.066   6.984
 2850POPC   C4B39730  22.085  23.185   7.254
 2851POPC   NC339731  30.927   5.374   5.381
 2851POPC   PO439732  30.688   5.974   5.136
 2851POPC   GL139733  30.564   5.873   5.641
 2851POPC   GL239734  30.458   6.168   5.880
 2851POPC   C1A39735  30.588   5.768   6.142
 2851POPC   D2A39736  30.349   5.863   6.531
 2851POPC   C3A39737  30.466   5.784   6.954
 2851POPC   C4A39738  30.605   5.683   7.395
 2851POPC   C1B39739  30.555   6.293   6.331
 2851POPC   C2B39740  30.775   6.121   6.708
 2851POPC   C3B39741  30.811   6.103   7.178
 2851POPC   C4B39742  30.657   6.150   7.625
 2852POPC   NC339743  11.083  32.354   5.291
 2852POPC   PO439744  11.555  31.975   5.515
 2852POPC   GL139745  11.168  32.060   5.735
 2852POPC   GL239746  11.306  32.375   5.828
 2852POPC   C1A39747  10.957  32.162   6.157
 2852POPC   D2A39748  10.971  32.402   6.571
 2852POPC   C3A39749  11.208  32.173   6.901
 2852POPC   C4A39750  11.021  32.082   7.314
 2852POPC   C1B39751  11.505  32.088   6.166
 2852POPC   C2B39752  11.618  31.909   6.586
 2852POPC   C3B39753  11.611  31.874   7.050
 2852POPC   C4B39754  11.519  32.232   7.352
 2853POPC   NC339755   0.767  19.374   5.463
 2853POPC   PO439756   1.411  19.051   5.479
 2853POPC   GL139757   1.111  19.113   5.769
 2853POPC   GL239758   1.119  19.442   5.875
 2853POPC   C1A39759   1.020  19.062   6.201
 2853POPC   D2A39760   1.140  19.206   6.600
 2853POPC   C3A39761   1.249  18.875   6.903
 2853POPC   C4A39762   0.964  18.713   7.220
 2853POPC   C1B39763   1.483  19.266   6.158
 2853POPC   C2B39764   1.624  19.394   6.588
 2853POPC   C3B39765   1.434  19.353   7.032
 2853POPC   C4B39766   1.356  19.070   7.369
 2854POPC   NC339767  21.498  23.834   5.444
 2854POPC   PO439768  21.771  23.301   5.614
 2854POPC   GL139769  21.511  23.595   5.920
 2854POPC   GL239770  21.538  23.970   5.925
 2854POPC   C1A39771  21.238  23.700   6.332
 2854POPC   D2A39772  21.125  23.907   6.773
 2854POPC   C3A39773  21.326  23.595   7.051
 2854POPC   C4A39774  21.764  23.498   7.026
 2854POPC   C1B39775  21.720  23.866   6.309
 2854POPC   C2B39776  21.629  23.908   6.737
 2854POPC   C3B39777  21.611  23.997   7.173
 2854POPC   C4B39778  21.706  24.190   7.563
 2855POPC   NC339779  22.557  19.627   5.361
 2855POPC   PO439780  23.194  19.461   5.532
 2855POPC   GL139781  23.081  19.162   5.864
 2855POPC   GL239782  22.727  19.037   5.822
 2855POPC   C1A39783  22.968  19.143   6.323
 2855POPC   D2A39784  22.817  19.256   6.758
 2855POPC   C3A39785  22.987  19.493   7.121
 2855POPC   C4A39786  22.951  19.599   7.565
 2855POPC   C1B39787  22.625  18.782   6.216
 2855POPC   C2B39788  22.789  18.745   6.662
 2855POPC   C3B39789  22.763  18.875   7.098
 2855POPC   C4B39790  22.666  18.639   7.481
 2856POPC   NC339791  37.126   3.048   5.482
 2856POPC   PO439792  36.483   3.030   5.480
 2856POPC   GL139793  36.667   2.815   5.875
 2856POPC   GL239794  37.049   2.833   5.935
 2856POPC   C1A39795  36.765   2.583   6.294
 2856POPC   D2A39796  36.813   2.554   6.753
 2856POPC   C3A39797  36.823   2.945   6.893
 2856POPC   C4A39798  36.686   2.953   7.308
 2856POPC   C1B39799  37.175   2.895   6.362
 2856POPC   C2B39800  37.348   2.837   6.766
 2856POPC   C3B39801  37.178   2.720   7.171
 2856POPC   C4B39802  37.101   2.726   7.608
 2857POPC   NC339803  22.663  41.441   5.284
 2857POPC   PO439804  22.869  42.062   5.409
 2857POPC   GL139805  22.834  41.714   5.730
 2857POPC   GL239806  22.873  41.313   5.740
 2857POPC   C1A39807  22.968  41.573   6.155
 2857POPC   D2A39808  23.098  41.541   6.555
 2857POPC   C3A39809  22.848  41.457   6.908
 2857POPC   C4A39810  22.954  41.545   7.312
 2857POPC   C1B39811  23.248  41.152   6.019
 2857POPC   C2B39812  23.470  41.218   6.432
 2857POPC   C3B39813  23.345  41.212   6.875
 2857POPC   C4B39814  23.431  41.364   7.260
 2858POPC   NC339815  15.742  14.564   5.378
 2858POPC   PO439816  16.371  14.583   5.541
 2858POPC   GL139817  16.066  14.457   5.828
 2858POPC   GL239818  16.074  14.111   5.827
 2858POPC   C1A39819  16.047  14.622   6.251
 2858POPC   D2A39820  15.847  14.838   6.596
 2858POPC   C3A39821  16.110  14.763   6.950
 2858POPC   C4A39822  16.129  14.471   7.284
 2858POPC   C1B39823  16.082  14.089   6.237
 2858POPC   C2B39824  15.782  14.044   6.542
 2858POPC   C3B39825  15.865  14.197   6.941
 2858POPC   C4B39826  15.691  14.212   7.345
 2859POPC   NC339827  23.576  19.706   5.484
 2859POPC   PO439828  24.145  20.114   5.430
 2859POPC   GL139829  23.909  19.936   5.789
 2859POPC   GL239830  23.982  19.585   5.765
 2859POPC   C1A39831  23.645  19.815   6.209
 2859POPC   D2A39832  23.351  19.694   6.615
 2859POPC   C3A39833  23.397  19.818   7.077
 2859POPC   C4A39834  23.670  20.109   7.265
 2859POPC   C1B39835  23.955  19.420   6.173
 2859POPC   C2B39836  23.802  19.450   6.597
 2859POPC   C3B39837  23.649  19.392   7.013
 2859POPC   C4B39838  23.753  19.597   7.398
 2860POPC   NC339839  34.620  23.406   5.331
 2860POPC   PO439840  34.748  22.795   5.334
 2860POPC   GL139841  34.722  23.015   5.729
 2860POPC   GL239842  34.362  23.049   5.627
 2860POPC   C1A39843  34.833  22.957   6.216
 2860POPC   D2A39844  34.730  23.069   6.660
 2860POPC   C3A39845  34.832  22.814   7.034
 2860POPC   C4A39846  35.040  22.898   7.415
 2860POPC   C1B39847  34.322  22.925   6.059
 2860POPC   C2B39848  34.259  22.975   6.490
 2860POPC   C3B39849  34.328  22.858   6.915
 2860POPC   C4B39850  34.486  23.167   7.153
 2861POPC   NC339851   4.551  38.808   5.482
 2861POPC   PO439852   4.604  38.087   5.450
 2861POPC   GL139853   4.318  38.186   5.817
 2861POPC   GL239854   4.311  38.558   5.840
 2861POPC   C1A39855   4.380  38.320   6.269
 2861POPC   D2A39856   4.240  38.561   6.628
 2861POPC   C3A39857   4.435  38.461   7.000
 2861POPC   C4A39858   4.258  38.556   7.368
 2861POPC   C1B39859   4.467  38.812   6.207
 2861POPC   C2B39860   4.518  38.999   6.621
 2861POPC   C3B39861   4.388  38.967   7.068
 2861POPC   C4B39862   4.659  38.829   7.411
 2862POPC   NC339863  37.895  22.913   5.398
 2862POPC   PO439864  38.553  23.103   5.384
 2862POPC   GL139865  38.556  22.932   5.820
 2862POPC   GL239866  38.227  22.851   5.904
 2862POPC   C1A39867  38.534  22.884   6.310
 2862POPC   D2A39868  38.310  22.802   6.733
 2862POPC   C3A39869  38.475  22.791   7.161
 2862POPC   C4A39870  38.799  23.009   7.424
 2862POPC   C1B39871  38.020  22.981   6.312
 2862POPC   C2B39872  37.898  23.124   6.726
 2862POPC   C3B39873  38.088  23.125   7.120
 2862POPC   C4B39874  38.086  23.367   7.484
 2863POPC   NC339875   2.770  29.248   5.497
 2863POPC   PO439876   3.408  28.872   5.429
 2863POPC   GL139877   3.051  28.890   5.786
 2863POPC   GL239878   2.917  29.187   5.970
 2863POPC   C1A39879   2.667  28.756   6.085
 2863POPC   D2A39880   2.438  28.706   6.500
 2863POPC   C3A39881   2.638  28.818   6.882
 2863POPC   C4A39882   2.792  28.733   7.276
 2863POPC   C1B39883   3.152  29.071   6.281
 2863POPC   C2B39884   3.023  29.086   6.664
 2863POPC   C3B39885   3.141  29.072   7.049
 2863POPC   C4B39886   2.871  29.243   7.338
 2864POPC   NC339887  21.614  24.719   5.429
 2864POPC   PO439888  21.173  24.155   5.433
 2864POPC   GL139889  21.138  24.280   5.860
 2864POPC   GL239890  21.372  24.502   5.840
 2864POPC   C1A39891  21.304  24.206   6.317
 2864POPC   D2A39892  21.502  24.419   6.666
 2864POPC   C3A39893  21.347  24.414   7.094
 2864POPC   C4A39894  21.340  24.688   7.428
 2864POPC   C1B39895  21.365  24.707   6.241
 2864POPC   C2B39896  21.647  24.908   6.558
 2864POPC   C3B39897  21.442  24.910   6.965
 2864POPC   C4B39898  20.968  24.820   7.081
 2865POPC   NC339899  38.872  40.808   5.208
 2865POPC   PO439900  39.357  41.149   5.389
 2865POPC   GL139901  39.234  40.776   5.685
 2865POPC   GL239902  39.099  41.010   5.871
 2865POPC   C1A39903  39.088  40.594   6.150
 2865POPC   D2A39904  39.241  40.533   6.565
 2865POPC   C3A39905  39.012  40.600   6.982
 2865POPC   C4A39906  39.224  40.511   7.394
 2865POPC   C1B39907  39.236  41.072   6.293
 2865POPC   C2B39908  39.150  41.024   6.722
 2865POPC   C3B39909  39.277  41.041   7.152
 2865POPC   C4B39910  39.278  41.024   7.594
 2866POPC   NC339911  43.629   4.935   5.199
 2866POPC   PO439912  42.997   5.235   5.176
 2866POPC   GL139913  43.203   5.153   5.583
 2866POPC   GL239914  43.188   4.797   5.675
 2866POPC   C1A39915  43.115   5.127   6.064
 2866POPC   D2A39916  42.987   4.857   6.454
 2866POPC   C3A39917  43.093   5.009   6.883
 2866POPC   C4A39918  43.230   5.310   7.203
 2866POPC   C1B39919  43.400   4.705   6.121
 2866POPC   C2B39920  43.530   4.734   6.600
 2866POPC   C3B39921  43.498   4.765   7.084
 2866POPC   C4B39922  43.173   4.852   7.422
 2867POPC   NC339923  32.529   2.545   5.433
 2867POPC   PO439924  32.186   3.133   5.294
 2867POPC   GL139925  32.121   2.896   5.693
 2867POPC   GL239926  32.106   2.517   5.710
 2867POPC   C1A39927  32.343   2.831   6.104
 2867POPC   D2A39928  32.260   2.977   6.545
 2867POPC   C3A39929  32.279   3.031   7.021
 2867POPC   C4A39930  31.933   2.820   7.221
 2867POPC   C1B39931  32.073   2.384   6.130
 2867POPC   C2B39932  32.439   2.444   6.437
 2867POPC   C3B39933  32.523   2.637   6.819
 2867POPC   C4B39934  32.361   2.545   7.245
 2868POPC   NC339935   1.011   5.686   5.394
 2868POPC   PO439936   1.434   6.298   5.180
 2868POPC   GL139937   1.295   6.086   5.578
 2868POPC   GL239938   1.459   5.783   5.687
 2868POPC   C1A39939   1.187   5.995   6.046
 2868POPC   D2A39940   0.913   5.876   6.435
 2868POPC   C3A39941   0.894   5.923   6.919
 2868POPC   C4A39942   1.178   5.981   7.300
 2868POPC   C1B39943   1.472   5.573   6.097
 2868POPC   C2B39944   1.463   5.807   6.471
 2868POPC   C3B39945   1.355   5.730   6.877
 2868POPC   C4B39946   1.495   5.440   7.145
 2869POPC   NC339947  36.797  27.623   5.300
 2869POPC   PO439948  37.374  27.667   5.404
 2869POPC   GL139949  37.040  27.611   5.748
 2869POPC   GL239950  36.750  27.784   5.815
 2869POPC   C1A39951  37.045  27.425   6.187
 2869POPC   D2A39952  36.819  27.398   6.587
 2869POPC   C3A39953  37.008  27.614   6.891
 2869POPC   C4A39954  37.144  27.303   7.156
 2869POPC   C1B39955  36.672  27.746   6.243
 2869POPC   C2B39956  36.613  27.878   6.659
 2869POPC   C3B39957  36.473  27.930   7.076
 2869POPC   C4B39958  36.533  27.801   7.514
 2870POPC   NC339959  36.387  38.624   5.366
 2870POPC   PO439960  35.793  38.321   5.446
 2870POPC   GL139961  36.052  38.359   5.820
 2870POPC   GL239962  36.269  38.647   5.871
 2870POPC   C1A39963  35.969  38.442   6.267
 2870POPC   D2A39964  36.183  38.221   6.627
 2870POPC   C3A39965  35.941  38.247   6.994
 2870POPC   C4A39966  35.786  38.591   7.213
 2870POPC   C1B39967  36.455  38.413   6.219
 2870POPC   C2B39968  36.657  38.565   6.618
 2870POPC   C3B39969  36.598  38.356   6.998
 2870POPC   C4B39970  36.307  38.531   7.240
 2871POPC   NC339971  24.940  10.420   5.467
 2871POPC   PO439972  24.313  10.756   5.333
 2871POPC   GL139973  24.584  10.736   5.716
 2871POPC   GL239974  24.577  10.370   5.817
 2871POPC   C1A39975  24.469  10.735   6.174
 2871POPC   D2A39976  24.270  10.734   6.584
 2871POPC   C3A39977  24.580  10.659   6.899
 2871POPC   C4A39978  24.729  10.665   7.325
 2871POPC   C1B39979  24.782  10.279   6.214
 2871POPC   C2B39980  24.647  10.186   6.651
 2871POPC   C3B39981  24.860  10.243   7.060
 2871POPC   C4B39982  24.772  10.189   7.508
 2872POPC   NC339983  26.813  28.292   5.188
 2872POPC   PO439984  27.253  27.946   5.395
 2872POPC   GL139985  26.978  28.225   5.714
 2872POPC   GL239986  26.838  28.582   5.648
 2872POPC   C1A39987  26.832  28.263   6.190
 2872POPC   D2A39988  26.681  28.416   6.628
 2872POPC   C3A39989  26.691  28.185   7.050
 2872POPC   C4A39990  27.002  28.060   7.384
 2872POPC   C1B39991  27.014  28.727   6.082
 2872POPC   C2B39992  27.148  28.616   6.527
 2872POPC   C3B39993  27.069  28.529   6.995
 2872POPC   C4B39994  26.795  28.578   7.378
 2873POPC   NC339995   4.425  13.131   5.403
 2873POPC   PO439996   4.189  12.555   5.180
 2873POPC   GL139997   4.281  12.583   5.734
 2873POPC   GL239998   4.437  12.912   5.858
 2873POPC   C1A39999   4.146  12.660   6.180
 2873POPC   D2A40000   4.099  12.525   6.594
 2873POPC   C3A40001   4.241  12.755   6.961
 2873POPC   C4A40002   4.189  13.019   7.338
 2873POPC   C1B40003   4.621  12.828   6.295
 2873POPC   C2B40004   4.670  13.022   6.727
 2873POPC   C3B40005   4.682  12.976   7.175
 2873POPC   C4B40006   4.499  12.625   7.397
 2874POPC   NC340007   0.282  33.942   5.541
 2874POPC   PO440008   0.508  34.577   5.535
 2874POPC   GL140009   0.524  34.536   5.937
 2874POPC   GL240010   0.187  34.425   5.944
 2874POPC   C1A40011   0.383  34.746   6.312
 2874POPC   D2A40012   0.284  34.778   6.739
 2874POPC   C3A40013   0.657  34.779   7.029
 2874POPC   C4A40014   0.687  34.742   7.491
 2874POPC   C1B40015   0.008  34.390   6.354
 2874POPC   C2B40016   0.185  34.262   6.744
 2874POPC   C3B40017   0.071  34.312   7.138
 2874POPC   C4B40018   0.228  34.656   7.237
 2875POPC   NC340019  42.079   5.898   5.403
 2875POPC   PO440020  42.748   5.846   5.456
 2875POPC   GL140021  42.600   5.927   5.873
 2875POPC   GL240022  42.285   6.112   5.825
 2875POPC   C1A40023  42.447   5.889   6.322
 2875POPC   D2A40024  42.366   5.681   6.741
 2875POPC   C3A40025  42.349   5.795   7.196
 2875POPC   C4A40026  42.588   5.612   7.571
 2875POPC   C1B40027  42.033   6.162   6.182
 2875POPC   C2B40028  42.013   6.052   6.601
 2875POPC   C3B40029  41.990   6.250   6.975
 2875POPC   C4B40030  41.925   6.053   7.356
 2876POPC   NC340031  31.322  38.034   5.018
 2876POPC   PO440032  31.618  38.382   5.506
 2876POPC   GL140033  31.502  38.547   5.909
 2876POPC   GL240034  31.476  38.213   6.032
 2876POPC   C1A40035  31.384  38.607   6.385
 2876POPC   D2A40036  31.611  38.539   6.826
 2876POPC   C3A40037  31.402  38.664   7.220
 2876POPC   C4A40038  31.191  38.726   7.650
 2876POPC   C1B40039  31.599  38.163   6.464
 2876POPC   C2B40040  31.274  38.165   6.752
 2876POPC   C3B40041  31.330  38.086   7.165
 2876POPC   C4B40042  31.369  38.274   7.564
 2877POPC   NC340043   8.147  31.864   5.308
 2877POPC   PO440044   8.158  32.592   5.411
 2877POPC   GL140045   8.230  32.368   5.819
 2877POPC   GL240046   8.580  32.400   5.883
 2877POPC   C1A40047   8.091  32.082   6.195
 2877POPC   D2A40048   7.881  31.946   6.604
 2877POPC   C3A40049   7.892  32.247   6.942
 2877POPC   C4A40050   8.161  32.317   7.288
 2877POPC   C1B40051   8.494  32.377   6.333
 2877POPC   C2B40052   8.396  32.289   6.791
 2877POPC   C3B40053   8.593  32.515   7.160
 2877POPC   C4B40054   8.552  32.436   7.604
 2878POPC   NC340055  39.133  13.148   5.433
 2878POPC   PO440056  38.936  12.553   5.307
 2878POPC   GL140057  39.026  12.737   5.739
 2878POPC   GL240058  39.261  12.512   5.907
 2878POPC   C1A40059  38.950  12.796   6.200
 2878POPC   D2A40060  39.097  12.594   6.616
 2878POPC   C3A40061  38.931  12.823   7.011
 2878POPC   C4A40062  38.821  13.000   7.416
 2878POPC   C1B40063  39.465  12.746   6.215
 2878POPC   C2B40064  39.608  12.807   6.637
 2878POPC   C3B40065  39.430  12.649   7.021
 2878POPC   C4B40066  39.525  12.648   7.465
 2879POPC   NC340067  38.913  32.557   5.449
 2879POPC   PO440068  39.116  31.950   5.527
 2879POPC   GL140069  39.030  31.965   5.940
 2879POPC   GL240070  38.999  32.319   5.925
 2879POPC   C1A40071  39.189  31.986   6.351
 2879POPC   D2A40072  39.149  32.145   6.767
 2879POPC   C3A40073  39.403  32.043   7.112
 2879POPC   C4A40074  39.411  32.158   7.553
 2879POPC   C1B40075  38.933  32.448   6.354
 2879POPC   C2B40076  38.861  32.563   6.793
 2879POPC   C3B40077  39.018  32.428   7.221
 2879POPC   C4B40078  39.171  32.600   7.628
 2880POPC   NC340079   4.177  26.472   5.485
 2880POPC   PO440080   4.158  25.791   5.418
 2880POPC   GL140081   4.368  26.063   5.725
 2880POPC   GL240082   4.092  26.219   5.929
 2880POPC   C1A40083   4.586  26.331   6.053
 2880POPC   D2A40084   4.693  26.183   6.466
 2880POPC   C3A40085   4.645  26.370   6.848
 2880POPC   C4A40086   4.532  26.208   7.269
 2880POPC   C1B40087   4.194  25.813   6.144
 2880POPC   C2B40088   4.406  25.761   6.534
 2880POPC   C3B40089   4.305  25.910   6.916
 2880POPC   C4B40090   4.065  25.781   7.254
 2881POPC   NC340091  40.227  20.676   5.498
 2881POPC   PO440092  40.880  20.805   5.396
 2881POPC   GL140093  40.893  20.618   5.758
 2881POPC   GL240094  41.081  20.860   5.928
 2881POPC   C1A40095  40.690  20.601   6.165
 2881POPC   D2A40096  40.869  20.715   6.570
 2881POPC   C3A40097  40.672  20.641   6.962
 2881POPC   C4A40098  40.826  20.677   7.372
 2881POPC   C1B40099  41.190  20.490   6.201
 2881POPC   C2B40100  41.169  20.282   6.627
 2881POPC   C3B40101  41.181  20.401   7.082
 2881POPC   C4B40102  41.132  20.316   7.550
 2882POPC   NC340103   7.681  43.708   5.171
 2882POPC   PO440104   7.206  44.125   5.380
 2882POPC   GL140105   7.335  43.912   5.773
 2882POPC   GL240106   7.254  43.531   5.813
 2882POPC   C1A40107   7.230  43.831   6.230
 2882POPC   D2A40108   7.262  44.123   6.598
 2882POPC   C3A40109   7.498  44.127   6.964
 2882POPC   C4A40110   7.438  44.071   7.407
 2882POPC   C1B40111   7.077  43.353   6.242
 2882POPC   C2B40112   6.993  43.612   6.631
 2882POPC   C3B40113   7.149  43.760   7.019
 2882POPC   C4B40114   7.196  43.608   7.419
 2883POPC   NC340115  36.132  15.416   5.461
 2883POPC   PO440116  35.723  14.937   5.300
 2883POPC   GL140117  35.990  14.979   5.713
 2883POPC   GL240118  36.282  14.763   5.785
 2883POPC   C1A40119  36.107  15.131   6.149
 2883POPC   D2A40120  36.339  14.962   6.535
 2883POPC   C3A40121  36.348  15.218   6.928
 2883POPC   C4A40122  35.934  15.371   7.128
 2883POPC   C1B40123  35.973  14.641   6.120
 2883POPC   C2B40124  35.799  14.831   6.474
 2883POPC   C3B40125  35.924  14.934   6.862
 2883POPC   C4B40126  36.116  14.904   7.239
 2884POPC   NC340127   4.716  40.061   5.447
 2884POPC   PO440128   4.097  39.876   5.291
 2884POPC   GL140129   4.283  39.812   5.722
 2884POPC   GL240130   4.285  40.157   5.864
 2884POPC   C1A40131   4.257  39.765   6.203
 2884POPC   D2A40132   4.125  40.019   6.567
 2884POPC   C3A40133   4.058  39.794   6.932
 2884POPC   C4A40134   4.047  39.946   7.360
 2884POPC   C1B40135   4.559  40.176   6.259
 2884POPC   C2B40136   4.630  39.960   6.674
 2884POPC   C3B40137   4.512  39.940   7.118
 2884POPC   C4B40138   4.466  40.265   7.450
 2885POPC   NC340139  39.105   0.563   5.236
 2885POPC   PO440140  39.522   0.048   5.528
 2885POPC   GL140141  39.294   0.202   5.888
 2885POPC   GL240142  39.160   0.521   5.762
 2885POPC   C1A40143  39.283   0.208   6.320
 2885POPC   D2A40144  39.300   0.516   6.609
 2885POPC   C3A40145  39.500   0.421   6.984
 2885POPC   C4A40146  39.338   0.184   7.302
 2885POPC   C1B40147  38.923   0.562   6.142
 2885POPC   C2B40148  38.792   0.591   6.592
 2885POPC   C3B40149  38.969   0.427   7.002
 2885POPC   C4B40150  39.052   0.643   7.372
 2886POPC   NC340151  44.753  43.378   5.448
 2886POPC   PO440152  44.366  42.826   5.356
 2886POPC   GL140153  44.628  42.977   5.725
 2886POPC   GL240154  44.422  43.196   5.831
 2886POPC   C1A40155  44.782  43.059   6.179
 2886POPC   D2A40156  44.646  42.908   6.589
 2886POPC   C3A40157  44.777  43.098   6.951
 2886POPC   C4A40158  44.751  42.949   7.341
 2886POPC   C1B40159  44.443  43.440   6.170
 2886POPC   C2B40160  44.610  43.419   6.570
 2886POPC   C3B40161  44.370  43.404   6.931
 2886POPC   C4B40162  44.348  43.257   7.336
 2887POPC   NC340163   4.207   2.339   5.202
 2887POPC   PO440164   4.546   1.894   5.478
 2887POPC   GL140165   4.396   2.071   5.799
 2887POPC   GL240166   4.072   2.198   5.742
 2887POPC   C1A40167   4.603   2.071   6.169
 2887POPC   D2A40168   4.509   1.884   6.523
 2887POPC   C3A40169   4.597   2.074   6.907
 2887POPC   C4A40170   4.628   1.917   7.333
 2887POPC   C1B40171   4.080   2.075   6.226
 2887POPC   C2B40172   4.089   2.119   6.694
 2887POPC   C3B40173   4.170   1.861   7.072
 2887POPC   C4B40174   4.097   1.916   7.533
 2888POPC   NC340175  37.077  37.155   5.627
 2888POPC   PO440176  36.475  36.981   5.418
 2888POPC   GL140177  36.729  36.870   5.844
 2888POPC   GL240178  37.016  36.659   5.822
 2888POPC   C1A40179  36.780  37.133   6.270
 2888POPC   D2A40180  36.460  37.199   6.650
 2888POPC   C3A40181  36.636  37.150   7.071
 2888POPC   C4A40182  37.021  37.133   7.358
 2888POPC   C1B40183  36.794  36.584   6.245
 2888POPC   C2B40184  36.725  36.736   6.678
 2888POPC   C3B40185  36.884  36.692   7.101
 2888POPC   C4B40186  37.222  36.635   7.406
 2889POPC   NC340187  14.842  40.268   5.315
 2889POPC   PO440188  15.414  39.853   5.495
 2889POPC   GL140189  15.286  40.064   5.843
 2889POPC   GL240190  14.949  40.009   5.750
 2889POPC   C1A40191  15.245  40.053   6.306
 2889POPC   D2A40192  15.276  39.816   6.676
 2889POPC   C3A40193  15.356  39.943   7.094
 2889POPC   C4A40194  15.360  40.212   7.453
 2889POPC   C1B40195  14.820  39.734   6.103
 2889POPC   C2B40196  14.737  39.855   6.519
 2889POPC   C3B40197  14.851  39.989   6.908
 2889POPC   C4B40198  14.897  39.885   7.293
 2890POPC   NC340199  41.902  43.959   5.160
 2890POPC   PO440200  41.378  43.692   5.456
 2890POPC   GL140201  41.514  43.577   5.864
 2890POPC   GL240202  41.781  43.822   5.816
 2890POPC   C1A40203  41.402  43.713   6.283
 2890POPC   D2A40204  41.457  44.086   6.553
 2890POPC   C3A40205  41.502  43.975   6.985
 2890POPC   C4A40206  41.472  43.590   7.191
 2890POPC   C1B40207  41.926  43.644   6.204
 2890POPC   C2B40208  42.085  43.797   6.610
 2890POPC   C3B40209  41.967  43.774   7.038
 2890POPC   C4B40210  41.897  44.144   7.286
 2891POPC   NC340211  24.074   5.869   5.467
 2891POPC   PO440212  24.708   6.128   5.370
 2891POPC   GL140213  24.509   6.181   5.775
 2891POPC   GL240214  24.838   6.258   5.904
 2891POPC   C1A40215  24.298   5.955   6.165
 2891POPC   D2A40216  24.152   5.791   6.604
 2891POPC   C3A40217  24.403   5.876   7.010
 2891POPC   C4A40218  24.321   5.689   7.426
 2891POPC   C1B40219  24.735   6.252   6.347
 2891POPC   C2B40220  24.726   6.268   6.800
 2891POPC   C3B40221  24.870   6.057   7.185
 2891POPC   C4B40222  24.797   6.019   7.631
 2892POPC   NC340223  34.056  14.481   4.959
 2892POPC   PO440224  33.397  14.591   5.308
 2892POPC   GL140225  33.640  14.367   5.676
 2892POPC   GL240226  33.809  14.688   5.775
 2892POPC   C1A40227  33.846  14.251   6.125
 2892POPC   D2A40228  34.031  14.388   6.595
 2892POPC   C3A40229  33.879  14.240   7.049
 2892POPC   C4A40230  33.566  14.257   7.419
 2892POPC   C1B40231  33.916  14.750   6.214
 2892POPC   C2B40232  33.714  14.860   6.596
 2892POPC   C3B40233  33.720  14.718   7.025
 2892POPC   C4B40234  33.965  14.609   7.407
 2893POPC   NC340235   3.881  39.518   5.536
 2893POPC   PO440236   3.460  39.111   5.190
 2893POPC   GL140237   3.534  39.141   5.640
 2893POPC   GL240238   3.313  39.388   5.812
 2893POPC   C1A40239   3.591  38.972   6.062
 2893POPC   D2A40240   3.532  39.146   6.494
 2893POPC   C3A40241   3.510  39.000   6.915
 2893POPC   C4A40242   3.509  39.190   7.333
 2893POPC   C1B40243   3.616  39.492   6.129
 2893POPC   C2B40244   3.862  39.546   6.499
 2893POPC   C3B40245   3.600  39.522   6.848
 2893POPC   C4B40246   3.645  39.683   7.213
 2894POPC   NC340247   8.427  11.603   5.064
 2894POPC   PO440248   7.922  11.252   5.207
 2894POPC   GL140249   8.252  11.271   5.608
 2894POPC   GL240250   8.114  11.536   5.815
 2894POPC   C1A40251   8.323  11.188   6.112
 2894POPC   D2A40252   8.269  11.010   6.575
 2894POPC   C3A40253   8.458  11.156   6.956
 2894POPC   C4A40254   8.241  11.065   7.332
 2894POPC   C1B40255   8.325  11.687   6.188
 2894POPC   C2B40256   8.325  11.505   6.608
 2894POPC   C3B40257   8.196  11.582   7.058
 2894POPC   C4B40258   8.407  11.543   7.448
 2895POPC   NC340259  34.727  37.400   4.960
 2895POPC   PO440260  34.765  36.890   5.387
 2895POPC   GL140261  34.672  37.128   5.750
 2895POPC   GL240262  34.580  36.818   5.872
 2895POPC   C1A40263  34.454  37.200   6.170
 2895POPC   D2A40264  34.637  37.219   6.566
 2895POPC   C3A40265  34.511  37.131   6.973
 2895POPC   C4A40266  34.688  37.011   7.371
 2895POPC   C1B40267  34.641  36.642   6.269
 2895POPC   C2B40268  34.508  36.663   6.684
 2895POPC   C3B40269  34.806  36.680   6.991
 2895POPC   C4B40270  34.869  36.496   7.400
 2896POPC   NC340271  29.359  36.425   5.499
 2896POPC   PO440272  28.836  35.881   5.454
 2896POPC   GL140273  29.004  36.127   5.784
 2896POPC   GL240274  28.738  36.303   5.842
 2896POPC   C1A40275  29.127  36.078   6.215
 2896POPC   D2A40276  29.266  35.849   6.592
 2896POPC   C3A40277  29.323  36.108   6.979
 2896POPC   C4A40278  29.265  35.986   7.412
 2896POPC   C1B40279  28.841  36.513   6.215
 2896POPC   C2B40280  29.071  36.433   6.596
 2896POPC   C3B40281  28.867  36.379   6.978
 2896POPC   C4B40282  28.995  36.424   7.374
 2897POPC   NC340283   4.582  12.433   5.364
 2897POPC   PO440284   4.254  11.856   5.264
 2897POPC   GL140285   4.094  12.141   5.555
 2897POPC   GL240286   4.427  12.083   5.730
 2897POPC   C1A40287   3.989  12.205   6.000
 2897POPC   D2A40288   4.132  12.047   6.409
 2897POPC   C3A40289   4.001  11.880   6.819
 2897POPC   C4A40290   4.098  11.982   7.251
 2897POPC   C1B40291   4.494  12.277   6.120
 2897POPC   C2B40292   4.568  12.340   6.531
 2897POPC   C3B40293   4.390  12.233   6.918
 2897POPC   C4B40294   4.619  12.106   7.282
 2898POPC   NC340295  23.547  16.684   5.569
 2898POPC   PO440296  24.160  16.773   5.351
 2898POPC   GL140297  24.025  16.869   5.827
 2898POPC   GL240298  23.688  16.941   5.967
 2898POPC   C1A40299  24.020  16.824   6.313
 2898POPC   D2A40300  23.807  16.596   6.700
 2898POPC   C3A40301  23.884  16.810   7.109
 2898POPC   C4A40302  24.090  16.914   7.484
 2898POPC   C1B40303  23.480  16.856   6.340
 2898POPC   C2B40304  23.311  16.844   6.745
 2898POPC   C3B40305  23.404  16.661   7.094
 2898POPC   C4B40306  23.549  16.672   7.521
 2899POPC   NC340307  33.119  41.683   5.323
 2899POPC   PO440308  33.573  41.462   5.675
 2899POPC   GL140309  33.266  41.752   5.854
 2899POPC   GL240310  32.927  41.675   5.810
 2899POPC   C1A40311  33.149  41.728   6.284
 2899POPC   D2A40312  33.131  41.327   6.459
 2899POPC   C3A40313  33.028  41.312   6.870
 2899POPC   C4A40314  33.247  41.271   7.274
 2899POPC   C1B40315  32.659  41.787   6.160
 2899POPC   C2B40316  32.582  41.607   6.552
 2899POPC   C3B40317  32.499  41.692   6.984
 2899POPC   C4B40318  32.819  41.601   7.227
 2900POPC   NC340319  35.112  31.807   5.613
 2900POPC   PO440320  35.167  32.318   5.278
 2900POPC   GL140321  35.289  32.294   5.724
 2900POPC   GL240322  35.022  32.514   5.799
 2900POPC   C1A40323  35.237  32.120   6.179
 2900POPC   D2A40324  34.953  32.220   6.542
 2900POPC   C3A40325  35.059  32.076   6.962
 2900POPC   C4A40326  35.423  32.187   7.232
 2900POPC   C1B40327  35.189  32.622   6.207
 2900POPC   C2B40328  35.393  32.469   6.594
 2900POPC   C3B40329  35.395  32.641   7.012
 2900POPC   C4B40330  35.284  32.899   7.361
 2901POPC   NC340331  30.864  35.388   5.213
 2901POPC   PO440332  30.261  35.441   5.336
 2901POPC   GL140333  30.586  35.403   5.676
 2901POPC   GL240334  30.956  35.297   5.705
 2901POPC   C1A40335  30.707  35.450   6.120
 2901POPC   D2A40336  30.489  35.544   6.512
 2901POPC   C3A40337  30.642  35.319   6.894
 2901POPC   C4A40338  30.473  35.381   7.311
 2901POPC   C1B40339  31.030  35.025   6.097
 2901POPC   C2B40340  31.182  34.997   6.545
 2901POPC   C3B40341  31.025  34.949   6.996
 2901POPC   C4B40342  30.938  35.212   7.334
 2902POPC   NC340343   6.982  11.570   5.642
 2902POPC   PO440344   6.630  11.111   5.274
 2902POPC   GL140345   6.604  11.230   5.700
 2902POPC   GL240346   6.905  11.052   5.750
 2902POPC   C1A40347   6.640  11.309   6.169
 2902POPC   D2A40348   6.391  11.301   6.567
 2902POPC   C3A40349   6.531  11.455   6.994
 2902POPC   C4A40350   6.520  11.195   7.384
 2902POPC   C1B40351   7.009  10.890   6.157
 2902POPC   C2B40352   6.909  11.062   6.568
 2902POPC   C3B40353   6.741  10.975   6.965
 2902POPC   C4B40354   6.971  10.905   7.374
 2903POPC   NC340355  23.535  31.195   5.392
 2903POPC   PO440356  24.005  31.517   5.311
 2903POPC   GL140357  23.755  31.551   5.710
 2903POPC   GL240358  23.739  31.236   5.864
 2903POPC   C1A40359  23.842  31.624   6.190
 2903POPC   D2A40360  23.816  31.422   6.600
 2903POPC   C3A40361  23.850  31.616   7.010
 2903POPC   C4A40362  23.595  31.777   7.357
 2903POPC   C1B40363  23.586  31.097   6.278
 2903POPC   C2B40364  23.486  31.058   6.749
 2903POPC   C3B40365  23.440  31.329   7.133
 2903POPC   C4B40366  23.482  31.325   7.565
 2904POPC   NC340367  15.313  12.037   5.240
 2904POPC   PO440368  15.166  12.666   5.179
 2904POPC   GL140369  15.215  12.371   5.641
 2904POPC   GL240370  15.204  12.043   5.725
 2904POPC   C1A40371  15.487  12.334   6.061
 2904POPC   D2A40372  15.517  12.066   6.458
 2904POPC   C3A40373  15.481  12.262   6.884
 2904POPC   C4A40374  15.478  12.002   7.238
 2904POPC   C1B40375  15.085  12.012   6.123
 2904POPC   C2B40376  15.015  12.057   6.551
 2904POPC   C3B40377  15.004  11.924   6.949
 2904POPC   C4B40378  15.012  12.282   7.179
 2905POPC   NC340379  13.191  25.714   5.579
 2905POPC   PO440380  12.736  25.242   5.403
 2905POPC   GL140381  12.884  25.169   5.796
 2905POPC   GL240382  13.124  24.891   5.799
 2905POPC   C1A40383  12.709  25.280   6.189
 2905POPC   D2A40384  12.830  25.296   6.583
 2905POPC   C3A40385  12.669  25.171   6.951
 2905POPC   C4A40386  12.734  25.296   7.369
 2905POPC   C1B40387  13.187  25.084   6.242
 2905POPC   C2B40388  13.186  24.947   6.700
 2905POPC   C3B40389  13.160  24.921   7.167
 2905POPC   C4B40390  13.394  25.026   7.540
 2906POPC   NC340391  41.419   0.662   5.539
 2906POPC   PO440392  41.752   1.170   5.193
 2906POPC   GL140393  41.642   1.203   5.650
 2906POPC   GL240394  41.846   0.933   5.820
 2906POPC   C1A40395  41.404   1.474   5.997
 2906POPC   D2A40396  41.404   1.649   6.440
 2906POPC   C3A40397  41.523   1.384   6.811
 2906POPC   C4A40398  41.506   1.419   7.259
 2906POPC   C1B40399  41.859   1.289   6.138
 2906POPC   C2B40400  42.054   1.383   6.557
 2906POPC   C3B40401  42.030   1.199   7.000
 2906POPC   C4B40402  41.886   1.081   7.415
 2907POPC   NC340403  10.949  26.540   5.534
 2907POPC   PO440404  11.195  25.876   5.522
 2907POPC   GL140405  11.235  26.094   5.906
 2907POPC   GL240406  11.471  26.306   5.700
 2907POPC   C1A40407  11.238  25.916   6.357
 2907POPC   D2A40408  11.234  26.021   6.825
 2907POPC   C3A40409  11.007  25.794   7.172
 2907POPC   C4A40410  10.884  25.654   7.612
 2907POPC   C1B40411  11.636  26.375   6.108
 2907POPC   C2B40412  11.616  26.237   6.542
 2907POPC   C3B40413  11.631  26.283   6.978
 2907POPC   C4B40414  11.402  26.116   7.308
 2908POPC   NC340415   1.321  13.519   5.437
 2908POPC   PO440416   1.207  14.120   5.539
 2908POPC   GL140417   1.197  13.772   5.881
 2908POPC   GL240418   1.013  13.428   5.835
 2908POPC   C1A40419   1.332  13.525   6.273
 2908POPC   D2A40420   1.345  13.715   6.656
 2908POPC   C3A40421   1.389  13.435   6.981
 2908POPC   C4A40422   1.609  13.538   7.329
 2908POPC   C1B40423   0.847  13.597   6.234
 2908POPC   C2B40424   0.930  13.416   6.662
 2908POPC   C3B40425   0.912  13.574   7.099
 2908POPC   C4B40426   0.911  13.621   7.582
 2909POPC   NC340427  26.425  38.862   5.408
 2909POPC   PO440428  25.779  39.003   5.437
 2909POPC   GL140429  25.926  39.144   5.821
 2909POPC   GL240430  26.086  39.475   5.783
 2909POPC   C1A40431  26.237  39.086   6.127
 2909POPC   D2A40432  26.381  39.235   6.518
 2909POPC   C3A40433  26.120  39.086   6.856
 2909POPC   C4A40434  26.006  39.258   7.259
 2909POPC   C1B40435  26.108  39.583   6.223
 2909POPC   C2B40436  26.318  39.767   6.581
 2909POPC   C3B40437  26.271  39.567   6.964
 2909POPC   C4B40438  26.385  39.669   7.390
 2910POPC   NC340439  39.895  10.765   5.117
 2910POPC   PO440440  40.359  10.325   5.388
 2910POPC   GL140441  40.115  10.178   5.761
 2910POPC   GL240442  39.871  10.423   5.922
 2910POPC   C1A40443  40.233  10.220   6.203
 2910POPC   D2A40444  40.094  10.303   6.621
 2910POPC   C3A40445  40.306  10.340   7.010
 2910POPC   C4A40446  40.145  10.305   7.436
 2910POPC   C1B40447  39.966  10.695   6.269
 2910POPC   C2B40448  40.086  10.822   6.679
 2910POPC   C3B40449  39.922  10.723   7.087
 2910POPC   C4B40450  39.909  10.754   7.543
 2911POPC   NC340451  13.834   1.366   5.387
 2911POPC   PO440452  13.302   0.990   5.576
 2911POPC   GL140453  13.400   1.256   5.863
 2911POPC   GL240454  13.737   1.154   5.930
 2911POPC   C1A40455  13.392   1.143   6.306
 2911POPC   D2A40456  13.739   1.243   6.562
 2911POPC   C3A40457  13.628   1.273   6.959
 2911POPC   C4A40458  13.915   1.372   7.240
 2911POPC   C1B40459  13.822   0.830   6.259
 2911POPC   C2B40460  13.687   0.706   6.691
 2911POPC   C3B40461  13.915   0.861   7.054
 2911POPC   C4B40462  13.826   0.927   7.480
 2912POPC   NC340463  20.663  33.662   5.269
 2912POPC   PO440464  20.493  34.282   5.421
 2912POPC   GL140465  20.459  33.919   5.709
 2912POPC   GL240466  20.793  33.792   5.819
 2912POPC   C1A40467  20.503  33.935   6.211
 2912POPC   D2A40468  20.375  33.790   6.635
 2912POPC   C3A40469  20.604  33.990   6.964
 2912POPC   C4A40470  20.652  33.911   7.357
 2912POPC   C1B40471  20.721  33.482   6.197
 2912POPC   C2B40472  20.657  33.349   6.631
 2912POPC   C3B40473  20.736  33.499   7.057
 2912POPC   C4B40474  20.697  33.352   7.500
 2913POPC   NC340475  34.223  20.535   5.615
 2913POPC   PO440476  33.655  20.367   5.298
 2913POPC   GL140477  33.713  20.530   5.753
 2913POPC   GL240478  33.687  20.882   5.953
 2913POPC   C1A40479  33.576  20.438   6.190
 2913POPC   D2A40480  33.601  20.707   6.551
 2913POPC   C3A40481  33.699  20.518   6.919
 2913POPC   C4A40482  33.793  20.681   7.309
 2913POPC   C1B40483  34.027  20.703   6.205
 2913POPC   C2B40484  34.230  20.651   6.583
 2913POPC   C3B40485  34.129  20.821   6.963
 2913POPC   C4B40486  34.324  21.087   7.241
 2914POPC   NC340487  21.655   2.043   5.495
 2914POPC   PO440488  22.274   1.805   5.441
 2914POPC   GL140489  22.067   1.859   5.867
 2914POPC   GL240490  21.937   2.202   5.901
 2914POPC   C1A40491  22.229   1.772   6.324
 2914POPC   D2A40492  22.349   1.614   6.767
 2914POPC   C3A40493  22.138   1.709   7.139
 2914POPC   C4A40494  22.105   1.925   7.514
 2914POPC   C1B40495  21.797   2.022   6.306
 2914POPC   C2B40496  21.958   1.999   6.727
 2914POPC   C3B40497  21.807   2.115   7.130
 2914POPC   C4B40498  21.769   2.277   7.558
 2915POPC   NC340499   1.663  22.633   5.723
 2915POPC   PO440500   1.328  23.212   5.513
 2915POPC   GL140501   1.181  23.042   5.888
 2915POPC   GL240502   1.055  22.710   5.803
 2915POPC   C1A40503   1.197  23.107   6.351
 2915POPC   D2A40504   1.248  23.260   6.774
 2915POPC   C3A40505   1.364  22.990   7.118
 2915POPC   C4A40506   1.087  22.937   7.475
 2915POPC   C1B40507   1.142  22.600   6.255
 2915POPC   C2B40508   1.158  22.704   6.714
 2915POPC   C3B40509   0.990  22.608   7.099
 2915POPC   C4B40510   1.283  22.454   7.401
 2916POPC   NC340511  16.575  15.921   5.526
 2916POPC   PO440512  17.223  15.937   5.588
 2916POPC   GL140513  16.930  15.714   5.844
 2916POPC   GL240514  16.516  15.650   5.929
 2916POPC   C1A40515  16.854  15.884   6.223
 2916POPC   D2A40516  16.809  16.233   6.478
 2916POPC   C3A40517  16.756  16.106   6.866
 2916POPC   C4A40518  16.962  16.108   7.230
 2916POPC   C1B40519  16.488  15.483   6.319
 2916POPC   C2B40520  16.717  15.653   6.644
 2916POPC   C3B40521  16.923  15.649   7.039
 2916POPC   C4B40522  16.653  15.739   7.394
 2917POPC   NC340523  37.205  12.180   5.415
 2917POPC   PO440524  36.596  11.937   5.292
 2917POPC   GL140525  36.763  12.105   5.709
 2917POPC   GL240526  36.806  12.476   5.687
 2917POPC   C1A40527  36.964  11.933   6.124
 2917POPC   D2A40528  37.177  11.831   6.556
 2917POPC   C3A40529  36.980  12.030   6.932
 2917POPC   C4A40530  36.674  12.354   7.079
 2917POPC   C1B40531  37.112  12.415   6.041
 2917POPC   C2B40532  37.057  12.327   6.477
 2917POPC   C3B40533  37.229  12.482   6.850
 2917POPC   C4B40534  37.204  12.345   7.262
 2918POPC   NC340535  13.951  10.757   5.413
 2918POPC   PO440536  14.477  10.269   5.427
 2918POPC   GL140537  14.350  10.383   5.866
 2918POPC   GL240538  14.269  10.750   5.835
 2918POPC   C1A40539  14.420  10.522   6.324
 2918POPC   D2A40540  14.660  10.737   6.661
 2918POPC   C3A40541  14.692  10.544   7.068
 2918POPC   C4A40542  14.388  10.228   7.201
 2918POPC   C1B40543  13.978  10.698   6.159
 2918POPC   C2B40544  13.893  10.571   6.579
 2918POPC   C3B40545  14.207  10.598   6.876
 2918POPC   C4B40546  14.271  10.708   7.300
 2919POPC   NC340547   1.089  18.674   5.492
 2919POPC   PO440548   1.415  18.106   5.394
 2919POPC   GL140549   1.477  18.319   5.787
 2919POPC   GL240550   1.191  18.182   5.960
 2919POPC   C1A40551   1.355  18.655   6.113
 2919POPC   D2A40552   1.065  18.632   6.479
 2919POPC   C3A40553   1.192  18.340   6.795
 2919POPC   C4A40554   1.360  18.406   7.185
 2919POPC   C1B40555   1.099  17.953   6.367
 2919POPC   C2B40556   1.018  17.843   6.789
 2919POPC   C3B40557   0.960  18.058   7.176
 2919POPC   C4B40558   0.635  18.286   7.386
 2920POPC   NC340559   6.208  43.160   5.338
 2920POPC   PO440560   6.701  43.333   5.724
 2920POPC   GL140561   6.585  43.060   6.001
 2920POPC   GL240562   6.681  42.769   5.828
 2920POPC   C1A40563   6.607  43.064   6.435
 2920POPC   D2A40564   6.992  43.090   6.669
 2920POPC   C3A40565   6.952  43.269   7.086
 2920POPC   C4A40566   6.615  43.209   7.374
 2920POPC   C1B40567   6.934  42.723   6.205
 2920POPC   C2B40568   6.767  42.615   6.610
 2920POPC   C3B40569   6.642  42.871   6.955
 2920POPC   C4B40570   6.660  42.665   7.324
 2921POPC   NC340571  31.313  32.198   5.276
 2921POPC   PO440572  31.844  32.136   5.635
 2921POPC   GL140573  31.429  32.192   5.829
 2921POPC   GL240574  31.212  31.927   5.684
 2921POPC   C1A40575  31.307  32.289   6.290
 2921POPC   D2A40576  31.497  32.430   6.701
 2921POPC   C3A40577  31.699  32.143   6.962
 2921POPC   C4A40578  31.615  32.066   7.370
 2921POPC   C1B40579  31.294  31.796   6.115
 2921POPC   C2B40580  31.323  31.834   6.574
 2921POPC   C3B40581  31.337  31.779   7.024
 2921POPC   C4B40582  31.286  31.694   7.478
 2922POPC   NC340583   2.592  38.566   5.464
 2922POPC   PO440584   3.224  38.369   5.460
 2922POPC   GL140585   2.897  38.354   5.823
 2922POPC   GL240586   2.601  38.117   5.773
 2922POPC   C1A40587   2.661  38.606   6.175
 2922POPC   D2A40588   2.398  38.664   6.592
 2922POPC   C3A40589   2.600  38.652   7.047
 2922POPC   C4A40590   2.668  38.796   7.497
 2922POPC   C1B40591   2.711  38.081   6.229
 2922POPC   C2B40592   2.561  38.152   6.639
 2922POPC   C3B40593   2.743  38.152   7.043
 2922POPC   C4B40594   2.860  38.340   7.438
 2923POPC   NC340595   7.965  33.774   5.404
 2923POPC   PO440596   8.420  34.154   5.264
 2923POPC   GL140597   8.363  33.901   5.728
 2923POPC   GL240598   8.081  33.667   5.879
 2923POPC   C1A40599   8.484  33.752   6.169
 2923POPC   D2A40600   8.176  33.639   6.504
 2923POPC   C3A40601   8.261  33.702   6.938
 2923POPC   C4A40602   8.021  33.639   7.305
 2923POPC   C1B40603   8.059  34.051   6.161
 2923POPC   C2B40604   7.889  34.176   6.596
 2923POPC   C3B40605   7.927  34.089   7.075
 2923POPC   C4B40606   7.887  34.040   7.564
 2924POPC   NC340607  19.059  42.399   5.521
 2924POPC   PO440608  19.474  42.968   5.628
 2924POPC   GL140609  19.278  42.691   5.923
 2924POPC   GL240610  19.126  42.376   6.004
 2924POPC   C1A40611  19.145  42.770   6.330
 2924POPC   D2A40612  18.924  42.823   6.673
 2924POPC   C3A40613  19.124  42.594   6.966
 2924POPC   C4A40614  19.121  42.771   7.354
 2924POPC   C1B40615  19.186  41.983   6.169
 2924POPC   C2B40616  19.221  42.046   6.595
 2924POPC   C3B40617  19.024  42.059   6.966
 2924POPC   C4B40618  19.126  42.253   7.366
 2925POPC   NC340619  28.608   9.172   5.435
 2925POPC   PO440620  27.949   9.076   5.544
 2925POPC   GL140621  28.295   8.921   5.765
 2925POPC   GL240622  28.450   8.650   5.591
 2925POPC   C1A40623  28.277   9.027   6.194
 2925POPC   D2A40624  28.108   9.048   6.611
 2925POPC   C3A40625  28.483   9.047   6.870
 2925POPC   C4A40626  28.761   9.299   7.079
 2925POPC   C1B40627  28.526   8.567   6.055
 2925POPC   C2B40628  28.391   8.619   6.506
 2925POPC   C3B40629  28.501   8.547   6.940
 2925POPC   C4B40630  28.558   8.790   7.335
 2926POPC   NC340631  14.526  14.632   5.476
 2926POPC   PO440632  14.209  14.116   5.363
 2926POPC   GL140633  14.256  14.287   5.787
 2926POPC   GL240634  14.588  14.335   5.896
 2926POPC   C1A40635  14.211  14.455   6.233
 2926POPC   D2A40636  14.414  14.590   6.645
 2926POPC   C3A40637  14.236  14.438   7.063
 2926POPC   C4A40638  14.175  14.466   7.553
 2926POPC   C1B40639  14.681  14.687   6.164
 2926POPC   C2B40640  14.757  14.973   6.496
 2926POPC   C3B40641  14.726  14.870   6.959
 2926POPC   C4B40642  14.604  14.658   7.348
 2927POPC   NC340643  43.599  13.121   5.514
 2927POPC   PO440644  44.069  12.616   5.555
 2927POPC   GL140645  43.861  12.874   5.888
 2927POPC   GL240646  43.495  12.909   5.959
 2927POPC   C1A40647  43.856  12.808   6.314
 2927POPC   D2A40648  43.849  12.481   6.575
 2927POPC   C3A40649  44.131  12.617   6.887
 2927POPC   C4A40650  44.191  12.899   7.236
 2927POPC   C1B40651  43.390  12.605   6.275
 2927POPC   C2B40652  43.369  12.646   6.698
 2927POPC   C3B40653  43.683  12.798   6.979
 2927POPC   C4B40654  43.815  12.557   7.303
 2928POPC   NC340655  18.769   5.890   5.334
 2928POPC   PO440656  19.274   5.665   5.292
 2928POPC   GL140657  19.160   5.777   5.743
 2928POPC   GL240658  18.802   5.862   5.868
 2928POPC   C1A40659  19.166   5.810   6.230
 2928POPC   D2A40660  19.014   5.712   6.675
 2928POPC   C3A40661  19.132   5.979   7.073
 2928POPC   C4A40662  19.198   6.124   7.500
 2928POPC   C1B40663  18.699   6.042   6.323
 2928POPC   C2B40664  18.687   6.076   6.804
 2928POPC   C3B40665  18.715   5.699   7.098
 2928POPC   C4B40666  18.898   5.546   7.487
 2929POPC   NC340667  21.956   6.155   5.379
 2929POPC   PO440668  22.452   5.757   5.347
 2929POPC   GL140669  22.177   5.732   5.733
 2929POPC   GL240670  22.401   5.666   6.023
 2929POPC   C1A40671  21.877   5.826   6.087
 2929POPC   D2A40672  22.034   5.953   6.480
 2929POPC   C3A40673  21.871   5.931   6.877
 2929POPC   C4A40674  21.965   5.671   7.204
 2929POPC   C1B40675  22.371   6.138   6.107
 2929POPC   C2B40676  22.300   6.380   6.511
 2929POPC   C3B40677  22.289   6.215   6.927
 2929POPC   C4B40678  22.338   6.079   7.356
 2930POPC   NC340679   6.225  31.132   5.356
 2930POPC   PO440680   5.539  31.405   5.309
 2930POPC   GL140681   5.886  31.478   5.630
 2930POPC   GL240682   6.110  31.234   5.824
 2930POPC   C1A40683   5.834  31.577   6.081
 2930POPC   D2A40684   5.844  31.412   6.511
 2930POPC   C3A40685   5.720  31.703   6.858
 2930POPC   C4A40686   5.943  31.911   7.227
 2930POPC   C1B40687   6.252  31.149   6.228
 2930POPC   C2B40688   6.220  31.096   6.686
 2930POPC   C3B40689   6.118  31.398   7.013
 2930POPC   C4B40690   6.080  31.274   7.446
 2931POPC   NC340691   6.133  29.083   5.589
 2931POPC   PO440692   5.588  29.282   5.274
 2931POPC   GL140693   5.651  29.251   5.733
 2931POPC   GL240694   5.753  28.893   5.862
 2931POPC   C1A40695   5.642  29.273   6.194
 2931POPC   D2A40696   5.414  29.326   6.572
 2931POPC   C3A40697   5.642  29.403   6.945
 2931POPC   C4A40698   5.591  29.143   7.294
 2931POPC   C1B40699   6.091  28.940   6.217
 2931POPC   C2B40700   6.173  29.116   6.633
 2931POPC   C3B40701   5.952  28.957   6.987
 2931POPC   C4B40702   5.994  28.867   7.431
 2932POPC   NC340703   3.755  25.675   5.222
 2932POPC   PO440704   3.191  26.002   5.280
 2932POPC   GL140705   3.395  26.135   5.638
 2932POPC   GL240706   3.752  26.100   5.565
 2932POPC   C1A40707   3.255  26.131   6.069
 2932POPC   D2A40708   3.197  26.256   6.491
 2932POPC   C3A40709   3.238  25.949   6.794
 2932POPC   C4A40710   3.339  25.916   7.218
 2932POPC   C1B40711   3.696  25.864   5.970
 2932POPC   C2B40712   3.631  25.959   6.426
 2932POPC   C3B40713   3.745  25.974   6.886
 2932POPC   C4B40714   3.882  26.268   7.224
 2933POPC   NC340715  37.574   6.917   5.388
 2933POPC   PO440716  38.102   6.453   5.412
 2933POPC   GL140717  37.890   6.370   5.817
 2933POPC   GL240718  37.737   6.676   5.829
 2933POPC   C1A40719  37.812   6.369   6.287
 2933POPC   D2A40720  37.886   6.267   6.741
 2933POPC   C3A40721  37.630   6.464   7.057
 2933POPC   C4A40722  37.641   6.452   7.503
 2933POPC   C1B40723  37.886   6.865   6.222
 2933POPC   C2B40724  37.805   6.774   6.671
 2933POPC   C3B40725  37.886   6.910   7.107
 2933POPC   C4B40726  37.801   6.936   7.561
 2934POPC   NC340727  29.307  18.025   5.371
 2934POPC   PO440728  28.928  18.652   5.366
 2934POPC   GL140729  28.926  18.455   5.777
 2934POPC   GL240730  29.288  18.375   5.813
 2934POPC   C1A40731  28.936  18.209   6.168
 2934POPC   D2A40732  28.863  18.057   6.587
 2934POPC   C3A40733  29.066  18.154   6.928
 2934POPC   C4A40734  28.868  18.118   7.304
 2934POPC   C1B40735  29.418  18.019   6.099
 2934POPC   C2B40736  29.362  17.898   6.551
 2934POPC   C3B40737  29.522  17.868   6.979
 2934POPC   C4B40738  29.444  18.191   7.269
 2935POPC   NC340739  40.733  40.330   5.447
 2935POPC   PO440740  40.337  39.767   5.467
 2935POPC   GL140741  40.557  40.012   5.807
 2935POPC   GL240742  40.479  40.363   5.922
 2935POPC   C1A40743  40.707  39.982   6.242
 2935POPC   D2A40744  40.935  39.809   6.610
 2935POPC   C3A40745  40.742  39.917   7.006
 2935POPC   C4A40746  40.907  40.025   7.423
 2935POPC   C1B40747  40.336  40.316   6.371
 2935POPC   C2B40748  40.362  40.303   6.828
 2935POPC   C3B40749  40.533  40.325   7.240
 2935POPC   C4B40750  40.425  40.158   7.633
 2936POPC   NC340751   9.164  30.873   5.328
 2936POPC   PO440752   9.324  30.328   5.664
 2936POPC   GL140753   9.171  30.693   5.797
 2936POPC   GL240754   8.800  30.675   5.664
 2936POPC   C1A40755   9.285  30.901   6.183
 2936POPC   D2A40756   9.089  30.941   6.587
 2936POPC   C3A40757   9.097  30.577   6.846
 2936POPC   C4A40758   9.274  30.867   7.109
 2936POPC   C1B40759   8.785  30.781   6.097
 2936POPC   C2B40760   8.726  30.619   6.475
 2936POPC   C3B40761   8.555  30.681   6.865
 2936POPC   C4B40762   8.763  30.760   7.190
 2937POPC   NC340763  19.907  42.846   5.499
 2937POPC   PO440764  19.673  43.383   5.240
 2937POPC   GL140765  19.740  43.376   5.737
 2937POPC   GL240766  20.054  43.250   5.782
 2937POPC   C1A40767  19.785  43.400   6.195
 2937POPC   D2A40768  19.558  43.294   6.574
 2937POPC   C3A40769  19.793  43.417   6.899
 2937POPC   C4A40770  19.881  43.403   7.309
 2937POPC   C1B40771  20.110  42.939   6.159
 2937POPC   C2B40772  20.015  43.027   6.616
 2937POPC   C3B40773  19.920  42.955   7.084
 2937POPC   C4B40774  20.011  42.990   7.562
 2938POPC   NC340775  25.854  35.916   5.557
 2938POPC   PO440776  25.996  35.318   5.285
 2938POPC   GL140777  26.073  35.314   5.748
 2938POPC   GL240778  26.088  35.613   5.879
 2938POPC   C1A40779  26.257  35.256   6.193
 2938POPC   D2A40780  26.406  35.336   6.621
 2938POPC   C3A40781  26.161  35.280   7.011
 2938POPC   C4A40782  26.092  34.939   7.294
 2938POPC   C1B40783  26.060  35.724   6.314
 2938POPC   C2B40784  26.037  35.695   6.743
 2938POPC   C3B40785  25.788  35.721   7.116
 2938POPC   C4B40786  25.793  35.723   7.611
 2939POPC   NC340787  34.358  31.606   5.332
 2939POPC   PO440788  34.961  31.369   5.514
 2939POPC   GL140789  34.700  31.548   5.855
 2939POPC   GL240790  34.343  31.696   5.849
 2939POPC   C1A40791  34.614  31.480   6.311
 2939POPC   D2A40792  34.419  31.487   6.720
 2939POPC   C3A40793  34.630  31.744   7.027
 2939POPC   C4A40794  34.755  31.591   7.431
 2939POPC   C1B40795  34.205  31.300   6.060
 2939POPC   C2B40796  34.120  31.120   6.493
 2939POPC   C3B40797  34.285  31.042   6.923
 2939POPC   C4B40798  34.675  31.199   7.138
 2940POPC   NC340799  12.369  43.304   5.509
 2940POPC   PO440800  11.836  42.894   5.333
 2940POPC   GL140801  12.038  42.952   5.755
 2940POPC   GL240802  12.347  43.101   5.966
 2940POPC   C1A40803  11.830  42.843   6.151
 2940POPC   D2A40804  11.776  42.869   6.587
 2940POPC   C3A40805  12.152  43.056   6.765
 2940POPC   C4A40806  12.150  43.101   7.184
 2940POPC   C1B40807  11.956  43.349   6.078
 2940POPC   C2B40808  11.704  43.361   6.426
 2940POPC   C3B40809  11.737  43.326   6.849
 2940POPC   C4B40810  11.745  43.500   7.233
 2941POPC   NC340811   6.937  12.355   5.465
 2941POPC   PO440812   6.578  11.804   5.648
 2941POPC   GL140813   6.744  12.056   5.883
 2941POPC   GL240814   6.520  12.336   5.869
 2941POPC   C1A40815   6.633  12.084   6.315
 2941POPC   D2A40816   6.564  12.449   6.555
 2941POPC   C3A40817   6.310  12.276   6.829
 2941POPC   C4A40818   6.412  11.942   7.160
 2941POPC   C1B40819   6.916  12.462   6.139
 2941POPC   C2B40820   7.053  12.274   6.543
 2941POPC   C3B40821   6.833  12.187   6.958
 2941POPC   C4B40822   6.543  12.474   7.222
 2942POPC   NC340823  44.710  15.380   5.477
 2942POPC   PO440824  44.476  14.815   5.455
 2942POPC   GL140825  44.816  14.911   5.796
 2942POPC   GL240826  44.859  15.261   5.946
 2942POPC   C1A40827  44.863  14.905   6.286
 2942POPC   D2A40828  44.929  15.164   6.688
 2942POPC   C3A40829  44.727  15.077   7.096
 2942POPC   C4A40830  44.933  14.691   7.282
 2942POPC   C1B40831  44.638  15.401   6.343
 2942POPC   C2B40832  44.635  15.561   6.809
 2942POPC   C3B40833  44.920  15.704   7.144
 2942POPC   C4B40834  44.882  15.889   7.565
 2943POPC   NC340835  19.749  32.910   5.361
 2943POPC   PO440836  20.002  33.379   5.629
 2943POPC   GL140837  19.913  33.026   5.896
 2943POPC   GL240838  19.682  32.753   5.856
 2943POPC   C1A40839  19.825  33.139   6.324
 2943POPC   D2A40840  20.120  33.267   6.681
 2943POPC   C3A40841  19.943  33.209   7.097
 2943POPC   C4A40842  20.048  32.838   7.405
 2943POPC   C1B40843  19.704  32.640   6.270
 2943POPC   C2B40844  19.630  32.801   6.667
 2943POPC   C3B40845  19.684  32.760   7.082
 2943POPC   C4B40846  19.576  32.663   7.509
 2944POPC   NC340847  21.286  33.297   5.555
 2944POPC   PO440848  20.813  32.802   5.536
 2944POPC   GL140849  21.132  32.906   5.882
 2944POPC   GL240850  21.480  32.929   6.018
 2944POPC   C1A40851  21.135  33.174   6.287
 2944POPC   D2A40852  21.381  33.015   6.642
 2944POPC   C3A40853  21.221  32.635   6.902
 2944POPC   C4A40854  21.360  32.672   7.342
 2944POPC   C1B40855  21.545  33.408   6.154
 2944POPC   C2B40856  21.426  33.548   6.573
 2944POPC   C3B40857  21.421  33.430   7.045
 2944POPC   C4B40858  21.580  33.475   7.502
 2945POPC   NC340859  36.758  43.766   5.531
 2945POPC   PO440860  37.203  44.291   5.469
 2945POPC   GL140861  37.057  44.053   5.850
 2945POPC   GL240862  36.698  43.988   5.982
 2945POPC   C1A40863  37.133  43.818   6.242
 2945POPC   D2A40864  37.126  43.619   6.649
 2945POPC   C3A40865  37.113  43.961   6.969
 2945POPC   C4A40866  36.745  44.100   7.212
 2945POPC   C1B40867  36.581  43.553   6.154
 2945POPC   C2B40868  36.617  43.389   6.558
 2945POPC   C3B40869  36.699  43.649   6.916
 2945POPC   C4B40870  36.990  43.550   7.231
 2946POPC   NC340871  14.609  25.675   5.656
 2946POPC   PO440872  14.592  25.172   5.398
 2946POPC   GL140873  14.618  25.171   5.852
 2946POPC   GL240874  14.269  25.223   5.973
 2946POPC   C1A40875  14.649  25.304   6.304
 2946POPC   D2A40876  14.335  25.242   6.626
 2946POPC   C3A40877  14.435  25.141   7.049
 2946POPC   C4A40878  14.390  24.949   7.442
 2946POPC   C1B40879  14.225  25.601   6.265
 2946POPC   C2B40880  14.415  25.756   6.670
 2946POPC   C3B40881  14.491  25.653   7.124
 2946POPC   C4B40882  14.699  25.373   7.446
 2947POPC   NC340883   6.495  16.562   5.233
 2947POPC   PO440884   7.084  16.937   5.178
 2947POPC   GL140885   6.848  16.825   5.592
 2947POPC   GL240886   6.478  16.848   5.684
 2947POPC   C1A40887   6.832  16.786   6.087
 2947POPC   D2A40888   6.837  16.553   6.492
 2947POPC   C3A40889   6.918  16.752   6.879
 2947POPC   C4A40890   6.852  16.653   7.271
 2947POPC   C1B40891   6.324  16.712   6.121
 2947POPC   C2B40892   6.135  16.795   6.527
 2947POPC   C3B40893   6.326  16.721   6.907
 2947POPC   C4B40894   6.372  16.568   7.320
 2948POPC   NC340895  38.895  15.408   4.842
 2948POPC   PO440896  38.426  15.203   5.259
 2948POPC   GL140897  38.171  15.090   5.699
 2948POPC   GL240898  38.434  14.925   5.809
 2948POPC   C1A40899  38.129  15.173   6.181
 2948POPC   D2A40900  38.417  15.331   6.541
 2948POPC   C3A40901  38.367  15.292   7.003
 2948POPC   C4A40902  38.280  15.315   7.454
 2948POPC   C1B40903  38.589  14.938   6.209
 2948POPC   C2B40904  38.422  14.829   6.587
 2948POPC   C3B40905  38.437  14.792   7.000
 2948POPC   C4B40906  38.074  14.863   7.221
 2949POPC   NC340907   3.817  44.638   5.419
 2949POPC   PO440908   3.122  44.652   5.295
 2949POPC   GL140909   3.273  44.512   5.722
 2949POPC   GL240910   3.546  44.699   5.872
 2949POPC   C1A40911   3.256  44.431   6.195
 2949POPC   D2A40912   3.475  44.382   6.585
 2949POPC   C3A40913   3.420  44.580   6.970
 2949POPC   C4A40914   3.684  44.286   7.167
 2949POPC   C1B40915   3.519  44.867   6.305
 2949POPC   C2B40916   3.778  44.862   6.682
 2949POPC   C3B40917   3.877  44.752   7.115
 2949POPC   C4B40918   3.672  44.819   7.511
 2950POPC   NC340919   9.700  34.807   5.335
 2950POPC   PO440920   9.446  35.411   5.559
 2950POPC   GL140921   9.649  35.520   5.937
 2950POPC   GL240922   9.863  35.227   5.835
 2950POPC   C1A40923   9.847  35.444   6.356
 2950POPC   D2A40924   9.955  35.656   6.743
 2950POPC   C3A40925   9.598  35.683   7.006
 2950POPC   C4A40926   9.367  35.360   7.231
 2950POPC   C1B40927   9.551  35.054   6.133
 2950POPC   C2B40928   9.443  35.173   6.570
 2950POPC   C3B40929   9.756  35.205   6.902
 2950POPC   C4B40930   9.802  35.104   7.324
 2951POPC   NC340931  44.483  22.394   5.314
 2951POPC   PO440932  44.885  21.934   5.443
 2951POPC   GL140933  44.610  21.982   5.801
 2951POPC   GL240934  44.522  22.327   5.810
 2951POPC   C1A40935  44.623  22.035   6.270
 2951POPC   D2A40936  44.793  22.127   6.687
 2951POPC   C3A40937  44.523  22.081   7.067
 2951POPC   C4A40938  44.915  22.233   7.200
 2951POPC   C1B40939  44.451  22.585   6.144
 2951POPC   C2B40940  44.418  22.449   6.565
 2951POPC   C3B40941  44.540  22.564   6.973
 2951POPC   C4B40942  44.346  22.504   7.343
 2952POPC   NC340943  26.095  42.751   5.150
 2952POPC   PO440944  26.283  42.305   5.546
 2952POPC   GL140945  26.198  42.330   5.940
 2952POPC   GL240946  25.948  42.591   5.902
 2952POPC   C1A40947  26.238  42.295   6.358
 2952POPC   D2A40948  25.994  42.250   6.688
 2952POPC   C3A40949  26.198  42.336   7.064
 2952POPC   C4A40950  26.013  42.215   7.454
 2952POPC   C1B40951  25.793  42.574   6.348
 2952POPC   C2B40952  25.762  42.721   6.806
 2952POPC   C3B40953  25.873  42.689   7.267
 2952POPC   C4B40954  26.046  42.877   7.659
 2953POPC   NC340955  17.068  37.361   5.487
 2953POPC   PO440956  16.633  36.913   5.263
 2953POPC   GL140957  16.810  36.996   5.752
 2953POPC   GL240958  17.013  36.739   5.907
 2953POPC   C1A40959  16.875  37.075   6.239
 2953POPC   D2A40960  16.878  37.155   6.709
 2953POPC   C3A40961  16.532  37.139   7.050
 2953POPC   C4A40962  16.617  36.964   7.495
 2953POPC   C1B40963  16.672  36.598   6.237
 2953POPC   C2B40964  16.508  36.626   6.668
 2953POPC   C3B40965  16.541  36.612   7.109
 2953POPC   C4B40966  16.796  36.487   7.429
 2954POPC   NC340967  43.604  24.883   5.203
 2954POPC   PO440968  44.096  25.121   5.332
 2954POPC   GL140969  44.049  25.285   5.740
 2954POPC   GL240970  44.029  25.009   5.954
 2954POPC   C1A40971  44.118  25.424   6.211
 2954POPC   D2A40972  44.239  25.299   6.653
 2954POPC   C3A40973  43.975  25.402   7.031
 2954POPC   C4A40974  44.055  25.536   7.455
 2954POPC   C1B40975  43.953  24.943   6.394
 2954POPC   C2B40976  43.903  24.927   6.835
 2954POPC   C3B40977  44.136  24.939   7.195
 2954POPC   C4B40978  44.059  24.740   7.602
 2955POPC   NC340979   6.273  13.003   5.555
 2955POPC   PO440980   5.641  13.153   5.550
 2955POPC   GL140981   5.830  12.841   5.822
 2955POPC   GL240982   6.090  13.008   6.011
 2955POPC   C1A40983   5.810  12.666   6.244
 2955POPC   D2A40984   5.542  12.634   6.581
 2955POPC   C3A40985   5.701  12.720   6.942
 2955POPC   C4A40986   5.945  12.806   7.235
 2955POPC   C1B40987   5.751  13.208   6.227
 2955POPC   C2B40988   5.696  13.134   6.637
 2955POPC   C3B40989   5.557  13.221   7.036
 2955POPC   C4B40990   5.688  13.222   7.442
 2956POPC   NC340991  18.130  10.964   5.383
 2956POPC   PO440992  18.634  11.404   5.551
 2956POPC   GL140993  18.404  11.149   5.829
 2956POPC   GL240994  18.051  11.282   5.868
 2956POPC   C1A40995  18.408  11.280   6.250
 2956POPC   D2A40996  18.273  11.553   6.562
 2956POPC   C3A40997  18.315  11.414   6.996
 2956POPC   C4A40998  18.245  11.582   7.395
 2956POPC   C1B40999  17.902  11.276   6.317
 2956POPC   C2B41000  17.885  11.275   6.777
 2956POPC   C3B41001  17.884  11.201   7.210
 2956POPC   C4B41002  17.948  11.264   7.685
 2957POPC   NC341003   9.171  24.261   5.373
 2957POPC   PO441004   8.488  24.146   5.363
 2957POPC   GL141005   8.619  24.385   5.724
 2957POPC   GL241006   8.909  24.285   5.801
 2957POPC   C1A41007   8.756  24.695   6.066
 2957POPC   D2A41008   9.001  24.804   6.442
 2957POPC   C3A41009   8.802  24.739   6.812
 2957POPC   C4A41010   8.870  24.814   7.217
 2957POPC   C1B41011   9.152  24.349   6.190
 2957POPC   C2B41012   9.043  24.320   6.621
 2957POPC   C3B41013   9.064  24.359   7.055
 2957POPC   C4B41014   8.636  24.352   7.184
 2958POPC   NC341015  40.930   7.216   5.525
 2958POPC   PO441016  40.774   7.850   5.545
 2958POPC   GL141017  40.583   7.500   5.780
 2958POPC   GL241018  40.897   7.551   5.965
 2958POPC   C1A41019  40.617   7.167   6.140
 2958POPC   D2A41020  40.791   7.059   6.557
 2958POPC   C3A41021  40.696   7.266   6.954
 2958POPC   C4A41022  40.975   7.518   7.212
 2958POPC   C1B41023  40.558   7.702   6.243
 2958POPC   C2B41024  40.472   7.625   6.658
 2958POPC   C3B41025  40.525   7.746   7.066
 2958POPC   C4B41026  40.528   7.542   7.439
 2959POPC   NC341027   9.221  27.534   5.397
 2959POPC   PO441028   8.690  27.818   5.335
 2959POPC   GL141029   8.847  27.684   5.744
 2959POPC   GL241030   8.673  27.385   5.784
 2959POPC   C1A41031   8.872  27.801   6.190
 2959POPC   D2A41032   8.719  27.655   6.592
 2959POPC   C3A41033   8.880  27.782   6.990
 2959POPC   C4A41034   8.628  27.911   7.292
 2959POPC   C1B41035   8.778  27.285   6.223
 2959POPC   C2B41036   8.838  27.130   6.651
 2959POPC   C3B41037   8.743  27.281   7.089
 2959POPC   C4B41038   8.761  27.222   7.547
 2960POPC   NC341039   5.207  39.205   5.353
 2960POPC   PO441040   4.525  39.287   5.419
 2960POPC   GL141041   4.850  39.099   5.791
 2960POPC   GL241042   5.251  39.010   5.817
 2960POPC   C1A41043   5.029  39.167   6.238
 2960POPC   D2A41044   5.062  38.959   6.639
 2960POPC   C3A41045   4.860  39.138   7.014
 2960POPC   C4A41046   4.800  39.516   7.280
 2960POPC   C1B41047   5.543  39.008   6.184
 2960POPC   C2B41048   5.607  38.862   6.622
 2960POPC   C3B41049   5.379  38.898   7.039
 2960POPC   C4B41050   5.302  39.322   7.177
 2961POPC   NC341051   4.806   2.282   5.541
 2961POPC   PO441052   5.200   1.802   5.289
 2961POPC   GL141053   5.038   1.868   5.721
 2961POPC   GL241054   5.222   1.664   5.882
 2961POPC   C1A41055   5.103   2.097   6.153
 2961POPC   D2A41056   4.971   2.228   6.591
 2961POPC   C3A41057   5.087   2.057   7.037
 2961POPC   C4A41058   5.115   1.895   7.479
 2961POPC   C1B41059   5.363   1.704   6.310
 2961POPC   C2B41060   5.479   1.902   6.724
 2961POPC   C3B41061   5.578   1.992   7.189
 2961POPC   C4B41062   5.498   2.218   7.554
 2962POPC   NC341063   2.430   3.394   5.372
 2962POPC   PO441064   2.742   3.938   5.672
 2962POPC   GL141065   2.742   3.481   5.799
 2962POPC   GL241066   3.100   3.339   5.738
 2962POPC   C1A41067   2.612   3.452   6.240
 2962POPC   D2A41068   2.774   3.739   6.560
 2962POPC   C3A41069   2.781   3.593   6.959
 2962POPC   C4A41070   2.426   3.662   7.197
 2962POPC   C1B41071   3.072   3.213   6.171
 2962POPC   C2B41072   3.065   3.284   6.636
 2962POPC   C3B41073   3.076   3.180   7.096
 2962POPC   C4B41074   3.172   3.194   7.602
 2963POPC   NC341075  33.871  22.119   5.437
 2963POPC   PO441076  33.248  22.314   5.599
 2963POPC   GL141077  33.594  22.298   5.858
 2963POPC   GL241078  33.631  21.932   5.853
 2963POPC   C1A41079  33.708  22.240   6.311
 2963POPC   D2A41080  33.928  22.060   6.684
 2963POPC   C3A41081  33.772  22.191   7.085
 2963POPC   C4A41082  33.321  22.247   7.205
 2963POPC   C1B41083  33.859  21.765   6.178
 2963POPC   C2B41084  33.724  21.619   6.569
 2963POPC   C3B41085  33.497  21.764   6.927
 2963POPC   C4B41086  33.551  21.793   7.357
 2964POPC   NC341087   5.605   1.681   5.512
 2964POPC   PO441088   5.469   2.309   5.427
 2964POPC   GL141089   5.519   2.085   5.815
 2964POPC   GL241090   5.876   1.988   5.806
 2964POPC   C1A41091   5.638   2.105   6.244
 2964POPC   D2A41092   5.952   2.018   6.505
 2964POPC   C3A41093   5.892   2.199   6.866
 2964POPC   C4A41094   6.120   2.130   7.231
 2964POPC   C1B41095   5.972   1.683   6.118
 2964POPC   C2B41096   5.813   1.515   6.487
 2964POPC   C3B41097   5.941   1.673   6.883
 2964POPC   C4B41098   5.989   1.635   7.304
 2965POPC   NC341099  38.826  42.354   4.837
 2965POPC   PO441100  38.277  42.331   5.314
 2965POPC   GL141101  38.363  42.238   5.779
 2965POPC   GL241102  38.150  42.001   5.800
 2965POPC   C1A41103  38.465  42.404   6.218
 2965POPC   D2A41104  38.749  42.438   6.602
 2965POPC   C3A41105  38.577  42.477   7.057
 2965POPC   C4A41106  38.310  42.515   7.446
 2965POPC   C1B41107  38.181  41.956   6.205
 2965POPC   C2B41108  38.005  42.039   6.593
 2965POPC   C3B41109  38.163  41.888   6.956
 2965POPC   C4B41110  38.368  42.015   7.282
 2966POPC   NC341111  11.838  33.998   5.416
 2966POPC   PO441112  12.352  33.558   5.258
 2966POPC   GL141113  12.238  33.835   5.690
 2966POPC   GL241114  11.881  33.808   5.885
 2966POPC   C1A41115  12.338  33.890   6.143
 2966POPC   D2A41116  12.155  33.920   6.560
 2966POPC   C3A41117  12.390  33.826   6.921
 2966POPC   C4A41118  12.353  33.629   7.307
 2966POPC   C1B41119  11.749  34.048   6.261
 2966POPC   C2B41120  11.772  34.250   6.676
 2966POPC   C3B41121  11.894  33.972   7.009
 2966POPC   C4B41122  11.907  33.864   7.415
 2967POPC   NC341123   0.434  39.007   5.225
 2967POPC   PO441124   0.659  38.430   5.470
 2967POPC   GL141125   0.499  38.588   5.833
 2967POPC   GL241126   0.287  38.348   5.940
 2967POPC   C1A41127   0.636  38.783   6.251
 2967POPC   D2A41128   0.741  38.600   6.660
 2967POPC   C3A41129   0.589  38.782   7.009
 2967POPC   C4A41130   0.447  38.506   7.278
 2967POPC   C1B41131   0.498  38.286   6.330
 2967POPC   C2B41132   0.514  38.077   6.744
 2967POPC   C3B41133   0.336  37.986   7.187
 2967POPC   C4B41134   0.338  38.151   7.645
 2968POPC   NC341135  14.679  13.140   5.519
 2968POPC   PO441136  14.200  12.673   5.436
 2968POPC   GL141137  14.389  12.820   5.800
 2968POPC   GL241138  14.303  13.149   5.849
 2968POPC   C1A41139  14.348  12.647   6.196
 2968POPC   D2A41140  14.469  12.482   6.581
 2968POPC   C3A41141  14.250  12.634   6.931
 2968POPC   C4A41142  14.467  12.674   7.293
 2968POPC   C1B41143  14.561  13.130   6.202
 2968POPC   C2B41144  14.498  12.992   6.617
 2968POPC   C3B41145  14.547  13.150   7.027
 2968POPC   C4B41146  14.922  13.221   7.242
 2969POPC   NC341147  23.286  24.951   5.559
 2969POPC   PO441148  22.746  25.342   5.383
 2969POPC   GL141149  22.888  25.205   5.786
 2969POPC   GL241150  23.147  25.408   5.919
 2969POPC   C1A41151  22.752  25.221   6.227
 2969POPC   D2A41152  23.003  25.361   6.574
 2969POPC   C3A41153  23.104  25.599   6.943
 2969POPC   C4A41154  22.895  25.502   7.282
 2969POPC   C1B41155  23.279  25.084   6.242
 2969POPC   C2B41156  23.161  24.864   6.628
 2969POPC   C3B41157  23.079  25.074   7.021
 2969POPC   C4B41158  23.208  24.992   7.431
 2970POPC   NC341159   9.813  30.234   5.424
 2970POPC   PO441160   9.598  30.856   5.196
 2970POPC   GL141161   9.680  30.717   5.639
 2970POPC   GL241162   9.583  31.049   5.772
 2970POPC   C1A41163   9.720  30.562   6.131
 2970POPC   D2A41164   9.555  30.618   6.605
 2970POPC   C3A41165   9.612  30.494   7.081
 2970POPC   C4A41166   9.584  30.740   7.489
 2970POPC   C1B41167   9.798  31.073   6.189
 2970POPC   C2B41168  10.031  30.793   6.492
 2970POPC   C3B41169  10.054  30.661   6.906
 2970POPC   C4B41170   9.769  30.993   7.067
 2971POPC   NC341171  34.185  21.498   5.444
 2971POPC   PO441172  34.839  21.204   5.496
 2971POPC   GL141173  34.671  21.350   5.856
 2971POPC   GL241174  34.318  21.277   5.875
 2971POPC   C1A41175  34.720  21.253   6.284
 2971POPC   D2A41176  34.466  21.111   6.610
 2971POPC   C3A41177  34.562  21.387   6.909
 2971POPC   C4A41178  34.825  21.302   7.245
 2971POPC   C1B41179  34.345  21.603   6.162
 2971POPC   C2B41180  34.227  21.625   6.574
 2971POPC   C3B41181  34.197  21.773   7.005
 2971POPC   C4B41182  34.405  21.607   7.352
 2972POPC   NC341183   8.456  30.852   5.070
 2972POPC   PO441184   8.218  31.409   5.373
 2972POPC   GL141185   8.312  31.469   5.813
 2972POPC   GL241186   8.058  31.256   5.930
 2972POPC   C1A41187   8.483  31.597   6.238
 2972POPC   D2A41188   8.345  31.542   6.669
 2972POPC   C3A41189   8.516  31.731   7.034
 2972POPC   C4A41190   8.094  31.821   7.149
 2972POPC   C1B41191   7.886  30.958   6.248
 2972POPC   C2B41192   8.038  31.018   6.683
 2972POPC   C3B41193   7.969  31.305   7.031
 2972POPC   C4B41194   7.973  31.103   7.435
 2973POPC   NC341195   5.151  44.298   5.404
 2973POPC   PO441196   4.829  43.688   5.473
 2973POPC   GL141197   5.026  43.958   5.772
 2973POPC   GL241198   4.893  44.289   5.847
 2973POPC   C1A41199   5.223  43.916   6.154
 2973POPC   D2A41200   5.236  43.636   6.499
 2973POPC   C3A41201   5.297  43.776   6.929
 2973POPC   C4A41202   5.607  43.639   7.227
 2973POPC   C1B41203   4.770  44.171   6.252
 2973POPC   C2B41204   5.045  44.144   6.591
 2973POPC   C3B41205   5.277  44.315   6.900
 2973POPC   C4B41206   5.045  44.159   7.230
 2974POPC   NC341207  11.944  19.231   5.549
 2974POPC   PO441208  12.564  19.400   5.247
 2974POPC   GL141209  12.454  19.194   5.698
 2974POPC   GL241210  12.159  18.997   5.933
 2974POPC   C1A41211  12.522  19.258   6.163
 2974POPC   D2A41212  12.181  19.221   6.475
 2974POPC   C3A41213  12.214  18.997   6.859
 2974POPC   C4A41214  12.362  19.112   7.252
 2974POPC   C1B41215  11.755  19.095   6.197
 2974POPC   C2B41216  11.553  19.057   6.609
 2974POPC   C3B41217  11.669  18.843   6.971
 2974POPC   C4B41218  11.990  18.761   7.256
 2975POPC   NC341219  40.650   9.828   5.431
 2975POPC   PO441220  41.102   9.313   5.617
 2975POPC   GL141221  40.961   9.715   5.827
 2975POPC   GL241222  41.265   9.850   5.896
 2975POPC   C1A41223  40.667   9.967   6.125
 2975POPC   D2A41224  40.463   9.933   6.553
 2975POPC   C3A41225  40.608   9.909   6.970
 2975POPC   C4A41226  40.536   9.894   7.401
 2975POPC   C1B41227  41.139   9.920   6.289
 2975POPC   C2B41228  41.014   9.714   6.651
 2975POPC   C3B41229  41.129   9.861   7.039
 2975POPC   C4B41230  41.241   9.573   7.347
 2976POPC   NC341231  37.663  13.172   5.617
 2976POPC   PO441232  37.948  13.790   5.478
 2976POPC   GL141233  37.756  13.826   5.905
 2976POPC   GL241234  37.747  13.507   6.004
 2976POPC   C1A41235  37.578  13.843   6.342
 2976POPC   D2A41236  37.647  13.577   6.687
 2976POPC   C3A41237  37.506  13.694   7.095
 2976POPC   C4A41238  37.658  13.605   7.519
 2976POPC   C1B41239  38.075  13.684   6.281
 2976POPC   C2B41240  38.180  13.553   6.669
 2976POPC   C3B41241  38.021  13.644   7.052
 2976POPC   C4B41242  38.104  13.436   7.405
 2977POPC   NC341243   2.056  33.191   5.282
 2977POPC   PO441244   1.685  32.654   5.155
 2977POPC   GL141245   1.750  32.861   5.614
 2977POPC   GL241246   2.097  32.991   5.744
 2977POPC   C1A41247   1.710  32.989   6.064
 2977POPC   D2A41248   1.959  32.993   6.432
 2977POPC   C3A41249   1.895  32.757   6.779
 2977POPC   C4A41250   1.847  33.089   7.053
 2977POPC   C1B41251   2.144  33.343   6.094
 2977POPC   C2B41252   2.067  33.518   6.522
 2977POPC   C3B41253   2.223  33.460   6.924
 2977POPC   C4B41254   2.040  33.491   7.316
 2978POPC   NC341255  17.362  44.183   5.428
 2978POPC   PO441256  17.798  43.706   5.407
 2978POPC   GL141257  17.681  43.936   5.797
 2978POPC   GL241258  17.368  43.810   5.788
 2978POPC   C1A41259  17.795  44.097   6.227
 2978POPC   D2A41260  17.564  43.997   6.628
 2978POPC   C3A41261  17.712  43.821   7.018
 2978POPC   C4A41262  17.756  43.966   7.435
 2978POPC   C1B41263  17.315  43.878   6.203
 2978POPC   C2B41264  17.123  43.695   6.567
 2978POPC   C3B41265  17.172  43.935   6.942
 2978POPC   C4B41266  17.266  43.884   7.361
 2979POPC   NC341267  12.539   6.008   4.982
 2979POPC   PO441268  12.750   6.163   5.614
 2979POPC   GL141269  12.615   6.123   6.015
 2979POPC   GL241270  12.387   5.882   5.927
 2979POPC   C1A41271  12.940   5.992   6.324
 2979POPC   D2A41272  13.212   5.908   6.699
 2979POPC   C3A41273  13.045   6.123   7.062
 2979POPC   C4A41274  13.034   6.037   7.495
 2979POPC   C1B41275  12.484   5.727   6.357
 2979POPC   C2B41276  12.710   5.790   6.752
 2979POPC   C3B41277  12.574   5.792   7.161
 2979POPC   C4B41278  12.369   5.459   7.434
 2980POPC   NC341279  29.902  26.964   5.388
 2980POPC   PO441280  29.930  26.304   5.304
 2980POPC   GL141281  29.811  26.618   5.742
 2980POPC   GL241282  29.794  27.052   5.848
 2980POPC   C1A41283  29.765  26.698   6.200
 2980POPC   D2A41284  29.923  26.575   6.586
 2980POPC   C3A41285  29.879  26.819   6.955
 2980POPC   C4A41286  30.175  26.797   7.263
 2980POPC   C1B41287  30.110  27.096   6.138
 2980POPC   C2B41288  30.036  27.104   6.559
 2980POPC   C3B41289  30.242  27.197   6.928
 2980POPC   C4B41290  30.308  27.270   7.371
 2981POPC   NC341291  38.503  34.725   4.971
 2981POPC   PO441292  38.148  34.396   5.238
 2981POPC   GL141293  38.282  34.392   5.687
 2981POPC   GL241294  38.368  34.730   5.793
 2981POPC   C1A41295  38.188  34.351   6.156
 2981POPC   D2A41296  38.097  34.522   6.605
 2981POPC   C3A41297  38.375  34.433   6.967
 2981POPC   C4A41298  38.330  34.160   7.337
 2981POPC   C1B41299  38.278  34.860   6.239
 2981POPC   C2B41300  38.332  34.990   6.689
 2981POPC   C3B41301  38.348  34.917   7.132
 2981POPC   C4B41302  38.113  34.646   7.392
 2982POPC   NC341303  26.957  21.709   5.424
 2982POPC   PO441304  26.904  21.002   5.361
 2982POPC   GL141305  26.799  21.313   5.688
 2982POPC   GL241306  26.605  21.153   5.886
 2982POPC   C1A41307  26.619  21.653   6.010
 2982POPC   D2A41308  26.648  21.840   6.452
 2982POPC   C3A41309  26.858  21.673   6.821
 2982POPC   C4A41310  26.749  21.804   7.227
 2982POPC   C1B41311  26.684  21.271   6.334
 2982POPC   C2B41312  26.480  21.324   6.729
 2982POPC   C3B41313  26.520  21.387   7.155
 2982POPC   C4B41314  26.878  21.302   7.440
 2983POPC   NC341315  16.337  10.938   5.417
 2983POPC   PO441316  15.800  11.390   5.442
 2983POPC   GL141317  15.937  11.252   5.804
 2983POPC   GL241318  16.270  11.340   5.733
 2983POPC   C1A41319  15.748  11.149   6.193
 2983POPC   D2A41320  15.540  11.221   6.565
 2983POPC   C3A41321  15.755  11.211   6.928
 2983POPC   C4A41322  15.784  11.544   7.212
 2983POPC   C1B41323  16.289  11.122   6.151
 2983POPC   C2B41324  16.090  10.982   6.538
 2983POPC   C3B41325  16.141  10.881   6.950
 2983POPC   C4B41326  16.090  11.117   7.307
 2984POPC   NC341327   3.877  42.914   5.490
 2984POPC   PO441328   3.364  43.326   5.577
 2984POPC   GL141329   3.536  43.038   5.863
 2984POPC   GL241330   3.817  43.275   5.910
 2984POPC   C1A41331   3.549  43.091   6.304
 2984POPC   D2A41332   3.608  43.441   6.586
 2984POPC   C3A41333   3.500  43.297   6.979
 2984POPC   C4A41334   3.609  42.942   7.272
 2984POPC   C1B41335   4.039  43.193   6.286
 2984POPC   C2B41336   4.024  43.080   6.702
 2984POPC   C3B41337   3.994  43.297   7.096
 2984POPC   C4B41338   3.788  43.374   7.490
 2985POPC   NC341339  28.922  20.629   5.646
 2985POPC   PO441340  29.482  20.868   5.370
 2985POPC   GL141341  29.410  20.569   5.760
 2985POPC   GL241342  29.270  20.824   5.965
 2985POPC   C1A41343  29.234  20.403   6.221
 2985POPC   D2A41344  29.237  20.614   6.617
 2985POPC   C3A41345  29.030  20.423   6.961
 2985POPC   C4A41346  29.193  20.322   7.355
 2985POPC   C1B41347  28.868  20.830   6.270
 2985POPC   C2B41348  28.835  20.934   6.725
 2985POPC   C3B41349  29.156  20.906   7.063
 2985POPC   C4B41350  29.151  20.826   7.522
 2986POPC   NC341351  13.210  11.428   5.376
 2986POPC   PO441352  12.750  11.052   5.377
 2986POPC   GL141353  12.802  11.280   5.752
 2986POPC   GL241354  13.089  11.172   5.979
 2986POPC   C1A41355  12.700  11.475   6.152
 2986POPC   D2A41356  12.954  11.315   6.484
 2986POPC   C3A41357  12.815  11.409   6.887
 2986POPC   C4A41358  12.950  11.184   7.233
 2986POPC   C1B41359  12.697  10.970   6.181
 2986POPC   C2B41360  12.494  11.064   6.569
 2986POPC   C3B41361  12.450  10.787   6.928
 2986POPC   C4B41362  12.573  10.862   7.347
 2987POPC   NC341363  33.617  33.674   5.498
 2987POPC   PO441364  33.922  34.172   5.211
 2987POPC   GL141365  33.972  33.996   5.689
 2987POPC   GL241366  33.653  33.982   5.903
 2987POPC   C1A41367  34.046  33.742   6.103
 2987POPC   D2A41368  33.727  33.718   6.452
 2987POPC   C3A41369  33.760  33.766   6.919
 2987POPC   C4A41370  33.685  33.566   7.325
 2987POPC   C1B41371  33.817  34.178   6.258
 2987POPC   C2B41372  33.645  34.201   6.652
 2987POPC   C3B41373  33.758  34.348   7.031
 2987POPC   C4B41374  33.752  34.069   7.377
 2988POPC   NC341375  36.094   4.790   5.462
 2988POPC   PO441376  35.904   5.470   5.411
 2988POPC   GL141377  36.108   5.212   5.782
 2988POPC   GL241378  35.948   4.938   5.911
 2988POPC   C1A41379  36.258   5.163   6.242
 2988POPC   D2A41380  36.317   5.286   6.702
 2988POPC   C3A41381  36.204   5.094   7.108
 2988POPC   C4A41382  36.180   5.282   7.513
 2988POPC   C1B41383  35.795   4.936   6.291
 2988POPC   C2B41384  35.957   4.935   6.669
 2988POPC   C3B41385  35.717   4.936   7.017
 2988POPC   C4B41386  35.711   5.144   7.410
 2989POPC   NC341387  29.874  33.356   5.481
 2989POPC   PO441388  30.187  33.883   5.250
 2989POPC   GL141389  29.975  33.835   5.641
 2989POPC   GL241390  30.026  34.123   5.820
 2989POPC   C1A41391  29.866  33.716   6.073
 2989POPC   D2A41392  29.969  33.573   6.475
 2989POPC   C3A41393  29.802  33.688   6.872
 2989POPC   C4A41394  29.743  33.533   7.299
 2989POPC   C1B41395  29.823  34.227   6.169
 2989POPC   C2B41396  29.997  34.081   6.537
 2989POPC   C3B41397  29.907  34.198   6.924
 2989POPC   C4B41398  29.826  34.059   7.303
 2990POPC   NC341399  35.595  29.637   5.398
 2990POPC   PO441400  36.021  29.976   5.284
 2990POPC   GL141401  35.947  29.929   5.759
 2990POPC   GL241402  36.173  30.141   5.959
 2990POPC   C1A41403  36.101  29.723   6.195
 2990POPC   D2A41404  36.469  29.792   6.497
 2990POPC   C3A41405  36.409  29.672   6.945
 2990POPC   C4A41406  36.067  29.857   7.179
 2990POPC   C1B41407  35.885  30.250   6.279
 2990POPC   C2B41408  35.956  30.482   6.683
 2990POPC   C3B41409  35.979  30.367   7.130
 2990POPC   C4B41410  36.082  30.198   7.570
 2991POPC   NC341411  44.464  33.208   5.428
 2991POPC   PO441412  44.989  32.726   5.457
 2991POPC   GL141413  44.668  32.799   5.773
 2991POPC   GL241414  44.738  33.144   5.902
 2991POPC   C1A41415  44.610  32.758   6.223
 2991POPC   D2A41416  44.752  33.011   6.569
 2991POPC   C3A41417  44.554  32.883   6.944
 2991POPC   C4A41418  44.743  32.642   7.253
 2991POPC   C1B41419   0.088  33.275   6.203
 2991POPC   C2B41420   0.183  33.362   6.646
 2991POPC   C3B41421  44.906  33.251   7.020
 2991POPC   C4B41422  44.636  33.145   7.389
 2992POPC   NC341423  26.659  16.699   5.416
 2992POPC   PO441424  27.057  16.157   5.493
 2992POPC   GL141425  27.008  16.586   5.775
 2992POPC   GL241426  26.644  16.609   5.915
 2992POPC   C1A41427  27.019  16.730   6.234
 2992POPC   D2A41428  26.809  16.439   6.540
 2992POPC   C3A41429  26.736  16.442   7.008
 2992POPC   C4A41430  26.794  16.493   7.501
 2992POPC   C1B41431  26.512  16.820   6.318
 2992POPC   C2B41432  26.758  16.932   6.703
 2992POPC   C3B41433  26.738  16.942   7.145
 2992POPC   C4B41434  26.549  17.167   7.502
 2993POPC   NC341435  34.310  18.196   5.338
 2993POPC   PO441436  34.859  18.344   5.393
 2993POPC   GL141437  34.826  18.269   5.799
 2993POPC   GL241438  34.521  18.037   5.815
 2993POPC   C1A41439  34.641  18.524   6.116
 2993POPC   D2A41440  34.357  18.505   6.458
 2993POPC   C3A41441  34.612  18.448   6.817
 2993POPC   C4A41442  34.521  18.527   7.238
 2993POPC   C1B41443  34.653  18.038   6.246
 2993POPC   C2B41444  34.864  18.032   6.638
 2993POPC   C3B41445  34.659  17.996   7.039
 2993POPC   C4B41446  34.185  17.861   7.130
 2994POPC   NC341447   8.329   7.730   5.732
 2994POPC   PO441448   8.600   8.155   5.521
 2994POPC   GL141449   8.938   8.217   5.816
 2994POPC   GL241450   9.211   8.490   5.737
 2994POPC   C1A41451   8.828   8.205   6.256
 2994POPC   D2A41452   8.878   8.358   6.671
 2994POPC   C3A41453   8.894   8.103   7.031
 2994POPC   C4A41454   9.013   7.768   7.340
 2994POPC   C1B41455   9.186   8.554   6.171
 2994POPC   C2B41456   9.347   8.550   6.581
 2994POPC   C3B41457   9.229   8.506   7.028
 2994POPC   C4B41458   9.133   8.628   7.489
 2995POPC   NC341459  29.038  33.857   5.258
 2995POPC   PO441460  29.424  33.268   5.449
 2995POPC   GL141461  29.455  33.653   5.776
 2995POPC   GL241462  29.210  33.959   5.770
 2995POPC   C1A41463  29.420  33.845   6.252
 2995POPC   D2A41464  29.200  33.964   6.657
 2995POPC   C3A41465  29.340  33.800   7.079
 2995POPC   C4A41466  29.392  33.846   7.518
 2995POPC   C1B41467  28.926  33.945   6.151
 2995POPC   C2B41468  28.807  33.660   6.508
 2995POPC   C3B41469  28.873  33.615   6.973
 2995POPC   C4B41470  28.889  33.819   7.389
 2996POPC   NC341471  39.962  14.007   5.254
 2996POPC   PO441472  39.868  13.381   5.469
 2996POPC   GL141473  39.885  13.498   5.920
 2996POPC   GL241474  39.874  13.841   5.924
 2996POPC   C1A41475  39.909  13.620   6.371
 2996POPC   D2A41476  40.025  13.858   6.720
 2996POPC   C3A41477  39.866  13.605   7.031
 2996POPC   C4A41478  40.031  13.505   7.430
 2996POPC   C1B41479  39.553  13.985   6.231
 2996POPC   C2B41480  39.528  13.866   6.649
 2996POPC   C3B41481  39.599  14.047   7.037
 2996POPC   C4B41482  39.632  13.866   7.414
 2997POPC   NC341483   2.281  36.683   5.676
 2997POPC   PO441484   1.664  36.831   5.551
 2997POPC   GL141485   1.826  36.762   5.937
 2997POPC   GL241486   1.989  37.068   5.890
 2997POPC   C1A41487   2.058  36.808   6.331
 2997POPC   D2A41488   2.270  36.713   6.725
 2997POPC   C3A41489   1.974  36.834   7.056
 2997POPC   C4A41490   1.531  36.705   7.126
 2997POPC   C1B41491   2.177  37.293   6.214
 2997POPC   C2B41492   2.053  37.264   6.610
 2997POPC   C3B41493   2.113  37.321   7.007
 2997POPC   C4B41494   1.706  37.265   7.231
 2998POPC   NC341495  20.316  44.699   5.535
 2998POPC   PO441496  19.655  44.912   5.473
 2998POPC   GL141497  19.881  44.763   5.795
 2998POPC   GL241498  19.830  44.431   5.930
 2998POPC   C1A41499  20.019  44.861   6.178
 2998POPC   D2A41500  19.894  44.627   6.493
 2998POPC   C3A41501  19.938  44.841   6.858
 2998POPC   C4A41502  19.872  44.751   7.245
 2998POPC   C1B41503  20.226  44.363   6.157
 2998POPC   C2B41504  20.248  44.223   6.583
 2998POPC   C3B41505  19.905  44.308   6.897
 2998POPC   C4B41506  20.040  44.284   7.316
 2999POPC   NC341507   2.556  12.717   5.323
 2999POPC   PO441508   3.255  12.707   5.309
 2999POPC   GL141509   2.955  12.906   5.642
 2999POPC   GL241510   2.791  12.600   5.782
 2999POPC   C1A41511   2.779  13.047   6.081
 2999POPC   D2A41512   2.780  12.818   6.488
 2999POPC   C3A41513   2.748  12.917   6.926
 2999POPC   C4A41514   2.676  13.027   7.353
 2999POPC   C1B41515   3.071  12.534   6.143
 2999POPC   C2B41516   3.207  12.517   6.582
 2999POPC   C3B41517   2.969  12.456   6.956
 2999POPC   C4B41518   2.955  12.599   7.374
 3000POPC   NC341519  34.710  32.567   5.383
 3000POPC   PO441520  34.231  32.024   5.450
 3000POPC   GL141521  34.629  32.101   5.685
 3000POPC   GL241522  34.466  32.403   5.798
 3000POPC   C1A41523  34.736  31.966   6.138
 3000POPC   D2A41524  34.518  31.955   6.552
 3000POPC   C3A41525  34.527  32.246   6.928
 3000POPC   C4A41526  34.257  32.255   7.309
 3000POPC   C1B41527  34.675  32.463   6.173
 3000POPC   C2B41528  34.715  32.698   6.514
 3000POPC   C3B41529  34.903  32.588   6.903
 3000POPC   C4B41530  35.024  32.466   7.297
 3001POPC   NC341531  32.060  31.835   5.364
 3001POPC   PO441532  32.214  31.137   5.416
 3001POPC   GL141533  32.395  31.438   5.716
 3001POPC   GL241534  32.525  31.078   5.789
 3001POPC   C1A41535  32.401  31.739   6.072
 3001POPC   D2A41536  32.291  31.617   6.492
 3001POPC   C3A41537  32.487  31.725   6.878
 3001POPC   C4A41538  32.201  31.778   7.238
 3001POPC   C1B41539  32.294  31.204   6.157
 3001POPC   C2B41540  32.465  31.134   6.555
 3001POPC   C3B41541  32.286  31.255   6.936
 3001POPC   C4B41542  32.462  30.995   7.230
 3002POPC   NC341543  26.249  13.353   5.410
 3002POPC   PO441544  25.858  13.991   5.353
 3002POPC   GL141545  25.981  13.785   5.728
 3002POPC   GL241546  26.338  13.904   5.793
 3002POPC   C1A41547  25.936  13.933   6.161
 3002POPC   D2A41548  26.165  13.917   6.536
 3002POPC   C3A41549  25.899  13.743   6.869
 3002POPC   C4A41550  25.806  13.355   7.163
 3002POPC   C1B41551  26.322  13.597   6.121
 3002POPC   C2B41552  26.117  13.396   6.477
 3002POPC   C3B41553  26.278  13.384   6.897
 3002POPC   C4B41554  26.226  13.657   7.245
 3003POPC   NC341555  30.124  19.353   5.166
 3003POPC   PO441556  29.775  19.912   5.364
 3003POPC   GL141557  30.060  19.816   5.650
 3003POPC   GL241558  29.766  19.759   5.869
 3003POPC   C1A41559  30.190  20.021   6.025
 3003POPC   D2A41560  30.260  20.016   6.465
 3003POPC   C3A41561  30.046  20.171   6.826
 3003POPC   C4A41562  29.868  19.993   7.198
 3003POPC   C1B41563  29.839  19.746   6.309
 3003POPC   C2B41564  29.843  19.688   6.752
 3003POPC   C3B41565  29.643  19.426   7.058
 3003POPC   C4B41566  29.687  19.409   7.508
 3004POPC   NC341567  35.897  19.741   5.526
 3004POPC   PO441568  36.122  20.302   5.558
 3004POPC   GL141569  36.329  19.948   5.761
 3004POPC   GL241570  36.067  19.785   6.003
 3004POPC   C1A41571  36.542  19.874   6.163
 3004POPC   D2A41572  36.329  20.034   6.539
 3004POPC   C3A41573  36.502  19.962   6.948
 3004POPC   C4A41574  36.389  19.593   7.189
 3004POPC   C1B41575  35.712  19.492   6.127
 3004POPC   C2B41576  35.634  19.263   6.513
 3004POPC   C3B41577  35.843  19.265   6.906
 3004POPC   C4B41578  35.893  19.550   7.265
 3005POPC   NC341579   4.390  27.938   5.030
 3005POPC   PO441580   4.277  28.471   5.509
 3005POPC   GL141581   4.447  28.389   5.857
 3005POPC   GL241582   4.517  28.037   5.949
 3005POPC   C1A41583   4.348  28.462   6.249
 3005POPC   D2A41584   4.595  28.544   6.555
 3005POPC   C3A41585   4.496  28.755   6.895
 3005POPC   C4A41586   4.460  28.593   7.272
 3005POPC   C1B41587   4.112  28.009   6.172
 3005POPC   C2B41588   4.117  28.099   6.602
 3005POPC   C3B41589   4.400  28.145   6.934
 3005POPC   C4B41590   4.200  28.060   7.319
 3006POPC   NC341591   6.952  31.555   5.454
 3006POPC   PO441592   6.306  31.588   5.286
 3006POPC   GL141593   6.425  31.614   5.747
 3006POPC   GL241594   6.639  31.342   5.850
 3006POPC   C1A41595   6.333  31.673   6.203
 3006POPC   D2A41596   6.567  31.429   6.524
 3006POPC   C3A41597   6.655  31.458   6.970
 3006POPC   C4A41598   6.424  31.623   7.389
 3006POPC   C1B41599   6.844  31.647   6.148
 3006POPC   C2B41600   7.087  31.846   6.507
 3006POPC   C3B41601   6.985  31.959   6.921
 3006POPC   C4B41602   6.889  31.778   7.290
 3007POPC   NC341603  23.462   5.706   5.545
 3007POPC   PO441604  23.906   6.293   5.364
 3007POPC   GL141605  23.973   6.199   5.831
 3007POPC   GL241606  23.773   5.906   5.886
 3007POPC   C1A41607  23.856   6.202   6.278
 3007POPC   D2A41608  23.672   6.021   6.632
 3007POPC   C3A41609  23.941   6.072   6.987
 3007POPC   C4A41610  23.886   5.969   7.443
 3007POPC   C1B41611  23.793   5.671   6.257
 3007POPC   C2B41612  23.624   5.483   6.648
 3007POPC   C3B41613  23.641   5.669   7.037
 3007POPC   C4B41614  23.451   6.091   7.097
 3008POPC   NC341615   0.280   6.408   5.490
 3008POPC   PO441616   0.686   6.945   5.329
 3008POPC   GL141617   0.610   6.712   5.743
 3008POPC   GL241618   0.254   6.722   5.903
 3008POPC   C1A41619   0.665   6.528   6.170
 3008POPC   D2A41620   0.436   6.681   6.517
 3008POPC   C3A41621   0.630   6.763   6.901
 3008POPC   C4A41622   0.532   6.624   7.288
 3008POPC   C1B41623   0.029   6.947   6.235
 3008POPC   C2B41624   0.127   7.072   6.656
 3008POPC   C3B41625   0.181   6.955   7.069
 3008POPC   C4B41626   0.034   6.662   7.392
 3009POPC   NC341627  17.165  39.914   5.546
 3009POPC   PO441628  17.727  40.253   5.487
 3009POPC   GL141629  17.522  40.132   5.846
 3009POPC   GL241630  17.198  40.268   5.898
 3009POPC   C1A41631  17.668  39.940   6.201
 3009POPC   D2A41632  17.616  40.102   6.571
 3009POPC   C3A41633  17.627  39.824   6.900
 3009POPC   C4A41634  17.476  39.960   7.307
 3009POPC   C1B41635  17.156  40.036   6.273
 3009POPC   C2B41636  17.150  39.901   6.708
 3009POPC   C3B41637  17.059  40.135   7.088
 3009POPC   C4B41638  16.980  39.909   7.487
 3010POPC   NC341639  30.489  44.888   5.221
 3010POPC   PO441640  30.816  44.290   5.424
 3010POPC   GL141641  30.825  44.578   5.720
 3010POPC   GL241642  30.465  44.646   5.688
 3010POPC   C1A41643  30.990  44.633   6.132
 3010POPC   D2A41644  30.929  44.882   6.460
 3010POPC   C3A41645  30.942  44.708   6.895
 3010POPC   C4A41646  31.114  44.448   7.236
 3010POPC   C1B41647  30.501  44.496   6.129
 3010POPC   C2B41648  30.562  44.533   6.583
 3010POPC   C3B41649  30.444  44.638   7.036
 3010POPC   C4B41650  30.238  44.653   7.444
 3011POPC   NC341651  13.145   2.693   5.368
 3011POPC   PO441652  12.485   2.578   5.260
 3011POPC   GL141653  12.615   2.764   5.667
 3011POPC   GL241654  12.824   2.544   5.794
 3011POPC   C1A41655  12.648   2.787   6.190
 3011POPC   D2A41656  12.565   2.702   6.689
 3011POPC   C3A41657  12.626   2.909   7.107
 3011POPC   C4A41658  12.460   2.967   7.528
 3011POPC   C1B41659  12.922   2.328   6.180
 3011POPC   C2B41660  12.977   2.409   6.605
 3011POPC   C3B41661  12.992   2.549   7.007
 3011POPC   C4B41662  13.222   2.650   7.345
 3012POPC   NC341663  25.984  26.643   5.419
 3012POPC   PO441664  26.463  27.028   5.513
 3012POPC   GL141665  26.256  26.774   5.839
 3012POPC   GL241666  26.079  27.073   5.932
 3012POPC   C1A41667  25.943  26.693   6.211
 3012POPC   D2A41668  25.788  26.726   6.611
 3012POPC   C3A41669  25.849  26.422   6.934
 3012POPC   C4A41670  25.996  26.710   7.207
 3012POPC   C1B41671  26.049  27.155   6.412
 3012POPC   C2B41672  26.020  27.103   6.876
 3012POPC   C3B41673  26.236  27.172   7.275
 3012POPC   C4B41674  26.145  27.340   7.705
 3013POPC   NC341675   8.834  19.766   5.489
 3013POPC   PO441676   9.484  19.684   5.331
 3013POPC   GL141677   9.283  19.717   5.747
 3013POPC   GL241678   9.148  20.091   5.814
 3013POPC   C1A41679   9.333  19.794   6.187
 3013POPC   D2A41680   9.266  20.145   6.465
 3013POPC   C3A41681   9.142  19.983   6.845
 3013POPC   C4A41682   9.244  19.660   7.124
 3013POPC   C1B41683   8.837  19.942   6.151
 3013POPC   C2B41684   8.772  19.641   6.495
 3013POPC   C3B41685   8.743  19.627   6.943
 3013POPC   C4B41686   8.774  19.999   7.209
 3014POPC   NC341687   1.398  29.659   5.379
 3014POPC   PO441688   0.955  30.127   5.460
 3014POPC   GL141689   1.140  29.877   5.775
 3014POPC   GL241690   0.863  29.663   5.901
 3014POPC   C1A41691   1.232  29.812   6.213
 3014POPC   D2A41692   0.906  29.765   6.509
 3014POPC   C3A41693   1.129  29.872   6.828
 3014POPC   C4A41694   1.267  29.774   7.230
 3014POPC   C1B41695   0.808  30.078   6.104
 3014POPC   C2B41696   0.980  30.300   6.460
 3014POPC   C3B41697   0.855  30.298   6.901
 3014POPC   C4B41698   1.068  30.476   7.235
 3015POPC   NC341699  35.904   4.167   5.552
 3015POPC   PO441700  35.299   4.437   5.264
 3015POPC   GL141701  35.368   4.173   5.649
 3015POPC   GL241702  35.220   4.441   5.828
 3015POPC   C1A41703  35.508   4.112   6.117
 3015POPC   D2A41704  35.343   4.138   6.572
 3015POPC   C3A41705  35.584   4.169   6.965
 3015POPC   C4A41706  35.399   4.296   7.349
 3015POPC   C1B41707  35.416   4.593   6.231
 3015POPC   C2B41708  35.593   4.585   6.631
 3015POPC   C3B41709  35.288   4.568   6.923
 3015POPC   C4B41710  34.930   4.536   7.176
 3016POPC   NC341711  13.390  38.862   5.510
 3016POPC   PO441712  13.791  39.396   5.602
 3016POPC   GL141713  13.693  39.057   5.858
 3016POPC   GL241714  13.937  38.765   5.808
 3016POPC   C1A41715  13.514  39.140   6.254
 3016POPC   D2A41716  13.711  39.422   6.572
 3016POPC   C3A41717  13.534  39.346   6.979
 3016POPC   C4A41718  13.365  38.934   7.085
 3016POPC   C1B41719  13.992  38.958   6.239
 3016POPC   C2B41720  14.075  39.056   6.641
 3016POPC   C3B41721  13.883  38.947   7.020
 3016POPC   C4B41722  13.740  38.884   7.444
 3017POPC   NC341723  14.525  36.566   5.512
 3017POPC   PO441724  14.087  37.138   5.449
 3017POPC   GL141725  14.266  36.956   5.820
 3017POPC   GL241726  14.001  36.877   5.994
 3017POPC   C1A41727  14.491  37.102   6.226
 3017POPC   D2A41728  14.447  37.011   6.656
 3017POPC   C3A41729  14.717  36.868   6.967
 3017POPC   C4A41730  14.533  37.056   7.347
 3017POPC   C1B41731  14.300  36.593   6.217
 3017POPC   C2B41732  14.368  36.515   6.664
 3017POPC   C3B41733  14.189  36.749   7.036
 3017POPC   C4B41734  14.166  36.735   7.493
 3018POPC   NC341735  24.499  14.833   5.392
 3018POPC   PO441736  24.046  15.344   5.517
 3018POPC   GL141737  24.407  15.277   5.785
 3018POPC   GL241738  24.404  14.963   5.867
 3018POPC   C1A41739  24.620  15.357   6.174
 3018POPC   D2A41740  24.476  15.234   6.586
 3018POPC   C3A41741  24.627  15.415   6.965
 3018POPC   C4A41742  24.374  15.299   7.267
 3018POPC   C1B41743  24.596  14.844   6.234
 3018POPC   C2B41744  24.868  14.854   6.579
 3018POPC   C3B41745  24.668  14.895   6.966
 3018POPC   C4B41746  24.241  14.810   7.069
 3019POPC   NC341747  16.955  10.470   5.613
 3019POPC   PO441748  16.274  10.472   5.411
 3019POPC   GL141749  16.389  10.655   5.840
 3019POPC   GL241750  16.678  10.833   5.906
 3019POPC   C1A41751  16.454  10.661   6.326
 3019POPC   D2A41752  16.750  10.499   6.631
 3019POPC   C3A41753  16.656  10.557   7.072
 3019POPC   C4A41754  16.550  10.306   7.464
 3019POPC   C1B41755  16.811  11.067   6.309
 3019POPC   C2B41756  17.025  10.908   6.720
 3019POPC   C3B41757  16.979  10.929   7.204
 3019POPC   C4B41758  16.616  10.817   7.507
 3020POPC   NC341759  30.251   5.865   5.191
 3020POPC   PO441760  29.654   5.673   5.352
 3020POPC   GL141761  29.992   5.797   5.654
 3020POPC   GL241762  29.843   6.101   5.788
 3020POPC   C1A41763  30.044   5.723   6.122
 3020POPC   D2A41764  29.842   5.899   6.533
 3020POPC   C3A41765  29.946   5.781   6.972
 3020POPC   C4A41766  29.745   5.867   7.367
 3020POPC   C1B41767  30.064   6.218   6.186
 3020POPC   C2B41768  30.111   6.335   6.607
 3020POPC   C3B41769  30.220   6.231   7.007
 3020POPC   C4B41770  30.236   6.001   7.357
 3021POPC   NC341771   7.528   1.656   5.405
 3021POPC   PO441772   8.006   2.074   5.399
 3021POPC   GL141773   8.357   1.890   5.711
 3021POPC   GL241774   8.133   1.937   6.001
 3021POPC   C1A41775   8.577   1.738   6.113
 3021POPC   D2A41776   8.378   1.884   6.485
 3021POPC   C3A41777   8.513   1.832   6.890
 3021POPC   C4A41778   8.293   1.880   7.236
 3021POPC   C1B41779   7.902   1.777   6.356
 3021POPC   C2B41780   7.977   1.772   6.807
 3021POPC   C3B41781   7.824   1.678   7.210
 3021POPC   C4B41782   7.889   1.901   7.582
 3022POPC   NC341783  22.218  23.328   5.442
 3022POPC   PO441784  21.941  23.958   5.401
 3022POPC   GL141785  22.018  23.828   5.804
 3022POPC   GL241786  22.314  23.621   5.851
 3022POPC   C1A41787  22.195  23.986   6.187
 3022POPC   D2A41788  22.160  23.739   6.569
 3022POPC   C3A41789  22.092  23.892   6.962
 3022POPC   C4A41790  22.013  23.761   7.377
 3022POPC   C1B41791  22.541  23.594   6.252
 3022POPC   C2B41792  22.570  23.465   6.718
 3022POPC   C3B41793  22.458  23.561   7.166
 3022POPC   C4B41794  22.340  23.453   7.618
 3023POPC   NC341795  39.506  13.621   5.609
 3023POPC   PO441796  38.900  13.552   5.285
 3023POPC   GL141797  39.085  13.521   5.811
 3023POPC   GL241798  39.327  13.207   5.896
 3023POPC   C1A41799  39.228  13.581   6.259
 3023POPC   D2A41800  39.057  13.706   6.664
 3023POPC   C3A41801  39.303  13.618   7.059
 3023POPC   C4A41802  38.974  13.367   7.115
 3023POPC   C1B41803  39.592  13.232   6.264
 3023POPC   C2B41804  39.533  13.361   6.671
 3023POPC   C3B41805  39.630  13.159   7.051
 3023POPC   C4B41806  39.321  13.066   7.294
 3024POPC   NC341807   9.398  10.094   5.235
 3024POPC   PO441808   9.560   9.432   5.371
 3024POPC   GL141809   9.625   9.638   5.770
 3024POPC   GL241810   9.992   9.608   5.779
 3024POPC   C1A41811   9.783   9.864   6.175
 3024POPC   D2A41812   9.938  10.196   6.462
 3024POPC   C3A41813   9.729  10.115   6.870
 3024POPC   C4A41814   9.448   9.848   7.136
 3024POPC   C1B41815  10.176   9.474   6.203
 3024POPC   C2B41816  10.240   9.490   6.668
 3024POPC   C3B41817   9.926   9.625   6.970
 3024POPC   C4B41818   9.982   9.552   7.392
 3025POPC   NC341819   6.864  41.715   5.664
 3025POPC   PO441820   7.387  41.503   5.324
 3025POPC   GL141821   7.401  41.669   5.729
 3025POPC   GL241822   7.266  41.991   5.780
 3025POPC   C1A41823   7.540  41.495   6.105
 3025POPC   D2A41824   7.780  41.616   6.464
 3025POPC   C3A41825   7.498  41.627   6.793
 3025POPC   C4A41826   7.559  41.590   7.216
 3025POPC   C1B41827   7.171  41.836   6.221
 3025POPC   C2B41828   7.067  41.958   6.632
 3025POPC   C3B41829   7.071  41.778   7.064
 3025POPC   C4B41830   7.230  41.945   7.424
 3026POPC   NC341831  38.383  23.526   5.454
 3026POPC   PO441832  38.281  24.021   5.671
 3026POPC   GL141833  38.294  24.011   6.120
 3026POPC   GL241834  38.682  24.086   6.096
 3026POPC   C1A41835  38.154  23.704   6.491
 3026POPC   D2A41836  38.352  23.290   6.577
 3026POPC   C3A41837  38.542  23.282   6.954
 3026POPC   C4A41838  38.320  23.635   7.115
 3026POPC   C1B41839  39.001  23.866   6.419
 3026POPC   C2B41840  38.849  23.735   6.863
 3026POPC   C3B41841  38.668  24.001   7.225
 3026POPC   C4B41842  38.712  23.960   7.689
 3027POPC   NC341843  24.372  11.192   5.182
 3027POPC   PO441844  24.921  11.360   5.504
 3027POPC   GL141845  24.571  11.273   5.726
 3027POPC   GL241846  24.344  11.556   5.620
 3027POPC   C1A41847  24.704  11.190   6.160
 3027POPC   D2A41848  24.794  11.058   6.598
 3027POPC   C3A41849  24.452  11.155   6.870
 3027POPC   C4A41850  24.136  11.051   7.180
 3027POPC   C1B41851  24.377  11.617   6.066
 3027POPC   C2B41852  24.577  11.570   6.464
 3027POPC   C3B41853  24.677  11.634   6.893
 3027POPC   C4B41854  24.497  11.480   7.274
 3028POPC   NC341855  18.919  36.589   5.533
 3028POPC   PO441856  19.044  37.194   5.449
 3028POPC   GL141857  19.033  37.046   5.834
 3028POPC   GL241858  18.704  37.080   5.868
 3028POPC   C1A41859  18.994  36.835   6.234
 3028POPC   D2A41860  19.156  36.830   6.652
 3028POPC   C3A41861  18.874  36.637   6.938
 3028POPC   C4A41862  18.855  36.709   7.336
 3028POPC   C1B41863  18.545  37.163   6.244
 3028POPC   C2B41864  18.662  36.983   6.622
 3028POPC   C3B41865  18.715  37.120   7.013
 3028POPC   C4B41866  18.824  37.242   7.415
 3029POPC   NC341867  31.017  12.651   5.466
 3029POPC   PO441868  31.700  12.734   5.317
 3029POPC   GL141869  31.537  12.629   5.735
 3029POPC   GL241870  31.265  12.825   5.854
 3029POPC   C1A41871  31.499  12.569   6.205
 3029POPC   D2A41872  31.779  12.733   6.523
 3029POPC   C3A41873  31.778  12.518   6.931
 3029POPC   C4A41874  31.647  12.652   7.351
 3029POPC   C1B41875  31.142  13.003   6.245
 3029POPC   C2B41876  31.277  12.818   6.636
 3029POPC   C3B41877  31.602  12.986   6.949
 3029POPC   C4B41878  31.666  13.241   7.311
 3030POPC   NC341879   2.584  35.029   5.480
 3030POPC   PO441880   2.720  34.410   5.538
 3030POPC   GL141881   2.636  34.661   5.881
 3030POPC   GL241882   2.870  34.912   5.891
 3030POPC   C1A41883   2.709  34.654   6.314
 3030POPC   D2A41884   2.968  34.648   6.652
 3030POPC   C3A41885   2.718  34.586   7.017
 3030POPC   C4A41886   2.618  34.844   7.351
 3030POPC   C1B41887   3.151  34.947   6.237
 3030POPC   C2B41888   3.392  34.957   6.634
 3030POPC   C3B41889   3.186  34.917   7.043
 3030POPC   C4B41890   3.140  34.703   7.416
 3031POPC   NC341891   1.542  20.345   5.466
 3031POPC   PO441892   1.161  20.782   5.484
 3031POPC   GL141893   1.456  20.749   5.824
 3031POPC   GL241894   1.323  20.444   5.916
 3031POPC   C1A41895   1.462  21.028   6.207
 3031POPC   D2A41896   1.633  21.042   6.635
 3031POPC   C3A41897   1.365  20.962   6.986
 3031POPC   C4A41898   1.305  20.602   7.232
 3031POPC   C1B41899   1.050  20.713   6.161
 3031POPC   C2B41900   1.108  20.771   6.585
 3031POPC   C3B41901   0.896  20.653   6.947
 3031POPC   C4B41902   0.909  20.319   7.301
 3032POPC   NC341903  11.543   1.312   5.653
 3032POPC   PO441904  11.059   1.109   5.262
 3032POPC   GL141905  11.081   1.157   5.706
 3032POPC   GL241906  11.375   0.889   5.846
 3032POPC   C1A41907  11.062   1.320   6.114
 3032POPC   D2A41908  11.173   1.148   6.525
 3032POPC   C3A41909  11.313   1.398   6.881
 3032POPC   C4A41910  11.536   1.383   7.288
 3032POPC   C1B41911  11.427   0.759   6.275
 3032POPC   C2B41912  11.540   0.834   6.718
 3032POPC   C3B41913  11.387   0.915   7.137
 3032POPC   C4B41914  11.360   1.001   7.603
 3033POPC   NC341915  22.521  30.069   5.464
 3033POPC   PO441916  23.170  30.146   5.536
 3033POPC   GL141917  22.878  30.008   5.853
 3033POPC   GL241918  22.738  30.331   5.903
 3033POPC   C1A41919  22.761  29.942   6.308
 3033POPC   D2A41920  22.955  29.967   6.741
 3033POPC   C3A41921  22.758  29.828   7.134
 3033POPC   C4A41922  22.518  29.729   7.518
 3033POPC   C1B41923  23.019  30.386   6.302
 3033POPC   C2B41924  23.129  30.462   6.774
 3033POPC   C3B41925  23.149  30.237   7.176
 3033POPC   C4B41926  22.846  30.195   7.506
 3034POPC   NC341927   1.137  23.567   5.733
 3034POPC   PO441928   1.629  24.052   5.476
 3034POPC   GL141929   1.385  23.995   5.846
 3034POPC   GL241930   1.578  23.712   5.948
 3034POPC   C1A41931   1.165  23.873   6.275
 3034POPC   D2A41932   0.914  23.981   6.634
 3034POPC   C3A41933   1.096  23.759   6.961
 3034POPC   C4A41934   1.118  23.412   7.248
 3034POPC   C1B41935   1.657  24.037   6.263
 3034POPC   C2B41936   1.439  24.061   6.661
 3034POPC   C3B41937   1.546  23.925   7.079
 3034POPC   C4B41938   1.594  23.478   7.112
 3035POPC   NC341939   3.915   8.694   5.602
 3035POPC   PO441940   3.290   8.656   5.491
 3035POPC   GL141941   3.349   8.391   5.851
 3035POPC   GL241942   3.037   8.241   5.838
 3035POPC   C1A41943   3.615   8.307   6.231
 3035POPC   D2A41944   3.853   8.288   6.641
 3035POPC   C3A41945   3.756   8.166   7.091
 3035POPC   C4A41946   3.747   8.398   7.488
 3035POPC   C1B41947   3.078   8.336   6.290
 3035POPC   C2B41948   3.329   8.255   6.686
 3035POPC   C3B41949   3.239   8.119   7.116
 3035POPC   C4B41950   3.236   8.362   7.490
 3036POPC   NC341951  43.636  33.375   4.893
 3036POPC   PO441952  44.055  33.041   5.291
 3036POPC   GL141953  44.145  32.874   5.703
 3036POPC   GL241954  44.216  33.185   5.870
 3036POPC   C1A41955  44.040  32.804   6.149
 3036POPC   D2A41956  44.216  32.803   6.567
 3036POPC   C3A41957  44.022  32.916   6.958
 3036POPC   C4A41958  43.621  33.047   7.119
 3036POPC   C1B41959  44.368  33.207   6.283
 3036POPC   C2B41960  44.269  33.291   6.707
 3036POPC   C3B41961  44.016  33.411   7.071
 3036POPC   C4B41962  44.154  33.276   7.463
 3037POPC   NC341963  33.991   4.551   5.378
 3037POPC   PO441964  34.036   5.170   5.353
 3037POPC   GL141965  33.896   4.935   5.754
 3037POPC   GL241966  33.592   4.766   5.678
 3037POPC   C1A41967  33.869   5.029   6.238
 3037POPC   D2A41968  33.904   5.263   6.651
 3037POPC   C3A41969  33.755   5.020   7.011
 3037POPC   C4A41970  33.663   4.741   7.356
 3037POPC   C1B41971  33.568   4.622   6.148
 3037POPC   C2B41972  33.583   4.681   6.624
 3037POPC   C3B41973  33.296   4.783   6.979
 3037POPC   C4B41974  33.294   5.089   7.350
 3038POPC   NC341975  13.537  30.342   5.455
 3038POPC   PO441976  13.462  29.706   5.483
 3038POPC   GL141977  13.528  29.973   5.855
 3038POPC   GL241978  13.241  30.158   5.849
 3038POPC   C1A41979  13.479  30.101   6.330
 3038POPC   D2A41980  13.432  30.079   6.809
 3038POPC   C3A41981  13.667  29.802   7.107
 3038POPC   C4A41982  13.733  29.350   7.214
 3038POPC   C1B41983  13.146  29.771   6.135
 3038POPC   C2B41984  13.042  29.772   6.598
 3038POPC   C3B41985  13.152  29.712   7.045
 3038POPC   C4B41986  13.335  29.599   7.460
 3039POPC   NC341987   8.467  21.838   5.485
 3039POPC   PO441988   8.997  22.288   5.471
 3039POPC   GL141989   9.003  21.993   5.835
 3039POPC   GL241990   8.665  21.964   6.002
 3039POPC   C1A41991   9.102  21.992   6.283
 3039POPC   D2A41992   8.860  21.900   6.647
 3039POPC   C3A41993   9.041  22.017   7.020
 3039POPC   C4A41994   8.860  22.062   7.429
 3039POPC   C1B41995   8.723  22.313   6.341
 3039POPC   C2B41996   8.876  22.442   6.759
 3039POPC   C3B41997   8.707  22.484   7.175
 3039POPC   C4B41998   8.551  22.441   7.621
 3040POPC   NC341999   5.735  37.648   5.404
 3040POPC   PO442000   6.411  37.551   5.600
 3040POPC   GL142001   6.038  37.546   5.803
 3040POPC   GL242002   5.937  37.916   5.782
 3040POPC   C1A42003   5.888  37.605   6.221
 3040POPC   D2A42004   6.109  37.712   6.601
 3040POPC   C3A42005   5.910  37.507   6.927
 3040POPC   C4A42006   5.907  37.654   7.310
 3040POPC   C1B42007   5.529  37.953   6.027
 3040POPC   C2B42008   5.432  38.016   6.455
 3040POPC   C3B42009   5.634  37.946   6.832
 3040POPC   C4B42010   5.606  38.040   7.266
 3041POPC   NC342011  41.561   3.353   5.343
 3041POPC   PO442012  41.691   4.014   5.334
 3041POPC   GL142013  41.590   3.756   5.744
 3041POPC   GL242014  41.387   3.434   5.832
 3041POPC   C1A42015  41.482   3.786   6.196
 3041POPC   D2A42016  41.677   3.817   6.596
 3041POPC   C3A42017  41.408   3.667   6.943
 3041POPC   C4A42018  41.627   3.757   7.320
 3041POPC   C1B42019  41.198   3.326   6.233
 3041POPC   C2B42020  41.045   3.436   6.638
 3041POPC   C3B42021  41.058   3.211   7.034
 3041POPC   C4B42022  41.297   3.364   7.382
 3042POPC   NC342023  29.917  37.525   5.440
 3042POPC   PO442024  29.318  37.462   5.427
 3042POPC   GL142025  29.600  37.668   5.809
 3042POPC   GL242026  29.974  37.720   5.910
 3042POPC   C1A42027  29.594  37.726   6.270
 3042POPC   D2A42028  29.909  37.844   6.593
 3042POPC   C3A42029  29.777  37.735   7.003
 3042POPC   C4A42030  29.616  37.525   7.366
 3042POPC   C1B42031  30.030  37.431   6.289
 3042POPC   C2B42032  30.039  37.367   6.749
 3042POPC   C3B42033  30.065  37.356   7.191
 3042POPC   C4B42034  30.061  37.705   7.504
 3043POPC   NC342035  34.840  24.566   5.159
 3043POPC   PO442036  34.426  24.145   5.374
 3043POPC   GL142037  34.611  24.357   5.676
 3043POPC   GL242038  34.301  24.300   5.870
 3043POPC   C1A42039  34.753  24.426   6.099
 3043POPC   D2A42040  34.884  24.349   6.550
 3043POPC   C3A42041  34.945  24.529   6.993
 3043POPC   C4A42042  34.746  24.638   7.419
 3043POPC   C1B42043  34.245  24.519   6.260
 3043POPC   C2B42044  34.003  24.620   6.618
 3043POPC   C3B42045  34.133  24.498   7.028
 3043POPC   C4B42046  34.254  24.744   7.383
 3044POPC   NC342047  18.918  25.229   5.368
 3044POPC   PO442048  19.447  24.857   5.280
 3044POPC   GL142049  19.370  25.136   5.640
 3044POPC   GL242050  19.120  24.931   5.786
 3044POPC   C1A42051  19.443  25.229   6.125
 3044POPC   D2A42052  19.611  25.133   6.567
 3044POPC   C3A42053  19.354  25.280   6.937
 3044POPC   C4A42054  19.164  24.989   7.218
 3044POPC   C1B42055  19.004  24.925   6.245
 3044POPC   C2B42056  18.972  25.050   6.695
 3044POPC   C3B42057  18.769  25.267   7.057
 3044POPC   C4B42058  18.497  25.097   7.414
 3045POPC   NC342059  15.280  19.519   5.389
 3045POPC   PO442060  14.921  19.977   5.075
 3045POPC   GL142061  14.884  19.965   5.583
 3045POPC   GL242062  14.944  19.648   5.770
 3045POPC   C1A42063  14.970  20.195   6.017
 3045POPC   D2A42064  15.259  20.241   6.400
 3045POPC   C3A42065  15.152  20.246   6.871
 3045POPC   C4A42066  15.109  20.122   7.334
 3045POPC   C1B42067  15.214  19.760   6.147
 3045POPC   C2B42068  15.375  19.774   6.585
 3045POPC   C3B42069  15.198  19.738   6.993
 3045POPC   C4B42070  14.787  19.690   7.173
 3046POPC   NC342071  12.361  40.196   5.561
 3046POPC   PO442072  12.193  39.545   5.251
 3046POPC   GL142073  12.068  39.701   5.646
 3046POPC   GL242074  11.933  40.017   5.805
 3046POPC   C1A42075  12.146  39.655   6.083
 3046POPC   D2A42076  12.324  39.828   6.481
 3046POPC   C3A42077  12.070  39.805   6.855
 3046POPC   C4A42078  12.254  39.761   7.235
 3046POPC   C1B42079  12.144  40.210   6.179
 3046POPC   C2B42080  12.031  40.263   6.611
 3046POPC   C3B42081  12.222  40.250   7.024
 3046POPC   C4B42082  12.106  40.161   7.494
 3047POPC   NC342083  23.866  14.068   5.501
 3047POPC   PO442084  23.427  14.560   5.468
 3047POPC   GL142085  23.690  14.473   5.793
 3047POPC   GL242086  23.476  14.199   5.869
 3047POPC   C1A42087  23.936  14.508   6.170
 3047POPC   D2A42088  23.938  14.317   6.594
 3047POPC   C3A42089  23.802  14.549   6.952
 3047POPC   C4A42090  23.961  14.508   7.385
 3047POPC   C1B42091  23.542  14.174   6.290
 3047POPC   C2B42092  23.502  14.058   6.717
 3047POPC   C3B42093  23.347  14.321   7.059
 3047POPC   C4B42094  23.463  14.465   7.454
 3048POPC   NC342095  23.279  17.288   5.395
 3048POPC   PO442096  23.312  17.889   5.493
 3048POPC   GL142097  23.236  17.579   5.836
 3048POPC   GL242098  23.264  17.209   5.896
 3048POPC   C1A42099  23.220  17.561   6.283
 3048POPC   D2A42100  23.273  17.341   6.648
 3048POPC   C3A42101  23.143  17.588   7.030
 3048POPC   C4A42102  22.946  17.875   7.355
 3048POPC   C1B42103  22.834  17.318   6.072
 3048POPC   C2B42104  22.768  17.358   6.555
 3048POPC   C3B42105  22.907  17.144   6.972
 3048POPC   C4B42106  22.796  17.357   7.375
 3049POPC   NC342107   3.184  23.100   5.430
 3049POPC   PO442108   3.826  22.850   5.243
 3049POPC   GL142109   3.801  22.834   5.667
 3049POPC   GL242110   3.632  23.142   5.690
 3049POPC   C1A42111   3.808  22.785   6.107
 3049POPC   D2A42112   3.768  22.847   6.542
 3049POPC   C3A42113   3.348  22.872   6.723
 3049POPC   C4A42114   3.431  22.991   7.114
 3049POPC   C1B42115   3.519  23.205   6.135
 3049POPC   C2B42116   3.530  23.323   6.548
 3049POPC   C3B42117   3.476  23.497   6.940
 3049POPC   C4B42118   3.266  23.405   7.325
 3050POPC   NC342119   7.730  32.403   5.248
 3050POPC   PO442120   7.679  31.751   5.367
 3050POPC   GL142121   7.332  31.983   5.615
 3050POPC   GL242122   7.342  32.360   5.723
 3050POPC   C1A42123   7.207  31.987   6.032
 3050POPC   D2A42124   7.362  32.278   6.312
 3050POPC   C3A42125   7.414  32.203   6.738
 3050POPC   C4A42126   7.400  32.285   7.163
 3050POPC   C1B42127   7.732  32.411   5.993
 3050POPC   C2B42128   7.811  32.461   6.469
 3050POPC   C3B42129   7.674  32.717   6.830
 3050POPC   C4B42130   7.758  32.621   7.265
 3051POPC   NC342131  14.736   1.163   5.384
 3051POPC   PO442132  14.151   0.848   5.478
 3051POPC   GL142133  14.216   1.209   5.774
 3051POPC   GL242134  14.430   1.523   5.748
 3051POPC   C1A42135  14.177   1.239   6.234
 3051POPC   D2A42136  14.472   1.086   6.570
 3051POPC   C3A42137  14.285   1.204   6.926
 3051POPC   C4A42138  14.337   1.127   7.344
 3051POPC   C1B42139  14.303   1.715   6.167
 3051POPC   C2B42140  14.406   1.612   6.616
 3051POPC   C3B42141  14.622   1.584   7.058
 3051POPC   C4B42142  14.457   1.589   7.480
 3052POPC   NC342143  12.231  42.709   5.180
 3052POPC   PO442144  12.453  42.107   5.352
 3052POPC   GL142145  12.290  42.164   5.752
 3052POPC   GL242146  12.299  42.514   5.670
 3052POPC   C1A42147  11.991  42.214   6.109
 3052POPC   D2A42148  12.027  42.113   6.563
 3052POPC   C3A42149  11.866  42.155   6.988
 3052POPC   C4A42150  11.773  42.539   7.219
 3052POPC   C1B42151  12.289  42.622   6.081
 3052POPC   C2B42152  12.206  42.609   6.506
 3052POPC   C3B42153  12.212  42.593   6.977
 3052POPC   C4B42154  12.220  42.673   7.459
 3053POPC   NC342155  12.175  11.398   5.114
 3053POPC   PO442156  11.643  10.947   5.404
 3053POPC   GL142157  11.865  11.283   5.703
 3053POPC   GL242158  12.246  11.228   5.632
 3053POPC   C1A42159  11.978  11.573   6.117
 3053POPC   D2A42160  12.328  11.572   6.498
 3053POPC   C3A42161  12.241  11.366   6.932
 3053POPC   C4A42162  11.838  11.442   7.189
 3053POPC   C1B42163  12.240  11.149   6.093
 3053POPC   C2B42164  11.989  11.188   6.499
 3053POPC   C3B42165  11.956  10.936   6.871
 3053POPC   C4B42166  11.844  10.929   7.298
 3054POPC   NC342167  30.034  11.930   5.621
 3054POPC   PO442168  29.704  12.486   5.308
 3054POPC   GL142169  29.692  12.294   5.706
 3054POPC   GL242170  30.015  12.376   5.836
 3054POPC   C1A42171  29.607  12.074   6.114
 3054POPC   D2A42172  29.803  11.890   6.495
 3054POPC   C3A42173  29.665  12.099   6.862
 3054POPC   C4A42174  29.734  11.996   7.285
 3054POPC   C1B42175  30.068  12.257   6.240
 3054POPC   C2B42176  30.192  12.187   6.665
 3054POPC   C3B42177  30.123  11.869   6.972
 3054POPC   C4B42178  30.206  11.905   7.455
 3055POPC   NC342179  20.880  30.812   5.466
 3055POPC   PO442180  20.354  30.395   5.582
 3055POPC   GL142181  20.611  30.654   5.897
 3055POPC   GL242182  20.644  31.043   5.859
 3055POPC   C1A42183  20.529  30.583   6.337
 3055POPC   D2A42184  20.497  30.804   6.716
 3055POPC   C3A42185  20.643  30.544   7.047
 3055POPC   C4A42186  20.606  30.692   7.447
 3055POPC   C1B42187  20.673  31.067   6.300
 3055POPC   C2B42188  20.843  31.196   6.699
 3055POPC   C3B42189  20.810  31.015   7.089
 3055POPC   C4B42190  21.085  30.749   7.277
 3056POPC   NC342191  10.458  15.468   5.493
 3056POPC   PO442192  10.760  14.887   5.442
 3056POPC   GL142193  10.591  15.056   5.790
 3056POPC   GL242194  10.785  15.367   5.858
 3056POPC   C1A42195  10.350  14.994   6.164
 3056POPC   D2A42196  10.491  14.976   6.592
 3056POPC   C3A42197  10.212  15.025   6.961
 3056POPC   C4A42198  10.213  14.920   7.407
 3056POPC   C1B42199  10.884  15.566   6.226
 3056POPC   C2B42200  10.708  15.448   6.631
 3056POPC   C3B42201  10.731  15.197   7.005
 3056POPC   C4B42202  10.950  15.334   7.351
 3057POPC   NC342203  29.839  35.220   5.312
 3057POPC   PO442204  29.722  35.848   5.625
 3057POPC   GL142205  29.811  35.403   5.787
 3057POPC   GL242206  30.109  35.132   5.740
 3057POPC   C1A42207  29.718  35.251   6.189
 3057POPC   D2A42208  29.925  35.462   6.546
 3057POPC   C3A42209  29.721  35.407   6.929
 3057POPC   C4A42210  29.661  35.086   7.245
 3057POPC   C1B42211  30.230  35.248   6.155
 3057POPC   C2B42212  30.278  35.085   6.587
 3057POPC   C3B42213  30.143  35.155   7.012
 3057POPC   C4B42214  30.114  35.001   7.453
 3058POPC   NC342215   1.604  19.530   5.531
 3058POPC   PO442216   1.005  19.796   5.436
 3058POPC   GL142217   1.290  19.915   5.825
 3058POPC   GL242218   1.018  20.054   6.041
 3058POPC   C1A42219   1.327  19.739   6.290
 3058POPC   D2A42220   1.197  19.704   6.730
 3058POPC   C3A42221   1.306  19.853   7.178
 3058POPC   C4A42222   1.351  19.556   7.543
 3058POPC   C1B42223   1.229  20.261   6.399
 3058POPC   C2B42224   1.162  20.227   6.845
 3058POPC   C3B42225   0.835  19.934   6.992
 3058POPC   C4B42226   0.947  19.506   7.196
 3059POPC   NC342227  39.486  12.384   5.480
 3059POPC   PO442228  39.234  11.843   5.132
 3059POPC   GL142229  39.231  11.939   5.605
 3059POPC   GL242230  39.591  11.904   5.714
 3059POPC   C1A42231  39.239  12.021   6.099
 3059POPC   D2A42232  39.176  12.023   6.574
 3059POPC   C3A42233  39.210  12.171   7.015
 3059POPC   C4A42234  39.413  11.865   7.295
 3059POPC   C1B42235  39.728  12.189   6.065
 3059POPC   C2B42236  39.602  12.305   6.446
 3059POPC   C3B42237  39.655  12.141   6.808
 3059POPC   C4B42238  39.708  12.259   7.196
 3060POPC   NC342239   2.177  29.424   5.128
 3060POPC   PO442240   2.409  28.912   5.431
 3060POPC   GL142241   2.101  28.922   5.777
 3060POPC   GL242242   1.754  28.999   5.672
 3060POPC   C1A42243   2.045  28.990   6.222
 3060POPC   D2A42244   2.012  29.249   6.602
 3060POPC   C3A42245   2.006  28.922   6.908
 3060POPC   C4A42246   2.279  28.831   7.248
 3060POPC   C1B42247   1.553  29.154   6.056
 3060POPC   C2B42248   1.586  29.023   6.477
 3060POPC   C3B42249   1.571  29.193   6.926
 3060POPC   C4B42250   1.938  29.406   7.110
 3061POPC   NC342251  41.328   4.289   5.079
 3061POPC   PO442252  40.671   4.427   5.163
 3061POPC   GL142253  40.672   4.331   5.650
 3061POPC   GL242254  40.914   4.479   5.892
 3061POPC   C1A42255  40.526   4.201   6.114
 3061POPC   D2A42256  40.464   4.329   6.572
 3061POPC   C3A42257  40.742   4.191   6.880
 3061POPC   C4A42258  41.044   4.046   7.178
 3061POPC   C1B42259  40.901   4.575   6.336
 3061POPC   C2B42260  41.084   4.814   6.708
 3061POPC   C3B42261  41.062   4.659   7.113
 3061POPC   C4B42262  40.711   4.487   7.295
 3062POPC   NC342263  24.566  22.339   5.559
 3062POPC   PO442264  24.519  21.673   5.581
 3062POPC   GL142265  24.402  21.932   5.862
 3062POPC   GL242266  24.727  22.019   5.965
 3062POPC   C1A42267  24.232  21.972   6.245
 3062POPC   D2A42268  24.262  22.212   6.611
 3062POPC   C3A42269  24.266  22.008   6.970
 3062POPC   C4A42270  24.283  22.265   7.283
 3062POPC   C1B42271  24.546  22.392   6.202
 3062POPC   C2B42272  24.661  22.586   6.587
 3062POPC   C3B42273  24.650  22.375   6.971
 3062POPC   C4B42274  24.785  22.232   7.425
 3063POPC   NC342275   0.602  44.820   5.084
 3063POPC   PO442276   0.693  44.398   5.562
 3063POPC   GL142277   0.392  44.636   5.833
 3063POPC   GL242278   0.446   0.003   5.957
 3063POPC   C1A42279   0.314  44.627   6.279
 3063POPC   D2A42280   0.452  44.800   6.660
 3063POPC   C3A42281   0.345  44.505   7.004
 3063POPC   C4A42282   0.194  44.512   7.413
 3063POPC   C1B42283   0.774   0.064   6.301
 3063POPC   C2B42284   0.963  44.940   6.724
 3063POPC   C3B42285   0.701  44.904   7.094
 3063POPC   C4B42286   0.272   0.007   7.195
 3064POPC   NC342287  16.695  14.868   5.364
 3064POPC   PO442288  16.319  15.548   5.420
 3064POPC   GL142289  16.698  15.280   5.667
 3064POPC   GL242290  16.633  14.956   5.854
 3064POPC   C1A42291  16.915  15.300   6.119
 3064POPC   D2A42292  16.890  15.177   6.562
 3064POPC   C3A42293  16.621  15.266   6.939
 3064POPC   C4A42294  16.807  15.256   7.338
 3064POPC   C1B42295  16.512  14.933   6.276
 3064POPC   C2B42296  16.623  14.752   6.654
 3064POPC   C3B42297  16.816  14.826   7.024
 3064POPC   C4B42298  16.478  14.876   7.296
 3065POPC   NC342299   0.180  30.547   5.400
 3065POPC   PO442300   0.606  30.988   5.513
 3065POPC   GL142301   0.391  30.763   5.828
 3065POPC   GL242302   0.609  30.509   5.887
 3065POPC   C1A42303   0.292  30.639   6.286
 3065POPC   D2A42304   0.038  30.404   6.577
 3065POPC   C3A42305   0.153  30.567   6.999
 3065POPC   C4A42306   0.267  31.016   7.065
 3065POPC   C1B42307   0.782  30.782   6.207
 3065POPC   C2B42308   0.670  31.033   6.562
 3065POPC   C3B42309   0.796  30.827   6.943
 3065POPC   C4B42310   0.585  30.674   7.295
 3066POPC   NC342311  20.342  32.968   5.590
 3066POPC   PO442312  20.250  33.502   5.173
 3066POPC   GL142313  20.478  33.423   5.696
 3066POPC   GL242314  20.783  33.258   5.759
 3066POPC   C1A42315  20.297  33.240   6.178
 3066POPC   D2A42316  20.205  32.812   6.408
 3066POPC   C3A42317  20.183  32.801   6.867
 3066POPC   C4A42318  20.438  33.075   7.142
 3066POPC   C1B42319  20.708  32.951   6.161
 3066POPC   C2B42320  20.862  32.875   6.589
 3066POPC   C3B42321  20.960  33.052   6.994
 3066POPC   C4B42322  20.848  32.855   7.368
 3067POPC   NC342323  40.802   4.845   5.294
 3067POPC   PO442324  41.089   5.328   5.635
 3067POPC   GL142325  40.842   5.014   5.919
 3067POPC   GL242326  40.555   4.849   5.748
 3067POPC   C1A42327  40.877   5.094   6.328
 3067POPC   D2A42328  40.811   5.285   6.699
 3067POPC   C3A42329  40.724   5.072   7.068
 3067POPC   C4A42330  40.694   5.274   7.464
 3067POPC   C1B42331  40.417   4.846   6.191
 3067POPC   C2B42332  40.547   4.833   6.628
 3067POPC   C3B42333  40.360   4.676   6.995
 3067POPC   C4B42334  40.383   4.876   7.410
 3068POPC   NC342335  31.662  22.014   5.308
 3068POPC   PO442336  31.103  22.442   5.488
 3068POPC   GL142337  31.404  22.221   5.754
 3068POPC   GL242338  31.753  22.327   5.703
 3068POPC   C1A42339  31.385  22.069   6.206
 3068POPC   D2A42340  31.407  22.022   6.683
 3068POPC   C3A42341  31.389  22.412   6.948
 3068POPC   C4A42342  31.140  22.455   7.323
 3068POPC   C1B42343  31.842  21.927   5.948
 3068POPC   C2B42344  31.788  21.797   6.385
 3068POPC   C3B42345  31.874  21.867   6.808
 3068POPC   C4B42346  31.660  22.026   7.163
 3069POPC   NC342347   9.260  17.340   5.272
 3069POPC   PO442348   8.792  17.805   5.343
 3069POPC   GL142349   8.816  17.578   5.729
 3069POPC   GL242350   9.160  17.683   5.761
 3069POPC   C1A42351   8.760  17.609   6.212
 3069POPC   D2A42352   8.566  17.369   6.583
 3069POPC   C3A42353   8.616  17.532   7.010
 3069POPC   C4A42354   8.895  17.810   7.212
 3069POPC   C1B42355   9.282  17.557   6.198
 3069POPC   C2B42356   9.170  17.556   6.648
 3069POPC   C3B42357   9.123  17.396   7.060
 3069POPC   C4B42358   9.278  17.120   7.349
 3070POPC   NC342359   5.855  41.053   5.364
 3070POPC   PO442360   5.834  40.334   5.493
 3070POPC   GL142361   5.806  40.700   5.755
 3070POPC   GL242362   6.155  40.676   5.764
 3070POPC   C1A42363   5.876  40.874   6.198
 3070POPC   D2A42364   5.739  40.779   6.610
 3070POPC   C3A42365   5.882  41.021   6.954
 3070POPC   C4A42366   6.010  40.841   7.336
 3070POPC   C1B42367   6.098  40.426   6.155
 3070POPC   C2B42368   6.066  40.351   6.600
 3070POPC   C3B42369   6.048  40.342   7.052
 3070POPC   C4B42370   6.290  40.437   7.427
 3071POPC   NC342371  11.687  10.366   5.657
 3071POPC   PO442372  12.095  10.754   5.207
 3071POPC   GL142373  11.998  10.772   5.720
 3071POPC   GL242374  12.285  10.624   5.969
 3071POPC   C1A42375  11.859  10.826   6.148
 3071POPC   D2A42376  12.158  10.696   6.460
 3071POPC   C3A42377  12.051  10.400   6.751
 3071POPC   C4A42378  12.005  10.470   7.185
 3071POPC   C1B42379  12.267  10.226   6.258
 3071POPC   C2B42380  12.519  10.174   6.634
 3071POPC   C3B42381  12.372  10.112   7.039
 3071POPC   C4B42382  12.404  10.290   7.429
 3072POPC   NC342383  35.685   0.342   5.369
 3072POPC   PO442384  34.959   0.265   5.403
 3072POPC   GL142385  35.298   0.241   5.724
 3072POPC   GL242386  35.307   0.598   5.802
 3072POPC   C1A42387  35.446   0.220   6.160
 3072POPC   D2A42388  35.378   0.420   6.584
 3072POPC   C3A42389  35.545   0.228   6.941
 3072POPC   C4A42390  35.378   0.137   7.306
 3072POPC   C1B42391  35.501   0.755   6.189
 3072POPC   C2B42392  35.777   0.729   6.524
 3072POPC   C3B42393  35.669   0.719   6.943
 3072POPC   C4B42394  35.333   0.648   7.208
 3073POPC   NC342395  28.446  27.627   5.444
 3073POPC   PO442396  28.627  27.115   5.621
 3073POPC   GL142397  28.575  27.443   5.903
 3073POPC   GL242398  28.257  27.552   5.942
 3073POPC   C1A42399  28.602  27.617   6.315
 3073POPC   D2A42400  28.278  27.720   6.597
 3073POPC   C3A42401  28.378  27.636   7.012
 3073POPC   C4A42402  28.645  27.883   7.249
 3073POPC   C1B42403  28.102  27.331   6.316
 3073POPC   C2B42404  28.003  27.288   6.768
 3073POPC   C3B42405  27.927  27.501   7.177
 3073POPC   C4B42406  28.189  27.757   7.512
 3074POPC   NC342407  34.147  35.345   5.378
 3074POPC   PO442408  34.826  35.278   5.370
 3074POPC   GL142409  34.866  35.435   5.799
 3074POPC   GL242410  34.684  35.158   5.898
 3074POPC   C1A42411  34.706  35.569   6.211
 3074POPC   D2A42412  34.395  35.370   6.497
 3074POPC   C3A42413  34.352  35.603   6.859
 3074POPC   C4A42414  34.715  35.675   7.067
 3074POPC   C1B42415  34.784  35.063   6.329
 3074POPC   C2B42416  34.793  35.164   6.765
 3074POPC   C3B42417  34.486  35.124   7.052
 3074POPC   C4B42418  34.456  34.913   7.445
 3075POPC   NC342419  15.011   9.501   5.455
 3075POPC   PO442420  15.342  10.113   5.464
 3075POPC   GL142421  15.219   9.824   5.800
 3075POPC   GL242422  15.365   9.495   5.859
 3075POPC   C1A42423  14.988   9.692   6.175
 3075POPC   D2A42424  15.079   9.852   6.591
 3075POPC   C3A42425  15.097   9.597   6.993
 3075POPC   C4A42426  15.132   9.786   7.420
 3075POPC   C1B42427  15.491   9.646   6.298
 3075POPC   C2B42428  15.565   9.605   6.761
 3075POPC   C3B42429  15.577   9.574   7.227
 3075POPC   C4B42430  15.874   9.527   7.573
 3076POPC   NC342431  36.962  43.020   5.390
 3076POPC   PO442432  37.206  43.635   5.550
 3076POPC   GL142433  37.015  43.486   5.886
 3076POPC   GL242434  36.811  43.226   5.824
 3076POPC   C1A42435  37.042  43.279   6.272
 3076POPC   D2A42436  36.983  43.032   6.604
 3076POPC   C3A42437  37.153  43.163   6.951
 3076POPC   C4A42438  37.097  43.014   7.349
 3076POPC   C1B42439  36.631  42.981   6.163
 3076POPC   C2B42440  36.664  42.656   6.480
 3076POPC   C3B42441  36.575  42.683   6.916
 3076POPC   C4B42442  36.653  42.788   7.363
 3077POPC   NC342443  19.725  11.050   5.359
 3077POPC   PO442444  19.903  11.663   5.339
 3077POPC   GL142445  19.770  11.398   5.729
 3077POPC   GL242446  20.090  11.240   5.713
 3077POPC   C1A42447  19.863  11.197   6.170
 3077POPC   D2A42448  20.102  11.203   6.563
 3077POPC   C3A42449  19.911  11.163   6.969
 3077POPC   C4A42450  19.665  11.262   7.305
 3077POPC   C1B42451  20.166  11.577   6.000
 3077POPC   C2B42452  20.119  11.706   6.412
 3077POPC   C3B42453  20.135  11.634   6.853
 3077POPC   C4B42454  19.968  11.652   7.253
 3078POPC   NC342455  28.114  23.432   5.572
 3078POPC   PO442456  28.592  23.871   5.710
 3078POPC   GL142457  28.763  23.553   5.981
 3078POPC   GL242458  28.617  23.267   5.793
 3078POPC   C1A42459  28.679  23.582   6.424
 3078POPC   D2A42460  28.269  23.680   6.653
 3078POPC   C3A42461  28.319  23.817   7.089
 3078POPC   C4A42462  28.198  23.803   7.528
 3078POPC   C1B42463  28.333  23.266   6.173
 3078POPC   C2B42464  28.430  23.175   6.592
 3078POPC   C3B42465  28.557  23.380   6.987
 3078POPC   C4B42466  28.551  23.464   7.454
 3079POPC   NC342467   0.601   8.351   5.279
 3079POPC   PO442468   0.263   7.815   5.075
 3079POPC   GL142469   0.383   8.023   5.604
 3079POPC   GL242470   0.665   8.297   5.774
 3079POPC   C1A42471   0.435   8.007   6.127
 3079POPC   D2A42472   0.648   8.077   6.547
 3079POPC   C3A42473   0.465   7.985   6.965
 3079POPC   C4A42474   0.033   7.892   7.069
 3079POPC   C1B42475   0.767   8.548   6.182
 3079POPC   C2B42476   0.643   8.586   6.628
 3079POPC   C3B42477   0.357   8.489   6.957
 3079POPC   C4B42478   0.452   8.357   7.375
 3080POPC   NC342479  33.633  27.305   5.044
 3080POPC   PO442480  33.917  26.701   5.293
 3080POPC   GL142481  33.852  26.718   5.743
 3080POPC   GL242482  33.812  27.082   5.771
 3080POPC   C1A42483  33.751  26.789   6.202
 3080POPC   D2A42484  33.519  26.739   6.599
 3080POPC   C3A42485  33.753  26.617   6.970
 3080POPC   C4A42486  33.617  26.776   7.348
 3080POPC   C1B42487  34.133  27.146   6.082
 3080POPC   C2B42488  34.011  27.271   6.470
 3080POPC   C3B42489  33.910  27.070   6.832
 3080POPC   C4B42490  34.121  26.934   7.199
 3081POPC   NC342491  42.409  41.965   5.319
 3081POPC   PO442492  42.088  42.588   5.310
 3081POPC   GL142493  42.172  42.332   5.701
 3081POPC   GL242494  42.539  42.288   5.773
 3081POPC   C1A42495  42.128  42.208   6.149
 3081POPC   D2A42496  42.301  42.092   6.560
 3081POPC   C3A42497  42.193  42.309   6.960
 3081POPC   C4A42498  42.502  42.587   7.131
 3081POPC   C1B42499  42.586  42.497   6.206
 3081POPC   C2B42500  42.711  42.458   6.651
 3081POPC   C3B42501  42.678  42.114   6.939
 3081POPC   C4B42502  42.579  42.091   7.376
 3082POPC   NC342503  30.172  25.164   5.509
 3082POPC   PO442504  29.614  25.525   5.548
 3082POPC   GL142505  29.727  25.244   5.831
 3082POPC   GL242506  29.441  25.040   5.788
 3082POPC   C1A42507  30.003  25.283   6.185
 3082POPC   D2A42508  30.080  25.550   6.547
 3082POPC   C3A42509  30.106  25.379   6.952
 3082POPC   C4A42510  30.010  25.237   7.347
 3082POPC   C1B42511  29.581  24.924   6.221
 3082POPC   C2B42512  29.762  25.091   6.599
 3082POPC   C3B42513  29.760  24.963   7.000
 3082POPC   C4B42514  29.489  25.036   7.352
 3083POPC   NC342515   6.531  19.536   5.493
 3083POPC   PO442516   6.821  20.157   5.472
 3083POPC   GL142517   6.693  19.910   5.813
 3083POPC   GL242518   6.982  19.743   5.962
 3083POPC   C1A42519   6.532  19.694   6.186
 3083POPC   D2A42520   6.528  19.900   6.565
 3083POPC   C3A42521   6.690  19.710   6.893
 3083POPC   C4A42522   6.420  19.751   7.216
 3083POPC   C1B42523   6.914  20.070   6.276
 3083POPC   C2B42524   6.761  20.329   6.637
 3083POPC   C3B42525   6.753  20.198   7.096
 3083POPC   C4B42526   6.925  20.217   7.551
 3084POPC   NC342527  29.203  25.391   5.413
 3084POPC   PO442528  28.925  24.800   5.553
 3084POPC   GL142529  28.972  25.201   5.845
 3084POPC   GL242530  28.949  25.581   5.797
 3084POPC   C1A42531  29.299  25.373   6.163
 3084POPC   D2A42532  29.524  25.572   6.540
 3084POPC   C3A42533  29.442  25.391   6.949
 3084POPC   C4A42534  29.012  25.244   7.126
 3084POPC   C1B42535  28.884  25.692   6.197
 3084POPC   C2B42536  28.994  25.496   6.569
 3084POPC   C3B42537  28.949  25.704   6.911
 3084POPC   C4B42538  28.716  25.662   7.231
 3085POPC   NC342539  22.142  38.865   5.393
 3085POPC   PO442540  21.868  39.452   5.345
 3085POPC   GL142541  21.927  39.240   5.759
 3085POPC   GL242542  22.274  39.171   5.824
 3085POPC   C1A42543  21.970  39.389   6.215
 3085POPC   D2A42544  21.928  39.568   6.641
 3085POPC   C3A42545  22.036  39.353   7.006
 3085POPC   C4A42546  22.297  39.201   7.360
 3085POPC   C1B42547  22.456  39.486   6.102
 3085POPC   C2B42548  22.465  39.552   6.554
 3085POPC   C3B42549  22.571  39.342   6.955
 3085POPC   C4B42550  22.706  39.494   7.373
 3086POPC   NC342551  18.805   0.054   5.489
 3086POPC   PO442552  19.222   0.666   5.464
 3086POPC   GL142553  19.320   0.372   5.827
 3086POPC   GL242554  19.258   0.005   5.780
 3086POPC   C1A42555  19.425   0.291   6.251
 3086POPC   D2A42556  19.181   0.408   6.611
 3086POPC   C3A42557  19.297   0.347   7.025
 3086POPC   C4A42558  19.045   0.596   7.296
 3086POPC   C1B42559  18.965   0.090   6.125
 3086POPC   C2B42560  18.846   0.024   6.540
 3086POPC   C3B42561  18.952  44.929   6.938
 3086POPC   C4B42562  18.958   0.086   7.330
 3087POPC   NC342563  22.713   9.935   5.484
 3087POPC   PO442564  23.217   9.527   5.475
 3087POPC   GL142565  22.972   9.681   5.846
 3087POPC   GL242566  23.127   9.998   5.898
 3087POPC   C1A42567  22.790   9.956   6.245
 3087POPC   D2A42568  22.526   9.872   6.592
 3087POPC   C3A42569  22.716   9.575   6.862
 3087POPC   C4A42570  22.850   9.939   7.080
 3087POPC   C1B42571  23.240   9.701   6.279
 3087POPC   C2B42572  23.187   9.443   6.645
 3087POPC   C3B42573  23.200   9.569   7.080
 3087POPC   C4B42574  23.271   9.642   7.538
 3088POPC   NC342575   6.243  33.208   5.490
 3088POPC   PO442576   5.654  32.924   5.370
 3088POPC   GL142577   5.878  32.948   5.763
 3088POPC   GL242578   5.820  33.290   5.842
 3088POPC   C1A42579   5.928  32.869   6.226
 3088POPC   D2A42580   6.145  32.789   6.651
 3088POPC   C3A42581   5.891  32.902   7.022
 3088POPC   C4A42582   5.914  33.319   7.225
 3088POPC   C1B42583   5.811  33.394   6.299
 3088POPC   C2B42584   5.666  33.302   6.735
 3088POPC   C3B42585   5.423  33.289   7.138
 3088POPC   C4B42586   5.564  33.263   7.610
 3089POPC   NC342587   1.820  27.118   5.453
 3089POPC   PO442588   2.419  27.222   5.760
 3089POPC   GL142589   2.284  26.962   5.965
 3089POPC   GL242590   2.014  26.807   5.829
 3089POPC   C1A42591   2.253  26.988   6.385
 3089POPC   D2A42592   1.988  26.760   6.607
 3089POPC   C3A42593   2.156  26.783   7.000
 3089POPC   C4A42594   1.992  26.615   7.336
 3089POPC   C1B42595   1.801  27.056   6.126
 3089POPC   C2B42596   1.631  27.137   6.516
 3089POPC   C3B42597   1.743  27.084   6.923
 3089POPC   C4B42598   1.669  27.077   7.340
 3090POPC   NC342599   1.739  11.209   5.415
 3090POPC   PO442600   0.990  11.118   5.328
 3090POPC   GL142601   1.093  11.384   5.735
 3090POPC   GL242602   1.411  11.528   5.710
 3090POPC   C1A42603   1.243  11.280   6.189
 3090POPC   D2A42604   1.324  11.102   6.621
 3090POPC   C3A42605   1.086  11.214   6.989
 3090POPC   C4A42606   1.140  11.054   7.411
 3090POPC   C1B42607   1.582  11.661   6.099
 3090POPC   C2B42608   1.501  11.599   6.513
 3090POPC   C3B42609   1.501  11.514   6.913
 3090POPC   C4B42610   1.378  11.509   7.303
 3091POPC   NC342611  27.962  14.297   5.271
 3091POPC   PO442612  27.695  14.625   5.808
 3091POPC   GL142613  27.937  14.304   5.893
 3091POPC   GL242614  27.668  14.081   5.835
 3091POPC   C1A42615  27.963  14.240   6.349
 3091POPC   D2A42616  27.657  14.381   6.640
 3091POPC   C3A42617  27.783  14.431   7.071
 3091POPC   C4A42618  27.619  14.427   7.508
 3091POPC   C1B42619  27.290  13.980   6.115
 3091POPC   C2B42620  27.211  14.120   6.548
 3091POPC   C3B42621  27.375  14.117   6.974
 3091POPC   C4B42622  27.225  14.105   7.383
 3092POPC   NC342623  30.329  42.110   5.354
 3092POPC   PO442624  29.794  42.556   5.381
 3092POPC   GL142625  29.834  42.304   5.760
 3092POPC   GL242626  30.116  42.111   5.813
 3092POPC   C1A42627  29.953  42.394   6.210
 3092POPC   D2A42628  29.818  42.171   6.556
 3092POPC   C3A42629  29.665  42.332   6.914
 3092POPC   C4A42630  29.645  42.123   7.280
 3092POPC   C1B42631  30.185  41.932   6.198
 3092POPC   C2B42632  30.306  42.002   6.613
 3092POPC   C3B42633  30.111  42.098   7.000
 3092POPC   C4B42634  30.067  42.417   7.274
 3093POPC   NC342635  25.530  18.450   5.343
 3093POPC   PO442636  25.021  18.072   5.311
 3093POPC   GL142637  25.110  18.255   5.715
 3093POPC   GL242638  25.445  18.266   5.830
 3093POPC   C1A42639  25.050  18.384   6.135
 3093POPC   D2A42640  25.316  18.321   6.483
 3093POPC   C3A42641  25.084  18.234   6.869
 3093POPC   C4A42642  25.005  18.195   7.332
 3093POPC   C1B42643  25.549  18.620   6.110
 3093POPC   C2B42644  25.620  18.783   6.550
 3093POPC   C3B42645  25.528  18.505   6.912
 3093POPC   C4B42646  25.386  18.549   7.317
 3094POPC   NC342647  24.642  40.719   5.344
 3094POPC   PO442648  24.003  40.938   5.367
 3094POPC   GL142649  24.265  40.967   5.761
 3094POPC   GL242650  24.622  40.899   5.825
 3094POPC   C1A42651  24.305  41.130   6.172
 3094POPC   D2A42652  24.426  40.991   6.578
 3094POPC   C3A42653  24.162  41.169   6.909
 3094POPC   C4A42654  24.227  40.942   7.278
 3094POPC   C1B42655  24.851  40.827   6.244
 3094POPC   C2B42656  24.982  40.888   6.695
 3094POPC   C3B42657  24.897  40.672   7.109
 3094POPC   C4B42658  25.001  40.698   7.584
 3095POPC   NC342659   4.338  29.521   5.493
 3095POPC   PO442660   4.304  30.184   5.564
 3095POPC   GL142661   4.127  29.872   5.871
 3095POPC   GL242662   3.907  29.551   5.794
 3095POPC   C1A42663   4.262  29.955   6.304
 3095POPC   D2A42664   4.485  30.129   6.664
 3095POPC   C3A42665   4.280  30.222   7.064
 3095POPC   C4A42666   4.086  29.964   7.379
 3095POPC   C1B42667   4.132  29.436   6.202
 3095POPC   C2B42668   4.155  29.559   6.670
 3095POPC   C3B42669   4.413  29.725   7.020
 3095POPC   C4B42670   4.593  29.525   7.413
 3096POPC   NC342671  26.067   8.575   5.406
 3096POPC   PO442672  25.886   9.194   5.210
 3096POPC   GL142673  25.936   9.011   5.679
 3096POPC   GL242674  26.269   9.085   5.842
 3096POPC   C1A42675  25.831   9.074   6.162
 3096POPC   D2A42676  25.912   9.228   6.613
 3096POPC   C3A42677  25.934   8.874   6.907
 3096POPC   C4A42678  25.731   8.733   7.299
 3096POPC   C1B42679  26.273   8.876   6.274
 3096POPC   C2B42680  26.384   9.037   6.691
 3096POPC   C3B42681  26.370   9.009   7.128
 3096POPC   C4B42682  26.233   8.614   7.270
 3097POPC   NC342683  36.484  30.831   5.729
 3097POPC   PO442684  36.179  30.434   5.311
 3097POPC   GL142685  36.060  30.569   5.737
 3097POPC   GL242686  35.835  30.830   5.672
 3097POPC   C1A42687  36.254  30.580   6.239
 3097POPC   D2A42688  36.446  30.844   6.568
 3097POPC   C3A42689  36.367  30.712   6.985
 3097POPC   C4A42690  36.454  30.432   7.299
 3097POPC   C1B42691  35.790  30.775   6.121
 3097POPC   C2B42692  36.007  31.057   6.422
 3097POPC   C3B42693  36.063  31.109   6.862
 3097POPC   C4B42694  35.770  30.874   7.082
 3098POPC   NC342695   5.376  12.750   5.541
 3098POPC   PO442696   4.848  13.182   5.596
 3098POPC   GL142697   4.985  12.836   5.862
 3098POPC   GL242698   4.792  12.556   5.828
 3098POPC   C1A42699   5.282  12.867   6.212
 3098POPC   D2A42700   5.184  13.100   6.601
 3098POPC   C3A42701   5.167  12.899   6.985
 3098POPC   C4A42702   5.399  12.821   7.339
 3098POPC   C1B42703   4.976  12.447   6.221
 3098POPC   C2B42704   5.018  12.598   6.594
 3098POPC   C3B42705   4.800  12.533   6.946
 3098POPC   C4B42706   4.993  12.512   7.290
 3099POPC   NC342707  43.049   2.375   5.552
 3099POPC   PO442708  43.313   2.998   5.312
 3099POPC   GL142709  43.204   2.969   5.769
 3099POPC   GL242710  43.469   3.208   5.844
 3099POPC   C1A42711  43.099   2.736   6.203
 3099POPC   D2A42712  42.887   2.697   6.663
 3099POPC   C3A42713  42.906   2.639   7.152
 3099POPC   C4A42714  43.157   2.412   7.504
 3099POPC   C1B42715  43.563   2.982   6.228
 3099POPC   C2B42716  43.408   2.798   6.620
 3099POPC   C3B42717  43.338   2.900   7.034
 3099POPC   C4B42718  43.413   3.235   7.296
 3100POPC   NC342719  25.213   8.069   5.288
 3100POPC   PO442720  25.146   8.709   5.467
 3100POPC   GL142721  25.111   8.365   5.738
 3100POPC   GL242722  25.295   8.045   5.796
 3100POPC   C1A42723  24.958   8.214   6.130
 3100POPC   D2A42724  25.210   8.180   6.472
 3100POPC   C3A42725  25.198   8.152   6.864
 3100POPC   C4A42726  24.905   8.167   7.155
 3100POPC   C1B42727  25.575   8.137   6.136
 3100POPC   C2B42728  25.676   8.024   6.574
 3100POPC   C3B42729  25.628   7.855   6.960
 3100POPC   C4B42730  25.373   7.993   7.306
 3101POPC   NC342731  33.443   2.947   5.495
 3101POPC   PO442732  32.793   2.934   5.379
 3101POPC   GL142733  33.032   2.749   5.762
 3101POPC   GL242734  33.215   2.408   5.773
 3101POPC   C1A42735  33.281   2.920   6.130
 3101POPC   D2A42736  33.257   3.177   6.509
 3101POPC   C3A42737  33.042   2.947   6.848
 3101POPC   C4A42738  32.831   2.770   7.210
 3101POPC   C1B42739  32.881   2.370   6.122
 3101POPC   C2B42740  32.950   2.399   6.595
 3101POPC   C3B42741  32.795   2.268   7.014
 3101POPC   C4B42742  32.779   2.320   7.448
 3102POPC   NC342743  44.302  30.665   5.322
 3102POPC   PO442744  44.988  31.000   5.417
 3102POPC   GL142745  44.868  30.760   5.764
 3102POPC   GL242746  44.552  30.591   5.758
 3102POPC   C1A42747  44.845  30.864   6.185
 3102POPC   D2A42748  44.643  30.760   6.553
 3102POPC   C3A42749  44.758  30.900   6.931
 3102POPC   C4A42750  44.681  30.578   7.225
 3102POPC   C1B42751  44.350  30.646   6.153
 3102POPC   C2B42752  44.138  30.902   6.470
 3102POPC   C3B42753  44.218  30.915   6.917
 3102POPC   C4B42754  44.102  31.168   7.270
 3103POPC   NC342755  32.593  19.929   5.423
 3103POPC   PO442756  32.378  19.324   5.528
 3103POPC   GL142757  32.321  19.720   5.802
 3103POPC   GL242758  32.564  20.004   5.910
 3103POPC   C1A42759  32.160  19.772   6.230
 3103POPC   D2A42760  32.168  19.452   6.563
 3103POPC   C3A42761  32.363  19.525   6.948
 3103POPC   C4A42762  32.506  19.824   7.236
 3103POPC   C1B42763  32.552  20.099   6.346
 3103POPC   C2B42764  32.301  19.993   6.740
 3103POPC   C3B42765  32.046  19.940   7.127
 3103POPC   C4B42766  32.058  20.058   7.583
 3104POPC   NC342767  16.634  44.448   5.396
 3104POPC   PO442768  17.030  44.912   5.395
 3104POPC   GL142769  16.952  44.673   5.796
 3104POPC   GL242770  16.590  44.632   5.939
 3104POPC   C1A42771  17.019  44.776   6.250
 3104POPC   D2A42772  17.359  44.876   6.552
 3104POPC   C3A42773  17.256  44.724   6.951
 3104POPC   C4A42774  17.069  44.812   7.330
 3104POPC   C1B42775  16.595  44.569   6.410
 3104POPC   C2B42776  16.778  44.860   6.728
 3104POPC   C3B42777  16.607  44.804   7.114
 3104POPC   C4B42778  16.411  44.384   7.170
 3105POPC   NC342779  15.399   1.824   5.321
 3105POPC   PO442780  14.905   2.305   5.394
 3105POPC   GL142781  15.047   1.984   5.764
 3105POPC   GL242782  15.322   1.740   5.823
 3105POPC   C1A42783  14.964   1.824   6.204
 3105POPC   D2A42784  14.873   1.940   6.656
 3105POPC   C3A42785  15.211   1.964   6.965
 3105POPC   C4A42786  15.111   1.700   7.283
 3105POPC   C1B42787  15.474   1.587   6.230
 3105POPC   C2B42788  15.464   1.615   6.692
 3105POPC   C3B42789  15.606   1.610   7.143
 3105POPC   C4B42790  15.533   1.857   7.520
 3106POPC   NC342791  44.495   7.012   5.600
 3106POPC   PO442792  44.669   7.541   5.131
 3106POPC   GL142793  44.577   7.529   5.668
 3106POPC   GL242794  44.731   7.283   5.945
 3106POPC   C1A42795  44.599   7.708   6.164
 3106POPC   D2A42796  44.796   7.421   6.461
 3106POPC   C3A42797  44.831   7.413   6.915
 3106POPC   C4A42798  44.683   7.595   7.302
 3106POPC   C1B42799  44.332   7.273   6.218
 3106POPC   C2B42800  44.231   7.345   6.666
 3106POPC   C3B42801  44.371   7.200   7.100
 3106POPC   C4B42802  44.390   7.236   7.568
 3107POPC   NC342803   5.678  16.292   5.418
 3107POPC   PO442804   5.936  15.695   5.228
 3107POPC   GL142805   6.004  15.707   5.739
 3107POPC   GL242806   5.893  16.066   5.856
 3107POPC   C1A42807   6.236  15.844   6.149
 3107POPC   D2A42808   6.059  15.915   6.572
 3107POPC   C3A42809   6.143  15.658   6.935
 3107POPC   C4A42810   6.044  15.742   7.342
 3107POPC   C1B42811   5.656  15.939   6.238
 3107POPC   C2B42812   5.477  16.013   6.639
 3107POPC   C3B42813   5.694  15.968   6.982
 3107POPC   C4B42814   5.507  15.911   7.327
 3108POPC   NC342815   4.773  44.921   5.340
 3108POPC   PO442816   5.454  44.643   5.321
 3108POPC   GL142817   5.413  44.513   5.785
 3108POPC   GL242818   5.155  44.770   5.851
 3108POPC   C1A42819   5.262  44.424   6.215
 3108POPC   D2A42820   4.934  44.640   6.436
 3108POPC   C3A42821   4.885  44.645   6.891
 3108POPC   C4A42822   5.024  44.668   7.316
 3108POPC   C1B42823   5.299  44.965   6.265
 3108POPC   C2B42824   5.388  44.790   6.706
 3108POPC   C3B42825   5.503  44.774   7.184
 3108POPC   C4B42826   5.378  44.878   7.646
 3109POPC   NC342827  21.067   2.340   5.497
 3109POPC   PO442828  21.435   1.677   5.635
 3109POPC   GL142829  21.423   2.003   5.943
 3109POPC   GL242830  21.094   2.036   5.899
 3109POPC   C1A42831  21.285   2.044   6.375
 3109POPC   D2A42832  21.378   2.115   6.780
 3109POPC   C3A42833  21.400   1.782   7.046
 3109POPC   C4A42834  21.525   1.826   7.468
 3109POPC   C1B42835  21.024   2.415   6.153
 3109POPC   C2B42836  20.882   2.363   6.601
 3109POPC   C3B42837  20.985   2.391   7.043
 3109POPC   C4B42838  21.358   2.333   7.245
 3110POPC   NC342839  37.826  20.617   4.971
 3110POPC   PO442840  37.701  20.317   5.629
 3110POPC   GL142841  37.558  20.551   5.905
 3110POPC   GL242842  37.495  20.883   5.913
 3110POPC   C1A42843  37.710  20.627   6.320
 3110POPC   D2A42844  37.774  20.328   6.661
 3110POPC   C3A42845  37.542  20.281   7.035
 3110POPC   C4A42846  37.591  20.242   7.484
 3110POPC   C1B42847  37.203  20.687   6.225
 3110POPC   C2B42848  37.345  20.658   6.660
 3110POPC   C3B42849  37.631  20.791   6.969
 3110POPC   C4B42850  37.462  20.717   7.364
 3111POPC   NC342851  43.591  28.459   5.264
 3111POPC   PO442852  43.512  27.936   5.380
 3111POPC   GL142853  43.414  28.302   5.727
 3111POPC   GL242854  43.536  28.661   5.784
 3111POPC   C1A42855  43.191  28.469   6.120
 3111POPC   D2A42856  43.077  28.345   6.548
 3111POPC   C3A42857  43.217  28.497   6.973
 3111POPC   C4A42858  43.160  28.366   7.429
 3111POPC   C1B42859  43.667  28.577   6.259
 3111POPC   C2B42860  43.614  28.357   6.662
 3111POPC   C3B42861  43.637  28.239   7.113
 3111POPC   C4B42862  43.660  28.509   7.458
 3112POPC   NC342863   4.853  37.179   5.355
 3112POPC   PO442864   5.260  37.632   5.456
 3112POPC   GL142865   5.064  37.789   5.844
 3112POPC   GL242866   4.719  37.752   5.813
 3112POPC   C1A42867   5.117  37.656   6.280
 3112POPC   D2A42868   5.341  37.547   6.674
 3112POPC   C3A42869   5.228  37.752   7.074
 3112POPC   C4A42870   5.007  37.866   7.438
 3112POPC   C1B42871   4.717  37.386   6.103
 3112POPC   C2B42872   4.891  37.262   6.519
 3112POPC   C3B42873   4.852  37.501   6.870
 3112POPC   C4B42874   4.835  37.416   7.278
 3113POPC   NC342875  20.416   3.767   5.093
 3113POPC   PO442876  20.712   3.140   5.539
 3113POPC   GL142877  20.556   3.442   5.841
 3113POPC   GL242878  20.684   3.798   5.884
 3113POPC   C1A42879  20.367   3.333   6.231
 3113POPC   D2A42880  20.288   3.400   6.654
 3113POPC   C3A42881  20.602   3.282   6.924
 3113POPC   C4A42882  20.438   3.219   7.304
 3113POPC   C1B42883  20.550   3.812   6.349
 3113POPC   C2B42884  20.820   3.718   6.734
 3113POPC   C3B42885  20.729   3.697   7.177
 3113POPC   C4B42886  20.290   3.719   7.262
 3114POPC   NC342887   8.701  32.455   5.016
 3114POPC   PO442888   8.982  32.043   5.482
 3114POPC   GL142889   9.056  32.197   5.888
 3114POPC   GL242890   9.083  32.518   5.730
 3114POPC   C1A42891   8.963  32.157   6.317
 3114POPC   D2A42892   8.732  31.936   6.583
 3114POPC   C3A42893   8.861  32.145   6.920
 3114POPC   C4A42894   8.851  32.105   7.341
 3114POPC   C1B42895   9.112  32.622   6.201
 3114POPC   C2B42896   8.871  32.596   6.628
 3114POPC   C3B42897   9.064  32.669   7.060
 3114POPC   C4B42898   8.983  32.673   7.534
 3115POPC   NC342899  12.241   0.649   5.383
 3115POPC   PO442900  11.671   0.318   5.223
 3115POPC   GL142901  11.855   0.450   5.685
 3115POPC   GL242902  12.195   0.285   5.750
 3115POPC   C1A42903  11.932   0.662   6.169
 3115POPC   D2A42904  12.047   0.740   6.651
 3115POPC   C3A42905  11.882   0.861   7.102
 3115POPC   C4A42906  11.920   0.610   7.483
 3115POPC   C1B42907  12.426   0.564   6.038
 3115POPC   C2B42908  12.491   0.507   6.498
 3115POPC   C3B42909  12.330   0.329   6.887
 3115POPC   C4B42910  12.524   0.284   7.278
 3116POPC   NC342911  25.904  24.156   5.532
 3116POPC   PO442912  26.381  24.632   5.476
 3116POPC   GL142913  26.111  24.510   5.820
 3116POPC   GL242914  25.756  24.592   5.750
 3116POPC   C1A42915  26.093  24.380   6.257
 3116POPC   D2A42916  26.354  24.556   6.550
 3116POPC   C3A42917  26.239  24.558   6.948
 3116POPC   C4A42918  26.292  24.794   7.282
 3116POPC   C1B42919  25.606  24.501   6.138
 3116POPC   C2B42920  25.607  24.300   6.522
 3116POPC   C3B42921  25.750  24.483   6.875
 3116POPC   C4B42922  25.811  24.525   7.265
 3117POPC   NC342923  41.771  19.641   5.405
 3117POPC   PO442924  41.493  20.102   5.288
 3117POPC   GL142925  41.597  20.055   5.761
 3117POPC   GL242926  41.884  19.844   5.884
 3117POPC   C1A42927  41.529  20.080   6.249
 3117POPC   D2A42928  41.446  19.838   6.655
 3117POPC   C3A42929  41.509  19.991   7.092
 3117POPC   C4A42930  41.635  20.230   7.476
 3117POPC   C1B42931  41.875  19.699   6.341
 3117POPC   C2B42932  41.739  19.425   6.689
 3117POPC   C3B42933  41.650  19.477   7.130
 3117POPC   C4B42934  41.842  19.385   7.547
 3118POPC   NC342935   6.757   8.418   5.286
 3118POPC   PO442936   6.866   7.891   5.311
 3118POPC   GL142937   6.598   8.103   5.693
 3118POPC   GL242938   6.493   8.475   5.744
 3118POPC   C1A42939   6.494   8.122   6.165
 3118POPC   D2A42940   6.511   8.293   6.609
 3118POPC   C3A42941   6.687   8.114   7.006
 3118POPC   C4A42942   6.946   8.026   7.383
 3118POPC   C1B42943   6.594   8.625   6.181
 3118POPC   C2B42944   6.592   8.790   6.622
 3118POPC   C3B42945   6.549   8.621   7.057
 3118POPC   C4B42946   6.398   8.725   7.484
 3119POPC   NC342947  26.821  22.661   5.290
 3119POPC   PO442948  26.568  22.040   5.389
 3119POPC   GL142949  26.904  22.144   5.683
 3119POPC   GL242950  27.151  22.409   5.707
 3119POPC   C1A42951  26.961  22.022   6.094
 3119POPC   D2A42952  27.073  22.114   6.525
 3119POPC   C3A42953  26.853  22.175   6.898
 3119POPC   C4A42954  27.097  22.150   7.286
 3119POPC   C1B42955  26.835  22.508   6.046
 3119POPC   C2B42956  26.853  22.602   6.482
 3119POPC   C3B42957  26.753  22.672   6.896
 3119POPC   C4B42958  26.949  22.664   7.275
 3120POPC   NC342959  23.957  22.695   5.322
 3120POPC   PO442960  23.317  22.785   5.467
 3120POPC   GL142961  23.665  22.845   5.749
 3120POPC   GL242962  23.836  23.128   5.625
 3120POPC   C1A42963  23.652  22.792   6.197
 3120POPC   D2A42964  23.488  22.754   6.607
 3120POPC   C3A42965  23.658  22.875   6.975
 3120POPC   C4A42966  23.476  23.075   7.295
 3120POPC   C1B42967  23.897  23.206   6.074
 3120POPC   C2B42968  23.876  23.140   6.533
 3120POPC   C3B42969  24.012  23.235   6.966
 3120POPC   C4B42970  23.946  23.270   7.403
 3121POPC   NC342971   4.419  16.753   5.501
 3121POPC   PO442972   3.836  17.151   5.396
 3121POPC   GL142973   4.054  17.010   5.778
 3121POPC   GL242974   4.083  16.639   5.851
 3121POPC   C1A42975   4.302  16.999   6.166
 3121POPC   D2A42976   4.178  17.009   6.588
 3121POPC   C3A42977   4.395  16.875   6.943
 3121POPC   C4A42978   4.547  16.514   7.182
 3121POPC   C1B42979   3.835  16.756   6.199
 3121POPC   C2B42980   3.680  16.848   6.606
 3121POPC   C3B42981   3.870  16.866   6.992
 3121POPC   C4B42982   4.119  16.732   7.346
 3122POPC   NC342983  23.892  43.491   5.618
 3122POPC   PO442984  23.657  44.118   5.528
 3122POPC   GL142985  23.691  43.894   5.889
 3122POPC   GL242986  23.453  43.652   5.889
 3122POPC   C1A42987  23.884  43.712   6.253
 3122POPC   D2A42988  23.723  43.665   6.652
 3122POPC   C3A42989  23.923  43.765   7.025
 3122POPC   C4A42990  23.819  43.981   7.384
 3122POPC   C1B42991  23.374  43.496   6.292
 3122POPC   C2B42992  23.336  43.352   6.734
 3122POPC   C3B42993  23.428  43.597   7.109
 3122POPC   C4B42994  23.391  43.624   7.563
 3123POPC   NC342995  40.331  42.931   5.428
 3123POPC   PO442996  39.772  42.610   5.442
 3123POPC   GL142997  39.928  42.926   5.768
 3123POPC   GL242998  40.005  43.293   5.676
 3123POPC   C1A42999  40.005  42.895   6.232
 3123POPC   D2A43000  39.783  42.755   6.608
 3123POPC   C3A43001  39.966  42.880   6.976
 3123POPC   C4A43002  40.311  42.866   7.275
 3123POPC   C1B43003  39.881  43.387   6.105
 3123POPC   C2B43004  39.701  43.258   6.486
 3123POPC   C3B43005  39.702  43.369   6.900
 3123POPC   C4B43006  39.966  43.295   7.251
 3124POPC   NC343007  33.908   2.237   5.420
 3124POPC   PO443008  33.998   1.649   5.512
 3124POPC   GL143009  33.864   1.828   5.892
 3124POPC   GL243010  34.072   2.139   5.884
 3124POPC   C1A43011  33.664   1.725   6.320
 3124POPC   D2A43012  33.582   1.536   6.762
 3124POPC   C3A43013  33.588   1.788   7.200
 3124POPC   C4A43014  33.392   1.746   7.673
 3124POPC   C1B43015  33.770   2.232   6.205
 3124POPC   C2B43016  33.675   2.146   6.639
 3124POPC   C3B43017  33.828   2.255   7.051
 3124POPC   C4B43018  34.115   2.320   7.397
 3125POPC   NC343019  31.808  40.389   5.596
 3125POPC   PO443020  31.841  41.022   5.328
 3125POPC   GL143021  31.685  41.004   5.781
 3125POPC   GL243022  31.427  40.720   5.789
 3125POPC   C1A43023  31.422  41.050   6.202
 3125POPC   D2A43024  31.361  41.158   6.658
 3125POPC   C3A43025  31.336  40.862   7.012
 3125POPC   C4A43026  31.166  40.387   7.035
 3125POPC   C1B43027  31.400  40.527   6.214
 3125POPC   C2B43028  31.558  40.606   6.626
 3125POPC   C3B43029  31.670  40.467   7.022
 3125POPC   C4B43030  32.056  40.350   7.160
 3126POPC   NC343031   7.651  17.217   5.524
 3126POPC   PO443032   7.178  17.815   5.421
 3126POPC   GL143033   7.172  17.621   5.813
 3126POPC   GL243034   7.494  17.526   5.940
 3126POPC   C1A43035   7.061  17.488   6.233
 3126POPC   D2A43036   7.250  17.517   6.616
 3126POPC   C3A43037   6.967  17.498   6.940
 3126POPC   C4A43038   7.275  17.564   7.236
 3126POPC   C1B43039   7.664  17.308   6.313
 3126POPC   C2B43040   7.746  17.382   6.760
 3126POPC   C3B43041   7.637  17.795   6.915
 3126POPC   C4B43042   7.564  18.058   7.268
 3127POPC   NC343043  36.332  27.985   5.527
 3127POPC   PO443044  35.766  28.393   5.470
 3127POPC   GL143045  36.094  28.462   5.771
 3127POPC   GL243046  36.054  28.136   5.906
 3127POPC   C1A43047  36.283  28.522   6.200
 3127POPC   D2A43048  36.218  28.393   6.628
 3127POPC   C3A43049  36.385  28.439   7.015
 3127POPC   C4A43050  36.093  28.614   7.274
 3127POPC   C1B43051  36.247  28.010   6.285
 3127POPC   C2B43052  36.109  27.913   6.702
 3127POPC   C3B43053  35.954  28.090   7.104
 3127POPC   C4B43054  36.041  28.030   7.566
 3128POPC   NC343055  13.346  12.242   5.429
 3128POPC   PO443056  12.722  12.051   5.320
 3128POPC   GL143057  12.794  12.252   5.751
 3128POPC   GL243058  13.131  12.134   5.886
 3128POPC   C1A43059  12.699  12.153   6.211
 3128POPC   D2A43060  12.773  11.829   6.562
 3128POPC   C3A43061  12.638  11.934   6.995
 3128POPC   C4A43062  12.860  12.145   7.412
 3128POPC   C1B43063  13.135  11.762   6.172
 3128POPC   C2B43064  13.291  11.676   6.609
 3128POPC   C3B43065  13.129  11.844   6.999
 3128POPC   C4B43066  12.900  11.660   7.350
 3129POPC   NC343067  16.714  38.038   5.379
 3129POPC   PO443068  16.595  37.417   5.539
 3129POPC   GL143069  16.787  37.483   5.921
 3129POPC   GL243070  16.828  37.793   5.813
 3129POPC   C1A43071  16.675  37.515   6.371
 3129POPC   D2A43072  16.541  37.839   6.633
 3129POPC   C3A43073  16.559  37.725   7.059
 3129POPC   C4A43074  16.596  37.486   7.455
 3129POPC   C1B43075  16.904  37.920   6.188
 3129POPC   C2B43076  17.054  37.806   6.578
 3129POPC   C3B43077  16.996  37.988   6.972
 3129POPC   C4B43078  16.940  37.841   7.384
 3130POPC   NC343079  17.118  32.963   5.431
 3130POPC   PO443080  17.744  33.196   5.449
 3130POPC   GL143081  17.458  33.204   5.773
 3130POPC   GL243082  17.432  32.853   5.831
 3130POPC   C1A43083  17.303  33.386   6.168
 3130POPC   D2A43084  17.053  33.224   6.532
 3130POPC   C3A43085  17.342  33.159   6.853
 3130POPC   C4A43086  17.315  33.319   7.245
 3130POPC   C1B43087  17.327  32.877   6.247
 3130POPC   C2B43088  17.371  32.655   6.626
 3130POPC   C3B43089  17.164  32.652   6.989
 3130POPC   C4B43090  17.402  32.822   7.258
 3131POPC   NC343091   4.925  34.178   5.400
 3131POPC   PO443092   5.055  33.582   5.493
 3131POPC   GL143093   5.039  33.859   5.848
 3131POPC   GL243094   5.268  34.102   5.834
 3131POPC   C1A43095   5.089  33.773   6.283
 3131POPC   D2A43096   4.848  33.655   6.625
 3131POPC   C3A43097   5.089  33.682   7.012
 3131POPC   C4A43098   5.145  33.573   7.463
 3131POPC   C1B43099   5.246  34.256   6.251
 3131POPC   C2B43100   5.144  34.146   6.693
 3131POPC   C3B43101   5.385  34.087   7.082
 3131POPC   C4B43102   5.320  34.085   7.514
 3132POPC   NC343103  35.381  28.662   5.448
 3132POPC   PO443104  34.971  28.152   5.549
 3132POPC   GL143105  35.203  28.385   5.886
 3132POPC   GL243106  35.588  28.479   5.935
 3132POPC   C1A43107  35.326  28.258   6.307
 3132POPC   D2A43108  35.530  28.534   6.670
 3132POPC   C3A43109  35.603  28.531   7.134
 3132POPC   C4A43110  35.318  28.509   7.488
 3132POPC   C1B43111  35.819  28.286   6.317
 3132POPC   C2B43112  35.621  28.018   6.651
 3132POPC   C3B43113  35.402  28.090   7.016
 3132POPC   C4B43114  35.527  28.038   7.447
 3133POPC   NC343115  12.610  18.693   5.058
 3133POPC   PO443116  12.967  18.254   5.381
 3133POPC   GL143117  12.937  18.376   5.794
 3133POPC   GL243118  12.807  18.053   5.875
 3133POPC   C1A43119  12.672  18.457   6.162
 3133POPC   D2A43120  12.410  18.322   6.491
 3133POPC   C3A43121  12.561  18.516   6.848
 3133POPC   C4A43122  12.814  18.359   7.136
 3133POPC   C1B43123  12.809  17.989   6.326
 3133POPC   C2B43124  12.737  17.989   6.764
 3133POPC   C3B43125  12.977  17.873   7.092
 3133POPC   C4B43126  13.288  18.178   7.198
 3134POPC   NC343127   5.397  16.959   5.538
 3134POPC   PO443128   6.028  16.696   5.304
 3134POPC   GL143129   5.941  16.637   5.752
 3134POPC   GL243130   5.601  16.519   5.872
 3134POPC   C1A43131   5.849  16.913   6.107
 3134POPC   D2A43132   5.609  16.847   6.481
 3134POPC   C3A43133   5.751  16.821   6.919
 3134POPC   C4A43134   6.012  16.896   7.266
 3134POPC   C1B43135   5.884  16.414   6.232
 3134POPC   C2B43136   5.844  16.379   6.658
 3134POPC   C3B43137   5.982  16.378   7.064
 3134POPC   C4B43138   5.865  16.461   7.492
 3135POPC   NC343139  28.286  34.667   5.384
 3135POPC   PO443140  28.783  34.159   5.493
 3135POPC   GL143141  28.535  34.444   5.783
 3135POPC   GL243142  28.525  34.807   5.826
 3135POPC   C1A43143  28.276  34.555   6.182
 3135POPC   D2A43144  28.155  34.385   6.588
 3135POPC   C3A43145  28.314  34.619   6.940
 3135POPC   C4A43146  28.690  34.674   7.182
 3135POPC   C1B43147  28.809  34.643   6.154
 3135POPC   C2B43148  28.721  34.712   6.589
 3135POPC   C3B43149  28.898  35.015   6.857
 3135POPC   C4B43150  28.809  35.174   7.278
 3136POPC   NC343151  41.009  42.605   5.469
 3136POPC   PO443152  40.682  43.216   5.484
 3136POPC   GL143153  40.720  42.898   5.795
 3136POPC   GL243154  40.404  42.800   5.912
 3136POPC   C1A43155  40.789  42.911   6.249
 3136POPC   D2A43156  40.749  43.308   6.479
 3136POPC   C3A43157  40.885  43.293   6.893
 3136POPC   C4A43158  40.817  42.977   7.215
 3136POPC   C1B43159  40.376  43.229   6.106
 3136POPC   C2B43160  40.213  43.336   6.535
 3136POPC   C3B43161  40.376  43.292   6.951
 3136POPC   C4B43162  40.498  43.360   7.389
 3137POPC   NC343163  32.423   4.939   5.686
 3137POPC   PO443164  32.126   5.472   5.383
 3137POPC   GL143165  32.170   5.362   5.850
 3137POPC   GL243166  31.998   5.036   5.928
 3137POPC   C1A43167  32.297   5.275   6.313
 3137POPC   D2A43168  32.384   5.295   6.769
 3137POPC   C3A43169  32.018   5.337   7.035
 3137POPC   C4A43170  31.997   5.206   7.484
 3137POPC   C1B43171  32.197   4.786   6.296
 3137POPC   C2B43172  32.080   4.893   6.723
 3137POPC   C3B43173  32.189   4.845   7.143
 3137POPC   C4B43174  32.499   4.815   7.454
 3138POPC   NC343175  12.262  20.975   5.291
 3138POPC   PO443176  11.881  21.517   5.408
 3138POPC   GL143177  12.161  21.412   5.742
 3138POPC   GL243178  12.123  21.072   5.829
 3138POPC   C1A43179  12.128  21.468   6.228
 3138POPC   D2A43180  12.415  21.570   6.610
 3138POPC   C3A43181  12.219  21.553   7.047
 3138POPC   C4A43182  12.460  21.369   7.428
 3138POPC   C1B43183  11.952  20.981   6.264
 3138POPC   C2B43184  12.262  20.951   6.594
 3138POPC   C3B43185  12.303  21.071   7.026
 3138POPC   C4B43186  11.972  21.203   7.343
 3139POPC   NC343187  37.316  20.387   5.394
 3139POPC   PO443188  36.740  20.093   5.464
 3139POPC   GL143189  36.952  19.921   5.798
 3139POPC   GL243190  37.281  20.098   5.835
 3139POPC   C1A43191  37.065  19.828   6.218
 3139POPC   D2A43192  37.101  19.506   6.498
 3139POPC   C3A43193  36.739  19.585   6.725
 3139POPC   C4A43194  36.880  19.657   7.164
 3139POPC   C1B43195  37.480  20.152   6.244
 3139POPC   C2B43196  37.404  19.938   6.627
 3139POPC   C3B43197  37.092  20.031   6.931
 3139POPC   C4B43198  37.098  20.267   7.332
 3140POPC   NC343199  17.007  12.418   5.467
 3140POPC   PO443200  16.627  11.862   5.509
 3140POPC   GL143201  16.804  11.976   5.890
 3140POPC   GL243202  17.132  11.904   5.941
 3140POPC   C1A43203  16.664  11.946   6.316
 3140POPC   D2A43204  16.836  11.873   6.725
 3140POPC   C3A43205  16.524  11.921   7.028
 3140POPC   C4A43206  16.290  12.308   7.082
 3140POPC   C1B43207  17.062  12.261   6.281
 3140POPC   C2B43208  17.099  12.324   6.762
 3140POPC   C3B43209  16.951  12.142   7.182
 3140POPC   C4B43210  17.041  12.163   7.643
 3141POPC   NC343211  23.496  38.441   5.547
 3141POPC   PO443212  23.958  38.955   5.589
 3141POPC   GL143213  23.797  38.677   5.925
 3141POPC   GL243214  23.870  38.312   5.901
 3141POPC   C1A43215  23.514  38.488   6.262
 3141POPC   D2A43216  23.265  38.669   6.618
 3141POPC   C3A43217  23.521  38.815   6.955
 3141POPC   C4A43218  23.918  38.872   7.159
 3141POPC   C1B43219  23.813  37.957   6.185
 3141POPC   C2B43220  23.712  38.047   6.602
 3141POPC   C3B43221  23.477  38.272   6.894
 3141POPC   C4B43222  23.740  38.369   7.238
 3142POPC   NC343223  24.409  16.385   5.379
 3142POPC   PO443224  24.684  17.013   5.657
 3142POPC   GL143225  24.553  16.789   5.964
 3142POPC   GL243226  24.648  16.462   5.811
 3142POPC   C1A43227  24.545  16.786   6.426
 3142POPC   D2A43228  24.250  16.859   6.764
 3142POPC   C3A43229  24.453  16.875   7.110
 3142POPC   C4A43230  24.889  16.928   7.018
 3142POPC   C1B43231  24.401  16.352   6.147
 3142POPC   C2B43232  24.617  16.261   6.486
 3142POPC   C3B43233  24.638  16.474   6.861
 3142POPC   C4B43234  24.407  16.315   7.180
 3143POPC   NC343235   3.854  32.027   5.501
 3143POPC   PO443236   3.171  32.162   5.420
 3143POPC   GL143237   3.457  32.262   5.736
 3143POPC   GL243238   3.614  32.580   5.768
 3143POPC   C1A43239   3.543  32.154   6.141
 3143POPC   D2A43240   3.535  32.334   6.560
 3143POPC   C3A43241   3.697  32.096   6.907
 3143POPC   C4A43242   3.414  31.952   7.213
 3143POPC   C1B43243   3.778  32.625   6.189
 3143POPC   C2B43244   3.975  32.589   6.640
 3143POPC   C3B43245   3.725  32.627   7.029
 3143POPC   C4B43246   3.616  32.404   7.418
 3144POPC   NC343247   1.147  40.570   5.245
 3144POPC   PO443248   0.966  41.052   5.565
 3144POPC   GL143249   0.988  40.668   5.758
 3144POPC   GL243250   1.355  40.745   5.809
 3144POPC   C1A43251   0.970  40.568   6.202
 3144POPC   D2A43252   1.224  40.620   6.578
 3144POPC   C3A43253   1.011  40.677   6.965
 3144POPC   C4A43254   1.020  40.905   7.349
 3144POPC   C1B43255   1.574  40.910   6.187
 3144POPC   C2B43256   1.684  40.839   6.632
 3144POPC   C3B43257   1.511  40.869   7.060
 3144POPC   C4B43258   1.508  40.938   7.523
 3145POPC   NC343259  42.901   6.281   5.539
 3145POPC   PO443260  43.344   6.825   5.558
 3145POPC   GL143261  43.535   6.642   5.916
 3145POPC   GL243262  43.249   6.424   5.884
 3145POPC   C1A43263  43.536   6.764   6.358
 3145POPC   D2A43264  43.181   6.963   6.592
 3145POPC   C3A43265  43.230   6.856   7.002
 3145POPC   C4A43266  43.526   6.553   7.134
 3145POPC   C1B43267  43.066   6.559   6.270
 3145POPC   C2B43268  42.899   6.447   6.678
 3145POPC   C3B43269  42.874   6.507   7.116
 3145POPC   C4B43270  42.773   6.905   7.321
 3146POPC   NC343271  30.839  14.417   5.099
 3146POPC   PO443272  30.496  14.783   5.533
 3146POPC   GL143273  30.699  14.587   5.834
 3146POPC   GL243274  30.733  14.251   5.850
 3146POPC   C1A43275  30.484  14.482   6.224
 3146POPC   D2A43276  30.291  14.576   6.613
 3146POPC   C3A43277  30.606  14.386   6.901
 3146POPC   C4A43278  30.803  14.596   7.198
 3146POPC   C1B43279  30.970  13.983   6.114
 3146POPC   C2B43280  30.836  14.077   6.515
 3146POPC   C3B43281  30.615  13.859   6.845
 3146POPC   C4B43282  30.499  13.963   7.258
 3147POPC   NC343283  40.098  21.648   5.433
 3147POPC   PO443284  39.860  20.985   5.449
 3147POPC   GL143285  39.788  21.330   5.702
 3147POPC   GL243286  40.136  21.287   5.793
 3147POPC   C1A43287  39.747  21.373   6.145
 3147POPC   D2A43288  39.798  21.093   6.524
 3147POPC   C3A43289  39.814  21.153   6.985
 3147POPC   C4A43290  39.813  21.472   7.332
 3147POPC   C1B43291  40.254  21.375   6.220
 3147POPC   C2B43292  40.131  21.496   6.645
 3147POPC   C3B43293  40.264  21.372   7.063
 3147POPC   C4B43294  40.291  21.511   7.485
 3148POPC   NC343295   0.428   1.835   5.283
 3148POPC   PO443296   0.704   2.311   5.690
 3148POPC   GL143297   0.398   1.994   5.795
 3148POPC   GL243298   0.481   1.623   5.753
 3148POPC   C1A43299   0.222   2.127   6.188
 3148POPC   D2A43300   0.499   2.218   6.543
 3148POPC   C3A43301   0.286   2.181   6.914
 3148POPC   C4A43302   0.341   1.924   7.256
 3148POPC   C1B43303   0.702   1.686   6.168
 3148POPC   C2B43304   0.716   1.739   6.635
 3148POPC   C3B43305   0.855   1.781   7.078
 3148POPC   C4B43306   0.920   1.535   7.484
 3149POPC   NC343307  34.973  39.505   5.659
 3149POPC   PO443308  34.429  39.074   5.435
 3149POPC   GL143309  34.663  39.123   5.800
 3149POPC   GL243310  34.496  39.466   5.824
 3149POPC   C1A43311  34.670  39.209   6.248
 3149POPC   D2A43312  34.429  39.043   6.609
 3149POPC   C3A43313  34.526  39.126   7.056
 3149POPC   C4A43314  34.513  39.068   7.535
 3149POPC   C1B43315  34.557  39.723   6.184
 3149POPC   C2B43316  34.537  39.581   6.604
 3149POPC   C3B43317  34.672  39.635   7.005
 3149POPC   C4B43318  34.440  39.536   7.358
 3150POPC   NC343319  24.070  26.507   5.472
 3150POPC   PO443320  24.570  26.928   5.484
 3150POPC   GL143321  24.278  26.833   5.791
 3150POPC   GL243322  24.137  27.132   5.914
 3150POPC   C1A43323  24.106  26.705   6.183
 3150POPC   D2A43324  24.199  26.940   6.555
 3150POPC   C3A43325  24.358  26.824   6.922
 3150POPC   C4A43326  24.212  26.570   7.221
 3150POPC   C1B43327  24.366  27.281   6.246
 3150POPC   C2B43328  24.643  27.188   6.595
 3150POPC   C3B43329  24.728  27.191   7.032
 3150POPC   C4B43330  24.570  26.977   7.366
 3151POPC   NC343331   9.241  18.855   5.445
 3151POPC   PO443332   8.682  19.329   5.472
 3151POPC   GL143333   9.016  19.204   5.778
 3151POPC   GL243334   9.106  18.850   5.925
 3151POPC   C1A43335   9.081  19.274   6.232
 3151POPC   D2A43336   8.843  19.128   6.601
 3151POPC   C3A43337   8.995  19.166   7.017
 3151POPC   C4A43338   8.740  18.916   7.303
 3151POPC   C1B43339   9.305  18.523   6.185
 3151POPC   C2B43340   9.053  18.437   6.520
 3151POPC   C3B43341   9.025  18.679   6.892
 3151POPC   C4B43342   9.204  18.746   7.292
 3152POPC   NC343343  36.995  18.433   5.452
 3152POPC   PO443344  36.976  17.730   5.387
 3152POPC   GL143345  37.018  17.912   5.818
 3152POPC   GL243346  36.752  18.181   5.853
 3152POPC   C1A43347  36.967  18.029   6.289
 3152POPC   D2A43348  36.691  18.203   6.629
 3152POPC   C3A43349  36.897  18.256   7.039
 3152POPC   C4A43350  37.324  18.416   7.128
 3152POPC   C1B43351  36.582  18.489   6.181
 3152POPC   C2B43352  36.456  18.670   6.607
 3152POPC   C3B43353  36.535  18.720   7.057
 3152POPC   C4B43354  36.771  18.591   7.422
 3153POPC   NC343355  38.718  20.720   5.410
 3153POPC   PO443356  38.127  20.389   5.289
 3153POPC   GL143357  38.264  20.469   5.753
 3153POPC   GL243358  38.073  20.712   5.978
 3153POPC   C1A43359  38.565  20.676   6.098
 3153POPC   D2A43360  38.750  20.991   6.436
 3153POPC   C3A43361  38.601  20.870   6.872
 3153POPC   C4A43362  38.595  20.492   7.120
 3153POPC   C1B43363  38.125  20.314   6.217
 3153POPC   C2B43364  38.260  20.172   6.626
 3153POPC   C3B43365  38.144  20.255   7.041
 3153POPC   C4B43366  37.953  20.517   7.285
 3154POPC   NC343367  44.538  38.364   5.116
 3154POPC   PO443368   0.070  38.737   5.363
 3154POPC   GL143369  44.838  38.664   5.740
 3154POPC   GL243370  44.786  38.352   5.658
 3154POPC   C1A43371  44.624  38.793   6.150
 3154POPC   D2A43372  44.746  38.848   6.611
 3154POPC   C3A43373  44.637  38.531   6.968
 3154POPC   C4A43374  44.484  38.352   7.392
 3154POPC   C1B43375  44.822  38.318   6.112
 3154POPC   C2B43376  44.994  38.273   6.502
 3154POPC   C3B43377   0.105  38.325   6.905
 3154POPC   C4B43378  44.977  38.342   7.311
 3155POPC   NC343379  31.252  33.809   5.097
 3155POPC   PO443380  31.770  33.436   5.310
 3155POPC   GL143381  31.570  33.565   5.712
 3155POPC   GL243382  31.245  33.566   5.624
 3155POPC   C1A43383  31.405  33.852   6.090
 3155POPC   D2A43384  31.239  34.059   6.489
 3155POPC   C3A43385  31.294  33.841   6.891
 3155POPC   C4A43386  31.115  33.729   7.290
 3155POPC   C1B43387  31.183  33.397   6.050
 3155POPC   C2B43388  31.088  33.562   6.484
 3155POPC   C3B43389  31.179  33.345   6.883
 3155POPC   C4B43390  31.445  33.350   7.226
 3156POPC   NC343391   4.319  40.942   5.532
 3156POPC   PO443392   4.864  40.474   5.595
 3156POPC   GL143393   4.542  40.618   5.914
 3156POPC   GL243394   4.155  40.660   5.923
 3156POPC   C1A43395   4.431  40.665   6.357
 3156POPC   D2A43396   4.358  40.454   6.769
 3156POPC   C3A43397   4.478  40.677   7.151
 3156POPC   C4A43398   4.206  40.727   7.533
 3156POPC   C1B43399   4.134  41.046   6.163
 3156POPC   C2B43400   4.239  41.129   6.564
 3156POPC   C3B43401   4.112  40.933   6.919
 3156POPC   C4B43402   4.269  41.163   7.239
 3157POPC   NC343403  11.320  29.367   5.504
 3157POPC   PO443404  11.212  28.764   5.561
 3157POPC   GL143405  11.116  29.022   5.917
 3157POPC   GL243406  11.028  29.372   5.951
 3157POPC   C1A43407  11.113  29.047   6.370
 3157POPC   D2A43408  11.087  28.801   6.733
 3157POPC   C3A43409  11.398  28.921   7.032
 3157POPC   C4A43410  11.711  29.206   7.226
 3157POPC   C1B43411  11.184  29.574   6.324
 3157POPC   C2B43412  11.068  29.419   6.739
 3157POPC   C3B43413  11.214  29.380   7.163
 3157POPC   C4B43414  11.335  29.554   7.576
 3158POPC   NC343415   1.286   1.619   5.018
 3158POPC   PO443416   1.376   1.314   5.621
 3158POPC   GL143417   1.071   1.318   5.964
 3158POPC   GL243418   1.147   0.971   5.972
 3158POPC   C1A43419   1.036   1.333   6.395
 3158POPC   D2A43420   1.421   1.306   6.631
 3158POPC   C3A43421   1.240   1.438   7.005
 3158POPC   C4A43422   1.394   1.440   7.387
 3158POPC   C1B43423   1.231   0.864   6.396
 3158POPC   C2B43424   1.101   0.945   6.798
 3158POPC   C3B43425   1.351   0.979   7.172
 3158POPC   C4B43426   1.536   0.803   7.555
 3159POPC   NC343427  32.676   3.526   5.460
 3159POPC   PO443428  33.338   3.392   5.363
 3159POPC   GL143429  33.118   3.572   5.719
 3159POPC   GL243430  32.957   3.263   5.818
 3159POPC   C1A43431  33.019   3.640   6.176
 3159POPC   D2A43432  33.088   3.915   6.532
 3159POPC   C3A43433  32.999   3.715   6.922
 3159POPC   C4A43434  33.142   3.561   7.331
 3159POPC   C1B43435  32.764   3.180   6.235
 3159POPC   C2B43436  32.757   3.340   6.666
 3159POPC   C3B43437  32.743   3.286   7.130
 3159POPC   C4B43438  32.651   3.256   7.575
 3160POPC   NC343439  26.819  24.212   5.467
 3160POPC   PO443440  27.157  24.776   5.338
 3160POPC   GL143441  26.920  24.642   5.743
 3160POPC   GL243442  27.053  24.399   5.928
 3160POPC   C1A43443  26.608  24.517   6.098
 3160POPC   D2A43444  26.855  24.460   6.473
 3160POPC   C3A43445  26.753  24.636   6.860
 3160POPC   C4A43446  26.658  24.426   7.219
 3160POPC   C1B43447  27.266  24.226   6.256
 3160POPC   C2B43448  27.265  24.264   6.699
 3160POPC   C3B43449  27.153  24.424   7.093
 3160POPC   C4B43450  27.038  24.463   7.546
 3161POPC   NC343451   8.947  16.157   5.225
 3161POPC   PO443452   9.040  16.865   5.262
 3161POPC   GL143453   8.826  16.724   5.654
 3161POPC   GL243454   8.995  16.429   5.759
 3161POPC   C1A43455   8.882  16.796   6.110
 3161POPC   D2A43456   9.017  17.098   6.454
 3161POPC   C3A43457   9.208  16.917   6.843
 3161POPC   C4A43458   8.937  16.763   7.169
 3161POPC   C1B43459   9.164  16.359   6.181
 3161POPC   C2B43460   9.017  16.458   6.608
 3161POPC   C3B43461   9.112  16.293   7.016
 3161POPC   C4B43462   9.032  16.349   7.469
 3162POPC   NC343463  14.181  35.845   5.350
 3162POPC   PO443464  14.791  36.118   5.409
 3162POPC   GL143465  14.575  35.850   5.756
 3162POPC   GL243466  14.241  35.658   5.803
 3162POPC   C1A43467  14.452  35.979   6.209
 3162POPC   D2A43468  14.466  36.000   6.681
 3162POPC   C3A43469  14.322  36.206   7.060
 3162POPC   C4A43470  14.581  36.481   7.283
 3162POPC   C1B43471  14.249  35.503   6.206
 3162POPC   C2B43472  14.147  35.600   6.613
 3162POPC   C3B43473  14.281  35.680   7.040
 3162POPC   C4B43474  14.468  35.870   7.421
 3163POPC   NC343475  27.806  12.620   5.505
 3163POPC   PO443476  27.477  13.214   5.435
 3163POPC   GL143477  27.589  13.117   5.862
 3163POPC   GL243478  27.908  12.936   5.875
 3163POPC   C1A43479  27.654  13.040   6.306
 3163POPC   D2A43480  27.539  12.690   6.599
 3163POPC   C3A43481  27.343  12.818   6.997
 3163POPC   C4A43482  27.315  13.241   7.135
 3163POPC   C1B43483  27.949  12.656   6.233
 3163POPC   C2B43484  28.040  12.875   6.634
 3163POPC   C3B43485  27.885  12.838   7.080
 3163POPC   C4B43486  28.003  12.682   7.508
 3164POPC   NC343487  26.648  17.464   5.526
 3164POPC   PO443488  27.088  16.964   5.407
 3164POPC   GL143489  26.893  17.119   5.820
 3164POPC   GL243490  27.026  17.504   5.889
 3164POPC   C1A43491  26.772  17.265   6.268
 3164POPC   D2A43492  26.417  17.332   6.593
 3164POPC   C3A43493  26.609  17.417   7.013
 3164POPC   C4A43494  27.049  17.330   7.204
 3164POPC   C1B43495  27.186  17.602   6.344
 3164POPC   C2B43496  27.066  17.677   6.804
 3164POPC   C3B43497  27.160  17.822   7.249
 3164POPC   C4B43498  27.194  17.923   7.740
 3165POPC   NC343499  15.403  11.228   5.627
 3165POPC   PO443500  14.965  11.737   5.378
 3165POPC   GL143501  15.039  11.567   5.816
 3165POPC   GL243502  14.908  11.236   5.869
 3165POPC   C1A43503  15.308  11.571   6.214
 3165POPC   D2A43504  15.103  11.497   6.612
 3165POPC   C3A43505  15.338  11.538   6.972
 3165POPC   C4A43506  15.141  11.594   7.355
 3165POPC   C1B43507  15.151  11.098   6.235
 3165POPC   C2B43508  15.121  10.955   6.655
 3165POPC   C3B43509  15.301  11.034   7.067
 3165POPC   C4B43510  15.504  11.212   7.452
 3166POPC   NC343511  26.433  35.427   5.380
 3166POPC   PO443512  26.908  34.995   5.540
 3166POPC   GL143513  26.929  35.357   5.844
 3166POPC   GL243514  26.591  35.501   5.864
 3166POPC   C1A43515  26.852  35.283   6.309
 3166POPC   D2A43516  26.886  35.075   6.730
 3166POPC   C3A43517  26.719  35.226   7.139
 3166POPC   C4A43518  26.703  35.185   7.614
 3166POPC   C1B43519  26.574  35.703   6.264
 3166POPC   C2B43520  26.801  35.652   6.663
 3166POPC   C3B43521  26.502  35.676   7.003
 3166POPC   C4B43522  26.598  35.642   7.418
 3167POPC   NC343523  27.316  26.252   5.442
 3167POPC   PO443524  27.753  25.713   5.452
 3167POPC   GL143525  27.820  25.877   5.868
 3167POPC   GL243526  27.678  26.200   5.848
 3167POPC   C1A43527  27.890  25.915   6.304
 3167POPC   D2A43528  27.488  26.070   6.489
 3167POPC   C3A43529  27.514  26.176   6.924
 3167POPC   C4A43530  27.814  25.974   7.204
 3167POPC   C1B43531  27.834  26.403   6.234
 3167POPC   C2B43532  27.937  26.315   6.681
 3167POPC   C3B43533  27.874  26.464   7.156
 3167POPC   C4B43534  27.545  26.322   7.474
 3168POPC   NC343535   1.983  17.199   4.983
 3168POPC   PO443536   2.330  17.705   5.361
 3168POPC   GL143537   1.986  17.613   5.724
 3168POPC   GL243538   2.231  17.618   5.916
 3168POPC   C1A43539   1.806  17.471   6.152
 3168POPC   D2A43540   1.990  17.363   6.569
 3168POPC   C3A43541   1.771  17.456   6.953
 3168POPC   C4A43542   1.562  17.379   7.354
 3168POPC   C1B43543   2.450  17.565   6.287
 3168POPC   C2B43544   2.390  17.625   6.694
 3168POPC   C3B43545   2.402  17.404   7.068
 3168POPC   C4B43546   2.416  17.601   7.468
 3169POPC   NC343547  18.659  32.569   5.590
 3169POPC   PO443548  18.075  32.253   5.460
 3169POPC   GL143549  18.318  32.245   5.831
 3169POPC   GL243550  18.639  32.093   5.753
 3169POPC   C1A43551  18.284  32.401   6.250
 3169POPC   D2A43552  18.621  32.565   6.533
 3169POPC   C3A43553  18.672  32.385   6.952
 3169POPC   C4A43554  18.397  32.446   7.284
 3169POPC   C1B43555  18.701  32.116   6.186
 3169POPC   C2B43556  18.467  32.019   6.555
 3169POPC   C3B43557  18.263  32.077   6.937
 3169POPC   C4B43558  18.371  31.936   7.313
 3170POPC   NC343559   4.629  33.353   5.467
 3170POPC   PO443560   4.476  34.045   5.382
 3170POPC   GL143561   4.544  33.825   5.733
 3170POPC   GL243562   4.229  33.892   5.854
 3170POPC   C1A43563   4.591  33.690   6.163
 3170POPC   D2A43564   4.303  33.755   6.541
 3170POPC   C3A43565   4.480  33.738   6.947
 3170POPC   C4A43566   4.693  33.760   7.335
 3170POPC   C1B43567   3.932  34.150   6.111
 3170POPC   C2B43568   3.879  34.092   6.541
 3170POPC   C3B43569   4.113  34.118   6.900
 3170POPC   C4B43570   4.011  34.276   7.295
 3171POPC   NC343571  22.168  14.896   5.098
 3171POPC   PO443572  22.233  15.434   5.444
 3171POPC   GL143573  22.211  15.284   5.879
 3171POPC   GL243574  22.236  14.906   5.969
 3171POPC   C1A43575  22.148  15.175   6.371
 3171POPC   D2A43576  22.344  14.905   6.690
 3171POPC   C3A43577  22.415  15.187   7.046
 3171POPC   C4A43578  22.551  15.602   7.131
 3171POPC   C1B43579  21.915  14.736   6.241
 3171POPC   C2B43580  21.730  14.810   6.626
 3171POPC   C3B43581  21.926  14.933   6.979
 3171POPC   C4B43582  22.109  14.929   7.355
 3172POPC   NC343583  35.229  16.690   5.505
 3172POPC   PO443584  35.926  16.556   5.487
 3172POPC   GL143585  35.728  16.908   5.759
 3172POPC   GL243586  35.345  16.926   5.929
 3172POPC   C1A43587  35.753  16.944   6.217
 3172POPC   D2A43588  35.370  16.957   6.496
 3172POPC   C3A43589  35.351  16.830   6.903
 3172POPC   C4A43590  35.598  16.920   7.239
 3172POPC   C1B43591  35.041  16.698   6.207
 3172POPC   C2B43592  34.885  16.738   6.642
 3172POPC   C3B43593  34.866  16.945   7.064
 3172POPC   C4B43594  35.144  17.129   7.329
 3173POPC   NC343595  42.194   1.430   5.179
 3173POPC   PO443596  42.727   1.059   5.432
 3173POPC   GL143597  42.414   1.079   5.769
 3173POPC   GL243598  42.159   1.352   5.694
 3173POPC   C1A43599  42.253   0.949   6.185
 3173POPC   D2A43600  42.367   0.608   6.494
 3173POPC   C3A43601  42.260   0.686   6.937
 3173POPC   C4A43602  42.437   0.975   7.246
 3173POPC   C1B43603  42.322   1.491   6.093
 3173POPC   C2B43604  42.557   1.311   6.438
 3173POPC   C3B43605  42.530   1.314   6.865
 3173POPC   C4B43606  42.422   1.497   7.229
 3174POPC   NC343607  12.331  35.381   5.204
 3174POPC   PO443608  11.638  35.160   5.303
 3174POPC   GL143609  12.012  35.246   5.631
 3174POPC   GL243610  12.170  34.926   5.745
 3174POPC   C1A43611  12.211  35.353   6.076
 3174POPC   D2A43612  12.116  35.558   6.486
 3174POPC   C3A43613  12.254  35.441   6.907
 3174POPC   C4A43614  12.117  35.522   7.313
 3174POPC   C1B43615  12.327  34.838   6.178
 3174POPC   C2B43616  12.265  35.019   6.579
 3174POPC   C3B43617  12.215  34.931   7.012
 3174POPC   C4B43618  12.423  35.104   7.369
 3175POPC   NC343619  26.128  12.666   5.061
 3175POPC   PO443620  25.827  13.211   5.262
 3175POPC   GL143621  26.005  12.975   5.652
 3175POPC   GL243622  25.982  13.268   5.878
 3175POPC   C1A43623  25.932  12.792   6.094
 3175POPC   D2A43624  25.767  12.733   6.497
 3175POPC   C3A43625  25.955  12.988   6.801
 3175POPC   C4A43626  25.951  12.782   7.205
 3175POPC   C1B43627  26.350  13.087   6.109
 3175POPC   C2B43628  26.506  13.050   6.553
 3175POPC   C3B43629  26.416  12.869   6.970
 3175POPC   C4B43630  26.303  13.129   7.347
 3176POPC   NC343631  39.714  11.555   5.187
 3176POPC   PO443632  39.924  12.168   5.424
 3176POPC   GL143633  40.153  12.036   5.812
 3176POPC   GL243634  40.219  11.690   5.908
 3176POPC   C1A43635  40.232  12.203   6.225
 3176POPC   D2A43636  40.065  11.977   6.550
 3176POPC   C3A43637  40.129  12.053   6.992
 3176POPC   C4A43638  40.102  12.051   7.434
 3176POPC   C1B43639  39.807  11.646   6.094
 3176POPC   C2B43640  39.612  11.708   6.473
 3176POPC   C3B43641  39.810  11.658   6.864
 3176POPC   C4B43642  39.774  11.517   7.248
 3177POPC   NC343643  44.346   2.850   5.326
 3177POPC   PO443644  44.871   2.510   5.374
 3177POPC   GL143645  44.770   2.571   5.796
 3177POPC   GL243646  44.413   2.607   5.827
 3177POPC   C1A43647  44.898   2.785   6.202
 3177POPC   D2A43648  44.757   2.774   6.658
 3177POPC   C3A43649  44.997   2.650   7.026
 3177POPC   C4A43650  44.974   2.295   7.316
 3177POPC   C1B43651  44.455   3.012   6.077
 3177POPC   C2B43652  44.505   3.193   6.502
 3177POPC   C3B43653  44.381   3.003   6.904
 3177POPC   C4B43654  44.620   2.919   7.252
 3178POPC   NC343655  26.660  42.561   5.439
 3178POPC   PO443656  27.066  42.075   5.354
 3178POPC   GL143657  26.818  42.189   5.742
 3178POPC   GL243658  26.945  42.561   5.843
 3178POPC   C1A43659  26.610  41.997   6.097
 3178POPC   D2A43660  26.574  41.967   6.570
 3178POPC   C3A43661  26.920  42.119   6.856
 3178POPC   C4A43662  26.786  42.212   7.284
 3178POPC   C1B43663  26.679  42.492   6.176
 3178POPC   C2B43664  26.669  42.472   6.605
 3178POPC   C3B43665  26.654  42.628   7.029
 3178POPC   C4B43666  26.872  42.724   7.432
 3179POPC   NC343667  14.904  34.772   5.227
 3179POPC   PO443668  15.419  34.336   5.461
 3179POPC   GL143669  15.218  34.645   5.721
 3179POPC   GL243670  14.912  34.872   5.736
 3179POPC   C1A43671  15.399  34.730   6.127
 3179POPC   D2A43672  15.409  34.849   6.568
 3179POPC   C3A43673  15.277  34.505   6.817
 3179POPC   C4A43674  15.259  34.520   7.235
 3179POPC   C1B43675  14.876  34.668   6.149
 3179POPC   C2B43676  14.843  34.754   6.610
 3179POPC   C3B43677  14.792  34.560   7.044
 3179POPC   C4B43678  14.818  34.552   7.522
 3180POPC   NC343679  33.925  41.744   5.477
 3180POPC   PO443680  33.502  41.287   5.201
 3180POPC   GL143681  33.996  41.266   5.682
 3180POPC   GL243682  34.012  41.618   5.938
 3180POPC   C1A43683  33.919  41.215   6.202
 3180POPC   D2A43684  34.063  41.509   6.558
 3180POPC   C3A43685  33.881  41.448   7.001
 3180POPC   C4A43686  33.791  41.258   7.429
 3180POPC   C1B43687  33.675  41.717   6.252
 3180POPC   C2B43688  33.517  41.593   6.657
 3180POPC   C3B43689  33.382  41.740   7.058
 3180POPC   C4B43690  33.642  41.756   7.430
 3181POPC   NC343691  34.938  29.397   5.443
 3181POPC   PO443692  35.541  29.098   5.300
 3181POPC   GL143693  35.263  29.091   5.701
 3181POPC   GL243694  35.305  29.423   5.783
 3181POPC   C1A43695  35.209  28.905   6.132
 3181POPC   D2A43696  35.432  29.020   6.522
 3181POPC   C3A43697  35.302  28.975   6.929
 3181POPC   C4A43698  35.501  29.017   7.307
 3181POPC   C1B43699  35.317  29.410   6.206
 3181POPC   C2B43700  35.327  29.543   6.643
 3181POPC   C3B43701  35.256  29.459   7.098
 3181POPC   C4B43702  35.269  29.401   7.566
 3182POPC   NC343703   9.667  37.354   5.253
 3182POPC   PO443704  10.239  37.645   5.409
 3182POPC   GL143705   9.911  37.598   5.724
 3182POPC   GL243706   9.576  37.459   5.737
 3182POPC   C1A43707   9.822  37.703   6.161
 3182POPC   D2A43708   9.617  37.779   6.553
 3182POPC   C3A43709   9.719  37.632   6.976
 3182POPC   C4A43710   9.476  37.971   7.116
 3182POPC   C1B43711   9.473  37.193   6.088
 3182POPC   C2B43712   9.507  37.274   6.519
 3182POPC   C3B43713   9.527  37.166   6.945
 3182POPC   C4B43714   9.704  37.249   7.375
 3183POPC   NC343715  29.396  17.210   5.626
 3183POPC   PO443716  29.041  17.665   5.249
 3183POPC   GL143717  29.081  17.651   5.759
 3183POPC   GL243718  29.020  17.324   5.955
 3183POPC   C1A43719  28.993  17.707   6.245
 3183POPC   D2A43720  29.039  17.437   6.627
 3183POPC   C3A43721  29.058  17.649   7.042
 3183POPC   C4A43722  28.900  17.612   7.481
 3183POPC   C1B43723  29.239  17.090   6.237
 3183POPC   C2B43724  29.200  16.837   6.538
 3183POPC   C3B43725  29.302  17.054   6.895
 3183POPC   C4B43726  29.204  17.227   7.304
 3184POPC   NC343727   8.614  32.732   5.477
 3184POPC   PO443728   8.305  33.416   5.447
 3184POPC   GL143729   8.406  33.225   5.805
 3184POPC   GL243730   8.271  32.895   5.817
 3184POPC   C1A43731   8.200  33.252   6.181
 3184POPC   D2A43732   7.948  33.119   6.511
 3184POPC   C3A43733   7.992  33.259   6.884
 3184POPC   C4A43734   8.290  33.227   7.177
 3184POPC   C1B43735   8.130  32.730   6.181
 3184POPC   C2B43736   8.243  32.728   6.611
 3184POPC   C3B43737   8.166  32.765   7.021
 3184POPC   C4B43738   8.230  32.808   7.488
 3185POPC   NC343739  31.776  42.761   5.368
 3185POPC   PO443740  31.269  43.169   5.470
 3185POPC   GL143741  31.595  43.127   5.785
 3185POPC   GL243742  31.655  42.771   5.891
 3185POPC   C1A43743  31.403  43.121   6.198
 3185POPC   D2A43744  31.257  42.991   6.614
 3185POPC   C3A43745  31.412  43.321   6.878
 3185POPC   C4A43746  31.609  43.435   7.241
 3185POPC   C1B43747  31.620  42.677   6.349
 3185POPC   C2B43748  31.661  42.695   6.796
 3185POPC   C3B43749  31.511  42.894   7.167
 3185POPC   C4B43750  31.566  42.692   7.571
 3186POPC   NC343751  31.115  20.794   5.390
 3186POPC   PO443752  30.972  20.193   5.409
 3186POPC   GL143753  30.881  20.478   5.764
 3186POPC   GL243754  30.670  20.749   5.668
 3186POPC   C1A43755  30.998  20.594   6.207
 3186POPC   D2A43756  31.153  20.520   6.620
 3186POPC   C3A43757  30.941  20.698   6.981
 3186POPC   C4A43758  31.023  20.909   7.399
 3186POPC   C1B43759  30.506  20.703   6.099
 3186POPC   C2B43760  30.635  20.842   6.534
 3186POPC   C3B43761  30.433  20.772   6.945
 3186POPC   C4B43762  30.174  20.683   7.301
 3187POPC   NC343763  31.691  12.274   5.216
 3187POPC   PO443764  31.274  11.804   5.194
 3187POPC   GL143765  31.322  11.941   5.680
 3187POPC   GL243766  31.176  12.271   5.818
 3187POPC   C1A43767  31.573  12.037   6.099
 3187POPC   D2A43768  31.506  11.856   6.547
 3187POPC   C3A43769  31.617  12.030   6.981
 3187POPC   C4A43770  31.371  12.121   7.374
 3187POPC   C1B43771  31.110  12.136   6.254
 3187POPC   C2B43772  31.318  12.313   6.624
 3187POPC   C3B43773  31.255  12.479   7.023
 3187POPC   C4B43774  30.890  12.429   7.253
 3188POPC   NC343775   1.848   5.347   5.563
 3188POPC   PO443776   1.730   4.634   5.443
 3188POPC   GL143777   1.760   4.870   5.870
 3188POPC   GL243778   2.081   4.996   5.912
 3188POPC   C1A43779   1.787   5.197   6.247
 3188POPC   D2A43780   1.668   5.348   6.657
 3188POPC   C3A43781   1.944   5.232   7.008
 3188POPC   C4A43782   1.982   4.866   7.281
 3188POPC   C1B43783   2.310   5.173   6.290
 3188POPC   C2B43784   2.375   5.126   6.729
 3188POPC   C3B43785   2.424   5.139   7.168
 3188POPC   C4B43786   2.370   5.083   7.615
 3189POPC   NC343787  31.995  12.913   5.626
 3189POPC   PO443788  32.599  13.076   5.591
 3189POPC   GL143789  32.401  12.800   5.952
 3189POPC   GL243790  32.085  12.928   6.116
 3189POPC   C1A43791  32.377  12.675   6.438
 3189POPC   D2A43792  32.653  12.631   6.818
 3189POPC   C3A43793  32.476  12.851   7.135
 3189POPC   C4A43794  32.061  12.921   7.200
 3189POPC   C1B43795  32.451  13.167   6.278
 3189POPC   C2B43796  32.584  13.137   6.688
 3189POPC   C3B43797  32.526  13.353   7.078
 3189POPC   C4B43798  32.346  13.281   7.501
 3190POPC   NC343799  36.268   2.606   5.528
 3190POPC   PO443800  35.693   2.956   5.368
 3190POPC   GL143801  35.939   2.911   5.794
 3190POPC   GL243802  35.911   2.616   5.976
 3190POPC   C1A43803  36.249   3.000   6.160
 3190POPC   D2A43804  36.397   2.863   6.604
 3190POPC   C3A43805  36.258   3.056   7.061
 3190POPC   C4A43806  36.264   3.111   7.578
 3190POPC   C1B43807  36.292   2.434   6.172
 3190POPC   C2B43808  36.427   2.268   6.572
 3190POPC   C3B43809  36.330   2.493   6.964
 3190POPC   C4B43810  35.887   2.522   7.096
 3191POPC   NC343811  41.590   5.027   5.450
 3191POPC   PO443812  41.132   4.547   5.439
 3191POPC   GL143813  41.285   4.842   5.811
 3191POPC   GL243814  41.488   5.179   5.912
 3191POPC   C1A43815  41.344   4.843   6.255
 3191POPC   D2A43816  41.669   4.834   6.556
 3191POPC   C3A43817  41.534   4.869   6.982
 3191POPC   C4A43818  41.693   5.233   7.148
 3191POPC   C1B43819  41.327   5.375   6.275
 3191POPC   C2B43820  41.387   5.286   6.664
 3191POPC   C3B43821  41.214   5.390   7.001
 3191POPC   C4B43822  41.192   5.130   7.300
 3192POPC   NC343823  34.013  30.670   5.412
 3192POPC   PO443824  33.351  30.713   5.574
 3192POPC   GL143825  33.702  30.640   5.867
 3192POPC   GL243826  34.025  30.394   5.864
 3192POPC   C1A43827  33.722  30.817   6.281
 3192POPC   D2A43828  33.580  30.657   6.673
 3192POPC   C3A43829  33.590  30.939   7.039
 3192POPC   C4A43830  33.915  31.083   7.313
 3192POPC   C1B43831  33.973  30.365   6.327
 3192POPC   C2B43832  34.092  30.629   6.656
 3192POPC   C3B43833  34.001  30.636   7.073
 3192POPC   C4B43834  33.989  30.356   7.378
 3193POPC   NC343835  12.439  10.736   5.498
 3193POPC   PO443836  12.951  10.286   5.430
 3193POPC   GL143837  12.743  10.450   5.785
 3193POPC   GL243838  12.911  10.729   5.797
 3193POPC   C1A43839  12.738  10.397   6.218
 3193POPC   D2A43840  13.051  10.282   6.549
 3193POPC   C3A43841  12.915  10.223   6.979
 3193POPC   C4A43842  12.918  10.337   7.434
 3193POPC   C1B43843  13.114  10.707   6.220
 3193POPC   C2B43844  12.936  10.781   6.656
 3193POPC   C3B43845  13.037  10.706   7.110
 3193POPC   C4B43846  13.046  10.826   7.585
 3194POPC   NC343847  12.037  37.189   5.255
 3194POPC   PO443848  12.291  36.539   5.347
 3194POPC   GL143849  12.185  36.792   5.719
 3194POPC   GL243850  12.132  37.160   5.768
 3194POPC   C1A43851  12.175  36.821   6.171
 3194POPC   D2A43852  12.297  37.065   6.526
 3194POPC   C3A43853  12.130  36.920   6.901
 3194POPC   C4A43854  12.190  36.712   7.263
 3194POPC   C1B43855  11.995  37.315   6.185
 3194POPC   C2B43856  11.805  37.184   6.565
 3194POPC   C3B43857  11.830  37.311   7.005
 3194POPC   C4B43858  11.912  37.121   7.412
 3195POPC   NC343859  44.456  21.635   5.386
 3195POPC   PO443860  44.533  21.001   5.167
 3195POPC   GL143861  44.570  21.157   5.641
 3195POPC   GL243862  44.740  21.470   5.763
 3195POPC   C1A43863  44.676  21.077   6.118
 3195POPC   D2A43864  44.578  21.233   6.560
 3195POPC   C3A43865  44.576  20.975   6.948
 3195POPC   C4A43866  44.326  21.027   7.351
 3195POPC   C1B43867  44.956  21.655   6.124
 3195POPC   C2B43868  44.888  21.629   6.577
 3195POPC   C3B43869  44.644  21.616   6.948
 3195POPC   C4B43870  44.804  21.775   7.386
 3196POPC   NC343871  39.131  21.878   5.549
 3196POPC   PO443872  39.278  22.516   5.407
 3196POPC   GL143873  39.239  22.314   5.843
 3196POPC   GL243874  39.450  22.035   5.913
 3196POPC   C1A43875  39.136  22.177   6.309
 3196POPC   D2A43876  39.324  22.008   6.730
 3196POPC   C3A43877  39.149  22.174   7.115
 3196POPC   C4A43878  38.932  22.553   7.225
 3196POPC   C1B43879  39.411  21.760   6.240
 3196POPC   C2B43880  39.598  21.572   6.586
 3196POPC   C3B43881  39.769  21.755   6.932
 3196POPC   C4B43882  39.538  21.901   7.310
 3197POPC   NC343883  16.633  16.717   5.244
 3197POPC   PO443884  17.364  16.829   5.412
 3197POPC   GL143885  17.030  16.663   5.655
 3197POPC   GL243886  16.771  16.900   5.734
 3197POPC   C1A43887  16.960  16.578   6.118
 3197POPC   D2A43888  16.839  16.754   6.564
 3197POPC   C3A43889  16.930  16.573   6.997
 3197POPC   C4A43890  17.239  16.518   7.347
 3197POPC   C1B43891  16.577  16.912   6.150
 3197POPC   C2B43892  16.367  16.942   6.570
 3197POPC   C3B43893  16.514  16.870   6.991
 3197POPC   C4B43894  16.397  16.800   7.407
 3198POPC   NC343895  29.212  36.982   5.276
 3198POPC   PO443896  28.938  36.401   5.342
 3198POPC   GL143897  29.090  36.662   5.814
 3198POPC   GL243898  29.215  36.993   5.826
 3198POPC   C1A43899  29.355  36.675   6.205
 3198POPC   D2A43900  29.313  36.895   6.605
 3198POPC   C3A43901  29.450  36.635   6.956
 3198POPC   C4A43902  29.412  36.734   7.388
 3198POPC   C1B43903  28.961  37.015   6.215
 3198POPC   C2B43904  28.784  36.855   6.620
 3198POPC   C3B43905  28.968  36.877   7.039
 3198POPC   C4B43906  28.715  37.191   7.226
 3199POPC   NC343907  28.604  22.052   5.286
 3199POPC   PO443908  28.016  22.136   5.443
 3199POPC   GL143909  28.312  22.091   5.775
 3199POPC   GL243910  28.382  21.746   5.764
 3199POPC   C1A43911  28.445  22.250   6.196
 3199POPC   D2A43912  28.462  22.101   6.652
 3199POPC   C3A43913  28.355  22.431   6.975
 3199POPC   C4A43914  28.629  22.457   7.355
 3199POPC   C1B43915  28.192  21.793   6.194
 3199POPC   C2B43916  28.024  21.791   6.608
 3199POPC   C3B43917  28.057  21.977   6.984
 3199POPC   C4B43918  28.405  22.023   7.251
 3200POPC   NC343919   4.426  24.641   5.193
 3200POPC   PO443920   3.888  24.841   5.572
 3200POPC   GL143921   4.278  24.618   5.779
 3200POPC   GL243922   4.406  24.273   5.874
 3200POPC   C1A43923   4.469  24.623   6.218
 3200POPC   D2A43924   4.612  24.441   6.589
 3200POPC   C3A43925   4.407  24.573   6.934
 3200POPC   C4A43926   4.531  24.834   7.240
 3200POPC   C1B43927   4.044  24.315   6.138
 3200POPC   C2B43928   4.063  24.482   6.541
 3200POPC   C3B43929   4.018  24.228   6.892
 3200POPC   C4B43930   4.168  24.314   7.308
 3201POPC   NC343931   5.621   2.732   5.543
 3201POPC   PO443932   6.148   3.004   5.662
 3201POPC   GL143933   5.863   2.840   5.990
 3201POPC   GL243934   5.818   2.487   5.944
 3201POPC   C1A43935   5.642   2.928   6.387
 3201POPC   D2A43936   5.420   3.004   6.761
 3201POPC   C3A43937   5.588   2.912   7.133
 3201POPC   C4A43938   5.704   2.512   7.212
 3201POPC   C1B43939   5.930   2.510   6.386
 3201POPC   C2B43940   5.918   2.705   6.781
 3201POPC   C3B43941   6.195   2.640   7.132
 3201POPC   C4B43942   6.497   2.478   7.453
 3202POPC   NC343943  22.635   2.055   5.298
 3202POPC   PO443944  23.233   2.081   5.496
 3202POPC   GL143945  22.825   2.064   5.782
 3202POPC   GL243946  22.467   2.188   5.764
 3202POPC   C1A43947  22.704   1.846   6.171
 3202POPC   D2A43948  22.805   1.600   6.567
 3202POPC   C3A43949  22.972   1.786   6.966
 3202POPC   C4A43950  23.387   1.762   7.213
 3202POPC   C1B43951  22.382   2.261   6.214
 3202POPC   C2B43952  22.514   2.078   6.631
 3202POPC   C3B43953  22.547   2.049   7.095
 3202POPC   C4B43954  22.591   2.080   7.556
 3203POPC   NC343955  33.114  30.320   5.674
 3203POPC   PO443956  32.887  30.902   5.345
 3203POPC   GL143957  32.967  30.809   5.865
 3203POPC   GL243958  32.785  30.886   6.163
 3203POPC   C1A43959  33.216  30.621   6.261
 3203POPC   D2A43960  33.169  30.345   6.635
 3203POPC   C3A43961  33.262  30.490   7.043
 3203POPC   C4A43962  33.097  30.460   7.427
 3203POPC   C1B43963  33.099  31.102   6.393
 3203POPC   C2B43964  33.146  30.919   6.780
 3203POPC   C3B43965  33.079  30.937   7.216
 3203POPC   C4B43966  33.012  31.214   7.515
 3204POPC   NC343967  32.345  24.298   5.376
 3204POPC   PO443968  31.882  24.808   5.689
 3204POPC   GL143969  32.189  24.514   5.931
 3204POPC   GL243970  32.433  24.261   5.899
 3204POPC   C1A43971  32.176  24.268   6.344
 3204POPC   D2A43972  31.990  24.461   6.674
 3204POPC   C3A43973  32.143  24.505   7.059
 3204POPC   C4A43974  31.894  24.767   7.256
 3204POPC   C1B43975  32.592  24.540   6.243
 3204POPC   C2B43976  32.480  24.609   6.669
 3204POPC   C3B43977  32.647  24.409   7.047
 3204POPC   C4B43978  32.503  24.525   7.468
 3205POPC   NC343979  39.433   5.656   5.377
 3205POPC   PO443980  39.054   6.150   5.454
 3205POPC   GL143981  39.233   6.069   5.854
 3205POPC   GL243982  39.293   5.717   5.876
 3205POPC   C1A43983  39.155   5.974   6.310
 3205POPC   D2A43984  38.828   5.771   6.568
 3205POPC   C3A43985  38.969   5.742   6.980
 3205POPC   C4A43986  39.066   6.083   7.220
 3205POPC   C1B43987  39.055   5.487   6.189
 3205POPC   C2B43988  39.257   5.453   6.589
 3205POPC   C3B43989  39.577   5.415   6.911
 3205POPC   C4B43990  39.269   5.431   7.240
 3206POPC   NC343991  28.720  20.116   5.285
 3206POPC   PO443992  28.113  19.889   5.392
 3206POPC   GL143993  28.397  20.003   5.706
 3206POPC   GL243994  28.600  19.706   5.826
 3206POPC   C1A43995  28.297  19.989   6.141
 3206POPC   D2A43996  28.516  19.908   6.516
 3206POPC   C3A43997  28.271  19.847   6.884
 3206POPC   C4A43998  28.421  19.918   7.266
 3206POPC   C1B43999  28.835  19.542   6.216
 3206POPC   C2B44000  28.797  19.511   6.676
 3206POPC   C3B44001  28.591  19.480   7.072
 3206POPC   C4B44002  28.666  19.490   7.541
 3207POPC   NC344003  18.809   3.386   5.335
 3207POPC   PO444004  19.352   3.735   5.287
 3207POPC   GL144005  19.263   3.403   5.654
 3207POPC   GL244006  19.320   3.041   5.810
 3207POPC   C1A44007  19.069   3.443   6.087
 3207POPC   D2A44008  19.066   3.242   6.531
 3207POPC   C3A44009  18.996   3.505   6.887
 3207POPC   C4A44010  19.203   3.723   7.228
 3207POPC   C1B44011  18.907   2.973   6.111
 3207POPC   C2B44012  18.586   3.130   6.461
 3207POPC   C3B44013  18.534   3.271   6.909
 3207POPC   C4B44014  18.685   3.521   7.289
 3208POPC   NC344015  30.267  40.349   5.435
 3208POPC   PO444016  29.713  39.981   5.398
 3208POPC   GL144017  29.760  39.988   5.817
 3208POPC   GL244018  30.143  39.991   5.839
 3208POPC   C1A44019  29.842  39.816   6.226
 3208POPC   D2A44020  29.928  39.652   6.621
 3208POPC   C3A44021  29.784  39.967   6.925
 3208POPC   C4A44022  29.776  40.367   7.160
 3208POPC   C1B44023  30.306  40.023   6.294
 3208POPC   C2B44024  30.279  40.005   6.758
 3208POPC   C3B44025  30.215  40.032   7.221
 3208POPC   C4B44026  30.112  40.336   7.554
 3209POPC   NC344027  37.568  14.139   5.566
 3209POPC   PO444028  37.860  14.784   5.413
 3209POPC   GL144029  37.789  14.567   5.838
 3209POPC   GL244030  37.539  14.337   6.031
 3209POPC   C1A44031  37.779  14.712   6.282
 3209POPC   D2A44032  37.921  14.676   6.693
 3209POPC   C3A44033  37.672  14.589   7.044
 3209POPC   C4A44034  37.690  14.498   7.479
 3209POPC   C1B44035  37.911  14.191   6.242
 3209POPC   C2B44036  37.937  14.014   6.693
 3209POPC   C3B44037  37.833  14.094   7.169
 3209POPC   C4B44038  37.902  14.066   7.635
 3210POPC   NC344039  37.140  33.376   5.386
 3210POPC   PO444040  37.673  32.904   5.411
 3210POPC   GL144041  37.747  33.140   5.800
 3210POPC   GL244042  37.376  33.117   5.813
 3210POPC   C1A44043  37.894  33.387   6.200
 3210POPC   D2A44044  37.906  33.199   6.623
 3210POPC   C3A44045  37.658  33.232   6.979
 3210POPC   C4A44046  37.345  33.200   7.255
 3210POPC   C1B44047  37.486  33.114   6.248
 3210POPC   C2B44048  37.451  32.925   6.610
 3210POPC   C3B44049  37.745  32.724   6.842
 3210POPC   C4B44050  37.963  32.710   7.200
 3211POPC   NC344051  34.405  42.482   5.638
 3211POPC   PO444052  34.639  43.004   5.376
 3211POPC   GL144053  34.689  43.032   5.837
 3211POPC   GL244054  34.818  42.684   5.856
 3211POPC   C1A44055  34.478  43.157   6.270
 3211POPC   D2A44056  34.273  43.063   6.693
 3211POPC   C3A44057  34.543  43.217   6.989
 3211POPC   C4A44058  34.615  43.426   7.367
 3211POPC   C1B44059  34.663  42.656   6.263
 3211POPC   C2B44060  34.678  42.777   6.660
 3211POPC   C3B44061  34.535  42.689   7.050
 3211POPC   C4B44062  34.611  42.915   7.410
 3212POPC   NC344063  22.944  12.397   5.482
 3212POPC   PO444064  23.155  11.813   5.195
 3212POPC   GL144065  22.942  11.898   5.657
 3212POPC   GL244066  23.180  11.858   5.961
 3212POPC   C1A44067  22.708  11.762   6.050
 3212POPC   D2A44068  22.955  11.631   6.424
 3212POPC   C3A44069  22.886  11.764   6.874
 3212POPC   C4A44070  22.842  12.193   7.111
 3212POPC   C1B44071  23.020  12.141   6.251
 3212POPC   C2B44072  23.150  12.156   6.665
 3212POPC   C3B44073  23.380  12.223   7.013
 3212POPC   C4B44074  23.227  12.449   7.341
 3213POPC   NC344075  31.748  16.746   5.747
 3213POPC   PO444076  32.263  16.870   5.306
 3213POPC   GL144077  32.369  16.766   5.772
 3213POPC   GL244078  32.226  16.429   5.777
 3213POPC   C1A44079  32.398  16.885   6.242
 3213POPC   D2A44080  32.582  16.890   6.675
 3213POPC   C3A44081  32.433  17.048   7.069
 3213POPC   C4A44082  32.184  16.905   7.442
 3213POPC   C1B44083  32.496  16.385   6.146
 3213POPC   C2B44084  32.386  16.374   6.601
 3213POPC   C3B44085  32.244  16.552   7.026
 3213POPC   C4B44086  32.170  16.403   7.485
 3214POPC   NC344087   2.404  39.547   5.493
 3214POPC   PO444088   1.762  39.588   5.135
 3214POPC   GL144089   1.891  39.439   5.592
 3214POPC   GL244090   1.751  39.728   5.734
 3214POPC   C1A44091   2.097  39.355   6.058
 3214POPC   D2A44092   1.951  39.290   6.526
 3214POPC   C3A44093   2.192  39.227   6.918
 3214POPC   C4A44094   2.235  38.945   7.286
 3214POPC   C1B44095   1.633  39.521   6.145
 3214POPC   C2B44096   1.483  39.542   6.568
 3214POPC   C3B44097   1.619  39.379   6.980
 3214POPC   C4B44098   1.626  39.627   7.353
 3215POPC   NC344099  15.583  31.391   5.397
 3215POPC   PO444100  15.059  31.044   5.459
 3215POPC   GL144101  15.121  31.495   5.756
 3215POPC   GL244102  15.461  31.599   5.853
 3215POPC   C1A44103  15.104  31.739   6.167
 3215POPC   D2A44104  15.075  31.625   6.585
 3215POPC   C3A44105  15.265  31.793   6.956
 3215POPC   C4A44106  15.421  31.542   7.283
 3215POPC   C1B44107  15.461  31.390   6.292
 3215POPC   C2B44108  15.483  31.345   6.764
 3215POPC   C3B44109  15.604  31.095   7.139
 3215POPC   C4B44110  15.653  31.208   7.620
 3216POPC   NC344111   8.397   1.315   5.506
 3216POPC   PO444112   7.767   1.181   5.433
 3216POPC   GL144113   8.006   1.149   5.818
 3216POPC   GL244114   8.231   0.885   5.905
 3216POPC   C1A44115   8.164   1.363   6.172
 3216POPC   D2A44116   8.269   1.393   6.598
 3216POPC   C3A44117   8.055   1.248   6.956
 3216POPC   C4A44118   8.250   1.396   7.299
 3216POPC   C1B44119   8.325   0.884   6.327
 3216POPC   C2B44120   8.444   0.901   6.743
 3216POPC   C3B44121   8.197   0.755   7.062
 3216POPC   C4B44122   8.030   0.966   7.411
 3217POPC   NC344123  33.804  11.093   5.210
 3217POPC   PO444124  33.482  11.529   5.377
 3217POPC   GL144125  33.760  11.382   5.752
 3217POPC   GL244126  33.942  11.051   5.807
 3217POPC   C1A44127  33.730  11.459   6.227
 3217POPC   D2A44128  33.495  11.509   6.634
 3217POPC   C3A44129  33.720  11.546   7.036
 3217POPC   C4A44130  33.689  11.579   7.488
 3217POPC   C1B44131  34.045  11.063   6.291
 3217POPC   C2B44132  33.863  11.152   6.715
 3217POPC   C3B44133  33.929  11.093   7.176
 3217POPC   C4B44134  33.968  10.974   7.631
 3218POPC   NC344135  28.736  39.937   5.524
 3218POPC   PO444136  28.121  39.859   5.425
 3218POPC   GL144137  28.298  39.754   5.784
 3218POPC   GL244138  28.405  40.084   5.870
 3218POPC   C1A44139  28.378  39.692   6.216
 3218POPC   D2A44140  28.410  39.951   6.567
 3218POPC   C3A44141  28.195  39.889   6.941
 3218POPC   C4A44142  28.312  39.745   7.329
 3218POPC   C1B44143  28.519  40.304   6.202
 3218POPC   C2B44144  28.436  40.473   6.563
 3218POPC   C3B44145  28.482  40.321   6.928
 3218POPC   C4B44146  28.516  40.197   7.320
 3219POPC   NC344147  16.773   4.126   4.978
 3219POPC   PO444148  16.797   4.367   5.367
 3219POPC   GL144149  16.662   4.316   5.803
 3219POPC   GL244150  16.745   4.010   5.937
 3219POPC   C1A44151  16.456   4.370   6.229
 3219POPC   D2A44152  16.479   4.238   6.663
 3219POPC   C3A44153  16.624   4.418   7.034
 3219POPC   C4A44154  16.649   4.051   7.333
 3219POPC   C1B44155  16.873   4.100   6.386
 3219POPC   C2B44156  16.921   4.028   6.863
 3219POPC   C3B44157  17.089   4.309   7.217
 3219POPC   C4B44158  17.193   4.675   7.493
 3220POPC   NC344159  37.399  31.058   5.613
 3220POPC   PO444160  36.753  30.551   5.494
 3220POPC   GL144161  36.935  30.546   5.851
 3220POPC   GL244162  36.987  30.882   5.830
 3220POPC   C1A44163  36.874  30.641   6.297
 3220POPC   D2A44164  37.075  30.377   6.602
 3220POPC   C3A44165  37.025  30.515   7.000
 3220POPC   C4A44166  36.927  30.425   7.438
 3220POPC   C1B44167  37.046  31.114   6.171
 3220POPC   C2B44168  36.872  31.116   6.566
 3220POPC   C3B44169  37.037  31.040   6.930
 3220POPC   C4B44170  36.839  30.892   7.252
 3221POPC   NC344171   7.506  29.608   5.362
 3221POPC   PO444172   7.138  30.142   5.504
 3221POPC   GL144173   7.370  29.840   5.801
 3221POPC   GL244174   7.756  29.899   5.737
 3221POPC   C1A44175   7.258  29.596   6.202
 3221POPC   D2A44176   6.988  29.621   6.610
 3221POPC   C3A44177   7.240  29.761   6.970
 3221POPC   C4A44178   7.246  29.648   7.436
 3221POPC   C1B44179   7.741  29.828   6.170
 3221POPC   C2B44180   7.544  30.044   6.517
 3221POPC   C3B44181   7.676  30.174   6.923
 3221POPC   C4B44182   7.643  29.908   7.235
 3222POPC   NC344183  36.202   1.837   5.422
 3222POPC   PO444184  35.877   2.376   5.503
 3222POPC   GL144185  36.028   2.135   5.845
 3222POPC   GL244186  36.283   1.920   5.910
 3222POPC   C1A44187  35.950   2.050   6.289
 3222POPC   D2A44188  35.798   1.851   6.661
 3222POPC   C3A44189  36.076   2.048   6.957
 3222POPC   C4A44190  36.521   2.013   7.014
 3222POPC   C1B44191  36.486   1.853   6.254
 3222POPC   C2B44192  36.313   1.719   6.602
 3222POPC   C3B44193  36.127   1.558   6.946
 3222POPC   C4B44194  36.272   1.692   7.321
 3223POPC   NC344195  19.661   7.615   5.504
 3223POPC   PO444196  20.281   7.493   5.410
 3223POPC   GL144197  20.077   7.444   5.804
 3223POPC   GL244198  20.157   7.098   5.909
 3223POPC   C1A44199  19.904   7.579   6.222
 3223POPC   D2A44200  19.915   7.741   6.676
 3223POPC   C3A44201  19.718   7.541   7.037
 3223POPC   C4A44202  19.924   7.317   7.343
 3223POPC   C1B44203  20.022   7.090   6.391
 3223POPC   C2B44204  19.783   7.056   6.827
 3223POPC   C3B44205  19.581   6.952   7.250
 3223POPC   C4B44206  19.808   6.947   7.667
 3224POPC   NC344207  17.183  13.396   5.579
 3224POPC   PO444208  17.736  13.581   5.237
 3224POPC   GL144209  17.615  13.626   5.710
 3224POPC   GL244210  17.656  13.266   5.770
 3224POPC   C1A44211  17.393  13.657   6.159
 3224POPC   D2A44212  17.152  13.721   6.552
 3224POPC   C3A44213  17.262  13.559   6.976
 3224POPC   C4A44214  17.397  13.741   7.368
 3224POPC   C1B44215  17.592  13.149   6.186
 3224POPC   C2B44216  17.403  13.250   6.571
 3224POPC   C3B44217  17.598  13.176   6.972
 3224POPC   C4B44218  17.450  13.089   7.375
 3225POPC   NC344219  38.301  28.302   5.415
 3225POPC   PO444220  37.949  27.971   5.853
 3225POPC   GL144221  38.340  28.236   5.974
 3225POPC   GL244222  38.576  28.079   6.180
 3225POPC   C1A44223  38.465  28.526   6.362
 3225POPC   D2A44224  38.436  28.410   6.817
 3225POPC   C3A44225  38.723  28.440   7.178
 3225POPC   C4A44226  38.548  28.402   7.596
 3225POPC   C1B44227  38.168  28.112   6.443
 3225POPC   C2B44228  37.915  27.814   6.678
 3225POPC   C3B44229  38.086  27.748   7.065
 3225POPC   C4B44230  38.415  28.027   7.237
 3226POPC   NC344231   4.163  27.121   5.259
 3226POPC   PO444232   4.619  26.679   5.442
 3226POPC   GL144233   4.465  26.989   5.699
 3226POPC   GL244234   4.125  26.887   5.776
 3226POPC   C1A44235   4.462  27.011   6.151
 3226POPC   D2A44236   4.435  26.712   6.491
 3226POPC   C3A44237   4.532  26.930   6.859
 3226POPC   C4A44238   4.620  26.702   7.218
 3226POPC   C1B44239   4.044  26.670   6.161
 3226POPC   C2B44240   3.928  26.585   6.616
 3226POPC   C3B44241   4.112  26.691   7.042
 3226POPC   C4B44242   4.125  26.633   7.516
 3227POPC   NC344243   8.028  30.284   5.433
 3227POPC   PO444244   7.965  29.593   5.385
 3227POPC   GL144245   8.280  29.754   5.702
 3227POPC   GL244246   8.487  30.063   5.651
 3227POPC   C1A44247   8.265  29.918   6.137
 3227POPC   D2A44248   8.052  30.060   6.527
 3227POPC   C3A44249   8.276  29.934   6.884
 3227POPC   C4A44250   8.128  30.021   7.267
 3227POPC   C1B44251   8.616  30.277   6.062
 3227POPC   C2B44252   8.548  30.157   6.512
 3227POPC   C3B44253   8.708  30.224   6.935
 3227POPC   C4B44254   8.537  30.307   7.278
 3228POPC   NC344255  25.903  22.903   4.975
 3228POPC   PO444256  25.945  22.715   5.599
 3228POPC   GL144257  25.931  23.061   5.922
 3228POPC   GL244258  26.270  23.164   6.026
 3228POPC   C1A44259  25.883  23.125   6.390
 3228POPC   D2A44260  26.088  23.265   6.793
 3228POPC   C3A44261  25.837  23.046   7.107
 3228POPC   C4A44262  25.752  22.591   7.178
 3228POPC   C1B44263  26.236  22.751   6.244
 3228POPC   C2B44264  26.099  22.703   6.685
 3228POPC   C3B44265  26.311  22.862   7.050
 3228POPC   C4B44266  26.459  22.780   7.473
 3229POPC   NC344267  10.610  42.571   5.561
 3229POPC   PO444268  10.674  41.856   5.487
 3229POPC   GL144269  10.460  42.050   5.798
 3229POPC   GL244270  10.735  42.209   5.913
 3229POPC   C1A44271  10.311  42.190   6.218
 3229POPC   D2A44272  10.534  42.451   6.522
 3229POPC   C3A44273  10.472  42.376   6.945
 3229POPC   C4A44274  10.178  42.386   7.284
 3229POPC   C1B44275  10.969  42.439   6.209
 3229POPC   C2B44276  10.989  42.701   6.576
 3229POPC   C3B44277  10.915  42.688   7.004
 3229POPC   C4B44278  10.797  42.396   7.371
 3230POPC   NC344279  31.230  43.607   5.375
 3230POPC   PO444280  31.637  44.098   5.500
 3230POPC   GL144281  31.555  43.693   5.790
 3230POPC   GL244282  31.237  43.503   5.882
 3230POPC   C1A44283  31.753  43.546   6.191
 3230POPC   D2A44284  31.698  43.682   6.635
 3230POPC   C3A44285  31.946  43.736   7.009
 3230POPC   C4A44286  31.734  43.909   7.390
 3230POPC   C1B44287  31.303  43.797   6.235
 3230POPC   C2B44288  31.210  43.782   6.671
 3230POPC   C3B44289  31.297  43.822   7.087
 3230POPC   C4B44290  30.983  43.962   7.340
 3231POPC   NC344291  30.401  29.377   5.482
 3231POPC   PO444292  29.892  29.096   5.576
 3231POPC   GL144293  30.188  29.153   5.906
 3231POPC   GL244294  30.263  29.519   5.945
 3231POPC   C1A44295  30.123  28.901   6.274
 3231POPC   D2A44296  30.330  28.857   6.650
 3231POPC   C3A44297  30.112  28.854   7.015
 3231POPC   C4A44298  29.885  29.004   7.393
 3231POPC   C1B44299  30.138  29.428   6.366
 3231POPC   C2B44300  29.968  29.260   6.745
 3231POPC   C3B44301  29.844  29.459   7.159
 3231POPC   C4B44302  29.876  29.829   7.465
 3232POPC   NC344303   4.827  17.666   5.527
 3232POPC   PO444304   4.913  18.284   5.497
 3232POPC   GL144305   5.069  18.422   5.866
 3232POPC   GL244306   5.340  18.637   5.848
 3232POPC   C1A44307   5.027  18.166   6.205
 3232POPC   D2A44308   4.862  17.976   6.561
 3232POPC   C3A44309   4.996  18.120   6.964
 3232POPC   C4A44310   4.861  18.309   7.364
 3232POPC   C1B44311   5.504  18.423   6.197
 3232POPC   C2B44312   5.344  18.259   6.575
 3232POPC   C3B44313   5.508  18.275   6.938
 3232POPC   C4B44314   5.356  18.253   7.321
 3233POPC   NC344315  36.482   3.770   5.307
 3233POPC   PO444316  36.320   4.388   5.456
 3233POPC   GL144317  36.176   4.481   5.853
 3233POPC   GL244318  36.424   4.736   5.865
 3233POPC   C1A44319  35.944   4.433   6.249
 3233POPC   D2A44320  35.987   4.204   6.644
 3233POPC   C3A44321  36.023   4.503   6.982
 3233POPC   C4A44322  35.855   4.625   7.376
 3233POPC   C1B44323  36.484   4.456   6.239
 3233POPC   C2B44324  36.513   4.311   6.653
 3233POPC   C3B44325  36.440   4.201   7.050
 3233POPC   C4B44326  36.018   4.006   7.183
 3234POPC   NC344327  17.113   0.287   5.137
 3234POPC   PO444328  16.732   0.864   5.328
 3234POPC   GL144329  16.719   0.509   5.630
 3234POPC   GL244330  17.099   0.487   5.661
 3234POPC   C1A44331  16.535   0.393   6.100
 3234POPC   D2A44332  16.339   0.422   6.565
 3234POPC   C3A44333  16.381   0.328   7.062
 3234POPC   C4A44334  16.410   0.492   7.523
 3234POPC   C1B44335  16.899   0.754   6.025
 3234POPC   C2B44336  16.907   0.803   6.472
 3234POPC   C3B44337  16.763   0.580   6.813
 3234POPC   C4B44338  16.901   0.261   7.106
 3235POPC   NC344339  11.894  26.833   5.389
 3235POPC   PO444340  11.206  26.901   5.420
 3235POPC   GL144341  11.038  26.976   5.847
 3235POPC   GL244342  11.258  26.707   5.949
 3235POPC   C1A44343  11.086  26.973   6.335
 3235POPC   D2A44344  11.251  26.772   6.704
 3235POPC   C3A44345  11.171  27.055   7.033
 3235POPC   C4A44346  11.023  27.454   7.044
 3235POPC   C1B44347  11.167  26.427   6.320
 3235POPC   C2B44348  10.902  26.399   6.715
 3235POPC   C3B44349  11.113  26.506   7.123
 3235POPC   C4B44350  11.552  26.751   7.154
 3236POPC   NC344351  30.957  40.367   5.435
 3236POPC   PO444352  30.443  39.857   5.391
 3236POPC   GL144353  30.679  39.951   5.728
 3236POPC   GL244354  30.594  40.289   5.835
 3236POPC   C1A44355  30.714  39.776   6.131
 3236POPC   D2A44356  30.811  39.885   6.567
 3236POPC   C3A44357  30.658  39.783   7.000
 3236POPC   C4A44358  30.845  39.881   7.397
 3236POPC   C1B44359  30.520  40.491   6.247
 3236POPC   C2B44360  30.641  40.367   6.677
 3236POPC   C3B44361  30.654  40.303   7.134
 3236POPC   C4B44362  30.519  40.629   7.447
 3237POPC   NC344363  21.125  12.106   5.453
 3237POPC   PO444364  21.636  12.433   5.443
 3237POPC   GL144365  21.680  12.236   5.860
 3237POPC   GL244366  21.446  11.945   5.842
 3237POPC   C1A44367  21.461  12.218   6.283
 3237POPC   D2A44368  21.468  11.974   6.668
 3237POPC   C3A44369  21.430  12.194   7.067
 3237POPC   C4A44370  21.164  11.932   7.355
 3237POPC   C1B44371  21.049  12.000   6.089
 3237POPC   C2B44372  20.901  12.159   6.478
 3237POPC   C3B44373  20.954  12.116   6.907
 3237POPC   C4B44374  20.762  12.278   7.307
 3238POPC   NC344375  11.892  41.189   5.214
 3238POPC   PO444376  12.130  40.509   5.303
 3238POPC   GL144377  12.002  40.521   5.764
 3238POPC   GL244378  12.271  40.685   5.914
 3238POPC   C1A44379  11.888  40.652   6.224
 3238POPC   D2A44380  12.245  40.705   6.507
 3238POPC   C3A44381  12.069  40.731   6.885
 3238POPC   C4A44382  11.927  40.570   7.256
 3238POPC   C1B44383  12.253  41.095   6.191
 3238POPC   C2B44384  12.410  41.207   6.576
 3238POPC   C3B44385  12.255  41.199   6.972
 3238POPC   C4B44386  12.209  41.002   7.327
 3239POPC   NC344387  42.359  15.113   5.241
 3239POPC   PO444388  42.033  14.980   5.526
 3239POPC   GL144389  42.004  15.212   5.909
 3239POPC   GL244390  42.245  15.478   5.807
 3239POPC   C1A44391  42.025  15.126   6.383
 3239POPC   D2A44392  42.331  14.993   6.704
 3239POPC   C3A44393  42.278  15.013   7.163
 3239POPC   C4A44394  42.214  14.860   7.605
 3239POPC   C1B44395  42.357  15.480   6.263
 3239POPC   C2B44396  42.211  15.504   6.694
 3239POPC   C3B44397  42.375  15.543   7.107
 3239POPC   C4B44398  42.232  15.851   7.420
 3240POPC   NC344399  20.798  37.895   5.305
 3240POPC   PO444400  20.546  37.278   5.344
 3240POPC   GL144401  20.540  37.599   5.695
 3240POPC   GL244402  20.864  37.783   5.818
 3240POPC   C1A44403  20.455  37.696   6.142
 3240POPC   D2A44404  20.686  37.844   6.525
 3240POPC   C3A44405  20.430  37.814   6.894
 3240POPC   C4A44406  20.477  37.473   7.173
 3240POPC   C1B44407  20.693  38.155   6.089
 3240POPC   C2B44408  20.611  38.346   6.537
 3240POPC   C3B44409  20.751  38.208   6.964
 3240POPC   C4B44410  20.833  37.850   7.232
 3241POPC   NC344411  33.034  32.051   5.292
 3241POPC   PO444412  32.565  32.495   5.285
 3241POPC   GL144413  32.854  32.333   5.699
 3241POPC   GL244414  33.170  32.149   5.768
 3241POPC   C1A44415  32.718  32.321   6.142
 3241POPC   D2A44416  32.568  32.055   6.482
 3241POPC   C3A44417  32.720  32.203   6.895
 3241POPC   C4A44418  32.716  31.952   7.287
 3241POPC   C1B44419  33.343  32.305   6.136
 3241POPC   C2B44420  33.372  32.519   6.522
 3241POPC   C3B44421  33.379  32.351   6.907
 3241POPC   C4B44422  33.180  32.148   7.195
 3242POPC   NC344423   8.359  35.524   5.593
 3242POPC   PO444424   8.170  34.966   5.204
 3242POPC   GL144425   8.017  35.139   5.687
 3242POPC   GL244426   8.284  35.214   5.997
 3242POPC   C1A44427   7.844  35.009   6.112
 3242POPC   D2A44428   7.892  35.259   6.506
 3242POPC   C3A44429   8.014  35.097   6.911
 3242POPC   C4A44430   8.235  35.243   7.249
 3242POPC   C1B44431   8.196  35.603   6.222
 3242POPC   C2B44432   8.279  35.799   6.613
 3242POPC   C3B44433   8.188  35.706   7.018
 3242POPC   C4B44434   8.016  35.715   7.416
 3243POPC   NC344435  21.332   6.499   5.403
 3243POPC   PO444436  21.014   7.123   5.480
 3243POPC   GL144437  21.154   6.795   5.781
 3243POPC   GL244438  21.139   6.404   5.856
 3243POPC   C1A44439  21.477   6.762   6.086
 3243POPC   D2A44440  21.359   6.852   6.470
 3243POPC   C3A44441  21.415   6.720   6.861
 3243POPC   C4A44442  21.483   6.951   7.222
 3243POPC   C1B44443  21.492   6.250   6.149
 3243POPC   C2B44444  21.647   6.316   6.551
 3243POPC   C3B44445  21.449   6.208   6.914
 3243POPC   C4B44446  21.405   6.419   7.267
 3244POPC   NC344447  13.856  12.372   5.488
 3244POPC   PO444448  13.477  11.793   5.467
 3244POPC   GL144449  13.671  12.008   5.816
 3244POPC   GL244450  13.839  12.318   5.973
 3244POPC   C1A44451  13.606  11.969   6.251
 3244POPC   D2A44452  13.791  11.790   6.596
 3244POPC   C3A44453  13.613  11.996   6.953
 3244POPC   C4A44454  13.342  12.284   7.231
 3244POPC   C1B44455  13.860  12.538   6.353
 3244POPC   C2B44456  13.692  12.519   6.777
 3244POPC   C3B44457  13.854  12.377   7.173
 3244POPC   C4B44458  13.738  12.267   7.631
 3245POPC   NC344459   1.800  31.047   5.325
 3245POPC   PO444460   2.274  30.591   5.445
 3245POPC   GL144461   2.109  30.866   5.805
 3245POPC   GL244462   1.731  30.857   5.833
 3245POPC   C1A44463   1.992  30.922   6.269
 3245POPC   D2A44464   1.769  30.648   6.570
 3245POPC   C3A44465   1.940  30.789   6.957
 3245POPC   C4A44466   2.201  31.102   7.183
 3245POPC   C1B44467   1.889  30.470   6.068
 3245POPC   C2B44468   1.966  30.198   6.419
 3245POPC   C3B44469   1.932  30.244   6.864
 3245POPC   C4B44470   2.123  30.382   7.253
 3246POPC   NC344471  26.448  20.848   5.415
 3246POPC   PO444472  25.799  20.411   5.382
 3246POPC   GL144473  25.888  20.581   5.742
 3246POPC   GL244474  25.634  20.832   5.769
 3246POPC   C1A44475  26.194  20.592   6.066
 3246POPC   D2A44476  26.051  20.573   6.475
 3246POPC   C3A44477  26.347  20.664   6.778
 3246POPC   C4A44478  26.280  20.559   7.192
 3246POPC   C1B44479  25.575  20.647   6.174
 3246POPC   C2B44480  25.580  20.784   6.600
 3246POPC   C3B44481  25.795  20.730   6.965
 3246POPC   C4B44482  25.746  20.989   7.339
 3247POPC   NC344483  30.230  13.405   5.675
 3247POPC   PO444484  30.751  13.024   5.458
 3247POPC   GL144485  30.754  12.875   5.885
 3247POPC   GL244486  30.710  12.497   5.887
 3247POPC   C1A44487  30.640  13.057   6.294
 3247POPC   D2A44488  30.340  12.951   6.590
 3247POPC   C3A44489  30.349  13.083   7.010
 3247POPC   C4A44490  30.400  12.724   7.268
 3247POPC   C1B44491  30.888  12.583   6.318
 3247POPC   C2B44492  30.766  12.700   6.752
 3247POPC   C3B44493  30.839  12.953   7.112
 3247POPC   C4B44494  31.212  12.928   7.292
 3248POPC   NC344495  42.807  32.144   5.492
 3248POPC   PO444496  43.380  32.306   5.361
 3248POPC   GL144497  43.216  32.363   5.775
 3248POPC   GL244498  42.914  32.545   5.890
 3248POPC   C1A44499  43.244  32.150   6.150
 3248POPC   D2A44500  43.426  32.256   6.546
 3248POPC   C3A44501  43.208  32.383   6.932
 3248POPC   C4A44502  43.276  32.160   7.300
 3248POPC   C1B44503  43.010  32.531   6.360
 3248POPC   C2B44504  42.929  32.151   6.567
 3248POPC   C3B44505  42.796  32.055   6.936
 3248POPC   C4B44506  42.780  32.134   7.315
 3249POPC   NC344507  10.198  27.142   5.262
 3249POPC   PO444508   9.671  27.588   5.407
 3249POPC   GL144509   9.694  27.586   5.849
 3249POPC   GL244510   9.620  27.273   5.889
 3249POPC   C1A44511   9.719  27.599   6.306
 3249POPC   D2A44512   9.662  27.830   6.707
 3249POPC   C3A44513   9.804  27.629   7.092
 3249POPC   C4A44514  10.063  27.306   7.288
 3249POPC   C1B44515   9.261  27.495   6.071
 3249POPC   C2B44516   9.195  27.481   6.487
 3249POPC   C3B44517   9.231  27.374   6.909
 3249POPC   C4B44518   9.315  27.582   7.282
 3250POPC   NC344519  27.334  18.150   5.503
 3250POPC   PO444520  26.633  17.931   5.553
 3250POPC   GL144521  26.909  18.210   5.814
 3250POPC   GL244522  27.189  18.003   5.985
 3250POPC   C1A44523  26.937  18.372   6.231
 3250POPC   D2A44524  26.991  18.174   6.635
 3250POPC   C3A44525  26.830  18.407   6.961
 3250POPC   C4A44526  26.866  18.679   7.324
 3250POPC   C1B44527  26.773  17.878   6.212
 3250POPC   C2B44528  26.595  17.829   6.629
 3250POPC   C3B44529  26.683  17.929   7.076
 3250POPC   C4B44530  26.863  18.181   7.442
 3251POPC   NC344531   3.384  34.132   5.665
 3251POPC   PO444532   3.346  33.506   5.547
 3251POPC   GL144533   3.438  33.671   5.923
 3251POPC   GL244534   3.746  33.762   5.800
 3251POPC   C1A44535   3.453  33.940   6.289
 3251POPC   D2A44536   3.366  33.870   6.713
 3251POPC   C3A44537   3.608  34.049   7.004
 3251POPC   C4A44538   3.667  33.906   7.392
 3251POPC   C1B44539   3.906  33.649   6.211
 3251POPC   C2B44540   3.804  33.581   6.639
 3251POPC   C3B44541   3.966  33.649   7.034
 3251POPC   C4B44542   4.194  33.824   7.344
 3252POPC   NC344543  21.680  38.264   5.472
 3252POPC   PO444544  22.237  38.485   5.120
 3252POPC   GL144545  22.144  38.383   5.643
 3252POPC   GL244546  22.043  38.685   5.857
 3252POPC   C1A44547  22.068  38.275   6.140
 3252POPC   D2A44548  22.128  38.514   6.584
 3252POPC   C3A44549  22.061  38.347   7.043
 3252POPC   C4A44550  22.208  38.209   7.487
 3252POPC   C1B44551  22.140  38.898   6.229
 3252POPC   C2B44552  22.299  39.041   6.618
 3252POPC   C3B44553  22.128  38.860   6.996
 3252POPC   C4B44554  22.203  38.709   7.407
 3253POPC   NC344555   3.659  11.544   5.381
 3253POPC   PO444556   3.181  11.092   5.629
 3253POPC   GL144557   3.436  11.377   5.863
 3253POPC   GL244558   3.799  11.414   5.864
 3253POPC   C1A44559   3.489  11.274   6.287
 3253POPC   D2A44560   3.199  11.353   6.602
 3253POPC   C3A44561   3.359  11.280   7.008
 3253POPC   C4A44562   3.401  11.517   7.346
 3253POPC   C1B44563   3.903  11.592   6.282
 3253POPC   C2B44564   3.797  11.412   6.700
 3253POPC   C3B44565   3.862  11.493   7.146
 3253POPC   C4B44566   3.958  11.323   7.590
 3254POPC   NC344567  29.611   2.145   5.576
 3254POPC   PO444568  30.102   2.012   5.305
 3254POPC   GL144569  30.129   2.012   5.743
 3254POPC   GL244570  30.408   2.225   5.853
 3254POPC   C1A44571  30.182   1.851   6.176
 3254POPC   D2A44572  30.300   1.886   6.632
 3254POPC   C3A44573  29.988   1.824   6.976
 3254POPC   C4A44574  29.985   1.859   7.443
 3254POPC   C1B44575  30.315   2.327   6.325
 3254POPC   C2B44576  30.052   2.326   6.726
 3254POPC   C3B44577  29.984   2.292   7.165
 3254POPC   C4B44578  29.753   2.440   7.536
 3255POPC   NC344579  33.415  42.595   5.604
 3255POPC   PO444580  33.965  42.364   5.166
 3255POPC   GL144581  33.883  42.321   5.619
 3255POPC   GL244582  33.607  42.108   5.738
 3255POPC   C1A44583  33.870  42.412   6.074
 3255POPC   D2A44584  33.695  42.482   6.491
 3255POPC   C3A44585  33.998  42.552   6.815
 3255POPC   C4A44586  33.853  42.491   7.217
 3255POPC   C1B44587  33.410  42.170   6.172
 3255POPC   C2B44588  33.375  42.081   6.625
 3255POPC   C3B44589  33.365  42.275   7.050
 3255POPC   C4B44590  33.465  42.260   7.503
 3256POPC   NC344591   3.858  28.706   5.408
 3256POPC   PO444592   4.014  28.175   5.137
 3256POPC   GL144593   3.808  28.253   5.635
 3256POPC   GL244594   3.921  28.494   5.885
 3256POPC   C1A44595   3.606  28.089   6.055
 3256POPC   D2A44596   3.376  28.223   6.441
 3256POPC   C3A44597   3.623  28.307   6.794
 3256POPC   C4A44598   3.513  28.236   7.212
 3256POPC   C1B44599   3.843  28.453   6.328
 3256POPC   C2B44600   4.056  28.609   6.668
 3256POPC   C3B44601   4.014  28.488   7.078
 3256POPC   C4B44602   3.896  28.450   7.495
 3257POPC   NC344603  16.118  15.867   5.140
 3257POPC   PO444604  15.516  15.648   5.459
 3257POPC   GL144605  15.726  15.869   5.797
 3257POPC   GL244606  16.091  15.925   5.723
 3257POPC   C1A44607  15.738  15.707   6.219
 3257POPC   D2A44608  15.596  15.852   6.639
 3257POPC   C3A44609  15.780  15.716   7.010
 3257POPC   C4A44610  15.925  16.093   7.188
 3257POPC   C1B44611  16.196  15.937   6.190
 3257POPC   C2B44612  16.123  15.710   6.600
 3257POPC   C3B44613  16.334  15.769   6.993
 3257POPC   C4B44614  16.424  16.170   7.234
 3258POPC   NC344615  10.724  23.336   5.440
 3258POPC   PO444616  10.558  22.706   5.274
 3258POPC   GL144617  10.341  22.952   5.641
 3258POPC   GL244618  10.118  23.242   5.739
 3258POPC   C1A44619  10.520  23.041   6.064
 3258POPC   D2A44620  10.768  22.853   6.408
 3258POPC   C3A44621  10.647  22.763   6.827
 3258POPC   C4A44622  10.858  22.671   7.221
 3258POPC   C1B44623  10.182  23.408   6.189
 3258POPC   C2B44624  10.539  23.371   6.494
 3258POPC   C3B44625  10.745  23.283   6.889
 3258POPC   C4B44626  10.551  23.075   7.257
 3259POPC   NC344627  41.171   8.904   5.811
 3259POPC   PO444628  40.878   8.663   5.302
 3259POPC   GL144629  40.671   8.932   5.739
 3259POPC   GL244630  40.609   9.316   5.797
 3259POPC   C1A44631  40.623   8.995   6.265
 3259POPC   D2A44632  40.934   9.064   6.641
 3259POPC   C3A44633  40.996   8.979   7.114
 3259POPC   C4A44634  40.762   8.842   7.482
 3259POPC   C1B44635  40.733   9.482   6.242
 3259POPC   C2B44636  40.581   9.441   6.687
 3259POPC   C3B44637  40.761   9.441   7.125
 3259POPC   C4B44638  40.802   9.508   7.591
 3260POPC   NC344639   0.990   6.474   5.172
 3260POPC   PO444640   1.538   6.728   5.541
 3260POPC   GL144641   1.399   6.477   5.913
 3260POPC   GL244642   1.062   6.485   5.807
 3260POPC   C1A44643   1.145   6.392   6.333
 3260POPC   D2A44644   0.854   6.363   6.654
 3260POPC   C3A44645   0.985   6.411   7.074
 3260POPC   C4A44646   1.341   6.467   7.359
 3260POPC   C1B44647   1.081   6.837   6.123
 3260POPC   C2B44648   0.998   6.839   6.548
 3260POPC   C3B44649   1.209   6.866   6.934
 3260POPC   C4B44650   1.019   6.867   7.301
 3261POPC   NC344651  14.825  16.955   5.484
 3261POPC   PO444652  15.373  16.530   5.604
 3261POPC   GL144653  14.988  16.599   5.829
 3261POPC   GL244654  14.755  16.280   5.786
 3261POPC   C1A44655  15.051  16.834   6.243
 3261POPC   D2A44656  15.357  16.851   6.622
 3261POPC   C3A44657  15.179  16.770   7.035
 3261POPC   C4A44658  14.793  16.987   7.166
 3261POPC   C1B44659  14.912  16.326   6.234
 3261POPC   C2B44660  14.876  16.532   6.634
 3261POPC   C3B44661  14.922  16.339   7.018
 3261POPC   C4B44662  15.074  16.325   7.453
 3262POPC   NC344663  32.968  12.852   5.401
 3262POPC   PO444664  33.589  13.004   5.714
 3262POPC   GL144665  33.138  13.119   5.807
 3262POPC   GL244666  32.926  12.808   5.903
 3262POPC   C1A44667  32.963  13.218   6.216
 3262POPC   D2A44668  33.110  13.057   6.618
 3262POPC   C3A44669  32.955  13.005   7.029
 3262POPC   C4A44670  33.264  13.018   7.351
 3262POPC   C1B44671  32.865  12.722   6.341
 3262POPC   C2B44672  33.134  12.532   6.680
 3262POPC   C3B44673  33.184  12.541   7.124
 3262POPC   C4B44674  32.858  12.629   7.391
 3263POPC   NC344675  23.297  37.809   5.528
 3263POPC   PO444676  22.721  37.474   5.317
 3263POPC   GL144677  22.865  37.577   5.734
 3263POPC   GL244678  23.163  37.347   5.765
 3263POPC   C1A44679  22.999  37.830   6.115
 3263POPC   D2A44680  22.844  37.734   6.518
 3263POPC   C3A44681  23.012  37.834   6.926
 3263POPC   C4A44682  22.809  37.561   7.203
 3263POPC   C1B44683  22.979  37.329   6.177
 3263POPC   C2B44684  23.198  37.186   6.509
 3263POPC   C3B44685  23.116  37.344   6.862
 3263POPC   C4B44686  23.306  37.360   7.240
 3264POPC   NC344687   4.798  27.249   5.377
 3264POPC   PO444688   5.435  26.965   5.398
 3264POPC   GL144689   5.316  26.816   5.805
 3264POPC   GL244690   4.944  26.720   5.860
 3264POPC   C1A44691   5.274  26.762   6.245
 3264POPC   D2A44692   4.931  26.843   6.485
 3264POPC   C3A44693   5.036  26.864   6.889
 3264POPC   C4A44694   5.146  26.829   7.290
 3264POPC   C1B44695   4.964  27.152   6.045
 3264POPC   C2B44696   4.885  27.379   6.441
 3264POPC   C3B44697   4.984  27.388   6.888
 3264POPC   C4B44698   4.798  27.204   7.226
 3265POPC   NC344699  43.850  42.131   5.563
 3265POPC   PO444700  43.568  42.764   5.557
 3265POPC   GL144701  43.823  42.567   5.869
 3265POPC   GL244702  44.164  42.405   5.862
 3265POPC   C1A44703  43.942  42.644   6.278
 3265POPC   D2A44704  43.799  42.582   6.685
 3265POPC   C3A44705  44.020  42.411   7.014
 3265POPC   C4A44706  43.876  42.162   7.310
 3265POPC   C1B44707  44.177  42.167   6.284
 3265POPC   C2B44708  44.444  41.985   6.627
 3265POPC   C3B44709  44.388  42.033   7.085
 3265POPC   C4B44710  44.342  42.253   7.497
 3266POPC   NC344711  21.770  13.705   5.266
 3266POPC   PO444712  21.162  13.397   5.314
 3266POPC   GL144713  21.414  13.593   5.645
 3266POPC   GL244714  21.686  13.363   5.642
 3266POPC   C1A44715  21.490  13.751   6.098
 3266POPC   D2A44716  21.306  13.650   6.523
 3266POPC   C3A44717  21.416  13.853   6.935
 3266POPC   C4A44718  21.214  13.776   7.337
 3266POPC   C1B44719  21.564  13.234   6.058
 3266POPC   C2B44720  21.733  13.372   6.440
 3266POPC   C3B44721  21.610  13.358   6.867
 3266POPC   C4B44722  21.507  13.344   7.298
 3267POPC   NC344723  25.594  21.071   5.314
 3267POPC   PO444724  25.228  21.616   5.141
 3267POPC   GL144725  25.344  21.598   5.606
 3267POPC   GL244726  25.061  21.565   5.853
 3267POPC   C1A44727  25.569  21.466   6.013
 3267POPC   D2A44728  25.577  21.285   6.452
 3267POPC   C3A44729  25.618  21.243   6.916
 3267POPC   C4A44730  25.596  21.469   7.354
 3267POPC   C1B44731  25.121  21.515   6.295
 3267POPC   C2B44732  24.874  21.573   6.662
 3267POPC   C3B44733  24.907  21.440   7.064
 3267POPC   C4B44734  25.205  21.172   7.204
 3268POPC   NC344735  23.046  32.916   5.505
 3268POPC   PO444736  22.563  33.273   5.408
 3268POPC   GL144737  22.799  33.392   5.819
 3268POPC   GL244738  23.162  33.285   5.864
 3268POPC   C1A44739  22.810  33.330   6.287
 3268POPC   D2A44740  22.830  33.007   6.619
 3268POPC   C3A44741  22.925  33.101   7.051
 3268POPC   C4A44742  22.700  32.849   7.345
 3268POPC   C1B44743  23.204  33.010   6.236
 3268POPC   C2B44744  23.344  32.866   6.652
 3268POPC   C3B44745  23.155  32.650   7.013
 3268POPC   C4B44746  23.178  32.781   7.453
 3269POPC   NC344747  42.940  44.756   5.579
 3269POPC   PO444748  43.307  44.347   5.326
 3269POPC   GL144749  43.251  44.316   5.767
 3269POPC   GL244750  42.934  44.232   5.818
 3269POPC   C1A44751  43.244  44.630   6.161
 3269POPC   D2A44752  43.185  44.960   6.497
 3269POPC   C3A44753  43.015  44.866   6.896
 3269POPC   C4A44754  43.078  44.976   7.303
 3269POPC   C1B44755  42.798  44.395   6.192
 3269POPC   C2B44756  42.982  44.476   6.571
 3269POPC   C3B44757  43.199  44.378   6.906
 3269POPC   C4B44758  43.178  44.481   7.294
 3270POPC   NC344759  23.979  35.269   5.433
 3270POPC   PO444760  23.457  35.775   5.487
 3270POPC   GL144761  23.733  35.698   5.836
 3270POPC   GL244762  23.725  35.349   5.861
 3270POPC   C1A44763  23.724  35.619   6.278
 3270POPC   D2A44764  23.659  35.374   6.639
 3270POPC   C3A44765  23.770  35.418   7.034
 3270POPC   C4A44766  23.530  35.569   7.360
 3270POPC   C1B44767  23.889  35.136   6.223
 3270POPC   C2B44768  23.744  34.888   6.579
 3270POPC   C3B44769  23.572  34.918   6.985
 3270POPC   C4B44770  23.731  35.001   7.383
 3271POPC   NC344771  17.740  43.272   5.263
 3271POPC   PO444772  17.242  42.875   5.414
 3271POPC   GL144773  17.530  43.066   5.727
 3271POPC   GL244774  17.686  43.391   5.783
 3271POPC   C1A44775  17.684  43.045   6.163
 3271POPC   D2A44776  17.432  43.025   6.528
 3271POPC   C3A44777  17.677  43.078   6.894
 3271POPC   C4A44778  17.501  42.943   7.293
 3271POPC   C1B44779  17.748  43.579   6.196
 3271POPC   C2B44780  17.595  43.498   6.607
 3271POPC   C3B44781  17.336  43.445   6.998
 3271POPC   C4B44782  17.608  43.443   7.362
 3272POPC   NC344783   6.845  27.140   5.308
 3272POPC   PO444784   6.760  27.818   5.155
 3272POPC   GL144785   6.855  27.636   5.566
 3272POPC   GL244786   6.680  27.903   5.767
 3272POPC   C1A44787   6.996  27.599   6.020
 3272POPC   D2A44788   6.746  27.723   6.375
 3272POPC   C3A44789   6.810  27.652   6.831
 3272POPC   C4A44790   6.791  27.366   7.185
 3272POPC   C1B44791   6.355  27.917   6.072
 3272POPC   C2B44792   6.253  27.695   6.456
 3272POPC   C3B44793   6.294  27.753   6.882
 3272POPC   C4B44794   6.552  27.855   7.249
 3273POPC   NC344795   3.454  16.149   5.300
 3273POPC   PO444796   2.734  16.119   5.405
 3273POPC   GL144797   2.892  16.233   5.794
 3273POPC   GL244798   2.777  15.939   5.921
 3273POPC   C1A44799   2.813  16.363   6.225
 3273POPC   D2A44800   2.589  16.060   6.466
 3273POPC   C3A44801   2.661  16.047   6.899
 3273POPC   C4A44802   2.865  16.252   7.217
 3273POPC   C1B44803   2.844  15.642   6.208
 3273POPC   C2B44804   2.874  15.638   6.620
 3273POPC   C3B44805   2.719  15.553   7.008
 3273POPC   C4B44806   3.006  15.578   7.359
 3274POPC   NC344807  18.165  24.351   5.080
 3274POPC   PO444808  18.487  23.973   5.452
 3274POPC   GL144809  18.325  23.823   5.797
 3274POPC   GL244810  17.986  23.859   5.748
 3274POPC   C1A44811  18.230  23.632   6.157
 3274POPC   D2A44812  18.176  23.756   6.561
 3274POPC   C3A44813  18.360  23.512   6.856
 3274POPC   C4A44814  18.254  23.405   7.256
 3274POPC   C1B44815  17.922  24.022   6.177
 3274POPC   C2B44816  18.056  24.253   6.558
 3274POPC   C3B44817  18.122  24.078   6.972
 3274POPC   C4B44818  17.818  24.048   7.295
 3275POPC   NC344819  14.972  35.676   5.420
 3275POPC   PO444820  15.299  35.019   5.336
 3275POPC   GL144821  15.364  35.139   5.783
 3275POPC   GL244822  15.097  35.362   5.792
 3275POPC   C1A44823  15.179  35.173   6.235
 3275POPC   D2A44824  15.097  35.313   6.634
 3275POPC   C3A44825  15.482  35.286   6.892
 3275POPC   C4A44826  15.489  34.993   7.231
 3275POPC   C1B44827  14.890  35.623   6.114
 3275POPC   C2B44828  14.677  35.584   6.514
 3275POPC   C3B44829  14.794  35.713   6.944
 3275POPC   C4B44830  15.059  35.436   7.125
 3276POPC   NC344831  13.308  35.290   5.396
 3276POPC   PO444832  13.883  35.505   5.418
 3276POPC   GL144833  13.791  35.312   5.797
 3276POPC   GL244834  13.439  35.181   5.877
 3276POPC   C1A44835  13.693  35.472   6.202
 3276POPC   D2A44836  13.650  35.742   6.554
 3276POPC   C3A44837  13.773  35.544   6.959
 3276POPC   C4A44838  13.471  35.417   7.235
 3276POPC   C1B44839  13.361  34.988   6.284
 3276POPC   C2B44840  13.207  34.912   6.728
 3276POPC   C3B44841  13.368  34.923   7.177
 3276POPC   C4B44842  13.314  35.110   7.639
 3277POPC   NC344843  25.230  36.509   5.689
 3277POPC   PO444844  25.363  36.079   5.256
 3277POPC   GL144845  25.396  36.032   5.750
 3277POPC   GL244846  25.039  36.032   5.884
 3277POPC   C1A44847  25.446  35.872   6.190
 3277POPC   D2A44848  25.440  36.127   6.589
 3277POPC   C3A44849  25.360  36.023   7.022
 3277POPC   C4A44850  25.641  36.144   7.374
 3277POPC   C1B44851  25.026  36.204   6.296
 3277POPC   C2B44852  24.927  36.184   6.726
 3277POPC   C3B44853  25.054  36.438   7.072
 3277POPC   C4B44854  25.182  36.308   7.491
 3278POPC   NC344855  31.339  11.348   5.354
 3278POPC   PO444856  30.697  11.242   5.210
 3278POPC   GL144857  30.986  11.461   5.682
 3278POPC   GL244858  31.302  11.285   5.846
 3278POPC   C1A44859  31.224  11.656   6.121
 3278POPC   D2A44860  31.437  11.369   6.448
 3278POPC   C3A44861  31.338  11.451   6.919
 3278POPC   C4A44862  31.492  11.569   7.352
 3278POPC   C1B44863  31.677  11.110   6.050
 3278POPC   C2B44864  31.773  10.947   6.469
 3278POPC   C3B44865  31.618  11.013   6.903
 3278POPC   C4B44866  31.476  11.039   7.345
 3279POPC   NC344867  24.053  21.551   5.591
 3279POPC   PO444868  23.855  22.251   5.400
 3279POPC   GL144869  23.910  22.359   5.814
 3279POPC   GL244870  23.889  21.996   5.867
 3279POPC   C1A44871  23.927  22.379   6.267
 3279POPC   D2A44872  23.975  22.620   6.655
 3279POPC   C3A44873  23.857  22.409   7.043
 3279POPC   C4A44874  23.504  22.534   7.328
 3279POPC   C1B44875  23.699  21.926   6.248
 3279POPC   C2B44876  23.872  21.863   6.631
 3279POPC   C3B44877  23.755  21.893   7.039
 3279POPC   C4B44878  23.989  21.822   7.385
 3280POPC   NC344879   1.645  16.800   5.409
 3280POPC   PO444880   1.018  16.770   5.346
 3280POPC   GL144881   1.236  16.841   5.758
 3280POPC   GL244882   1.538  16.690   5.892
 3280POPC   C1A44883   1.163  16.714   6.224
 3280POPC   D2A44884   1.350  16.679   6.576
 3280POPC   C3A44885   1.201  16.844   6.934
 3280POPC   C4A44886   0.965  16.666   7.228
 3280POPC   C1B44887   1.493  17.071   6.129
 3280POPC   C2B44888   1.537  17.159   6.527
 3280POPC   C3B44889   1.695  16.955   6.874
 3280POPC   C4B44890   1.546  16.827   7.288
 3281POPC   NC344891  38.768   5.019   5.416
 3281POPC   PO444892  38.116   4.751   5.427
 3281POPC   GL144893  38.434   4.832   5.770
 3281POPC   GL244894  38.465   5.210   5.804
 3281POPC   C1A44895  38.563   4.854   6.214
 3281POPC   D2A44896  38.341   4.852   6.634
 3281POPC   C3A44897  38.535   4.979   7.050
 3281POPC   C4A44898  38.756   5.345   7.266
 3281POPC   C1B44899  38.135   5.134   6.134
 3281POPC   C2B44900  37.997   5.240   6.553
 3281POPC   C3B44901  38.138   5.257   6.954
 3281POPC   C4B44902  38.266   5.263   7.395
 3282POPC   NC344903  19.596  44.440   5.483
 3282POPC   PO444904  18.986  44.639   5.457
 3282POPC   GL144905  18.987  44.538   5.858
 3282POPC   GL244906  19.278  44.300   5.890
 3282POPC   C1A44907  18.794  44.615   6.224
 3282POPC   D2A44908  18.989  44.522   6.584
 3282POPC   C3A44909  18.814  44.441   6.945
 3282POPC   C4A44910  18.994  44.541   7.328
 3282POPC   C1B44911  19.392  44.670   6.157
 3282POPC   C2B44912  19.374  44.881   6.558
 3282POPC   C3B44913  19.429  44.751   6.967
 3282POPC   C4B44914  19.437  44.957   7.355
 3283POPC   NC344915   9.040   9.293   5.471
 3283POPC   PO444916   8.814   9.965   5.268
 3283POPC   GL144917   9.107   9.821   5.632
 3283POPC   GL244918   8.965   9.572   5.883
 3283POPC   C1A44919   9.283   9.949   6.076
 3283POPC   D2A44920   9.399   9.845   6.555
 3283POPC   C3A44921   9.023   9.859   6.849
 3283POPC   C4A44922   8.885  10.015   7.252
 3283POPC   C1B44923   9.033   9.542   6.339
 3283POPC   C2B44924   9.108   9.370   6.765
 3283POPC   C3B44925   9.064   9.486   7.215
 3283POPC   C4B44926   8.735   9.587   7.544
 3284POPC   NC344927  33.226  41.134   5.545
 3284POPC   PO444928  32.666  40.820   5.239
 3284POPC   GL144929  32.734  40.873   5.675
 3284POPC   GL244930  32.724  41.208   5.691
 3284POPC   C1A44931  32.985  40.767   6.063
 3284POPC   D2A44932  33.201  40.577   6.441
 3284POPC   C3A44933  33.104  40.792   6.817
 3284POPC   C4A44934  33.050  40.714   7.226
 3284POPC   C1B44935  32.747  41.274   6.124
 3284POPC   C2B44936  32.761  40.985   6.475
 3284POPC   C3B44937  32.601  40.965   6.871
 3284POPC   C4B44938  32.754  41.104   7.262
 3285POPC   NC344939   9.225  14.231   5.332
 3285POPC   PO444940   8.858  14.804   5.400
 3285POPC   GL144941   8.990  14.521   5.695
 3285POPC   GL244942   8.760  14.233   5.649
 3285POPC   C1A44943   9.170  14.441   6.109
 3285POPC   D2A44944   9.044  14.262   6.508
 3285POPC   C3A44945   9.150  14.439   6.897
 3285POPC   C4A44946   9.185  14.169   7.265
 3285POPC   C1B44947   8.647  14.330   6.109
 3285POPC   C2B44948   8.536  14.201   6.545
 3285POPC   C3B44949   8.653  14.423   6.903
 3285POPC   C4B44950   8.848  14.528   7.304
 3286POPC   NC344951  24.266  37.663   5.328
 3286POPC   PO444952  23.707  38.003   5.522
 3286POPC   GL144953  23.710  37.594   5.760
 3286POPC   GL244954  24.005  37.341   5.688
 3286POPC   C1A44955  23.478  37.526   6.158
 3286POPC   D2A44956  23.338  37.701   6.520
 3286POPC   C3A44957  23.526  37.677   6.906
 3286POPC   C4A44958  23.460  37.907   7.243
 3286POPC   C1B44959  24.000  37.438   6.139
 3286POPC   C2B44960  23.863  37.560   6.526
 3286POPC   C3B44961  24.046  37.672   6.912
 3286POPC   C4B44962  23.871  37.588   7.317
 3287POPC   NC344963  28.735  13.912   5.436
 3287POPC   PO444964  29.125  13.294   5.417
 3287POPC   GL144965  29.147  13.397   5.842
 3287POPC   GL244966  28.973  13.701   5.847
 3287POPC   C1A44967  28.950  13.378   6.291
 3287POPC   D2A44968  28.874  13.333   6.747
 3287POPC   C3A44969  29.168  13.431   7.045
 3287POPC   C4A44970  29.176  13.370   7.498
 3287POPC   C1B44971  29.022  13.948   6.201
 3287POPC   C2B44972  29.138  13.823   6.614
 3287POPC   C3B44973  28.980  13.915   6.999
 3287POPC   C4B44974  29.240  13.834   7.356
 3288POPC   NC344975   9.207  43.803   5.435
 3288POPC   PO444976   8.705  44.233   5.337
 3288POPC   GL144977   8.921  44.111   5.738
 3288POPC   GL244978   9.293  44.139   5.790
 3288POPC   C1A44979   8.946  44.141   6.218
 3288POPC   D2A44980   8.836  44.191   6.680
 3288POPC   C3A44981   8.904  43.822   6.959
 3288POPC   C4A44982   8.877  43.582   7.360
 3288POPC   C1B44983   9.451  43.924   6.139
 3288POPC   C2B44984   9.298  43.877   6.564
 3288POPC   C3B44985   9.385  43.665   6.948
 3288POPC   C4B44986   9.470  43.912   7.286
 3289POPC   NC344987  40.771  41.871   5.342
 3289POPC   PO444988  40.507  42.499   5.401
 3289POPC   GL144989  40.672  42.380   5.792
 3289POPC   GL244990  40.857  42.153   5.888
 3289POPC   C1A44991  40.563  42.436   6.222
 3289POPC   D2A44992  40.480  42.638   6.605
 3289POPC   C3A44993  40.891  42.696   6.787
 3289POPC   C4A44994  41.148  42.546   7.122
 3289POPC   C1B44995  40.743  41.970   6.288
 3289POPC   C2B44996  40.792  42.177   6.665
 3289POPC   C3B44997  40.805  42.177   7.084
 3289POPC   C4B44998  40.829  41.930   7.449
 3290POPC   NC344999  43.671  44.021   5.379
 3290POPC   PO445000  44.217  43.524   5.516
 3290POPC   GL145001  44.048  43.900   5.728
 3290POPC   GL245002  43.697  43.890   5.897
 3290POPC   C1A45003  44.077  44.075   6.140
 3290POPC   D2A45004  43.821  43.898   6.430
 3290POPC   C3A45005  43.965  43.693   6.803
 3290POPC   C4A45006  43.873  43.813   7.219
 3290POPC   C1B45007  43.556  44.231   6.153
 3290POPC   C2B45008  43.594  44.379   6.569
 3290POPC   C3B45009  43.583  44.042   6.855
 3290POPC   C4B45010  43.411  44.032   7.231
 3291POPC   NC345011  17.781  23.030   5.403
 3291POPC   PO445012  17.118  22.708   5.450
 3291POPC   GL145013  17.322  22.991   5.769
 3291POPC   GL245014  17.640  22.931   5.863
 3291POPC   C1A45015  17.334  23.117   6.223
 3291POPC   D2A45016  17.137  23.038   6.635
 3291POPC   C3A45017  17.378  23.113   7.037
 3291POPC   C4A45018  17.443  22.844   7.414
 3291POPC   C1B45019  17.763  22.783   6.256
 3291POPC   C2B45020  17.656  22.957   6.622
 3291POPC   C3B45021  17.790  22.785   6.988
 3291POPC   C4B45022  17.907  22.526   7.317
 3292POPC   NC345023  13.913  43.689   5.432
 3292POPC   PO445024  13.258  43.597   5.605
 3292POPC   GL145025  13.585  43.905   5.813
 3292POPC   GL245026  13.329  44.085   6.036
 3292POPC   C1A45027  13.806  44.159   6.156
 3292POPC   D2A45028  13.765  44.129   6.588
 3292POPC   C3A45029  13.806  43.678   6.701
 3292POPC   C4A45030  13.661  43.494   7.121
 3292POPC   C1B45031  13.495  43.713   6.277
 3292POPC   C2B45032  13.311  43.562   6.671
 3292POPC   C3B45033  13.427  43.911   6.921
 3292POPC   C4B45034  13.448  44.321   7.092
 3293POPC   NC345035  29.471   4.369   5.476
 3293POPC   PO445036  29.867   3.942   5.323
 3293POPC   GL145037  30.031   4.148   5.731
 3293POPC   GL245038  29.918   4.485   5.789
 3293POPC   C1A45039  30.203   4.230   6.180
 3293POPC   D2A45040  30.336   4.454   6.573
 3293POPC   C3A45041  30.199   4.362   7.016
 3293POPC   C4A45042  30.052   4.103   7.362
 3293POPC   C1B45043  29.774   4.527   6.237
 3293POPC   C2B45044  29.842   4.601   6.706
 3293POPC   C3B45045  29.728   4.481   7.147
 3293POPC   C4B45046  29.882   4.541   7.582
 3294POPC   NC345047  14.913  17.898   5.317
 3294POPC   PO445048  15.415  18.263   5.478
 3294POPC   GL145049  15.212  18.178   5.835
 3294POPC   GL245050  14.993  18.470   5.978
 3294POPC   C1A45051  15.339  18.227   6.265
 3294POPC   D2A45052  15.248  18.436   6.658
 3294POPC   C3A45053  15.406  18.184   7.007
 3294POPC   C4A45054  15.583  18.133   7.430
 3294POPC   C1B45055  14.850  18.086   6.167
 3294POPC   C2B45056  14.966  17.957   6.541
 3294POPC   C3B45057  14.919  18.119   6.912
 3294POPC   C4B45058  15.007  17.978   7.280
 3295POPC   NC345059  10.237  34.524   5.379
 3295POPC   PO445060  10.902  34.495   5.428
 3295POPC   GL145061  10.594  34.629   5.750
 3295POPC   GL245062  10.488  34.294   5.788
 3295POPC   C1A45063  10.569  34.843   6.171
 3295POPC   D2A45064  10.802  34.792   6.580
 3295POPC   C3A45065  10.581  34.795   6.974
 3295POPC   C4A45066  10.629  34.475   7.301
 3295POPC   C1B45067  10.304  34.390   6.186
 3295POPC   C2B45068  10.329  34.579   6.565
 3295POPC   C3B45069  10.302  34.373   6.938
 3295POPC   C4B45070  10.163  34.230   7.332
 3296POPC   NC345071  27.348  35.027   5.431
 3296POPC   PO445072  27.769  34.470   5.354
 3296POPC   GL145073  27.704  34.747   5.698
 3296POPC   GL245074  27.527  34.535   5.947
 3296POPC   C1A45075  27.669  35.025   6.070
 3296POPC   D2A45076  27.686  35.131   6.523
 3296POPC   C3A45077  27.389  34.956   6.851
 3296POPC   C4A45078  27.400  34.628   7.158
 3296POPC   C1B45079  27.727  34.599   6.360
 3296POPC   C2B45080  27.795  34.674   6.789
 3296POPC   C3B45081  27.874  34.431   7.130
 3296POPC   C4B45082  27.755  34.291   7.530
 3297POPC   NC345083  37.060  38.404   5.266
 3297POPC   PO445084  36.761  38.888   5.233
 3297POPC   GL145085  36.788  38.591   5.661
 3297POPC   GL245086  37.040  38.754   5.716
 3297POPC   C1A45087  36.930  38.456   6.128
 3297POPC   D2A45088  36.906  38.157   6.483
 3297POPC   C3A45089  37.080  38.218   6.894
 3297POPC   C4A45090  36.978  38.052   7.300
 3297POPC   C1B45091  37.139  38.902   6.155
 3297POPC   C2B45092  37.199  38.629   6.561
 3297POPC   C3B45093  37.056  38.709   7.011
 3297POPC   C4B45094  36.820  38.578   7.414
 3298POPC   NC345095  29.206  17.057   5.143
 3298POPC   PO445096  28.718  16.551   5.274
 3298POPC   GL145097  28.851  16.562   5.755
 3298POPC   GL245098  29.115  16.795   5.814
 3298POPC   C1A45099  28.994  16.455   6.215
 3298POPC   D2A45100  29.092  16.327   6.643
 3298POPC   C3A45101  28.971  16.642   6.938
 3298POPC   C4A45102  28.951  16.771   7.333
 3298POPC   C1B45103  29.462  16.632   6.074
 3298POPC   C2B45104  29.546  16.463   6.471
 3298POPC   C3B45105  29.485  16.499   6.893
 3298POPC   C4B45106  29.465  16.745   7.246
 3299POPC   NC345107  17.059  13.970   5.117
 3299POPC   PO445108  16.480  13.631   5.255
 3299POPC   GL145109  16.689  13.547   5.678
 3299POPC   GL245110  16.722  13.850   5.886
 3299POPC   C1A45111  16.866  13.446   6.134
 3299POPC   D2A45112  16.875  13.276   6.520
 3299POPC   C3A45113  16.766  13.523   6.834
 3299POPC   C4A45114  16.743  13.470   7.243
 3299POPC   C1B45115  16.590  13.871   6.331
 3299POPC   C2B45116  16.771  14.021   6.718
 3299POPC   C3B45117  16.939  13.944   7.133
 3299POPC   C4B45118  16.930  13.875   7.596
 3300POPC   NC345119  16.030  13.636   5.145
 3300POPC   PO445120  15.675  14.132   5.497
 3300POPC   GL145121  15.819  13.716   5.646
 3300POPC   GL245122  16.135  13.519   5.642
 3300POPC   C1A45123  15.853  13.650   6.092
 3300POPC   D2A45124  15.863  13.457   6.514
 3300POPC   C3A45125  15.775  13.668   6.903
 3300POPC   C4A45126  15.983  13.807   7.286
 3300POPC   C1B45127  16.344  13.484   6.056
 3300POPC   C2B45128  16.374  13.366   6.498
 3300POPC   C3B45129  16.261  13.524   6.895
 3300POPC   C4B45130  16.431  13.888   7.078
 3301POPC   NC345131  37.880  42.612   5.272
 3301POPC   PO445132  37.475  42.045   5.421
 3301POPC   GL145133  37.681  42.199   5.764
 3301POPC   GL245134  37.679  42.546   5.751
 3301POPC   C1A45135  37.678  42.044   6.188
 3301POPC   D2A45136  37.487  42.150   6.593
 3301POPC   C3A45137  37.670  42.017   6.999
 3301POPC   C4A45138  37.857  42.245   7.373
 3301POPC   C1B45139  37.582  42.547   6.170
 3301POPC   C2B45140  37.771  42.582   6.564
 3301POPC   C3B45141  37.651  42.519   6.963
 3301POPC   C4B45142  37.498  42.710   7.315
 3302POPC   NC345143  13.856   8.280   4.894
 3302POPC   PO445144  14.291   8.068   5.332
 3302POPC   GL145145  14.409   8.184   5.837
 3302POPC   GL245146  14.226   8.481   5.902
 3302POPC   C1A45147  14.215   8.198   6.312
 3302POPC   D2A45148  14.175   8.491   6.697
 3302POPC   C3A45149  14.238   8.322   7.097
 3302POPC   C4A45150  14.618   8.100   7.215
 3302POPC   C1B45151  14.495   8.616   6.263
 3302POPC   C2B45152  14.727   8.544   6.658
 3302POPC   C3B45153  14.690   8.605   7.117
 3302POPC   C4B45154  14.465   8.533   7.518
 3303POPC   NC345155  38.204   3.574   5.361
 3303POPC   PO445156  38.638   3.405   5.802
 3303POPC   GL145157  38.321   3.636   5.938
 3303POPC   GL245158  38.121   3.358   5.833
 3303POPC   C1A45159  38.428   3.809   6.363
 3303POPC   D2A45160  38.683   3.507   6.631
 3303POPC   C3A45161  38.818   3.572   7.057
 3303POPC   C4A45162  38.625   3.649   7.421
 3303POPC   C1B45163  37.983   3.464   6.271
 3303POPC   C2B45164  38.175   3.453   6.648
 3303POPC   C3B45165  38.315   3.476   7.044
 3303POPC   C4B45166  38.410   3.185   7.366
 3304POPC   NC345167   1.584  38.222   5.368
 3304POPC   PO445168   1.309  38.818   5.375
 3304POPC   GL145169   1.158  38.439   5.617
 3304POPC   GL245170   1.421  38.439   5.843
 3304POPC   C1A45171   0.958  38.440   6.055
 3304POPC   D2A45172   1.162  38.684   6.380
 3304POPC   C3A45173   1.221  38.536   6.795
 3304POPC   C4A45174   0.989  38.538   7.190
 3304POPC   C1B45175   1.654  38.279   6.203
 3304POPC   C2B45176   1.489  38.069   6.556
 3304POPC   C3B45177   1.505  38.136   6.960
 3304POPC   C4B45178   1.522  38.487   7.203
 3305POPC   NC345179  31.623  13.921   5.453
 3305POPC   PO445180  31.584  14.583   5.490
 3305POPC   GL145181  31.213  14.446   5.757
 3305POPC   GL245182  31.179  14.120   5.637
 3305POPC   C1A45183  31.059  14.481   6.184
 3305POPC   D2A45184  31.272  14.548   6.548
 3305POPC   C3A45185  31.120  14.324   6.873
 3305POPC   C4A45186  31.239  14.365   7.284
 3305POPC   C1B45187  31.452  14.126   6.051
 3305POPC   C2B45188  31.394  14.047   6.490
 3305POPC   C3B45189  31.601  14.118   6.886
 3305POPC   C4B45190  31.733  14.269   7.293
 3306POPC   NC345191   3.598  17.000   5.020
 3306POPC   PO445192   3.647  17.621   5.163
 3306POPC   GL145193   3.781  17.607   5.649
 3306POPC   GL245194   3.656  17.333   5.859
 3306POPC   C1A45195   3.643  17.817   6.071
 3306POPC   D2A45196   3.317  17.763   6.412
 3306POPC   C3A45197   3.498  17.729   6.807
 3306POPC   C4A45198   3.502  17.781   7.243
 3306POPC   C1B45199   3.832  17.275   6.279
 3306POPC   C2B45200   3.830  17.341   6.738
 3306POPC   C3B45201   3.868  17.377   7.161
 3306POPC   C4B45202   3.731  17.052   7.446
 3307POPC   NC345203  38.887  12.150   5.092
 3307POPC   PO445204  38.260  11.978   5.312
 3307POPC   GL145205  38.530  12.112   5.610
 3307POPC   GL245206  38.584  11.808   5.815
 3307POPC   C1A45207  38.458  12.239   6.055
 3307POPC   D2A45208  38.685  12.137   6.434
 3307POPC   C3A45209  38.523  12.021   6.839
 3307POPC   C4A45210  38.736  12.208   7.177
 3307POPC   C1B45211  38.333  11.690   6.199
 3307POPC   C2B45212  38.262  11.517   6.619
 3307POPC   C3B45213  38.249  11.624   7.057
 3307POPC   C4B45214  38.511  11.789   7.337
 3308POPC   NC345215  24.877  21.399   5.415
 3308POPC   PO445216  24.263  21.360   5.199
 3308POPC   GL145217  24.410  21.228   5.744
 3308POPC   GL245218  24.700  21.041   5.719
 3308POPC   C1A45219  24.370  21.459   6.176
 3308POPC   D2A45220  24.358  21.649   6.606
 3308POPC   C3A45221  24.394  21.497   7.025
 3308POPC   C4A45222  24.606  21.772   7.311
 3308POPC   C1B45223  24.778  21.178   6.127
 3308POPC   C2B45224  24.600  21.169   6.547
 3308POPC   C3B45225  24.680  20.997   6.953
 3308POPC   C4B45226  24.505  21.069   7.337
 3309POPC   NC345227  37.611   4.537   5.409
 3309POPC   PO445228  37.849   3.870   5.401
 3309POPC   GL145229  37.714   4.093   5.786
 3309POPC   GL245230  37.667   4.451   5.914
 3309POPC   C1A45231  38.016   4.047   6.142
 3309POPC   D2A45232  37.955   3.902   6.569
 3309POPC   C3A45233  37.795   4.184   6.844
 3309POPC   C4A45234  37.676   4.439   7.160
 3309POPC   C1B45235  37.684   4.372   6.370
 3309POPC   C2B45236  37.412   4.511   6.697
 3309POPC   C3B45237  37.315   4.787   7.032
 3309POPC   C4B45238  37.454   4.784   7.489
 3310POPC   NC345239  32.021  42.033   5.320
 3310POPC   PO445240  31.456  42.369   5.315
 3310POPC   GL145241  31.416  42.340   5.731
 3310POPC   GL245242  31.163  42.595   5.802
 3310POPC   C1A45243  31.709  42.223   6.046
 3310POPC   D2A45244  31.830  42.206   6.491
 3310POPC   C3A45245  31.523  42.107   6.806
 3310POPC   C4A45246  31.454  42.388   7.152
 3310POPC   C1B45247  31.222  42.373   6.221
 3310POPC   C2B45248  31.205  42.471   6.642
 3310POPC   C3B45249  31.045  42.662   6.996
 3310POPC   C4B45250  31.075  42.642   7.425
 3311POPC   NC345251  10.904  36.142   5.514
 3311POPC   PO445252  10.260  35.901   5.359
 3311POPC   GL145253  10.509  35.951   5.780
 3311POPC   GL245254  10.854  35.810   5.906
 3311POPC   C1A45255  10.531  36.058   6.233
 3311POPC   D2A45256  10.511  36.415   6.528
 3311POPC   C3A45257  10.493  36.181   6.942
 3311POPC   C4A45258  10.373  35.717   7.041
 3311POPC   C1B45259  10.992  35.728   6.369
 3311POPC   C2B45260  10.832  35.745   6.829
 3311POPC   C3B45261  10.810  35.873   7.297
 3311POPC   C4B45262  11.034  36.160   7.644
 3312POPC   NC345263   5.699   1.112   5.250
 3312POPC   PO445264   6.111   1.543   5.450
 3312POPC   GL145265   5.882   1.240   5.731
 3312POPC   GL245266   5.627   1.386   5.937
 3312POPC   C1A45267   5.817   0.974   6.116
 3312POPC   D2A45268   5.963   1.015   6.548
 3312POPC   C3A45269   5.719   1.032   6.942
 3312POPC   C4A45270   5.785   1.174   7.378
 3312POPC   C1B45271   5.405   1.215   6.291
 3312POPC   C2B45272   5.375   1.385   6.700
 3312POPC   C3B45273   5.516   1.505   7.084
 3312POPC   C4B45274   5.533   1.611   7.537
 3313POPC   NC345275   7.991  26.216   5.432
 3313POPC   PO445276   8.509  25.782   5.314
 3313POPC   GL145277   8.337  25.939   5.719
 3313POPC   GL245278   8.592  26.170   5.839
 3313POPC   C1A45279   8.116  26.133   6.106
 3313POPC   D2A45280   8.115  26.315   6.519
 3313POPC   C3A45281   7.980  26.096   6.902
 3313POPC   C4A45282   8.141  26.245   7.310
 3313POPC   C1B45283   8.550  25.841   6.179
 3313POPC   C2B45284   8.303  25.833   6.563
 3313POPC   C3B45285   8.437  25.857   6.998
 3313POPC   C4B45286   8.735  25.580   7.211
 3314POPC   NC345287  27.450  36.004   5.330
 3314POPC   PO445288  28.043  36.487   5.392
 3314POPC   GL145289  27.916  36.421   5.870
 3314POPC   GL245290  27.571  36.209   5.914
 3314POPC   C1A45291  27.818  36.429   6.289
 3314POPC   D2A45292  27.583  36.359   6.640
 3314POPC   C3A45293  27.804  36.479   6.992
 3314POPC   C4A45294  27.632  36.280   7.330
 3314POPC   C1B45295  27.575  35.958   6.285
 3314POPC   C2B45296  27.489  35.849   6.708
 3314POPC   C3B45297  27.469  35.815   7.150
 3314POPC   C4B45298  27.568  35.824   7.586
 3315POPC   NC345299  31.918  36.424   5.420
 3315POPC   PO445300  32.481  36.342   5.633
 3315POPC   GL145301  32.171  36.276   5.896
 3315POPC   GL245302  31.936  35.988   5.817
 3315POPC   C1A45303  32.358  36.341   6.293
 3315POPC   D2A45304  32.604  36.413   6.670
 3315POPC   C3A45305  32.318  36.422   7.007
 3315POPC   C4A45306  32.330  36.371   7.446
 3315POPC   C1B45307  32.097  35.887   6.252
 3315POPC   C2B45308  32.196  36.033   6.675
 3315POPC   C3B45309  32.578  35.930   6.915
 3315POPC   C4B45310  32.635  35.786   7.332
 3316POPC   NC345311  39.517   2.394   5.433
 3316POPC   PO445312  38.961   1.952   5.420
 3316POPC   GL145313  39.258   1.977   5.750
 3316POPC   GL245314  39.298   2.300   5.878
 3316POPC   C1A45315  39.265   1.862   6.179
 3316POPC   D2A45316  39.469   1.951   6.558
 3316POPC   C3A45317  39.314   1.888   6.926
 3316POPC   C4A45318  39.396   2.049   7.293
 3316POPC   C1B45319  39.352   2.392   6.290
 3316POPC   C2B45320  39.223   2.368   6.687
 3316POPC   C3B45321  39.023   2.321   7.044
 3316POPC   C4B45322  39.228   2.571   7.340
 3317POPC   NC345323  18.999  11.122   5.491
 3317POPC   PO445324  19.081  11.792   5.381
 3317POPC   GL145325  19.223  11.518   5.753
 3317POPC   GL245326  18.925  11.369   5.946
 3317POPC   C1A45327  19.361  11.306   6.161
 3317POPC   D2A45328  19.156  11.142   6.532
 3317POPC   C3A45329  19.308  11.234   6.955
 3317POPC   C4A45330  19.181  11.103   7.409
 3317POPC   C1B45331  18.798  11.581   6.287
 3317POPC   C2B45332  18.736  11.410   6.689
 3317POPC   C3B45333  18.792  11.293   7.127
 3317POPC   C4B45334  18.800  11.447   7.557
 3318POPC   NC345335  11.249  11.164   5.409
 3318POPC   PO445336  11.144  11.729   5.778
 3318POPC   GL145337  11.367  11.395   5.868
 3318POPC   GL245338  11.082  11.196   5.895
 3318POPC   C1A45339  11.553  11.266   6.232
 3318POPC   D2A45340  11.504  10.978   6.575
 3318POPC   C3A45341  11.478  11.090   6.983
 3318POPC   C4A45342  11.221  11.355   7.160
 3318POPC   C1B45343  10.892  11.071   6.265
 3318POPC   C2B45344  10.933  11.086   6.708
 3318POPC   C3B45345  11.015  10.868   7.068
 3318POPC   C4B45346  10.926  10.871   7.568
 3319POPC   NC345347  27.928  21.662   5.528
 3319POPC   PO445348  28.642  21.410   5.366
 3319POPC   GL145349  28.459  21.227   5.779
 3319POPC   GL245350  28.144  21.345   5.966
 3319POPC   C1A45351  28.577  21.301   6.230
 3319POPC   D2A45352  28.735  21.459   6.616
 3319POPC   C3A45353  28.444  21.568   6.962
 3319POPC   C4A45354  28.596  21.574   7.386
 3319POPC   C1B45355  28.022  21.308   6.406
 3319POPC   C2B45356  28.112  21.183   6.854
 3319POPC   C3B45357  28.216  21.180   7.312
 3319POPC   C4B45358  27.958  21.136   7.721
 3320POPC   NC345359  23.144  40.141   5.377
 3320POPC   PO445360  22.813  39.566   5.408
 3320POPC   GL145361  22.873  39.807   5.738
 3320POPC   GL245362  23.205  39.856   5.820
 3320POPC   C1A45363  22.844  39.803   6.206
 3320POPC   D2A45364  22.785  40.023   6.604
 3320POPC   C3A45365  22.630  39.861   6.974
 3320POPC   C4A45366  22.881  39.966   7.278
 3320POPC   C1B45367  23.397  39.961   6.214
 3320POPC   C2B45368  23.350  40.179   6.629
 3320POPC   C3B45369  23.319  40.050   7.069
 3320POPC   C4B45370  23.321  40.078   7.564
 3321POPC   NC345371  44.380   5.539   5.467
 3321POPC   PO445372  44.354   4.905   5.584
 3321POPC   GL145373  44.706   5.040   5.797
 3321POPC   GL245374  44.907   5.338   5.643
 3321POPC   C1A45375  44.686   4.947   6.234
 3321POPC   D2A45376  44.574   5.246   6.553
 3321POPC   C3A45377  44.513   5.070   6.963
 3321POPC   C4A45378  44.843   5.024   7.291
 3321POPC   C1B45379   0.019   5.382   6.082
 3321POPC   C2B45380   0.078   5.155   6.476
 3321POPC   C3B45381   0.024   5.308   6.881
 3321POPC   C4B45382   0.222   5.347   7.276
 3322POPC   NC345383   2.544  31.775   5.510
 3322POPC   PO445384   2.982  31.293   5.386
 3322POPC   GL145385   2.921  31.321   5.836
 3322POPC   GL245386   2.554  31.343   5.844
 3322POPC   C1A45387   2.791  31.130   6.256
 3322POPC   D2A45388   2.602  31.004   6.664
 3322POPC   C3A45389   2.826  31.161   7.021
 3322POPC   C4A45390   3.140  31.495   7.145
 3322POPC   C1B45391   2.566  31.628   6.234
 3322POPC   C2B45392   2.600  31.695   6.717
 3322POPC   C3B45393   2.608  31.598   7.190
 3322POPC   C4B45394   2.388  31.377   7.568
 3323POPC   NC345395   2.710  25.898   5.190
 3323POPC   PO445396   2.723  25.353   5.540
 3323POPC   GL145397   2.649  25.388   5.915
 3323POPC   GL245398   3.006  25.337   5.997
 3323POPC   C1A45399   2.596  25.287   6.332
 3323POPC   D2A45400   2.841  25.010   6.561
 3323POPC   C3A45401   2.856  25.207   6.952
 3323POPC   C4A45402   2.639  25.320   7.340
 3323POPC   C1B45403   3.293  25.606   6.218
 3323POPC   C2B45404   3.435  25.509   6.609
 3323POPC   C3B45405   3.286  25.459   6.995
 3323POPC   C4B45406   3.148  25.446   7.408
 3324POPC   NC345407   7.564  38.751   5.403
 3324POPC   PO445408   7.083  38.282   5.487
 3324POPC   GL145409   7.447  38.229   5.788
 3324POPC   GL245410   7.670  38.514   5.848
 3324POPC   C1A45411   7.633  38.134   6.216
 3324POPC   D2A45412   7.420  38.213   6.618
 3324POPC   C3A45413   7.560  38.392   6.992
 3324POPC   C4A45414   7.325  38.532   7.315
 3324POPC   C1B45415   7.451  38.611   6.253
 3324POPC   C2B45416   7.614  38.799   6.636
 3324POPC   C3B45417   7.532  38.915   7.068
 3324POPC   C4B45418   7.548  38.915   7.572
 3325POPC   NC345419   4.488  34.974   4.980
 3325POPC   PO445420   3.993  35.360   5.274
 3325POPC   GL145421   4.033  35.288   5.728
 3325POPC   GL245422   3.993  35.624   5.874
 3325POPC   C1A45423   4.256  35.099   6.082
 3325POPC   D2A45424   4.436  35.149   6.505
 3325POPC   C3A45425   4.211  35.143   6.911
 3325POPC   C4A45426   4.508  35.082   7.237
 3325POPC   C1B45427   4.161  35.559   6.302
 3325POPC   C2B45428   4.233  35.640   6.756
 3325POPC   C3B45429   4.411  35.607   7.170
 3325POPC   C4B45430   4.546  35.470   7.561
 3326POPC   NC345431  16.468  43.901   5.111
 3326POPC   PO445432  15.930  43.845   5.611
 3326POPC   GL145433  16.032  43.656   5.959
 3326POPC   GL245434  16.359  43.630   6.042
 3326POPC   C1A45435  16.065  43.781   6.404
 3326POPC   D2A45436  15.841  44.069   6.629
 3326POPC   C3A45437  15.658  43.952   7.020
 3326POPC   C4A45438  15.359  44.171   7.245
 3326POPC   C1B45439  16.445  44.084   6.245
 3326POPC   C2B45440  16.372  44.143   6.676
 3326POPC   C3B45441  16.181  43.824   6.941
 3326POPC   C4B45442  16.307  43.707   7.344
 3327POPC   NC345443  31.805   5.047   5.408
 3327POPC   PO445444  31.116   4.863   5.348
 3327POPC   GL145445  31.293   4.932   5.739
 3327POPC   GL245446  31.168   5.228   5.849
 3327POPC   C1A45447  31.272   4.823   6.179
 3327POPC   D2A45448  31.258   4.936   6.579
 3327POPC   C3A45449  31.631   5.136   6.722
 3327POPC   C4A45450  31.690   4.966   7.150
 3327POPC   C1B45451  31.348   5.327   6.264
 3327POPC   C2B45452  31.197   5.450   6.677
 3327POPC   C3B45453  31.252   5.226   7.034
 3327POPC   C4B45454  31.201   4.914   7.306
 3328POPC   NC345455  19.578  31.349   5.372
 3328POPC   PO445456  19.953  31.923   5.469
 3328POPC   GL145457  19.793  31.782   5.842
 3328POPC   GL245458  19.887  31.434   5.826
 3328POPC   C1A45459  19.675  31.638   6.253
 3328POPC   D2A45460  19.885  31.386   6.529
 3328POPC   C3A45461  20.047  31.124   6.833
 3328POPC   C4A45462  19.965  31.386   7.217
 3328POPC   C1B45463  19.693  31.128   6.121
 3328POPC   C2B45464  19.630  30.953   6.565
 3328POPC   C3B45465  19.566  31.175   6.956
 3328POPC   C4B45466  19.514  31.278   7.403
 3329POPC   NC345467  11.389  28.349   5.413
 3329POPC   PO445468  10.765  28.421   5.134
 3329POPC   GL145469  10.889  28.385   5.656
 3329POPC   GL245470  11.092  28.077   5.807
 3329POPC   C1A45471  11.066  28.523   6.149
 3329POPC   D2A45472  11.213  28.303   6.564
 3329POPC   C3A45473  11.298  28.420   7.029
 3329POPC   C4A45474  11.505  28.557   7.418
 3329POPC   C1B45475  11.330  27.903   6.201
 3329POPC   C2B45476  11.585  27.804   6.581
 3329POPC   C3B45477  11.559  27.972   7.012
 3329POPC   C4B45478  11.514  28.059   7.464
 3330POPC   NC345479  24.565  44.157   5.490
 3330POPC   PO445480  24.348  43.511   5.532
 3330POPC   GL145481  24.421  43.703   5.878
 3330POPC   GL245482  24.199  43.975   5.850
 3330POPC   C1A45483  24.404  43.530   6.282
 3330POPC   D2A45484  24.270  43.600   6.683
 3330POPC   C3A45485  24.491  43.777   7.048
 3330POPC   C4A45486  24.326  43.724   7.476
 3330POPC   C1B45487  24.280  44.037   6.279
 3330POPC   C2B45488  24.082  44.089   6.670
 3330POPC   C3B45489  24.173  44.222   7.078
 3330POPC   C4B45490  24.229  44.253   7.511
 3331POPC   NC345491   9.364  41.059   5.445
 3331POPC   PO445492   9.749  40.549   5.601
 3331POPC   GL145493   9.627  40.877   5.830
 3331POPC   GL245494   9.952  40.970   5.938
 3331POPC   C1A45495   9.535  41.101   6.201
 3331POPC   D2A45496   9.798  41.119   6.568
 3331POPC   C3A45497   9.669  40.894   6.951
 3331POPC   C4A45498   9.628  40.979   7.380
 3331POPC   C1B45499   9.865  40.678   6.264
 3331POPC   C2B45500  10.043  40.654   6.666
 3331POPC   C3B45501   9.984  40.421   7.050
 3331POPC   C4B45502  10.012  40.650   7.444
 3332POPC   NC345503  24.681   8.753   5.408
 3332POPC   PO445504  24.114   8.438   5.627
 3332POPC   GL145505  24.313   8.823   5.855
 3332POPC   GL245506  24.648   8.965   5.851
 3332POPC   C1A45507  24.372   9.063   6.264
 3332POPC   D2A45508  24.481   9.438   6.523
 3332POPC   C3A45509  24.543   9.331   6.932
 3332POPC   C4A45510  24.339   8.962   7.092
 3332POPC   C1B45511  24.791   8.726   6.222
 3332POPC   C2B45512  24.615   8.584   6.634
 3332POPC   C3B45513  24.718   8.628   7.047
 3332POPC   C4B45514  24.874   9.002   7.209
 3333POPC   NC345515  20.917   4.550   5.460
 3333POPC   PO445516  20.305   4.064   5.435
 3333POPC   GL145517  20.570   4.311   5.732
 3333POPC   GL245518  20.923   4.289   5.905
 3333POPC   C1A45519  20.485   4.604   6.046
 3333POPC   D2A45520  20.695   4.801   6.400
 3333POPC   C3A45521  20.780   4.595   6.768
 3333POPC   C4A45522  20.553   4.669   7.117
 3333POPC   C1B45523  20.754   4.300   6.333
 3333POPC   C2B45524  20.362   4.255   6.552
 3333POPC   C3B45525  20.357   4.204   6.985
 3333POPC   C4B45526  20.764   4.205   7.139
 3334POPC   NC345527  34.827  38.746   5.462
 3334POPC   PO445528  34.294  38.352   5.492
 3334POPC   GL145529  34.423  38.640   5.766
 3334POPC   GL245530  34.712  38.413   5.835
 3334POPC   C1A45531  34.480  38.726   6.188
 3334POPC   D2A45532  34.242  38.556   6.530
 3334POPC   C3A45533  34.387  38.521   6.940
 3334POPC   C4A45534  34.219  38.264   7.225
 3334POPC   C1B45535  34.530  38.168   6.178
 3334POPC   C2B45536  34.620  38.164   6.627
 3334POPC   C3B45537  34.587  37.975   7.031
 3334POPC   C4B45538  34.712  38.221   7.393
 3335POPC   NC345539  31.648  39.628   5.371
 3335POPC   PO445540  31.357  40.194   5.611
 3335POPC   GL145541  31.568  39.871   5.807
 3335POPC   GL245542  31.226  39.688   5.704
 3335POPC   C1A45543  31.750  39.895   6.236
 3335POPC   D2A45544  31.819  40.110   6.674
 3335POPC   C3A45545  31.624  39.966   7.080
 3335POPC   C4A45546  31.347  40.097   7.452
 3335POPC   C1B45547  31.236  39.730   6.161
 3335POPC   C2B45548  31.332  39.946   6.563
 3335POPC   C3B45549  31.153  39.858   6.961
 3335POPC   C4B45550  31.275  39.611   7.298
 3336POPC   NC345551   1.082  26.378   5.657
 3336POPC   PO445552   1.538  26.057   5.282
 3336POPC   GL145553   1.504  26.012   5.783
 3336POPC   GL245554   1.263  25.731   5.858
 3336POPC   C1A45555   1.471  26.077   6.297
 3336POPC   D2A45556   1.457  25.957   6.792
 3336POPC   C3A45557   1.262  26.170   7.146
 3336POPC   C4A45558   1.370  26.163   7.595
 3336POPC   C1B45559   1.013  25.875   6.229
 3336POPC   C2B45560   0.945  25.892   6.686
 3336POPC   C3B45561   1.039  25.691   7.076
 3336POPC   C4B45562   1.017  25.836   7.500
 3337POPC   NC345563  29.787  44.754   5.579
 3337POPC   PO445564  30.016  44.112   5.418
 3337POPC   GL145565  30.054  44.348   5.839
 3337POPC   GL245566  29.725  44.385   5.931
 3337POPC   C1A45567  30.041  44.457   6.335
 3337POPC   D2A45568  30.110  44.758   6.677
 3337POPC   C3A45569  29.908  44.717   7.065
 3337POPC   C4A45570  29.727  44.575   7.435
 3337POPC   C1B45571  29.528  44.431   6.333
 3337POPC   C2B45572  29.591  44.450   6.776
 3337POPC   C3B45573  29.309  44.551   7.133
 3337POPC   C4B45574  29.235  44.627   7.584
 3338POPC   NC345575   3.868   4.772   5.314
 3338POPC   PO445576   3.626   4.150   5.480
 3338POPC   GL145577   3.543   4.223   5.915
 3338POPC   GL245578   3.362   4.519   5.884
 3338POPC   C1A45579   3.418   4.169   6.357
 3338POPC   D2A45580   3.571   4.177   6.789
 3338POPC   C3A45581   3.340   4.057   7.151
 3338POPC   C4A45582   3.188   4.131   7.583
 3338POPC   C1B45583   3.182   4.623   6.293
 3338POPC   C2B45584   3.293   4.633   6.730
 3338POPC   C3B45585   3.558   4.613   7.113
 3338POPC   C4B45586   3.655   4.921   7.459
 3339POPC   NC345587  19.030  34.078   5.470
 3339POPC   PO445588  18.833  33.501   5.200
 3339POPC   GL145589  18.911  33.484   5.723
 3339POPC   GL245590  19.255  33.562   5.876
 3339POPC   C1A45591  18.851  33.540   6.223
 3339POPC   D2A45592  18.812  33.593   6.710
 3339POPC   C3A45593  19.156  33.819   6.951
 3339POPC   C4A45594  19.260  34.229   7.146
 3339POPC   C1B45595  19.354  33.365   6.302
 3339POPC   C2B45596  19.560  33.318   6.720
 3339POPC   C3B45597  19.465  33.439   7.152
 3339POPC   C4B45598  19.026  33.472   7.318
 3340POPC   NC345599  37.854  41.764   5.477
 3340POPC   PO445600  37.435  41.360   5.179
 3340POPC   GL145601  37.509  41.431   5.649
 3340POPC   GL245602  37.439  41.730   5.826
 3340POPC   C1A45603  37.810  41.417   6.069
 3340POPC   D2A45604  37.832  41.212   6.516
 3340POPC   C3A45605  37.894  41.427   6.940
 3340POPC   C4A45606  37.931  41.211   7.311
 3340POPC   C1B45607  37.393  41.621   6.259
 3340POPC   C2B45608  37.538  41.634   6.663
 3340POPC   C3B45609  37.447  41.580   7.122
 3340POPC   C4B45610  37.445  41.898   7.459
 3341POPC   NC345611  36.402  37.799   5.515
 3341POPC   PO445612  35.779  37.604   5.404
 3341POPC   GL145613  35.837  37.872   5.764
 3341POPC   GL245614  36.045  37.575   5.844
 3341POPC   C1A45615  36.077  37.954   6.160
 3341POPC   D2A45616  36.202  37.574   6.387
 3341POPC   C3A45617  36.268  37.700   6.813
 3341POPC   C4A45618  36.265  37.916   7.199
 3341POPC   C1B45619  35.925  37.176   6.070
 3341POPC   C2B45620  35.951  37.062   6.492
 3341POPC   C3B45621  35.967  37.305   6.844
 3341POPC   C4B45622  36.169  37.395   7.247
 3342POPC   NC345623  12.788  42.396   5.500
 3342POPC   PO445624  13.324  42.748   5.672
 3342POPC   GL145625  13.087  42.436   5.954
 3342POPC   GL245626  12.722  42.384   5.979
 3342POPC   C1A45627  13.000  42.364   6.399
 3342POPC   D2A45628  13.236  42.196   6.709
 3342POPC   C3A45629  13.097  42.494   6.995
 3342POPC   C4A45630  13.161  42.603   7.402
 3342POPC   C1B45631  12.491  42.176   6.261
 3342POPC   C2B45632  12.513  42.248   6.663
 3342POPC   C3B45633  12.394  42.110   7.002
 3342POPC   C4B45634  12.631  42.413   7.204
 3343POPC   NC345635  20.192   9.640   5.606
 3343POPC   PO445636  19.714   9.938   5.325
 3343POPC   GL145637  19.724   9.837   5.779
 3343POPC   GL245638  19.768   9.507   5.897
 3343POPC   C1A45639  19.980   9.929   6.154
 3343POPC   D2A45640  20.134   9.888   6.559
 3343POPC   C3A45641  19.916   9.975   6.918
 3343POPC   C4A45642  19.942   9.807   7.311
 3343POPC   C1B45643  19.659   9.544   6.318
 3343POPC   C2B45644  19.798   9.499   6.729
 3343POPC   C3B45645  19.553   9.631   7.075
 3343POPC   C4B45646  19.565   9.449   7.491
 3344POPC   NC345647   3.884  30.377   5.480
 3344POPC   PO445648   3.663  29.779   5.368
 3344POPC   GL145649   3.636  30.023   5.772
 3344POPC   GL245650   3.452  29.785   5.928
 3344POPC   C1A45651   3.755  30.037   6.255
 3344POPC   D2A45652   3.932  30.025   6.697
 3344POPC   C3A45653   3.739  29.798   7.045
 3344POPC   C4A45654   3.673  29.645   7.514
 3344POPC   C1B45655   3.260  30.125   6.159
 3344POPC   C2B45656   3.277  30.343   6.575
 3344POPC   C3B45657   3.212  30.203   6.996
 3344POPC   C4B45658   3.420  30.058   7.357
 3345POPC   NC345659  15.810  16.685   5.622
 3345POPC   PO445660  16.306  16.248   5.340
 3345POPC   GL145661  16.327  16.568   5.763
 3345POPC   GL245662  16.151  16.909   5.907
 3345POPC   C1A45663  16.259  16.526   6.255
 3345POPC   D2A45664  16.388  16.444   6.719
 3345POPC   C3A45665  16.092  16.571   7.071
 3345POPC   C4A45666  15.867  16.799   7.416
 3345POPC   C1B45667  15.944  17.023   6.297
 3345POPC   C2B45668  15.898  16.936   6.754
 3345POPC   C3B45669  16.095  17.154   7.129
 3345POPC   C4B45670  16.135  17.216   7.602
 3346POPC   NC345671   6.024  21.703   5.318
 3346POPC   PO445672   5.646  21.203   5.573
 3346POPC   GL145673   5.898  21.504   5.805
 3346POPC   GL245674   5.623  21.622   5.975
 3346POPC   C1A45675   6.103  21.549   6.225
 3346POPC   D2A45676   6.004  21.386   6.641
 3346POPC   C3A45677   6.013  21.572   7.041
 3346POPC   C4A45678   6.096  21.378   7.456
 3346POPC   C1B45679   5.642  21.288   6.282
 3346POPC   C2B45680   5.514  21.243   6.722
 3346POPC   C3B45681   5.488  21.458   7.098
 3346POPC   C4B45682   5.664  21.671   7.406
 3347POPC   NC345683  31.456  23.865   5.241
 3347POPC   PO445684  31.853  23.947   5.763
 3347POPC   GL145685  31.769  24.017   6.150
 3347POPC   GL245686  31.718  24.386   6.093
 3347POPC   C1A45687  31.435  23.815   6.401
 3347POPC   D2A45688  31.219  23.845   6.804
 3347POPC   C3A45689  31.230  23.470   7.085
 3347POPC   C4A45690  31.106  23.477   7.533
 3347POPC   C1B45691  31.541  24.305   6.493
 3347POPC   C2B45692  31.764  24.015   6.752
 3347POPC   C3B45693  31.653  23.793   7.093
 3347POPC   C4B45694  31.308  23.923   7.316
 3348POPC   NC345695  27.206   7.445   5.457
 3348POPC   PO445696  26.534   7.611   5.322
 3348POPC   GL145697  26.728   7.464   5.689
 3348POPC   GL245698  26.437   7.347   5.854
 3348POPC   C1A45699  26.896   7.318   6.087
 3348POPC   D2A45700  26.936   7.503   6.489
 3348POPC   C3A45701  26.862   7.253   6.847
 3348POPC   C4A45702  27.035   7.390   7.226
 3348POPC   C1B45703  26.575   7.719   6.135
 3348POPC   C2B45704  26.546   7.863   6.570
 3348POPC   C3B45705  26.637   7.688   6.974
 3348POPC   C4B45706  26.510   7.450   7.323
 3349POPC   NC345707  19.707  10.411   5.378
 3349POPC   PO445708  20.152  10.869   5.354
 3349POPC   GL145709  19.978  10.741   5.773
 3349POPC   GL245710  19.634  10.874   5.850
 3349POPC   C1A45711  19.987  10.619   6.234
 3349POPC   D2A45712  19.969  10.725   6.692
 3349POPC   C3A45713  20.079  10.443   7.045
 3349POPC   C4A45714  20.041  10.312   7.505
 3349POPC   C1B45715  19.513  10.825   6.319
 3349POPC   C2B45716  19.469  10.779   6.790
 3349POPC   C3B45717  19.545  10.774   7.249
 3349POPC   C4B45718  19.598  10.850   7.714
 3350POPC   NC345719  13.476  34.266   5.531
 3350POPC   PO445720  13.609  34.946   5.430
 3350POPC   GL145721  13.753  34.770   5.810
 3350POPC   GL245722  13.426  34.630   5.918
 3350POPC   C1A45723  13.814  34.557   6.219
 3350POPC   D2A45724  13.602  34.595   6.624
 3350POPC   C3A45725  13.861  34.464   6.959
 3350POPC   C4A45726  13.935  34.251   7.303
 3350POPC   C1B45727  13.155  34.518   6.308
 3350POPC   C2B45728  13.106  34.370   6.743
 3350POPC   C3B45729  13.336  34.416   7.148
 3350POPC   C4B45730  13.248  34.599   7.552
 3351POPC   NC345731  32.121  32.428   5.403
 3351POPC   PO445732  32.539  31.839   5.343
 3351POPC   GL145733  32.386  32.136   5.722
 3351POPC   GL245734  32.407  32.555   5.793
 3351POPC   C1A45735  32.215  32.243   6.150
 3351POPC   D2A45736  31.946  32.236   6.495
 3351POPC   C3A45737  32.193  32.134   6.844
 3351POPC   C4A45738  32.333  32.261   7.235
 3351POPC   C1B45739  32.025  32.727   6.036
 3351POPC   C2B45740  31.823  32.767   6.456
 3351POPC   C3B45741  31.974  32.598   6.871
 3351POPC   C4B45742  31.900  32.494   7.309
 3352POPC   NC345743  44.902  37.559   5.394
 3352POPC   PO445744  44.718  36.966   5.376
 3352POPC   GL145745  44.856  37.078   5.847
 3352POPC   GL245746  44.865  37.428   5.951
 3352POPC   C1A45747  44.911  36.930   6.314
 3352POPC   D2A45748  44.721  36.955   6.757
 3352POPC   C3A45749  44.985  36.986   7.127
 3352POPC   C4A45750   0.080  36.774   7.533
 3352POPC   C1B45751  44.696  37.371   6.402
 3352POPC   C2B45752  44.320  37.268   6.667
 3352POPC   C3B45753  44.329  37.102   7.110
 3352POPC   C4B45754  44.600  36.965   7.457
 3353POPC   NC345755  33.476  35.541   5.348
 3353POPC   PO445756  33.882  35.065   5.117
 3353POPC   GL145757  33.721  35.156   5.575
 3353POPC   GL245758  33.658  34.943   5.827
 3353POPC   C1A45759  33.703  35.461   5.966
 3353POPC   D2A45760  33.951  35.591   6.372
 3353POPC   C3A45761  33.836  35.495   6.799
 3353POPC   C4A45762  33.601  35.507   7.195
 3353POPC   C1B45763  33.818  35.067   6.258
 3353POPC   C2B45764  34.027  35.035   6.656
 3353POPC   C3B45765  33.774  35.039   7.027
 3353POPC   C4B45766  33.768  35.003   7.456
 3354POPC   NC345767  31.173  14.814   5.433
 3354POPC   PO445768  31.336  15.447   5.414
 3354POPC   GL145769  31.293  15.281   5.789
 3354POPC   GL245770  31.535  15.027   5.775
 3354POPC   C1A45771  31.260  15.438   6.194
 3354POPC   D2A45772  31.525  15.451   6.535
 3354POPC   C3A45773  31.330  15.424   6.904
 3354POPC   C4A45774  31.366  15.218   7.265
 3354POPC   C1B45775  31.348  14.927   6.170
 3354POPC   C2B45776  31.176  15.059   6.571
 3354POPC   C3B45777  31.196  14.843   6.977
 3354POPC   C4B45778  31.591  14.760   7.249
 3355POPC   NC345779  36.068   3.236   5.439
 3355POPC   PO445780  36.036   3.879   5.199
 3355POPC   GL145781  36.183   3.782   5.709
 3355POPC   GL245782  36.370   3.469   5.774
 3355POPC   C1A45783  36.023   3.701   6.157
 3355POPC   D2A45784  36.069   3.385   6.503
 3355POPC   C3A45785  35.926   3.475   6.925
 3355POPC   C4A45786  36.065   3.490   7.324
 3355POPC   C1B45787  36.539   3.626   6.176
 3355POPC   C2B45788  36.355   3.826   6.550
 3355POPC   C3B45789  36.381   3.712   6.981
 3355POPC   C4B45790  36.431   3.835   7.428
 3356POPC   NC345791  29.349   6.058   5.418
 3356POPC   PO445792  28.672   5.849   5.416
 3356POPC   GL145793  28.971   5.996   5.774
 3356POPC   GL245794  29.214   6.286   5.854
 3356POPC   C1A45795  28.917   5.893   6.208
 3356POPC   D2A45796  28.929   5.712   6.601
 3356POPC   C3A45797  28.911   5.976   6.936
 3356POPC   C4A45798  28.912   5.840   7.325
 3356POPC   C1B45799  29.424   5.978   6.118
 3356POPC   C2B45800  29.344   6.004   6.561
 3356POPC   C3B45801  29.399   5.842   6.977
 3356POPC   C4B45802  29.314   6.165   7.266
 3357POPC   NC345803  16.291   0.815   5.507
 3357POPC   PO445804  16.668   1.405   5.355
 3357POPC   GL145805  16.832   1.278   5.737
 3357POPC   GL245806  17.142   1.471   5.779
 3357POPC   C1A45807  16.599   1.156   6.108
 3357POPC   D2A45808  16.419   0.937   6.464
 3357POPC   C3A45809  16.513   1.113   6.885
 3357POPC   C4A45810  16.600   0.839   7.211
 3357POPC   C1B45811  16.969   1.528   6.177
 3357POPC   C2B45812  16.811   1.348   6.542
 3357POPC   C3B45813  16.866   1.484   6.944
 3357POPC   C4B45814  17.118   1.580   7.290
 3358POPC   NC345815  22.854  42.409   5.119
 3358POPC   PO445816  23.353  42.444   5.592
 3358POPC   GL145817  23.052  42.298   5.836
 3358POPC   GL245818  22.774  42.505   5.703
 3358POPC   C1A45819  23.066  42.090   6.244
 3358POPC   D2A45820  22.923  42.020   6.648
 3358POPC   C3A45821  23.093  42.254   6.964
 3358POPC   C4A45822  22.910  42.048   7.272
 3358POPC   C1B45823  22.663  42.418   6.145
 3358POPC   C2B45824  22.811  42.514   6.558
 3358POPC   C3B45825  22.654  42.565   6.977
 3358POPC   C4B45826  22.841  42.567   7.377
 3359POPC   NC345827  30.951  29.579   5.415
 3359POPC   PO445828  30.574  28.985   5.317
 3359POPC   GL145829  30.664  28.942   5.788
 3359POPC   GL245830  30.724  29.287   5.885
 3359POPC   C1A45831  30.959  28.900   6.166
 3359POPC   D2A45832  30.982  29.017   6.627
 3359POPC   C3A45833  30.712  28.956   7.010
 3359POPC   C4A45834  30.752  29.272   7.354
 3359POPC   C1B45835  30.564  29.165   6.291
 3359POPC   C2B45836  30.530  29.335   6.702
 3359POPC   C3B45837  30.322  29.311   7.112
 3359POPC   C4B45838  30.184  29.391   7.566
 3360POPC   NC345839   8.353  18.737   5.659
 3360POPC   PO445840   8.005  18.093   5.509
 3360POPC   GL145841   8.097  18.334   5.889
 3360POPC   GL245842   7.891  18.643   5.974
 3360POPC   C1A45843   8.163  18.349   6.328
 3360POPC   D2A45844   8.068  18.506   6.709
 3360POPC   C3A45845   8.036  18.181   6.986
 3360POPC   C4A45846   8.450  18.039   7.155
 3360POPC   C1B45847   8.185  18.870   6.272
 3360POPC   C2B45848   8.594  18.700   6.407
 3360POPC   C3B45849   8.585  18.435   6.790
 3360POPC   C4B45850   8.349  18.550   7.176
 3361POPC   NC345851   9.321  38.284   5.131
 3361POPC   PO445852   8.778  38.571   5.334
 3361POPC   GL145853   8.903  38.511   5.771
 3361POPC   GL245854   8.676  38.796   5.813
 3361POPC   C1A45855   9.047  38.326   6.172
 3361POPC   D2A45856   9.072  38.523   6.586
 3361POPC   C3A45857   9.048  38.366   7.002
 3361POPC   C4A45858   9.146  38.467   7.418
 3361POPC   C1B45859   8.673  38.701   6.257
 3361POPC   C2B45860   8.592  38.776   6.687
 3361POPC   C3B45861   8.825  38.858   7.040
 3361POPC   C4B45862   8.693  38.669   7.393
 3362POPC   NC345863  32.790  19.149   5.400
 3362POPC   PO445864  32.841  18.462   5.322
 3362POPC   GL145865  32.720  18.709   5.755
 3362POPC   GL245866  32.703  19.084   5.891
 3362POPC   C1A45867  32.860  18.713   6.219
 3362POPC   D2A45868  33.033  18.762   6.659
 3362POPC   C3A45869  32.938  19.004   7.062
 3362POPC   C4A45870  33.101  19.244   7.419
 3362POPC   C1B45871  32.925  19.208   6.282
 3362POPC   C2B45872  33.100  19.378   6.685
 3362POPC   C3B45873  32.889  19.537   7.060
 3362POPC   C4B45874  32.601  19.335   7.391
 3363POPC   NC345875  14.218   0.372   5.442
 3363POPC   PO445876  14.813   0.123   5.618
 3363POPC   GL145877  14.473   0.233   5.869
 3363POPC   GL245878  14.513   0.601   5.807
 3363POPC   C1A45879  14.429   0.301   6.306
 3363POPC   D2A45880  14.677   0.548   6.584
 3363POPC   C3A45881  14.704   0.268   6.919
 3363POPC   C4A45882  14.637   0.338   7.325
 3363POPC   C1B45883  14.345   0.774   6.174
 3363POPC   C2B45884  14.187   0.671   6.609
 3363POPC   C3B45885  14.408   0.702   7.011
 3363POPC   C4B45886  14.241   0.646   7.420
 3364POPC   NC345887   8.324  44.473   5.201
 3364POPC   PO445888   7.855  44.708   5.566
 3364POPC   GL145889   8.130  44.481   5.814
 3364POPC   GL245890   7.877  44.391   6.033
 3364POPC   C1A45891   8.327  44.519   6.243
 3364POPC   D2A45892   8.043  44.547   6.613
 3364POPC   C3A45893   8.268  44.485   6.982
 3364POPC   C4A45894   8.488  44.814   7.225
 3364POPC   C1B45895   7.938  44.844   6.195
 3364POPC   C2B45896   7.849   0.026   6.610
 3364POPC   C3B45897   7.966  44.882   7.027
 3364POPC   C4B45898   7.858  44.985   7.430
 3365POPC   NC345899   2.357  30.142   5.324
 3365POPC   PO445900   1.839  29.713   5.246
 3365POPC   GL145901   2.139  29.785   5.648
 3365POPC   GL245902   2.075  30.130   5.747
 3365POPC   C1A45903   2.272  29.871   6.142
 3365POPC   D2A45904   2.164  29.762   6.628
 3365POPC   C3A45905   2.220  29.880   7.085
 3365POPC   C4A45906   2.219  29.964   7.564
 3365POPC   C1B45907   1.751  29.920   6.026
 3365POPC   C2B45908   1.700  29.710   6.432
 3365POPC   C3B45909   1.669  29.772   6.885
 3365POPC   C4B45910   1.768  29.978   7.300
 3366POPC   NC345911  28.614  41.556   5.513
 3366POPC   PO445912  29.329  41.734   5.508
 3366POPC   GL145913  29.266  41.601   5.900
 3366POPC   GL245914  28.917  41.720   5.886
 3366POPC   C1A45915  29.076  41.375   6.221
 3366POPC   D2A45916  28.876  41.408   6.590
 3366POPC   C3A45917  29.168  41.401   6.930
 3366POPC   C4A45918  29.203  41.362   7.362
 3366POPC   C1B45919  28.997  41.892   6.304
 3366POPC   C2B45920  29.006  41.863   6.748
 3366POPC   C3B45921  29.074  41.850   7.209
 3366POPC   C4B45922  28.920  41.922   7.635
 3367POPC   NC345923  37.687  11.389   5.396
 3367POPC   PO445924  38.205  11.182   5.772
 3367POPC   GL145925  37.920  11.468   5.881
 3367POPC   GL245926  37.695  11.216   5.926
 3367POPC   C1A45927  37.736  11.634   6.240
 3367POPC   D2A45928  37.579  11.481   6.640
 3367POPC   C3A45929  37.747  11.558   7.053
 3367POPC   C4A45930  37.867  11.397   7.464
 3367POPC   C1B45931  37.948  11.183   6.343
 3367POPC   C2B45932  37.793  10.973   6.660
 3367POPC   C3B45933  37.560  11.072   6.985
 3367POPC   C4B45934  37.671  10.957   7.348
 3368POPC   NC345935   6.572  14.872   5.587
 3368POPC   PO445936   6.592  14.482   4.970
 3368POPC   GL145937   6.638  14.377   5.490
 3368POPC   GL245938   6.373  14.217   5.731
 3368POPC   C1A45939   6.804  14.358   5.974
 3368POPC   D2A45940   6.784  14.521   6.423
 3368POPC   C3A45941   6.676  14.356   6.837
 3368POPC   C4A45942   6.760  14.415   7.273
 3368POPC   C1B45943   6.339  14.488   6.154
 3368POPC   C2B45944   6.192  14.544   6.600
 3368POPC   C3B45945   6.133  14.340   6.994
 3368POPC   C4B45946   6.315  14.127   7.332
 3369POPC   NC345947  11.437  12.508   5.574
 3369POPC   PO445948  11.112  13.073   5.368
 3369POPC   GL145949  11.252  12.951   5.777
 3369POPC   GL245950  11.632  12.989   5.749
 3369POPC   C1A45951  11.073  12.897   6.197
 3369POPC   D2A45952  11.011  12.744   6.606
 3369POPC   C3A45953  11.201  12.884   6.978
 3369POPC   C4A45954  11.115  12.624   7.327
 3369POPC   C1B45955  11.673  12.808   6.165
 3369POPC   C2B45956  11.545  12.821   6.583
 3369POPC   C3B45957  11.697  12.654   6.956
 3369POPC   C4B45958  11.604  12.485   7.312
 3370POPC   NC345959  35.845  40.198   5.497
 3370POPC   PO445960  36.343  39.757   5.499
 3370POPC   GL145961  36.205  39.993   5.833
 3370POPC   GL245962  36.533  40.046   5.910
 3370POPC   C1A45963  36.098  39.949   6.277
 3370POPC   D2A45964  36.026  39.600   6.554
 3370POPC   C3A45965  36.092  39.776   6.927
 3370POPC   C4A45966  36.074  40.217   7.087
 3370POPC   C1B45967  36.653  40.032   6.335
 3370POPC   C2B45968  36.437  40.101   6.704
 3370POPC   C3B45969  36.509  39.993   7.131
 3370POPC   C4B45970  36.239  39.787   7.406
 3371POPC   NC345971  12.228  33.109   5.177
 3371POPC   PO445972  11.805  32.882   5.595
 3371POPC   GL145973  12.113  33.026   5.839
 3371POPC   GL245974  12.104  33.350   5.748
 3371POPC   C1A45975  12.095  32.900   6.266
 3371POPC   D2A45976  11.872  32.783   6.639
 3371POPC   C3A45977  12.130  32.927   6.944
 3371POPC   C4A45978  12.494  32.767   7.198
 3371POPC   C1B45979  12.016  33.435   6.212
 3371POPC   C2B45980  12.133  33.409   6.659
 3371POPC   C3B45981  11.939  33.435   7.061
 3371POPC   C4B45982  11.744  33.089   7.260
 3372POPC   NC345983  29.760  28.674   5.471
 3372POPC   PO445984  30.103  28.105   5.253
 3372POPC   GL145985  30.041  28.190   5.726
 3372POPC   GL245986  29.774  28.066   5.971
 3372POPC   C1A45987  30.177  28.334   6.164
 3372POPC   D2A45988  29.950  28.154   6.537
 3372POPC   C3A45989  29.963  28.353   6.941
 3372POPC   C4A45990  30.098  28.510   7.368
 3372POPC   C1B45991  29.697  28.490   6.205
 3372POPC   C2B45992  29.776  28.719   6.630
 3372POPC   C3B45993  29.613  28.679   7.091
 3372POPC   C4B45994  29.533  28.301   7.341
 3373POPC   NC345995  18.088  39.929   5.490
 3373POPC   PO445996  18.716  40.118   5.546
 3373POPC   GL145997  18.416  40.242   5.873
 3373POPC   GL245998  18.033  40.186   5.920
 3373POPC   C1A45999  18.352  40.145   6.314
 3373POPC   D2A46000  18.093  39.925   6.584
 3373POPC   C3A46001  18.394  39.797   6.867
 3373POPC   C4A46002  18.374  39.901   7.257
 3373POPC   C1B46003  17.918  40.425   6.280
 3373POPC   C2B46004  18.003  40.426   6.719
 3373POPC   C3B46005  17.969  40.144   7.061
 3373POPC   C4B46006  17.933  40.053   7.490
 3374POPC   NC346007  15.702  40.228   5.374
 3374POPC   PO446008  16.114  40.802   5.518
 3374POPC   GL146009  15.974  40.648   5.884
 3374POPC   GL246010  16.278  40.438   5.888
 3374POPC   C1A46011  15.661  40.781   6.199
 3374POPC   D2A46012  15.615  41.059   6.554
 3374POPC   C3A46013  15.604  40.806   6.917
 3374POPC   C4A46014  15.873  40.791   7.269
 3374POPC   C1B46015  16.294  40.683   6.267
 3374POPC   C2B46016  15.983  40.665   6.587
 3374POPC   C3B46017  16.174  40.589   6.931
 3374POPC   C4B46018  16.402  40.811   7.198
 3375POPC   NC346019  33.775  31.837   5.444
 3375POPC   PO446020  33.351  32.409   5.358
 3375POPC   GL146021  33.658  32.363   5.712
 3375POPC   GL246022  33.921  32.119   5.849
 3375POPC   C1A46023  33.778  32.596   6.091
 3375POPC   D2A46024  33.810  32.791   6.499
 3375POPC   C3A46025  33.871  32.459   6.784
 3375POPC   C4A46026  33.785  32.375   7.206
 3375POPC   C1B46027  33.636  31.885   6.130
 3375POPC   C2B46028  33.573  32.037   6.554
 3375POPC   C3B46029  33.563  31.862   6.970
 3375POPC   C4B46030  33.919  31.866   7.249
 3376POPC   NC346031  35.528   4.029   5.159
 3376POPC   PO446032  35.754   3.570   5.555
 3376POPC   GL146033  35.356   3.666   5.788
 3376POPC   GL246034  35.135   3.370   5.830
 3376POPC   C1A46035  35.351   3.656   6.250
 3376POPC   D2A46036  35.670   3.763   6.573
 3376POPC   C3A46037  35.459   3.681   6.962
 3376POPC   C4A46038  35.451   3.255   7.128
 3376POPC   C1B46039  34.962   3.309   6.249
 3376POPC   C2B46040  35.161   3.345   6.636
 3376POPC   C3B46041  34.998   3.477   6.988
 3376POPC   C4B46042  35.157   3.590   7.396
 3377POPC   NC346043  10.991  33.955   5.611
 3377POPC   PO446044  10.435  34.024   5.281
 3377POPC   GL146045  10.530  33.787   5.747
 3377POPC   GL246046  10.849  33.624   5.965
 3377POPC   C1A46047  10.535  33.927   6.209
 3377POPC   D2A46048  10.302  34.024   6.580
 3377POPC   C3A46049  10.409  33.863   7.013
 3377POPC   C4A46050  10.583  33.965   7.442
 3377POPC   C1B46051  10.531  33.409   6.200
 3377POPC   C2B46052  10.352  33.489   6.606
 3377POPC   C3B46053  10.535  33.326   6.958
 3377POPC   C4B46054  10.484  33.461   7.347
 3378POPC   NC346055  44.976  39.126   5.593
 3378POPC   PO446056  44.451  39.544   5.479
 3378POPC   GL146057  44.676  39.448   5.870
 3378POPC   GL246058   0.026  39.588   5.853
 3378POPC   C1A46059  44.645  39.288   6.317
 3378POPC   D2A46060  44.543  39.352   6.750
 3378POPC   C3A46061  44.579  39.032   7.077
 3378POPC   C4A46062  44.774  38.815   7.410
 3378POPC   C1B46063   0.131  39.416   6.230
 3378POPC   C2B46064   0.150  39.208   6.612
 3378POPC   C3B46065  44.991  39.329   7.001
 3378POPC   C4B46066  44.657  39.527   7.220
 3379POPC   NC346067  10.130  26.186   5.545
 3379POPC   PO446068   9.441  26.095   5.461
 3379POPC   GL146069   9.649  26.060   5.852
 3379POPC   GL246070   9.795  26.379   5.859
 3379POPC   C1A46071   9.632  25.797   6.246
 3379POPC   D2A46072   9.428  25.723   6.659
 3379POPC   C3A46073   9.674  25.788   6.994
 3379POPC   C4A46074   9.687  25.989   7.374
 3379POPC   C1B46075   9.798  26.303   6.280
 3379POPC   C2B46076   9.860  26.101   6.629
 3379POPC   C3B46077   9.889  26.308   6.986
 3379POPC   C4B46078  10.094  26.273   7.383
 3380POPC   NC346079  20.514   0.677   5.336
 3380POPC   PO446080  20.602   0.053   5.415
 3380POPC   GL146081  20.649   0.383   5.738
 3380POPC   GL246082  20.316   0.544   5.795
 3380POPC   C1A46083  20.722   0.630   6.119
 3380POPC   D2A46084  20.543   0.590   6.539
 3380POPC   C3A46085  20.752   0.497   6.960
 3380POPC   C4A46086  20.560   0.664   7.297
 3380POPC   C1B46087  20.368   0.236   6.142
 3380POPC   C2B46088  20.260   0.146   6.577
 3380POPC   C3B46089  20.236   0.397   6.957
 3380POPC   C4B46090  20.317   0.232   7.383
 3381POPC   NC346091   9.816  43.511   5.164
 3381POPC   PO446092   9.501  44.150   5.332
 3381POPC   GL146093   9.805  44.124   5.703
 3381POPC   GL246094   9.894  43.793   5.828
 3381POPC   C1A46095   9.892  44.239   6.124
 3381POPC   D2A46096   9.686  44.204   6.529
 3381POPC   C3A46097   9.795  44.204   6.966
 3381POPC   C4A46098   9.993  43.974   7.286
 3381POPC   C1B46099   9.918  43.757   6.303
 3381POPC   C2B46100   9.858  43.742   6.765
 3381POPC   C3B46101   9.839  43.504   7.161
 3381POPC   C4B46102  10.177  43.506   7.493
 3382POPC   NC346103  15.035  18.555   5.483
 3382POPC   PO446104  14.944  19.202   5.489
 3382POPC   GL146105  14.986  18.999   5.866
 3382POPC   GL246106  15.225  19.247   5.964
 3382POPC   C1A46107  15.040  18.856   6.325
 3382POPC   D2A46108  15.261  18.996   6.705
 3382POPC   C3A46109  15.203  18.767   7.084
 3382POPC   C4A46110  15.145  18.455   7.368
 3382POPC   C1B46111  14.907  19.351   6.269
 3382POPC   C2B46112  14.918  19.383   6.717
 3382POPC   C3B46113  15.048  19.258   7.113
 3382POPC   C4B46114  15.473  19.281   7.197
 3383POPC   NC346115  36.506  20.528   5.424
 3383POPC   PO446116  37.201  20.828   5.514
 3383POPC   GL146117  36.976  20.537   5.751
 3383POPC   GL246118  36.717  20.744   5.811
 3383POPC   C1A46119  36.836  20.320   6.110
 3383POPC   D2A46120  37.034  20.282   6.502
 3383POPC   C3A46121  36.927  20.508   6.900
 3383POPC   C4A46122  36.599  20.423   7.166
 3383POPC   C1B46123  36.699  20.820   6.215
 3383POPC   C2B46124  36.890  20.916   6.587
 3383POPC   C3B46125  36.668  20.943   6.975
 3383POPC   C4B46126  36.749  20.831   7.407
 3384POPC   NC346127  13.455  15.798   5.342
 3384POPC   PO446128  13.499  16.518   5.334
 3384POPC   GL146129  13.408  16.322   5.759
 3384POPC   GL246130  13.335  15.990   5.776
 3384POPC   C1A46131  13.626  16.146   6.153
 3384POPC   D2A46132  13.638  15.860   6.500
 3384POPC   C3A46133  13.714  16.047   6.924
 3384POPC   C4A46134  13.629  16.314   7.320
 3384POPC   C1B46135  13.257  15.733   6.105
 3384POPC   C2B46136  13.090  15.771   6.482
 3384POPC   C3B46137  13.306  15.737   6.855
 3384POPC   C4B46138  13.431  15.820   7.256
 3385POPC   NC346139  23.201  34.577   5.534
 3385POPC   PO446140  23.787  34.834   5.411
 3385POPC   GL146141  23.822  34.838   5.814
 3385POPC   GL246142  23.465  34.908   5.838
 3385POPC   C1A46143  23.949  34.628   6.191
 3385POPC   D2A46144  23.860  34.393   6.583
 3385POPC   C3A46145  23.922  34.568   7.010
 3385POPC   C4A46146  23.880  34.505   7.450
 3385POPC   C1B46147  23.419  34.653   6.192
 3385POPC   C2B46148  23.347  34.556   6.597
 3385POPC   C3B46149  23.221  34.397   6.972
 3385POPC   C4B46150  23.368  34.603   7.334
 3386POPC   NC346151  31.239   4.425   5.435
 3386POPC   PO446152  31.487   3.893   5.460
 3386POPC   GL146153  31.595   4.178   5.795
 3386POPC   GL246154  31.633   4.546   5.728
 3386POPC   C1A46155  31.553   4.223   6.237
 3386POPC   D2A46156  31.650   4.091   6.634
 3386POPC   C3A46157  31.454   4.164   7.010
 3386POPC   C4A46158  31.264   4.565   6.959
 3386POPC   C1B46159  31.742   4.668   6.134
 3386POPC   C2B46160  31.674   4.611   6.579
 3386POPC   C3B46161  31.827   4.498   6.985
 3386POPC   C4B46162  31.669   4.479   7.390
 3387POPC   NC346163  31.105  31.266   5.081
 3387POPC   PO446164  30.604  31.526   5.409
 3387POPC   GL146165  30.821  31.595   5.782
 3387POPC   GL246166  30.520  31.699   5.953
 3387POPC   C1A46167  30.827  31.390   6.196
 3387POPC   D2A46168  30.625  31.343   6.595
 3387POPC   C3A46169  30.907  31.511   6.887
 3387POPC   C4A46170  30.863  31.415   7.317
 3387POPC   C1B46171  30.384  31.751   6.388
 3387POPC   C2B46172  30.474  31.784   6.840
 3387POPC   C3B46173  30.427  31.768   7.279
 3387POPC   C4B46174  30.162  31.965   7.572
 3388POPC   NC346175  35.010  43.259   5.467
 3388POPC   PO446176  35.636  42.981   5.451
 3388POPC   GL146177  35.453  43.259   5.737
 3388POPC   GL246178  35.239  42.983   5.832
 3388POPC   C1A46179  35.412  43.315   6.191
 3388POPC   D2A46180  35.493  42.999   6.516
 3388POPC   C3A46181  35.468  43.160   6.935
 3388POPC   C4A46182  35.445  43.523   7.201
 3388POPC   C1B46183  35.031  42.989   6.228
 3388POPC   C2B46184  35.020  43.149   6.636
 3388POPC   C3B46185  35.002  42.938   7.022
 3388POPC   C4B46186  35.056  43.183   7.331
 3389POPC   NC346187   3.335  36.462   5.370
 3389POPC   PO446188   4.004  36.556   5.396
 3389POPC   GL146189   3.859  36.276   5.710
 3389POPC   GL246190   3.597  36.472   5.816
 3389POPC   C1A46191   3.732  36.045   6.112
 3389POPC   D2A46192   3.848  35.892   6.518
 3389POPC   C3A46193   3.675  35.946   6.920
 3389POPC   C4A46194   3.606  36.294   7.216
 3389POPC   C1B46195   3.278  36.251   6.062
 3389POPC   C2B46196   3.326  36.068   6.459
 3389POPC   C3B46197   3.263  36.222   6.858
 3389POPC   C4B46198   3.207  35.974   7.181
 3390POPC   NC346199  37.316   0.452   5.276
 3390POPC   PO446200  36.725   0.769   5.460
 3390POPC   GL146201  36.890   0.622   5.848
 3390POPC   GL246202  37.099   0.355   5.807
 3390POPC   C1A46203  36.709   0.313   6.157
 3390POPC   D2A46204  36.417   0.286   6.510
 3390POPC   C3A46205  36.580   0.132   6.915
 3390POPC   C4A46206  36.560   0.343   7.302
 3390POPC   C1B46207  37.185   0.491   6.268
 3390POPC   C2B46208  37.113   0.355   6.709
 3390POPC   C3B46209  37.179   0.599   7.099
 3390POPC   C4B46210  37.261   0.818   7.514
 3391POPC   NC346211  41.509  11.935   5.278
 3391POPC   PO446212  41.476  12.546   5.321
 3391POPC   GL146213  41.631  12.302   5.663
 3391POPC   GL246214  41.341  12.102   5.726
 3391POPC   C1A46215  41.706  12.074   6.083
 3391POPC   D2A46216  41.534  11.892   6.449
 3391POPC   C3A46217  41.647  12.052   6.840
 3391POPC   C4A46218  41.717  11.935   7.282
 3391POPC   C1B46219  41.158  11.976   6.095
 3391POPC   C2B46220  41.084  12.136   6.498
 3391POPC   C3B46221  41.144  11.975   6.878
 3391POPC   C4B46222  41.200  12.089   7.277
 3392POPC   NC346223   7.003  17.347   5.403
 3392POPC   PO446224   6.419  17.604   5.456
 3392POPC   GL146225   6.649  17.606   5.864
 3392POPC   GL246226   6.774  17.274   5.851
 3392POPC   C1A46227   6.611  17.717   6.333
 3392POPC   D2A46228   6.483  17.503   6.718
 3392POPC   C3A46229   6.499  17.609   7.181
 3392POPC   C4A46230   6.790  17.517   7.494
 3392POPC   C1B46231   6.538  17.209   6.205
 3392POPC   C2B46232   6.600  17.023   6.588
 3392POPC   C3B46233   6.604  17.122   7.042
 3392POPC   C4B46234   6.490  17.073   7.462
 3393POPC   NC346235  15.130  42.693   4.891
 3393POPC   PO446236  15.172  42.329   5.499
 3393POPC   GL146237  15.252  42.333   5.927
 3393POPC   GL246238  15.252  42.015   6.113
 3393POPC   C1A46239  15.167  42.623   6.261
 3393POPC   D2A46240  15.241  42.804   6.675
 3393POPC   C3A46241  15.091  42.549   7.022
 3393POPC   C4A46242  15.283  42.183   7.196
 3393POPC   C1B46243  14.855  42.198   6.288
 3393POPC   C2B46244  14.744  42.309   6.707
 3393POPC   C3B46245  14.786  42.072   7.096
 3393POPC   C4B46246  14.857  42.169   7.537
 3394POPC   NC346247  11.427  30.093   5.315
 3394POPC   PO446248  11.026  29.709   5.574
 3394POPC   GL146249  11.360  29.870   5.782
 3394POPC   GL246250  11.242  30.207   5.786
 3394POPC   C1A46251  11.491  30.031   6.176
 3394POPC   D2A46252  11.612  29.840   6.534
 3394POPC   C3A46253  11.373  29.805   6.879
 3394POPC   C4A46254  11.356  29.963   7.262
 3394POPC   C1B46255  10.958  30.018   6.135
 3394POPC   C2B46256  10.814  29.852   6.541
 3394POPC   C3B46257  10.918  30.019   6.939
 3394POPC   C4B46258  10.917  30.242   7.302
 3395POPC   NC346259  12.696   3.583   5.438
 3395POPC   PO446260  13.238   3.201   5.471
 3395POPC   GL146261  12.941   3.123   5.843
 3395POPC   GL246262  12.587   3.256   5.834
 3395POPC   C1A46263  12.854   3.229   6.298
 3395POPC   D2A46264  12.920   3.063   6.704
 3395POPC   C3A46265  12.878   3.353   7.032
 3395POPC   C4A46266  12.575   3.429   7.323
 3395POPC   C1B46267  12.553   3.610   6.138
 3395POPC   C2B46268  12.659   3.672   6.588
 3395POPC   C3B46269  12.607   3.830   7.015
 3395POPC   C4B46270  12.697   3.902   7.491
 3396POPC   NC346271  19.022  15.226   5.329
 3396POPC   PO446272  18.925  14.582   5.451
 3396POPC   GL146273  19.092  14.753   5.855
 3396POPC   GL246274  19.019  15.093   5.856
 3396POPC   C1A46275  18.926  14.802   6.303
 3396POPC   D2A46276  18.860  15.079   6.673
 3396POPC   C3A46277  18.922  15.112   7.123
 3396POPC   C4A46278  19.119  15.125   7.534
 3396POPC   C1B46279  19.139  15.280   6.270
 3396POPC   C2B46280  19.157  15.505   6.688
 3396POPC   C3B46281  19.286  15.462   7.136
 3396POPC   C4B46282  19.027  15.642   7.489
 3397POPC   NC346283  13.033  19.510   5.153
 3397POPC   PO446284  12.827  20.007   5.546
 3397POPC   GL146285  12.844  19.861   5.934
 3397POPC   GL246286  12.513  19.728   5.927
 3397POPC   C1A46287  13.094  19.844   6.312
 3397POPC   D2A46288  13.137  19.632   6.707
 3397POPC   C3A46289  13.071  19.784   7.110
 3397POPC   C4A46290  12.693  19.600   7.279
 3397POPC   C1B46291  12.588  19.941   6.354
 3397POPC   C2B46292  12.686  19.875   6.772
 3397POPC   C3B46293  12.442  20.036   7.064
 3397POPC   C4B46294  12.418  20.326   7.354
 3398POPC   NC346295  11.096  27.363   5.366
 3398POPC   PO446296  11.501  27.889   5.509
 3398POPC   GL146297  11.362  27.558   5.765
 3398POPC   GL246298  11.488  27.216   5.704
 3398POPC   C1A46299  11.144  27.430   6.096
 3398POPC   D2A46300  11.208  27.449   6.533
 3398POPC   C3A46301  11.087  27.838   6.725
 3398POPC   C4A46302  11.073  27.973   7.142
 3398POPC   C1B46303  11.555  27.134   6.151
 3398POPC   C2B46304  11.599  27.131   6.611
 3398POPC   C3B46305  11.531  27.412   6.950
 3398POPC   C4B46306  11.419  27.577   7.336
 3399POPC   NC346307   2.034  32.502   5.409
 3399POPC   PO446308   2.108  31.779   5.392
 3399POPC   GL146309   1.963  31.894   5.761
 3399POPC   GL246310   2.167  32.188   5.790
 3399POPC   C1A46311   1.817  32.017   6.161
 3399POPC   D2A46312   1.840  32.284   6.528
 3399POPC   C3A46313   1.983  32.069   6.887
 3399POPC   C4A46314   1.869  32.241   7.273
 3399POPC   C1B46315   2.039  32.514   6.116
 3399POPC   C2B46316   2.296  32.556   6.517
 3399POPC   C3B46317   2.319  32.454   6.956
 3399POPC   C4B46318   2.119  32.692   7.248
 3400POPC   NC346319  12.569  32.320   5.400
 3400POPC   PO446320  13.159  32.561   5.552
 3400POPC   GL146321  12.901  32.309   5.815
 3400POPC   GL246322  12.551  32.386   5.912
 3400POPC   C1A46323  12.966  32.217   6.230
 3400POPC   D2A46324  12.833  32.533   6.524
 3400POPC   C3A46325  12.805  32.447   6.970
 3400POPC   C4A46326  12.955  32.140   7.210
 3400POPC   C1B46327  12.477  32.194   6.304
 3400POPC   C2B46328  12.641  32.047   6.699
 3400POPC   C3B46329  12.500  31.964   7.118
 3400POPC   C4B46330  12.484  32.282   7.428
 3401POPC   NC346331  31.383  26.069   5.380
 3401POPC   PO446332  31.995  26.289   5.514
 3401POPC   GL146333  31.683  26.098   5.816
 3401POPC   GL246334  31.356  26.288   5.846
 3401POPC   C1A46335  31.602  26.129   6.267
 3401POPC   D2A46336  31.814  26.382   6.579
 3401POPC   C3A46337  31.692  26.272   6.961
 3401POPC   C4A46338  31.659  25.857   7.068
 3401POPC   C1B46339  31.086  26.186   6.184
 3401POPC   C2B46340  31.007  25.932   6.531
 3401POPC   C3B46341  31.074  26.114   6.935
 3401POPC   C4B46342  31.317  26.226   7.283
 3402POPC   NC346343  36.727  13.048   5.286
 3402POPC   PO446344  37.332  12.613   5.273
 3402POPC   GL146345  37.116  12.897   5.603
 3402POPC   GL246346  36.953  13.243   5.683
 3402POPC   C1A46347  36.901  12.865   6.019
 3402POPC   D2A46348  37.088  12.832   6.434
 3402POPC   C3A46349  36.820  12.790   6.816
 3402POPC   C4A46350  37.022  12.813   7.219
 3402POPC   C1B46351  36.777  13.340   6.106
 3402POPC   C2B46352  36.782  13.216   6.517
 3402POPC   C3B46353  36.745  13.288   6.955
 3402POPC   C4B46354  36.362  13.238   7.184
 3403POPC   NC346355  21.733  15.395   5.532
 3403POPC   PO446356  21.162  15.007   5.552
 3403POPC   GL146357  21.414  15.185   5.892
 3403POPC   GL246358  21.756  15.117   5.946
 3403POPC   C1A46359  21.428  15.098   6.321
 3403POPC   D2A46360  21.209  14.918   6.641
 3403POPC   C3A46361  21.418  15.053   7.001
 3403POPC   C4A46362  21.263  15.020   7.432
 3403POPC   C1B46363  21.759  15.485   6.220
 3403POPC   C2B46364  21.560  15.472   6.651
 3403POPC   C3B46365  21.791  15.428   7.028
 3403POPC   C4B46366  21.706  15.222   7.392
 3404POPC   NC346367   7.706  13.386   5.280
 3404POPC   PO446368   7.106  13.731   5.384
 3404POPC   GL146369   7.423  13.657   5.685
 3404POPC   GL246370   7.134  13.553   5.913
 3404POPC   C1A46371   7.602  13.599   6.107
 3404POPC   D2A46372   7.320  13.579   6.482
 3404POPC   C3A46373   7.450  13.370   6.859
 3404POPC   C4A46374   7.610  13.533   7.223
 3404POPC   C1B46375   7.122  13.948   6.159
 3404POPC   C2B46376   7.095  14.128   6.581
 3404POPC   C3B46377   7.230  14.027   6.973
 3404POPC   C4B46378   7.258  13.856   7.339
 3405POPC   NC346379  30.262  22.749   5.435
 3405POPC   PO446380  30.221  23.393   5.483
 3405POPC   GL146381  30.236  23.072   5.828
 3405POPC   GL246382  30.021  22.751   5.882
 3405POPC   C1A46383  30.106  23.116   6.217
 3405POPC   D2A46384  29.985  22.930   6.531
 3405POPC   C3A46385  30.055  23.224   6.847
 3405POPC   C4A46386  29.990  23.116   7.252
 3405POPC   C1B46387  29.910  22.505   6.253
 3405POPC   C2B46388  29.816  22.459   6.709
 3405POPC   C3B46389  29.809  22.500   7.156
 3405POPC   C4B46390  29.481  22.540   7.415
 3406POPC   NC346391   4.152  19.343   5.461
 3406POPC   PO446392   4.643  18.873   5.463
 3406POPC   GL146393   4.319  18.911   5.769
 3406POPC   GL246394   4.123  18.634   5.894
 3406POPC   C1A46395   4.295  18.996   6.210
 3406POPC   D2A46396   4.450  18.868   6.589
 3406POPC   C3A46397   4.436  19.202   6.863
 3406POPC   C4A46398   4.151  19.051   7.129
 3406POPC   C1B46399   4.521  18.526   6.123
 3406POPC   C2B46400   4.732  18.455   6.525
 3406POPC   C3B46401   4.634  18.514   6.947
 3406POPC   C4B46402   4.622  18.864   7.223
 3407POPC   NC346403  37.898   5.257   5.513
 3407POPC   PO446404  37.277   4.911   5.448
 3407POPC   GL146405  37.542   4.997   5.850
 3407POPC   GL246406  37.648   5.349   5.956
 3407POPC   C1A46407  37.661   4.908   6.315
 3407POPC   D2A46408  37.851   4.754   6.736
 3407POPC   C3A46409  37.801   4.954   7.152
 3407POPC   C4A46410  37.862   5.061   7.616
 3407POPC   C1B46411  37.554   5.435   6.379
 3407POPC   C2B46412  37.494   5.210   6.755
 3407POPC   C3B46413  37.427   5.288   7.182
 3407POPC   C4B46414  37.167   5.530   7.438
 3408POPC   NC346415  34.301  13.895   5.367
 3408POPC   PO446416  34.900  13.688   5.488
 3408POPC   GL146417  34.609  13.802   5.790
 3408POPC   GL246418  34.334  13.579   5.771
 3408POPC   C1A46419  34.717  13.848   6.211
 3408POPC   D2A46420  34.646  13.663   6.601
 3408POPC   C3A46421  34.810  13.865   6.920
 3408POPC   C4A46422  34.708  13.767   7.330
 3408POPC   C1B46423  34.344  13.486   6.217
 3408POPC   C2B46424  34.190  13.417   6.653
 3408POPC   C3B46425  34.344  13.443   7.106
 3408POPC   C4B46426  34.128  13.328   7.523
 3409POPC   NC346427  18.309  27.439   5.323
 3409POPC   PO446428  17.786  27.351   5.503
 3409POPC   GL146429  18.153  27.358   5.827
 3409POPC   GL246430  18.444  27.595   5.802
 3409POPC   C1A46431  18.207  27.458   6.303
 3409POPC   D2A46432  18.148  27.361   6.776
 3409POPC   C3A46433  18.085  27.695   7.108
 3409POPC   C4A46434  17.774  27.735   7.478
 3409POPC   C1B46435  18.669  27.352   6.119
 3409POPC   C2B46436  18.658  27.357   6.605
 3409POPC   C3B46437  18.556  27.307   7.075
 3409POPC   C4B46438  18.640  27.558   7.428
 3410POPC   NC346439  14.661  22.835   5.435
 3410POPC   PO446440  14.282  23.330   5.397
 3410POPC   GL146441  14.366  23.102   5.782
 3410POPC   GL246442  14.335  22.759   5.818
 3410POPC   C1A46443  14.306  23.140   6.218
 3410POPC   D2A46444  14.168  22.975   6.590
 3410POPC   C3A46445  14.246  23.153   6.997
 3410POPC   C4A46446  14.533  22.944   7.278
 3410POPC   C1B46447  14.200  22.605   6.202
 3410POPC   C2B46448  14.164  22.389   6.568
 3410POPC   C3B46449  14.230  22.500   6.997
 3410POPC   C4B46450  14.018  22.503   7.406
 3411POPC   NC346451  16.718  36.552   5.529
 3411POPC   PO446452  16.985  35.988   5.406
 3411POPC   GL146453  16.641  36.030   5.740
 3411POPC   GL246454  16.853  36.246   5.907
 3411POPC   C1A46455  16.499  36.077   6.189
 3411POPC   D2A46456  16.781  36.150   6.528
 3411POPC   C3A46457  16.605  36.138   6.912
 3411POPC   C4A46458  16.447  36.134   7.308
 3411POPC   C1B46459  17.137  36.381   6.234
 3411POPC   C2B46460  17.038  36.664   6.581
 3411POPC   C3B46461  17.009  36.444   6.937
 3411POPC   C4B46462  17.006  36.101   7.231
 3412POPC   NC346463  21.357  28.077   5.570
 3412POPC   PO446464  21.335  27.364   5.556
 3412POPC   GL146465  21.334  27.664   5.866
 3412POPC   GL246466  21.692  27.730   5.807
 3412POPC   C1A46467  21.277  27.767   6.287
 3412POPC   D2A46468  21.005  27.656   6.574
 3412POPC   C3A46469  21.031  27.547   6.997
 3412POPC   C4A46470  21.179  27.786   7.344
 3412POPC   C1B46471  21.682  27.432   6.188
 3412POPC   C2B46472  21.467  27.418   6.602
 3412POPC   C3B46473  21.547  27.483   7.017
 3412POPC   C4B46474  21.821  27.219   7.216
 3413POPC   NC346475  13.316   9.985   5.449
 3413POPC   PO446476  13.779   9.557   5.353
 3413POPC   GL146477  13.580   9.632   5.773
 3413POPC   GL246478  13.653   9.981   5.873
 3413POPC   C1A46479  13.617   9.584   6.252
 3413POPC   D2A46480  13.867   9.729   6.626
 3413POPC   C3A46481  13.670   9.734   7.040
 3413POPC   C4A46482  13.579   9.634   7.480
 3413POPC   C1B46483  13.971  10.172   6.166
 3413POPC   C2B46484  14.165  10.146   6.585
 3413POPC   C3B46485  13.937  10.164   6.972
 3413POPC   C4B46486  13.772  10.134   7.396
 3414POPC   NC346487   0.953  34.482   5.584
 3414POPC   PO446488   1.190  34.923   5.167
 3414POPC   GL146489   1.364  34.802   5.655
 3414POPC   GL246490   1.315  34.492   5.924
 3414POPC   C1A46491   1.238  34.929   6.134
 3414POPC   D2A46492   1.336  34.806   6.590
 3414POPC   C3A46493   1.182  34.714   7.024
 3414POPC   C4A46494   1.137  34.519   7.446
 3414POPC   C1B46495   1.483  34.213   6.243
 3414POPC   C2B46496   1.462  34.279   6.685
 3414POPC   C3B46497   1.560  34.060   7.048
 3414POPC   C4B46498   1.390  34.083   7.458
 3415POPC   NC346499  25.607  19.995   5.260
 3415POPC   PO446500  25.063  20.031   5.616
 3415POPC   GL146501  25.218  19.611   5.776
 3415POPC   GL246502  25.562  19.527   5.660
 3415POPC   C1A46503  25.110  19.487   6.212
 3415POPC   D2A46504  25.224  19.645   6.638
 3415POPC   C3A46505  25.001  19.678   7.036
 3415POPC   C4A46506  25.187  19.847   7.427
 3415POPC   C1B46507  25.663  19.560   6.131
 3415POPC   C2B46508  25.645  19.371   6.594
 3415POPC   C3B46509  25.700  19.544   7.063
 3415POPC   C4B46510  25.625  19.516   7.535
 3416POPC   NC346511  36.671  40.141   5.396
 3416POPC   PO446512  37.191  39.789   5.294
 3416POPC   GL146513  37.039  39.894   5.699
 3416POPC   GL246514  36.994  40.238   5.787
 3416POPC   C1A46515  37.092  39.815   6.137
 3416POPC   D2A46516  37.234  40.063   6.486
 3416POPC   C3A46517  36.942  40.058   6.852
 3416POPC   C4A46518  36.915  39.717   7.189
 3416POPC   C1B46519  36.719  40.491   6.071
 3416POPC   C2B46520  36.595  40.601   6.500
 3416POPC   C3B46521  36.621  40.520   6.940
 3416POPC   C4B46522  36.806  40.369   7.319
 3417POPC   NC346523   3.990  12.180   5.025
 3417POPC   PO446524   3.430  11.971   5.467
 3417POPC   GL146525   3.407  12.174   5.853
 3417POPC   GL246526   3.596  11.885   5.959
 3417POPC   C1A46527   3.576  12.418   6.216
 3417POPC   D2A46528   3.682  12.214   6.599
 3417POPC   C3A46529   3.804  12.382   7.000
 3417POPC   C4A46530   3.413  12.439   7.220
 3417POPC   C1B46531   3.432  11.800   6.364
 3417POPC   C2B46532   3.449  11.777   6.812
 3417POPC   C3B46533   3.584  11.955   7.193
 3417POPC   C4B46534   3.761  11.786   7.574
 3418POPC   NC346535   2.688  18.484   5.455
 3418POPC   PO446536   3.093  17.985   5.439
 3418POPC   GL146537   2.835  18.163   5.793
 3418POPC   GL246538   2.457  18.099   5.719
 3418POPC   C1A46539   2.823  18.467   6.164
 3418POPC   D2A46540   2.590  18.579   6.560
 3418POPC   C3A46541   2.772  18.385   6.902
 3418POPC   C4A46542   2.826  18.424   7.344
 3418POPC   C1B46543   2.361  18.272   6.130
 3418POPC   C2B46544   2.422  18.113   6.549
 3418POPC   C3B46545   2.294  18.244   6.948
 3418POPC   C4B46546   2.381  18.111   7.402
 3419POPC   NC346547  43.326  12.239   5.202
 3419POPC   PO446548  42.701  11.918   5.357
 3419POPC   GL146549  42.960  12.040   5.733
 3419POPC   GL246550  43.307  12.074   5.702
 3419POPC   C1A46551  43.111  12.187   6.144
 3419POPC   D2A46552  43.387  12.140   6.488
 3419POPC   C3A46553  43.138  12.154   6.822
 3419POPC   C4A46554  43.093  12.108   7.212
 3419POPC   C1B46555  43.383  11.750   6.063
 3419POPC   C2B46556  43.494  11.621   6.502
 3419POPC   C3B46557  43.435  11.752   6.949
 3419POPC   C4B46558  43.190  11.641   7.344
 3420POPC   NC346559  34.968  26.070   5.726
 3420POPC   PO446560  34.453  25.859   5.247
 3420POPC   GL146561  34.522  25.815   5.774
 3420POPC   GL246562  34.837  25.665   5.986
 3420POPC   C1A46563  34.442  26.026   6.199
 3420POPC   D2A46564  34.421  26.330   6.573
 3420POPC   C3A46565  34.798  26.352   6.826
 3420POPC   C4A46566  34.940  26.329   7.250
 3420POPC   C1B46567  34.993  25.786   6.365
 3420POPC   C2B46568  34.701  25.873   6.664
 3420POPC   C3B46569  34.766  25.873   7.072
 3420POPC   C4B46570  34.906  25.527   7.302
 3421POPC   NC346571  21.882  41.344   5.251
 3421POPC   PO446572  22.330  41.774   5.305
 3421POPC   GL146573  22.357  41.521   5.691
 3421POPC   GL246574  22.244  41.814   5.868
 3421POPC   C1A46575  22.309  41.412   6.157
 3421POPC   D2A46576  21.971  41.566   6.451
 3421POPC   C3A46577  21.896  41.353   6.842
 3421POPC   C4A46578  21.890  41.555   7.251
 3421POPC   C1B46579  22.580  41.903   6.150
 3421POPC   C2B46580  22.578  41.683   6.509
 3421POPC   C3B46581  22.313  41.673   6.837
 3421POPC   C4B46582  22.402  41.603   7.231
 3422POPC   NC346583  32.611  42.840   5.331
 3422POPC   PO446584  32.030  43.183   5.407
 3422POPC   GL146585  32.120  42.953   5.764
 3422POPC   GL246586  32.465  43.068   5.779
 3422POPC   C1A46587  31.969  43.071   6.187
 3422POPC   D2A46588  31.760  43.145   6.565
 3422POPC   C3A46589  31.945  43.124   6.987
 3422POPC   C4A46590  32.008  42.758   7.285
 3422POPC   C1B46591  32.451  42.923   6.184
 3422POPC   C2B46592  32.502  43.096   6.579
 3422POPC   C3B46593  32.417  42.935   6.973
 3422POPC   C4B46594  32.398  43.049   7.433
 3423POPC   NC346595  22.806   7.231   5.601
 3423POPC   PO446596  22.988   6.670   5.250
 3423POPC   GL146597  23.042   6.705   5.728
 3423POPC   GL246598  22.946   6.401   5.942
 3423POPC   C1A46599  23.107   6.841   6.175
 3423POPC   D2A46600  23.018   6.839   6.623
 3423POPC   C3A46601  23.004   6.954   7.075
 3423POPC   C4A46602  23.137   6.838   7.541
 3423POPC   C1B46603  22.859   6.390   6.391
 3423POPC   C2B46604  23.159   6.372   6.747
 3423POPC   C3B46605  23.084   6.457   7.169
 3423POPC   C4B46606  22.750   6.402   7.455
 3424POPC   NC346607   6.815  40.775   5.324
 3424POPC   PO446608   6.306  41.212   5.408
 3424POPC   GL146609   6.526  41.022   5.766
 3424POPC   GL246610   6.818  40.838   5.829
 3424POPC   C1A46611   6.421  40.833   6.176
 3424POPC   D2A46612   6.258  40.852   6.600
 3424POPC   C3A46613   6.452  40.649   6.967
 3424POPC   C4A46614   6.601  40.839   7.364
 3424POPC   C1B46615   6.970  40.656   6.202
 3424POPC   C2B46616   7.046  40.786   6.624
 3424POPC   C3B46617   7.028  40.762   7.083
 3424POPC   C4B46618   7.097  40.670   7.517
 3425POPC   NC346619  29.700  25.899   5.288
 3425POPC   PO446620  30.367  25.663   5.528
 3425POPC   GL146621  30.000  25.772   5.784
 3425POPC   GL246622  29.781  26.096   5.779
 3425POPC   C1A46623  29.821  25.786   6.181
 3425POPC   D2A46624  29.708  26.069   6.527
 3425POPC   C3A46625  29.903  25.884   6.889
 3425POPC   C4A46626  29.791  25.709   7.262
 3425POPC   C1B46627  30.045  26.249   6.170
 3425POPC   C2B46628  30.232  26.171   6.609
 3425POPC   C3B46629  30.092  26.329   7.049
 3425POPC   C4B46630  30.319  26.359   7.455
 3426POPC   NC346631  38.599  25.975   5.472
 3426POPC   PO446632  38.058  25.855   5.520
 3426POPC   GL146633  38.296  25.952   5.942
 3426POPC   GL246634  38.676  25.955   5.972
 3426POPC   C1A46635  38.285  26.119   6.408
 3426POPC   D2A46636  38.238  26.151   6.889
 3426POPC   C3A46637  38.483  26.430   7.188
 3426POPC   C4A46638  38.626  26.577   7.602
 3426POPC   C1B46639  38.654  25.762   6.373
 3426POPC   C2B46640  38.370  25.663   6.724
 3426POPC   C3B46641  38.150  25.702   7.115
 3426POPC   C4B46642  38.368  25.979   7.369
 3427POPC   NC346643  23.057  13.391   5.478
 3427POPC   PO446644  23.161  12.786   5.331
 3427POPC   GL146645  23.012  12.830   5.757
 3427POPC   GL246646  22.822  13.116   5.849
 3427POPC   C1A46647  23.108  12.793   6.188
 3427POPC   D2A46648  22.889  12.612   6.540
 3427POPC   C3A46649  23.148  12.674   6.876
 3427POPC   C4A46650  23.041  12.902   7.211
 3427POPC   C1B46651  22.650  13.016   6.283
 3427POPC   C2B46652  22.473  12.966   6.702
 3427POPC   C3B46653  22.628  12.680   7.008
 3427POPC   C4B46654  22.695  12.594   7.441
 3428POPC   NC346655  25.178   9.977   5.140
 3428POPC   PO446656  25.292  10.675   5.248
 3428POPC   GL146657  25.286  10.635   5.755
 3428POPC   GL246658  25.081  10.942   5.787
 3428POPC   C1A46659  25.327  10.376   6.189
 3428POPC   D2A46660  25.530  10.480   6.597
 3428POPC   C3A46661  25.373  10.380   7.027
 3428POPC   C4A46662  25.194  10.446   7.438
 3428POPC   C1B46663  24.991  10.763   6.190
 3428POPC   C2B46664  25.005  10.566   6.600
 3428POPC   C3B46665  25.069  10.778   6.979
 3428POPC   C4B46666  24.887  11.145   7.166
 3429POPC   NC346667  37.068  31.928   5.544
 3429POPC   PO446668  36.836  32.526   5.688
 3429POPC   GL146669  36.828  32.158   5.972
 3429POPC   GL246670  36.585  31.885   5.841
 3429POPC   C1A46671  36.978  32.164   6.418
 3429POPC   D2A46672  37.214  32.016   6.798
 3429POPC   C3A46673  37.158  32.141   7.239
 3429POPC   C4A46674  37.140  32.445   7.560
 3429POPC   C1B46675  36.545  31.840   6.298
 3429POPC   C2B46676  36.699  31.885   6.743
 3429POPC   C3B46677  36.798  32.304   6.928
 3429POPC   C4B46678  36.587  32.535   7.249
 3430POPC   NC346679  27.283  20.726   5.301
 3430POPC   PO446680  26.674  20.347   5.493
 3430POPC   GL146681  27.037  20.547   5.785
 3430POPC   GL246682  27.086  20.895   5.831
 3430POPC   C1A46683  27.091  20.401   6.246
 3430POPC   D2A46684  26.720  20.357   6.552
 3430POPC   C3A46685  26.792  20.515   7.010
 3430POPC   C4A46686  27.107  20.360   7.311
 3430POPC   C1B46687  26.754  20.768   6.163
 3430POPC   C2B46688  26.827  20.847   6.603
 3430POPC   C3B46689  26.819  21.022   6.996
 3430POPC   C4B46690  26.586  20.906   7.354
 3431POPC   NC346691  33.015  25.944   5.366
 3431POPC   PO446692  32.596  25.507   5.681
 3431POPC   GL146693  32.963  25.760   5.843
 3431POPC   GL246694  33.181  26.089   5.849
 3431POPC   C1A46695  33.119  25.791   6.255
 3431POPC   D2A46696  32.984  25.507   6.572
 3431POPC   C3A46697  33.021  25.667   6.995
 3431POPC   C4A46698  33.185  25.986   7.271
 3431POPC   C1B46699  33.420  26.238   6.260
 3431POPC   C2B46700  33.447  26.235   6.742
 3431POPC   C3B46701  33.292  26.457   7.124
 3431POPC   C4B46702  33.379  26.340   7.584
 3432POPC   NC346703   5.511  11.357   5.154
 3432POPC   PO446704   5.008  11.592   5.472
 3432POPC   GL146705   4.877  11.274   5.829
 3432POPC   GL246706   5.102  11.477   6.049
 3432POPC   C1A46707   5.047  10.994   6.208
 3432POPC   D2A46708   5.324  11.223   6.505
 3432POPC   C3A46709   5.200  11.376   6.925
 3432POPC   C4A46710   5.287  11.100   7.275
 3432POPC   C1B46711   4.769  11.387   6.340
 3432POPC   C2B46712   4.755  11.140   6.716
 3432POPC   C3B46713   4.751  11.239   7.150
 3432POPC   C4B46714   4.840  11.623   7.313
 3433POPC   NC346715   0.968  39.614   5.018
 3433POPC   PO446716   0.957  40.160   5.364
 3433POPC   GL146717   1.101  39.965   5.737
 3433POPC   GL246718   1.284  40.241   5.788
 3433POPC   C1A46719   1.294  39.899   6.160
 3433POPC   D2A46720   1.220  40.105   6.544
 3433POPC   C3A46721   1.288  39.873   6.896
 3433POPC   C4A46722   1.306  40.001   7.290
 3433POPC   C1B46723   1.454  40.396   6.164
 3433POPC   C2B46724   1.687  40.317   6.535
 3433POPC   C3B46725   1.496  40.348   6.941
 3433POPC   C4B46726   1.541  40.456   7.361
 3434POPC   NC346727  10.174  27.341   5.753
 3434POPC   PO446728  10.628  27.487   5.233
 3434POPC   GL146729  10.727  27.448   5.726
 3434POPC   GL246730  10.644  27.746   5.892
 3434POPC   C1A46731  10.664  27.331   6.207
 3434POPC   D2A46732  10.764  27.230   6.653
 3434POPC   C3A46733  10.517  27.373   7.013
 3434POPC   C4A46734  10.649  27.719   7.258
 3434POPC   C1B46735  10.466  27.824   6.326
 3434POPC   C2B46736  10.549  27.927   6.768
 3434POPC   C3B46737  10.226  27.947   7.072
 3434POPC   C4B46738  10.178  27.804   7.479
 3435POPC   NC346739   2.905  44.830   4.943
 3435POPC   PO446740   2.454  44.649   5.402
 3435POPC   GL146741   2.740  44.672   5.776
 3435POPC   GL246742   2.826  44.356   5.932
 3435POPC   C1A46743   2.881  44.818   6.189
 3435POPC   D2A46744   3.090  44.720   6.585
 3435POPC   C3A46745   2.942  44.825   6.989
 3435POPC   C4A46746   3.198  44.896   7.347
 3435POPC   C1B46747   2.818  44.171   6.319
 3435POPC   C2B46748   2.994  44.216   6.697
 3435POPC   C3B46749   3.004  44.315   7.109
 3435POPC   C4B46750   2.819  44.538   7.428
 3436POPC   NC346751   0.718  28.927   5.416
 3436POPC   PO446752   0.267  29.437   5.476
 3436POPC   GL146753   0.517  29.270   5.795
 3436POPC   GL246754   0.341  28.953   5.809
 3436POPC   C1A46755   0.558  29.140   6.242
 3436POPC   D2A46756   0.681  29.189   6.674
 3436POPC   C3A46757   0.469  29.310   7.071
 3436POPC   C4A46758   0.480  29.152   7.515
 3436POPC   C1B46759   0.153  28.815   6.235
 3436POPC   C2B46760   0.252  28.866   6.692
 3436POPC   C3B46761   0.401  28.818   7.125
 3436POPC   C4B46762   0.297  28.677   7.541
 3437POPC   NC346763  30.664  38.813   5.259
 3437POPC   PO446764  30.885  38.169   5.100
 3437POPC   GL146765  30.792  38.318   5.606
 3437POPC   GL246766  30.488  38.430   5.883
 3437POPC   C1A46767  30.871  38.176   6.079
 3437POPC   D2A46768  30.861  38.406   6.481
 3437POPC   C3A46769  30.787  38.239   6.898
 3437POPC   C4A46770  30.968  38.426   7.268
 3437POPC   C1B46771  30.485  38.753   6.282
 3437POPC   C2B46772  30.374  38.774   6.725
 3437POPC   C3B46773  30.557  38.681   7.112
 3437POPC   C4B46774  30.494  38.259   7.324
 3438POPC   NC346775  44.913  40.709   5.405
 3438POPC   PO446776  44.537  40.970   5.867
 3438POPC   GL146777  44.843  40.686   6.014
 3438POPC   GL246778  44.815  40.392   5.823
 3438POPC   C1A46779  44.984  40.699   6.454
 3438POPC   D2A46780  44.635  40.934   6.644
 3438POPC   C3A46781  44.631  41.050   7.046
 3438POPC   C4A46782  44.716  40.793   7.374
 3438POPC   C1B46783  44.955  40.236   6.230
 3438POPC   C2B46784   0.145  40.231   6.659
 3438POPC   C3B46785  44.946  40.413   7.088
 3438POPC   C4B46786  44.745  40.326   7.558
 3439POPC   NC346787  34.311  16.419   5.451
 3439POPC   PO446788  34.807  16.891   5.544
 3439POPC   GL146789  34.631  16.872   5.943
 3439POPC   GL246790  34.311  17.003   5.898
 3439POPC   C1A46791  34.476  16.627   6.318
 3439POPC   D2A46792  34.423  16.548   6.778
 3439POPC   C3A46793  34.784  16.443   7.068
 3439POPC   C4A46794  34.888  16.616   7.496
 3439POPC   C1B46795  34.419  17.138   6.324
 3439POPC   C2B46796  34.492  17.083   6.745
 3439POPC   C3B46797  34.347  16.943   7.136
 3439POPC   C4B46798  34.183  17.062   7.554
 3440POPC   NC346799   4.208  23.059   5.406
 3440POPC   PO446800   4.196  22.468   5.684
 3440POPC   GL146801   4.288  22.874   5.891
 3440POPC   GL246802   4.099  23.224   5.902
 3440POPC   C1A46803   4.546  22.944   6.250
 3440POPC   D2A46804   4.407  23.079   6.662
 3440POPC   C3A46805   4.648  23.089   7.046
 3440POPC   C4A46806   4.495  22.906   7.459
 3440POPC   C1B46807   4.031  23.348   6.363
 3440POPC   C2B46808   3.945  23.247   6.824
 3440POPC   C3B46809   4.005  22.914   7.133
 3440POPC   C4B46810   4.019  23.013   7.579
 3441POPC   NC346811  15.759  10.313   5.437
 3441POPC   PO446812  16.022  10.832   5.075
 3441POPC   GL146813  15.892  10.788   5.596
 3441POPC   GL246814  15.606  10.797   5.816
 3441POPC   C1A46815  15.977  10.692   6.116
 3441POPC   D2A46816  15.993  10.399   6.513
 3441POPC   C3A46817  16.190  10.377   6.960
 3441POPC   C4A46818  16.142  10.606   7.386
 3441POPC   C1B46819  15.457  10.678   6.224
 3441POPC   C2B46820  15.598  10.711   6.628
 3441POPC   C3B46821  15.701  10.504   6.976
 3441POPC   C4B46822  15.651  10.751   7.305
 3442POPC   NC346823  40.935  43.602   5.488
 3442POPC   PO446824  40.412  43.921   5.340
 3442POPC   GL146825  40.665  44.007   5.738
 3442POPC   GL246826  40.947  44.231   5.598
 3442POPC   C1A46827  40.735  43.803   6.197
 3442POPC   D2A46828  40.536  43.748   6.638
 3442POPC   C3A46829  40.611  43.753   7.070
 3442POPC   C4A46830  40.964  43.574   7.303
 3442POPC   C1B46831  41.067  44.182   6.038
 3442POPC   C2B46832  40.951  44.198   6.484
 3442POPC   C3B46833  41.016  43.929   6.831
 3442POPC   C4B46834  41.048  44.064   7.260
 3443POPC   NC346835  35.418  42.603   5.282
 3443POPC   PO446836  34.784  42.387   5.375
 3443POPC   GL146837  35.154  42.349   5.672
 3443POPC   GL246838  35.337  42.038   5.668
 3443POPC   C1A46839  35.294  42.527   6.101
 3443POPC   D2A46840  35.151  42.607   6.563
 3443POPC   C3A46841  35.410  42.612   6.971
 3443POPC   C4A46842  35.316  42.375   7.374
 3443POPC   C1B46843  35.455  41.984   6.119
 3443POPC   C2B46844  35.602  42.019   6.567
 3443POPC   C3B46845  35.585  42.100   7.040
 3443POPC   C4B46846  35.820  42.243   7.452
 3444POPC   NC346847  43.765  31.033   5.432
 3444POPC   PO446848  43.908  30.485   5.157
 3444POPC   GL146849  43.973  30.617   5.673
 3444POPC   GL246850  44.106  30.907   5.798
 3444POPC   C1A46851  43.867  30.511   6.124
 3444POPC   D2A46852  44.020  30.387   6.527
 3444POPC   C3A46853  43.765  30.477   6.905
 3444POPC   C4A46854  43.944  30.643   7.285
 3444POPC   C1B46855  43.732  30.989   6.102
 3444POPC   C2B46856  43.620  30.822   6.537
 3444POPC   C3B46857  43.666  30.998   6.980
 3444POPC   C4B46858  43.645  31.003   7.453
 3445POPC   NC346859  24.650  43.181   5.403
 3445POPC   PO446860  24.213  42.684   5.462
 3445POPC   GL146861  24.281  43.048   5.753
 3445POPC   GL246862  24.600  43.211   5.895
 3445POPC   C1A46863  24.233  43.059   6.209
 3445POPC   D2A46864  24.471  43.104   6.586
 3445POPC   C3A46865  24.327  43.031   6.966
 3445POPC   C4A46866  24.223  43.355   7.145
 3445POPC   C1B46867  24.832  43.070   6.233
 3445POPC   C2B46868  24.951  43.298   6.595
 3445POPC   C3B46869  24.792  43.245   6.985
 3445POPC   C4B46870  24.874  42.846   7.131
 3446POPC   NC346871  26.253  14.322   5.472
 3446POPC   PO446872  25.694  14.779   5.366
 3446POPC   GL146873  25.919  14.611   5.762
 3446POPC   GL246874  25.791  14.270   5.805
 3446POPC   C1A46875  26.198  14.402   6.118
 3446POPC   D2A46876  26.233  14.434   6.574
 3446POPC   C3A46877  26.173  14.210   6.969
 3446POPC   C4A46878  26.135  14.619   7.088
 3446POPC   C1B46879  25.701  14.413   6.227
 3446POPC   C2B46880  25.746  14.255   6.639
 3446POPC   C3B46881  25.672  14.456   7.016
 3446POPC   C4B46882  25.786  14.410   7.444
 3447POPC   NC346883  35.938  39.555   5.640
 3447POPC   PO446884  36.166  39.015   5.500
 3447POPC   GL146885  36.290  39.174   5.883
 3447POPC   GL246886  36.631  39.034   5.871
 3447POPC   C1A46887  36.055  39.074   6.288
 3447POPC   D2A46888  35.975  38.777   6.673
 3447POPC   C3A46889  36.081  38.982   7.074
 3447POPC   C4A46890  35.997  39.379   7.216
 3447POPC   C1B46891  36.545  38.922   6.264
 3447POPC   C2B46892  36.417  39.073   6.664
 3447POPC   C3B46893  36.596  38.917   7.024
 3447POPC   C4B46894  36.502  38.974   7.440
 3448POPC   NC346895  14.129  32.743   5.074
 3448POPC   PO446896  14.022  33.043   5.705
 3448POPC   GL146897  14.405  32.851   5.805
 3448POPC   GL246898  14.659  33.109   5.882
 3448POPC   C1A46899  14.411  32.801   6.241
 3448POPC   D2A46900  14.117  32.881   6.563
 3448POPC   C3A46901  14.315  32.863   6.973
 3448POPC   C4A46902  14.745  32.979   7.123
 3448POPC   C1B46903  14.367  33.326   6.211
 3448POPC   C2B46904  14.221  33.387   6.677
 3448POPC   C3B46905  14.403  33.367   7.102
 3448POPC   C4B46906  14.663  33.293   7.501
 3449POPC   NC346907  20.801  44.038   5.391
 3449POPC   PO446908  20.402  43.530   5.504
 3449POPC   GL146909  20.655  43.725   5.828
 3449POPC   GL246910  20.612  44.103   5.868
 3449POPC   C1A46911  20.708  43.750   6.288
 3449POPC   D2A46912  20.454  43.705   6.715
 3449POPC   C3A46913  20.478  43.685   7.242
 3449POPC   C4A46914  20.465  44.072   7.574
 3449POPC   C1B46915  20.765  44.257   6.257
 3449POPC   C2B46916  20.848  44.056   6.658
 3449POPC   C3B46917  20.594  44.123   7.008
 3449POPC   C4B46918  20.721  44.412   7.300
 3450POPC   NC346919   6.821  28.929   5.404
 3450POPC   PO446920   6.445  29.421   5.527
 3450POPC   GL146921   6.752  29.265   5.793
 3450POPC   GL246922   6.603  28.942   5.876
 3450POPC   C1A46923   6.823  29.293   6.229
 3450POPC   D2A46924   6.831  29.103   6.642
 3450POPC   C3A46925   6.593  29.297   6.971
 3450POPC   C4A46926   6.173  29.363   7.209
 3450POPC   C1B46927   6.825  28.751   6.234
 3450POPC   C2B46928   6.690  28.581   6.627
 3450POPC   C3B46929   6.451  28.780   6.920
 3450POPC   C4B46930   6.469  28.940   7.306
 3451POPC   NC346931  39.179  37.789   5.010
 3451POPC   PO446932  39.103  37.445   5.449
 3451POPC   GL146933  39.065  37.737   5.836
 3451POPC   GL246934  39.412  37.765   5.936
 3451POPC   C1A46935  39.041  37.867   6.297
 3451POPC   D2A46936  39.222  37.780   6.733
 3451POPC   C3A46937  39.036  37.881   7.164
 3451POPC   C4A46938  39.250  38.065   7.542
 3451POPC   C1B46939  39.609  37.819   6.347
 3451POPC   C2B46940  39.749  37.825   6.777
 3451POPC   C3B46941  39.586  37.865   7.196
 3451POPC   C4B46942  39.773  38.021   7.591
 3452POPC   NC346943  17.312  23.965   5.430
 3452POPC   PO446944  17.479  23.370   5.433
 3452POPC   GL146945  17.625  23.471   5.855
 3452POPC   GL246946  17.502  23.815   5.885
 3452POPC   C1A46947  17.705  23.578   6.306
 3452POPC   D2A46948  17.685  23.882   6.633
 3452POPC   C3A46949  17.576  23.701   7.003
 3452POPC   C4A46950  17.647  23.553   7.378
 3452POPC   C1B46951  17.385  24.070   6.234
 3452POPC   C2B46952  17.177  24.007   6.655
 3452POPC   C3B46953  17.347  24.143   7.065
 3452POPC   C4B46954  17.374  24.119   7.546
 3453POPC   NC346955   3.136  39.449   5.319
 3453POPC   PO446956   2.501  39.059   5.468
 3453POPC   GL146957   2.825  39.244   5.698
 3453POPC   GL246958   3.051  38.941   5.738
 3453POPC   C1A46959   2.708  39.415   6.100
 3453POPC   D2A46960   2.461  39.193   6.415
 3453POPC   C3A46961   2.701  39.090   6.758
 3453POPC   C4A46962   2.659  39.168   7.159
 3453POPC   C1B46963   3.098  39.108   6.188
 3453POPC   C2B46964   3.077  39.411   6.554
 3453POPC   C3B46965   3.125  39.335   7.002
 3453POPC   C4B46966   3.087  38.902   7.188
 3454POPC   NC346967  11.540   8.933   5.393
 3454POPC   PO446968  11.091   9.344   5.524
 3454POPC   GL146969  11.244   9.059   5.861
 3454POPC   GL246970  11.469   8.738   5.862
 3454POPC   C1A46971  11.433   9.037   6.282
 3454POPC   D2A46972  11.714   9.016   6.607
 3454POPC   C3A46973  11.464   9.051   6.924
 3454POPC   C4A46974  11.421   8.993   7.316
 3454POPC   C1B46975  11.261   8.552   6.232
 3454POPC   C2B46976  11.338   8.622   6.686
 3454POPC   C3B46977  11.300   8.536   7.122
 3454POPC   C4B46978  11.238   8.560   7.588
 3455POPC   NC346979  15.297  30.663   5.542
 3455POPC   PO446980  15.801  30.993   5.416
 3455POPC   GL146981  15.652  30.910   5.857
 3455POPC   GL246982  15.379  31.082   5.856
 3455POPC   C1A46983  15.450  30.867   6.313
 3455POPC   D2A46984  15.146  30.631   6.591
 3455POPC   C3A46985  15.147  30.677   7.054
 3455POPC   C4A46986  15.296  30.397   7.420
 3455POPC   C1B46987  15.039  31.156   6.152
 3455POPC   C2B46988  15.050  31.128   6.606
 3455POPC   C3B46989  15.091  31.213   7.056
 3455POPC   C4B46990  14.819  31.111   7.372
 3456POPC   NC346991  14.344  18.626   5.425
 3456POPC   PO446992  14.172  19.242   5.310
 3456POPC   GL146993  14.445  19.043   5.682
 3456POPC   GL246994  14.169  18.993   5.867
 3456POPC   C1A46995  14.577  18.809   6.085
 3456POPC   D2A46996  14.554  18.999   6.498
 3456POPC   C3A46997  14.762  18.854   6.840
 3456POPC   C4A46998  14.683  18.941   7.260
 3456POPC   C1B46999  14.411  19.311   6.132
 3456POPC   C2B47000  14.475  19.528   6.540
 3456POPC   C3B47001  14.466  19.299   6.934
 3456POPC   C4B47002  14.420  19.371   7.335
 3457POPC   NC347003  16.283  38.708   5.481
 3457POPC   PO447004  16.944  38.478   5.371
 3457POPC   GL147005  16.967  38.291   5.759
 3457POPC   GL247006  16.612  38.266   5.844
 3457POPC   C1A47007  17.050  38.395   6.191
 3457POPC   D2A47008  16.825  38.280   6.564
 3457POPC   C3A47009  16.797  38.574   6.889
 3457POPC   C4A47010  16.825  38.376   7.292
 3457POPC   C1B47011  16.351  38.027   6.164
 3457POPC   C2B47012  16.150  38.165   6.578
 3457POPC   C3B47013  16.408  38.238   6.975
 3457POPC   C4B47014  16.412  38.656   7.219
 3458POPC   NC347015  23.041  35.511   5.448
 3458POPC   PO447016  22.502  35.784   5.786
 3458POPC   GL147017  22.812  35.442   5.922
 3458POPC   GL247018  23.190  35.382   5.907
 3458POPC   C1A47019  22.905  35.367   6.361
 3458POPC   D2A47020  22.708  35.123   6.687
 3458POPC   C3A47021  22.709  35.281   7.105
 3458POPC   C4A47022  22.740  35.065   7.490
 3458POPC   C1B47023  23.374  35.179   6.251
 3458POPC   C2B47024  23.237  35.072   6.638
 3458POPC   C3B47025  23.236  35.286   7.007
 3458POPC   C4B47026  23.234  35.122   7.422
 3459POPC   NC347027  36.485  18.929   5.509
 3459POPC   PO447028  36.192  19.424   5.388
 3459POPC   GL147029  35.972  19.199   5.718
 3459POPC   GL247030  36.019  18.821   5.746
 3459POPC   C1A47031  36.128  19.193   6.144
 3459POPC   D2A47032  36.248  19.448   6.503
 3459POPC   C3A47033  36.388  19.184   6.833
 3459POPC   C4A47034  36.217  19.116   7.216
 3459POPC   C1B47035  36.089  18.678   6.170
 3459POPC   C2B47036  35.986  18.886   6.553
 3459POPC   C3B47037  36.000  18.747   6.957
 3459POPC   C4B47038  36.140  18.623   7.360
 3460POPC   NC347039  20.009  15.216   5.570
 3460POPC   PO447040  19.441  15.045   5.371
 3460POPC   GL147041  19.537  15.018   5.815
 3460POPC   GL247042  19.703  14.740   5.788
 3460POPC   C1A47043  19.446  14.861   6.264
 3460POPC   D2A47044  19.404  15.062   6.706
 3460POPC   C3A47045  19.771  15.211   6.930
 3460POPC   C4A47046  19.919  15.496   7.240
 3460POPC   C1B47047  19.957  14.860   6.157
 3460POPC   C2B47048  19.882  14.856   6.572
 3460POPC   C3B47049  20.158  14.832   6.917
 3460POPC   C4B47050  20.086  14.995   7.302
 3461POPC   NC347051  35.796  26.295   5.387
 3461POPC   PO447052  36.380  25.908   5.482
 3461POPC   GL147053  36.059  26.044   5.785
 3461POPC   GL247054  36.213  26.359   5.773
 3461POPC   C1A47055  35.883  26.064   6.238
 3461POPC   D2A47056  35.736  26.211   6.663
 3461POPC   C3A47057  35.706  25.933   7.008
 3461POPC   C4A47058  36.063  25.748   7.206
 3461POPC   C1B47059  36.460  26.188   6.122
 3461POPC   C2B47060  36.396  25.953   6.490
 3461POPC   C3B47061  36.402  26.038   6.916
 3461POPC   C4B47062  36.086  26.264   7.143
 3462POPC   NC347063  35.577  38.733   5.463
 3462POPC   PO447064  35.059  38.297   5.445
 3462POPC   GL147065  35.372  38.268   5.802
 3462POPC   GL247066  35.581  38.533   5.919
 3462POPC   C1A47067  35.570  38.102   6.189
 3462POPC   D2A47068  35.612  38.303   6.602
 3462POPC   C3A47069  35.239  38.359   6.851
 3462POPC   C4A47070  35.255  38.520   7.235
 3462POPC   C1B47071  35.598  38.790   6.274
 3462POPC   C2B47072  35.446  38.796   6.685
 3462POPC   C3B47073  35.522  38.991   7.054
 3462POPC   C4B47074  35.263  38.988   7.442
 3463POPC   NC347075  41.715  30.999   5.494
 3463POPC   PO447076  41.268  30.481   5.504
 3463POPC   GL147077  41.437  30.697   5.864
 3463POPC   GL247078  41.105  30.833   5.896
 3463POPC   C1A47079  41.542  30.826   6.316
 3463POPC   D2A47080  41.777  31.009   6.694
 3463POPC   C3A47081  41.703  30.818   7.103
 3463POPC   C4A47082  41.868  30.661   7.546
 3463POPC   C1B47083  40.996  30.742   6.309
 3463POPC   C2B47084  40.938  30.612   6.724
 3463POPC   C3B47085  41.205  30.652   7.077
 3463POPC   C4B47086  41.378  30.692   7.479
 3464POPC   NC347087  10.076  17.856   5.533
 3464POPC   PO447088   9.448  17.777   5.303
 3464POPC   GL147089   9.664  17.583   5.692
 3464POPC   GL247090   9.743  17.850   5.963
 3464POPC   C1A47091   9.762  17.356   6.099
 3464POPC   D2A47092   9.704  17.562   6.516
 3464POPC   C3A47093   9.581  17.315   6.859
 3464POPC   C4A47094   9.601  17.505   7.275
 3464POPC   C1B47095  10.119  17.716   6.243
 3464POPC   C2B47096  10.193  17.707   6.691
 3464POPC   C3B47097  10.047  17.448   7.010
 3464POPC   C4B47098  10.118  17.405   7.442
 3465POPC   NC347099  25.705  10.556   5.435
 3465POPC   PO447100  26.185  10.117   5.401
 3465POPC   GL147101  26.085  10.355   5.774
 3465POPC   GL247102  26.090  10.711   5.734
 3465POPC   C1A47103  25.875  10.424   6.191
 3465POPC   D2A47104  26.018  10.281   6.619
 3465POPC   C3A47105  25.848  10.555   7.000
 3465POPC   C4A47106  25.713  10.521   7.441
 3465POPC   C1B47107  26.018  10.912   6.131
 3465POPC   C2B47108  26.062  10.773   6.560
 3465POPC   C3B47109  26.339  10.549   6.914
 3465POPC   C4B47110  26.230  10.623   7.360
 3466POPC   NC347111   5.308  28.109   5.389
 3466POPC   PO447112   4.905  28.607   5.131
 3466POPC   GL147113   4.918  28.481   5.625
 3466POPC   GL247114   4.987  28.153   5.775
 3466POPC   C1A47115   4.886  28.537   6.107
 3466POPC   D2A47116   5.108  28.507   6.525
 3466POPC   C3A47117   4.917  28.430   6.929
 3466POPC   C4A47118   4.962  28.516   7.330
 3466POPC   C1B47119   5.299  28.210   6.114
 3466POPC   C2B47120   5.502  28.202   6.507
 3466POPC   C3B47121   5.396  28.222   6.926
 3466POPC   C4B47122   5.228  28.097   7.307
 3467POPC   NC347123  26.646  11.804   5.310
 3467POPC   PO447124  27.079  12.298   5.487
 3467POPC   GL147125  26.759  12.075   5.728
 3467POPC   GL247126  26.705  12.361   5.876
 3467POPC   C1A47127  26.573  11.956   6.175
 3467POPC   D2A47128  26.763  11.852   6.612
 3467POPC   C3A47129  26.622  12.059   7.011
 3467POPC   C4A47130  26.645  12.006   7.455
 3467POPC   C1B47131  27.042  12.187   6.144
 3467POPC   C2B47132  27.053  12.272   6.563
 3467POPC   C3B47133  27.142  12.062   6.933
 3467POPC   C4B47134  27.103  12.193   7.358
 3468POPC   NC347135  44.796  14.487   5.434
 3468POPC   PO447136  44.703  13.848   5.334
 3468POPC   GL147137  44.742  14.081   5.750
 3468POPC   GL247138   0.056  14.067   5.855
 3468POPC   C1A47139  44.784  14.407   6.138
 3468POPC   D2A47140  44.904  14.524   6.615
 3468POPC   C3A47141  44.575  14.616   6.922
 3468POPC   C4A47142  44.463  14.481   7.366
 3468POPC   C1B47143   0.046  14.001   6.288
 3468POPC   C2B47144  44.694  14.066   6.576
 3468POPC   C3B47145  44.754  14.159   7.050
 3468POPC   C4B47146   0.058  14.159   7.423
 3469POPC   NC347147  14.192  38.483   5.446
 3469POPC   PO447148  14.816  38.468   5.201
 3469POPC   GL147149  14.665  38.412   5.634
 3469POPC   GL247150  14.552  38.758   5.733
 3469POPC   C1A47151  14.735  38.226   6.081
 3469POPC   D2A47152  14.562  38.301   6.510
 3469POPC   C3A47153  14.677  38.240   6.957
 3469POPC   C4A47154  14.391  38.231   7.302
 3469POPC   C1B47155  14.357  38.622   6.137
 3469POPC   C2B47156  14.105  38.538   6.542
 3469POPC   C3B47157  14.238  38.595   6.982
 3469POPC   C4B47158  14.245  38.818   7.410
 3470POPC   NC347159  20.831  28.346   5.384
 3470POPC   PO447160  20.327  27.947   5.385
 3470POPC   GL147161  20.439  28.185   5.745
 3470POPC   GL247162  20.784  28.171   5.869
 3470POPC   C1A47163  20.399  28.291   6.190
 3470POPC   D2A47164  20.668  28.437   6.578
 3470POPC   C3A47165  20.485  28.526   6.984
 3470POPC   C4A47166  20.413  28.333   7.374
 3470POPC   C1B47167  21.007  28.193   6.257
 3470POPC   C2B47168  21.100  28.127   6.680
 3470POPC   C3B47169  20.937  28.308   7.049
 3470POPC   C4B47170  20.903  28.252   7.465
 3471POPC   NC347171   0.687   0.703   5.150
 3471POPC   PO447172   0.356   0.142   5.332
 3471POPC   GL147173   0.419   0.518   5.664
 3471POPC   GL247174   0.779   0.663   5.705
 3471POPC   C1A47175   0.414   0.524   6.116
 3471POPC   D2A47176   0.270   0.232   6.441
 3471POPC   C3A47177   0.017   0.453   6.739
 3471POPC   C4A47178   0.171   0.642   7.102
 3471POPC   C1B47179   0.916   0.547   6.126
 3471POPC   C2B47180   0.756   0.552   6.573
 3471POPC   C3B47181   0.679   0.411   7.031
 3471POPC   C4B47182   0.734   0.251   7.492
 3472POPC   NC347183  22.784   9.204   5.367
 3472POPC   PO447184  23.341   8.808   5.459
 3472POPC   GL147185  23.125   9.102   5.747
 3472POPC   GL247186  22.850   8.899   5.798
 3472POPC   C1A47187  22.964   9.267   6.154
 3472POPC   D2A47188  22.784   9.138   6.550
 3472POPC   C3A47189  23.055   8.945   6.837
 3472POPC   C4A47190  22.928   9.141   7.176
 3472POPC   C1B47191  22.868   8.699   6.202
 3472POPC   C2B47192  22.694   8.632   6.612
 3472POPC   C3B47193  22.581   8.715   7.063
 3472POPC   C4B47194  22.643   8.883   7.515
 3473POPC   NC347195   2.361   4.148   5.479
 3473POPC   PO447196   1.769   3.913   5.664
 3473POPC   GL147197   1.773   4.297   5.849
 3473POPC   GL247198   2.088   4.484   5.846
 3473POPC   C1A47199   1.916   4.219   6.246
 3473POPC   D2A47200   1.876   4.295   6.634
 3473POPC   C3A47201   1.801   4.517   6.953
 3473POPC   C4A47202   1.996   4.327   7.250
 3473POPC   C1B47203   2.044   4.701   6.314
 3473POPC   C2B47204   2.283   4.607   6.730
 3473POPC   C3B47205   2.420   4.618   7.184
 3473POPC   C4B47206   2.257   4.588   7.627
 3474POPC   NC347207  30.982  36.298   5.184
 3474POPC   PO447208  31.588  35.989   5.355
 3474POPC   GL147209  31.455  36.185   5.749
 3474POPC   GL247210  31.685  36.457   5.867
 3474POPC   C1A47211  31.376  36.159   6.204
 3474POPC   D2A47212  31.178  36.201   6.597
 3474POPC   C3A47213  31.367  36.072   6.970
 3474POPC   C4A47214  31.358  36.296   7.381
 3474POPC   C1B47215  31.839  36.333   6.268
 3474POPC   C2B47216  31.749  36.394   6.665
 3474POPC   C3B47217  31.851  36.218   7.034
 3474POPC   C4B47218  32.160  35.956   7.205
 3475POPC   NC347219  20.845  22.475   5.369
 3475POPC   PO447220  21.411  22.408   5.548
 3475POPC   GL147221  21.513  22.348   5.956
 3475POPC   GL247222  21.700  22.667   5.971
 3475POPC   C1A47223  21.366  22.178   6.382
 3475POPC   D2A47224  21.201  22.366   6.782
 3475POPC   C3A47225  21.325  22.151   7.169
 3475POPC   C4A47226  21.459  21.877   7.517
 3475POPC   C1B47227  21.814  22.437   6.345
 3475POPC   C2B47228  21.692  22.501   6.735
 3475POPC   C3B47229  21.561  22.600   7.126
 3475POPC   C4B47230  21.630  22.378   7.517
 3476POPC   NC347231  17.886   1.507   5.495
 3476POPC   PO447232  18.335   1.066   5.393
 3476POPC   GL147233  18.409   1.116   5.814
 3476POPC   GL247234  18.137   1.319   5.899
 3476POPC   C1A47235  18.320   0.967   6.234
 3476POPC   D2A47236  18.181   1.010   6.657
 3476POPC   C3A47237  18.485   1.089   6.950
 3476POPC   C4A47238  18.566   0.786   7.238
 3476POPC   C1B47239  17.884   1.221   6.281
 3476POPC   C2B47240  17.780   1.306   6.715
 3476POPC   C3B47241  18.000   1.280   7.154
 3476POPC   C4B47242  17.986   1.425   7.626
 3477POPC   NC347243  38.523  38.395   5.459
 3477POPC   PO447244  38.095  38.899   5.671
 3477POPC   GL147245  38.154  38.516   5.910
 3477POPC   GL247246  38.376  38.225   5.913
 3477POPC   C1A47247  38.262  38.512   6.336
 3477POPC   D2A47248  38.360  38.810   6.627
 3477POPC   C3A47249  38.375  38.697   7.019
 3477POPC   C4A47250  38.112  38.545   7.282
 3477POPC   C1B47251  38.465  38.052   6.314
 3477POPC   C2B47252  38.479  38.252   6.740
 3477POPC   C3B47253  38.518  38.231   7.185
 3477POPC   C4B47254  38.740  38.146   7.564
 3478POPC   NC347255  23.155  36.230   5.376
 3478POPC   PO447256  22.687  35.763   5.287
 3478POPC   GL147257  22.974  35.921   5.726
 3478POPC   GL247258  23.018  36.274   5.856
 3478POPC   C1A47259  23.025  35.855   6.188
 3478POPC   D2A47260  23.286  35.706   6.523
 3478POPC   C3A47261  23.226  35.789   6.950
 3478POPC   C4A47262  23.016  35.636   7.301
 3478POPC   C1B47263  23.110  36.354   6.269
 3478POPC   C2B47264  23.201  36.232   6.667
 3478POPC   C3B47265  23.051  36.311   7.078
 3478POPC   C4B47266  23.015  36.441   7.528
 3479POPC   NC347267  11.538  11.808   5.590
 3479POPC   PO447268  11.024  12.315   5.500
 3479POPC   GL147269  11.118  12.234   5.939
 3479POPC   GL247270  11.056  11.966   6.214
 3479POPC   C1A47271  11.335  12.421   6.278
 3479POPC   D2A47272  11.593  12.291   6.608
 3479POPC   C3A47273  11.291  12.348   6.929
 3479POPC   C4A47274  11.195  12.133   7.327
 3479POPC   C1B47275  11.112  11.540   6.408
 3479POPC   C2B47276  11.430  11.506   6.694
 3479POPC   C3B47277  11.515  11.811   7.026
 3479POPC   C4B47278  11.427  11.705   7.459
 3480POPC   NC347279  36.394  42.360   5.014
 3480POPC   PO447280  35.781  42.303   5.393
 3480POPC   GL147281  35.856  42.117   5.800
 3480POPC   GL247282  36.066  41.821   5.761
 3480POPC   C1A47283  36.014  42.278   6.229
 3480POPC   D2A47284  36.171  42.485   6.614
 3480POPC   C3A47285  35.940  42.521   6.997
 3480POPC   C4A47286  36.262  42.485   7.269
 3480POPC   C1B47287  35.946  41.784   6.211
 3480POPC   C2B47288  36.103  41.893   6.634
 3480POPC   C3B47289  36.093  42.029   7.069
 3480POPC   C4B47290  36.343  42.049   7.481
 3481POPC   NC347291   1.770   6.311   5.573
 3481POPC   PO447292   2.246   6.813   5.452
 3481POPC   GL147293   2.256   6.635   5.885
 3481POPC   GL247294   1.963   6.472   5.994
 3481POPC   C1A47295   2.198   6.707   6.360
 3481POPC   D2A47296   2.116   6.448   6.735
 3481POPC   C3A47297   2.173   6.668   7.147
 3481POPC   C4A47298   2.084   6.925   7.533
 3481POPC   C1B47299   1.716   6.784   6.175
 3481POPC   C2B47300   1.495   6.728   6.533
 3481POPC   C3B47301   1.678   6.660   6.933
 3481POPC   C4B47302   1.643   6.857   7.308
 3482POPC   NC347303   2.281  15.070   5.404
 3482POPC   PO447304   1.707  15.526   5.491
 3482POPC   GL147305   1.929  15.265   5.808
 3482POPC   GL247306   2.156  14.974   5.889
 3482POPC   C1A47307   2.012  15.285   6.272
 3482POPC   D2A47308   2.204  14.935   6.509
 3482POPC   C3A47309   2.070  14.885   6.934
 3482POPC   C4A47310   1.890  15.117   7.281
 3482POPC   C1B47311   1.744  14.870   6.081
 3482POPC   C2B47312   1.684  14.750   6.510
 3482POPC   C3B47313   1.581  14.822   6.935
 3482POPC   C4B47314   1.704  14.610   7.279
 3483POPC   NC347315   4.717  23.923   5.285
 3483POPC   PO447316   5.168  23.524   5.213
 3483POPC   GL147317   4.984  23.674   5.680
 3483POPC   GL247318   4.912  24.039   5.773
 3483POPC   C1A47319   5.035  23.729   6.179
 3483POPC   D2A47320   5.159  23.550   6.614
 3483POPC   C3A47321   5.433  23.741   6.931
 3483POPC   C4A47322   5.360  23.897   7.360
 3483POPC   C1B47323   4.784  24.176   6.187
 3483POPC   C2B47324   4.872  24.007   6.600
 3483POPC   C3B47325   4.977  23.972   7.034
 3483POPC   C4B47326   4.864  23.848   7.467
 3484POPC   NC347327  31.964  14.858   5.521
 3484POPC   PO447328  32.193  15.539   5.408
 3484POPC   GL147329  31.968  15.336   5.745
 3484POPC   GL247330  32.258  15.117   5.874
 3484POPC   C1A47331  31.837  15.243   6.181
 3484POPC   D2A47332  32.046  15.242   6.621
 3484POPC   C3A47333  31.865  15.175   7.055
 3484POPC   C4A47334  32.096  15.399   7.362
 3484POPC   C1B47335  32.486  14.897   6.252
 3484POPC   C2B47336  32.563  14.963   6.704
 3484POPC   C3B47337  32.386  15.051   7.128
 3484POPC   C4B47338  32.543  15.154   7.555
 3485POPC   NC347339  13.328  44.835   5.371
 3485POPC   PO447340  13.772  44.253   5.468
 3485POPC   GL147341  13.588  44.472   5.816
 3485POPC   GL247342  13.485  44.829   5.850
 3485POPC   C1A47343  13.839  44.660   6.186
 3485POPC   D2A47344  13.749  44.712   6.596
 3485POPC   C3A47345  13.960  44.505   6.904
 3485POPC   C4A47346  13.858  44.747   7.222
 3485POPC   C1B47347  13.314  44.593   6.225
 3485POPC   C2B47348  13.281  44.524   6.656
 3485POPC   C3B47349  13.363  44.812   6.991
 3485POPC   C4B47350  13.389  44.727   7.418
 3486POPC   NC347351   1.050  21.931   5.360
 3486POPC   PO447352   1.537  22.306   5.421
 3486POPC   GL147353   1.338  22.081   5.781
 3486POPC   GL247354   1.010  22.191   5.839
 3486POPC   C1A47355   1.287  22.049   6.248
 3486POPC   D2A47356   1.478  22.309   6.568
 3486POPC   C3A47357   1.286  22.233   6.944
 3486POPC   C4A47358   1.130  21.847   6.965
 3486POPC   C1B47359   0.784  22.213   6.257
 3486POPC   C2B47360   0.826  22.250   6.719
 3486POPC   C3B47361   0.779  22.144   7.174
 3486POPC   C4B47362   0.894  21.781   7.428
 3487POPC   NC347363  10.110  43.319   5.686
 3487POPC   PO447364   9.535  43.150   5.338
 3487POPC   GL147365   9.649  42.953   5.741
 3487POPC   GL247366   9.402  42.679   5.810
 3487POPC   C1A47367   9.765  43.003   6.176
 3487POPC   D2A47368   9.746  43.301   6.509
 3487POPC   C3A47369  10.005  43.133   6.811
 3487POPC   C4A47370  10.147  43.099   7.197
 3487POPC   C1B47371   9.268  43.009   6.093
 3487POPC   C2B47372   9.298  43.016   6.560
 3487POPC   C3B47373   9.512  43.137   6.947
 3487POPC   C4B47374   9.724  42.845   7.204
 3488POPC   NC347375  28.185  36.930   5.449
 3488POPC   PO447376  28.814  36.881   5.463
 3488POPC   GL147377  28.618  36.877   5.839
 3488POPC   GL247378  28.367  36.639   5.808
 3488POPC   C1A47379  28.447  36.975   6.237
 3488POPC   D2A47380  28.191  36.805   6.570
 3488POPC   C3A47381  28.342  37.001   6.918
 3488POPC   C4A47382  28.126  37.032   7.297
 3488POPC   C1B47383  28.321  36.460   6.190
 3488POPC   C2B47384  28.508  36.421   6.587
 3488POPC   C3B47385  28.335  36.506   6.969
 3488POPC   C4B47386  28.553  36.716   7.296
 3489POPC   NC347387   0.120  27.456   5.041
 3489POPC   PO447388   0.559  27.638   5.460
 3489POPC   GL147389   0.569  27.718   5.888
 3489POPC   GL247390   0.318  27.950   5.935
 3489POPC   C1A47391   0.659  27.607   6.329
 3489POPC   D2A47392   0.878  27.565   6.705
 3489POPC   C3A47393   0.610  27.488   7.055
 3489POPC   C4A47394   0.552  27.395   7.469
 3489POPC   C1B47395   0.157  27.696   6.292
 3489POPC   C2B47396   0.205  27.535   6.742
 3489POPC   C3B47397   0.105  27.498   7.228
 3489POPC   C4B47398   0.117  27.607   7.690
 3490POPC   NC347399  32.332  21.762   5.402
 3490POPC   PO447400  32.069  22.299   5.296
 3490POPC   GL147401  32.319  22.208   5.660
 3490POPC   GL247402  32.244  22.489   5.801
 3490POPC   C1A47403  32.365  22.003   6.074
 3490POPC   D2A47404  32.212  22.081   6.486
 3490POPC   C3A47405  32.345  22.021   6.918
 3490POPC   C4A47406  32.132  21.783   7.241
 3490POPC   C1B47407  31.984  22.393   6.143
 3490POPC   C2B47408  31.788  22.369   6.540
 3490POPC   C3B47409  32.079  22.449   6.864
 3490POPC   C4B47410  32.102  22.333   7.280
 3491POPC   NC347411   4.681  30.460   5.466
 3491POPC   PO447412   4.059  30.801   5.377
 3491POPC   GL147413   4.062  30.733   5.814
 3491POPC   GL247414   4.015  30.379   5.969
 3491POPC   C1A47415   4.025  30.813   6.238
 3491POPC   D2A47416   4.091  30.476   6.502
 3491POPC   C3A47417   4.223  30.703   6.813
 3491POPC   C4A47418   4.232  30.707   7.214
 3491POPC   C1B47419   4.441  30.510   6.116
 3491POPC   C2B47420   4.627  30.650   6.488
 3491POPC   C3B47421   4.693  30.527   6.898
 3491POPC   C4B47422   4.661  30.500   7.331
 3492POPC   NC347423  37.221  42.406   5.573
 3492POPC   PO447424  36.719  42.086   5.226
 3492POPC   GL147425  36.705  42.333   5.621
 3492POPC   GL247426  36.820  42.688   5.740
 3492POPC   C1A47427  36.527  42.395   6.046
 3492POPC   D2A47428  36.509  42.145   6.415
 3492POPC   C3A47429  36.769  42.236   6.782
 3492POPC   C4A47430  36.741  42.297   7.228
 3492POPC   C1B47431  37.094  42.766   6.123
 3492POPC   C2B47432  37.205  42.585   6.537
 3492POPC   C3B47433  37.104  42.625   6.969
 3492POPC   C4B47434  37.261  42.277   7.184
 3493POPC   NC347435  39.433  36.146   5.336
 3493POPC   PO447436  38.900  36.026   5.327
 3493POPC   GL147437  39.122  36.054   5.759
 3493POPC   GL247438  39.443  36.232   5.883
 3493POPC   C1A47439  39.055  36.096   6.220
 3493POPC   D2A47440  39.140  36.149   6.663
 3493POPC   C3A47441  38.998  35.865   6.961
 3493POPC   C4A47442  39.011  35.908   7.396
 3493POPC   C1B47443  39.569  36.163   6.359
 3493POPC   C2B47444  39.590  35.970   6.810
 3493POPC   C3B47445  39.414  36.143   7.197
 3493POPC   C4B47446  39.636  36.391   7.557
 3494POPC   NC347447   2.820  44.326   5.426
 3494POPC   PO447448   2.524  43.663   5.347
 3494POPC   GL147449   2.597  43.897   5.714
 3494POPC   GL247450   2.383  44.214   5.730
 3494POPC   C1A47451   2.753  43.684   6.101
 3494POPC   D2A47452   2.931  43.696   6.510
 3494POPC   C3A47453   2.962  43.407   6.843
 3494POPC   C4A47454   2.963  43.624   7.211
 3494POPC   C1B47455   2.368  44.016   6.145
 3494POPC   C2B47456   2.432  43.832   6.525
 3494POPC   C3B47457   2.645  43.891   6.905
 3494POPC   C4B47458   2.411  43.656   7.169
 3495POPC   NC347459   2.027  35.678   5.506
 3495POPC   PO447460   2.119  36.349   5.394
 3495POPC   GL147461   2.115  36.213   5.828
 3495POPC   GL247462   2.444  36.258   5.953
 3495POPC   C1A47463   1.918  36.323   6.247
 3495POPC   D2A47464   1.777  36.536   6.664
 3495POPC   C3A47465   1.951  36.328   7.016
 3495POPC   C4A47466   1.812  35.961   7.176
 3495POPC   C1B47467   2.253  35.930   6.272
 3495POPC   C2B47468   2.102  35.918   6.691
 3495POPC   C3B47469   2.315  35.933   7.075
 3495POPC   C4B47470   2.249  36.054   7.519
 3496POPC   NC347471   6.632  36.307   5.356
 3496POPC   PO447472   6.460  35.676   5.612
 3496POPC   GL147473   6.728  35.920   5.867
 3496POPC   GL247474   6.835  36.278   5.817
 3496POPC   C1A47475   6.664  35.890   6.313
 3496POPC   D2A47476   6.461  36.111   6.684
 3496POPC   C3A47477   6.663  35.984   7.063
 3496POPC   C4A47478   6.495  35.984   7.457
 3496POPC   C1B47479   6.748  36.376   6.247
 3496POPC   C2B47480   6.940  36.189   6.621
 3496POPC   C3B47481   6.795  36.434   6.926
 3496POPC   C4B47482   6.579  36.481   7.285
 3497POPC   NC347483  18.775   0.927   5.458
 3497POPC   PO447484  19.250   1.469   5.399
 3497POPC   GL147485  19.146   1.242   5.763
 3497POPC   GL247486  18.841   1.401   5.809
 3497POPC   C1A47487  19.124   1.078   6.204
 3497POPC   D2A47488  19.001   0.983   6.646
 3497POPC   C3A47489  19.302   1.038   6.960
 3497POPC   C4A47490  19.373   1.433   7.128
 3497POPC   C1B47491  18.665   1.351   6.211
 3497POPC   C2B47492  18.751   1.452   6.628
 3497POPC   C3B47493  18.871   1.431   7.049
 3497POPC   C4B47494  18.983   1.101   7.341
 3498POPC   NC347495   2.020  44.434   5.444
 3498POPC   PO447496   1.884   0.091   5.387
 3498POPC   GL147497   1.892  44.904   5.777
 3498POPC   GL247498   2.228  44.801   5.822
 3498POPC   C1A47499   1.893  44.739   6.188
 3498POPC   D2A47500   2.038  44.795   6.579
 3498POPC   C3A47501   1.817  44.543   6.844
 3498POPC   C4A47502   1.789  44.709   7.218
 3498POPC   C1B47503   2.398  44.544   6.147
 3498POPC   C2B47504   2.593  44.575   6.553
 3498POPC   C3B47505   2.534  44.444   6.968
 3498POPC   C4B47506   2.349  44.684   7.286
 3499POPC   NC347507  32.919   0.140   5.565
 3499POPC   PO447508  33.255  44.506   5.398
 3499POPC   GL147509  33.130  44.716   5.765
 3499POPC   GL247510  33.434  44.724   5.890
 3499POPC   C1A47511  33.004  44.832   6.200
 3499POPC   D2A47512  32.838  44.757   6.607
 3499POPC   C3A47513  33.002  44.914   6.978
 3499POPC   C4A47514  32.952  44.686   7.365
 3499POPC   C1B47515  33.450  44.576   6.264
 3499POPC   C2B47516  33.361  44.725   6.642
 3499POPC   C3B47517  33.363  44.560   7.045
 3499POPC   C4B47518  33.312  44.321   7.419
 3500POPC   NC347519  20.339   8.979   5.502
 3500POPC   PO447520  20.771   9.511   5.183
 3500POPC   GL147521  21.005   9.285   5.735
 3500POPC   GL247522  20.728   8.987   5.872
 3500POPC   C1A47523  20.912   9.224   6.259
 3500POPC   D2A47524  20.758   9.003   6.655
 3500POPC   C3A47525  20.664   9.221   7.015
 3500POPC   C4A47526  20.957   9.370   7.319
 3500POPC   C1B47527  20.428   9.001   6.291
 3500POPC   C2B47528  20.226   9.094   6.721
 3500POPC   C3B47529  20.252   8.891   7.134
 3500POPC   C4B47530  20.267   9.001   7.566
 3501POPC   NC347531   4.419  36.621   5.198
 3501POPC   PO447532   5.177  36.650   5.284
 3501POPC   GL147533   5.100  36.854   5.717
 3501POPC   GL247534   4.909  36.615   5.916
 3501POPC   C1A47535   5.197  37.142   6.108
 3501POPC   D2A47536   5.380  37.048   6.564
 3501POPC   C3A47537   5.217  37.161   7.013
 3501POPC   C4A47538   5.176  37.050   7.477
 3501POPC   C1B47539   4.944  36.768   6.333
 3501POPC   C2B47540   4.943  36.796   6.787
 3501POPC   C3B47541   5.034  36.604   7.209
 3501POPC   C4B47542   4.884  36.635   7.657
 3502POPC   NC347543   5.224  15.635   5.336
 3502POPC   PO447544   5.242  14.988   5.371
 3502POPC   GL147545   5.212  15.158   5.763
 3502POPC   GL247546   5.482  15.381   5.761
 3502POPC   C1A47547   4.989  15.097   6.151
 3502POPC   D2A47548   4.833  14.817   6.495
 3502POPC   C3A47549   5.078  14.948   6.816
 3502POPC   C4A47550   4.970  15.141   7.180
 3502POPC   C1B47551   5.392  15.444   6.210
 3502POPC   C2B47552   5.169  15.511   6.608
 3502POPC   C3B47553   5.184  15.625   7.041
 3502POPC   C4B47554   5.190  15.465   7.490
 3503POPC   NC347555  30.317  10.018   5.451
 3503POPC   PO447556  29.679   9.614   5.383
 3503POPC   GL147557  29.911   9.806   5.706
 3503POPC   GL247558  30.107   9.539   5.823
 3503POPC   C1A47559  29.966   9.943   6.140
 3503POPC   D2A47560  29.746  10.142   6.510
 3503POPC   C3A47561  29.987  10.123   6.869
 3503POPC   C4A47562  30.227  10.237   7.229
 3503POPC   C1B47563  29.710   9.429   6.024
 3503POPC   C2B47564  29.651   9.437   6.477
 3503POPC   C3B47565  29.751   9.537   6.915
 3503POPC   C4B47566  30.069   9.493   7.254
 3504POPC   NC347567   9.134  44.449   5.345
 3504POPC   PO447568   8.969   0.097   5.352
 3504POPC   GL147569   9.028  44.916   5.802
 3504POPC   GL247570   9.103  44.595   5.833
 3504POPC   C1A47571   8.885  44.718   6.262
 3504POPC   D2A47572   8.643  44.694   6.663
 3504POPC   C3A47573   8.931  44.629   7.003
 3504POPC   C4A47574   8.942  44.597   7.436
 3504POPC   C1B47575   9.363  44.425   6.189
 3504POPC   C2B47576   9.252  44.483   6.590
 3504POPC   C3B47577   9.272  44.239   6.947
 3504POPC   C4B47578   9.408  44.431   7.299
 3505POPC   NC347579  28.449  15.850   5.071
 3505POPC   PO447580  28.252  15.433   5.616
 3505POPC   GL147581  28.475  15.756   5.870
 3505POPC   GL247582  28.650  16.070   5.721
 3505POPC   C1A47583  28.384  15.759   6.325
 3505POPC   D2A47584  28.534  15.614   6.749
 3505POPC   C3A47585  28.348  15.830   7.096
 3505POPC   C4A47586  28.023  15.767   7.394
 3505POPC   C1B47587  28.489  16.287   6.117
 3505POPC   C2B47588  28.224  16.301   6.502
 3505POPC   C3B47589  28.357  16.327   6.921
 3505POPC   C4B47590  28.646  16.378   7.218
 3506POPC   NC347591  24.545  12.519   5.332
 3506POPC   PO447592  24.926  13.072   5.407
 3506POPC   GL147593  24.846  12.924   5.814
 3506POPC   GL247594  24.823  12.575   5.781
 3506POPC   C1A47595  24.514  13.018   6.122
 3506POPC   D2A47596  24.286  12.906   6.497
 3506POPC   C3A47597  24.514  13.018   6.860
 3506POPC   C4A47598  24.667  13.217   7.236
 3506POPC   C1B47599  24.462  12.504   6.031
 3506POPC   C2B47600  24.478  12.438   6.461
 3506POPC   C3B47601  24.341  12.508   6.860
 3506POPC   C4B47602  24.565  12.640   7.198
 3507POPC   NC347603  42.991  11.469   5.482
 3507POPC   PO447604  43.115  10.832   5.331
 3507POPC   GL147605  43.273  10.948   5.765
 3507POPC   GL247606  42.951  11.090   5.897
 3507POPC   C1A47607  43.347  11.222   6.167
 3507POPC   D2A47608  43.112  11.272   6.549
 3507POPC   C3A47609  43.266  11.269   6.962
 3507POPC   C4A47610  42.962  11.179   7.295
 3507POPC   C1B47611  42.910  11.519   6.122
 3507POPC   C2B47612  43.007  11.783   6.488
 3507POPC   C3B47613  42.913  11.696   6.918
 3507POPC   C4B47614  42.617  11.586   7.246
 3508POPC   NC347615  27.849   8.666   5.746
 3508POPC   PO447616  27.404   8.250   5.399
 3508POPC   GL147617  27.462   8.016   5.783
 3508POPC   GL247618  27.720   8.199   5.938
 3508POPC   C1A47619  27.414   7.968   6.250
 3508POPC   D2A47620  27.666   8.064   6.628
 3508POPC   C3A47621  27.435   8.244   6.954
 3508POPC   C4A47622  27.437   8.248   7.386
 3508POPC   C1B47623  27.704   8.475   6.337
 3508POPC   C2B47624  27.845   8.547   6.777
 3508POPC   C3B47625  27.896   8.321   7.190
 3508POPC   C4B47626  27.897   8.310   7.681
 3509POPC   NC347627  43.950  41.376   5.419
 3509POPC   PO447628  44.214  41.903   5.707
 3509POPC   GL147629  43.842  41.719   5.910
 3509POPC   GL247630  43.688  41.365   5.854
 3509POPC   C1A47631  43.933  41.690   6.363
 3509POPC   D2A47632  43.941  41.970   6.728
 3509POPC   C3A47633  43.947  41.720   7.079
 3509POPC   C4A47634  43.752  41.723   7.499
 3509POPC   C1B47635  43.769  41.209   6.293
 3509POPC   C2B47636  43.801  41.304   6.759
 3509POPC   C3B47637  43.533  41.415   7.138
 3509POPC   C4B47638  43.547  41.287   7.586
 3510POPC   NC347639   7.196  33.218   5.408
 3510POPC   PO447640   6.596  32.867   5.488
 3510POPC   GL147641   6.801  33.169   5.752
 3510POPC   GL247642   7.057  32.910   5.790
 3510POPC   C1A47643   6.737  33.298   6.200
 3510POPC   D2A47644   6.847  33.066   6.624
 3510POPC   C3A47645   6.728  33.282   7.013
 3510POPC   C4A47646   6.360  33.043   7.185
 3510POPC   C1B47647   7.135  32.983   6.198
 3510POPC   C2B47648   7.246  32.722   6.536
 3510POPC   C3B47649   7.125  32.631   6.918
 3510POPC   C4B47650   6.823  32.825   7.211
 3511POPC   NC347651  41.360  41.363   5.495
 3511POPC   PO447652  41.945  41.807   5.493
 3511POPC   GL147653  41.756  41.999   5.859
 3511POPC   GL247654  41.445  41.851   5.736
 3511POPC   C1A47655  41.681  41.970   6.323
 3511POPC   D2A47656  41.570  41.560   6.478
 3511POPC   C3A47657  41.456  41.512   6.921
 3511POPC   C4A47658  41.461  41.193   7.226
 3511POPC   C1B47659  41.228  41.893   6.130
 3511POPC   C2B47660  41.146  41.815   6.578
 3511POPC   C3B47661  40.952  41.694   6.955
 3511POPC   C4B47662  41.102  41.523   7.333
 3512POPC   NC347663  41.880   8.296   5.457
 3512POPC   PO447664  41.324   7.898   5.144
 3512POPC   GL147665  41.392   7.895   5.622
 3512POPC   GL247666  41.745   7.873   5.732
 3512POPC   C1A47667  41.349   8.084   6.069
 3512POPC   D2A47668  41.444   8.418   6.394
 3512POPC   C3A47669  41.378   8.323   6.838
 3512POPC   C4A47670  41.547   8.312   7.252
 3512POPC   C1B47671  41.654   7.683   6.127
 3512POPC   C2B47672  41.593   7.907   6.513
 3512POPC   C3B47673  41.683   7.902   6.943
 3512POPC   C4B47674  41.391   7.819   7.280
 3513POPC   NC347675  33.305  18.401   5.426
 3513POPC   PO447676  33.881  18.224   5.218
 3513POPC   GL147677  33.774  18.332   5.634
 3513POPC   GL247678  34.014  18.145   5.772
 3513POPC   C1A47679  33.700  18.413   6.088
 3513POPC   D2A47680  33.861  18.373   6.522
 3513POPC   C3A47681  33.755  18.021   6.808
 3513POPC   C4A47682  33.446  18.023   7.158
 3513POPC   C1B47683  34.111  18.051   6.209
 3513POPC   C2B47684  34.280  18.040   6.644
 3513POPC   C3B47685  34.132  18.346   6.970
 3513POPC   C4B47686  34.047  18.699   7.255
 3514POPC   NC347687  27.422  10.318   5.336
 3514POPC   PO447688  27.750  10.859   5.149
 3514POPC   GL147689  27.776  10.675   5.599
 3514POPC   GL247690  27.433  10.674   5.713
 3514POPC   C1A47691  27.804  10.622   6.106
 3514POPC   D2A47692  27.939  10.555   6.575
 3514POPC   C3A47693  27.759  10.376   6.958
 3514POPC   C4A47694  27.545  10.410   7.390
 3514POPC   C1B47695  27.328  10.819   6.116
 3514POPC   C2B47696  27.496  10.824   6.518
 3514POPC   C3B47697  27.375  10.733   6.919
 3514POPC   C4B47698  27.593  10.876   7.245
 3515POPC   NC347699  37.385  17.513   5.433
 3515POPC   PO447700  37.975  17.770   5.410
 3515POPC   GL147701  37.776  17.541   5.782
 3515POPC   GL247702  37.425  17.595   5.941
 3515POPC   C1A47703  37.815  17.460   6.229
 3515POPC   D2A47704  37.636  17.450   6.653
 3515POPC   C3A47705  37.931  17.420   7.010
 3515POPC   C4A47706  37.990  17.461   7.495
 3515POPC   C1B47707  37.378  17.192   6.175
 3515POPC   C2B47708  37.192  17.074   6.559
 3515POPC   C3B47709  37.205  17.228   6.961
 3515POPC   C4B47710  37.492  17.407   7.260
 3516POPC   NC347711  18.089  42.530   5.314
 3516POPC   PO447712  18.631  42.212   5.591
 3516POPC   GL147713  18.261  42.358   5.756
 3516POPC   GL247714  18.426  42.697   5.718
 3516POPC   C1A47715  18.016  42.306   6.115
 3516POPC   D2A47716  18.310  42.354   6.450
 3516POPC   C3A47717  18.152  42.410   6.872
 3516POPC   C4A47718  18.246  42.562   7.306
 3516POPC   C1B47719  18.684  42.655   6.117
 3516POPC   C2B47720  18.831  42.365   6.438
 3516POPC   C3B47721  18.661  42.405   6.842
 3516POPC   C4B47722  18.599  42.194   7.212
 3517POPC   NC347723   3.903   3.751   5.456
 3517POPC   PO447724   3.608   3.153   5.545
 3517POPC   GL147725   3.618   3.394   5.893
 3517POPC   GL247726   3.480   3.717   5.786
 3517POPC   C1A47727   3.506   3.415   6.342
 3517POPC   D2A47728   3.321   3.736   6.624
 3517POPC   C3A47729   3.400   3.574   7.018
 3517POPC   C4A47730   3.548   3.250   7.276
 3517POPC   C1B47731   3.758   3.817   6.166
 3517POPC   C2B47732   3.859   3.693   6.624
 3517POPC   C3B47733   3.853   3.835   7.062
 3517POPC   C4B47734   3.657   3.744   7.452
 3518POPC   NC347735   1.071  10.513   5.286
 3518POPC   PO447736   1.501  10.877   5.655
 3518POPC   GL147737   1.320  10.504   5.882
 3518POPC   GL247738   0.959  10.383   5.772
 3518POPC   C1A47739   1.359  10.671   6.305
 3518POPC   D2A47740   1.647  10.674   6.647
 3518POPC   C3A47741   1.439  10.620   7.018
 3518POPC   C4A47742   1.006  10.687   7.089
 3518POPC   C1B47743   1.001  10.294   6.222
 3518POPC   C2B47744   1.194  10.323   6.640
 3518POPC   C3B47745   1.147  10.191   7.052
 3518POPC   C4B47746   1.094  10.376   7.492
 3519POPC   NC347747  10.785  30.840   5.486
 3519POPC   PO447748  10.254  30.344   5.609
 3519POPC   GL147749  10.375  30.734   5.771
 3519POPC   GL247750  10.106  30.984   5.767
 3519POPC   C1A47751  10.682  30.678   6.133
 3519POPC   D2A47752  10.722  30.357   6.464
 3519POPC   C3A47753  10.792  30.523   6.866
 3519POPC   C4A47754  10.513  30.581   7.205
 3519POPC   C1B47755  10.327  31.035   6.170
 3519POPC   C2B47756  10.512  30.974   6.585
 3519POPC   C3B47757  10.333  31.080   6.985
 3519POPC   C4B47758  10.159  30.902   7.377
 3520POPC   NC347759  38.938  19.886   5.522
 3520POPC   PO447760  38.336  19.707   5.274
 3520POPC   GL147761  38.361  19.908   5.718
 3520POPC   GL247762  38.637  20.142   5.845
 3520POPC   C1A47763  38.322  19.830   6.167
 3520POPC   D2A47764  38.551  19.760   6.569
 3520POPC   C3A47765  38.429  19.846   6.993
 3520POPC   C4A47766  38.427  19.967   7.443
 3520POPC   C1B47767  38.653  20.183   6.293
 3520POPC   C2B47768  38.787  20.198   6.737
 3520POPC   C3B47769  38.853  20.056   7.185
 3520POPC   C4B47770  38.855  20.332   7.581
 3521POPC   NC347771  13.548  28.549   5.453
 3521POPC   PO447772  13.325  27.921   5.572
 3521POPC   GL147773  13.541  28.218   5.883
 3521POPC   GL247774  13.676  28.563   5.946
 3521POPC   C1A47775  13.552  28.239   6.345
 3521POPC   D2A47776  13.528  28.080   6.770
 3521POPC   C3A47777  13.458  28.426   7.015
 3521POPC   C4A47778  13.411  28.756   7.332
 3521POPC   C1B47779  13.926  28.585   6.343
 3521POPC   C2B47780  13.921  28.413   6.761
 3521POPC   C3B47781  13.908  28.614   7.159
 3521POPC   C4B47782  14.131  28.522   7.495
 3522POPC   NC347783  29.586  43.840   5.229
 3522POPC   PO447784  29.110  43.608   5.518
 3522POPC   GL147785  29.030  43.867   5.870
 3522POPC   GL247786  29.344  44.042   5.814
 3522POPC   C1A47787  29.107  44.117   6.283
 3522POPC   D2A47788  29.168  44.131   6.746
 3522POPC   C3A47789  28.916  43.779   6.941
 3522POPC   C4A47790  28.989  43.629   7.358
 3522POPC   C1B47791  29.420  43.735   6.146
 3522POPC   C2B47792  29.265  43.645   6.576
 3522POPC   C3B47793  29.426  43.770   7.008
 3522POPC   C4B47794  29.601  44.139   7.211
 3523POPC   NC347795  20.646  24.949   5.531
 3523POPC   PO447796  20.872  25.634   5.434
 3523POPC   GL147797  20.594  25.424   5.750
 3523POPC   GL247798  20.888  25.382   5.931
 3523POPC   C1A47799  20.410  25.280   6.160
 3523POPC   D2A47800  20.673  25.347   6.551
 3523POPC   C3A47801  20.585  25.176   6.965
 3523POPC   C4A47802  20.417  25.290   7.357
 3523POPC   C1B47803  21.046  25.642   6.300
 3523POPC   C2B47804  20.888  25.781   6.713
 3523POPC   C3B47805  20.784  25.620   7.113
 3523POPC   C4B47806  20.923  25.574   7.539
 3524POPC   NC347807  12.555  36.239   5.118
 3524POPC   PO447808  13.015  35.857   5.457
 3524POPC   GL147809  12.866  36.194   5.704
 3524POPC   GL247810  12.520  36.225   5.661
 3524POPC   C1A47811  12.911  36.205   6.150
 3524POPC   D2A47812  12.987  35.951   6.519
 3524POPC   C3A47813  12.850  36.144   6.900
 3524POPC   C4A47814  12.869  36.025   7.318
 3524POPC   C1B47815  12.416  36.348   6.070
 3524POPC   C2B47816  12.489  36.327   6.490
 3524POPC   C3B47817  12.509  36.562   6.851
 3524POPC   C4B47818  12.621  36.453   7.249
 3525POPC   NC347819  33.826  19.106   5.456
 3525POPC   PO447820  33.231  18.815   5.640
 3525POPC   GL147821  33.602  18.947   5.908
 3525POPC   GL247822  33.692  19.317   5.902
 3525POPC   C1A47823  33.903  18.884   6.277
 3525POPC   D2A47824  33.977  18.826   6.742
 3525POPC   C3A47825  33.733  19.062   7.085
 3525POPC   C4A47826  33.669  19.494   7.138
 3525POPC   C1B47827  34.059  19.384   6.170
 3525POPC   C2B47828  34.257  19.289   6.570
 3525POPC   C3B47829  34.153  19.354   6.989
 3525POPC   C4B47830  34.060  19.328   7.435
 3526POPC   NC347831   1.835  18.855   5.397
 3526POPC   PO447832   2.135  19.463   5.367
 3526POPC   GL147833   1.987  19.251   5.744
 3526POPC   GL247834   2.179  18.972   5.793
 3526POPC   C1A47835   2.030  19.314   6.206
 3526POPC   D2A47836   2.159  19.254   6.617
 3526POPC   C3A47837   1.944  19.274   6.995
 3526POPC   C4A47838   2.241  19.156   7.281
 3526POPC   C1B47839   1.829  18.875   6.081
 3526POPC   C2B47840   1.799  18.890   6.553
 3526POPC   C3B47841   2.150  18.802   6.888
 3526POPC   C4B47842   2.270  18.601   7.287
 3527POPC   NC347843  27.748  15.303   5.327
 3527POPC   PO447844  27.652  14.636   5.259
 3527POPC   GL147845  27.482  15.030   5.651
 3527POPC   GL247846  27.781  15.122   5.897
 3527POPC   C1A47847  27.389  15.352   6.084
 3527POPC   D2A47848  27.604  15.439   6.500
 3527POPC   C3A47849  27.496  15.275   6.917
 3527POPC   C4A47850  27.679  15.382   7.320
 3527POPC   C1B47851  27.581  14.950   6.331
 3527POPC   C2B47852  27.777  14.868   6.710
 3527POPC   C3B47853  27.851  14.944   7.105
 3527POPC   C4B47854  27.518  14.908   7.390
 3528POPC   NC347855  36.756  44.421   5.468
 3528POPC   PO447856  37.071   0.059   5.243
 3528POPC   GL147857  37.027  44.847   5.711
 3528POPC   GL247858  37.307  44.793   5.892
 3528POPC   C1A47859  36.932  44.515   6.101
 3528POPC   D2A47860  36.847  44.257   6.514
 3528POPC   C3A47861  36.656  44.493   6.885
 3528POPC   C4A47862  36.754  44.690   7.294
 3528POPC   C1B47863  37.113  44.999   6.197
 3528POPC   C2B47864  36.828  44.900   6.504
 3528POPC   C3B47865  37.026  44.844   6.877
 3528POPC   C4B47866  37.045   0.119   7.194
 3529POPC   NC347867  14.934  10.349   5.436
 3529POPC   PO447868  15.343  10.837   5.400
 3529POPC   GL147869  15.092  10.742   5.786
 3529POPC   GL247870  15.190  10.399   5.874
 3529POPC   C1A47871  14.919  10.663   6.217
 3529POPC   D2A47872  15.121  10.430   6.555
 3529POPC   C3A47873  15.189  10.539   6.951
 3529POPC   C4A47874  15.127  10.659   7.369
 3529POPC   C1B47875  15.339  10.135   6.193
 3529POPC   C2B47876  15.527  10.129   6.593
 3529POPC   C3B47877  15.364  10.038   6.977
 3529POPC   C4B47878  15.398  10.244   7.311
 3530POPC   NC347879   6.027  41.603   5.579
 3530POPC   PO447880   5.439  41.261   5.406
 3530POPC   GL147881   5.693  41.212   5.824
 3530POPC   GL247882   6.048  41.181   5.855
 3530POPC   C1A47883   5.724  41.377   6.255
 3530POPC   D2A47884   5.471  41.559   6.620
 3530POPC   C3A47885   5.669  41.506   7.037
 3530POPC   C4A47886   6.008  41.741   7.160
 3530POPC   C1B47887   6.230  41.285   6.275
 3530POPC   C2B47888   6.267  41.375   6.720
 3530POPC   C3B47889   6.296  41.259   7.151
 3530POPC   C4B47890   6.015  41.344   7.477
 3531POPC   NC347891  43.652   6.496   5.443
 3531POPC   PO447892  44.306   6.665   5.335
 3531POPC   GL147893  44.029   6.781   5.661
 3531POPC   GL247894  44.044   6.447   5.775
 3531POPC   C1A47895  43.959   6.907   6.087
 3531POPC   D2A47896  44.103   6.871   6.513
 3531POPC   C3A47897  43.894   6.817   6.899
 3531POPC   C4A47898  44.016   6.760   7.318
 3531POPC   C1B47899  44.047   6.403   6.207
 3531POPC   C2B47900  43.906   6.396   6.621
 3531POPC   C3B47901  44.041   6.336   7.056
 3531POPC   C4B47902  43.794   6.248   7.423
 3532POPC   NC347903  40.511  40.913   5.220
 3532POPC   PO447904  40.920  41.194   5.655
 3532POPC   GL147905  40.631  40.847   5.717
 3532POPC   GL247906  40.889  40.647   5.826
 3532POPC   C1A47907  40.501  40.874   6.123
 3532POPC   D2A47908  40.748  40.973   6.492
 3532POPC   C3A47909  40.697  40.743   6.877
 3532POPC   C4A47910  40.563  40.820   7.273
 3532POPC   C1B47911  40.813  40.507   6.260
 3532POPC   C2B47912  40.841  40.306   6.633
 3532POPC   C3B47913  40.996  40.367   7.030
 3532POPC   C4B47914  40.968  40.541   7.432
 3533POPC   NC347915  27.879  42.994   5.472
 3533POPC   PO447916  28.573  42.997   5.346
 3533POPC   GL147917  28.611  43.003   5.786
 3533POPC   GL247918  28.423  43.288   5.912
 3533POPC   C1A47919  28.606  42.814   6.224
 3533POPC   D2A47920  28.356  42.655   6.598
 3533POPC   C3A47921  28.241  42.965   6.929
 3533POPC   C4A47922  28.528  43.220   7.169
 3533POPC   C1B47923  28.254  43.199   6.361
 3533POPC   C2B47924  28.061  43.437   6.728
 3533POPC   C3B47925  28.041  43.503   7.191
 3533POPC   C4B47926  28.144  43.652   7.621
 3534POPC   NC347927  28.982   7.738   5.069
 3534POPC   PO447928  29.305   7.229   5.330
 3534POPC   GL147929  29.270   7.302   5.751
 3534POPC   GL247930  28.958   7.292   5.834
 3534POPC   C1A47931  29.360   7.276   6.204
 3534POPC   D2A47932  29.321   7.615   6.502
 3534POPC   C3A47933  29.229   7.608   6.919
 3534POPC   C4A47934  29.334   7.298   7.177
 3534POPC   C1B47935  28.868   7.418   6.263
 3534POPC   C2B47936  28.952   7.265   6.681
 3534POPC   C3B47937  28.814   7.326   7.124
 3534POPC   C4B47938  28.864   7.174   7.555
 3535POPC   NC347939  16.522  32.360   5.406
 3535POPC   PO447940  16.956  31.821   5.460
 3535POPC   GL147941  16.922  32.206   5.709
 3535POPC   GL247942  17.160  32.075   5.909
 3535POPC   C1A47943  16.690  32.339   6.128
 3535POPC   D2A47944  16.461  32.489   6.546
 3535POPC   C3A47945  16.664  32.466   7.008
 3535POPC   C4A47946  16.666  32.079   7.319
 3535POPC   C1B47947  17.194  32.396   6.188
 3535POPC   C2B47948  16.967  32.356   6.595
 3535POPC   C3B47949  17.089  32.151   7.016
 3535POPC   C4B47950  17.073  32.365   7.458
 3536POPC   NC347951  13.894  13.785   5.448
 3536POPC   PO447952  13.345  13.349   5.494
 3536POPC   GL147953  13.533  13.597   5.802
 3536POPC   GL247954  13.826  13.371   5.829
 3536POPC   C1A47955  13.430  13.900   6.169
 3536POPC   D2A47956  13.624  13.995   6.584
 3536POPC   C3A47957  13.465  13.895   7.007
 3536POPC   C4A47958  13.757  13.737   7.326
 3536POPC   C1B47959  13.710  13.480   6.258
 3536POPC   C2B47960  13.765  13.447   6.685
 3536POPC   C3B47961  13.548  13.363   7.047
 3536POPC   C4B47962  13.680  13.236   7.428
 3537POPC   NC347963   3.616  12.401   5.423
 3537POPC   PO447964   4.002  12.918   5.524
 3537POPC   GL147965   3.754  12.790   5.854
 3537POPC   GL247966   3.416  12.696   5.791
 3537POPC   C1A47967   3.724  12.918   6.281
 3537POPC   D2A47968   3.661  12.764   6.671
 3537POPC   C3A47969   3.766  13.006   7.022
 3537POPC   C4A47970   3.771  12.741   7.385
 3537POPC   C1B47971   3.281  12.998   6.077
 3537POPC   C2B47972   3.256  13.049   6.541
 3537POPC   C3B47973   3.257  12.900   6.977
 3537POPC   C4B47974   3.301  12.987   7.410
 3538POPC   NC347975  38.360  30.209   5.245
 3538POPC   PO447976  38.499  29.595   5.482
 3538POPC   GL147977  38.501  29.895   5.828
 3538POPC   GL247978  38.372  30.256   5.770
 3538POPC   C1A47979  38.281  29.939   6.237
 3538POPC   D2A47980  38.085  29.720   6.595
 3538POPC   C3A47981  38.292  29.831   6.973
 3538POPC   C4A47982  38.689  29.731   7.082
 3538POPC   C1B47983  38.577  30.348   6.172
 3538POPC   C2B47984  38.553  30.181   6.621
 3538POPC   C3B47985  38.598  30.240   7.065
 3538POPC   C4B47986  38.800  30.460   7.407
 3539POPC   NC347987  39.132  11.403   5.223
 3539POPC   PO447988  39.539  10.958   5.344
 3539POPC   GL147989  39.279  11.191   5.678
 3539POPC   GL247990  39.161  10.941   5.898
 3539POPC   C1A47991  39.331  11.380   6.130
 3539POPC   D2A47992  39.238  11.282   6.580
 3539POPC   C3A47993  39.294  11.609   6.868
 3539POPC   C4A47994  38.950  11.741   7.112
 3539POPC   C1B47995  39.020  10.893   6.298
 3539POPC   C2B47996  38.829  10.874   6.694
 3539POPC   C3B47997  38.980  10.878   7.037
 3539POPC   C4B47998  39.112  11.257   7.179
 3540POPC   NC347999   0.971   1.132   5.518
 3540POPC   PO448000   0.318   0.917   5.373
 3540POPC   GL148001   0.500   1.091   5.750
 3540POPC   GL248002   0.226   1.185   5.982
 3540POPC   C1A48003   0.671   1.029   6.171
 3540POPC   D2A48004   0.484   1.277   6.512
 3540POPC   C3A48005   0.485   1.055   6.925
 3540POPC   C4A48006   0.845   1.102   7.205
 3540POPC   C1B48007   0.188   1.592   6.169
 3540POPC   C2B48008   0.212   1.786   6.559
 3540POPC   C3B48009   0.273   1.553   6.904
 3540POPC   C4B48010   0.469   1.442   7.270
 3541POPC   NC348011  27.290  41.368   5.443
 3541POPC   PO448012  27.561  40.687   5.423
 3541POPC   GL148013  27.685  40.668   5.829
 3541POPC   GL248014  27.641  40.306   5.858
 3541POPC   C1A48015  27.720  40.955   6.190
 3541POPC   D2A48016  27.659  41.068   6.639
 3541POPC   C3A48017  27.354  40.827   6.856
 3541POPC   C4A48018  27.235  40.828   7.277
 3541POPC   C1B48019  27.586  40.433   6.287
 3541POPC   C2B48020  27.441  40.335   6.693
 3541POPC   C3B48021  27.525  40.412   7.111
 3541POPC   C4B48022  27.758  40.688   7.330
 3542POPC   NC348023  33.838  23.837   5.408
 3542POPC   PO448024  33.520  23.246   5.482
 3542POPC   GL148025  33.681  23.569   5.840
 3542POPC   GL248026  33.916  23.887   5.905
 3542POPC   C1A48027  33.618  23.689   6.288
 3542POPC   D2A48028  33.392  23.606   6.653
 3542POPC   C3A48029  33.515  23.482   7.065
 3542POPC   C4A48030  33.702  23.779   7.356
 3542POPC   C1B48031  34.120  23.794   6.315
 3542POPC   C2B48032  33.962  23.757   6.765
 3542POPC   C3B48033  34.128  23.929   7.150
 3542POPC   C4B48034  34.105  23.912   7.649
 3543POPC   NC348035   0.257  34.958   5.495
 3543POPC   PO448036   0.533  35.554   5.321
 3543POPC   GL148037   0.238  35.438   5.662
 3543POPC   GL248038   0.552  35.422   5.811
 3543POPC   C1A48039   0.204  35.202   6.096
 3543POPC   D2A48040   0.413  35.242   6.474
 3543POPC   C3A48041   0.431  35.246   6.903
 3543POPC   C4A48042   0.271  35.160   7.295
 3543POPC   C1B48043   0.681  35.573   6.189
 3543POPC   C2B48044   0.798  35.551   6.612
 3543POPC   C3B48045   0.736  35.657   7.056
 3543POPC   C4B48046   0.503  35.590   7.449
 3544POPC   NC348047   1.486  42.887   5.319
 3544POPC   PO448048   0.988  43.367   5.438
 3544POPC   GL148049   1.235  43.265   5.792
 3544POPC   GL248050   1.166  42.920   5.736
 3544POPC   C1A48051   1.230  43.152   6.264
 3544POPC   D2A48052   1.398  43.230   6.692
 3544POPC   C3A48053   1.211  43.138   7.103
 3544POPC   C4A48054   1.011  43.449   7.390
 3544POPC   C1B48055   1.545  42.860   5.988
 3544POPC   C2B48056   1.608  42.799   6.435
 3544POPC   C3B48057   1.366  42.713   6.828
 3544POPC   C4B48058   1.340  42.529   7.246
 3545POPC   NC348059  40.585   1.139   5.262
 3545POPC   PO448060  40.998   0.667   5.336
 3545POPC   GL148061  40.693   0.842   5.707
 3545POPC   GL248062  40.375   1.051   5.748
 3545POPC   C1A48063  40.728   1.057   6.151
 3545POPC   D2A48064  40.914   1.409   6.429
 3545POPC   C3A48065  40.982   1.237   6.862
 3545POPC   C4A48066  41.051   1.146   7.305
 3545POPC   C1B48067  40.273   1.280   6.178
 3545POPC   C2B48068  40.457   1.274   6.631
 3545POPC   C3B48069  40.537   1.391   7.093
 3545POPC   C4B48070  40.552   1.115   7.479
 3546POPC   NC348071  13.059  20.428   5.547
 3546POPC   PO448072  12.514  20.624   5.414
 3546POPC   GL148073  12.654  20.680   5.776
 3546POPC   GL248074  12.622  20.339   5.876
 3546POPC   C1A48075  12.848  20.872   6.113
 3546POPC   D2A48076  12.761  20.775   6.522
 3546POPC   C3A48077  13.009  20.779   6.869
 3546POPC   C4A48078  12.717  20.770   7.177
 3546POPC   C1B48079  12.932  20.345   6.211
 3546POPC   C2B48080  12.994  20.262   6.647
 3546POPC   C3B48081  12.905  20.291   7.087
 3546POPC   C4B48082  12.836  20.063   7.472
 3547POPC   NC348083  11.056  39.377   5.346
 3547POPC   PO448084  10.404  39.132   5.381
 3547POPC   GL148085  10.654  39.390   5.687
 3547POPC   GL248086  10.855  39.098   5.778
 3547POPC   C1A48087  10.758  39.490   6.125
 3547POPC   D2A48088  10.819  39.282   6.530
 3547POPC   C3A48089  10.573  39.370   6.869
 3547POPC   C4A48090  10.643  39.267   7.272
 3547POPC   C1B48091  10.637  38.985   6.155
 3547POPC   C2B48092  10.390  38.961   6.539
 3547POPC   C3B48093  10.445  38.898   6.974
 3547POPC   C4B48094  10.259  38.935   7.372
 3548POPC   NC348095   0.134   9.144   5.546
 3548POPC   PO448096  44.455   9.247   5.478
 3548POPC   GL148097  44.680   9.039   5.824
 3548POPC   GL248098  44.555   8.694   5.911
 3548POPC   C1A48099  44.893   9.015   6.239
 3548POPC   D2A48100   0.076   8.796   6.614
 3548POPC   C3A48101  44.885   8.937   6.981
 3548POPC   C4A48102  44.608   8.741   7.256
 3548POPC   C1B48103  44.579   8.616   6.353
 3548POPC   C2B48104  44.432   8.787   6.737
 3548POPC   C3B48105  44.440   9.180   6.943
 3548POPC   C4B48106  44.577   9.241   7.369
 3549POPC   NC348107   8.813  23.402   5.409
 3549POPC   PO448108   9.366  23.820   5.350
 3549POPC   GL148109   9.094  23.822   5.692
 3549POPC   GL248110   9.054  23.500   5.838
 3549POPC   C1A48111   8.909  23.899   6.124
 3549POPC   D2A48112   9.033  23.765   6.532
 3549POPC   C3A48113   8.819  23.939   6.904
 3549POPC   C4A48114   8.940  23.940   7.344
 3549POPC   C1B48115   8.999  23.276   6.210
 3549POPC   C2B48116   8.819  23.281   6.605
 3549POPC   C3B48117   8.987  23.451   6.972
 3549POPC   C4B48118   8.770  23.293   7.271
 3550POPC   NC348119   8.794  20.543   5.583
 3550POPC   PO448120   9.416  20.679   5.563
 3550POPC   GL148121   9.140  20.674   5.907
 3550POPC   GL248122   8.853  20.942   5.876
 3550POPC   C1A48123   8.913  20.459   6.240
 3550POPC   D2A48124   8.738  20.254   6.615
 3550POPC   C3A48125   8.944  20.436   6.974
 3550POPC   C4A48126   9.210  20.294   7.294
 3550POPC   C1B48127   9.022  20.990   6.264
 3550POPC   C2B48128   8.947  20.824   6.629
 3550POPC   C3B48129   8.918  20.963   7.029
 3550POPC   C4B48130   8.942  20.736   7.412
 3551POPC   NC348131   5.190   2.240   5.048
 3551POPC   PO448132   5.181   2.868   5.445
 3551POPC   GL148133   4.934   2.714   5.764
 3551POPC   GL248134   5.187   2.475   5.816
 3551POPC   C1A48135   4.851   2.579   6.186
 3551POPC   D2A48136   5.045   2.724   6.551
 3551POPC   C3A48137   4.915   3.059   6.771
 3551POPC   C4A48138   5.057   3.005   7.151
 3551POPC   C1B48139   5.381   2.535   6.204
 3551POPC   C2B48140   5.473   2.442   6.648
 3551POPC   C3B48141   5.231   2.543   7.023
 3551POPC   C4B48142   5.260   2.671   7.473
 3552POPC   NC348143  12.349  12.320   5.459
 3552POPC   PO448144  11.940  11.723   5.401
 3552POPC   GL148145  11.969  12.028   5.789
 3552POPC   GL248146  11.652  12.196   5.930
 3552POPC   C1A48147  12.058  12.105   6.239
 3552POPC   D2A48148  12.323  12.145   6.604
 3552POPC   C3A48149  12.153  12.363   6.967
 3552POPC   C4A48150  12.389  12.244   7.285
 3552POPC   C1B48151  11.580  11.889   6.271
 3552POPC   C2B48152  11.866  11.757   6.602
 3552POPC   C3B48153  12.098  11.850   6.963
 3552POPC   C4B48154  11.925  12.018   7.315
 3553POPC   NC348155   1.574   3.532   5.515
 3553POPC   PO448156   2.170   3.760   5.236
 3553POPC   GL148157   2.233   3.696   5.723
 3553POPC   GL248158   2.014   3.406   5.795
 3553POPC   C1A48159   2.156   3.734   6.191
 3553POPC   D2A48160   1.852   3.782   6.547
 3553POPC   C3A48161   2.053   3.894   6.931
 3553POPC   C4A48162   1.960   3.823   7.375
 3553POPC   C1B48163   2.142   3.203   6.214
 3553POPC   C2B48164   2.204   3.405   6.634
 3553POPC   C3B48165   1.983   3.404   7.041
 3553POPC   C4B48166   2.223   3.219   7.362
 3554POPC   NC348167  21.006  26.081   5.370
 3554POPC   PO448168  21.626  25.855   5.502
 3554POPC   GL148169  21.285  25.910   5.797
 3554POPC   GL248170  21.156  26.262   5.814
 3554POPC   C1A48171  21.392  26.029   6.219
 3554POPC   D2A48172  21.658  26.211   6.538
 3554POPC   C3A48173  21.586  25.955   6.900
 3554POPC   C4A48174  21.252  25.805   7.167
 3554POPC   C1B48175  20.929  26.225   6.204
 3554POPC   C2B48176  21.122  26.209   6.612
 3554POPC   C3B48177  21.342  26.431   6.921
 3554POPC   C4B48178  21.322  26.344   7.339
 3555POPC   NC348179  35.167  34.069   5.429
 3555POPC   PO448180  35.793  33.574   5.462
 3555POPC   GL148181  35.428  33.632   5.686
 3555POPC   GL248182  35.526  33.949   5.758
 3555POPC   C1A48183  35.214  33.683   6.086
 3555POPC   D2A48184  35.230  33.539   6.513
 3555POPC   C3A48185  35.338  33.736   6.895
 3555POPC   C4A48186  35.111  33.844   7.249
 3555POPC   C1B48187  35.641  34.006   6.146
 3555POPC   C2B48188  35.685  33.868   6.527
 3555POPC   C3B48189  35.701  34.111   6.881
 3555POPC   C4B48190  35.529  34.109   7.279
 3556POPC   NC348191  43.335  35.254   5.457
 3556POPC   PO448192  42.831  35.120   5.645
 3556POPC   GL148193  43.183  35.278   5.955
 3556POPC   GL248194  43.463  35.516   5.888
 3556POPC   C1A48195  43.304  35.307   6.402
 3556POPC   D2A48196  43.036  35.294   6.760
 3556POPC   C3A48197  43.179  35.096   7.126
 3556POPC   C4A48198  43.089  35.202   7.536
 3556POPC   C1B48199  43.278  35.786   6.236
 3556POPC   C2B48200  43.229  35.763   6.706
 3556POPC   C3B48201  43.196  35.602   7.150
 3556POPC   C4B48202  43.373  35.814   7.535
 3557POPC   NC348203  38.223  40.163   5.480
 3557POPC   PO448204  38.700  39.625   5.373
 3557POPC   GL148205  38.544  39.871   5.744
 3557POPC   GL248206  38.676  40.169   5.796
 3557POPC   C1A48207  38.291  40.041   6.127
 3557POPC   D2A48208  38.346  40.236   6.537
 3557POPC   C3A48209  38.170  40.061   6.866
 3557POPC   C4A48210  38.325  39.996   7.260
 3557POPC   C1B48211  38.789  40.164   6.204
 3557POPC   C2B48212  38.931  40.148   6.600
 3557POPC   C3B48213  38.698  40.175   6.941
 3557POPC   C4B48214  38.621  40.405   7.302
 3558POPC   NC348215  12.236  25.016   5.462
 3558POPC   PO448216  12.026  25.611   5.292
 3558POPC   GL148217  12.062  25.513   5.722
 3558POPC   GL248218  12.372  25.352   5.822
 3558POPC   C1A48219  11.973  25.410   6.173
 3558POPC   D2A48220  12.124  25.227   6.573
 3558POPC   C3A48221  12.074  25.434   6.964
 3558POPC   C4A48222  11.845  25.332   7.313
 3558POPC   C1B48223  12.306  24.977   6.137
 3558POPC   C2B48224  12.491  24.868   6.563
 3558POPC   C3B48225  12.290  24.829   6.960
 3558POPC   C4B48226  12.282  25.088   7.310
 3559POPC   NC348227  39.435  20.931   5.649
 3559POPC   PO448228  39.115  20.319   5.411
 3559POPC   GL148229  39.002  20.577   5.831
 3559POPC   GL248230  39.057  20.907   6.003
 3559POPC   C1A48231  39.006  20.520   6.321
 3559POPC   D2A48232  39.043  20.676   6.739
 3559POPC   C3A48233  39.105  20.475   7.132
 3559POPC   C4A48234  39.319  20.577   7.514
 3559POPC   C1B48235  39.428  20.787   6.300
 3559POPC   C2B48236  39.548  20.673   6.741
 3559POPC   C3B48237  39.387  20.880   7.097
 3559POPC   C4B48238  39.539  21.071   7.441
 3560POPC   NC348239  34.716  27.764   5.434
 3560POPC   PO448240  34.418  27.217   5.346
 3560POPC   GL148241  34.576  27.376   5.755
 3560POPC   GL248242  34.350  27.562   5.883
 3560POPC   C1A48243  34.765  27.638   6.141
 3560POPC   D2A48244  34.732  27.929   6.530
 3560POPC   C3A48245  34.693  27.769   6.992
 3560POPC   C4A48246  34.918  27.489   7.269
 3560POPC   C1B48247  34.259  27.683   6.261
 3560POPC   C2B48248  34.354  27.597   6.654
 3560POPC   C3B48249  34.303  27.381   6.995
 3560POPC   C4B48250  34.220  27.718   7.249
 3561POPC   NC348251  39.505  43.042   5.357
 3561POPC   PO448252  39.053  42.685   5.544
 3561POPC   GL148253  39.418  42.813   5.799
 3561POPC   GL248254  39.498  43.197   5.831
 3561POPC   C1A48255  39.496  42.846   6.207
 3561POPC   D2A48256  39.271  42.961   6.570
 3561POPC   C3A48257  39.437  42.944   6.966
 3561POPC   C4A48258  39.158  42.881   7.282
 3561POPC   C1B48259  39.347  43.448   6.163
 3561POPC   C2B48260  39.244  43.484   6.597
 3561POPC   C3B48261  38.983  43.281   6.905
 3561POPC   C4B48262  38.779  43.490   7.243
 3562POPC   NC348263   0.379  12.422   5.408
 3562POPC   PO448264   0.466  11.722   5.343
 3562POPC   GL148265   0.459  11.909   5.751
 3562POPC   GL248266   0.146  12.087   5.719
 3562POPC   C1A48267   0.618  11.993   6.175
 3562POPC   D2A48268   0.585  12.366   6.378
 3562POPC   C3A48269   0.591  12.328   6.809
 3562POPC   C4A48270   0.717  12.188   7.200
 3562POPC   C1B48271   0.109  12.003   6.154
 3562POPC   C2B48272   0.255  11.988   6.584
 3562POPC   C3B48273   0.294  11.884   7.019
 3562POPC   C4B48274   0.250  12.100   7.404
 3563POPC   NC348275  21.778  29.441   5.235
 3563POPC   PO448276  22.412  29.514   5.387
 3563POPC   GL148277  22.086  29.372   5.689
 3563POPC   GL248278  22.132  29.011   5.760
 3563POPC   C1A48279  22.111  29.377   6.160
 3563POPC   D2A48280  22.011  29.210   6.589
 3563POPC   C3A48281  22.269  29.392   6.929
 3563POPC   C4A48282  22.417  29.249   7.334
 3563POPC   C1B48283  22.144  28.865   6.210
 3563POPC   C2B48284  22.064  28.679   6.635
 3563POPC   C3B48285  22.146  28.915   7.045
 3563POPC   C4B48286  22.040  28.932   7.519
 3564POPC   NC348287  19.741  13.745   5.301
 3564POPC   PO448288  19.328  13.132   5.424
 3564POPC   GL148289  19.562  13.499   5.713
 3564POPC   GL248290  19.968  13.540   5.753
 3564POPC   C1A48291  19.716  13.451   6.158
 3564POPC   D2A48292  19.794  13.172   6.515
 3564POPC   C3A48293  19.760  13.438   6.875
 3564POPC   C4A48294  19.879  13.472   7.291
 3564POPC   C1B48295  20.138  13.751   6.179
 3564POPC   C2B48296  20.032  13.931   6.587
 3564POPC   C3B48297  20.138  13.848   7.014
 3564POPC   C4B48298  19.992  14.053   7.394
 3565POPC   NC348299  40.136  13.004   5.490
 3565POPC   PO448300  39.482  12.849   5.536
 3565POPC   GL148301  39.780  12.665   5.814
 3565POPC   GL248302  39.839  12.989   5.901
 3565POPC   C1A48303  39.967  12.642   6.260
 3565POPC   D2A48304  40.057  12.482   6.679
 3565POPC   C3A48305  39.942  12.707   7.047
 3565POPC   C4A48306  40.015  12.560   7.456
 3565POPC   C1B48307  40.099  13.135   6.242
 3565POPC   C2B48308  39.995  13.174   6.680
 3565POPC   C3B48309  40.182  13.154   7.096
 3565POPC   C4B48310  40.377  12.972   7.488
 3566POPC   NC348311  11.480  42.617   5.445
 3566POPC   PO448312  11.556  41.926   5.445
 3566POPC   GL148313  11.481  42.211   5.783
 3566POPC   GL248314  11.228  42.014   5.941
 3566POPC   C1A48315  11.489  42.391   6.204
 3566POPC   D2A48316  11.272  42.184   6.555
 3566POPC   C3A48317  11.358  42.408   6.936
 3566POPC   C4A48318  11.272  42.604   7.347
 3566POPC   C1B48319  10.926  41.872   6.239
 3566POPC   C2B48320  10.717  41.988   6.600
 3566POPC   C3B48321  10.924  42.142   6.951
 3566POPC   C4B48322  11.028  41.952   7.338
 3567POPC   NC348323  40.283   2.604   5.592
 3567POPC   PO448324  40.122   3.222   5.528
 3567POPC   GL148325  40.012   2.952   5.863
 3567POPC   GL248326  39.808   2.619   5.794
 3567POPC   C1A48327  40.253   2.963   6.232
 3567POPC   D2A48328  40.148   2.792   6.605
 3567POPC   C3A48329  40.081   3.071   6.893
 3567POPC   C4A48330  40.133   2.911   7.274
 3567POPC   C1B48331  39.955   2.526   6.208
 3567POPC   C2B48332  39.753   2.444   6.608
 3567POPC   C3B48333  39.878   2.539   7.020
 3567POPC   C4B48334  40.281   2.428   7.187
 3568POPC   NC348335   3.039  25.679   5.581
 3568POPC   PO448336   3.581  25.275   5.380
 3568POPC   GL148337   3.532  25.365   5.809
 3568POPC   GL248338   3.512  25.028   5.906
 3568POPC   C1A48339   3.777  25.391   6.214
 3568POPC   D2A48340   3.940  25.569   6.601
 3568POPC   C3A48341   3.791  25.347   6.952
 3568POPC   C4A48342   3.656  25.475   7.346
 3568POPC   C1B48343   3.337  25.081   6.331
 3568POPC   C2B48344   3.313  24.988   6.786
 3568POPC   C3B48345   3.463  24.994   7.222
 3568POPC   C4B48346   3.367  25.053   7.670
 3569POPC   NC348347  32.480  40.179   5.429
 3569POPC   PO448348  31.888  40.013   5.348
 3569POPC   GL148349  32.108  39.976   5.756
 3569POPC   GL248350  32.397  39.734   5.686
 3569POPC   C1A48351  32.156  40.232   6.159
 3569POPC   D2A48352  32.169  40.471   6.562
 3569POPC   C3A48353  32.331  40.133   6.801
 3569POPC   C4A48354  32.122  39.845   7.104
 3569POPC   C1B48355  32.578  39.870   6.070
 3569POPC   C2B48356  32.511  39.740   6.492
 3569POPC   C3B48357  32.606  39.719   6.915
 3569POPC   C4B48358  32.581  40.025   7.252
 3570POPC   NC348359   3.459  27.968   5.393
 3570POPC   PO448360   2.769  28.104   5.445
 3570POPC   GL148361   2.765  28.295   5.831
 3570POPC   GL248362   3.095  28.147   5.931
 3570POPC   C1A48363   2.702  28.247   6.270
 3570POPC   D2A48364   2.910  28.100   6.651
 3570POPC   C3A48365   2.731  28.304   6.966
 3570POPC   C4A48366   2.495  28.267   7.299
 3570POPC   C1B48367   3.122  28.541   6.151
 3570POPC   C2B48368   2.977  28.600   6.553
 3570POPC   C3B48369   3.178  28.554   6.951
 3570POPC   C4B48370   3.378  28.709   7.317
 3571POPC   NC348371  28.673  12.284   5.544
 3571POPC   PO448372  28.240  12.818   5.383
 3571POPC   GL148373  28.423  12.825   5.750
 3571POPC   GL248374  28.276  12.546   5.845
 3571POPC   C1A48375  28.344  12.975   6.166
 3571POPC   D2A48376  28.406  13.263   6.527
 3571POPC   C3A48377  28.467  13.023   6.894
 3571POPC   C4A48378  28.311  13.079   7.298
 3571POPC   C1B48379  28.405  12.458   6.275
 3571POPC   C2B48380  28.516  12.486   6.697
 3571POPC   C3B48381  28.661  12.472   7.112
 3571POPC   C4B48382  28.626  12.732   7.491
 3572POPC   NC348383  10.343  33.260   5.300
 3572POPC   PO448384  10.880  33.512   5.475
 3572POPC   GL148385  10.683  33.178   5.752
 3572POPC   GL248386  10.398  32.931   5.691
 3572POPC   C1A48387  10.715  32.907   6.135
 3572POPC   D2A48388  10.563  33.018   6.537
 3572POPC   C3A48389  10.728  32.807   6.878
 3572POPC   C4A48390  10.838  32.999   7.229
 3572POPC   C1B48391  10.218  32.946   6.100
 3572POPC   C2B48392  10.073  32.862   6.486
 3572POPC   C3B48393  10.187  32.857   6.875
 3572POPC   C4B48394  10.354  32.928   7.266
 3573POPC   NC348395   4.733  10.094   5.384
 3573POPC   PO448396   5.372   9.944   5.466
 3573POPC   GL148397   5.062   9.938   5.798
 3573POPC   GL248398   4.759   9.725   5.828
 3573POPC   C1A48399   4.903  10.053   6.203
 3573POPC   D2A48400   5.105  10.013   6.597
 3573POPC   C3A48401   4.985   9.887   7.021
 3573POPC   C4A48402   5.272  10.094   7.288
 3573POPC   C1B48403   5.013   9.553   6.227
 3573POPC   C2B48404   5.119   9.496   6.708
 3573POPC   C3B48405   5.139   9.454   7.204
 3573POPC   C4B48406   5.123   9.329   7.679
 3574POPC   NC348407  43.763  32.560   5.412
 3574POPC   PO448408  44.283  32.092   5.299
 3574POPC   GL148409  43.974  31.920   5.653
 3574POPC   GL248410  43.686  32.119   5.742
 3574POPC   C1A48411  44.008  31.930   6.132
 3574POPC   D2A48412  43.969  32.185   6.545
 3574POPC   C3A48413  43.726  32.021   6.879
 3574POPC   C4A48414  43.768  32.111   7.294
 3574POPC   C1B48415  43.736  32.371   6.126
 3574POPC   C2B48416  43.729  32.647   6.523
 3574POPC   C3B48417  43.711  32.521   6.957
 3574POPC   C4B48418  43.531  32.586   7.354
 3575POPC   NC348419   5.869  26.762   5.347
 3575POPC   PO448420   6.370  26.534   5.673
 3575POPC   GL148421   5.913  26.657   5.858
 3575POPC   GL248422   5.799  27.033   5.802
 3575POPC   C1A48423   5.786  26.801   6.299
 3575POPC   D2A48424   5.520  26.802   6.706
 3575POPC   C3A48425   5.748  26.766   7.106
 3575POPC   C4A48426   6.027  26.440   7.261
 3575POPC   C1B48427   5.490  27.210   6.119
 3575POPC   C2B48428   5.374  27.264   6.573
 3575POPC   C3B48429   5.433  27.179   7.050
 3575POPC   C4B48430   5.554  27.076   7.496
 3576POPC   NC348431  13.348  18.544   5.462
 3576POPC   PO448432  13.739  17.969   5.373
 3576POPC   GL148433  13.618  18.110   5.774
 3576POPC   GL248434  13.291  17.984   5.714
 3576POPC   C1A48435  13.755  18.324   6.182
 3576POPC   D2A48436  13.637  18.479   6.595
 3576POPC   C3A48437  13.735  18.230   6.968
 3576POPC   C4A48438  13.964  17.852   7.128
 3576POPC   C1B48439  13.263  18.155   6.151
 3576POPC   C2B48440  13.206  18.177   6.611
 3576POPC   C3B48441  13.180  18.564   6.830
 3576POPC   C4B48442  13.184  18.701   7.236
 3577POPC   NC348443  40.008   0.069   5.503
 3577POPC   PO448444  39.531   0.415   5.158
 3577POPC   GL148445  39.699   0.459   5.733
 3577POPC   GL248446  39.952   0.738   5.837
 3577POPC   C1A48447  39.784   0.420   6.195
 3577POPC   D2A48448  39.798   0.631   6.591
 3577POPC   C3A48449  40.023   0.487   6.963
 3577POPC   C4A48450  39.840   0.435   7.366
 3577POPC   C1B48451  40.242   0.762   6.163
 3577POPC   C2B48452  40.322   0.744   6.578
 3577POPC   C3B48453  40.336   0.907   6.999
 3577POPC   C4B48454  40.282   0.693   7.401
 3578POPC   NC348455   3.222  31.706   5.396
 3578POPC   PO448456   3.866  31.486   5.397
 3578POPC   GL148457   3.548  31.408   5.721
 3578POPC   GL248458   3.754  31.155   5.877
 3578POPC   C1A48459   3.416  31.593   6.109
 3578POPC   D2A48460   3.625  31.783   6.481
 3578POPC   C3A48461   3.609  31.545   6.868
 3578POPC   C4A48462   3.823  31.659   7.239
 3578POPC   C1B48463   3.832  31.318   6.285
 3578POPC   C2B48464   3.942  31.116   6.658
 3578POPC   C3B48465   3.833  30.972   7.056
 3578POPC   C4B48466   3.594  31.217   7.270
 3579POPC   NC348467  19.989  33.797   5.422
 3579POPC   PO448468  19.495  34.216   5.423
 3579POPC   GL148469  19.654  33.970   5.803
 3579POPC   GL248470  20.002  33.797   5.924
 3579POPC   C1A48471  19.599  33.867   6.231
 3579POPC   D2A48472  19.923  33.653   6.421
 3579POPC   C3A48473  19.879  33.681   6.844
 3579POPC   C4A48474  19.654  33.926   7.084
 3579POPC   C1B48475  20.044  34.138   6.195
 3579POPC   C2B48476  19.930  34.164   6.617
 3579POPC   C3B48477  20.122  34.093   7.004
 3579POPC   C4B48478  20.255  33.659   7.174
 3580POPC   NC348479  27.574  17.101   5.425
 3580POPC   PO448480  27.458  17.707   5.619
 3580POPC   GL148481  27.710  17.454   5.913
 3580POPC   GL248482  27.689  17.088   5.905
 3580POPC   C1A48483  27.703  17.341   6.358
 3580POPC   D2A48484  27.538  17.494   6.731
 3580POPC   C3A48485  27.698  17.437   7.136
 3580POPC   C4A48486  27.508  17.571   7.497
 3580POPC   C1B48487  27.303  17.145   6.113
 3580POPC   C2B48488  27.219  17.125   6.553
 3580POPC   C3B48489  27.423  17.046   6.963
 3580POPC   C4B48490  27.455  17.059   7.417
 3581POPC   NC348491   3.330   9.298   5.074
 3581POPC   PO448492   3.737   9.129   5.601
 3581POPC   GL148493   3.645   9.145   5.986
 3581POPC   GL248494   3.484   8.855   5.996
 3581POPC   C1A48495   3.635   9.157   6.433
 3581POPC   D2A48496   3.796   9.280   6.807
 3581POPC   C3A48497   3.837   8.941   7.107
 3581POPC   C4A48498   3.505   8.605   7.055
 3581POPC   C1B48499   3.179   9.073   6.269
 3581POPC   C2B48500   3.147   8.956   6.716
 3581POPC   C3B48501   3.363   9.144   7.067
 3581POPC   C4B48502   3.275   9.298   7.485
 3582POPC   NC348503  37.847   8.732   5.336
 3582POPC   PO448504  37.883   9.337   5.532
 3582POPC   GL148505  37.665   9.145   5.847
 3582POPC   GL248506  37.642   8.782   5.891
 3582POPC   C1A48507  37.610   9.280   6.273
 3582POPC   D2A48508  37.583   9.186   6.699
 3582POPC   C3A48509  37.928   9.067   6.926
 3582POPC   C4A48510  37.959   9.212   7.328
 3582POPC   C1B48511  37.648   8.777   6.365
 3582POPC   C2B48512  37.480   8.696   6.776
 3582POPC   C3B48513  37.528   8.877   7.181
 3582POPC   C4B48514  37.729   8.842   7.561
 3583POPC   NC348515   3.507  18.832   5.501
 3583POPC   PO448516   3.706  19.509   5.415
 3583POPC   GL148517   3.627  19.272   5.808
 3583POPC   GL248518   3.268  19.158   5.864
 3583POPC   C1A48519   3.781  19.012   6.184
 3583POPC   D2A48520   3.959  19.035   6.634
 3583POPC   C3A48521   3.765  18.750   6.955
 3583POPC   C4A48522   3.396  18.656   7.216
 3583POPC   C1B48523   3.410  19.359   6.277
 3583POPC   C2B48524   3.460  19.162   6.712
 3583POPC   C3B48525   3.564  19.168   7.146
 3583POPC   C4B48526   3.441  19.342   7.561
 3584POPC   NC348527  31.604  24.969   5.346
 3584POPC   PO448528  31.355  25.601   5.384
 3584POPC   GL148529  31.667  25.432   5.715
 3584POPC   GL248530  31.500  25.133   5.846
 3584POPC   C1A48531  31.783  25.356   6.195
 3584POPC   D2A48532  31.508  25.129   6.488
 3584POPC   C3A48533  31.655  25.096   6.909
 3584POPC   C4A48534  31.528  25.370   7.208
 3584POPC   C1B48535  31.316  25.519   6.093
 3584POPC   C2B48536  31.447  25.655   6.524
 3584POPC   C3B48537  31.204  25.623   6.909
 3584POPC   C4B48538  31.006  25.767   7.312
 3585POPC   NC348539   8.475  26.890   5.447
 3585POPC   PO448540   9.048  26.808   5.355
 3585POPC   GL148541   8.966  26.743   5.787
 3585POPC   GL248542   9.082  27.074   5.860
 3585POPC   C1A48543   8.888  26.779   6.236
 3585POPC   D2A48544   9.039  26.616   6.602
 3585POPC   C3A48545   8.917  26.747   6.979
 3585POPC   C4A48546   9.009  26.543   7.329
 3585POPC   C1B48547   9.349  27.004   6.245
 3585POPC   C2B48548   9.538  26.725   6.567
 3585POPC   C3B48549   9.428  26.827   6.997
 3585POPC   C4B48550   9.178  27.036   7.323
 3586POPC   NC348551  32.312  41.121   5.138
 3586POPC   PO448552  32.269  40.604   5.600
 3586POPC   GL148553  32.123  40.719   5.928
 3586POPC   GL248554  32.375  40.934   6.039
 3586POPC   C1A48555  31.863  40.774   6.228
 3586POPC   D2A48556  31.833  41.046   6.545
 3586POPC   C3A48557  32.013  40.856   6.897
 3586POPC   C4A48558  31.847  40.843   7.298
 3586POPC   C1B48559  32.540  40.582   6.228
 3586POPC   C2B48560  32.705  40.486   6.628
 3586POPC   C3B48561  32.610  40.491   7.060
 3586POPC   C4B48562  32.355  40.737   7.289
 3587POPC   NC348563  33.862  41.012   5.281
 3587POPC   PO448564  33.403  40.656   5.561
 3587POPC   GL148565  33.617  40.802   5.905
 3587POPC   GL248566  33.986  40.804   5.891
 3587POPC   C1A48567  33.710  40.567   6.281
 3587POPC   D2A48568  33.802  40.666   6.691
 3587POPC   C3A48569  33.529  40.574   7.057
 3587POPC   C4A48570  33.494  40.844   7.440
 3587POPC   C1B48571  34.213  40.801   6.280
 3587POPC   C2B48572  34.187  41.020   6.687
 3587POPC   C3B48573  34.064  40.815   7.092
 3587POPC   C4B48574  33.983  40.335   7.139
 3588POPC   NC348575  21.535  10.202   5.339
 3588POPC   PO448576  21.127  10.648   5.349
 3588POPC   GL148577  21.319  10.560   5.780
 3588POPC   GL248578  21.667  10.552   5.802
 3588POPC   C1A48579  21.347  10.520   6.254
 3588POPC   D2A48580  21.159  10.754   6.648
 3588POPC   C3A48581  21.196  10.582   7.081
 3588POPC   C4A48582  21.482  10.242   7.191
 3588POPC   C1B48583  21.800  10.752   6.211
 3588POPC   C2B48584  21.680  10.887   6.628
 3588POPC   C3B48585  21.683  10.723   7.040
 3588POPC   C4B48586  21.969  10.493   7.303
 3589POPC   NC348587  39.416  42.332   5.597
 3589POPC   PO448588  38.969  42.043   5.163
 3589POPC   GL148589  38.921  42.181   5.651
 3589POPC   GL248590  39.120  41.952   5.847
 3589POPC   C1A48591  39.020  42.361   6.134
 3589POPC   D2A48592  39.337  42.432   6.503
 3589POPC   C3A48593  39.152  42.518   6.904
 3589POPC   C4A48594  39.023  42.317   7.261
 3589POPC   C1B48595  39.426  42.030   6.190
 3589POPC   C2B48596  39.462  41.887   6.589
 3589POPC   C3B48597  39.310  42.009   6.976
 3589POPC   C4B48598  39.573  42.070   7.340
 3590POPC   NC348599  18.176  12.721   5.686
 3590POPC   PO448600  18.586  13.059   5.301
 3590POPC   GL148601  18.472  13.118   5.793
 3590POPC   GL248602  18.104  13.113   5.999
 3590POPC   C1A48603  18.508  12.957   6.250
 3590POPC   D2A48604  18.482  13.127   6.678
 3590POPC   C3A48605  18.433  12.938   7.078
 3590POPC   C4A48606  18.717  12.823   7.425
 3590POPC   C1B48607  17.950  12.777   6.298
 3590POPC   C2B48608  17.893  12.371   6.537
 3590POPC   C3B48609  18.078  12.357   6.965
 3590POPC   C4B48610  18.210  12.590   7.369
 3591POPC   NC348611  12.656  33.897   5.388
 3591POPC   PO448612  13.197  33.470   5.334
 3591POPC   GL148613  13.064  33.746   5.712
 3591POPC   GL248614  12.718  33.665   5.832
 3591POPC   C1A48615  12.989  34.013   6.124
 3591POPC   D2A48616  13.139  33.853   6.530
 3591POPC   C3A48617  12.916  33.882   6.898
 3591POPC   C4A48618  13.115  33.962   7.249
 3591POPC   C1B48619  12.950  33.498   6.172
 3591POPC   C2B48620  12.804  33.466   6.597
 3591POPC   C3B48621  13.019  33.386   6.975
 3591POPC   C4B48622  12.850  33.467   7.344
 3592POPC   NC348623   0.450  24.960   5.434
 3592POPC   PO448624   0.761  25.520   5.542
 3592POPC   GL148625   0.591  25.223   5.845
 3592POPC   GL248626   0.776  24.875   5.799
 3592POPC   C1A48627   0.397  25.231   6.270
 3592POPC   D2A48628   0.283  25.134   6.712
 3592POPC   C3A48629   0.273  25.339   7.125
 3592POPC   C4A48630   0.099  25.602   7.462
 3592POPC   C1B48631   0.594  24.771   6.172
 3592POPC   C2B48632   0.710  24.875   6.585
 3592POPC   C3B48633   0.869  24.760   6.986
 3592POPC   C4B48634   0.598  24.922   7.292
 3593POPC   NC348635  42.047   4.671   5.375
 3593POPC   PO448636  42.570   4.300   5.386
 3593POPC   GL148637  42.362   4.222   5.808
 3593POPC   GL248638  41.995   4.176   5.766
 3593POPC   C1A48639  42.562   4.168   6.243
 3593POPC   D2A48640  42.638   4.439   6.619
 3593POPC   C3A48641  42.414   4.331   7.016
 3593POPC   C4A48642  42.534   4.310   7.473
 3593POPC   C1B48643  42.044   3.962   6.173
 3593POPC   C2B48644  42.182   4.053   6.594
 3593POPC   C3B48645  41.986   3.996   6.977
 3593POPC   C4B48646  42.066   4.090   7.377
 3594POPC   NC348647  26.177   7.895   5.086
 3594POPC   PO448648  26.047   7.282   5.484
 3594POPC   GL148649  25.912   7.390   5.877
 3594POPC   GL248650  25.681   7.690   5.790
 3594POPC   C1A48651  26.159   7.492   6.269
 3594POPC   D2A48652  26.009   7.409   6.659
 3594POPC   C3A48653  26.092   7.606   7.053
 3594POPC   C4A48654  26.039   7.320   7.409
 3594POPC   C1B48655  25.702   7.654   6.246
 3594POPC   C2B48656  25.499   7.458   6.611
 3594POPC   C3B48657  25.643   7.340   7.027
 3594POPC   C4B48658  25.620   7.570   7.408
 3595POPC   NC348659  17.091   1.571   5.281
 3595POPC   PO448660  17.626   1.130   5.427
 3595POPC   GL148661  17.604   1.285   5.869
 3595POPC   GL248662  17.487   0.975   5.907
 3595POPC   C1A48663  17.481   1.519   6.331
 3595POPC   D2A48664  17.360   1.583   6.819
 3595POPC   C3A48665  17.467   1.216   7.103
 3595POPC   C4A48666  17.739   0.833   6.949
 3595POPC   C1B48667  17.233   1.093   6.206
 3595POPC   C2B48668  17.268   1.132   6.630
 3595POPC   C3B48669  17.020   1.006   6.955
 3595POPC   C4B48670  17.025   1.079   7.395
 3596POPC   NC348671  39.705  41.374   5.591
 3596POPC   PO448672  40.263  41.739   5.445
 3596POPC   GL148673  40.069  41.633   5.843
 3596POPC   GL248674  40.096  41.282   5.925
 3596POPC   C1A48675  39.879  41.710   6.256
 3596POPC   D2A48676  39.975  41.747   6.700
 3596POPC   C3A48677  40.077  41.495   7.075
 3596POPC   C4A48678  39.956  41.736   7.428
 3596POPC   C1B48679  39.836  41.193   6.233
 3596POPC   C2B48680  39.994  41.205   6.643
 3596POPC   C3B48681  39.763  41.101   7.001
 3596POPC   C4B48682  39.680  41.278   7.413
 3597POPC   NC348683  10.177  21.671   5.513
 3597POPC   PO448684   9.594  21.394   5.418
 3597POPC   GL148685   9.767  21.477   5.804
 3597POPC   GL248686   9.477  21.651   5.885
 3597POPC   C1A48687   9.968  21.405   6.214
 3597POPC   D2A48688   9.780  21.467   6.608
 3597POPC   C3A48689   9.830  21.217   6.916
 3597POPC   C4A48690   9.887  21.362   7.324
 3597POPC   C1B48691   9.550  21.754   6.258
 3597POPC   C2B48692   9.337  21.708   6.655
 3597POPC   C3B48693   9.540  21.775   7.034
 3597POPC   C4B48694   9.521  21.692   7.448
 3598POPC   NC348695   3.099  34.541   5.303
 3598POPC   PO448696   3.720  34.434   5.534
 3598POPC   GL148697   3.577  34.649   5.828
 3598POPC   GL248698   3.227  34.584   5.818
 3598POPC   C1A48699   3.520  34.595   6.248
 3598POPC   D2A48700   3.447  34.382   6.589
 3598POPC   C3A48701   3.766  34.522   6.838
 3598POPC   C4A48702   3.564  34.532   7.191
 3598POPC   C1B48703   3.073  34.331   6.190
 3598POPC   C2B48704   2.958  34.143   6.586
 3598POPC   C3B48705   3.130  34.283   6.999
 3598POPC   C4B48706   3.227  34.187   7.425
 3599POPC   NC348707  12.905  27.953   5.407
 3599POPC   PO448708  13.144  28.670   5.201
 3599POPC   GL148709  13.091  28.419   5.641
 3599POPC   GL248710  12.762  28.281   5.795
 3599POPC   C1A48711  13.136  28.472   6.121
 3599POPC   D2A48712  13.116  28.368   6.597
 3599POPC   C3A48713  12.932  28.520   7.002
 3599POPC   C4A48714  12.698  28.245   7.299
 3599POPC   C1B48715  12.676  28.249   6.282
 3599POPC   C2B48716  12.525  28.326   6.738
 3599POPC   C3B48717  12.357  28.556   7.111
 3599POPC   C4B48718  12.348  28.536   7.586
 3600POPC   NC348719   9.093  31.608   5.374
 3600POPC   PO448720   8.744  31.080   5.351
 3600POPC   GL148721   8.774  31.216   5.787
 3600POPC   GL248722   8.837  31.601   5.835
 3600POPC   C1A48723   8.895  31.261   6.228
 3600POPC   D2A48724   8.933  31.466   6.619
 3600POPC   C3A48725   8.938  31.230   6.995
 3600POPC   C4A48726   8.790  31.404   7.361
 3600POPC   C1B48727   9.150  31.713   6.185
 3600POPC   C2B48728   9.284  31.825   6.643
 3600POPC   C3B48729   9.086  31.713   7.065
 3600POPC   C4B48730   9.143  31.721   7.539
 3601POPC   NC348731  36.403  32.643   5.534
 3601POPC   PO448732  36.905  32.989   5.255
 3601POPC   GL148733  36.854  33.047   5.731
 3601POPC   GL248734  36.482  33.107   5.788
 3601POPC   C1A48735  37.056  32.887   6.150
 3601POPC   D2A48736  36.980  32.690   6.543
 3601POPC   C3A48737  37.036  32.972   6.894
 3601POPC   C4A48738  36.989  32.843   7.266
 3601POPC   C1B48739  36.569  32.999   6.205
 3601POPC   C2B48740  36.591  33.014   6.651
 3601POPC   C3B48741  36.547  33.041   7.096
 3601POPC   C4B48742  36.620  33.446   7.230
 3602POPC   NC348743  38.217   9.642   5.451
 3602POPC   PO448744  38.854   9.556   5.634
 3602POPC   GL148745  38.497   9.634   5.911
 3602POPC   GL248746  38.207   9.902   5.883
 3602POPC   C1A48747  38.460   9.750   6.338
 3602POPC   D2A48748  38.572   9.601   6.716
 3602POPC   C3A48749  38.570   9.860   7.064
 3602POPC   C4A48750  38.425   9.702   7.482
 3602POPC   C1B48751  38.033   9.556   6.146
 3602POPC   C2B48752  38.072   9.416   6.576
 3602POPC   C3B48753  38.169   9.545   7.013
 3602POPC   C4B48754  37.926   9.715   7.356
 3603POPC   NC348755  34.866  18.781   5.541
 3603POPC   PO448756  34.282  19.098   5.503
 3603POPC   GL148757  34.459  19.233   5.873
 3603POPC   GL248758  34.817  19.129   5.914
 3603POPC   C1A48759  34.413  18.969   6.208
 3603POPC   D2A48760  34.670  18.891   6.542
 3603POPC   C3A48761  34.439  18.916   6.899
 3603POPC   C4A48762  34.451  19.042   7.288
 3603POPC   C1B48763  34.732  19.350   6.307
 3603POPC   C2B48764  34.737  19.335   6.773
 3603POPC   C3B48765  34.917  19.020   7.054
 3603POPC   C4B48766  34.978  19.296   7.417
 3604POPC   NC348767  23.118  14.183   5.507
 3604POPC   PO448768  22.656  13.623   5.515
 3604POPC   GL148769  22.990  13.784   5.834
 3604POPC   GL248770  23.254  13.536   5.920
 3604POPC   C1A48771  23.139  13.861   6.278
 3604POPC   D2A48772  22.965  13.702   6.658
 3604POPC   C3A48773  23.116  13.867   7.022
 3604POPC   C4A48774  22.794  13.883   7.313
 3604POPC   C1B48775  23.050  13.339   6.286
 3604POPC   C2B48776  22.976  13.164   6.714
 3604POPC   C3B48777  22.999  13.387   7.118
 3604POPC   C4B48778  23.385  13.533   7.296
 3605POPC   NC348779  11.487  35.640   5.323
 3605POPC   PO448780  10.904  35.432   5.339
 3605POPC   GL148781  11.128  35.379   5.725
 3605POPC   GL248782  11.343  35.639   5.850
 3605POPC   C1A48783  11.263  35.198   6.142
 3605POPC   D2A48784  11.464  35.196   6.558
 3605POPC   C3A48785  11.226  35.415   6.865
 3605POPC   C4A48786  11.151  35.406   7.296
 3605POPC   C1B48787  11.661  35.539   6.184
 3605POPC   C2B48788  11.631  35.698   6.616
 3605POPC   C3B48789  11.687  35.539   7.038
 3605POPC   C4B48790  11.640  35.598   7.481
 3606POPC   NC348791   2.942  41.498   5.255
 3606POPC   PO448792   3.637  41.515   5.409
 3606POPC   GL148793   3.489  41.464   5.814
 3606POPC   GL248794   3.179  41.626   5.845
 3606POPC   C1A48795   3.488  41.667   6.235
 3606POPC   D2A48796   3.334  41.516   6.614
 3606POPC   C3A48797   3.534  41.661   6.954
 3606POPC   C4A48798   3.515  41.414   7.310
 3606POPC   C1B48799   2.979  41.771   6.231
 3606POPC   C2B48800   2.886  41.797   6.668
 3606POPC   C3B48801   3.033  41.572   7.039
 3606POPC   C4B48802   3.152  41.743   7.435
 3607POPC   NC348803  22.073   1.385   5.482
 3607POPC   PO448804  22.484   0.836   5.572
 3607POPC   GL148805  22.264   1.133   5.881
 3607POPC   GL248806  22.404   1.479   5.902
 3607POPC   C1A48807  21.943   1.378   6.151
 3607POPC   D2A48808  21.880   1.505   6.602
 3607POPC   C3A48809  22.030   1.236   6.976
 3607POPC   C4A48810  22.099   1.266   7.436
 3607POPC   C1B48811  22.435   1.303   6.337
 3607POPC   C2B48812  22.484   1.117   6.752
 3607POPC   C3B48813  22.593   1.302   7.138
 3607POPC   C4B48814  22.846   1.131   7.465
 3608POPC   NC348815   6.172  22.683   5.187
 3608POPC   PO448816   5.782  22.104   5.342
 3608POPC   GL148817   5.727  22.101   5.803
 3608POPC   GL248818   5.867  22.413   5.934
 3608POPC   C1A48819   5.830  21.995   6.258
 3608POPC   D2A48820   6.078  21.951   6.648
 3608POPC   C3A48821   5.840  22.060   7.024
 3608POPC   C4A48822   5.652  22.186   7.397
 3608POPC   C1B48823   6.205  22.361   6.253
 3608POPC   C2B48824   6.430  22.356   6.644
 3608POPC   C3B48825   6.269  22.338   7.060
 3608POPC   C4B48826   6.066  22.466   7.464
 3609POPC   NC348827  10.980  34.960   5.403
 3609POPC   PO448828  11.404  34.447   5.080
 3609POPC   GL148829  11.345  34.337   5.631
 3609POPC   GL248830  11.019  34.364   5.890
 3609POPC   C1A48831  11.423  34.445   6.147
 3609POPC   D2A48832  11.282  34.467   6.600
 3609POPC   C3A48833  11.216  34.846   6.885
 3609POPC   C4A48834  10.995  34.884   7.272
 3609POPC   C1B48835  10.804  34.373   6.279
 3609POPC   C2B48836  10.773  34.292   6.726
 3609POPC   C3B48837  11.071  34.357   7.076
 3609POPC   C4B48838  11.037  34.222   7.499
 3610POPC   NC348839   1.378  43.653   5.358
 3610POPC   PO448840   0.902  44.063   5.003
 3610POPC   GL148841   0.908  43.914   5.550
 3610POPC   GL248842   0.892  43.689   5.824
 3610POPC   C1A48843   1.054  44.119   6.022
 3610POPC   D2A48844   0.974  44.045   6.491
 3610POPC   C3A48845   1.113  44.052   6.956
 3610POPC   C4A48846   0.918  43.962   7.383
 3610POPC   C1B48847   1.173  43.653   6.186
 3610POPC   C2B48848   1.356  43.738   6.607
 3610POPC   C3B48849   1.391  43.627   7.049
 3610POPC   C4B48850   1.660  43.352   7.226
 3611POPC   NC348851  27.075  20.116   5.543
 3611POPC   PO448852  27.195  19.496   5.439
 3611POPC   GL148853  26.842  19.609   5.743
 3611POPC   GL248854  26.535  19.847   5.697
 3611POPC   C1A48855  26.711  19.489   6.172
 3611POPC   D2A48856  26.516  19.694   6.529
 3611POPC   C3A48857  26.719  19.634   6.919
 3611POPC   C4A48858  26.923  19.777   7.284
 3611POPC   C1B48859  26.712  20.005   6.103
 3611POPC   C2B48860  26.985  19.922   6.447
 3611POPC   C3B48861  26.991  20.064   6.876
 3611POPC   C4B48862  26.551  20.088   7.140
 3612POPC   NC348863  37.791  43.303   5.530
 3612POPC   PO448864  37.398  42.798   5.407
 3612POPC   GL148865  37.373  43.091   5.791
 3612POPC   GL248866  37.695  43.021   5.965
 3612POPC   C1A48867  37.486  43.451   6.117
 3612POPC   D2A48868  37.607  43.469   6.553
 3612POPC   C3A48869  37.500  43.554   6.996
 3612POPC   C4A48870  37.556  43.222   7.305
 3612POPC   C1B48871  37.484  43.003   6.388
 3612POPC   C2B48872  37.614  43.007   6.836
 3612POPC   C3B48873  37.951  42.905   7.174
 3612POPC   C4B48874  37.913  42.800   7.630
 3613POPC   NC348875  26.242  22.357   5.536
 3613POPC   PO448876  25.684  22.445   5.154
 3613POPC   GL148877  25.736  22.239   5.669
 3613POPC   GL248878  25.967  22.391   5.972
 3613POPC   C1A48879  25.834  21.938   6.098
 3613POPC   D2A48880  26.021  22.059   6.537
 3613POPC   C3A48881  26.337  21.869   6.870
 3613POPC   C4A48882  26.272  21.923   7.337
 3613POPC   C1B48883  26.363  22.232   6.184
 3613POPC   C2B48884  26.455  22.321   6.608
 3613POPC   C3B48885  26.338  22.356   7.033
 3613POPC   C4B48886  26.614  22.296   7.355
 3614POPC   NC348887  32.010  37.412   5.377
 3614POPC   PO448888  32.461  37.847   5.460
 3614POPC   GL148889  32.434  37.631   5.819
 3614POPC   GL248890  32.094  37.568   5.849
 3614POPC   C1A48891  32.386  37.801   6.211
 3614POPC   D2A48892  32.480  37.642   6.576
 3614POPC   C3A48893  32.305  37.802   6.928
 3614POPC   C4A48894  32.204  38.047   7.252
 3614POPC   C1B48895  31.839  37.389   6.149
 3614POPC   C2B48896  31.910  37.166   6.512
 3614POPC   C3B48897  31.821  37.341   6.864
 3614POPC   C4B48898  31.919  37.575   7.183
 3615POPC   NC348899  13.955  44.682   5.543
 3615POPC   PO448900  14.550  44.647   5.220
 3615POPC   GL148901  14.496  44.693   5.694
 3615POPC   GL248902  14.593  44.348   5.697
 3615POPC   C1A48903  14.504  44.801   6.169
 3615POPC   D2A48904  14.242  44.842   6.556
 3615POPC   C3A48905  14.336  44.897   7.011
 3615POPC   C4A48906  14.607  44.837   7.390
 3615POPC   C1B48907  14.296  44.354   6.052
 3615POPC   C2B48908  14.242  44.334   6.472
 3615POPC   C3B48909  14.479  44.438   6.841
 3615POPC   C4B48910  14.380  44.363   7.251
 3616POPC   NC348911  23.222  39.385   5.485
 3616POPC   PO448912  22.538  39.114   5.404
 3616POPC   GL148913  22.801  39.107   5.743
 3616POPC   GL248914  22.951  39.348   5.913
 3616POPC   C1A48915  22.662  39.022   6.169
 3616POPC   D2A48916  22.851  39.213   6.515
 3616POPC   C3A48917  22.924  38.961   6.873
 3616POPC   C4A48918  23.076  39.114   7.259
 3616POPC   C1B48919  23.249  39.464   6.208
 3616POPC   C2B48920  23.177  39.685   6.598
 3616POPC   C3B48921  23.041  39.559   6.989
 3616POPC   C4B48922  23.219  39.605   7.410
 3617POPC   NC348923  44.508  25.284   5.352
 3617POPC   PO448924   0.125  25.302   5.457
 3617POPC   GL148925  44.882  25.224   5.860
 3617POPC   GL248926  44.534  25.335   5.899
 3617POPC   C1A48927  44.877  25.299   6.347
 3617POPC   D2A48928  44.762  25.147   6.791
 3617POPC   C3A48929  44.480  25.334   7.110
 3617POPC   C4A48930  44.586  25.593   7.490
 3617POPC   C1B48931  44.452  25.021   6.258
 3617POPC   C2B48932  44.386  24.810   6.694
 3617POPC   C3B48933  44.594  24.757   7.113
 3617POPC   C4B48934  44.585  24.708   7.580
 3618POPC   NC348935   3.125  12.221   5.195
 3618POPC   PO448936   2.549  11.999   5.310
 3618POPC   GL148937   2.876  12.067   5.645
 3618POPC   GL248938   3.074  11.762   5.759
 3618POPC   C1A48939   2.817  12.083   6.109
 3618POPC   D2A48940   2.726  12.300   6.516
 3618POPC   C3A48941   2.613  12.085   6.912
 3618POPC   C4A48942   2.569  12.226   7.345
 3618POPC   C1B48943   3.000  11.597   6.175
 3618POPC   C2B48944   2.938  11.791   6.595
 3618POPC   C3B48945   2.991  11.717   7.048
 3618POPC   C4B48946   3.052  12.071   7.294
 3619POPC   NC348947   7.669  25.359   5.484
 3619POPC   PO448948   7.022  25.176   5.400
 3619POPC   GL148949   7.277  25.196   5.811
 3619POPC   GL248950   7.592  24.985   5.841
 3619POPC   C1A48951   7.542  25.374   6.186
 3619POPC   D2A48952   7.670  25.159   6.580
 3619POPC   C3A48953   7.472  25.233   6.969
 3619POPC   C4A48954   7.455  25.582   7.249
 3619POPC   C1B48955   7.393  24.881   6.214
 3619POPC   C2B48956   7.478  24.637   6.559
 3619POPC   C3B48957   7.729  24.711   6.892
 3619POPC   C4B48958   7.719  24.881   7.266
 3620POPC   NC348959   2.356  13.598   5.512
 3620POPC   PO448960   1.736  13.723   5.397
 3620POPC   GL148961   1.899  13.620   5.786
 3620POPC   GL248962   1.594  13.445   5.854
 3620POPC   C1A48963   2.172  13.774   6.160
 3620POPC   D2A48964   2.383  13.682   6.565
 3620POPC   C3A48965   2.230  13.856   6.931
 3620POPC   C4A48966   2.067  13.710   7.298
 3620POPC   C1B48967   1.821  13.370   6.220
 3620POPC   C2B48968   1.701  13.250   6.607
 3620POPC   C3B48969   1.910  13.377   6.946
 3620POPC   C4B48970   2.257  13.207   7.140
 3621POPC   NC348971   2.207   9.074   5.494
 3621POPC   PO448972   1.605   9.193   5.418
 3621POPC   GL148973   1.779   8.841   5.706
 3621POPC   GL248974   2.117   8.746   5.860
 3621POPC   C1A48975   1.748   8.986   6.134
 3621POPC   D2A48976   1.628   8.867   6.541
 3621POPC   C3A48977   1.854   9.028   6.867
 3621POPC   C4A48978   2.035   8.810   7.187
 3621POPC   C1B48979   2.266   8.983   6.224
 3621POPC   C2B48980   2.203   9.241   6.580
 3621POPC   C3B48981   2.323   9.223   7.048
 3621POPC   C4B48982   2.302   9.086   7.511
 3622POPC   NC348983  13.608   5.249   5.232
 3622POPC   PO448984  13.970   5.331   5.494
 3622POPC   GL148985  13.769   4.987   5.703
 3622POPC   GL248986  13.416   5.026   5.707
 3622POPC   C1A48987  13.638   4.736   6.082
 3622POPC   D2A48988  13.631   4.890   6.521
 3622POPC   C3A48989  13.532   4.877   6.975
 3622POPC   C4A48990  13.770   5.057   7.326
 3622POPC   C1B48991  13.444   5.209   6.149
 3622POPC   C2B48992  13.380   5.344   6.608
 3622POPC   C3B48993  13.501   5.385   7.045
 3622POPC   C4B48994  13.249   5.157   7.352
 3623POPC   NC348995  38.440  36.028   5.321
 3623POPC   PO448996  38.080  36.554   5.549
 3623POPC   GL148997  38.227  36.192   5.809
 3623POPC   GL248998  38.601  36.131   5.809
 3623POPC   C1A48999  38.313  35.984   6.245
 3623POPC   D2A49000  38.556  35.819   6.655
 3623POPC   C3A49001  38.494  35.933   7.134
 3623POPC   C4A49002  38.339  35.863   7.584
 3623POPC   C1B49003  38.629  36.385   6.213
 3623POPC   C2B49004  38.660  36.314   6.673
 3623POPC   C3B49005  38.845  36.332   7.098
 3623POPC   C4B49006  38.663  36.256   7.522
 3624POPC   NC349007  34.183  36.241   5.445
 3624POPC   PO449008  34.865  36.095   5.417
 3624POPC   GL149009  34.723  36.321   5.803
 3624POPC   GL249010  34.347  36.356   5.917
 3624POPC   C1A49011  34.697  36.120   6.221
 3624POPC   D2A49012  34.787  35.936   6.614
 3624POPC   C3A49013  34.630  36.196   6.921
 3624POPC   C4A49014  34.504  36.088   7.303
 3624POPC   C1B49015  34.155  36.104   6.245
 3624POPC   C2B49016  34.090  36.050   6.682
 3624POPC   C3B49017  34.112  36.331   7.034
 3624POPC   C4B49018  34.388  36.586   7.242
 3625POPC   NC349019  41.674   6.505   5.239
 3625POPC   PO449020  41.339   7.038   5.401
 3625POPC   GL149021  41.512   6.819   5.792
 3625POPC   GL249022  41.811   6.558   5.741
 3625POPC   C1A49023  41.327   6.630   6.196
 3625POPC   D2A49024  41.479   6.473   6.616
 3625POPC   C3A49025  41.257   6.589   6.993
 3625POPC   C4A49026  41.107   6.478   7.363
 3625POPC   C1B49027  41.836   6.635   6.192
 3625POPC   C2B49028  41.987   6.659   6.615
 3625POPC   C3B49029  41.737   6.717   6.974
 3625POPC   C4B49030  41.696   6.495   7.322
 3626POPC   NC349031   0.776  35.871   5.554
 3626POPC   PO449032   0.774  36.423   5.754
 3626POPC   GL149033   0.668  36.072   6.004
 3626POPC   GL249034   0.369  35.896   5.890
 3626POPC   C1A49035   0.572  36.027   6.410
 3626POPC   D2A49036   0.459  36.239   6.783
 3626POPC   C3A49037   0.360  36.121   7.211
 3626POPC   C4A49038   0.509  36.483   7.489
 3626POPC   C1B49039   0.200  35.694   6.277
 3626POPC   C2B49040   0.330  35.723   6.728
 3626POPC   C3B49041   0.130  35.626   7.105
 3626POPC   C4B49042  44.965  35.801   7.465
 3627POPC   NC349043  32.188   8.065   5.366
 3627POPC   PO449044  31.878   8.426   5.370
 3627POPC   GL149045  32.087   8.302   5.839
 3627POPC   GL249046  32.152   7.946   5.913
 3627POPC   C1A49047  32.351   8.318   6.290
 3627POPC   D2A49048  32.535   8.554   6.701
 3627POPC   C3A49049  32.562   8.356   7.122
 3627POPC   C4A49050  32.264   8.139   7.302
 3627POPC   C1B49051  31.953   8.001   6.336
 3627POPC   C2B49052  32.104   7.945   6.781
 3627POPC   C3B49053  32.026   7.706   7.178
 3627POPC   C4B49054  32.315   7.673   7.548
 3628POPC   NC349055  33.944  16.122   5.012
 3628POPC   PO449056  33.783  15.513   5.295
 3628POPC   GL149057  33.879  15.750   5.652
 3628POPC   GL249058  33.896  16.114   5.540
 3628POPC   C1A49059  33.723  15.689   6.095
 3628POPC   D2A49060  33.815  15.907   6.488
 3628POPC   C3A49061  33.956  15.757   6.906
 3628POPC   C4A49062  33.924  16.056   7.249
 3628POPC   C1B49063  33.936  16.159   5.992
 3628POPC   C2B49064  34.014  16.368   6.382
 3628POPC   C3B49065  33.967  16.322   6.815
 3628POPC   C4B49066  34.097  16.517   7.214
 3629POPC   NC349067  18.803  10.235   5.431
 3629POPC   PO449068  19.350  10.775   5.408
 3629POPC   GL149069  19.081  10.623   5.722
 3629POPC   GL249070  19.118  10.888   5.960
 3629POPC   C1A49071  18.966  10.411   6.118
 3629POPC   D2A49072  19.075  10.563   6.522
 3629POPC   C3A49073  18.908  10.368   6.888
 3629POPC   C4A49074  19.263  10.371   7.153
 3629POPC   C1B49075  18.755  10.896   6.239
 3629POPC   C2B49076  18.729  10.895   6.689
 3629POPC   C3B49077  19.001  10.839   7.003
 3629POPC   C4B49078  18.749  10.764   7.308
 3630POPC   NC349079  22.404  10.651   5.423
 3630POPC   PO449080  21.995  10.152   5.365
 3630POPC   GL149081  22.164  10.359   5.777
 3630POPC   GL249082  22.145  10.743   5.833
 3630POPC   C1A49083  22.234  10.434   6.237
 3630POPC   D2A49084  22.088  10.545   6.659
 3630POPC   C3A49085  22.425  10.482   6.943
 3630POPC   C4A49086  22.497  10.218   7.294
 3630POPC   C1B49087  22.261  10.965   6.198
 3630POPC   C2B49088  22.172  11.048   6.620
 3630POPC   C3B49089  22.153  10.940   7.078
 3630POPC   C4B49090  22.413  10.732   7.396
 3631POPC   NC349091  32.810  33.513   5.591
 3631POPC   PO449092  33.243  33.975   5.600
 3631POPC   GL149093  32.955  33.955   5.941
 3631POPC   GL249094  32.867  33.649   6.067
 3631POPC   C1A49095  32.767  34.064   6.332
 3631POPC   D2A49096  32.686  33.772   6.674
 3631POPC   C3A49097  32.589  34.020   7.018
 3631POPC   C4A49098  32.871  34.051   7.346
 3631POPC   C1B49099  33.261  33.603   6.273
 3631POPC   C2B49100  33.325  33.515   6.719
 3631POPC   C3B49101  33.180  33.641   7.115
 3631POPC   C4B49102  32.770  33.551   7.255
 3632POPC   NC349103  14.972  34.139   5.373
 3632POPC   PO449104  15.422  33.671   5.256
 3632POPC   GL149105  15.405  33.792   5.691
 3632POPC   GL249106  15.705  33.626   5.813
 3632POPC   C1A49107  15.243  33.899   6.119
 3632POPC   D2A49108  14.955  34.076   6.463
 3632POPC   C3A49109  15.090  34.003   6.894
 3632POPC   C4A49110  14.954  34.106   7.308
 3632POPC   C1B49111  15.519  33.443   6.187
 3632POPC   C2B49112  15.283  33.593   6.548
 3632POPC   C3B49113  15.444  33.624   6.948
 3632POPC   C4B49114  15.461  33.927   7.286
 3633POPC   NC349115   9.474  33.238   5.541
 3633POPC   PO449116   9.042  32.774   5.237
 3633POPC   GL149117   8.997  33.031   5.671
 3633POPC   GL249118   8.777  32.876   5.922
 3633POPC   C1A49119   9.104  33.189   6.127
 3633POPC   D2A49120   9.172  33.003   6.546
 3633POPC   C3A49121   9.101  33.192   6.937
 3633POPC   C4A49122   9.287  33.094   7.328
 3633POPC   C1B49123   8.597  32.942   6.291
 3633POPC   C2B49124   8.461  33.192   6.630
 3633POPC   C3B49125   8.641  32.969   6.931
 3633POPC   C4B49126   8.763  33.080   7.329
 3634POPC   NC349127   7.830  41.650   5.415
 3634POPC   PO449128   8.480  41.849   5.454
 3634POPC   GL149129   8.298  41.601   5.812
 3634POPC   GL249130   7.976  41.672   5.910
 3634POPC   C1A49131   8.393  41.591   6.258
 3634POPC   D2A49132   8.322  41.855   6.621
 3634POPC   C3A49133   8.329  41.640   7.018
 3634POPC   C4A49134   8.024  41.745   7.331
 3634POPC   C1B49135   7.999  41.280   6.162
 3634POPC   C2B49136   8.013  41.165   6.592
 3634POPC   C3B49137   7.762  41.155   6.953
 3634POPC   C4B49138   7.871  41.111   7.369
 3635POPC   NC349139  39.268  19.152   5.520
 3635POPC   PO449140  39.516  18.652   5.693
 3635POPC   GL149141  39.202  18.885   5.947
 3635POPC   GL249142  38.935  18.682   6.018
 3635POPC   C1A49143  39.179  19.302   6.165
 3635POPC   D2A49144  39.330  19.433   6.564
 3635POPC   C3A49145  39.157  19.192   6.905
 3635POPC   C4A49146  39.063  19.295   7.316
 3635POPC   C1B49147  38.780  19.009   6.279
 3635POPC   C2B49148  38.812  19.336   6.552
 3635POPC   C3B49149  38.670  19.383   6.972
 3635POPC   C4B49150  38.689  18.985   7.158
 3636POPC   NC349151  30.755  31.097   5.567
 3636POPC   PO449152  30.684  30.603   5.081
 3636POPC   GL149153  30.731  30.484   5.548
 3636POPC   GL249154  31.033  30.604   5.729
 3636POPC   C1A49155  30.664  30.476   6.048
 3636POPC   D2A49156  30.646  30.747   6.468
 3636POPC   C3A49157  30.543  30.590   6.902
 3636POPC   C4A49158  30.588  30.723   7.329
 3636POPC   C1B49159  31.045  30.830   6.148
 3636POPC   C2B49160  31.046  31.078   6.545
 3636POPC   C3B49161  30.907  30.977   6.949
 3636POPC   C4B49162  31.031  30.589   7.128
 3637POPC   NC349163   2.751  40.370   5.362
 3637POPC   PO449164   2.765  39.739   5.298
 3637POPC   GL149165   2.897  39.777   5.729
 3637POPC   GL249166   2.660  40.091   5.776
 3637POPC   C1A49167   3.143  39.754   6.159
 3637POPC   D2A49168   2.962  39.912   6.601
 3637POPC   C3A49169   3.184  39.861   7.010
 3637POPC   C4A49170   3.085  40.016   7.449
 3637POPC   C1B49171   2.671  39.911   6.175
 3637POPC   C2B49172   2.459  39.704   6.497
 3637POPC   C3B49173   2.575  39.613   6.913
 3637POPC   C4B49174   2.818  39.614   7.298
 3638POPC   NC349175  35.281  15.066   5.303
 3638POPC   PO449176  35.633  15.604   5.480
 3638POPC   GL149177  35.547  15.238   5.711
 3638POPC   GL249178  35.194  15.219   5.770
 3638POPC   C1A49179  35.513  14.973   6.078
 3638POPC   D2A49180  35.302  14.964   6.497
 3638POPC   C3A49181  35.464  15.152   6.886
 3638POPC   C4A49182  35.620  15.005   7.282
 3638POPC   C1B49183  35.061  15.312   6.172
 3638POPC   C2B49184  34.962  15.360   6.609
 3638POPC   C3B49185  35.058  15.409   7.032
 3638POPC   C4B49186  35.146  15.172   7.374
 3639POPC   NC349187  18.464  33.545   5.485
 3639POPC   PO449188  17.883  33.961   5.367
 3639POPC   GL149189  18.090  34.016   5.779
 3639POPC   GL249190  18.245  33.711   5.925
 3639POPC   C1A49191  18.094  34.098   6.211
 3639POPC   D2A49192  18.067  33.804   6.545
 3639POPC   C3A49193  18.016  33.920   6.970
 3639POPC   C4A49194  18.394  33.870   7.185
 3639POPC   C1B49195  18.333  33.422   6.252
 3639POPC   C2B49196  18.158  33.285   6.665
 3639POPC   C3B49197  18.287  33.358   7.103
 3639POPC   C4B49198  18.600  33.234   7.459
 3640POPC   NC349199  33.232  17.523   5.479
 3640POPC   PO449200  32.625  17.846   5.440
 3640POPC   GL149201  32.805  17.502   5.732
 3640POPC   GL249202  32.602  17.252   5.906
 3640POPC   C1A49203  33.071  17.377   6.111
 3640POPC   D2A49204  32.864  17.319   6.514
 3640POPC   C3A49205  33.091  17.322   6.897
 3640POPC   C4A49206  32.994  17.437   7.329
 3640POPC   C1B49207  32.642  17.661   6.176
 3640POPC   C2B49208  32.620  17.762   6.640
 3640POPC   C3B49209  32.574  17.616   7.099
 3640POPC   C4B49210  32.635  17.708   7.585
 3641POPC   NC349211   2.417  26.898   5.436
 3641POPC   PO449212   3.089  26.916   5.420
 3641POPC   GL149213   2.786  26.688   5.729
 3641POPC   GL249214   2.436  26.489   5.751
 3641POPC   C1A49215   2.721  26.780   6.168
 3641POPC   D2A49216   2.857  27.025   6.509
 3641POPC   C3A49217   2.772  26.840   6.903
 3641POPC   C4A49218   2.560  27.109   7.167
 3641POPC   C1B49219   2.272  26.509   6.176
 3641POPC   C2B49220   2.447  26.524   6.582
 3641POPC   C3B49221   2.477  26.382   6.995
 3641POPC   C4B49222   2.539  26.587   7.346
 3642POPC   NC349223  42.157  44.133   5.573
 3642POPC   PO449224  42.574  43.779   5.174
 3642POPC   GL149225  42.562  43.886   5.694
 3642POPC   GL249226  42.307  43.686   5.836
 3642POPC   C1A49227  42.413  44.085   6.164
 3642POPC   D2A49228  42.522  44.273   6.611
 3642POPC   C3A49229  42.342  44.121   6.998
 3642POPC   C4A49230  42.342  43.919   7.409
 3642POPC   C1B49231  42.450  43.609   6.269
 3642POPC   C2B49232  42.611  43.775   6.633
 3642POPC   C3B49233  42.491  43.641   7.004
 3642POPC   C4B49234  42.225  43.424   7.290
 3643POPC   NC349235  27.305  33.098   5.392
 3643POPC   PO449236  27.829  32.841   5.736
 3643POPC   GL149237  27.588  33.122   6.001
 3643POPC   GL249238  27.232  33.165   5.925
 3643POPC   C1A49239  27.607  33.183   6.434
 3643POPC   D2A49240  27.395  33.192   6.814
 3643POPC   C3A49241  27.675  33.129   7.128
 3643POPC   C4A49242  27.974  33.239   7.466
 3643POPC   C1B49243  27.132  33.049   6.371
 3643POPC   C2B49244  27.183  32.748   6.718
 3643POPC   C3B49245  27.216  32.854   7.173
 3643POPC   C4B49246  27.082  32.980   7.608
 3644POPC   NC349247  26.647  10.890   5.393
 3644POPC   PO449248  27.056  11.531   5.326
 3644POPC   GL149249  26.901  11.371   5.739
 3644POPC   GL249250  27.041  11.035   5.720
 3644POPC   C1A49251  26.803  11.488   6.214
 3644POPC   D2A49252  26.629  11.362   6.635
 3644POPC   C3A49253  26.607  11.542   7.044
 3644POPC   C4A49254  27.003  11.689   7.254
 3644POPC   C1B49255  26.857  10.976   6.142
 3644POPC   C2B49256  27.055  11.094   6.516
 3644POPC   C3B49257  27.059  11.271   6.924
 3644POPC   C4B49258  27.126  11.059   7.297
 3645POPC   NC349259   7.605  19.177   5.338
 3645POPC   PO449260   7.000  19.418   5.555
 3645POPC   GL149261   7.278  19.115   5.776
 3645POPC   GL249262   7.641  19.067   5.818
 3645POPC   C1A49263   7.232  18.901   6.157
 3645POPC   D2A49264   7.205  19.100   6.544
 3645POPC   C3A49265   7.297  18.890   6.892
 3645POPC   C4A49266   7.488  19.111   7.196
 3645POPC   C1B49267   7.704  19.057   6.229
 3645POPC   C2B49268   7.647  18.765   6.524
 3645POPC   C3B49269   7.828  18.891   6.910
 3645POPC   C4B49270   7.902  18.815   7.335
 3646POPC   NC349271  32.016  44.443   5.531
 3646POPC   PO449272  32.454   0.021   5.499
 3646POPC   GL149273  32.234  44.823   5.866
 3646POPC   GL249274  32.265  44.434   5.970
 3646POPC   C1A49275  32.447  44.790   6.276
 3646POPC   D2A49276  32.336  44.586   6.660
 3646POPC   C3A49277  32.525  44.716   7.023
 3646POPC   C4A49278  32.406  44.919   7.354
 3646POPC   C1B49279  31.929  44.536   6.284
 3646POPC   C2B49280  31.839  44.659   6.723
 3646POPC   C3B49281  31.999  44.713   7.116
 3646POPC   C4B49282  32.086  44.566   7.535
 3647POPC   NC349283  26.445   4.786   5.509
 3647POPC   PO449284  25.809   4.595   5.457
 3647POPC   GL149285  25.871   4.970   5.773
 3647POPC   GL249286  26.194   4.941   5.958
 3647POPC   C1A49287  25.796   5.060   6.237
 3647POPC   D2A49288  25.860   5.340   6.591
 3647POPC   C3A49289  25.839   5.195   7.022
 3647POPC   C4A49290  25.658   4.790   7.106
 3647POPC   C1B49291  26.294   5.179   6.363
 3647POPC   C2B49292  26.313   5.369   6.808
 3647POPC   C3B49293  26.572   5.293   7.180
 3647POPC   C4B49294  26.517   5.341   7.670
 3648POPC   NC349295  11.120  15.193   5.404
 3648POPC   PO449296  11.678  15.209   5.209
 3648POPC   GL149297  11.474  15.204   5.741
 3648POPC   GL249298  11.127  14.987   5.853
 3648POPC   C1A49299  11.351  15.281   6.187
 3648POPC   D2A49300  11.215  15.430   6.590
 3648POPC   C3A49301  11.257  15.219   6.961
 3648POPC   C4A49302  11.432  15.103   7.325
 3648POPC   C1B49303  10.892  15.038   6.226
 3648POPC   C2B49304  11.011  14.950   6.608
 3648POPC   C3B49305  11.199  14.724   6.932
 3648POPC   C4B49306  11.000  14.842   7.300
 3649POPC   NC349307   2.470  24.976   5.503
 3649POPC   PO449308   2.968  24.469   5.450
 3649POPC   GL149309   2.827  24.337   5.868
 3649POPC   GL249310   2.461  24.409   5.875
 3649POPC   C1A49311   2.699  24.281   6.312
 3649POPC   D2A49312   2.609  24.515   6.663
 3649POPC   C3A49313   2.871  24.672   6.952
 3649POPC   C4A49314   2.697  24.535   7.331
 3649POPC   C1B49315   2.530  24.762   6.194
 3649POPC   C2B49316   2.325  24.920   6.596
 3649POPC   C3B49317   2.448  24.938   7.058
 3649POPC   C4B49318   2.384  24.876   7.527
 3650POPC   NC349319  24.117  23.494   5.351
 3650POPC   PO449320  23.484  23.725   5.408
 3650POPC   GL149321  23.763  23.618   5.766
 3650POPC   GL249322  23.477  23.431   5.905
 3650POPC   C1A49323  24.056  23.698   6.144
 3650POPC   D2A49324  24.192  23.979   6.468
 3650POPC   C3A49325  24.030  23.773   6.818
 3650POPC   C4A49326  24.051  23.758   7.237
 3650POPC   C1B49327  23.552  23.759   6.226
 3650POPC   C2B49328  23.340  23.827   6.614
 3650POPC   C3B49329  23.551  23.859   6.965
 3650POPC   C4B49330  23.535  23.586   7.275
 3651POPC   NC349331  35.693  34.891   5.444
 3651POPC   PO449332  35.110  34.583   5.441
 3651POPC   GL149333  35.387  34.552   5.772
 3651POPC   GL249334  35.222  34.286   5.964
 3651POPC   C1A49335  35.543  34.708   6.148
 3651POPC   D2A49336  35.576  34.439   6.492
 3651POPC   C3A49337  35.494  34.621   6.879
 3651POPC   C4A49338  35.384  34.627   7.295
 3651POPC   C1B49339  35.188  34.094   6.395
 3651POPC   C2B49340  35.187  34.215   6.823
 3651POPC   C3B49341  35.006  34.315   7.203
 3651POPC   C4B49342  35.140  34.166   7.634
 3652POPC   NC349343  42.348  42.988   5.362
 3652POPC   PO449344  41.984  43.577   5.418
 3652POPC   GL149345  41.989  43.276   5.801
 3652POPC   GL249346  41.948  42.891   5.743
 3652POPC   C1A49347  42.175  43.191   6.233
 3652POPC   D2A49348  42.262  43.314   6.672
 3652POPC   C3A49349  42.490  43.095   6.997
 3652POPC   C4A49350  42.411  42.991   7.451
 3652POPC   C1B49351  42.084  42.708   6.181
 3652POPC   C2B49352  42.255  42.747   6.650
 3652POPC   C3B49353  42.054  42.835   7.092
 3652POPC   C4B49354  41.983  42.778   7.571
 3653POPC   NC349355   3.594  13.033   5.366
 3653POPC   PO449356   3.389  13.696   5.382
 3653POPC   GL149357   3.567  13.710   5.768
 3653POPC   GL249358   3.613  14.041   5.850
 3653POPC   C1A49359   3.647  13.404   6.082
 3653POPC   D2A49360   3.702  13.371   6.529
 3653POPC   C3A49361   3.371  13.520   6.792
 3653POPC   C4A49362   3.417  13.459   7.238
 3653POPC   C1B49363   3.720  13.912   6.262
 3653POPC   C2B49364   3.746  13.897   6.705
 3653POPC   C3B49365   3.682  13.898   7.143
 3653POPC   C4B49366   3.304  13.930   7.434
 3654POPC   NC349367   0.912  16.352   5.501
 3654POPC   PO449368   1.586  16.338   5.535
 3654POPC   GL149369   1.395  16.053   5.813
 3654POPC   GL249370   1.179  16.306   5.954
 3654POPC   C1A49371   1.300  15.889   6.256
 3654POPC   D2A49372   1.282  16.160   6.653
 3654POPC   C3A49373   1.180  15.904   7.024
 3654POPC   C4A49374   1.073  15.480   7.135
 3654POPC   C1B49375   1.586  16.297   6.231
 3654POPC   C2B49376   1.740  15.952   6.557
 3654POPC   C3B49377   1.682  16.039   7.014
 3654POPC   C4B49378   1.383  16.372   7.118
 3655POPC   NC349379  20.795   3.561   5.374
 3655POPC   PO449380  21.449   3.411   5.137
 3655POPC   GL149381  21.328   3.483   5.663
 3655POPC   GL249382  21.052   3.410   5.829
 3655POPC   C1A49383  21.358   3.488   6.231
 3655POPC   D2A49384  21.356   3.712   6.673
 3655POPC   C3A49385  21.616   3.667   7.042
 3655POPC   C4A49386  21.839   3.944   7.356
 3655POPC   C1B49387  20.867   3.434   6.257
 3655POPC   C2B49388  21.084   3.269   6.620
 3655POPC   C3B49389  21.192   3.336   7.020
 3655POPC   C4B49390  20.936   3.255   7.338
 3656POPC   NC349391   2.555  11.084   5.119
 3656POPC   PO449392   2.201  11.552   5.420
 3656POPC   GL149393   1.934  11.617   5.728
 3656POPC   GL249394   1.849  11.285   5.892
 3656POPC   C1A49395   2.115  11.670   6.113
 3656POPC   D2A49396   2.135  11.475   6.501
 3656POPC   C3A49397   1.984  11.664   6.848
 3656POPC   C4A49398   1.908  11.467   7.231
 3656POPC   C1B49399   1.747  11.146   6.313
 3656POPC   C2B49400   1.822  11.150   6.761
 3656POPC   C3B49401   1.615  11.067   7.158
 3656POPC   C4B49402   1.733  11.146   7.594
 3657POPC   NC349403  10.450  24.074   5.655
 3657POPC   PO449404  10.963  23.749   5.326
 3657POPC   GL149405  10.956  23.567   5.827
 3657POPC   GL249406  10.607  23.589   5.941
 3657POPC   C1A49407  10.956  23.641   6.330
 3657POPC   D2A49408  10.828  24.000   6.635
 3657POPC   C3A49409  10.654  23.900   7.049
 3657POPC   C4A49410  10.697  23.546   7.357
 3657POPC   C1B49411  10.451  23.856   6.293
 3657POPC   C2B49412  10.288  23.799   6.690
 3657POPC   C3B49413  10.290  23.512   7.019
 3657POPC   C4B49414  10.044  23.163   7.094
 3658POPC   NC349415  28.623   8.172   5.415
 3658POPC   PO449416  27.985   8.354   5.440
 3658POPC   GL149417  28.197   8.262   5.814
 3658POPC   GL249418  28.452   8.038   5.880
 3658POPC   C1A49419  28.150   8.198   6.267
 3658POPC   D2A49420  28.423   8.039   6.581
 3658POPC   C3A49421  28.303   8.075   7.008
 3658POPC   C4A49422  28.348   8.340   7.406
 3658POPC   C1B49423  28.783   7.913   6.160
 3658POPC   C2B49424  28.896   7.856   6.609
 3658POPC   C3B49425  28.763   7.850   7.056
 3658POPC   C4B49426  28.781   7.925   7.533
 3659POPC   NC349427   5.411  20.764   5.571
 3659POPC   PO449428   5.833  20.221   5.615
 3659POPC   GL149429   6.029  20.389   5.957
 3659POPC   GL249430   6.182  20.716   5.858
 3659POPC   C1A49431   5.775  20.611   6.229
 3659POPC   D2A49432   5.715  20.792   6.610
 3659POPC   C3A49433   5.935  20.598   6.965
 3659POPC   C4A49434   5.741  20.664   7.376
 3659POPC   C1B49435   6.088  21.006   6.216
 3659POPC   C2B49436   6.207  20.919   6.628
 3659POPC   C3B49437   6.195  21.064   7.028
 3659POPC   C4B49438   5.812  21.087   7.120
 3660POPC   NC349439  29.348  37.958   5.445
 3660POPC   PO449440  29.284  38.649   5.425
 3660POPC   GL149441  29.095  38.656   5.855
 3660POPC   GL249442  29.083  38.296   5.869
 3660POPC   C1A49443  29.162  38.520   6.312
 3660POPC   D2A49444  29.314  38.632   6.691
 3660POPC   C3A49445  28.999  38.664   6.995
 3660POPC   C4A49446  29.117  38.660   7.409
 3660POPC   C1B49447  28.739  38.278   6.203
 3660POPC   C2B49448  28.811  38.315   6.669
 3660POPC   C3B49449  28.910  38.179   7.117
 3660POPC   C4B49450  29.188  38.174   7.524
 3661POPC   NC349451  10.770  38.734   5.407
 3661POPC   PO449452  10.342  38.228   5.609
 3661POPC   GL149453  10.630  38.303   5.920
 3661POPC   GL249454  10.789  38.581   5.877
 3661POPC   C1A49455  10.450  38.513   6.287
 3661POPC   D2A49456  10.094  38.475   6.594
 3661POPC   C3A49457  10.110  38.540   7.037
 3661POPC   C4A49458  10.371  38.430   7.397
 3661POPC   C1B49459  10.964  38.582   6.273
 3661POPC   C2B49460  10.834  38.740   6.652
 3661POPC   C3B49461  10.827  38.561   7.054
 3661POPC   C4B49462  10.758  38.786   7.421
 3662POPC   NC349463  32.510  17.283   5.384
 3662POPC   PO449464  32.010  17.117   5.741
 3662POPC   GL149465  32.146  17.498   5.963
 3662POPC   GL249466  31.841  17.737   5.989
 3662POPC   C1A49467  32.217  17.510   6.396
 3662POPC   D2A49468  32.103  17.790   6.713
 3662POPC   C3A49469  32.069  17.665   7.114
 3662POPC   C4A49470  32.211  17.441   7.459
 3662POPC   C1B49471  31.717  17.389   6.258
 3662POPC   C2B49472  31.859  17.285   6.675
 3662POPC   C3B49473  31.939  17.184   7.088
 3662POPC   C4B49474  31.701  17.041   7.418
 3663POPC   NC349475   0.150  35.617   5.083
 3663POPC   PO449476  44.779  35.254   5.428
 3663POPC   GL149477  44.770  35.171   5.829
 3663POPC   GL249478  44.862  34.819   5.807
 3663POPC   C1A49479  44.750  35.389   6.235
 3663POPC   D2A49480  44.936  35.423   6.651
 3663POPC   C3A49481  44.638  35.480   7.005
 3663POPC   C4A49482  44.759  35.330   7.403
 3663POPC   C1B49483  44.821  34.878   6.271
 3663POPC   C2B49484  44.612  35.045   6.651
 3663POPC   C3B49485  44.864  35.013   7.025
 3663POPC   C4B49486  44.795  34.794   7.429
 3664POPC   NC349487  19.290  43.371   5.496
 3664POPC   PO449488  18.880  42.832   5.499
 3664POPC   GL149489  18.986  43.101   5.887
 3664POPC   GL249490  19.318  43.211   6.044
 3664POPC   C1A49491  18.835  43.181   6.306
 3664POPC   D2A49492  19.050  43.357   6.676
 3664POPC   C3A49493  18.933  43.164   7.059
 3664POPC   C4A49494  18.656  42.819   7.144
 3664POPC   C1B49495  19.623  42.896   6.260
 3664POPC   C2B49496  19.577  42.752   6.692
 3664POPC   C3B49497  19.424  43.047   7.016
 3664POPC   C4B49498  19.512  43.077   7.468
 3665POPC   NC349499  43.291  43.315   5.419
 3665POPC   PO449500  42.811  42.901   5.471
 3665POPC   GL149501  43.133  42.995   5.808
 3665POPC   GL249502  43.281  43.290   5.919
 3665POPC   C1A49503  43.055  42.876   6.232
 3665POPC   D2A49504  42.751  42.982   6.549
 3665POPC   C3A49505  42.940  42.846   6.924
 3665POPC   C4A49506  42.880  42.910   7.322
 3665POPC   C1B49507  43.395  43.590   6.214
 3665POPC   C2B49508  43.484  43.577   6.627
 3665POPC   C3B49509  43.462  43.530   7.027
 3665POPC   C4B49510  43.321  43.141   7.190
 3666POPC   NC349511  34.696  34.831   5.480
 3666POPC   PO449512  34.712  34.142   5.390
 3666POPC   GL149513  34.738  34.408   5.802
 3666POPC   GL249514  34.937  34.719   5.908
 3666POPC   C1A49515  34.554  34.612   6.196
 3666POPC   D2A49516  34.490  34.769   6.623
 3666POPC   C3A49517  34.579  34.442   6.914
 3666POPC   C4A49518  34.499  34.401   7.339
 3666POPC   C1B49519  35.066  34.612   6.329
 3666POPC   C2B49520  34.998  34.690   6.759
 3666POPC   C3B49521  34.888  34.803   7.172
 3666POPC   C4B49522  34.882  34.594   7.602
 3667POPC   NC349523  31.690  18.862   5.293
 3667POPC   PO449524  31.382  19.407   5.482
 3667POPC   GL149525  31.404  19.044   5.759
 3667POPC   GL249526  31.726  18.916   5.812
 3667POPC   C1A49527  31.346  19.053   6.228
 3667POPC   D2A49528  31.185  19.385   6.538
 3667POPC   C3A49529  31.174  19.125   6.872
 3667POPC   C4A49530  31.503  19.046   7.051
 3667POPC   C1B49531  31.850  18.738   6.215
 3667POPC   C2B49532  31.639  18.759   6.625
 3667POPC   C3B49533  31.686  18.578   7.033
 3667POPC   C4B49534  31.634  18.719   7.432
 3668POPC   NC349535  32.457  15.946   5.475
 3668POPC   PO449536  31.935  16.224   5.402
 3668POPC   GL149537  32.037  15.925   5.769
 3668POPC   GL249538  32.333  15.668   5.888
 3668POPC   C1A49539  32.137  16.007   6.197
 3668POPC   D2A49540  32.294  15.840   6.577
 3668POPC   C3A49541  32.129  16.066   6.930
 3668POPC   C4A49542  32.080  15.926   7.332
 3668POPC   C1B49543  32.663  15.889   6.143
 3668POPC   C2B49544  32.792  16.023   6.552
 3668POPC   C3B49545  32.629  15.960   6.969
 3668POPC   C4B49546  32.599  16.148   7.358
 3669POPC   NC349547  13.184  44.072   5.547
 3669POPC   PO449548  12.672  43.634   5.360
 3669POPC   GL149549  12.712  43.952   5.671
 3669POPC   GL249550  12.815  43.686   5.861
 3669POPC   C1A49551  12.569  44.084   6.100
 3669POPC   D2A49552  12.561  43.890   6.524
 3669POPC   C3A49553  12.379  44.033   6.871
 3669POPC   C4A49554  12.508  43.924   7.295
 3669POPC   C1B49555  12.983  43.776   6.258
 3669POPC   C2B49556  13.040  44.062   6.612
 3669POPC   C3B49557  12.962  43.989   7.065
 3669POPC   C4B49558  13.151  43.547   7.204
 3670POPC   NC349559   8.733  28.407   5.434
 3670POPC   PO449560   9.388  28.303   5.661
 3670POPC   GL149561   8.961  28.302   5.890
 3670POPC   GL249562   8.620  28.133   5.847
 3670POPC   C1A49563   8.926  28.289   6.318
 3670POPC   D2A49564   9.265  28.483   6.524
 3670POPC   C3A49565   9.298  28.575   6.969
 3670POPC   C4A49566   9.407  28.485   7.387
 3670POPC   C1B49567   8.503  28.495   6.116
 3670POPC   C2B49568   8.607  28.600   6.566
 3670POPC   C3B49569   8.875  28.333   6.833
 3670POPC   C4B49570   8.942  28.325   7.253
 3671POPC   NC349571  26.002  24.893   5.408
 3671POPC   PO449572  26.435  25.347   5.440
 3671POPC   GL149573  26.202  25.206   5.807
 3671POPC   GL249574  25.808  25.142   5.795
 3671POPC   C1A49575  26.008  25.394   6.189
 3671POPC   D2A49576  26.170  25.538   6.585
 3671POPC   C3A49577  25.957  25.492   6.977
 3671POPC   C4A49578  26.274  25.310   7.203
 3671POPC   C1B49579  25.972  24.878   6.120
 3671POPC   C2B49580  25.905  24.800   6.521
 3671POPC   C3B49581  25.933  24.973   6.929
 3671POPC   C4B49582  25.823  25.041   7.340
 3672POPC   NC349583   7.281  26.245   5.193
 3672POPC   PO449584   7.798  25.800   5.316
 3672POPC   GL149585   7.523  26.037   5.647
 3672POPC   GL249586   7.215  26.295   5.696
 3672POPC   C1A49587   7.496  26.015   6.114
 3672POPC   D2A49588   7.591  26.208   6.513
 3672POPC   C3A49589   7.460  25.960   6.864
 3672POPC   C4A49590   7.429  26.091   7.284
 3672POPC   C1B49591   7.023  26.263   6.121
 3672POPC   C2B49592   7.044  26.034   6.524
 3672POPC   C3B49593   6.978  26.186   6.956
 3672POPC   C4B49594   7.042  26.406   7.358
 3673POPC   NC349595   7.697  28.756   5.551
 3673POPC   PO449596   7.177  29.280   5.435
 3673POPC   GL149597   7.230  29.027   5.809
 3673POPC   GL249598   7.524  29.256   5.841
 3673POPC   C1A49599   7.276  29.054   6.281
 3673POPC   D2A49600   7.430  29.325   6.646
 3673POPC   C3A49601   7.155  29.264   7.010
 3673POPC   C4A49602   6.942  28.918   7.156
 3673POPC   C1B49603   7.772  29.124   6.194
 3673POPC   C2B49604   7.717  28.884   6.568
 3673POPC   C3B49605   7.844  29.130   6.930
 3673POPC   C4B49606   7.613  29.399   7.195
 3674POPC   NC349607  38.880   8.205   5.371
 3674POPC   PO449608  38.253   8.468   5.346
 3674POPC   GL149609  38.474   8.269   5.691
 3674POPC   GL249610  38.750   8.475   5.797
 3674POPC   C1A49611  38.368   8.094   6.109
 3674POPC   D2A49612  38.355   8.280   6.538
 3674POPC   C3A49613  38.186   8.142   6.970
 3674POPC   C4A49614  38.374   8.300   7.370
 3674POPC   C1B49615  38.876   8.072   6.076
 3674POPC   C2B49616  38.719   7.920   6.510
 3674POPC   C3B49617  38.678   8.130   6.931
 3674POPC   C4B49618  38.868   7.972   7.307
 3675POPC   NC349619   7.364  12.491   4.983
 3675POPC   PO449620   7.363  13.039   5.265
 3675POPC   GL149621   7.519  12.850   5.646
 3675POPC   GL249622   7.424  13.152   5.782
 3675POPC   C1A49623   7.368  12.716   6.097
 3675POPC   D2A49624   7.498  12.741   6.543
 3675POPC   C3A49625   7.404  12.726   7.004
 3675POPC   C4A49626   7.619  12.579   7.411
 3675POPC   C1B49627   7.728  13.087   6.063
 3675POPC   C2B49628   7.715  13.199   6.459
 3675POPC   C3B49629   7.815  13.007   6.844
 3675POPC   C4B49630   7.746  13.047   7.219
 3676POPC   NC349631   8.419  24.616   5.312
 3676POPC   PO449632   7.916  24.200   5.218
 3676POPC   GL149633   8.107  24.231   5.682
 3676POPC   GL249634   8.141  24.601   5.753
 3676POPC   C1A49635   8.304  24.329   6.140
 3676POPC   D2A49636   8.380  24.730   6.426
 3676POPC   C3A49637   8.296  24.670   6.880
 3676POPC   C4A49638   8.129  24.468   7.239
 3676POPC   C1B49639   7.898  24.674   6.150
 3676POPC   C2B49640   7.964  24.429   6.537
 3676POPC   C3B49641   7.821  24.210   6.903
 3676POPC   C4B49642   7.620  24.364   7.257
 3677POPC   NC349643  32.655  36.752   5.568
 3677POPC   PO449644  31.974  36.925   5.365
 3677POPC   GL149645  32.129  36.775   5.734
 3677POPC   GL249646  32.259  37.090   5.792
 3677POPC   C1A49647  32.019  36.802   6.161
 3677POPC   D2A49648  32.153  36.698   6.578
 3677POPC   C3A49649  32.049  36.878   6.953
 3677POPC   C4A49650  32.402  36.861   7.253
 3677POPC   C1B49651  32.332  37.246   6.204
 3677POPC   C2B49652  32.432  37.132   6.617
 3677POPC   C3B49653  32.337  37.296   6.994
 3677POPC   C4B49654  32.478  37.519   7.319
 3678POPC   NC349655  28.245  25.107   5.461
 3678POPC   PO449656  28.568  25.679   5.427
 3678POPC   GL149657  28.475  25.401   5.795
 3678POPC   GL249658  28.121  25.472   5.797
 3678POPC   C1A49659  28.642  25.251   6.216
 3678POPC   D2A49660  28.703  25.052   6.609
 3678POPC   C3A49661  28.524  25.299   6.916
 3678POPC   C4A49662  28.500  25.157   7.335
 3678POPC   C1B49663  28.111  25.225   6.196
 3678POPC   C2B49664  28.081  24.854   6.466
 3678POPC   C3B49665  28.188  24.865   6.885
 3678POPC   C4B49666  28.040  24.729   7.273
 3679POPC   NC349667  44.149   1.283   5.343
 3679POPC   PO449668  43.513   1.045   5.421
 3679POPC   GL149669  43.716   1.254   5.785
 3679POPC   GL249670  43.997   1.505   5.781
 3679POPC   C1A49671  43.759   1.157   6.226
 3679POPC   D2A49672  43.945   0.942   6.579
 3679POPC   C3A49673  43.786   1.175   6.952
 3679POPC   C4A49674  43.706   1.191   7.402
 3679POPC   C1B49675  44.263   1.665   6.099
 3679POPC   C2B49676  44.218   1.580   6.505
 3679POPC   C3B49677  44.347   1.578   6.910
 3679POPC   C4B49678  44.089   1.508   7.233
 3680POPC   NC349679  23.578   9.249   5.429
 3680POPC   PO449680  24.196   9.006   5.376
 3680POPC   GL149681  23.928   9.130   5.793
 3680POPC   GL249682  23.610   8.981   5.853
 3680POPC   C1A49683  23.910   8.845   6.217
 3680POPC   D2A49684  24.119   8.762   6.624
 3680POPC   C3A49685  23.857   8.782   6.976
 3680POPC   C4A49686  23.610   8.710   7.332
 3680POPC   C1B49687  23.351   8.916   6.190
 3680POPC   C2B49688  23.530   8.933   6.592
 3680POPC   C3B49689  23.560   9.210   6.930
 3680POPC   C4B49690  23.426   9.196   7.336
 3681POPC   NC349691   3.259  20.797   5.626
 3681POPC   PO449692   3.695  20.429   5.176
 3681POPC   GL149693   3.773  20.489   5.718
 3681POPC   GL249694   3.720  20.801   5.851
 3681POPC   C1A49695   3.568  20.439   6.177
 3681POPC   D2A49696   3.409  20.555   6.587
 3681POPC   C3A49697   3.671  20.420   6.914
 3681POPC   C4A49698   3.501  20.186   7.237
 3681POPC   C1B49699   3.430  20.931   6.224
 3681POPC   C2B49700   3.232  21.040   6.603
 3681POPC   C3B49701   3.232  21.103   7.020
 3681POPC   C4B49702   3.348  20.721   7.179
 3682POPC   NC349703  19.629  36.222   5.113
 3682POPC   PO449704  18.937  36.143   5.349
 3682POPC   GL149705  18.974  36.095   5.764
 3682POPC   GL249706  19.240  35.926   5.846
 3682POPC   C1A49707  18.848  36.111   6.176
 3682POPC   D2A49708  18.918  36.366   6.504
 3682POPC   C3A49709  18.837  36.136   6.877
 3682POPC   C4A49710  18.955  36.218   7.302
 3682POPC   C1B49711  19.349  35.752   6.219
 3682POPC   C2B49712  19.214  35.930   6.566
 3682POPC   C3B49713  19.322  35.973   6.948
 3682POPC   C4B49714  19.638  35.734   7.199
 3683POPC   NC349715  29.862  27.897   4.919
 3683POPC   PO449716  29.921  27.428   5.316
 3683POPC   GL149717  29.837  27.629   5.698
 3683POPC   GL249718  30.173  27.688   5.794
 3683POPC   C1A49719  29.808  27.512   6.150
 3683POPC   D2A49720  29.644  27.442   6.582
 3683POPC   C3A49721  29.817  27.486   6.982
 3683POPC   C4A49722  29.784  27.900   7.138
 3683POPC   C1B49723  30.188  27.824   6.207
 3683POPC   C2B49724  30.164  27.635   6.617
 3683POPC   C3B49725  30.277  27.685   7.058
 3683POPC   C4B49726  30.256  28.064   7.215
 3684POPC   NC349727  18.926  41.121   5.341
 3684POPC   PO449728  19.034  41.781   5.418
 3684POPC   GL149729  19.016  41.452   5.717
 3684POPC   GL249730  18.686  41.434   5.913
 3684POPC   C1A49731  19.166  41.411   6.134
 3684POPC   D2A49732  18.993  41.599   6.505
 3684POPC   C3A49733  19.087  41.450   6.900
 3684POPC   C4A49734  18.972  41.397   7.303
 3684POPC   C1B49735  18.639  41.835   6.199
 3684POPC   C2B49736  18.612  41.930   6.647
 3684POPC   C3B49737  18.650  41.700   7.023
 3684POPC   C4B49738  18.516  41.745   7.432
 3685POPC   NC349739   5.827  19.429   5.547
 3685POPC   PO449740   5.608  18.774   5.426
 3685POPC   GL149741   5.678  19.023   5.818
 3685POPC   GL249742   6.029  19.041   5.914
 3685POPC   C1A49743   5.626  19.038   6.272
 3685POPC   D2A49744   5.835  19.227   6.627
 3685POPC   C3A49745   5.574  19.242   6.973
 3685POPC   C4A49746   5.475  18.963   7.277
 3685POPC   C1B49747   6.085  19.408   6.192
 3685POPC   C2B49748   6.269  19.483   6.614
 3685POPC   C3B49749   6.368  19.285   7.017
 3685POPC   C4B49750   6.040  19.067   7.167
 3686POPC   NC349751   7.627  36.232   5.419
 3686POPC   PO449752   6.988  36.012   5.381
 3686POPC   GL149753   7.268  35.976   5.744
 3686POPC   GL249754   7.545  36.220   5.904
 3686POPC   C1A49755   7.156  36.025   6.161
 3686POPC   D2A49756   7.426  36.166   6.473
 3686POPC   C3A49757   7.354  36.059   6.901
 3686POPC   C4A49758   7.290  36.199   7.326
 3686POPC   C1B49759   7.720  36.489   6.222
 3686POPC   C2B49760   7.675  36.599   6.660
 3686POPC   C3B49761   7.722  36.429   7.094
 3686POPC   C4B49762   7.639  36.535   7.525
 3687POPC   NC349763  17.319  40.569   5.492
 3687POPC   PO449764  17.531  41.215   5.340
 3687POPC   GL149765  17.605  41.028   5.802
 3687POPC   GL249766  17.608  40.656   5.898
 3687POPC   C1A49767  17.458  41.012   6.254
 3687POPC   D2A49768  17.630  40.780   6.639
 3687POPC   C3A49769  17.332  40.835   6.988
 3687POPC   C4A49770  17.203  41.146   7.287
 3687POPC   C1B49771  17.406  40.495   6.273
 3687POPC   C2B49772  17.224  40.426   6.659
 3687POPC   C3B49773  17.509  40.365   6.991
 3687POPC   C4B49774  17.378  40.468   7.382
 3688POPC   NC349775  20.893  36.936   5.363
 3688POPC   PO449776  20.311  36.565   5.533
 3688POPC   GL149777  20.699  36.679   5.766
 3688POPC   GL249778  20.692  37.057   5.817
 3688POPC   C1A49779  20.794  36.707   6.220
 3688POPC   D2A49780  20.930  36.533   6.630
 3688POPC   C3A49781  20.721  36.764   6.980
 3688POPC   C4A49782  20.264  36.799   7.105
 3688POPC   C1B49783  20.941  37.244   6.163
 3688POPC   C2B49784  21.035  37.447   6.582
 3688POPC   C3B49785  20.976  37.376   7.037
 3688POPC   C4B49786  20.950  37.063   7.362
 3689POPC   NC349787  32.172  28.028   5.569
 3689POPC   PO449788  32.274  28.565   5.243
 3689POPC   GL149789  32.363  28.462   5.715
 3689POPC   GL249790  32.522  28.172   5.912
 3689POPC   C1A49791  32.122  28.467   6.111
 3689POPC   D2A49792  32.021  28.305   6.514
 3689POPC   C3A49793  32.219  28.528   6.841
 3689POPC   C4A49794  32.118  28.528   7.291
 3689POPC   C1B49795  32.272  27.970   6.213
 3689POPC   C2B49796  32.321  27.876   6.628
 3689POPC   C3B49797  32.090  28.029   6.944
 3689POPC   C4B49798  32.041  28.011   7.355
 3690POPC   NC349799  44.894  29.760   5.430
 3690POPC   PO449800  44.394  30.214   5.405
 3690POPC   GL149801  44.604  30.068   5.761
 3690POPC   GL249802  44.938  30.205   5.762
 3690POPC   C1A49803  44.616  30.214   6.204
 3690POPC   D2A49804  44.523  30.272   6.637
 3690POPC   C3A49805  44.794  30.154   6.962
 3690POPC   C4A49806  44.594  30.071   7.320
 3690POPC   C1B49807  44.935  29.851   6.086
 3690POPC   C2B49808  44.930  29.883   6.538
 3690POPC   C3B49809  44.983  29.671   6.928
 3690POPC   C4B49810   0.213  29.727   7.300
 3691POPC   NC349811  41.445   9.791   5.436
 3691POPC   PO449812  41.591   9.263   5.222
 3691POPC   GL149813  41.706   9.518   5.745
 3691POPC   GL249814  41.761   9.957   5.810
 3691POPC   C1A49815  41.768   9.664   6.206
 3691POPC   D2A49816  41.551   9.804   6.586
 3691POPC   C3A49817  41.609   9.603   6.975
 3691POPC   C4A49818  41.807   9.550   7.367
 3691POPC   C1B49819  41.899  10.163   6.230
 3691POPC   C2B49820  41.900  10.171   6.709
 3691POPC   C3B49821  41.797  10.053   7.151
 3691POPC   C4B49822  41.999   9.998   7.560
 3692POPC   NC349823  17.414   0.037   5.610
 3692POPC   PO449824  17.767  44.441   5.559
 3692POPC   GL149825  17.440  44.402   5.897
 3692POPC   GL249826  17.441  44.739   6.004
 3692POPC   C1A49827  17.387  44.394   6.361
 3692POPC   D2A49828  17.665  44.477   6.704
 3692POPC   C3A49829  17.515  44.302   7.100
 3692POPC   C4A49830  17.418  44.369   7.549
 3692POPC   C1B49831  17.816  44.723   6.206
 3692POPC   C2B49832  17.969  44.872   6.583
 3692POPC   C3B49833  17.767  44.870   7.004
 3692POPC   C4B49834  17.571  44.835   7.396
 3693POPC   NC349835  11.678  21.806   5.097
 3693POPC   PO449836  12.013  22.191   5.533
 3693POPC   GL149837  12.218  22.181   5.886
 3693POPC   GL249838  12.047  21.867   5.932
 3693POPC   C1A49839  12.329  22.477   6.247
 3693POPC   D2A49840  12.273  22.715   6.645
 3693POPC   C3A49841  12.423  22.513   6.998
 3693POPC   C4A49842  12.294  22.273   7.324
 3693POPC   C1B49843  12.018  22.067   6.340
 3693POPC   C2B49844  12.030  22.253   6.750
 3693POPC   C3B49845  11.899  22.041   7.118
 3693POPC   C4B49846  11.710  21.686   7.259
 3694POPC   NC349847  41.198   9.009   5.261
 3694POPC   PO449848  41.481   8.576   5.668
 3694POPC   GL149849  41.628   9.023   5.708
 3694POPC   GL249850  41.892   8.945   5.794
 3694POPC   C1A49851  41.604   9.191   6.143
 3694POPC   D2A49852  41.485   8.930   6.490
 3694POPC   C3A49853  41.409   9.158   6.838
 3694POPC   C4A49854  41.512   9.142   7.245
 3694POPC   C1B49855  41.897   8.751   6.192
 3694POPC   C2B49856  41.986   8.816   6.622
 3694POPC   C3B49857  41.707   8.738   6.942
 3694POPC   C4B49858  41.901   8.803   7.294
 3695POPC   NC349859  11.568   4.505   5.224
 3695POPC   PO449860  11.048   4.153   5.382
 3695POPC   GL149861  11.179   4.463   5.734
 3695POPC   GL249862  11.129   4.235   6.010
 3695POPC   C1A49863  11.234   4.679   6.184
 3695POPC   D2A49864  11.347   4.550   6.635
 3695POPC   C3A49865  11.269   4.770   7.021
 3695POPC   C4A49866  11.092   4.557   7.356
 3695POPC   C1B49867  11.325   4.120   6.365
 3695POPC   C2B49868  11.177   3.891   6.701
 3695POPC   C3B49869  11.228   4.046   7.097
 3695POPC   C4B49870  11.512   4.340   7.141
 3696POPC   NC349871  18.271  21.189   5.443
 3696POPC   PO449872  17.741  21.113   5.597
 3696POPC   GL149873  18.049  21.187   5.914
 3696POPC   GL249874  18.135  21.517   5.865
 3696POPC   C1A49875  18.229  21.229   6.328
 3696POPC   D2A49876  18.215  21.487   6.702
 3696POPC   C3A49877  18.194  21.246   7.105
 3696POPC   C4A49878  18.059  21.371   7.513
 3696POPC   C1B49879  17.954  21.657   6.263
 3696POPC   C2B49880  17.696  21.598   6.635
 3696POPC   C3B49881  17.783  21.548   7.075
 3696POPC   C4B49882  17.577  21.570   7.486
 3697POPC   NC349883  33.549   1.520   5.546
 3697POPC   PO449884  34.005   0.954   5.533
 3697POPC   GL149885  33.883   1.254   5.830
 3697POPC   GL249886  34.156   1.398   5.939
 3697POPC   C1A49887  33.683   1.191   6.229
 3697POPC   D2A49888  33.795   0.892   6.556
 3697POPC   C3A49889  33.631   1.017   6.945
 3697POPC   C4A49890  33.459   1.300   7.226
 3697POPC   C1B49891  34.107   1.436   6.359
 3697POPC   C2B49892  34.059   1.297   6.753
 3697POPC   C3B49893  33.957   1.369   7.157
 3697POPC   C4B49894  33.785   1.475   7.571
 3698POPC   NC349895  20.318  32.216   5.566
 3698POPC   PO449896  20.935  32.103   5.462
 3698POPC   GL149897  20.751  32.365   5.791
 3698POPC   GL249898  20.684  32.066   5.903
 3698POPC   C1A49899  20.530  32.474   6.190
 3698POPC   D2A49900  20.685  32.404   6.613
 3698POPC   C3A49901  20.641  32.598   6.988
 3698POPC   C4A49902  20.486  32.494   7.401
 3698POPC   C1B49903  20.792  32.046   6.270
 3698POPC   C2B49904  20.462  31.955   6.541
 3698POPC   C3B49905  20.436  32.105   6.954
 3698POPC   C4B49906  20.586  31.910   7.307
 3699POPC   NC349907   3.821  32.894   5.401
 3699POPC   PO449908   3.158  33.062   5.198
 3699POPC   GL149909   3.337  32.998   5.656
 3699POPC   GL249910   3.665  33.194   5.784
 3699POPC   C1A49911   3.370  32.979   6.130
 3699POPC   D2A49912   3.522  32.860   6.549
 3699POPC   C3A49913   3.375  33.043   6.903
 3699POPC   C4A49914   3.302  32.865   7.275
 3699POPC   C1B49915   3.851  33.136   6.197
 3699POPC   C2B49916   3.983  33.089   6.619
 3699POPC   C3B49917   3.860  33.156   7.026
 3699POPC   C4B49918   3.571  33.400   7.273
 3700POPC   NC349919  11.711  18.397   5.380
 3700POPC   PO449920  12.213  18.899   5.269
 3700POPC   GL149921  12.146  18.557   5.621
 3700POPC   GL249922  12.343  18.223   5.690
 3700POPC   C1A49923  12.162  18.512   6.077
 3700POPC   D2A49924  12.068  18.718   6.458
 3700POPC   C3A49925  12.055  18.464   6.845
 3700POPC   C4A49926  12.309  18.371   7.270
 3700POPC   C1B49927  12.139  18.007   6.066
 3700POPC   C2B49928  11.912  18.114   6.468
 3700POPC   C3B49929  11.747  17.894   6.843
 3700POPC   C4B49930  11.798  17.765   7.269
 3701POPC   NC349931  10.478  35.501   5.184
 3701POPC   PO449932  10.141  34.978   5.333
 3701POPC   GL149933  10.363  35.100   5.717
 3701POPC   GL249934  10.535  35.432   5.703
 3701POPC   C1A49935  10.272  35.293   6.121
 3701POPC   D2A49936  10.393  35.564   6.453
 3701POPC   C3A49937  10.299  35.252   6.744
 3701POPC   C4A49938  10.250  35.217   7.154
 3701POPC   C1B49939  10.770  35.335   6.100
 3701POPC   C2B49940  10.819  35.289   6.566
 3701POPC   C3B49941  10.738  35.281   7.030
 3701POPC   C4B49942  10.605  35.449   7.449
 3702POPC   NC349943  11.647  44.852   5.273
 3702POPC   PO449944  12.126  44.435   5.334
 3702POPC   GL149945  12.137  44.766   5.635
 3702POPC   GL249946  11.789  44.697   5.752
 3702POPC   C1A49947  12.152  44.877   6.095
 3702POPC   D2A49948  11.860  44.868   6.459
 3702POPC   C3A49949  11.975  44.909   6.879
 3702POPC   C4A49950  12.058  44.784   7.295
 3702POPC   C1B49951  11.743  44.444   6.153
 3702POPC   C2B49952  11.930  44.338   6.552
 3702POPC   C3B49953  11.963  44.391   6.968
 3702POPC   C4B49954  12.330  44.381   7.237
 3703POPC   NC349955  29.620  41.368   5.505
 3703POPC   PO449956  30.310  41.595   5.369
 3703POPC   GL149957  30.101  41.562   5.775
 3703POPC   GL249958  29.778  41.748   5.791
 3703POPC   C1A49959  29.994  41.445   6.205
 3703POPC   D2A49960  29.916  41.670   6.598
 3703POPC   C3A49961  30.155  41.592   6.965
 3703POPC   C4A49962  30.076  41.308   7.276
 3703POPC   C1B49963  29.640  41.873   6.170
 3703POPC   C2B49964  29.416  41.683   6.490
 3703POPC   C3B49965  29.494  41.835   6.876
 3703POPC   C4B49966  29.634  41.559   7.146
 3704POPC   NC349967  24.382   9.439   5.408
 3704POPC   PO449968  24.851   9.928   5.453
 3704POPC   GL149969  24.741   9.840   5.881
 3704POPC   GL249970  24.656   9.488   5.877
 3704POPC   C1A49971  24.446   9.883   6.247
 3704POPC   D2A49972  24.150   9.821   6.609
 3704POPC   C3A49973  24.310   9.850   7.047
 3704POPC   C4A49974  24.271  10.076   7.463
 3704POPC   C1B49975  24.853   9.260   6.222
 3704POPC   C2B49976  24.999   9.141   6.662
 3704POPC   C3B49977  25.082   9.417   7.016
 3704POPC   C4B49978  24.793   9.745   7.177
 3705POPC   NC349979  17.141  19.771   5.472
 3705POPC   PO449980  16.578  19.750   5.391
 3705POPC   GL149981  16.778  19.748   5.831
 3705POPC   GL249982  16.732  20.103   5.933
 3705POPC   C1A49983  16.794  19.786   6.315
 3705POPC   D2A49984  16.870  19.999   6.728
 3705POPC   C3A49985  16.728  19.758   7.072
 3705POPC   C4A49986  16.524  19.391   7.285
 3705POPC   C1B49987  16.583  20.266   6.362
 3705POPC   C2B49988  16.431  20.256   6.797
 3705POPC   C3B49989  16.647  20.282   7.193
 3705POPC   C4B49990  16.645  20.389   7.647
 3706POPC   NC349991  18.659  39.128   5.142
 3706POPC   PO449992  18.062  39.317   5.379
 3706POPC   GL149993  17.869  39.189   5.793
 3706POPC   GL249994  18.203  39.112   5.931
 3706POPC   C1A49995  17.879  39.404   6.203
 3706POPC   D2A49996  18.207  39.429   6.500
 3706POPC   C3A49997  18.019  39.449   6.897
 3706POPC   C4A49998  18.279  39.404   7.235
 3706POPC   C1B49999  18.483  38.840   6.180
 3706POPC   C2B50000  18.642  38.962   6.581
 3706POPC   C3B50001  18.681  38.976   7.014
 3706POPC   C4B50002  18.427  38.928   7.339
 3707POPC   NC350003  40.323   7.996   5.570
 3707POPC   PO450004  39.973   8.596   5.628
 3707POPC   GL150005  40.119   8.336   5.902
 3707POPC   GL250006  39.852   8.155   5.968
 3707POPC   C1A50007  40.283   8.160   6.265
 3707POPC   D2A50008  40.080   7.936   6.589
 3707POPC   C3A50009  40.212   8.123   6.964
 3707POPC   C4A50010  40.550   8.375   7.156
 3707POPC   C1B50011  39.700   8.509   6.237
 3707POPC   C2B50012  39.843   8.676   6.671
 3707POPC   C3B50013  40.034   8.578   7.084
 3707POPC   C4B50014  39.884   8.226   7.374
 3708POPC   NC350015  34.200  29.169   5.100
 3708POPC   PO450016  34.695  28.980   5.522
 3708POPC   GL150017  34.752  28.959   5.917
 3708POPC   GL250018  34.805  29.301   5.940
 3708POPC   C1A50019  34.579  28.908   6.326
 3708POPC   D2A50020  34.420  29.090   6.731
 3708POPC   C3A50021  34.311  28.861   7.130
 3708POPC   C4A50022  34.540  28.936   7.527
 3708POPC   C1B50023  34.845  29.359   6.373
 3708POPC   C2B50024  34.868  29.339   6.806
 3708POPC   C3B50025  34.761  29.345   7.246
 3708POPC   C4B50026  34.761  29.535   7.641
 3709POPC   NC350027  26.860   6.295   5.396
 3709POPC   PO450028  27.014   7.024   5.412
 3709POPC   GL150029  26.777   6.788   5.693
 3709POPC   GL250030  27.037   6.577   5.787
 3709POPC   C1A50031  26.677   6.813   6.134
 3709POPC   D2A50032  26.827   6.752   6.574
 3709POPC   C3A50033  26.646   6.734   6.970
 3709POPC   C4A50034  26.721   6.993   7.296
 3709POPC   C1B50035  27.252   6.408   6.144
 3709POPC   C2B50036  27.285   6.512   6.582
 3709POPC   C3B50037  27.086   6.395   6.965
 3709POPC   C4B50038  26.960   6.555   7.353
 3710POPC   NC350039  40.568   3.255   5.400
 3710POPC   PO450040  41.183   3.634   5.414
 3710POPC   GL150041  40.959   3.714   5.797
 3710POPC   GL250042  40.841   3.366   5.860
 3710POPC   C1A50043  40.911   3.786   6.244
 3710POPC   D2A50044  40.571   3.777   6.554
 3710POPC   C3A50045  40.714   3.680   6.969
 3710POPC   C4A50046  40.843   3.581   7.360
 3710POPC   C1B50047  40.661   3.321   6.282
 3710POPC   C2B50048  40.549   3.257   6.704
 3710POPC   C3B50049  40.530   3.213   7.152
 3710POPC   C4B50050  40.364   3.191   7.597
 3711POPC   NC350051  19.391  37.482   5.447
 3711POPC   PO450052  18.748  37.836   5.405
 3711POPC   GL150053  19.016  37.917   5.759
 3711POPC   GL250054  19.032  37.576   5.800
 3711POPC   C1A50055  19.151  37.921   6.207
 3711POPC   D2A50056  19.327  37.775   6.599
 3711POPC   C3A50057  19.199  37.876   6.989
 3711POPC   C4A50058  18.999  37.837   7.385
 3711POPC   C1B50059  19.281  37.419   6.115
 3711POPC   C2B50060  19.103  37.304   6.461
 3711POPC   C3B50061  19.155  37.342   6.882
 3711POPC   C4B50062  19.224  36.985   7.138
 3712POPC   NC350063  37.131  41.027   5.339
 3712POPC   PO450064  36.604  40.596   5.349
 3712POPC   GL150065  36.755  40.855   5.684
 3712POPC   GL250066  37.094  40.733   5.751
 3712POPC   C1A50067  36.846  40.991   6.107
 3712POPC   D2A50068  36.682  41.138   6.493
 3712POPC   C3A50069  36.926  40.952   6.816
 3712POPC   C4A50070  36.900  40.867   7.229
 3712POPC   C1B50071  37.230  40.560   6.162
 3712POPC   C2B50072  37.104  40.534   6.607
 3712POPC   C3B50073  37.273  40.575   7.036
 3712POPC   C4B50074  37.258  40.627   7.480
 3713POPC   NC350075  30.500   1.820   5.253
 3713POPC   PO450076  31.107   1.738   5.425
 3713POPC   GL150077  30.869   1.963   5.783
 3713POPC   GL250078  30.908   2.319   5.692
 3713POPC   C1A50079  30.694   1.974   6.277
 3713POPC   D2A50080  30.780   1.999   6.785
 3713POPC   C3A50081  30.445   2.006   7.157
 3713POPC   C4A50082  30.468   1.830   7.606
 3713POPC   C1B50083  30.988   2.369   6.162
 3713POPC   C2B50084  30.771   2.466   6.593
 3713POPC   C3B50085  30.728   2.431   7.075
 3713POPC   C4B50086  30.593   2.679   7.455
 3714POPC   NC350087   7.588  14.088   5.423
 3714POPC   PO450088   7.249  14.720   5.410
 3714POPC   GL150089   7.266  14.379   5.763
 3714POPC   GL250090   7.542  14.145   5.924
 3714POPC   C1A50091   7.280  14.450   6.221
 3714POPC   D2A50092   7.445  14.567   6.619
 3714POPC   C3A50093   7.169  14.521   6.963
 3714POPC   C4A50094   7.258  14.372   7.397
 3714POPC   C1B50095   7.578  14.040   6.387
 3714POPC   C2B50096   7.684  13.885   6.800
 3714POPC   C3B50097   7.704  14.098   7.202
 3714POPC   C4B50098   7.773  14.336   7.595
 3715POPC   NC350099  35.877  17.450   5.552
 3715POPC   PO450100  35.304  17.163   5.407
 3715POPC   GL150101  35.423  17.403   5.775
 3715POPC   GL250102  35.247  17.695   5.870
 3715POPC   C1A50103  35.416  17.373   6.217
 3715POPC   D2A50104  35.294  17.621   6.571
 3715POPC   C3A50105  35.397  17.403   6.954
 3715POPC   C4A50106  35.307  17.636   7.333
 3715POPC   C1B50107  35.586  17.852   6.181
 3715POPC   C2B50108  35.765  17.809   6.619
 3715POPC   C3B50109  35.715  17.811   7.081
 3715POPC   C4B50110  35.696  17.812   7.613
 3716POPC   NC350111  10.761   5.492   5.404
 3716POPC   PO450112  10.507   4.991   5.457
 3716POPC   GL150113  10.778   4.952   5.835
 3716POPC   GL250114  10.747   4.628   5.943
 3716POPC   C1A50115  10.844   5.003   6.322
 3716POPC   D2A50116  10.946   5.086   6.790
 3716POPC   C3A50117  10.653   5.292   7.099
 3716POPC   C4A50118  10.573   5.387   7.542
 3716POPC   C1B50119  10.780   4.494   6.369
 3716POPC   C2B50120  10.590   4.723   6.716
 3716POPC   C3B50121  10.687   4.782   7.150
 3716POPC   C4B50122  10.611   4.537   7.534
 3717POPC   NC350123  35.597  12.371   5.361
 3717POPC   PO450124  35.543  13.042   5.410
 3717POPC   GL150125  35.571  12.877   5.833
 3717POPC   GL250126  35.387  13.154   5.938
 3717POPC   C1A50127  35.608  12.647   6.259
 3717POPC   D2A50128  35.611  12.480   6.737
 3717POPC   C3A50129  35.559  12.747   7.143
 3717POPC   C4A50130  35.431  13.214   7.148
 3717POPC   C1B50131  35.344  13.068   6.374
 3717POPC   C2B50132  35.246  12.910   6.777
 3717POPC   C3B50133  35.036  12.885   7.203
 3717POPC   C4B50134  34.855  12.853   7.639
 3718POPC   NC350135  37.975  32.232   5.331
 3718POPC   PO450136  38.478  32.711   5.406
 3718POPC   GL150137  38.526  32.334   5.710
 3718POPC   GL250138  38.266  32.083   5.729
 3718POPC   C1A50139  38.568  32.119   6.134
 3718POPC   D2A50140  38.486  32.280   6.533
 3718POPC   C3A50141  38.658  32.124   6.936
 3718POPC   C4A50142  38.559  32.246   7.338
 3718POPC   C1B50143  38.129  32.431   6.029
 3718POPC   C2B50144  37.980  32.456   6.473
 3718POPC   C3B50145  38.192  32.367   6.923
 3718POPC   C4B50146  38.121  32.047   7.198
 3719POPC   NC350147  32.418  28.997   5.154
 3719POPC   PO450148  32.027  29.420   5.465
 3719POPC   GL150149  32.376  29.215   5.665
 3719POPC   GL250150  32.187  28.927   5.735
 3719POPC   C1A50151  32.414  29.153   6.125
 3719POPC   D2A50152  32.191  29.203   6.515
 3719POPC   C3A50153  32.386  29.216   6.917
 3719POPC   C4A50154  32.438  28.872   7.145
 3719POPC   C1B50155  31.921  28.952   6.127
 3719POPC   C2B50156  31.874  28.798   6.544
 3719POPC   C3B50157  31.944  28.945   6.953
 3719POPC   C4B50158  31.674  28.822   7.257
 3720POPC   NC350159  19.930  24.872   5.331
 3720POPC   PO450160  20.032  25.524   5.472
 3720POPC   GL150161  19.810  25.415   5.814
 3720POPC   GL250162  19.841  25.054   5.815
 3720POPC   C1A50163  19.923  25.413   6.249
 3720POPC   D2A50164  20.139  25.351   6.615
 3720POPC   C3A50165  19.844  25.466   6.880
 3720POPC   C4A50166  19.694  25.542   7.232
 3720POPC   C1B50167  19.945  24.918   6.226
 3720POPC   C2B50168  20.086  24.852   6.643
 3720POPC   C3B50169  20.089  25.042   7.046
 3720POPC   C4B50170  19.691  25.016   7.202
 3721POPC   NC350171  11.403  25.066   5.157
 3721POPC   PO450172  10.721  25.192   5.430
 3721POPC   GL150173  11.041  25.373   5.747
 3721POPC   GL250174  10.940  25.664   5.974
 3721POPC   C1A50175  11.408  25.466   6.058
 3721POPC   D2A50176  11.556  25.501   6.509
 3721POPC   C3A50177  11.493  25.293   6.928
 3721POPC   C4A50178  11.381  25.505   7.329
 3721POPC   C1B50179  10.960  25.244   6.228
 3721POPC   C2B50180  10.914  25.117   6.656
 3721POPC   C3B50181  10.991  25.289   7.067
 3721POPC   C4B50182  11.002  25.180   7.495
 3722POPC   NC350183  38.321  14.755   5.338
 3722POPC   PO450184  38.649  14.185   5.338
 3722POPC   GL150185  38.391  14.354   5.689
 3722POPC   GL250186  38.686  14.466   5.859
 3722POPC   C1A50187  38.250  14.551   6.110
 3722POPC   D2A50188  38.282  14.358   6.524
 3722POPC   C3A50189  38.209  14.356   6.951
 3722POPC   C4A50190  38.207  14.389   7.374
 3722POPC   C1B50191  38.753  14.461   6.315
 3722POPC   C2B50192  38.725  14.415   6.761
 3722POPC   C3B50193  38.861  14.517   7.162
 3722POPC   C4B50194  39.019  14.907   7.323
 3723POPC   NC350195  17.325  13.019   4.959
 3723POPC   PO450196  17.769  12.833   5.490
 3723POPC   GL150197  17.638  12.718   5.874
 3723POPC   GL250198  17.307  12.855   5.796
 3723POPC   C1A50199  17.461  12.596   6.266
 3723POPC   D2A50200  17.557  12.763   6.654
 3723POPC   C3A50201  17.359  12.678   7.028
 3723POPC   C4A50202  17.719  12.654   7.246
 3723POPC   C1B50203  17.107  12.964   6.182
 3723POPC   C2B50204  17.057  12.812   6.595
 3723POPC   C3B50205  17.058  13.079   6.956
 3723POPC   C4B50206  16.936  12.991   7.340
 3724POPC   NC350207  33.375  19.998   5.433
 3724POPC   PO450208  32.826  19.594   5.219
 3724POPC   GL150209  32.846  19.569   5.700
 3724POPC   GL250210  33.145  19.339   5.802
 3724POPC   C1A50211  32.847  19.684   6.147
 3724POPC   D2A50212  32.683  19.658   6.564
 3724POPC   C3A50213  32.815  20.007   6.832
 3724POPC   C4A50214  32.935  20.054   7.273
 3724POPC   C1B50215  33.327  19.522   6.200
 3724POPC   C2B50216  33.224  19.853   6.514
 3724POPC   C3B50217  33.310  19.877   6.959
 3724POPC   C4B50218  33.307  19.717   7.389
 3725POPC   NC350219  23.753  25.800   5.458
 3725POPC   PO450220  23.646  26.395   5.612
 3725POPC   GL150221  23.864  26.150   5.829
 3725POPC   GL250222  24.183  26.262   5.909
 3725POPC   C1A50223  23.643  25.982   6.156
 3725POPC   D2A50224  23.598  26.135   6.552
 3725POPC   C3A50225  23.376  26.047   6.904
 3725POPC   C4A50226  23.455  26.257   7.326
 3725POPC   C1B50227  24.159  25.832   6.087
 3725POPC   C2B50228  23.956  25.744   6.479
 3725POPC   C3B50229  23.770  25.704   6.880
 3725POPC   C4B50230  24.021  25.649   7.211
 3726POPC   NC350231   7.747  27.115   5.068
 3726POPC   PO450232   8.068  26.659   5.506
 3726POPC   GL150233   8.147  26.837   5.868
 3726POPC   GL250234   8.478  26.941   5.950
 3726POPC   C1A50235   7.921  26.722   6.220
 3726POPC   D2A50236   8.037  26.854   6.585
 3726POPC   C3A50237   8.019  26.601   6.928
 3726POPC   C4A50238   8.005  26.807   7.271
 3726POPC   C1B50239   8.431  26.563   6.196
 3726POPC   C2B50240   8.515  26.672   6.608
 3726POPC   C3B50241   8.432  26.898   6.946
 3726POPC   C4B50242   8.533  26.816   7.338
 3727POPC   NC350243   7.971  42.862   5.363
 3727POPC   PO450244   8.595  42.806   5.441
 3727POPC   GL150245   8.336  42.891   5.796
 3727POPC   GL250246   7.988  42.794   5.885
 3727POPC   C1A50247   8.356  42.954   6.239
 3727POPC   D2A50248   8.154  42.927   6.611
 3727POPC   C3A50249   8.420  43.139   6.867
 3727POPC   C4A50250   8.301  43.073   7.258
 3727POPC   C1B50251   8.047  43.278   6.019
 3727POPC   C2B50252   8.022  43.460   6.475
 3727POPC   C3B50253   7.919  43.295   6.917
 3727POPC   C4B50254   7.841  42.888   7.159
 3728POPC   NC350255   4.150  14.665   5.480
 3728POPC   PO450256   4.317  14.028   5.549
 3728POPC   GL150257   4.362  14.345   5.819
 3728POPC   GL250258   4.009  14.352   5.850
 3728POPC   C1A50259   4.563  14.488   6.200
 3728POPC   D2A50260   4.676  14.307   6.585
 3728POPC   C3A50261   4.610  14.524   6.987
 3728POPC   C4A50262   4.312  14.407   7.315
 3728POPC   C1B50263   4.107  14.673   6.143
 3728POPC   C2B50264   4.273  14.756   6.550
 3728POPC   C3B50265   4.124  14.689   6.929
 3728POPC   C4B50266   3.865  14.735   7.273
 3729POPC   NC350267  36.058  13.204   5.346
 3729POPC   PO450268  36.445  12.650   5.331
 3729POPC   GL150269  36.411  12.867   5.755
 3729POPC   GL250270  36.074  13.010   5.816
 3729POPC   C1A50271  36.424  12.972   6.222
 3729POPC   D2A50272  36.330  13.020   6.688
 3729POPC   C3A50273  36.308  12.734   7.019
 3729POPC   C4A50274  36.036  12.702   7.378
 3729POPC   C1B50275  35.905  13.080   6.223
 3729POPC   C2B50276  35.809  12.939   6.646
 3729POPC   C3B50277  35.915  13.085   7.046
 3729POPC   C4B50278  35.819  13.174   7.500
 3730POPC   NC350279  13.076  23.279   5.397
 3730POPC   PO450280  12.477  23.030   5.637
 3730POPC   GL150281  12.911  22.907   5.751
 3730POPC   GL250282  13.048  22.544   5.762
 3730POPC   C1A50283  12.942  22.901   6.198
 3730POPC   D2A50284  12.952  23.158   6.571
 3730POPC   C3A50285  12.682  22.981   6.880
 3730POPC   C4A50286  12.673  22.867   7.308
 3730POPC   C1B50287  13.315  22.574   6.159
 3730POPC   C2B50288  13.260  22.737   6.600
 3730POPC   C3B50289  13.087  22.685   7.031
 3730POPC   C4B50290  13.145  22.654   7.523
 3731POPC   NC350291  27.976  20.382   5.437
 3731POPC   PO450292  27.692  20.933   5.149
 3731POPC   GL150293  27.614  20.782   5.670
 3731POPC   GL250294  27.692  20.481   5.860
 3731POPC   C1A50295  27.724  20.871   6.161
 3731POPC   D2A50296  27.692  20.573   6.547
 3731POPC   C3A50297  27.283  20.554   6.804
 3731POPC   C4A50298  27.261  20.842   7.164
 3731POPC   C1B50299  28.020  20.437   6.163
 3731POPC   C2B50300  28.103  20.233   6.568
 3731POPC   C3B50301  28.001  20.276   7.025
 3731POPC   C4B50302  27.615  20.434   7.195
 3732POPC   NC350303  11.785  30.820   5.512
 3732POPC   PO450304  11.195  30.503   5.356
 3732POPC   GL150305  11.242  30.727   5.777
 3732POPC   GL250306  11.461  31.071   5.808
 3732POPC   C1A50307  11.176  30.492   6.210
 3732POPC   D2A50308  11.208  30.199   6.568
 3732POPC   C3A50309  11.298  30.402   6.963
 3732POPC   C4A50310  11.138  30.769   7.180
 3732POPC   C1B50311  11.563  30.806   6.158
 3732POPC   C2B50312  11.382  30.829   6.567
 3732POPC   C3B50313  11.600  30.939   6.901
 3732POPC   C4B50314  11.645  30.797   7.269
 3733POPC   NC350315   5.689  34.223   5.576
 3733POPC   PO450316   6.078  33.680   5.495
 3733POPC   GL150317   5.926  33.811   5.850
 3733POPC   GL250318   6.122  34.117   5.851
 3733POPC   C1A50319   5.602  33.864   6.170
 3733POPC   D2A50320   5.638  34.024   6.594
 3733POPC   C3A50321   5.771  33.762   6.952
 3733POPC   C4A50322   5.625  33.715   7.363
 3733POPC   C1B50323   6.072  34.047   6.265
 3733POPC   C2B50324   6.150  33.898   6.628
 3733POPC   C3B50325   6.158  34.124   6.991
 3733POPC   C4B50326   6.101  33.923   7.350
 3734POPC   NC350327   4.002  20.184   4.941
 3734POPC   PO450328   4.271  19.785   5.503
 3734POPC   GL150329   4.290  19.904   5.889
 3734POPC   GL250330   4.192  20.222   5.876
 3734POPC   C1A50331   4.471  20.023   6.281
 3734POPC   D2A50332   4.646  20.013   6.684
 3734POPC   C3A50333   4.418  19.792   7.015
 3734POPC   C4A50334   4.416  19.443   7.318
 3734POPC   C1B50335   3.952  20.103   6.226
 3734POPC   C2B50336   4.072  19.947   6.622
 3734POPC   C3B50337   3.932  19.987   7.020
 3734POPC   C4B50338   4.127  20.284   7.219
 3735POPC   NC350339  29.769   0.523   4.942
 3735POPC   PO450340  30.081   0.101   5.422
 3735POPC   GL150341  29.988   0.117   5.876
 3735POPC   GL250342  30.105  44.834   6.002
 3735POPC   C1A50343  30.068   0.343   6.257
 3735POPC   D2A50344  30.158   0.267   6.649
 3735POPC   C3A50345  30.121   0.175   7.056
 3735POPC   C4A50346  30.089   0.483   7.366
 3735POPC   C1B50347  29.785  44.915   6.323
 3735POPC   C2B50348  29.679   0.065   6.755
 3735POPC   C3B50349  29.581   0.086   7.211
 3735POPC   C4B50350  29.896   0.040   7.491
 3736POPC   NC350351   6.437  37.278   5.219
 3736POPC   PO450352   6.814  36.720   5.260
 3736POPC   GL150353   6.773  36.789   5.706
 3736POPC   GL250354   6.603  37.093   5.729
 3736POPC   C1A50355   6.851  36.909   6.154
 3736POPC   D2A50356   6.665  36.821   6.551
 3736POPC   C3A50357   6.830  36.923   6.945
 3736POPC   C4A50358   6.601  36.984   7.310
 3736POPC   C1B50359   6.405  37.185   6.145
 3736POPC   C2B50360   6.461  37.309   6.557
 3736POPC   C3B50361   6.330  37.155   6.918
 3736POPC   C4B50362   6.156  37.227   7.302
 3737POPC   NC350363  37.951  27.521   5.876
 3737POPC   PO450364  38.288  27.832   5.352
 3737POPC   GL150365  38.412  27.718   5.838
 3737POPC   GL250366  38.413  27.335   5.950
 3737POPC   C1A50367  38.379  27.650   6.350
 3737POPC   D2A50368  38.491  27.374   6.714
 3737POPC   C3A50369  38.559  27.534   7.121
 3737POPC   C4A50370  38.347  27.559   7.491
 3737POPC   C1B50371  38.172  27.172   6.360
 3737POPC   C2B50372  37.990  27.294   6.774
 3737POPC   C3B50373  38.156  27.192   7.188
 3737POPC   C4B50374  38.207  26.810   7.411
 3738POPC   NC350375  29.537  30.909   5.332
 3738POPC   PO450376  28.998  30.597   5.266
 3738POPC   GL150377  29.061  30.680   5.701
 3738POPC   GL250378  29.193  30.991   5.816
 3738POPC   C1A50379  29.160  30.510   6.122
 3738POPC   D2A50380  29.141  30.595   6.593
 3738POPC   C3A50381  29.426  30.568   6.957
 3738POPC   C4A50382  29.213  30.438   7.349
 3738POPC   C1B50383  28.985  30.974   6.264
 3738POPC   C2B50384  28.885  31.032   6.731
 3738POPC   C3B50385  29.092  30.912   7.128
 3738POPC   C4B50386  29.327  31.069   7.522
 3739POPC   NC350387   0.860  31.361   5.456
 3739POPC   PO450388   1.224  31.767   5.154
 3739POPC   GL150389   1.244  31.723   5.660
 3739POPC   GL250390   1.193  31.397   5.844
 3739POPC   C1A50391   1.088  31.813   6.129
 3739POPC   D2A50392   0.976  31.667   6.545
 3739POPC   C3A50393   0.987  31.828   6.960
 3739POPC   C4A50394   0.774  31.723   7.374
 3739POPC   C1B50395   1.075  31.243   6.280
 3739POPC   C2B50396   1.113  31.217   6.762
 3739POPC   C3B50397   1.193  31.398   7.202
 3739POPC   C4B50398   1.403  31.220   7.587
 3740POPC   NC350399  15.899  43.434   5.409
 3740POPC   PO450400  15.678  42.824   5.414
 3740POPC   GL150401  15.874  43.073   5.785
 3740POPC   GL250402  16.204  43.190   5.770
 3740POPC   C1A50403  15.957  43.256   6.235
 3740POPC   D2A50404  16.157  43.338   6.647
 3740POPC   C3A50405  16.027  43.316   7.092
 3740POPC   C4A50406  15.733  43.232   7.456
 3740POPC   C1B50407  16.170  42.799   6.091
 3740POPC   C2B50408  16.005  42.693   6.518
 3740POPC   C3B50409  16.141  42.816   6.945
 3740POPC   C4B50410  16.036  42.824   7.409
 3741POPC   NC350411  35.222  13.361   5.466
 3741POPC   PO450412  35.653  13.945   5.403
 3741POPC   GL150413  35.475  13.913   5.840
 3741POPC   GL250414  35.252  13.673   5.862
 3741POPC   C1A50415  35.286  13.987   6.282
 3741POPC   D2A50416  35.453  13.825   6.675
 3741POPC   C3A50417  35.285  13.766   7.121
 3741POPC   C4A50418  35.144  13.912   7.544
 3741POPC   C1B50419  35.107  13.510   6.250
 3741POPC   C2B50420  35.119  13.433   6.699
 3741POPC   C3B50421  34.931  13.376   7.090
 3741POPC   C4B50422  35.126  13.418   7.491
 3742POPC   NC350423  20.301   2.078   5.383
 3742POPC   PO450424  20.952   1.901   5.392
 3742POPC   GL150425  20.668   1.781   5.721
 3742POPC   GL250426  20.601   2.094   5.803
 3742POPC   C1A50427  20.602   1.744   6.198
 3742POPC   D2A50428  20.542   1.938   6.629
 3742POPC   C3A50429  20.891   1.901   6.936
 3742POPC   C4A50430  21.025   1.990   7.382
 3742POPC   C1B50431  20.539   2.260   6.207
 3742POPC   C2B50432  20.371   2.436   6.594
 3742POPC   C3B50433  20.468   2.396   7.000
 3742POPC   C4B50434  20.565   2.168   7.356
 3743POPC   NC350435  12.477  15.880   5.150
 3743POPC   PO450436  13.009  15.660   5.488
 3743POPC   GL150437  12.774  15.686   5.842
 3743POPC   GL250438  12.852  15.989   5.918
 3743POPC   C1A50439  12.599  15.731   6.259
 3743POPC   D2A50440  12.508  15.996   6.607
 3743POPC   C3A50441  12.848  15.975   6.896
 3743POPC   C4A50442  12.953  15.688   7.210
 3743POPC   C1B50443  13.117  16.246   6.180
 3743POPC   C2B50444  13.308  16.231   6.563
 3743POPC   C3B50445  13.256  16.305   6.968
 3743POPC   C4B50446  13.101  16.189   7.355
 3744POPC   NC350447  26.568  10.094   5.641
 3744POPC   PO450448  27.018  10.571   5.431
 3744POPC   GL150449  26.914  10.542   5.825
 3744POPC   GL250450  26.581  10.582   5.801
 3744POPC   C1A50451  26.914  10.380   6.221
 3744POPC   D2A50452  27.014  10.586   6.572
 3744POPC   C3A50453  26.845  10.425   6.936
 3744POPC   C4A50454  27.050  10.541   7.285
 3744POPC   C1B50455  26.454  10.655   6.221
 3744POPC   C2B50456  26.576  10.869   6.601
 3744POPC   C3B50457  26.681  10.926   7.052
 3744POPC   C4B50458  26.702  10.865   7.513
 3745POPC   NC350459   5.405  34.907   5.290
 3745POPC   PO450460   6.001  34.591   5.508
 3745POPC   GL150461   5.893  34.565   5.957
 3745POPC   GL250462   5.542  34.540   5.951
 3745POPC   C1A50463   5.862  34.481   6.439
 3745POPC   D2A50464   5.601  34.477   6.840
 3745POPC   C3A50465   5.811  34.413   7.238
 3745POPC   C4A50466   6.197  34.687   7.215
 3745POPC   C1B50467   5.577  34.860   6.260
 3745POPC   C2B50468   5.670  34.983   6.689
 3745POPC   C3B50469   5.705  34.907   7.140
 3745POPC   C4B50470   5.445  34.973   7.497
 3746POPC   NC350471  34.742  41.168   5.448
 3746POPC   PO450472  34.210  40.626   5.452
 3746POPC   GL150473  34.509  40.847   5.786
 3746POPC   GL250474  34.741  40.595   5.910
 3746POPC   C1A50475  34.694  40.971   6.229
 3746POPC   D2A50476  34.655  40.767   6.642
 3746POPC   C3A50477  34.568  41.022   7.023
 3746POPC   C4A50478  34.283  41.186   7.374
 3746POPC   C1B50479  35.040  40.599   6.278
 3746POPC   C2B50480  35.144  40.534   6.721
 3746POPC   C3B50481  34.900  40.640   7.089
 3746POPC   C4B50482  34.465  40.501   7.063
 3747POPC   NC350483  40.482  41.331   5.606
 3747POPC   PO450484  40.999  41.494   5.207
 3747POPC   GL150485  40.948  41.667   5.752
 3747POPC   GL250486  40.584  41.737   5.866
 3747POPC   C1A50487  40.917  41.488   6.227
 3747POPC   D2A50488  41.174  41.254   6.549
 3747POPC   C3A50489  41.002  41.166   6.943
 3747POPC   C4A50490  40.629  41.329   7.184
 3747POPC   C1B50491  40.393  41.571   6.261
 3747POPC   C2B50492  40.499  41.683   6.694
 3747POPC   C3B50493  40.457  41.809   7.133
 3747POPC   C4B50494  40.435  41.637   7.575
 3748POPC   NC350495  15.251  16.067   5.596
 3748POPC   PO450496  14.633  15.880   5.434
 3748POPC   GL150497  14.900  15.731   5.797
 3748POPC   GL250498  15.260  15.662   5.915
 3748POPC   C1A50499  14.869  15.803   6.241
 3748POPC   D2A50500  15.052  15.942   6.623
 3748POPC   C3A50501  14.900  15.827   6.967
 3748POPC   C4A50502  15.160  15.830   7.299
 3748POPC   C1B50503  15.346  16.038   6.222
 3748POPC   C2B50504  15.364  16.328   6.609
 3748POPC   C3B50505  15.425  16.213   7.057
 3748POPC   C4B50506  15.595  16.356   7.467
 3749POPC   NC350507  11.453  43.407   5.465
 3749POPC   PO450508  11.045  42.785   5.480
 3749POPC   GL150509  11.282  43.000   5.770
 3749POPC   GL250510  11.091  43.305   5.796
 3749POPC   C1A50511  11.316  42.891   6.202
 3749POPC   D2A50512  11.301  43.108   6.587
 3749POPC   C3A50513  11.393  42.913   6.928
 3749POPC   C4A50514  11.644  43.014   7.260
 3749POPC   C1B50515  10.978  43.271   6.210
 3749POPC   C2B50516  10.810  43.235   6.613
 3749POPC   C3B50517  10.993  43.305   6.991
 3749POPC   C4B50518  11.144  43.090   7.325
 3750POPC   NC350519  24.054  13.387   5.402
 3750POPC   PO450520  23.470  13.770   5.505
 3750POPC   GL150521  23.718  13.744   5.870
 3750POPC   GL250522  23.810  13.423   5.842
 3750POPC   C1A50523  23.638  13.636   6.287
 3750POPC   D2A50524  23.436  13.523   6.646
 3750POPC   C3A50525  23.724  13.655   6.960
 3750POPC   C4A50526  23.784  14.075   7.169
 3750POPC   C1B50527  23.997  13.204   6.182
 3750POPC   C2B50528  23.931  13.295   6.616
 3750POPC   C3B50529  24.070  13.260   7.046
 3750POPC   C4B50530  23.799  13.209   7.392
 3751POPC   NC350531   1.320  36.523   5.451
 3751POPC   PO450532   1.193  35.868   5.353
 3751POPC   GL150533   1.243  35.837   5.790
 3751POPC   GL250534   1.182  36.171   5.924
 3751POPC   C1A50535   1.550  35.887   6.133
 3751POPC   D2A50536   1.448  36.217   6.434
 3751POPC   C3A50537   1.455  36.104   6.856
 3751POPC   C4A50538   1.355  36.243   7.257
 3751POPC   C1B50539   1.060  35.910   6.292
 3751POPC   C2B50540   0.973  36.014   6.721
 3751POPC   C3B50541   0.861  36.160   7.105
 3751POPC   C4B50542   0.939  35.968   7.444
 3752POPC   NC350543  28.199   9.855   5.240
 3752POPC   PO450544  28.823   9.788   5.266
 3752POPC   GL150545  28.472   9.767   5.684
 3752POPC   GL250546  28.297   9.441   5.803
 3752POPC   C1A50547  28.465   9.766   6.174
 3752POPC   D2A50548  28.433   9.466   6.563
 3752POPC   C3A50549  28.475   9.726   6.978
 3752POPC   C4A50550  28.614   9.638   7.417
 3752POPC   C1B50551  28.028   9.481   6.220
 3752POPC   C2B50552  27.967   9.627   6.651
 3752POPC   C3B50553  28.119   9.383   7.011
 3752POPC   C4B50554  28.310   9.226   7.413
 3753POPC   NC350555  44.452  44.120   5.477
 3753POPC   PO450556   0.008  43.721   5.292
 3753POPC   GL150557  44.858  43.800   5.729
 3753POPC   GL250558  44.923  43.518   5.960
 3753POPC   C1A50559  44.576  43.912   6.073
 3753POPC   D2A50560  44.347  43.839   6.483
 3753POPC   C3A50561  44.536  43.891   6.877
 3753POPC   C4A50562  44.380  43.777   7.280
 3753POPC   C1B50563   0.062  43.902   6.234
 3753POPC   C2B50564   0.013  44.280   6.536
 3753POPC   C3B50565  44.808  44.337   6.950
 3753POPC   C4B50566  44.857  44.043   7.286
 3754POPC   NC350567  12.545  10.063   5.525
 3754POPC   PO450568  12.824   9.547   5.557
 3754POPC   GL150569  12.929   9.946   5.841
 3754POPC   GL250570  13.199  10.251   5.882
 3754POPC   C1A50571  12.735   9.885   6.251
 3754POPC   D2A50572  12.630   9.546   6.540
 3754POPC   C3A50573  12.708   9.744   6.899
 3754POPC   C4A50574  12.729   9.882   7.318
 3754POPC   C1B50575  13.262   9.950   6.222
 3754POPC   C2B50576  13.147   9.689   6.597
 3754POPC   C3B50577  13.179   9.624   7.057
 3754POPC   C4B50578  13.279  10.006   7.286
 3755POPC   NC350579  26.480  18.394   5.544
 3755POPC   PO450580  25.910  18.077   5.372
 3755POPC   GL150581  26.126  18.062   5.764
 3755POPC   GL250582  25.953  18.373   5.786
 3755POPC   C1A50583  26.353  18.206   6.157
 3755POPC   D2A50584  26.515  18.372   6.520
 3755POPC   C3A50585  26.335  18.216   6.857
 3755POPC   C4A50586  26.420  18.349   7.245
 3755POPC   C1B50587  25.829  18.189   6.184
 3755POPC   C2B50588  25.924  18.373   6.579
 3755POPC   C3B50589  26.009  18.566   6.997
 3755POPC   C4B50590  25.826  18.285   7.293
 3756POPC   NC350591  24.246  27.260   5.451
 3756POPC   PO450592  24.860  27.466   5.337
 3756POPC   GL150593  24.669  27.410   5.786
 3756POPC   GL250594  24.384  27.604   5.859
 3756POPC   C1A50595  24.742  27.607   6.261
 3756POPC   D2A50596  24.533  27.670   6.702
 3756POPC   C3A50597  24.731  27.697   7.134
 3756POPC   C4A50598  24.707  27.445   7.546
 3756POPC   C1B50599  24.076  27.707   6.204
 3756POPC   C2B50600  23.996  27.496   6.563
 3756POPC   C3B50601  24.216  27.320   6.909
 3756POPC   C4B50602  24.276  27.541   7.278
 3757POPC   NC350603   5.584  42.765   5.225
 3757POPC   PO450604   5.782  43.406   5.367
 3757POPC   GL150605   5.816  43.267   5.799
 3757POPC   GL250606   6.161  43.389   5.822
 3757POPC   C1A50607   5.587  43.272   6.225
 3757POPC   D2A50608   5.428  43.202   6.657
 3757POPC   C3A50609   5.698  43.202   6.993
 3757POPC   C4A50610   5.767  42.972   7.374
 3757POPC   C1B50611   6.132  43.190   6.233
 3757POPC   C2B50612   6.164  43.213   6.686
 3757POPC   C3B50613   6.190  43.131   7.112
 3757POPC   C4B50614   6.034  43.403   7.451
 3758POPC   NC350615   4.441  32.406   5.205
 3758POPC   PO450616   4.244  33.072   5.359
 3758POPC   GL150617   4.156  33.012   5.788
 3758POPC   GL250618   4.186  33.372   5.869
 3758POPC   C1A50619   4.263  32.784   6.164
 3758POPC   D2A50620   4.575  32.853   6.472
 3758POPC   C3A50621   4.487  32.638   6.855
 3758POPC   C4A50622   4.199  32.802   7.144
 3758POPC   C1B50623   4.335  33.284   6.304
 3758POPC   C2B50624   4.448  33.260   6.758
 3758POPC   C3B50625   4.347  33.304   7.194
 3758POPC   C4B50626   4.050  33.376   7.509
 3759POPC   NC350627   3.609  29.314   5.383
 3759POPC   PO450628   3.102  29.538   5.654
 3759POPC   GL150629   3.420  29.273   5.863
 3759POPC   GL250630   3.720  29.061   5.806
 3759POPC   C1A50631   3.616  29.351   6.244
 3759POPC   D2A50632   3.470  29.304   6.674
 3759POPC   C3A50633   3.607  29.309   7.095
 3759POPC   C4A50634   3.388  29.214   7.483
 3759POPC   C1B50635   3.556  28.817   6.115
 3759POPC   C2B50636   3.474  28.762   6.552
 3759POPC   C3B50637   3.665  28.834   6.933
 3759POPC   C4B50638   3.854  28.945   7.354
 3760POPC   NC350639  23.351  24.855   5.054
 3760POPC   PO450640  23.425  25.431   5.463
 3760POPC   GL150641  23.629  25.234   5.811
 3760POPC   GL250642  23.925  25.022   5.748
 3760POPC   C1A50643  23.600  25.479   6.166
 3760POPC   D2A50644  23.423  25.637   6.510
 3760POPC   C3A50645  23.478  25.288   6.780
 3760POPC   C4A50646  23.564  25.284   7.215
 3760POPC   C1B50647  24.066  25.319   6.070
 3760POPC   C2B50648  23.918  25.249   6.496
 3760POPC   C3B50649  23.976  25.220   6.909
 3760POPC   C4B50650  24.073  25.152   7.329
 3761POPC   NC350651  13.826   9.115   5.442
 3761POPC   PO450652  13.262   8.762   5.671
 3761POPC   GL150653  13.537   8.982   5.877
 3761POPC   GL250654  13.842   8.815   5.873
 3761POPC   C1A50655  13.565   9.049   6.304
 3761POPC   D2A50656  13.319   9.191   6.638
 3761POPC   C3A50657  13.480   9.068   7.021
 3761POPC   C4A50658  13.800   9.223   7.306
 3761POPC   C1B50659  13.933   8.670   6.287
 3761POPC   C2B50660  13.706   8.725   6.704
 3761POPC   C3B50661  13.897   8.735   7.130
 3761POPC   C4B50662  14.037   8.852   7.574
 3762POPC   NC350663  18.070  31.807   5.321
 3762POPC   PO450664  18.457  31.205   5.430
 3762POPC   GL150665  18.437  31.412   5.833
 3762POPC   GL250666  18.248  31.725   5.810
 3762POPC   C1A50667  18.299  31.454   6.300
 3762POPC   D2A50668  18.379  31.522   6.749
 3762POPC   C3A50669  18.241  31.195   6.994
 3762POPC   C4A50670  18.135  31.127   7.420
 3762POPC   C1B50671  18.104  31.921   6.193
 3762POPC   C2B50672  17.996  31.799   6.613
 3762POPC   C3B50673  17.990  31.654   7.068
 3762POPC   C4B50674  17.850  31.894   7.429
 3763POPC   NC350675  30.589  41.280   5.607
 3763POPC   PO450676  30.818  40.773   5.247
 3763POPC   GL150677  30.830  40.800   5.710
 3763POPC   GL250678  30.506  40.800   5.830
 3763POPC   C1A50679  30.947  40.798   6.167
 3763POPC   D2A50680  31.041  40.685   6.618
 3763POPC   C3A50681  30.824  40.788   7.041
 3763POPC   C4A50682  31.041  41.050   7.406
 3763POPC   C1B50683  30.485  41.020   6.208
 3763POPC   C2B50684  30.443  40.860   6.622
 3763POPC   C3B50685  30.451  41.150   6.942
 3763POPC   C4B50686  30.555  41.148   7.347
 3764POPC   NC350687   5.688  36.629   5.355
 3764POPC   PO450688   5.971  37.258   5.299
 3764POPC   GL150689   6.095  37.020   5.667
 3764POPC   GL250690   6.276  36.694   5.576
 3764POPC   C1A50691   5.931  36.995   6.103
 3764POPC   D2A50692   5.966  37.176   6.527
 3764POPC   C3A50693   5.825  36.987   6.924
 3764POPC   C4A50694   5.649  37.188   7.288
 3764POPC   C1B50695   6.368  36.673   6.027
 3764POPC   C2B50696   6.187  36.681   6.450
 3764POPC   C3B50697   6.295  36.633   6.882
 3764POPC   C4B50698   6.114  36.730   7.288
 3765POPC   NC350699   1.634   0.862   5.428
 3765POPC   PO450700   1.701   1.548   5.216
 3765POPC   GL150701   1.855   1.350   5.711
 3765POPC   GL250702   1.684   0.993   5.898
 3765POPC   C1A50703   1.758   1.351   6.224
 3765POPC   D2A50704   1.981   1.180   6.618
 3765POPC   C3A50705   2.181   1.225   7.034
 3765POPC   C4A50706   2.528   1.446   7.187
 3765POPC   C1B50707   1.775   0.809   6.312
 3765POPC   C2B50708   1.625   0.827   6.742
 3765POPC   C3B50709   1.844   0.855   7.122
 3765POPC   C4B50710   1.816   1.193   7.390
 3766POPC   NC350711  43.356  29.311   5.302
 3766POPC   PO450712  42.767  29.167   5.484
 3766POPC   GL150713  43.178  29.061   5.723
 3766POPC   GL250714  43.293  29.381   5.851
 3766POPC   C1A50715  43.353  28.976   6.154
 3766POPC   D2A50716  43.541  29.042   6.583
 3766POPC   C3A50717  43.219  29.018   6.921
 3766POPC   C4A50718  43.156  28.860   7.332
 3766POPC   C1B50719  43.165  29.428   6.310
 3766POPC   C2B50720  43.054  29.471   6.768
 3766POPC   C3B50721  43.063  29.486   7.254
 3766POPC   C4B50722  43.100  29.648   7.697
 3767POPC   NC350723   1.108  44.316   5.360
 3767POPC   PO450724   1.019   0.024   5.239
 3767POPC   GL150725   1.148  44.752   5.634
 3767POPC   GL250726   0.912  44.754   5.898
 3767POPC   C1A50727   1.408  44.501   5.990
 3767POPC   D2A50728   1.466  44.277   6.412
 3767POPC   C3A50729   1.299  44.493   6.774
 3767POPC   C4A50730   1.328  44.488   7.218
 3767POPC   C1B50731   0.914  44.550   6.319
 3767POPC   C2B50732   0.791  44.437   6.750
 3767POPC   C3B50733   0.823  44.428   7.201
 3767POPC   C4B50734   0.932  44.746   7.518
 3768POPC   NC350735  35.471  37.984   5.391
 3768POPC   PO450736  34.908  37.576   5.348
 3768POPC   GL150737  35.206  37.654   5.711
 3768POPC   GL250738  35.505  37.430   5.820
 3768POPC   C1A50739  35.194  37.658   6.173
 3768POPC   D2A50740  35.350  37.534   6.591
 3768POPC   C3A50741  35.343  37.871   6.854
 3768POPC   C4A50742  35.095  37.955   7.200
 3768POPC   C1B50743  35.702  37.604   6.220
 3768POPC   C2B50744  35.815  37.835   6.609
 3768POPC   C3B50745  35.792  37.743   7.051
 3768POPC   C4B50746  35.471  37.435   7.091
 3769POPC   NC350747  44.907   7.887   5.379
 3769POPC   PO450748  44.413   8.296   5.363
 3769POPC   GL150749  44.675   8.249   5.684
 3769POPC   GL250750  44.485   8.008   5.775
 3769POPC   C1A50751  44.856   8.167   6.111
 3769POPC   D2A50752  44.845   7.999   6.544
 3769POPC   C3A50753  44.830   8.357   6.841
 3769POPC   C4A50754  44.939   8.362   7.266
 3769POPC   C1B50755  44.338   8.195   6.146
 3769POPC   C2B50756  44.355   8.234   6.600
 3769POPC   C3B50757  44.339   8.361   7.038
 3769POPC   C4B50758  44.477   8.066   7.340
 3770POPC   NC350759  36.229  13.925   5.269
 3770POPC   PO450760  36.452  13.343   5.560
 3770POPC   GL150761  36.085  13.566   5.742
 3770POPC   GL250762  35.726  13.462   5.698
 3770POPC   C1A50763  36.139  13.664   6.169
 3770POPC   D2A50764  36.347  13.481   6.492
 3770POPC   C3A50765  36.358  13.667   6.896
 3770POPC   C4A50766  36.136  13.833   7.230
 3770POPC   C1B50767  35.639  13.527   6.169
 3770POPC   C2B50768  35.806  13.444   6.589
 3770POPC   C3B50769  35.765  13.573   7.022
 3770POPC   C4B50770  35.687  13.705   7.469
 3771POPC   NC350771  40.224   8.988   5.486
 3771POPC   PO450772  39.640   9.405   5.592
 3771POPC   GL150773  39.854   9.120   5.873
 3771POPC   GL250774  40.198   9.071   5.986
 3771POPC   C1A50775  39.830   9.088   6.333
 3771POPC   D2A50776  40.194   9.102   6.596
 3771POPC   C3A50777  40.021   9.081   6.973
 3771POPC   C4A50778  39.810   9.310   7.249
 3771POPC   C1B50779  40.164   8.706   6.274
 3771POPC   C2B50780  40.393   8.576   6.644
 3771POPC   C3B50781  40.498   8.861   6.989
 3771POPC   C4B50782  40.287   8.952   7.379
 3772POPC   NC350783  20.312  14.343   5.439
 3772POPC   PO450784  20.973  14.175   5.391
 3772POPC   GL150785  20.659  14.133   5.789
 3772POPC   GL250786  20.313  13.952   5.757
 3772POPC   C1A50787  20.640  14.214   6.284
 3772POPC   D2A50788  20.511  14.185   6.766
 3772POPC   C3A50789  20.626  14.545   7.006
 3772POPC   C4A50790  20.999  14.643   7.249
 3772POPC   C1B50791  20.188  14.266   6.097
 3772POPC   C2B50792  20.145  14.433   6.520
 3772POPC   C3B50793  20.060  14.347   6.981
 3772POPC   C4B50794  20.287  14.467   7.379
 3773POPC   NC350795  37.952  30.622   5.393
 3773POPC   PO450796  37.238  30.685   5.418
 3773POPC   GL150797  37.555  30.596   5.754
 3773POPC   GL250798  37.878  30.407   5.839
 3773POPC   C1A50799  37.624  30.810   6.176
 3773POPC   D2A50800  37.322  30.879   6.533
 3773POPC   C3A50801  37.528  30.858   6.943
 3773POPC   C4A50802  37.978  30.987   7.066
 3773POPC   C1B50803  37.617  30.285   6.162
 3773POPC   C2B50804  37.593  30.457   6.559
 3773POPC   C3B50805  37.514  30.368   6.955
 3773POPC   C4B50806  37.857  30.510   7.187
 3774POPC   NC350807  19.504   9.522   5.413
 3774POPC   PO450808  18.873   9.769   5.462
 3774POPC   GL150809  18.952   9.711   5.886
 3774POPC   GL250810  19.258   9.536   5.873
 3774POPC   C1A50811  19.172   9.897   6.265
 3774POPC   D2A50812  19.292  10.075   6.676
 3774POPC   C3A50813  19.100   9.908   7.049
 3774POPC   C4A50814  19.303   9.903   7.432
 3774POPC   C1B50815  19.167   9.384   6.302
 3774POPC   C2B50816  19.190   9.501   6.748
 3774POPC   C3B50817  19.105   9.418   7.226
 3774POPC   C4B50818  18.815   9.287   7.602
 3775POPC   NC350819   6.248  26.110   5.498
 3775POPC   PO450820   6.853  26.127   5.305
 3775POPC   GL150821   6.699  26.113   5.741
 3775POPC   GL250822   6.573  25.781   5.774
 3775POPC   C1A50823   6.513  26.160   6.176
 3775POPC   D2A50824   6.666  26.385   6.543
 3775POPC   C3A50825   6.454  26.303   6.917
 3775POPC   C4A50826   6.544  26.529   7.265
 3775POPC   C1B50827   6.501  25.633   6.190
 3775POPC   C2B50828   6.511  25.845   6.590
 3775POPC   C3B50829   6.494  25.808   7.020
 3775POPC   C4B50830   6.682  26.044   7.363
 3776POPC   NC350831  20.643  16.957   4.984
 3776POPC   PO450832  20.777  16.381   5.332
 3776POPC   GL150833  20.796  16.507   5.789
 3776POPC   GL250834  20.527  16.332   5.964
 3776POPC   C1A50835  20.803  16.654   6.247
 3776POPC   D2A50836  20.573  16.712   6.648
 3776POPC   C3A50837  20.762  16.666   7.075
 3776POPC   C4A50838  20.708  16.751   7.542
 3776POPC   C1B50839  20.474  16.253   6.410
 3776POPC   C2B50840  20.465  16.262   6.873
 3776POPC   C3B50841  20.410  16.379   7.299
 3776POPC   C4B50842  20.303  16.465   7.735
 3777POPC   NC350843  25.072   5.799   5.455
 3777POPC   PO450844  25.550   6.280   5.417
 3777POPC   GL150845  25.337   6.099   5.821
 3777POPC   GL250846  25.327   5.722   5.880
 3777POPC   C1A50847  25.203   5.990   6.285
 3777POPC   D2A50848  25.196   6.064   6.747
 3777POPC   C3A50849  25.228   5.716   7.061
 3777POPC   C4A50850  25.233   5.810   7.495
 3777POPC   C1B50851  25.625   5.651   6.193
 3777POPC   C2B50852  25.530   5.704   6.628
 3777POPC   C3B50853  25.737   5.767   7.019
 3777POPC   C4B50854  25.642   5.561   7.380
 3778POPC   NC350855   4.804  36.433   5.459
 3778POPC   PO450856   4.686  35.850   5.628
 3778POPC   GL150857   5.066  36.081   5.791
 3778POPC   GL250858   5.411  35.878   5.787
 3778POPC   C1A50859   5.099  36.269   6.225
 3778POPC   D2A50860   4.788  36.332   6.556
 3778POPC   C3A50861   4.901  36.187   6.951
 3778POPC   C4A50862   5.339  36.194   7.106
 3778POPC   C1B50863   5.232  35.779   6.194
 3778POPC   C2B50864   5.266  35.928   6.622
 3778POPC   C3B50865   5.130  35.729   6.987
 3778POPC   C4B50866   5.270  35.763   7.394
 3779POPC   NC350867  26.782  39.700   5.019
 3779POPC   PO450868  26.644  40.231   5.494
 3779POPC   GL150869  26.952  40.237   5.862
 3779POPC   GL250870  26.821  39.937   6.078
 3779POPC   C1A50871  27.121  40.233   6.299
 3779POPC   D2A50872  26.807  40.083   6.600
 3779POPC   C3A50873  27.056  40.131   6.977
 3779POPC   C4A50874  27.090  40.339   7.351
 3779POPC   C1B50875  26.633  39.577   6.204
 3779POPC   C2B50876  26.790  39.557   6.595
 3779POPC   C3B50877  26.734  39.738   6.984
 3779POPC   C4B50878  26.872  39.861   7.375
 3780POPC   NC350879  36.752  15.588   5.559
 3780POPC   PO450880  36.871  16.235   5.421
 3780POPC   GL150881  36.918  16.064   5.791
 3780POPC   GL250882  37.267  16.169   5.855
 3780POPC   C1A50883  36.635  16.017   6.142
 3780POPC   D2A50884  36.447  15.984   6.552
 3780POPC   C3A50885  36.604  15.589   6.683
 3780POPC   C4A50886  36.694  15.564   7.092
 3780POPC   C1B50887  37.161  15.852   6.176
 3780POPC   C2B50888  36.993  15.907   6.578
 3780POPC   C3B50889  36.948  16.005   7.018
 3780POPC   C4B50890  37.197  15.712   7.257
 3781POPC   NC350891  44.857  39.878   5.475
 3781POPC   PO450892  44.432  40.382   5.411
 3781POPC   GL150893  44.323  40.228   5.836
 3781POPC   GL250894  44.555  39.951   5.869
 3781POPC   C1A50895  44.415  40.203   6.285
 3781POPC   D2A50896  44.638  40.251   6.671
 3781POPC   C3A50897  44.441  40.511   6.980
 3781POPC   C4A50898  44.190  40.333   7.305
 3781POPC   C1B50899  44.745  39.786   6.243
 3781POPC   C2B50900  44.917  39.700   6.619
 3781POPC   C3B50901  44.938  39.884   6.997
 3781POPC   C4B50902  44.589  40.044   7.174
 3782POPC   NC350903  23.527  27.484   5.434
 3782POPC   PO450904  24.158  27.709   5.410
 3782POPC   GL150905  23.870  27.553   5.784
 3782POPC   GL250906  23.622  27.838   5.808
 3782POPC   C1A50907  23.570  27.531   6.196
 3782POPC   D2A50908  23.462  27.457   6.639
 3782POPC   C3A50909  23.737  27.485   7.003
 3782POPC   C4A50910  23.825  27.778   7.278
 3782POPC   C1B50911  23.653  28.025   6.238
 3782POPC   C2B50912  23.664  27.934   6.687
 3782POPC   C3B50913  23.549  28.152   7.082
 3782POPC   C4B50914  23.724  28.208   7.525
 3783POPC   NC350915   1.882  34.111   5.574
 3783POPC   PO450916   2.365  33.638   5.399
 3783POPC   GL150917   2.115  33.721   5.780
 3783POPC   GL250918   1.741  33.637   5.738
 3783POPC   C1A50919   2.088  33.931   6.209
 3783POPC   D2A50920   1.942  34.118   6.617
 3783POPC   C3A50921   2.059  33.939   7.028
 3783POPC   C4A50922   1.896  33.957   7.474
 3783POPC   C1B50923   1.674  33.530   6.165
 3783POPC   C2B50924   1.568  33.739   6.552
 3783POPC   C3B50925   1.682  33.563   6.925
 3783POPC   C4B50926   1.534  33.617   7.323
 3784POPC   NC350927  28.968  11.474   5.492
 3784POPC   PO450928  29.612  11.894   5.382
 3784POPC   GL150929  29.429  11.696   5.804
 3784POPC   GL250930  29.188  11.430   5.931
 3784POPC   C1A50931  29.450  11.590   6.300
 3784POPC   D2A50932  29.209  11.380   6.667
 3784POPC   C3A50933  29.341  11.376   7.118
 3784POPC   C4A50934  29.532  11.554   7.461
 3784POPC   C1B50935  28.852  11.535   6.243
 3784POPC   C2B50936  28.739  11.595   6.661
 3784POPC   C3B50937  28.861  11.572   7.056
 3784POPC   C4B50938  28.890  11.214   7.296
 3785POPC   NC350939   1.003  32.111   5.347
 3785POPC   PO450940   1.619  32.301   5.566
 3785POPC   GL150941   1.344  32.196   5.849
 3785POPC   GL250942   1.004  32.240   5.836
 3785POPC   C1A50943   1.365  32.214   6.279
 3785POPC   D2A50944   1.431  31.958   6.585
 3785POPC   C3A50945   1.494  32.218   6.910
 3785POPC   C4A50946   1.379  31.997   7.235
 3785POPC   C1B50947   0.902  32.390   6.244
 3785POPC   C2B50948   1.035  32.346   6.691
 3785POPC   C3B50949   1.106  32.441   7.150
 3785POPC   C4B50950   1.042  32.657   7.525
 3786POPC   NC350951  43.012   4.167   5.369
 3786POPC   PO450952  43.559   4.500   5.382
 3786POPC   GL150953  43.332   4.312   5.743
 3786POPC   GL250954  43.501   4.010   5.885
 3786POPC   C1A50955  42.969   4.467   6.034
 3786POPC   D2A50956  43.128   4.354   6.444
 3786POPC   C3A50957  43.106   4.510   6.830
 3786POPC   C4A50958  42.876   4.524   7.174
 3786POPC   C1B50959  43.107   3.988   6.082
 3786POPC   C2B50960  43.022   3.860   6.516
 3786POPC   C3B50961  42.862   4.042   6.895
 3786POPC   C4B50962  42.930   3.996   7.331
 3787POPC   NC350963  29.593   8.398   5.506
 3787POPC   PO450964  29.900   7.941   5.670
 3787POPC   GL150965  29.706   8.181   5.975
 3787POPC   GL250966  29.919   8.474   5.922
 3787POPC   C1A50967  29.793   8.256   6.413
 3787POPC   D2A50968  30.015   8.031   6.723
 3787POPC   C3A50969  29.932   8.186   7.132
 3787POPC   C4A50970  29.553   8.350   7.294
 3787POPC   C1B50971  30.049   8.689   6.306
 3787POPC   C2B50972  30.047   8.633   6.769
 3787POPC   C3B50973  30.371   8.524   7.064
 3787POPC   C4B50974  30.344   8.298   7.448
 3788POPC   NC350975  13.693   2.134   5.343
 3788POPC   PO450976  13.407   1.495   5.307
 3788POPC   GL150977  13.590   1.754   5.686
 3788POPC   GL250978  13.897   1.632   5.849
 3788POPC   C1A50979  13.514   2.063   6.072
 3788POPC   D2A50980  13.449   2.340   6.443
 3788POPC   C3A50981  13.570   2.401   6.901
 3788POPC   C4A50982  13.774   2.227   7.247
 3788POPC   C1B50983  13.625   1.586   6.182
 3788POPC   C2B50984  13.642   1.816   6.521
 3788POPC   C3B50985  13.786   1.794   6.918
 3788POPC   C4B50986  13.504   1.711   7.204
 3789POPC   NC350987  25.915  19.214   5.369
 3789POPC   PO450988  26.492  18.876   5.521
 3789POPC   GL150989  26.171  19.079   5.801
 3789POPC   GL250990  25.859  18.882   5.785
 3789POPC   C1A50991  25.963  19.143   6.218
 3789POPC   D2A50992  26.138  19.279   6.590
 3789POPC   C3A50993  25.943  19.085   6.946
 3789POPC   C4A50994  26.023  19.236   7.352
 3789POPC   C1B50995  26.091  18.665   6.159
 3789POPC   C2B50996  26.219  18.785   6.572
 3789POPC   C3B50997  26.477  18.757   6.922
 3789POPC   C4B50998  26.375  18.847   7.357
 3790POPC   NC350999   3.880   1.421   5.427
 3790POPC   PO451000   4.473   1.128   5.282
 3790POPC   GL151001   4.363   1.421   5.626
 3790POPC   GL251002   4.221   1.169   5.780
 3790POPC   C1A51003   4.292   1.639   6.058
 3790POPC   D2A51004   4.155   1.518   6.510
 3790POPC   C3A51005   4.487   1.509   6.884
 3790POPC   C4A51006   4.351   1.487   7.353
 3790POPC   C1B51007   4.480   1.199   6.170
 3790POPC   C2B51008   4.398   1.050   6.585
 3790POPC   C3B51009   4.299   1.050   7.021
 3790POPC   C4B51010   4.605   1.027   7.354
 3791POPC   NC351011  20.829  24.439   5.396
 3791POPC   PO451012  20.337  24.644   5.683
 3791POPC   GL151013  20.713  24.563   5.888
 3791POPC   GL251014  20.961  24.797   5.911
 3791POPC   C1A51015  20.869  24.461   6.293
 3791POPC   D2A51016  21.002  24.443   6.727
 3791POPC   C3A51017  20.801  24.310   7.141
 3791POPC   C4A51018  20.348  24.270   7.271
 3791POPC   C1B51019  20.800  24.968   6.223
 3791POPC   C2B51020  20.674  24.830   6.605
 3791POPC   C3B51021  20.462  24.646   6.921
 3791POPC   C4B51022  20.475  24.765   7.315
 3792POPC   NC351023   5.058  35.604   5.508
 3792POPC   PO451024   4.900  34.940   5.244
 3792POPC   GL151025   5.025  35.079   5.675
 3792POPC   GL251026   5.384  35.010   5.787
 3792POPC   C1A51027   4.811  35.169   6.090
 3792POPC   D2A51028   5.003  35.117   6.509
 3792POPC   C3A51029   4.850  35.255   6.893
 3792POPC   C4A51030   4.976  35.349   7.313
 3792POPC   C1B51031   5.325  35.285   6.136
 3792POPC   C2B51032   5.405  35.428   6.574
 3792POPC   C3B51033   5.419  35.315   7.015
 3792POPC   C4B51034   5.654  35.414   7.369
 3793POPC   NC351035  27.895  26.860   5.557
 3793POPC   PO451036  27.307  27.099   5.350
 3793POPC   GL151037  27.320  27.016   5.833
 3793POPC   GL251038  27.623  26.807   5.982
 3793POPC   C1A51039  27.236  26.903   6.305
 3793POPC   D2A51040  27.439  26.591   6.593
 3793POPC   C3A51041  27.419  26.666   7.060
 3793POPC   C4A51042  27.554  26.810   7.475
 3793POPC   C1B51043  27.841  26.889   6.366
 3793POPC   C2B51044  27.844  26.815   6.802
 3793POPC   C3B51045  27.948  26.984   7.190
 3793POPC   C4B51046  28.061  26.788   7.559
 3794POPC   NC351047   1.298   9.466   5.634
 3794POPC   PO451048   1.102  10.055   5.347
 3794POPC   GL151049   1.154   9.927   5.814
 3794POPC   GL251050   1.506  10.022   5.827
 3794POPC   C1A51051   1.032   9.795   6.270
 3794POPC   D2A51052   1.267   9.794   6.654
 3794POPC   C3A51053   1.115   9.669   7.061
 3794POPC   C4A51054   1.087   9.871   7.440
 3794POPC   C1B51055   1.562   9.770   6.200
 3794POPC   C2B51056   1.632   9.393   6.480
 3794POPC   C3B51057   1.539   9.421   6.902
 3794POPC   C4B51058   1.586   9.831   7.065
 3795POPC   NC351059  14.890  38.034   5.319
 3795POPC   PO451060  14.980  37.423   5.331
 3795POPC   GL151061  15.110  37.491   5.737
 3795POPC   GL251062  15.435  37.632   5.717
 3795POPC   C1A51063  14.953  37.481   6.177
 3795POPC   D2A51064  14.917  37.241   6.574
 3795POPC   C3A51065  14.736  37.378   6.962
 3795POPC   C4A51066  14.851  37.676   7.249
 3795POPC   C1B51067  15.232  37.914   6.015
 3795POPC   C2B51068  15.115  37.906   6.443
 3795POPC   C3B51069  15.164  37.687   6.837
 3795POPC   C4B51070  15.292  37.905   7.222
 3796POPC   NC351071  25.494  14.295   5.393
 3796POPC   PO451072  24.911  14.603   5.397
 3796POPC   GL151073  25.126  14.408   5.739
 3796POPC   GL251074  25.400  14.637   5.778
 3796POPC   C1A51075  25.273  14.175   6.119
 3796POPC   D2A51076  25.306  13.988   6.556
 3796POPC   C3A51077  25.272  14.171   6.949
 3796POPC   C4A51078  25.282  14.357   7.336
 3796POPC   C1B51079  25.220  14.719   6.170
 3796POPC   C2B51080  25.308  14.548   6.567
 3796POPC   C3B51081  25.160  14.663   6.959
 3796POPC   C4B51082  24.933  14.728   7.353
 3797POPC   NC351083  37.500  10.450   5.108
 3797POPC   PO451084  37.881  10.972   5.283
 3797POPC   GL151085  37.856  10.745   5.721
 3797POPC   GL251086  37.894  10.340   5.795
 3797POPC   C1A51087  37.870  10.682   6.207
 3797POPC   D2A51088  38.093  10.554   6.605
 3797POPC   C3A51089  37.917  10.611   7.053
 3797POPC   C4A51090  37.740  10.486   7.490
 3797POPC   C1B51091  37.826  10.151   6.251
 3797POPC   C2B51092  37.732  10.204   6.725
 3797POPC   C3B51093  37.652  10.107   7.173
 3797POPC   C4B51094  37.598   9.990   7.637
 3798POPC   NC351095  23.057  23.920   5.336
 3798POPC   PO451096  23.074  24.599   5.320
 3798POPC   GL151097  23.142  24.436   5.732
 3798POPC   GL251098  22.861  24.197   5.766
 3798POPC   C1A51099  23.023  24.625   6.143
 3798POPC   D2A51100  22.679  24.703   6.439
 3798POPC   C3A51101  22.759  24.574   6.857
 3798POPC   C4A51102  23.059  24.590   7.175
 3798POPC   C1B51103  22.681  24.177   6.190
 3798POPC   C2B51104  22.467  24.210   6.593
 3798POPC   C3B51105  22.551  24.092   7.005
 3798POPC   C4B51106  22.651  24.345   7.335
 3799POPC   NC351107  34.345   6.782   5.073
 3799POPC   PO451108  34.467   6.555   5.481
 3799POPC   GL151109  34.598   6.497   5.923
 3799POPC   GL251110  34.955   6.585   5.953
 3799POPC   C1A51111  34.398   6.462   6.344
 3799POPC   D2A51112  34.475   6.737   6.711
 3799POPC   C3A51113  34.491   6.568   7.112
 3799POPC   C4A51114  34.262   6.655   7.490
 3799POPC   C1B51115  34.859   6.651   6.389
 3799POPC   C2B51116  34.975   6.659   6.849
 3799POPC   C3B51117  34.915   6.766   7.317
 3799POPC   C4B51118  35.027   6.692   7.785
 3800POPC   NC351119  17.075  38.968   5.457
 3800POPC   PO451120  16.389  39.216   5.322
 3800POPC   GL151121  16.647  39.170   5.716
 3800POPC   GL251122  16.721  38.791   5.783
 3800POPC   C1A51123  16.723  39.259   6.185
 3800POPC   D2A51124  16.887  39.464   6.578
 3800POPC   C3A51125  16.795  39.310   7.004
 3800POPC   C4A51126  16.500  39.154   7.323
 3800POPC   C1B51127  17.056  38.885   6.088
 3800POPC   C2B51128  17.104  38.975   6.531
 3800POPC   C3B51129  17.193  38.969   6.971
 3800POPC   C4B51130  16.947  38.875   7.299
 3801POPC   NC351131   6.754  44.031   5.365
 3801POPC   PO451132   6.440  43.521   5.157
 3801POPC   GL151133   6.471  43.767   5.672
 3801POPC   GL251134   6.821  43.839   5.829
 3801POPC   C1A51135   6.419  43.875   6.154
 3801POPC   D2A51136   6.180  44.021   6.558
 3801POPC   C3A51137   6.428  44.071   6.964
 3801POPC   C4A51138   6.522  43.736   7.280
 3801POPC   C1B51139   6.880  44.181   6.128
 3801POPC   C2B51140   6.757  44.186   6.572
 3801POPC   C3B51141   6.935  44.220   6.996
 3801POPC   C4B51142   6.927  44.046   7.416
 3802POPC   NC351143  44.263  10.398   5.412
 3802POPC   PO451144  43.687  10.261   5.599
 3802POPC   GL151145  43.703  10.607   5.857
 3802POPC   GL251146  44.048  10.554   5.859
 3802POPC   C1A51147  43.615  10.523   6.252
 3802POPC   D2A51148  44.006  10.497   6.435
 3802POPC   C3A51149  43.963  10.486   6.848
 3802POPC   C4A51150  43.651  10.472   7.177
 3802POPC   C1B51151  44.240  10.823   6.121
 3802POPC   C2B51152  44.225  10.947   6.537
 3802POPC   C3B51153  44.303  10.884   6.943
 3802POPC   C4B51154  44.127  10.664   7.285
 3803POPC   NC351155   5.345  40.438   5.646
 3803POPC   PO451156   5.097  39.889   5.264
 3803POPC   GL151157   5.233  39.940   5.712
 3803POPC   GL251158   4.969  40.103   5.914
 3803POPC   C1A51159   5.317  39.862   6.193
 3803POPC   D2A51160   5.156  40.055   6.594
 3803POPC   C3A51161   5.087  39.821   6.970
 3803POPC   C4A51162   5.366  39.793   7.324
 3803POPC   C1B51163   5.021  40.428   6.236
 3803POPC   C2B51164   4.837  40.465   6.617
 3803POPC   C3B51165   4.848  40.298   7.008
 3803POPC   C4B51166   5.216  40.276   7.214
 3804POPC   NC351167  10.887  34.112   5.128
 3804POPC   PO451168  11.406  33.793   5.484
 3804POPC   GL151169  11.353  33.666   5.868
 3804POPC   GL251170  11.336  33.970   5.993
 3804POPC   C1A51171  11.476  33.578   6.274
 3804POPC   D2A51172  11.701  33.671   6.626
 3804POPC   C3A51173  11.457  33.681   6.991
 3804POPC   C4A51174  11.438  33.655   7.446
 3804POPC   C1B51175  11.060  33.926   6.357
 3804POPC   C2B51176  10.873  33.765   6.769
 3804POPC   C3B51177  10.991  33.775   7.230
 3804POPC   C4B51178  11.047  33.800   7.757
 3805POPC   NC351179  22.630  37.952   5.441
 3805POPC   PO451180  22.073  37.575   5.471
 3805POPC   GL151181  22.270  37.555   5.884
 3805POPC   GL251182  22.324  37.904   5.870
 3805POPC   C1A51183  22.320  37.544   6.364
 3805POPC   D2A51184  22.457  37.663   6.811
 3805POPC   C3A51185  22.108  37.836   7.051
 3805POPC   C4A51186  21.800  37.561   7.209
 3805POPC   C1B51187  22.530  38.042   6.251
 3805POPC   C2B51188  22.511  38.155   6.690
 3805POPC   C3B51189  22.575  38.050   7.134
 3805POPC   C4B51190  22.538  37.813   7.538
 3806POPC   NC351191   5.281  23.102   5.364
 3806POPC   PO451192   4.909  22.582   5.429
 3806POPC   GL151193   4.973  22.820   5.816
 3806POPC   GL251194   5.301  23.021   5.863
 3806POPC   C1A51195   5.131  22.720   6.230
 3806POPC   D2A51196   5.339  22.756   6.613
 3806POPC   C3A51197   4.966  22.642   6.832
 3806POPC   C4A51198   4.887  22.677   7.237
 3806POPC   C1B51199   5.005  23.212   6.167
 3806POPC   C2B51200   4.922  23.081   6.579
 3806POPC   C3B51201   5.150  23.112   6.957
 3806POPC   C4B51202   5.040  23.479   7.143
 3807POPC   NC351203  31.962   1.911   5.315
 3807POPC   PO451204  32.585   2.096   5.304
 3807POPC   GL151205  32.423   1.917   5.690
 3807POPC   GL251206  32.069   1.967   5.804
 3807POPC   C1A51207  32.440   2.038   6.127
 3807POPC   D2A51208  32.168   2.002   6.482
 3807POPC   C3A51209  32.279   2.180   6.873
 3807POPC   C4A51210  32.329   2.031   7.293
 3807POPC   C1B51211  32.145   1.615   6.134
 3807POPC   C2B51212  31.927   1.539   6.528
 3807POPC   C3B51213  32.084   1.705   6.918
 3807POPC   C4B51214  31.991   1.615   7.322
 3808POPC   NC351215  42.577  31.537   5.370
 3808POPC   PO451216  42.083  31.068   5.225
 3808POPC   GL151217  42.156  31.477   5.664
 3808POPC   GL251218  42.521  31.635   5.841
 3808POPC   C1A51219  42.160  31.465   6.131
 3808POPC   D2A51220  42.394  31.327   6.504
 3808POPC   C3A51221  42.236  31.356   6.925
 3808POPC   C4A51222  42.505  31.217   7.276
 3808POPC   C1B51223  42.875  31.768   6.106
 3808POPC   C2B51224  42.931  31.645   6.530
 3808POPC   C3B51225  42.722  31.544   6.891
 3808POPC   C4B51226  42.505  31.722   7.219
 3809POPC   NC351227   7.626  41.102   5.452
 3809POPC   PO451228   7.226  40.611   5.450
 3809POPC   GL151229   7.341  40.839   5.792
 3809POPC   GL251230   7.179  41.191   5.720
 3809POPC   C1A51231   7.669  40.879   6.123
 3809POPC   D2A51232   7.800  40.705   6.529
 3809POPC   C3A51233   7.506  40.711   6.857
 3809POPC   C4A51234   7.576  40.687   7.269
 3809POPC   C1B51235   7.194  41.125   6.172
 3809POPC   C2B51236   7.449  41.158   6.522
 3809POPC   C3B51237   7.219  41.213   6.879
 3809POPC   C4B51238   7.336  41.134   7.263
 3810POPC   NC351239  31.222  34.549   5.067
 3810POPC   PO451240  30.652  34.332   5.441
 3810POPC   GL151241  30.681  34.506   5.867
 3810POPC   GL251242  30.628  34.885   5.797
 3810POPC   C1A51243  30.947  34.514   6.263
 3810POPC   D2A51244  31.121  34.502   6.715
 3810POPC   C3A51245  30.852  34.461   7.124
 3810POPC   C4A51246  30.683  34.416   7.576
 3810POPC   C1B51247  30.533  34.839   6.219
 3810POPC   C2B51248  30.705  34.802   6.611
 3810POPC   C3B51249  30.497  34.801   6.958
 3810POPC   C4B51250  30.581  34.849   7.326
 3811POPC   NC351251   8.445  13.619   5.234
 3811POPC   PO451252   7.869  13.828   5.152
 3811POPC   GL151253   8.061  13.597   5.592
 3811POPC   GL251254   8.388  13.776   5.710
 3811POPC   C1A51255   8.141  13.427   6.064
 3811POPC   D2A51256   8.197  13.264   6.539
 3811POPC   C3A51257   7.974  13.480   6.853
 3811POPC   C4A51258   8.065  13.732   7.207
 3811POPC   C1B51259   8.440  13.847   6.152
 3811POPC   C2B51260   8.228  13.789   6.535
 3811POPC   C3B51261   8.455  13.708   6.905
 3811POPC   C4B51262   8.673  13.939   7.233
 3812POPC   NC351263   8.124  23.804   5.321
 3812POPC   PO451264   8.412  23.169   5.369
 3812POPC   GL151265   8.333  23.519   5.682
 3812POPC   GL251266   8.586  23.773   5.715
 3812POPC   C1A51267   8.163  23.824   6.013
 3812POPC   D2A51268   8.067  23.930   6.463
 3812POPC   C3A51269   8.314  24.098   6.823
 3812POPC   C4A51270   8.246  23.981   7.255
 3812POPC   C1B51271   8.567  23.536   6.137
 3812POPC   C2B51272   8.515  23.692   6.561
 3812POPC   C3B51273   8.466  23.598   7.018
 3812POPC   C4B51274   8.554  23.688   7.530
 3813POPC   NC351275  24.600   1.298   5.073
 3813POPC   PO451276  24.386   1.475   5.457
 3813POPC   GL151277  24.569   1.302   5.871
 3813POPC   GL251278  24.434   0.985   5.855
 3813POPC   C1A51279  24.726   1.339   6.353
 3813POPC   D2A51280  24.818   1.400   6.837
 3813POPC   C3A51281  24.440   1.335   7.076
 3813POPC   C4A51282  24.184   0.976   7.178
 3813POPC   C1B51283  24.438   0.905   6.312
 3813POPC   C2B51284  24.588   0.953   6.734
 3813POPC   C3B51285  24.700   0.886   7.167
 3813POPC   C4B51286  24.504   0.687   7.537
 3814POPC   NC351287  12.704  36.701   5.547
 3814POPC   PO451288  12.515  37.349   5.357
 3814POPC   GL151289  12.640  37.136   5.814
 3814POPC   GL251290  13.018  37.001   5.846
 3814POPC   C1A51291  12.713  36.911   6.257
 3814POPC   D2A51292  13.106  37.013   6.543
 3814POPC   C3A51293  13.026  37.129   6.979
 3814POPC   C4A51294  12.660  36.959   7.190
 3814POPC   C1B51295  13.145  36.653   6.168
 3814POPC   C2B51296  12.985  36.509   6.564
 3814POPC   C3B51297  13.026  36.620   6.989
 3814POPC   C4B51298  13.221  36.422   7.347
 3815POPC   NC351299  21.304  44.296   5.401
 3815POPC   PO451300  21.128  43.634   5.505
 3815POPC   GL151301  21.382  43.912   5.730
 3815POPC   GL251302  21.102  43.958   5.951
 3815POPC   C1A51303  21.563  43.847   6.114
 3815POPC   D2A51304  21.282  43.726   6.419
 3815POPC   C3A51305  21.372  43.782   6.857
 3815POPC   C4A51306  21.537  43.985   7.244
 3815POPC   C1B51307  21.295  44.240   6.268
 3815POPC   C2B51308  21.308  44.305   6.696
 3815POPC   C3B51309  21.121  44.205   7.069
 3815POPC   C4B51310  20.962  43.798   7.166
 3816POPC   NC351311   1.645  27.891   5.384
 3816POPC   PO451312   1.117  28.380   5.446
 3816POPC   GL151313   1.262  28.173   5.780
 3816POPC   GL251314   1.550  28.343   5.752
 3816POPC   C1A51315   1.367  28.258   6.219
 3816POPC   D2A51316   1.174  28.452   6.540
 3816POPC   C3A51317   1.099  28.335   6.909
 3816POPC   C4A51318   1.092  28.204   7.294
 3816POPC   C1B51319   1.712  28.621   6.076
 3816POPC   C2B51320   1.830  28.568   6.522
 3816POPC   C3B51321   1.530  28.681   6.853
 3816POPC   C4B51322   1.389  28.606   7.252
 3817POPC   NC351323   0.628  10.014   5.435
 3817POPC   PO451324   0.850   9.522   5.700
 3817POPC   GL151325   0.631   9.813   5.925
 3817POPC   GL251326   0.299   9.776   5.839
 3817POPC   C1A51327   0.492   9.914   6.346
 3817POPC   D2A51328   0.724  10.117   6.682
 3817POPC   C3A51329   0.694   9.945   7.089
 3817POPC   C4A51330   0.583   9.736   7.457
 3817POPC   C1B51331   0.141   9.477   6.173
 3817POPC   C2B51332   0.184   9.318   6.615
 3817POPC   C3B51333   0.280   9.616   6.946
 3817POPC   C4B51334   0.226  10.056   6.917
 3818POPC   NC351335  15.085  40.991   5.179
 3818POPC   PO451336  15.281  40.356   5.215
 3818POPC   GL151337  15.112  40.541   5.649
 3818POPC   GL251338  15.038  40.921   5.684
 3818POPC   C1A51339  15.208  40.515   6.109
 3818POPC   D2A51340  15.239  40.714   6.545
 3818POPC   C3A51341  15.216  40.424   6.935
 3818POPC   C4A51342  14.943  40.433   7.313
 3818POPC   C1B51343  15.217  41.019   6.070
 3818POPC   C2B51344  15.125  41.241   6.416
 3818POPC   C3B51345  15.065  41.227   6.837
 3818POPC   C4B51346  14.977  40.869   7.059
 3819POPC   NC351347   2.987  13.596   5.182
 3819POPC   PO451348   2.511  13.182   5.385
 3819POPC   GL151349   2.782  13.413   5.714
 3819POPC   GL251350   3.148  13.396   5.765
 3819POPC   C1A51351   2.666  13.579   6.141
 3819POPC   D2A51352   2.874  13.857   6.474
 3819POPC   C3A51353   2.766  13.825   6.921
 3819POPC   C4A51354   2.556  13.613   7.254
 3819POPC   C1B51355   3.145  13.461   6.244
 3819POPC   C2B51356   2.850  13.357   6.607
 3819POPC   C3B51357   2.955  13.351   7.048
 3819POPC   C4B51358   2.965  13.432   7.479
 3820POPC   NC351359   4.211  39.446   5.125
 3820POPC   PO451360   4.035  38.908   5.499
 3820POPC   GL151361   4.280  39.101   5.833
 3820POPC   GL251362   4.084  39.362   5.957
 3820POPC   C1A51363   4.541  39.319   6.177
 3820POPC   D2A51364   4.760  39.456   6.574
 3820POPC   C3A51365   4.446  39.458   6.879
 3820POPC   C4A51366   4.294  39.495   7.280
 3820POPC   C1B51367   4.042  39.099   6.298
 3820POPC   C2B51368   4.015  39.086   6.712
 3820POPC   C3B51369   3.940  39.221   7.086
 3820POPC   C4B51370   4.059  39.048   7.478
 3821POPC   NC351371  24.018   4.178   5.497
 3821POPC   PO451372  23.539   4.533   5.453
 3821POPC   GL151373  23.573   4.288   5.822
 3821POPC   GL251374  23.808   4.478   5.908
 3821POPC   C1A51375  23.620   4.223   6.307
 3821POPC   D2A51376  23.709   4.428   6.717
 3821POPC   C3A51377  23.837   4.222   7.108
 3821POPC   C4A51378  23.803   3.945   7.492
 3821POPC   C1B51379  23.852   4.686   6.290
 3821POPC   C2B51380  24.155   4.720   6.621
 3821POPC   C3B51381  24.009   4.723   7.022
 3821POPC   C4B51382  23.573   4.674   7.158
 3822POPC   NC351383  22.546  26.544   5.445
 3822POPC   PO451384  22.969  27.081   5.607
 3822POPC   GL151385  22.843  26.714   5.844
 3822POPC   GL251386  23.127  26.717   6.055
 3822POPC   C1A51387  22.677  26.368   6.100
 3822POPC   D2A51388  22.677  26.328   6.542
 3822POPC   C3A51389  22.757  26.719   6.735
 3822POPC   C4A51390  22.953  26.830   7.135
 3822POPC   C1B51391  23.282  27.020   6.342
 3822POPC   C2B51392  23.262  26.946   6.749
 3822POPC   C3B51393  23.334  27.187   7.073
 3822POPC   C4B51394  23.356  27.264   7.497
 3823POPC   NC351395  24.327  41.264   5.346
 3823POPC   PO451396  23.862  41.748   5.461
 3823POPC   GL151397  24.175  41.497   5.792
 3823POPC   GL251398  24.554  41.455   5.763
 3823POPC   C1A51399  24.410  41.651   6.202
 3823POPC   D2A51400  24.341  41.773   6.646
 3823POPC   C3A51401  24.582  41.676   7.025
 3823POPC   C4A51402  24.313  41.475   7.327
 3823POPC   C1B51403  24.798  41.315   6.121
 3823POPC   C2B51404  24.776  41.363   6.601
 3823POPC   C3B51405  24.663  41.149   7.028
 3823POPC   C4B51406  24.681  41.176   7.490
 3824POPC   NC351407  24.290  19.180   5.214
 3824POPC   PO451408  24.671  18.780   5.535
 3824POPC   GL151409  24.546  18.989   5.892
 3824POPC   GL251410  24.389  19.264   5.713
 3824POPC   C1A51411  24.561  19.047   6.380
 3824POPC   D2A51412  24.779  19.388   6.616
 3824POPC   C3A51413  24.792  19.200   7.002
 3824POPC   C4A51414  24.444  18.951   7.090
 3824POPC   C1B51415  24.456  19.446   6.113
 3824POPC   C2B51416  24.307  19.531   6.535
 3824POPC   C3B51417  24.421  19.560   6.966
 3824POPC   C4B51418  24.136  19.347   7.194
 3825POPC   NC351419  34.382  15.428   5.584
 3825POPC   PO451420  34.326  15.991   5.241
 3825POPC   GL151421  34.384  15.948   5.690
 3825POPC   GL251422  34.721  15.809   5.655
 3825POPC   C1A51423  34.442  16.094   6.148
 3825POPC   D2A51424  34.312  15.974   6.578
 3825POPC   C3A51425  34.376  16.089   7.003
 3825POPC   C4A51426  34.331  15.790   7.334
 3825POPC   C1B51427  34.902  15.796   6.070
 3825POPC   C2B51428  34.816  15.839   6.502
 3825POPC   C3B51429  34.652  15.685   6.896
 3825POPC   C4B51430  34.817  15.920   7.241
 3826POPC   NC351431  39.957  38.615   5.604
 3826POPC   PO451432  39.698  39.187   5.235
 3826POPC   GL151433  39.881  39.349   5.679
 3826POPC   GL251434  40.100  39.077   5.853
 3826POPC   C1A51435  39.987  39.459   6.162
 3826POPC   D2A51436  39.945  39.215   6.565
 3826POPC   C3A51437  39.988  39.340   7.015
 3826POPC   C4A51438  40.157  39.300   7.467
 3826POPC   C1B51439  40.317  39.026   6.223
 3826POPC   C2B51440  40.393  38.997   6.668
 3826POPC   C3B51441  40.377  39.021   7.077
 3826POPC   C4B51442  40.664  39.215   7.328
 3827POPC   NC351443  16.390  23.712   5.359
 3827POPC   PO451444  15.881  24.050   5.626
 3827POPC   GL151445  15.832  23.588   5.808
 3827POPC   GL251446  16.097  23.389   5.678
 3827POPC   C1A51447  15.861  23.361   6.244
 3827POPC   D2A51448  15.706  23.426   6.655
 3827POPC   C3A51449  15.917  23.499   7.012
 3827POPC   C4A51450  15.685  23.321   7.296
 3827POPC   C1B51451  16.325  23.453   6.066
 3827POPC   C2B51452  16.288  23.539   6.512
 3827POPC   C3B51453  16.414  23.470   6.943
 3827POPC   C4B51454  16.399  23.745   7.325
 3828POPC   NC351455  38.457   4.438   5.386
 3828POPC   PO451456  38.637   3.794   5.403
 3828POPC   GL151457  38.434   4.091   5.757
 3828POPC   GL251458  38.157   4.364   5.773
 3828POPC   C1A51459  38.536   4.313   6.153
 3828POPC   D2A51460  38.684   4.332   6.596
 3828POPC   C3A51461  38.532   3.989   6.866
 3828POPC   C4A51462  38.209   3.961   7.190
 3828POPC   C1B51463  38.103   4.598   6.160
 3828POPC   C2B51464  38.174   4.377   6.548
 3828POPC   C3B51465  38.251   4.466   6.991
 3828POPC   C4B51466  38.078   4.609   7.399
 3829POPC   NC351467  12.635  30.338   5.470
 3829POPC   PO451468  13.214  30.675   5.475
 3829POPC   GL151469  12.852  30.680   5.826
 3829POPC   GL251470  12.610  30.986   5.894
 3829POPC   C1A51471  12.691  30.652   6.274
 3829POPC   D2A51472  12.786  30.740   6.717
 3829POPC   C3A51473  12.629  30.603   7.098
 3829POPC   C4A51474  12.907  30.550   7.453
 3829POPC   C1B51475  12.836  31.174   6.283
 3829POPC   C2B51476  12.931  31.213   6.748
 3829POPC   C3B51477  13.013  31.000   7.179
 3829POPC   C4B51478  13.003  30.976   7.696
 3830POPC   NC351479  32.961  32.723   5.405
 3830POPC   PO451480  33.408  33.246   5.472
 3830POPC   GL151481  33.130  33.067   5.808
 3830POPC   GL251482  33.275  32.709   5.812
 3830POPC   C1A51483  32.963  33.187   6.247
 3830POPC   D2A51484  32.641  33.260   6.516
 3830POPC   C3A51485  32.831  33.210   6.886
 3830POPC   C4A51486  33.170  33.126   7.169
 3830POPC   C1B51487  33.033  32.705   6.182
 3830POPC   C2B51488  32.871  32.752   6.605
 3830POPC   C3B51489  33.005  32.658   7.025
 3830POPC   C4B51490  32.810  32.446   7.378
 3831POPC   NC351491  24.702  35.520   5.475
 3831POPC   PO451492  24.376  35.039   5.433
 3831POPC   GL151493  24.353  35.298   5.794
 3831POPC   GL251494  24.695  35.208   5.878
 3831POPC   C1A51495  24.244  35.539   6.158
 3831POPC   D2A51496  24.453  35.611   6.563
 3831POPC   C3A51497  24.314  35.449   6.982
 3831POPC   C4A51498  24.150  35.048   7.111
 3831POPC   C1B51499  24.812  35.499   6.192
 3831POPC   C2B51500  24.963  35.663   6.604
 3831POPC   C3B51501  24.845  35.547   7.044
 3831POPC   C4B51502  24.924  35.396   7.473
 3832POPC   NC351503  28.318   6.160   5.459
 3832POPC   PO451504  28.439   6.822   5.427
 3832POPC   GL151505  28.208   6.768   5.792
 3832POPC   GL251506  28.412   6.491   5.850
 3832POPC   C1A51507  28.240   6.794   6.253
 3832POPC   D2A51508  28.341   6.986   6.663
 3832POPC   C3A51509  28.145   6.739   6.997
 3832POPC   C4A51510  27.915   6.853   7.345
 3832POPC   C1B51511  28.770   6.378   6.102
 3832POPC   C2B51512  28.794   6.282   6.519
 3832POPC   C3B51513  28.604   6.368   6.897
 3832POPC   C4B51514  28.837   6.393   7.280
 3833POPC   NC351515  43.328   8.085   5.184
 3833POPC   PO451516  43.132   8.623   5.501
 3833POPC   GL151517  43.143   8.329   5.836
 3833POPC   GL251518  42.991   8.019   5.779
 3833POPC   C1A51519  43.117   8.306   6.283
 3833POPC   D2A51520  42.885   8.289   6.655
 3833POPC   C3A51521  43.111   8.331   7.044
 3833POPC   C4A51522  43.182   8.235   7.483
 3833POPC   C1B51523  43.335   7.897   6.117
 3833POPC   C2B51524  43.237   7.873   6.592
 3833POPC   C3B51525  43.085   7.828   7.030
 3833POPC   C4B51526  43.161   7.696   7.471
 3834POPC   NC351527  14.498  23.744   5.311
 3834POPC   PO451528  13.816  23.810   5.340
 3834POPC   GL151529  14.196  23.771   5.729
 3834POPC   GL251530  14.560  23.569   5.775
 3834POPC   C1A51531  14.358  23.717   6.207
 3834POPC   D2A51532  14.409  23.573   6.643
 3834POPC   C3A51533  14.586  23.817   6.998
 3834POPC   C4A51534  14.446  23.977   7.401
 3834POPC   C1B51535  14.779  23.243   6.061
 3834POPC   C2B51536  14.706  23.180   6.549
 3834POPC   C3B51537  14.731  23.335   6.997
 3834POPC   C4B51538  14.457  23.457   7.390
 3835POPC   NC351539  21.156  31.689   5.426
 3835POPC   PO451540  21.727  31.268   5.392
 3835POPC   GL151541  21.482  31.425   5.767
 3835POPC   GL251542  21.125  31.295   5.793
 3835POPC   C1A51543  21.356  31.625   6.168
 3835POPC   D2A51544  21.504  31.783   6.605
 3835POPC   C3A51545  21.263  31.704   6.990
 3835POPC   C4A51546  21.102  31.867   7.404
 3835POPC   C1B51547  21.168  31.151   6.207
 3835POPC   C2B51548  21.337  31.291   6.589
 3835POPC   C3B51549  21.315  31.097   6.977
 3835POPC   C4B51550  21.309  31.291   7.358
 3836POPC   NC351551  23.023  25.704   5.468
 3836POPC   PO451552  22.983  26.327   5.408
 3836POPC   GL151553  22.959  26.107   5.790
 3836POPC   GL251554  22.638  25.889   5.770
 3836POPC   C1A51555  23.166  26.205   6.201
 3836POPC   D2A51556  23.197  26.464   6.587
 3836POPC   C3A51557  22.985  26.343   6.994
 3836POPC   C4A51558  23.011  26.006   7.289
 3836POPC   C1B51559  22.815  25.747   6.162
 3836POPC   C2B51560  22.961  25.893   6.553
 3836POPC   C3B51561  22.699  25.929   6.887
 3836POPC   C4B51562  22.510  25.869   7.253
 3837POPC   NC351563  16.088   8.337   5.326
 3837POPC   PO451564  16.535   8.001   5.394
 3837POPC   GL151565  16.226   8.198   5.795
 3837POPC   GL251566  15.859   8.128   5.895
 3837POPC   C1A51567  16.122   8.381   6.247
 3837POPC   D2A51568  15.903   8.178   6.616
 3837POPC   C3A51569  15.949   8.315   7.048
 3837POPC   C4A51570  16.244   8.222   7.389
 3837POPC   C1B51571  15.594   8.367   6.231
 3837POPC   C2B51572  15.363   8.280   6.641
 3837POPC   C3B51573  15.470   8.154   7.086
 3837POPC   C4B51574  15.810   7.918   7.350
 3838POPC   NC351575  34.285  29.143   5.675
 3838POPC   PO451576  33.768  29.223   5.238
 3838POPC   GL151577  33.786  29.302   5.680
 3838POPC   GL251578  33.722  28.983   5.838
 3838POPC   C1A51579  33.852  29.385   6.142
 3838POPC   D2A51580  33.773  29.422   6.600
 3838POPC   C3A51581  34.010  29.282   6.971
 3838POPC   C4A51582  33.809  29.327   7.349
 3838POPC   C1B51583  33.896  28.814   6.247
 3838POPC   C2B51584  33.941  28.836   6.715
 3838POPC   C3B51585  33.793  28.844   7.155
 3838POPC   C4B51586  33.999  28.905   7.568
 3839POPC   NC351587  36.520  23.676   5.661
 3839POPC   PO451588  36.388  24.206   5.211
 3839POPC   GL151589  36.344  24.132   5.706
 3839POPC   GL251590  36.077  23.827   5.833
 3839POPC   C1A51591  36.350  24.041   6.191
 3839POPC   D2A51592  36.319  24.157   6.610
 3839POPC   C3A51593  36.462  23.915   6.958
 3839POPC   C4A51594  36.337  23.541   7.195
 3839POPC   C1B51595  36.058  23.575   6.200
 3839POPC   C2B51596  36.177  23.659   6.615
 3839POPC   C3B51597  35.911  23.606   6.935
 3839POPC   C4B51598  35.832  23.274   7.215
 3840POPC   NC351599   9.011  30.104   5.433
 3840POPC   PO451600   8.767  29.513   5.503
 3840POPC   GL151601   8.851  29.750   5.827
 3840POPC   GL251602   9.178  29.810   5.846
 3840POPC   C1A51603   8.873  29.850   6.248
 3840POPC   D2A51604   9.036  30.069   6.586
 3840POPC   C3A51605   8.926  29.787   6.914
 3840POPC   C4A51606   8.610  29.728   7.237
 3840POPC   C1B51607   9.385  30.009   6.218
 3840POPC   C2B51608   9.532  30.027   6.649
 3840POPC   C3B51609   9.293  30.111   7.034
 3840POPC   C4B51610   9.138  29.915   7.405
 3841POPC   NC351611  18.500  35.960   5.322
 3841POPC   PO451612  17.918  36.223   5.436
 3841POPC   GL151613  18.172  36.091   5.839
 3841POPC   GL251614  18.506  35.873   5.821
 3841POPC   C1A51615  18.118  36.212   6.301
 3841POPC   D2A51616  17.850  36.096   6.685
 3841POPC   C3A51617  18.043  36.235   7.058
 3841POPC   C4A51618  18.462  36.293   7.186
 3841POPC   C1B51619  18.365  35.758   6.236
 3841POPC   C2B51620  18.315  35.914   6.674
 3841POPC   C3B51621  18.280  35.764   7.078
 3841POPC   C4B51622  18.624  35.835   7.284
 3842POPC   NC351623   3.561   5.790   5.425
 3842POPC   PO451624   2.947   5.486   5.433
 3842POPC   GL151625   3.051   5.765   5.832
 3842POPC   GL251626   3.271   6.043   5.802
 3842POPC   C1A51627   3.181   5.874   6.300
 3842POPC   D2A51628   3.289   5.954   6.779
 3842POPC   C3A51629   3.360   5.595   7.080
 3842POPC   C4A51630   3.626   5.593   7.470
 3842POPC   C1B51631   3.606   6.107   6.119
 3842POPC   C2B51632   3.746   5.889   6.504
 3842POPC   C3B51633   3.791   5.831   6.950
 3842POPC   C4B51634   3.546   6.047   7.245
 3843POPC   NC351635  21.204  32.529   5.435
 3843POPC   PO451636  21.529  31.950   5.313
 3843POPC   GL151637  21.359  32.042   5.766
 3843POPC   GL251638  21.250  32.393   5.895
 3843POPC   C1A51639  21.492  32.124   6.219
 3843POPC   D2A51640  21.553  32.507   6.486
 3843POPC   C3A51641  21.648  32.359   6.897
 3843POPC   C4A51642  21.442  32.174   7.215
 3843POPC   C1B51643  21.078  32.489   6.279
 3843POPC   C2B51644  21.156  32.185   6.622
 3843POPC   C3B51645  20.960  32.148   6.986
 3843POPC   C4B51646  20.971  32.365   7.328
 3844POPC   NC351647  12.936  37.537   5.296
 3844POPC   PO451648  13.059  38.180   5.470
 3844POPC   GL151649  12.827  37.940   5.792
 3844POPC   GL251650  12.908  37.586   5.804
 3844POPC   C1A51651  12.838  37.883   6.248
 3844POPC   D2A51652  12.995  37.965   6.656
 3844POPC   C3A51653  12.931  37.645   6.944
 3844POPC   C4A51654  13.075  37.857   7.234
 3844POPC   C1B51655  12.913  37.373   6.196
 3844POPC   C2B51656  12.721  37.331   6.606
 3844POPC   C3B51657  12.408  37.358   6.945
 3844POPC   C4B51658  12.403  37.339   7.402
 3845POPC   NC351659  11.915  24.377   5.406
 3845POPC   PO451660  11.793  25.075   5.561
 3845POPC   GL151661  12.020  24.691   5.801
 3845POPC   GL251662  12.242  24.355   5.842
 3845POPC   C1A51663  11.883  24.503   6.182
 3845POPC   D2A51664  12.001  24.688   6.568
 3845POPC   C3A51665  11.884  24.492   6.974
 3845POPC   C4A51666  11.887  24.757   7.337
 3845POPC   C1B51667  12.394  24.462   6.271
 3845POPC   C2B51668  12.540  24.257   6.676
 3845POPC   C3B51669  12.577  24.212   7.126
 3845POPC   C4B51670  12.300  24.462   7.326
 3846POPC   NC351671   6.379   9.199   5.421
 3846POPC   PO451672   5.728   9.080   5.349
 3846POPC   GL151673   5.956   9.188   5.725
 3846POPC   GL251674   6.149   8.881   5.824
 3846POPC   C1A51675   5.856   9.198   6.164
 3846POPC   D2A51676   5.733   8.886   6.497
 3846POPC   C3A51677   5.749   8.969   6.969
 3846POPC   C4A51678   5.568   8.726   7.355
 3846POPC   C1B51679   6.090   8.626   6.231
 3846POPC   C2B51680   6.121   8.619   6.707
 3846POPC   C3B51681   6.038   8.581   7.151
 3846POPC   C4B51682   5.959   8.442   7.571
 3847POPC   NC351683  37.512   0.688   5.741
 3847POPC   PO451684  37.493   0.139   5.576
 3847POPC   GL151685  37.593   0.236   5.982
 3847POPC   GL251686  37.924   0.332   5.901
 3847POPC   C1A51687  37.684   0.392   6.420
 3847POPC   D2A51688  37.536   0.744   6.724
 3847POPC   C3A51689  37.667   0.705   7.165
 3847POPC   C4A51690  37.556   0.264   7.237
 3847POPC   C1B51691  38.071   0.029   6.199
 3847POPC   C2B51692  38.040   0.006   6.648
 3847POPC   C3B51693  37.971   0.347   6.952
 3847POPC   C4B51694  38.060   0.359   7.420
 3848POPC   NC351695  12.453  40.907   5.343
 3848POPC   PO451696  13.074  40.801   5.402
 3848POPC   GL151697  12.772  40.753   5.748
 3848POPC   GL251698  12.600  41.072   5.819
 3848POPC   C1A51699  12.678  40.639   6.188
 3848POPC   D2A51700  12.764  40.813   6.573
 3848POPC   C3A51701  12.572  40.705   6.952
 3848POPC   C4A51702  12.696  40.822   7.351
 3848POPC   C1B51703  12.969  41.060   6.126
 3848POPC   C2B51704  13.232  41.018   6.533
 3848POPC   C3B51705  13.018  41.081   6.944
 3848POPC   C4B51706  13.115  41.203   7.358
 3849POPC   NC351707  12.193  13.162   5.562
 3849POPC   PO451708  11.898  12.506   5.588
 3849POPC   GL151709  12.206  12.553   5.882
 3849POPC   GL251710  12.168  12.892   5.980
 3849POPC   C1A51711  12.336  12.537   6.275
 3849POPC   D2A51712  12.015  12.609   6.544
 3849POPC   C3A51713  12.132  12.900   6.869
 3849POPC   C4A51714  12.390  12.746   7.247
 3849POPC   C1B51715  12.086  13.097   6.376
 3849POPC   C2B51716  11.763  13.314   6.606
 3849POPC   C3B51717  11.655  13.155   6.998
 3849POPC   C4B51718  11.920  12.933   7.328
 3850POPC   NC351719  38.947  30.727   5.389
 3850POPC   PO451720  39.621  30.622   5.473
 3850POPC   GL151721  39.290  30.563   5.796
 3850POPC   GL251722  39.191  30.894   5.807
 3850POPC   C1A51723  39.124  30.473   6.243
 3850POPC   D2A51724  39.318  30.677   6.629
 3850POPC   C3A51725  39.375  30.558   7.081
 3850POPC   C4A51726  39.473  30.674   7.517
 3850POPC   C1B51727  39.254  30.981   6.221
 3850POPC   C2B51728  38.986  31.142   6.539
 3850POPC   C3B51729  39.160  31.054   6.939
 3850POPC   C4B51730  39.340  31.115   7.319
 3851POPC   NC351731   7.423  42.232   5.313
 3851POPC   PO451732   6.910  42.676   5.411
 3851POPC   GL151733   7.205  42.511   5.764
 3851POPC   GL251734   7.583  42.394   5.788
 3851POPC   C1A51735   7.276  42.341   6.189
 3851POPC   D2A51736   7.250  42.469   6.598
 3851POPC   C3A51737   7.305  42.257   6.978
 3851POPC   C4A51738   7.108  42.425   7.321
 3851POPC   C1B51739   7.644  42.015   6.087
 3851POPC   C2B51740   7.577  42.070   6.538
 3851POPC   C3B51741   7.764  42.031   6.964
 3851POPC   C4B51742   7.723  42.339   7.304
 3852POPC   NC351743   8.426  14.596   5.442
 3852POPC   PO451744   7.993  14.099   5.659
 3852POPC   GL151745   7.980  14.560   5.735
 3852POPC   GL251746   7.669  14.682   5.832
 3852POPC   C1A51747   8.126  14.829   6.083
 3852POPC   D2A51748   8.299  14.637   6.475
 3852POPC   C3A51749   8.238  14.720   6.925
 3852POPC   C4A51750   8.515  14.900   7.247
 3852POPC   C1B51751   7.803  14.484   6.251
 3852POPC   C2B51752   7.910  14.347   6.683
 3852POPC   C3B51753   8.196  14.168   6.963
 3852POPC   C4B51754   8.371  14.360   7.317
 3853POPC   NC351755  29.912   5.266   5.437
 3853POPC   PO451756  29.519   4.789   5.623
 3853POPC   GL151757  29.863   4.970   5.950
 3853POPC   GL251758  30.208   5.077   5.860
 3853POPC   C1A51759  30.133   4.872   6.356
 3853POPC   D2A51760  30.282   4.898   6.825
 3853POPC   C3A51761  29.916   4.968   7.092
 3853POPC   C4A51762  29.555   4.892   7.398
 3853POPC   C1B51763  30.334   5.319   6.254
 3853POPC   C2B51764  30.185   5.395   6.704
 3853POPC   C3B51765  30.245   5.368   7.177
 3853POPC   C4B51766  30.111   5.548   7.587
 3854POPC   NC351767  33.729  34.648   5.299
 3854POPC   PO451768  34.247  34.989   5.651
 3854POPC   GL151769  34.131  34.619   5.872
 3854POPC   GL251770  33.806  34.468   5.824
 3854POPC   C1A51771  34.060  34.622   6.306
 3854POPC   D2A51772  34.105  34.447   6.676
 3854POPC   C3A51773  34.155  34.696   7.041
 3854POPC   C4A51774  34.025  34.574   7.435
 3854POPC   C1B51775  33.558  34.616   6.219
 3854POPC   C2B51776  33.643  34.702   6.640
 3854POPC   C3B51777  33.385  34.713   7.005
 3854POPC   C4B51778  33.488  34.573   7.389
 3855POPC   NC351779  18.830   1.776   5.454
 3855POPC   PO451780  19.228   2.266   5.355
 3855POPC   GL151781  19.350   2.135   5.752
 3855POPC   GL251782  19.229   1.781   5.799
 3855POPC   C1A51783  19.209   2.135   6.165
 3855POPC   D2A51784  19.118   2.288   6.559
 3855POPC   C3A51785  19.383   2.228   6.884
 3855POPC   C4A51786  19.244   1.917   7.176
 3855POPC   C1B51787  19.119   1.633   6.235
 3855POPC   C2B51788  19.146   1.762   6.681
 3855POPC   C3B51789  18.822   1.947   6.888
 3855POPC   C4B51790  18.747   1.877   7.286
 3856POPC   NC351791  33.327  26.889   5.260
 3856POPC   PO451792  32.912  26.420   5.422
 3856POPC   GL151793  33.083  26.601   5.814
 3856POPC   GL251794  33.344  26.865   5.805
 3856POPC   C1A51795  33.117  26.667   6.268
 3856POPC   D2A51796  32.992  26.492   6.667
 3856POPC   C3A51797  32.951  26.817   6.967
 3856POPC   C4A51798  33.089  26.946   7.370
 3856POPC   C1B51799  33.361  27.138   6.194
 3856POPC   C2B51800  33.217  27.155   6.647
 3856POPC   C3B51801  33.424  27.175   7.064
 3856POPC   C4B51802  33.472  27.238   7.566
 3857POPC   NC351803   4.092  35.808   5.364
 3857POPC   PO451804   4.600  36.207   5.086
 3857POPC   GL151805   4.349  36.209   5.530
 3857POPC   GL251806   4.367  36.468   5.747
 3857POPC   C1A51807   4.223  36.075   6.017
 3857POPC   D2A51808   4.358  36.050   6.463
 3857POPC   C3A51809   4.142  36.168   6.861
 3857POPC   C4A51810   4.067  36.012   7.256
 3857POPC   C1B51811   4.478  36.489   6.176
 3857POPC   C2B51812   4.293  36.551   6.571
 3857POPC   C3B51813   4.524  36.553   6.932
 3857POPC   C4B51814   4.520  36.421   7.332
 3858POPC   NC351815  18.197  14.910   5.416
 3858POPC   PO451816  18.600  15.405   5.260
 3858POPC   GL151817  18.553  15.286   5.708
 3858POPC   GL251818  18.221  15.213   5.850
 3858POPC   C1A51819  18.617  15.232   6.178
 3858POPC   D2A51820  18.383  15.062   6.513
 3858POPC   C3A51821  18.343  15.239   6.925
 3858POPC   C4A51822  18.595  15.508   7.229
 3858POPC   C1B51823  17.990  14.972   6.180
 3858POPC   C2B51824  17.889  15.078   6.600
 3858POPC   C3B51825  17.953  14.884   6.954
 3858POPC   C4B51826  17.985  15.026   7.341
 3859POPC   NC351827   2.476   2.617   5.476
 3859POPC   PO451828   2.844   3.044   5.238
 3859POPC   GL151829   2.806   2.916   5.736
 3859POPC   GL251830   2.739   2.567   5.890
 3859POPC   C1A51831   2.620   2.944   6.182
 3859POPC   D2A51832   2.413   2.913   6.595
 3859POPC   C3A51833   2.635   2.881   7.001
 3859POPC   C4A51834   2.713   3.074   7.429
 3859POPC   C1B51835   2.711   2.384   6.266
 3859POPC   C2B51836   2.646   2.395   6.674
 3859POPC   C3B51837   2.820   2.248   7.016
 3859POPC   C4B51838   2.820   2.527   7.329
 3860POPC   NC351839  25.640  39.441   5.509
 3860POPC   PO451840  25.104  39.679   5.142
 3860POPC   GL151841  25.135  39.466   5.638
 3860POPC   GL251842  25.323  39.115   5.732
 3860POPC   C1A51843  25.012  39.291   6.102
 3860POPC   D2A51844  25.123  38.969   6.444
 3860POPC   C3A51845  25.082  39.130   6.854
 3860POPC   C4A51846  25.041  39.238   7.277
 3860POPC   C1B51847  25.522  39.190   6.153
 3860POPC   C2B51848  25.636  39.082   6.592
 3860POPC   C3B51849  25.587  39.083   7.032
 3860POPC   C4B51850  25.496  38.800   7.370
 3861POPC   NC351851  10.706  12.873   5.461
 3861POPC   PO451852  10.078  12.641   5.487
 3861POPC   GL151853  10.326  12.845   5.854
 3861POPC   GL251854  10.630  13.090   5.922
 3861POPC   C1A51855  10.576  12.694   6.237
 3861POPC   D2A51856  10.458  12.722   6.663
 3861POPC   C3A51857  10.706  12.565   6.993
 3861POPC   C4A51858  10.741  12.935   7.214
 3861POPC   C1B51859  10.352  13.183   6.296
 3861POPC   C2B51860  10.219  13.194   6.754
 3861POPC   C3B51861  10.189  13.131   7.217
 3861POPC   C4B51862  10.074  13.246   7.674
 3862POPC   NC351863  44.628   4.540   5.494
 3862POPC   PO451864  44.828   3.827   5.519
 3862POPC   GL151865  44.537   3.928   5.871
 3862POPC   GL251866  44.701   4.235   5.895
 3862POPC   C1A51867  44.518   4.073   6.338
 3862POPC   D2A51868  44.806   4.151   6.713
 3862POPC   C3A51869  44.715   4.094   7.169
 3862POPC   C4A51870  44.442   4.271   7.496
 3862POPC   C1B51871  44.894   4.449   6.245
 3862POPC   C2B51872  44.988   4.656   6.636
 3862POPC   C3B51873  44.774   4.602   7.020
 3862POPC   C4B51874  44.884   4.540   7.436
 3863POPC   NC351875   7.707  21.404   5.439
 3863POPC   PO451876   7.138  21.093   5.421
 3863POPC   GL151877   7.251  21.385   5.742
 3863POPC   GL251878   7.372  21.082   5.900
 3863POPC   C1A51879   7.430  21.537   6.136
 3863POPC   D2A51880   7.650  21.435   6.544
 3863POPC   C3A51881   7.501  21.508   6.966
 3863POPC   C4A51882   7.642  21.145   7.169
 3863POPC   C1B51883   7.101  21.108   6.287
 3863POPC   C2B51884   7.154  21.144   6.759
 3863POPC   C3B51885   7.156  21.111   7.217
 3863POPC   C4B51886   7.077  21.009   7.647
 3864POPC   NC351887  20.750  39.427   5.514
 3864POPC   PO451888  20.118  39.126   5.324
 3864POPC   GL151889  20.369  39.104   5.721
 3864POPC   GL251890  20.360  39.453   5.846
 3864POPC   C1A51891  20.598  39.175   6.150
 3864POPC   D2A51892  20.751  39.431   6.505
 3864POPC   C3A51893  20.681  39.276   6.910
 3864POPC   C4A51894  20.477  39.068   7.238
 3864POPC   C1B51895  20.365  39.662   6.236
 3864POPC   C2B51896  20.282  39.771   6.667
 3864POPC   C3B51897  20.336  39.640   7.083
 3864POPC   C4B51898  20.261  39.462   7.483
 3865POPC   NC351899  22.952   7.129   5.123
 3865POPC   PO451900  22.687   7.667   5.506
 3865POPC   GL151901  23.032   7.644   5.826
 3865POPC   GL251902  23.132   7.304   5.968
 3865POPC   C1A51903  23.060   7.681   6.275
 3865POPC   D2A51904  23.191   7.338   6.539
 3865POPC   C3A51905  23.083   7.473   6.912
 3865POPC   C4A51906  22.894   7.512   7.277
 3865POPC   C1B51907  22.752   7.243   6.253
 3865POPC   C2B51908  22.701   7.226   6.703
 3865POPC   C3B51909  22.517   7.129   7.073
 3865POPC   C4B51910  22.689   7.066   7.484
 3866POPC   NC351911  32.968  22.528   5.306
 3866POPC   PO451912  32.776  21.896   5.455
 3866POPC   GL151913  32.831  22.141   5.859
 3866POPC   GL251914  32.763  22.495   5.792
 3866POPC   C1A51915  33.058  22.380   6.226
 3866POPC   D2A51916  33.181  22.373   6.682
 3866POPC   C3A51917  32.951  22.044   6.910
 3866POPC   C4A51918  33.053  21.812   7.255
 3866POPC   C1B51919  32.555  22.467   6.200
 3866POPC   C2B51920  32.629  22.339   6.621
 3866POPC   C3B51921  32.627  22.438   7.064
 3866POPC   C4B51922  32.843  22.247   7.423
 3867POPC   NC351923   4.359  44.986   5.690
 3867POPC   PO451924   4.676  44.457   5.405
 3867POPC   GL151925   4.397  44.425   5.781
 3867POPC   GL251926   4.062  44.563   5.862
 3867POPC   C1A51927   4.428  44.577   6.214
 3867POPC   D2A51928   4.492  44.466   6.616
 3867POPC   C3A51929   4.347  44.720   6.918
 3867POPC   C4A51930   4.555  44.873   7.253
 3867POPC   C1B51931   3.859  44.437   6.246
 3867POPC   C2B51932   3.984  44.392   6.687
 3867POPC   C3B51933   4.128  44.109   7.003
 3867POPC   C4B51934   4.206  44.368   7.280
 3868POPC   NC351935  35.971  33.997   5.544
 3868POPC   PO451936  36.514  34.241   5.651
 3868POPC   GL151937  36.353  33.802   5.807
 3868POPC   GL251938  36.020  33.657   5.916
 3868POPC   C1A51939  36.476  33.538   6.155
 3868POPC   D2A51940  36.162  33.560   6.495
 3868POPC   C3A51941  36.292  33.657   6.890
 3868POPC   C4A51942  36.077  33.914   7.155
 3868POPC   C1B51943  35.672  33.471   6.129
 3868POPC   C2B51944  35.698  33.340   6.534
 3868POPC   C3B51945  35.791  33.523   6.907
 3868POPC   C4B51946  35.686  33.604   7.303
 3869POPC   NC351947  25.581  42.881   5.670
 3869POPC   PO451948  25.065  42.986   5.292
 3869POPC   GL151949  25.098  43.135   5.744
 3869POPC   GL251950  25.112  42.827   5.882
 3869POPC   C1A51951  25.300  43.251   6.194
 3869POPC   D2A51952  25.451  43.384   6.645
 3869POPC   C3A51953  25.304  43.265   7.079
 3869POPC   C4A51954  25.353  43.487   7.490
 3869POPC   C1B51955  25.309  42.748   6.287
 3869POPC   C2B51956  25.238  42.866   6.718
 3869POPC   C3B51957  25.363  42.716   7.123
 3869POPC   C4B51958  25.236  42.610   7.515
 3870POPC   NC351959  17.757  11.818   5.189
 3870POPC   PO451960  17.716  11.162   5.238
 3870POPC   GL151961  17.593  11.151   5.675
 3870POPC   GL251962  17.484  11.469   5.657
 3870POPC   C1A51963  17.464  11.084   6.144
 3870POPC   D2A51964  17.562  10.926   6.582
 3870POPC   C3A51965  17.425  11.097   6.974
 3870POPC   C4A51966  17.404  11.163   7.420
 3870POPC   C1B51967  17.510  11.583   6.105
 3870POPC   C2B51968  17.472  11.439   6.545
 3870POPC   C3B51969  17.528  11.604   6.970
 3870POPC   C4B51970  17.726  11.629   7.388
 3871POPC   NC351971  10.926  24.229   5.406
 3871POPC   PO451972  11.503  24.589   5.273
 3871POPC   GL151973  11.242  24.561   5.699
 3871POPC   GL251974  10.909  24.755   5.710
 3871POPC   C1A51975  11.309  24.452   6.177
 3871POPC   D2A51976  11.506  24.517   6.602
 3871POPC   C3A51977  11.357  24.353   7.021
 3871POPC   C4A51978  11.534  24.382   7.451
 3871POPC   C1B51979  10.841  24.713   6.192
 3871POPC   C2B51980  10.956  24.585   6.653
 3871POPC   C3B51981  11.055  24.771   7.094
 3871POPC   C4B51982  11.143  24.681   7.558
 3872POPC   NC351983  32.989  40.534   5.380
 3872POPC   PO451984  32.843  39.854   5.428
 3872POPC   GL151985  32.949  40.111   5.753
 3872POPC   GL251986  33.125  39.841   5.927
 3872POPC   C1A51987  32.921  40.233   6.190
 3872POPC   D2A51988  32.927  40.029   6.604
 3872POPC   C3A51989  33.062  40.280   6.950
 3872POPC   C4A51990  33.054  40.246   7.387
 3872POPC   C1B51991  33.040  39.609   6.318
 3872POPC   C2B51992  33.092  39.560   6.783
 3872POPC   C3B51993  33.111  39.796   7.176
 3872POPC   C4B51994  33.295  39.873   7.621
 3873POPC   NC351995  44.332  35.319   5.423
 3873POPC   PO451996  43.780  35.317   5.402
 3873POPC   GL151997  43.946  35.270   5.820
 3873POPC   GL251998  44.285  35.372   5.953
 3873POPC   C1A51999  43.801  35.337   6.241
 3873POPC   D2A52000  43.722  35.576   6.619
 3873POPC   C3A52001  43.609  35.339   6.972
 3873POPC   C4A52002  43.562  35.371   7.419
 3873POPC   C1B52003  44.274  35.436   6.432
 3873POPC   C2B52004  44.156  35.321   6.858
 3873POPC   C3B52005  44.038  35.451   7.260
 3873POPC   C4B52006  43.901  35.793   7.521
 3874POPC   NC352007  21.978  34.728   5.397
 3874POPC   PO452008  22.350  34.187   5.303
 3874POPC   GL152009  22.361  34.468   5.690
 3874POPC   GL252010  22.033  34.544   5.864
 3874POPC   C1A52011  22.440  34.456   6.166
 3874POPC   D2A52012  22.213  34.410   6.560
 3874POPC   C3A52013  22.420  34.527   6.931
 3874POPC   C4A52014  22.289  34.504   7.332
 3874POPC   C1B52015  22.046  34.775   6.252
 3874POPC   C2B52016  22.159  34.955   6.622
 3874POPC   C3B52017  21.980  34.786   6.988
 3874POPC   C4B52018  21.741  34.790   7.333
 3875POPC   NC352019   6.851  24.751   5.450
 3875POPC   PO452020   6.493  24.304   5.228
 3875POPC   GL152021   6.515  24.409   5.699
 3875POPC   GL252022   6.850  24.446   5.846
 3875POPC   C1A52023   6.429  24.498   6.137
 3875POPC   D2A52024   6.588  24.427   6.539
 3875POPC   C3A52025   6.347  24.241   6.842
 3875POPC   C4A52026   6.286  24.302   7.277
 3875POPC   C1B52027   6.922  24.674   6.239
 3875POPC   C2B52028   6.950  24.743   6.707
 3875POPC   C3B52029   6.745  24.664   7.148
 3875POPC   C4B52030   6.976  24.827   7.564
 3876POPC   NC352031  24.911  22.898   5.102
 3876POPC   PO452032  24.275  23.046   5.350
 3876POPC   GL152033  24.239  22.816   5.758
 3876POPC   GL252034  24.575  22.918   5.857
 3876POPC   C1A52035  24.217  22.800   6.230
 3876POPC   D2A52036  24.346  22.980   6.645
 3876POPC   C3A52037  24.305  22.777   7.043
 3876POPC   C4A52038  24.405  23.039   7.418
 3876POPC   C1B52039  24.853  23.217   6.115
 3876POPC   C2B52040  24.824  23.162   6.554
 3876POPC   C3B52041  24.758  23.021   6.977
 3876POPC   C4B52042  24.777  22.720   7.302
 3877POPC   NC352043  19.806   8.527   5.499
 3877POPC   PO452044  19.871   9.213   5.502
 3877POPC   GL152045  19.920   8.887   5.858
 3877POPC   GL252046  20.258   8.724   5.912
 3877POPC   C1A52047  19.871   9.028   6.314
 3877POPC   D2A52048  19.501   9.090   6.609
 3877POPC   C3A52049  19.552   9.130   7.062
 3877POPC   C4A52050  19.946   9.288   7.193
 3877POPC   C1B52051  20.114   8.572   6.275
 3877POPC   C2B52052  20.033   8.641   6.679
 3877POPC   C3B52053  19.785   8.680   7.045
 3877POPC   C4B52054  19.463   8.574   7.350
 3878POPC   NC352055  12.015  41.766   5.432
 3878POPC   PO452056  12.080  41.021   5.589
 3878POPC   GL152057  11.903  41.312   5.777
 3878POPC   GL252058  12.180  41.506   5.862
 3878POPC   C1A52059  11.803  41.406   6.217
 3878POPC   D2A52060  11.899  41.269   6.625
 3878POPC   C3A52061  11.785  41.495   7.030
 3878POPC   C4A52062  11.866  41.365   7.457
 3878POPC   C1B52063  12.203  41.725   6.268
 3878POPC   C2B52064  12.228  41.677   6.732
 3878POPC   C3B52065  12.246  41.655   7.187
 3878POPC   C4B52066  12.310  41.554   7.644
 3879POPC   NC352067  10.697  37.957   5.529
 3879POPC   PO452068  10.908  37.319   5.406
 3879POPC   GL152069  10.578  37.458   5.796
 3879POPC   GL252070  10.375  37.782   5.894
 3879POPC   C1A52071  10.440  37.462   6.292
 3879POPC   D2A52072  10.601  37.661   6.729
 3879POPC   C3A52073  10.492  37.419   7.127
 3879POPC   C4A52074  10.143  37.493   7.416
 3879POPC   C1B52075  10.590  37.958   6.271
 3879POPC   C2B52076  10.685  38.224   6.611
 3879POPC   C3B52077  10.471  38.191   6.952
 3879POPC   C4B52078  10.423  37.908   7.267
 3880POPC   NC352079  37.518  43.974   5.577
 3880POPC   PO452080  38.007  43.697   5.449
 3880POPC   GL152081  37.931  43.802   5.852
 3880POPC   GL252082  37.979  43.484   5.982
 3880POPC   C1A52083  37.715  43.896   6.250
 3880POPC   D2A52084  37.460  44.019   6.594
 3880POPC   C3A52085  37.621  44.165   6.995
 3880POPC   C4A52086  37.617  44.124   7.418
 3880POPC   C1B52087  38.082  43.586   6.401
 3880POPC   C2B52088  37.908  43.807   6.762
 3880POPC   C3B52089  37.936  43.745   7.219
 3880POPC   C4B52090  38.026  43.849   7.683
 3881POPC   NC352091   3.181  14.077   5.575
 3881POPC   PO452092   3.677  14.554   5.447
 3881POPC   GL152093   3.418  14.518   5.776
 3881POPC   GL252094   3.057  14.644   5.731
 3881POPC   C1A52095   3.636  14.452   6.169
 3881POPC   D2A52096   3.919  14.360   6.506
 3881POPC   C3A52097   3.691  14.400   6.874
 3881POPC   C4A52098   3.486  14.360   7.247
 3881POPC   C1B52099   3.123  14.534   6.186
 3881POPC   C2B52100   3.315  14.213   6.484
 3881POPC   C3B52101   3.247  14.038   6.885
 3881POPC   C4B52102   2.985  14.230   7.186
 3882POPC   NC352103  41.756  10.229   5.289
 3882POPC   PO452104  41.268  10.734   5.306
 3882POPC   GL152105  41.406  10.449   5.618
 3882POPC   GL252106  41.692  10.605   5.767
 3882POPC   C1A52107  41.419  10.304   6.052
 3882POPC   D2A52108  41.443  10.310   6.489
 3882POPC   C3A52109  41.239  10.583   6.764
 3882POPC   C4A52110  41.341  10.421   7.174
 3882POPC   C1B52111  41.880  10.847   6.088
 3882POPC   C2B52112  41.855  10.643   6.473
 3882POPC   C3B52113  41.734  10.625   6.873
 3882POPC   C4B52114  41.854  10.557   7.252
 3883POPC   NC352115  43.583   8.472   5.578
 3883POPC   PO452116  43.748   7.904   5.273
 3883POPC   GL152117  43.986   8.116   5.648
 3883POPC   GL252118  44.104   8.473   5.739
 3883POPC   C1A52119  43.831   8.141   6.094
 3883POPC   D2A52120  43.647   8.174   6.504
 3883POPC   C3A52121  43.925   8.102   6.865
 3883POPC   C4A52122  43.954   8.079   7.310
 3883POPC   C1B52123  44.049   8.630   6.182
 3883POPC   C2B52124  43.965   8.574   6.642
 3883POPC   C3B52125  43.851   8.547   7.113
 3883POPC   C4B52126  44.117   8.514   7.517
 3884POPC   NC352127  13.427  33.647   4.955
 3884POPC   PO452128  13.871  33.982   5.397
 3884POPC   GL152129  13.621  33.698   5.675
 3884POPC   GL252130  13.828  33.486   5.897
 3884POPC   C1A52131  13.440  33.771   6.087
 3884POPC   D2A52132  13.500  34.154   6.347
 3884POPC   C3A52133  13.529  34.101   6.794
 3884POPC   C4A52134  13.611  33.922   7.161
 3884POPC   C1B52135  13.873  33.457   6.293
 3884POPC   C2B52136  13.676  33.694   6.542
 3884POPC   C3B52137  13.480  33.560   6.859
 3884POPC   C4B52138  13.828  33.445   7.147
 3885POPC   NC352139  36.145  17.997   5.379
 3885POPC   PO452140  36.524  18.484   5.474
 3885POPC   GL152141  36.241  18.304   5.797
 3885POPC   GL252142  35.882  18.319   5.753
 3885POPC   C1A52143  36.174  18.162   6.216
 3885POPC   D2A52144  36.234  17.986   6.612
 3885POPC   C3A52145  36.245  18.284   6.923
 3885POPC   C4A52146  36.447  18.226   7.280
 3885POPC   C1B52147  35.685  18.357   6.156
 3885POPC   C2B52148  35.862  18.368   6.573
 3885POPC   C3B52149  35.703  18.334   6.980
 3885POPC   C4B52150  35.943  18.170   7.344
 3886POPC   NC352151  30.169  35.841   5.545
 3886POPC   PO452152  29.731  36.287   5.270
 3886POPC   GL152153  29.801  36.342   5.740
 3886POPC   GL252154  29.517  36.246   5.942
 3886POPC   C1A52155  29.978  36.381   6.160
 3886POPC   D2A52156  29.760  36.435   6.567
 3886POPC   C3A52157  29.914  36.323   6.984
 3886POPC   C4A52158  29.667  36.295   7.382
 3886POPC   C1B52159  29.673  35.978   6.291
 3886POPC   C2B52160  29.751  35.917   6.731
 3886POPC   C3B52161  29.769  35.850   7.165
 3886POPC   C4B52162  29.981  35.507   7.362
 3887POPC   NC352163  15.055  22.366   5.206
 3887POPC   PO452164  15.561  22.109   5.550
 3887POPC   GL152165  15.263  22.339   5.813
 3887POPC   GL252166  14.981  22.124   5.831
 3887POPC   C1A52167  15.124  22.417   6.261
 3887POPC   D2A52168  15.122  22.185   6.671
 3887POPC   C3A52169  15.083  22.427   7.040
 3887POPC   C4A52170  15.362  22.469   7.393
 3887POPC   C1B52171  14.975  21.912   6.245
 3887POPC   C2B52172  14.833  21.767   6.645
 3887POPC   C3B52173  15.006  21.671   7.042
 3887POPC   C4B52174  15.153  22.003   7.288
 3888POPC   NC352175  10.837  11.882   5.474
 3888POPC   PO452176  10.189  11.764   5.484
 3888POPC   GL152177  10.442  11.962   5.801
 3888POPC   GL252178  10.437  12.336   5.766
 3888POPC   C1A52179  10.573  12.087   6.205
 3888POPC   D2A52180  10.776  12.290   6.551
 3888POPC   C3A52181  10.889  12.047   6.918
 3888POPC   C4A52182  10.741  11.871   7.318
 3888POPC   C1B52183  10.172  12.382   6.160
 3888POPC   C2B52184  10.242  12.259   6.612
 3888POPC   C3B52185  10.391  12.011   6.966
 3888POPC   C4B52186  10.320  11.568   7.059
 3889POPC   NC352187  14.516  11.626   5.395
 3889POPC   PO452188  14.139  11.178   5.438
 3889POPC   GL152189  14.377  11.258   5.795
 3889POPC   GL252190  14.272  11.576   5.857
 3889POPC   C1A52191  14.533  11.057   6.196
 3889POPC   D2A52192  14.653  11.235   6.596
 3889POPC   C3A52193  14.398  11.111   6.971
 3889POPC   C4A52194  14.109  11.423   7.187
 3889POPC   C1B52195  14.402  11.585   6.270
 3889POPC   C2B52196  14.234  11.548   6.688
 3889POPC   C3B52197  14.552  11.603   6.995
 3889POPC   C4B52198  14.868  11.294   7.063
 3890POPC   NC352199  34.695  14.822   5.388
 3890POPC   PO452200  34.422  14.291   5.181
 3890POPC   GL152201  34.547  14.308   5.644
 3890POPC   GL252202  34.760  14.566   5.806
 3890POPC   C1A52203  34.398  14.237   6.094
 3890POPC   D2A52204  34.521  14.185   6.561
 3890POPC   C3A52205  34.610  14.505   6.892
 3890POPC   C4A52206  34.438  14.442   7.330
 3890POPC   C1B52207  34.976  14.811   6.123
 3890POPC   C2B52208  34.804  14.882   6.549
 3890POPC   C3B52209  35.009  14.866   6.944
 3890POPC   C4B52210  34.851  14.749   7.360
 3891POPC   NC352211  34.410  42.541   5.116
 3891POPC   PO452212  34.325  42.030   5.621
 3891POPC   GL152213  34.698  42.150   5.884
 3891POPC   GL252214  34.438  42.252   6.101
 3891POPC   C1A52215  34.939  42.184   6.254
 3891POPC   D2A52216  34.738  42.275   6.640
 3891POPC   C3A52217  34.942  42.387   7.013
 3891POPC   C4A52218  34.779  42.382   7.438
 3891POPC   C1B52219  34.105  41.999   6.271
 3891POPC   C2B52220  33.868  41.986   6.643
 3891POPC   C3B52221  33.927  42.000   7.049
 3891POPC   C4B52222  34.293  42.237   7.117
 3892POPC   NC352223  18.782  12.232   5.290
 3892POPC   PO452224  18.122  12.070   5.338
 3892POPC   GL152225  18.237  12.118   5.797
 3892POPC   GL252226  18.002  12.308   6.008
 3892POPC   C1A52227  18.444  11.966   6.187
 3892POPC   D2A52228  18.316  12.063   6.593
 3892POPC   C3A52229  18.522  11.877   6.910
 3892POPC   C4A52230  18.373  12.055   7.270
 3892POPC   C1B52231  18.371  12.461   6.267
 3892POPC   C2B52232  18.661  12.515   6.623
 3892POPC   C3B52233  18.623  12.459   7.087
 3892POPC   C4B52234  18.690  12.324   7.553
 3893POPC   NC352235  16.575  21.632   5.474
 3893POPC   PO452236  16.849  21.077   5.589
 3893POPC   GL152237  16.788  21.393   5.895
 3893POPC   GL252238  16.450  21.327   5.864
 3893POPC   C1A52239  16.679  21.328   6.340
 3893POPC   D2A52240  16.867  21.079   6.642
 3893POPC   C3A52241  16.707  21.118   7.035
 3893POPC   C4A52242  16.855  21.408   7.305
 3893POPC   C1B52243  16.370  21.684   6.113
 3893POPC   C2B52244  16.399  21.745   6.539
 3893POPC   C3B52245  16.531  21.629   6.953
 3893POPC   C4B52246  16.370  21.475   7.342
 3894POPC   NC352247  10.994  20.886   5.531
 3894POPC   PO452248  11.543  20.584   5.536
 3894POPC   GL152249  11.359  20.730   5.886
 3894POPC   GL252250  11.037  20.600   5.946
 3894POPC   C1A52251  11.451  20.747   6.320
 3894POPC   D2A52252  11.305  20.940   6.708
 3894POPC   C3A52253  11.396  20.626   7.000
 3894POPC   C4A52254  11.483  20.361   7.350
 3894POPC   C1B52255  11.014  20.986   6.197
 3894POPC   C2B52256  10.792  20.987   6.568
 3894POPC   C3B52257  10.822  20.875   6.984
 3894POPC   C4B52258  10.989  20.626   7.312
 3895POPC   NC352259  22.224  43.915   5.370
 3895POPC   PO452260  21.771  44.311   5.577
 3895POPC   GL152261  21.974  43.910   5.816
 3895POPC   GL252262  22.367  43.883   5.871
 3895POPC   C1A52263  22.015  43.748   6.279
 3895POPC   D2A52264  21.844  43.625   6.663
 3895POPC   C3A52265  21.949  43.915   6.959
 3895POPC   C4A52266  22.121  43.953   7.344
 3895POPC   C1B52267  22.419  43.514   6.147
 3895POPC   C2B52268  22.289  43.377   6.555
 3895POPC   C3B52269  22.339  43.574   6.939
 3895POPC   C4B52270  22.560  43.641   7.333
 3896POPC   NC352271  43.299   9.054   5.428
 3896POPC   PO452272  42.579   9.233   5.374
 3896POPC   GL152273  42.863   9.107   5.732
 3896POPC   GL252274  43.043   9.386   5.730
 3896POPC   C1A52275  42.880   8.858   6.144
 3896POPC   D2A52276  43.106   8.731   6.543
 3896POPC   C3A52277  42.998   8.820   6.968
 3896POPC   C4A52278  43.218   8.738   7.350
 3896POPC   C1B52279  43.139   9.335   6.168
 3896POPC   C2B52280  42.965   9.206   6.569
 3896POPC   C3B52281  43.002   9.329   6.989
 3896POPC   C4B52282  43.153   9.242   7.426
 3897POPC   NC352283  19.640  39.264   5.278
 3897POPC   PO452284  19.015  39.443   5.105
 3897POPC   GL152285  19.183  39.320   5.574
 3897POPC   GL252286  19.283  38.948   5.753
 3897POPC   C1A52287  19.144  39.338   6.059
 3897POPC   D2A52288  19.097  39.192   6.502
 3897POPC   C3A52289  18.857  39.453   6.825
 3897POPC   C4A52290  18.804  39.436   7.281
 3897POPC   C1B52291  19.521  38.961   6.187
 3897POPC   C2B52292  19.452  38.861   6.661
 3897POPC   C3B52293  19.184  39.064   7.015
 3897POPC   C4B52294  19.282  39.291   7.413
 3898POPC   NC352295  22.289   3.782   5.373
 3898POPC   PO452296  21.805   3.431   5.817
 3898POPC   GL152297  22.167   3.638   5.858
 3898POPC   GL252298  22.455   3.442   5.734
 3898POPC   C1A52299  22.189   3.823   6.269
 3898POPC   D2A52300  21.897   3.895   6.636
 3898POPC   C3A52301  22.141   3.761   7.005
 3898POPC   C4A52302  21.995   3.432   7.285
 3898POPC   C1B52303  22.408   3.327   6.192
 3898POPC   C2B52304  22.339   3.454   6.637
 3898POPC   C3B52305  22.461   3.315   7.069
 3898POPC   C4B52306  22.425   3.262   7.524
 3899POPC   NC352307  10.085  32.295   5.262
 3899POPC   PO452308  10.682  32.098   5.351
 3899POPC   GL152309  10.610  32.052   5.778
 3899POPC   GL252310  10.261  32.148   5.785
 3899POPC   C1A52311  10.488  31.908   6.187
 3899POPC   D2A52312  10.373  32.006   6.589
 3899POPC   C3A52313  10.713  31.993   6.862
 3899POPC   C4A52314  10.526  32.035   7.250
 3899POPC   C1B52315  10.467  32.441   6.080
 3899POPC   C2B52316  10.468  32.521   6.508
 3899POPC   C3B52317  10.408  32.407   6.936
 3899POPC   C4B52318  10.175  32.444   7.306
 3900POPC   NC352319  17.818  12.357   5.524
 3900POPC   PO452320  17.337  11.973   5.375
 3900POPC   GL152321  17.611  11.962   5.752
 3900POPC   GL252322  17.896  11.760   5.696
 3900POPC   C1A52323  17.565  12.086   6.188
 3900POPC   D2A52324  17.351  11.932   6.555
 3900POPC   C3A52325  17.565  12.127   6.911
 3900POPC   C4A52326  17.422  12.241   7.305
 3900POPC   C1B52327  17.985  11.766   6.138
 3900POPC   C2B52328  17.843  11.812   6.565
 3900POPC   C3B52329  17.997  11.831   6.986
 3900POPC   C4B52330  17.890  12.096   7.360
 3901POPC   NC352331  44.309  29.024   5.396
 3901POPC   PO452332  43.641  28.917   5.304
 3901POPC   GL152333  43.723  29.146   5.686
 3901POPC   GL252334  44.052  29.317   5.726
 3901POPC   C1A52335  43.856  29.018   6.100
 3901POPC   D2A52336  44.126  28.844   6.420
 3901POPC   C3A52337  44.045  28.926   6.879
 3901POPC   C4A52338  43.661  28.922   7.147
 3901POPC   C1B52339  44.291  29.279   6.121
 3901POPC   C2B52340  44.309  29.299   6.579
 3901POPC   C3B52341  44.022  29.449   6.887
 3901POPC   C4B52342  43.917  29.335   7.313
 3902POPC   NC352343   0.652  20.083   5.340
 3902POPC   PO452344   0.311  19.542   5.394
 3902POPC   GL152345   0.373  19.854   5.730
 3902POPC   GL252346   0.675  19.718   5.867
 3902POPC   C1A52347   0.306  20.040   6.169
 3902POPC   D2A52348   0.433  19.936   6.625
 3902POPC   C3A52349   0.128  19.996   6.977
 3902POPC   C4A52350   0.031  19.837   7.418
 3902POPC   C1B52351   0.825  19.593   6.307
 3902POPC   C2B52352   0.702  19.478   6.748
 3902POPC   C3B52353   0.451  19.630   7.117
 3902POPC   C4B52354   0.504  20.020   7.378
 3903POPC   NC352355  13.382  36.173   5.513
 3903POPC   PO452356  14.028  36.291   5.434
 3903POPC   GL152357  13.805  35.938   5.707
 3903POPC   GL252358  13.473  35.705   5.711
 3903POPC   C1A52359  13.919  35.922   6.135
 3903POPC   D2A52360  14.025  36.135   6.498
 3903POPC   C3A52361  13.862  36.061   6.884
 3903POPC   C4A52362  13.827  36.378   7.178
 3903POPC   C1B52363  13.397  35.913   6.121
 3903POPC   C2B52364  13.417  36.222   6.444
 3903POPC   C3B52365  13.370  36.240   6.886
 3903POPC   C4B52366  13.414  35.948   7.233
 3904POPC   NC352367  19.633  12.753   5.365
 3904POPC   PO452368  20.207  12.717   5.674
 3904POPC   GL152369  19.823  12.715   5.871
 3904POPC   GL252370  19.739  13.034   5.818
 3904POPC   C1A52371  19.839  12.714   6.307
 3904POPC   D2A52372  19.924  12.644   6.735
 3904POPC   C3A52373  20.059  12.964   7.060
 3904POPC   C4A52374  20.160  13.104   7.508
 3904POPC   C1B52375  19.437  13.015   6.135
 3904POPC   C2B52376  19.391  12.870   6.562
 3904POPC   C3B52377  19.564  12.978   6.954
 3904POPC   C4B52378  19.669  12.983   7.396
 3905POPC   NC352379   1.474  39.234   5.303
 3905POPC   PO452380   0.824  39.289   5.306
 3905POPC   GL152381   1.082  39.271   5.692
 3905POPC   GL252382   1.307  39.491   5.755
 3905POPC   C1A52383   1.350  39.010   5.994
 3905POPC   D2A52384   1.516  39.056   6.397
 3905POPC   C3A52385   1.224  39.106   6.725
 3905POPC   C4A52386   1.302  38.939   7.111
 3905POPC   C1B52387   1.124  39.420   6.193
 3905POPC   C2B52388   0.935  39.665   6.519
 3905POPC   C3B52389   0.848  39.650   6.942
 3905POPC   C4B52390   1.130  39.433   7.176
 3906POPC   NC352391  13.824  37.995   5.268
 3906POPC   PO452392  13.373  37.541   5.452
 3906POPC   GL152393  13.770  37.599   5.673
 3906POPC   GL252394  13.732  37.285   5.851
 3906POPC   C1A52395  13.864  37.748   6.118
 3906POPC   D2A52396  13.757  37.648   6.570
 3906POPC   C3A52397  13.523  37.977   6.802
 3906POPC   C4A52398  13.550  38.018   7.240
 3906POPC   C1B52399  13.428  37.451   6.149
 3906POPC   C2B52400  13.247  37.522   6.554
 3906POPC   C3B52401  13.412  37.500   6.950
 3906POPC   C4B52402  13.394  37.313   7.309
 3907POPC   NC352403   2.078  12.009   5.392
 3907POPC   PO452404   1.739  12.524   5.052
 3907POPC   GL152405   1.777  12.342   5.643
 3907POPC   GL252406   2.214  12.226   5.816
 3907POPC   C1A52407   1.807  12.114   6.040
 3907POPC   D2A52408   1.855  11.953   6.444
 3907POPC   C3A52409   1.687  12.125   6.797
 3907POPC   C4A52410   1.695  11.926   7.197
 3907POPC   C1B52411   2.292  12.160   6.256
 3907POPC   C2B52412   2.167  12.311   6.670
 3907POPC   C3B52413   2.123  12.185   7.082
 3907POPC   C4B52414   2.304  11.789   7.222
 3908POPC   NC352415  44.438   7.055   5.081
 3908POPC   PO452416  44.849   6.679   5.548
 3908POPC   GL152417  44.719   6.592   5.909
 3908POPC   GL252418  44.894   6.286   5.896
 3908POPC   C1A52419  44.527   6.785   6.238
 3908POPC   D2A52420  44.605   6.971   6.632
 3908POPC   C3A52421  44.416   6.709   6.938
 3908POPC   C4A52422  44.509   6.747   7.363
 3908POPC   C1B52423   0.014   6.443   6.323
 3908POPC   C2B52424  44.956   6.581   6.767
 3908POPC   C3B52425  44.765   6.339   7.115
 3908POPC   C4B52426  44.814   6.100   7.506
 3909POPC   NC352427  38.131  15.519   5.454
 3909POPC   PO452428  38.333  16.154   5.552
 3909POPC   GL152429  38.166  16.115   5.974
 3909POPC   GL252430  38.104  15.773   5.903
 3909POPC   C1A52431  38.039  16.186   6.444
 3909POPC   D2A52432  37.989  16.167   6.922
 3909POPC   C3A52433  38.319  16.244   7.263
 3909POPC   C4A52434  38.404  16.284   7.727
 3909POPC   C1B52435  38.162  15.702   6.320
 3909POPC   C2B52436  38.041  15.671   6.739
 3909POPC   C3B52437  38.182  15.746   7.164
 3909POPC   C4B52438  38.188  15.849   7.576
 3910POPC   NC352439   2.089  24.149   5.400
 3910POPC   PO452440   2.027  24.800   5.383
 3910POPC   GL152441   1.975  24.552   5.772
 3910POPC   GL252442   1.656  24.426   5.878
 3910POPC   C1A52443   2.021  24.652   6.230
 3910POPC   D2A52444   1.773  24.931   6.543
 3910POPC   C3A52445   1.945  24.879   6.957
 3910POPC   C4A52446   2.210  24.518   7.148
 3910POPC   C1B52447   1.541  24.528   6.326
 3910POPC   C2B52448   1.707  24.458   6.765
 3910POPC   C3B52449   1.716  24.471   7.211
 3910POPC   C4B52450   1.860  24.846   7.457
 3911POPC   NC352451  25.545  35.206   5.320
 3911POPC   PO452452  25.104  35.723   5.484
 3911POPC   GL152453  25.223  35.515   5.817
 3911POPC   GL252454  25.576  35.530   5.750
 3911POPC   C1A52455  25.213  35.183   6.115
 3911POPC   D2A52456  25.358  35.284   6.527
 3911POPC   C3A52457  25.334  35.441   6.940
 3911POPC   C4A52458  25.220  35.082   7.188
 3911POPC   C1B52459  25.711  35.371   6.145
 3911POPC   C2B52460  25.872  35.250   6.556
 3911POPC   C3B52461  25.690  35.071   6.935
 3911POPC   C4B52462  25.673  35.293   7.342
 3912POPC   NC352463  26.385  41.088   5.557
 3912POPC   PO452464  25.878  40.684   5.399
 3912POPC   GL152465  25.999  40.817   5.798
 3912POPC   GL252466  26.031  40.487   5.972
 3912POPC   C1A52467  25.760  40.863   6.167
 3912POPC   D2A52468  25.824  40.550   6.504
 3912POPC   C3A52469  25.839  40.697   6.918
 3912POPC   C4A52470  25.843  40.950   7.286
 3912POPC   C1B52471  26.268  40.704   6.258
 3912POPC   C2B52472  26.473  40.786   6.629
 3912POPC   C3B52473  26.313  40.893   7.020
 3912POPC   C4B52474  26.204  40.561   7.261
 3913POPC   NC352475  11.735  14.050   5.535
 3913POPC   PO452476  11.437  14.704   5.578
 3913POPC   GL152477  11.317  14.519   5.940
 3913POPC   GL252478  11.447  14.205   5.973
 3913POPC   C1A52479  11.335  14.590   6.363
 3913POPC   D2A52480  11.453  14.284   6.672
 3913POPC   C3A52481  11.629  14.477   7.031
 3913POPC   C4A52482  11.429  14.606   7.397
 3913POPC   C1B52483  11.150  14.079   6.291
 3913POPC   C2B52484  10.933  13.892   6.654
 3913POPC   C3B52485  11.148  14.005   7.011
 3913POPC   C4B52486  11.030  14.332   7.273
 3914POPC   NC352487  23.375  11.646   5.560
 3914POPC   PO452488  23.953  11.315   5.373
 3914POPC   GL152489  24.063  11.153   5.822
 3914POPC   GL252490  23.716  11.143   5.995
 3914POPC   C1A52491  24.124  11.173   6.306
 3914POPC   D2A52492  23.717  11.240   6.583
 3914POPC   C3A52493  23.629  11.161   7.035
 3914POPC   C4A52494  23.686  11.161   7.485
 3914POPC   C1B52495  23.473  11.504   6.208
 3914POPC   C2B52496  23.438  11.720   6.591
 3914POPC   C3B52497  23.397  11.711   7.024
 3914POPC   C4B52498  23.298  11.468   7.367
 3915POPC   NC352499  22.385   7.953   5.117
 3915POPC   PO452500  21.960   8.252   5.592
 3915POPC   GL152501  22.202   8.249   5.918
 3915POPC   GL252502  22.481   8.482   5.878
 3915POPC   C1A52503  22.015   8.102   6.316
 3915POPC   D2A52504  22.182   7.925   6.701
 3915POPC   C3A52505  21.988   7.964   7.138
 3915POPC   C4A52506  22.082   8.050   7.586
 3915POPC   C1B52507  22.270   8.591   6.274
 3915POPC   C2B52508  22.202   8.439   6.677
 3915POPC   C3B52509  22.094   8.543   7.081
 3915POPC   C4B52510  22.339   8.468   7.483
 3916POPC   NC352511  14.207  21.903   5.460
 3916POPC   PO452512  14.625  22.392   5.342
 3916POPC   GL152513  14.477  22.254   5.763
 3916POPC   GL252514  14.121  22.286   5.789
 3916POPC   C1A52515  14.614  22.273   6.201
 3916POPC   D2A52516  14.665  22.397   6.615
 3916POPC   C3A52517  14.635  22.135   6.952
 3916POPC   C4A52518  14.615  22.386   7.318
 3916POPC   C1B52519  14.192  22.013   6.147
 3916POPC   C2B52520  14.352  21.910   6.534
 3916POPC   C3B52521  14.115  21.973   6.872
 3916POPC   C4B52522  14.218  22.034   7.252
 3917POPC   NC352523  34.640  38.031   5.440
 3917POPC   PO452524  34.324  37.460   5.143
 3917POPC   GL152525  34.417  37.591   5.613
 3917POPC   GL252526  34.248  37.887   5.813
 3917POPC   C1A52527  34.697  37.609   5.984
 3917POPC   D2A52528  34.726  37.717   6.423
 3917POPC   C3A52529  34.886  37.598   6.822
 3917POPC   C4A52530  34.748  37.511   7.225
 3917POPC   C1B52531  34.234  37.700   6.265
 3917POPC   C2B52532  34.306  37.581   6.728
 3917POPC   C3B52533  34.233  37.605   7.181
 3917POPC   C4B52534  34.380  37.396   7.573
 3918POPC   NC352535  23.227   8.319   5.510
 3918POPC   PO452536  22.586   8.274   5.393
 3918POPC   GL152537  22.819   8.117   5.787
 3918POPC   GL252538  22.610   7.903   5.971
 3918POPC   C1A52539  23.011   8.194   6.232
 3918POPC   D2A52540  23.278   8.027   6.598
 3918POPC   C3A52541  23.068   7.976   7.015
 3918POPC   C4A52542  22.927   8.366   7.137
 3918POPC   C1B52543  22.520   8.151   6.312
 3918POPC   C2B52544  22.669   8.147   6.708
 3918POPC   C3B52545  22.459   8.178   7.066
 3918POPC   C4B52546  22.605   7.966   7.379
 3919POPC   NC352547   6.401  34.801   5.294
 3919POPC   PO452548   6.862  34.300   5.467
 3919POPC   GL152549   6.716  34.646   5.718
 3919POPC   GL252550   6.414  34.562   5.780
 3919POPC   C1A52551   6.755  34.783   6.144
 3919POPC   D2A52552   6.577  34.815   6.562
 3919POPC   C3A52553   6.933  34.806   6.876
 3919POPC   C4A52554   6.887  34.766   7.328
 3919POPC   C1B52555   6.352  34.466   6.190
 3919POPC   C2B52556   6.430  34.310   6.576
 3919POPC   C3B52557   6.559  34.461   6.946
 3919POPC   C4B52558   6.586  34.355   7.349
 3920POPC   NC352559  32.789  18.192   5.691
 3920POPC   PO452560  33.443  17.949   5.518
 3920POPC   GL152561  33.314  18.136   5.882
 3920POPC   GL252562  33.099  17.870   5.945
 3920POPC   C1A52563  33.189  18.314   6.298
 3920POPC   D2A52564  32.856  18.246   6.640
 3920POPC   C3A52565  32.839  18.464   7.067
 3920POPC   C4A52566  32.655  18.720   7.411
 3920POPC   C1B52567  33.088  17.816   6.387
 3920POPC   C2B52568  33.108  17.823   6.821
 3920POPC   C3B52569  32.944  17.948   7.212
 3920POPC   C4B52570  33.137  17.851   7.618
 3921POPC   NC352571   0.625  15.326   5.078
 3921POPC   PO452572   0.150  15.265   5.510
 3921POPC   GL152573   0.378  15.327   5.932
 3921POPC   GL252574   0.748  15.346   5.803
 3921POPC   C1A52575   0.340  15.083   6.341
 3921POPC   D2A52576   0.301  14.832   6.752
 3921POPC   C3A52577   0.219  15.108   7.149
 3921POPC   C4A52578   0.389  15.093   7.591
 3921POPC   C1B52579   0.841  15.114   6.186
 3921POPC   C2B52580   0.770  14.955   6.603
 3921POPC   C3B52581   0.668  15.212   6.962
 3921POPC   C4B52582   0.584  15.488   7.330
 3922POPC   NC352583  26.581  25.901   5.113
 3922POPC   PO452584  26.017  26.171   5.400
 3922POPC   GL152585  26.029  26.040   5.803
 3922POPC   GL252586  25.886  26.346   5.870
 3922POPC   C1A52587  26.043  25.928   6.256
 3922POPC   D2A52588  25.902  25.973   6.692
 3922POPC   C3A52589  26.246  25.913   6.961
 3922POPC   C4A52590  26.453  25.786   7.316
 3922POPC   C1B52591  26.303  26.354   6.132
 3922POPC   C2B52592  26.242  26.475   6.577
 3922POPC   C3B52593  26.385  26.410   6.988
 3922POPC   C4B52594  26.184  26.253   7.344
 3923POPC   NC352595  39.578  29.438   5.110
 3923POPC   PO452596  40.084  29.107   5.460
 3923POPC   GL152597  40.112  29.387   5.840
 3923POPC   GL252598  40.442  29.315   5.892
 3923POPC   C1A52599  39.841  29.434   6.247
 3923POPC   D2A52600  39.679  29.201   6.622
 3923POPC   C3A52601  39.844  29.075   7.050
 3923POPC   C4A52602  39.674  28.993   7.476
 3923POPC   C1B52603  40.209  29.059   6.215
 3923POPC   C2B52604  40.196  29.159   6.675
 3923POPC   C3B52605  40.356  29.260   7.105
 3923POPC   C4B52606  40.245  29.147   7.573
 3924POPC   NC352607  42.798  22.224   5.485
 3924POPC   PO452608  43.443  22.172   5.406
 3924POPC   GL152609  43.233  22.019   5.785
 3924POPC   GL252610  43.387  21.708   5.860
 3924POPC   C1A52611  43.287  22.038   6.255
 3924POPC   D2A52612  43.433  21.971   6.699
 3924POPC   C3A52613  43.172  22.205   7.018
 3924POPC   C4A52614  43.281  22.475   7.373
 3924POPC   C1B52615  43.024  21.612   6.125
 3924POPC   C2B52616  43.003  21.709   6.556
 3924POPC   C3B52617  43.060  21.702   6.988
 3924POPC   C4B52618  42.800  21.794   7.306
 3925POPC   NC352619  13.021   1.419   5.531
 3925POPC   PO452620  12.532   1.021   5.208
 3925POPC   GL152621  12.555   0.983   5.688
 3925POPC   GL252622  12.894   1.058   5.893
 3925POPC   C1A52623  12.459   1.067   6.146
 3925POPC   D2A52624  12.773   0.933   6.461
 3925POPC   C3A52625  12.780   1.172   6.823
 3925POPC   C4A52626  12.672   1.142   7.235
 3925POPC   C1B52627  12.938   1.388   6.276
 3925POPC   C2B52628  13.179   1.482   6.706
 3925POPC   C3B52629  13.163   1.303   7.163
 3925POPC   C4B52630  13.026   1.186   7.587
 3926POPC   NC352631  14.091  15.298   5.194
 3926POPC   PO452632  13.442  15.382   5.123
 3926POPC   GL152633  13.543  15.178   5.542
 3926POPC   GL252634  13.887  15.236   5.688
 3926POPC   C1A52635  13.454  15.250   5.995
 3926POPC   D2A52636  13.461  15.393   6.428
 3926POPC   C3A52637  13.219  15.239   6.774
 3926POPC   C4A52638  13.351  15.323   7.197
 3926POPC   C1B52639  13.975  15.348   6.118
 3926POPC   C2B52640  13.977  15.470   6.555
 3926POPC   C3B52641  13.800  15.519   6.968
 3926POPC   C4B52642  13.860  15.263   7.340
 3927POPC   NC352643  23.104  40.862   5.244
 3927POPC   PO452644  22.720  40.359   5.305
 3927POPC   GL152645  22.928  40.565   5.636
 3927POPC   GL252646  22.864  40.296   5.823
 3927POPC   C1A52647  22.883  40.765   6.063
 3927POPC   D2A52648  22.985  41.034   6.448
 3927POPC   C3A52649  22.930  40.911   6.888
 3927POPC   C4A52650  23.071  41.003   7.319
 3927POPC   C1B52651  23.015  40.288   6.211
 3927POPC   C2B52652  22.967  40.510   6.558
 3927POPC   C3B52653  22.905  40.384   6.983
 3927POPC   C4B52654  22.672  40.656   7.260
 3928POPC   NC352655  38.307  39.233   5.398
 3928POPC   PO452656  38.794  38.765   5.311
 3928POPC   GL152657  38.693  39.033   5.728
 3928POPC   GL252658  38.515  39.367   5.834
 3928POPC   C1A52659  38.531  39.009   6.182
 3928POPC   D2A52660  38.422  39.302   6.518
 3928POPC   C3A52661  38.441  39.207   6.954
 3928POPC   C4A52662  38.229  39.443   7.256
 3928POPC   C1B52663  38.619  39.645   6.189
 3928POPC   C2B52664  38.589  39.774   6.634
 3928POPC   C3B52665  38.661  39.657   7.085
 3928POPC   C4B52666  38.700  39.294   7.406
 3929POPC   NC352667  35.299  26.953   5.378
 3929POPC   PO452668  35.214  26.363   5.476
 3929POPC   GL152669  35.258  26.617   5.779
 3929POPC   GL252670  35.583  26.675   5.734
 3929POPC   C1A52671  35.085  26.650   6.173
 3929POPC   D2A52672  34.858  26.792   6.523
 3929POPC   C3A52673  35.041  26.782   6.926
 3929POPC   C4A52674  35.145  27.052   7.190
 3929POPC   C1B52675  35.619  26.607   6.153
 3929POPC   C2B52676  35.761  26.707   6.519
 3929POPC   C3B52677  35.649  26.783   6.902
 3929POPC   C4B52678  35.865  26.704   7.247
 3930POPC   NC352679  15.567  44.038   5.430
 3930POPC   PO452680  15.022  44.255   5.371
 3930POPC   GL152681  15.019  44.010   5.767
 3930POPC   GL252682  15.329  43.762   5.801
 3930POPC   C1A52683  15.114  43.947   6.219
 3930POPC   D2A52684  15.326  43.976   6.608
 3930POPC   C3A52685  15.148  43.766   6.944
 3930POPC   C4A52686  14.926  43.880   7.331
 3930POPC   C1B52687  15.572  43.641   6.204
 3930POPC   C2B52688  15.689  43.573   6.661
 3930POPC   C3B52689  15.526  43.446   7.047
 3930POPC   C4B52690  15.422  43.699   7.435
 3931POPC   NC352691   7.564  39.318   5.019
 3931POPC   PO452692   7.144  38.978   5.423
 3931POPC   GL152693   7.348  38.939   5.819
 3931POPC   GL252694   7.153  38.648   5.833
 3931POPC   C1A52695   7.439  39.130   6.227
 3931POPC   D2A52696   7.312  39.439   6.540
 3931POPC   C3A52697   7.521  39.425   6.934
 3931POPC   C4A52698   7.328  39.445   7.322
 3931POPC   C1B52699   6.988  38.862   6.168
 3931POPC   C2B52700   7.108  38.930   6.586
 3931POPC   C3B52701   7.074  39.145   6.953
 3931POPC   C4B52702   7.105  38.993   7.340
 3932POPC   NC352703  17.222  34.961   5.473
 3932POPC   PO452704  17.452  35.509   5.324
 3932POPC   GL152705  17.487  35.551   5.770
 3932POPC   GL252706  17.755  35.781   5.856
 3932POPC   C1A52707  17.599  35.327   6.144
 3932POPC   D2A52708  17.702  35.115   6.526
 3932POPC   C3A52709  17.384  35.207   6.831
 3932POPC   C4A52710  17.459  35.354   7.231
 3932POPC   C1B52711  17.852  35.753   6.293
 3932POPC   C2B52712  17.643  35.631   6.676
 3932POPC   C3B52713  17.759  35.787   7.091
 3932POPC   C4B52714  17.918  35.623   7.478
 3933POPC   NC352715  26.161  40.313   5.507
 3933POPC   PO452716  25.713  39.881   5.597
 3933POPC   GL152717  26.001  39.983   5.924
 3933POPC   GL252718  26.355  39.934   5.839
 3933POPC   C1A52719  25.914  40.029   6.381
 3933POPC   D2A52720  25.805  39.676   6.690
 3933POPC   C3A52721  25.822  39.823   7.111
 3933POPC   C4A52722  25.720  40.257   7.225
 3933POPC   C1B52723  26.394  40.181   6.218
 3933POPC   C2B52724  26.300  40.298   6.642
 3933POPC   C3B52725  26.279  40.079   7.042
 3933POPC   C4B52726  26.136  40.098   7.486
 3934POPC   NC352727   3.941  20.089   5.461
 3934POPC   PO452728   3.342  20.319   5.535
 3934POPC   GL152729   3.530  20.056   5.863
 3934POPC   GL252730   3.766  19.797   5.825
 3934POPC   C1A52731   3.486  19.877   6.250
 3934POPC   D2A52732   3.555  20.049   6.600
 3934POPC   C3A52733   3.391  19.803   6.881
 3934POPC   C4A52734   3.580  19.664   7.187
 3934POPC   C1B52735   3.892  19.563   6.172
 3934POPC   C2B52736   3.766  19.550   6.603
 3934POPC   C3B52737   3.993  19.487   6.971
 3934POPC   C4B52738   3.937  19.417   7.437
 3935POPC   NC352739  40.581  38.145   5.399
 3935POPC   PO452740  40.406  38.757   5.589
 3935POPC   GL152741  40.610  38.647   5.976
 3935POPC   GL252742  40.788  38.371   5.822
 3935POPC   C1A52743  40.449  38.557   6.433
 3935POPC   D2A52744  40.693  38.497   6.822
 3935POPC   C3A52745  40.714  38.676   7.249
 3935POPC   C4A52746  40.888  38.869   7.638
 3935POPC   C1B52747  40.632  38.161   6.160
 3935POPC   C2B52748  40.612  38.068   6.548
 3935POPC   C3B52749  40.756  37.993   6.927
 3935POPC   C4B52750  40.566  38.182   7.254
 3936POPC   NC352751  17.939  40.996   5.412
 3936POPC   PO452752  18.571  40.973   5.596
 3936POPC   GL152753  18.197  41.002   5.845
 3936POPC   GL252754  18.110  40.670   5.798
 3936POPC   C1A52755  17.954  40.926   6.205
 3936POPC   D2A52756  18.175  40.895   6.567
 3936POPC   C3A52757  18.123  40.878   6.979
 3936POPC   C4A52758  18.486  40.884   7.221
 3936POPC   C1B52759  18.406  40.647   6.184
 3936POPC   C2B52760  18.535  40.507   6.631
 3936POPC   C3B52761  18.403  40.398   7.062
 3936POPC   C4B52762  18.074  40.560   7.369
 3937POPC   NC352763  19.726   3.549   5.458
 3937POPC   PO452764  20.308   3.407   5.358
 3937POPC   GL152765  20.062   3.483   5.826
 3937POPC   GL252766  19.746   3.335   5.937
 3937POPC   C1A52767  19.975   3.648   6.295
 3937POPC   D2A52768  20.027   3.861   6.731
 3937POPC   C3A52769  19.805   3.669   7.092
 3937POPC   C4A52770  19.974   3.283   7.129
 3937POPC   C1B52771  19.522   3.360   6.317
 3937POPC   C2B52772  19.483   3.454   6.758
 3937POPC   C3B52773  19.379   3.249   7.150
 3937POPC   C4B52774  19.424   3.393   7.571
 3938POPC   NC352775  16.542  40.656   5.489
 3938POPC   PO452776  17.131  40.971   5.618
 3938POPC   GL152777  17.067  40.767   5.992
 3938POPC   GL252778  16.791  40.585   5.913
 3938POPC   C1A52779  16.834  40.708   6.404
 3938POPC   D2A52780  16.539  40.900   6.682
 3938POPC   C3A52781  16.822  40.996   6.975
 3938POPC   C4A52782  16.924  40.699   7.264
 3938POPC   C1B52783  16.665  40.281   6.187
 3938POPC   C2B52784  16.759  40.206   6.576
 3938POPC   C3B52785  16.682  40.450   6.882
 3938POPC   C4B52786  16.605  40.299   7.254
 3939POPC   NC352787  13.748  19.998   5.597
 3939POPC   PO452788  13.363  19.427   5.486
 3939POPC   GL152789  13.369  19.706   5.862
 3939POPC   GL252790  13.294  20.071   5.833
 3939POPC   C1A52791  13.593  19.692   6.269
 3939POPC   D2A52792  13.614  19.507   6.693
 3939POPC   C3A52793  13.600  19.751   7.074
 3939POPC   C4A52794  13.611  19.571   7.484
 3939POPC   C1B52795  13.465  20.196   6.222
 3939POPC   C2B52796  13.476  20.031   6.644
 3939POPC   C3B52797  13.498  20.256   7.026
 3939POPC   C4B52798  13.320  20.180   7.392
 3940POPC   NC352799   5.286  31.782   5.412
 3940POPC   PO452800   4.837  31.245   5.397
 3940POPC   GL152801   5.012  31.340   5.813
 3940POPC   GL252802   5.381  31.292   5.796
 3940POPC   C1A52803   4.847  31.542   6.237
 3940POPC   D2A52804   4.601  31.685   6.611
 3940POPC   C3A52805   4.738  31.497   7.008
 3940POPC   C4A52806   5.087  31.637   7.230
 3940POPC   C1B52807   5.310  31.309   6.268
 3940POPC   C2B52808   5.182  31.475   6.690
 3940POPC   C3B52809   5.302  31.241   7.055
 3940POPC   C4B52810   5.642  31.448   7.289
 3941POPC   NC352811   0.750   0.159   5.585
 3941POPC   PO452812   1.125   0.739   5.330
 3941POPC   GL152813   1.313   0.573   5.690
 3941POPC   GL252814   1.244   0.246   5.713
 3941POPC   C1A52815   1.428   0.506   6.108
 3941POPC   D2A52816   1.217   0.305   6.461
 3941POPC   C3A52817   1.188   0.448   6.853
 3941POPC   C4A52818   1.491   0.495   7.127
 3941POPC   C1B52819   1.357  44.995   6.080
 3941POPC   C2B52820   1.510  44.874   6.500
 3941POPC   C3B52821   1.455  44.980   6.938
 3941POPC   C4B52822   1.157   0.115   7.239
 3942POPC   NC352823  27.372  11.934   5.426
 3942POPC   PO452824  28.037  12.205   5.516
 3942POPC   GL152825  27.745  12.039   5.792
 3942POPC   GL252826  27.495  12.299   5.779
 3942POPC   C1A52827  27.578  11.827   6.146
 3942POPC   D2A52828  27.798  11.660   6.508
 3942POPC   C3A52829  27.817  11.914   6.899
 3942POPC   C4A52830  27.534  11.916   7.259
 3942POPC   C1B52831  27.526  12.363   6.194
 3942POPC   C2B52832  27.535  12.155   6.570
 3942POPC   C3B52833  27.559  12.353   6.987
 3942POPC   C4B52834  27.570  12.445   7.408
 3943POPC   NC352835   8.328  31.003   5.576
 3943POPC   PO452836   8.478  30.447   5.291
 3943POPC   GL152837   8.299  30.530   5.757
 3943POPC   GL252838   8.299  30.777   6.007
 3943POPC   C1A52839   8.041  30.380   6.122
 3943POPC   D2A52840   8.228  30.565   6.482
 3943POPC   C3A52841   8.130  30.424   6.909
 3943POPC   C4A52842   8.195  30.677   7.267
 3943POPC   C1B52843   8.398  31.087   6.277
 3943POPC   C2B52844   8.583  31.109   6.640
 3943POPC   C3B52845   8.438  31.139   7.083
 3943POPC   C4B52846   8.502  31.010   7.536
 3944POPC   NC352847  35.193   4.890   5.413
 3944POPC   PO452848  35.699   4.566   5.628
 3944POPC   GL152849  35.459   4.911   5.833
 3944POPC   GL252850  35.550   5.193   5.663
 3944POPC   C1A52851  35.305   5.108   6.215
 3944POPC   D2A52852  35.468   5.187   6.640
 3944POPC   C3A52853  35.229   5.067   7.026
 3944POPC   C4A52854  35.350   4.802   7.373
 3944POPC   C1B52855  35.700   5.377   6.053
 3944POPC   C2B52856  35.881   5.441   6.467
 3944POPC   C3B52857  35.844   5.429   6.933
 3944POPC   C4B52858  35.457   5.509   7.160
 3945POPC   NC352859  27.370  14.407   5.560
 3945POPC   PO452860  26.670  14.550   5.428
 3945POPC   GL152861  26.649  14.591   5.864
 3945POPC   GL252862  26.760  14.243   5.931
 3945POPC   C1A52863  26.649  14.610   6.312
 3945POPC   D2A52864  26.711  14.230   6.552
 3945POPC   C3A52865  26.896  14.281   6.946
 3945POPC   C4A52866  26.641  14.501   7.199
 3945POPC   C1B52867  27.105  14.453   6.173
 3945POPC   C2B52868  27.190  14.639   6.582
 3945POPC   C3B52869  27.307  14.636   7.006
 3945POPC   C4B52870  27.104  14.593   7.405
 3946POPC   NC352871  33.561  15.042   5.321
 3946POPC   PO452872  34.275  15.069   5.297
 3946POPC   GL152873  33.959  15.181   5.678
 3946POPC   GL252874  33.633  15.300   5.753
 3946POPC   C1A52875  34.012  15.250   6.151
 3946POPC   D2A52876  33.759  15.378   6.526
 3946POPC   C3A52877  33.857  15.227   6.939
 3946POPC   C4A52878  34.179  15.344   7.176
 3946POPC   C1B52879  33.514  15.080   6.120
 3946POPC   C2B52880  33.269  15.194   6.475
 3946POPC   C3B52881  33.349  15.328   6.892
 3946POPC   C4B52882  33.428  15.072   7.235
 3947POPC   NC352883   1.883  17.991   5.394
 3947POPC   PO452884   2.248  18.622   5.426
 3947POPC   GL152885   1.980  18.444   5.770
 3947POPC   GL252886   1.964  18.085   5.873
 3947POPC   C1A52887   1.802  18.391   6.207
 3947POPC   D2A52888   2.038  18.436   6.536
 3947POPC   C3A52889   1.781  18.429   6.881
 3947POPC   C4A52890   1.855  18.238   7.249
 3947POPC   C1B52891   2.047  17.901   6.290
 3947POPC   C2B52892   1.961  17.932   6.709
 3947POPC   C3B52893   2.100  17.807   7.091
 3947POPC   C4B52894   1.888  17.776   7.442
 3948POPC   NC352895  30.483  20.256   5.403
 3948POPC   PO452896  30.518  19.525   5.384
 3948POPC   GL152897  30.680  19.626   5.759
 3948POPC   GL252898  30.759  19.962   5.802
 3948POPC   C1A52899  30.558  19.680   6.191
 3948POPC   D2A52900  30.744  19.810   6.555
 3948POPC   C3A52901  30.454  19.807   6.875
 3948POPC   C4A52902  30.589  19.757   7.260
 3948POPC   C1B52903  30.642  20.209   6.166
 3948POPC   C2B52904  30.672  20.333   6.593
 3948POPC   C3B52905  30.704  20.230   7.016
 3948POPC   C4B52906  30.331  20.199   7.262
 3949POPC   NC352907  36.676   0.230   5.437
 3949POPC   PO452908  36.083   0.473   5.162
 3949POPC   GL152909  36.106   0.381   5.650
 3949POPC   GL252910  36.398   0.493   5.766
 3949POPC   C1A52911  36.012   0.438   6.127
 3949POPC   D2A52912  35.840   0.184   6.483
 3949POPC   C3A52913  36.048   0.128   6.861
 3949POPC   C4A52914  35.967   0.316   7.250
 3949POPC   C1B52915  36.447   0.748   6.096
 3949POPC   C2B52916  36.271   0.791   6.475
 3949POPC   C3B52917  36.172   0.615   6.849
 3949POPC   C4B52918  36.284   0.758   7.227
 3950POPC   NC352919  23.353  43.807   5.394
 3950POPC   PO452920  22.674  43.958   5.442
 3950POPC   GL152921  22.911  43.832   5.806
 3950POPC   GL252922  23.175  44.061   5.794
 3950POPC   C1A52923  22.776  43.936   6.225
 3950POPC   D2A52924  22.485  43.863   6.551
 3950POPC   C3A52925  22.490  44.054   6.984
 3950POPC   C4A52926  22.757  44.232   7.288
 3950POPC   C1B52927  23.282  44.005   6.223
 3950POPC   C2B52928  23.128  43.823   6.601
 3950POPC   C3B52929  23.017  43.895   7.012
 3950POPC   C4B52930  23.319  44.064   7.294
 3951POPC   NC352931  42.437  30.593   5.148
 3951POPC   PO452932  42.517  31.142   5.586
 3951POPC   GL152933  42.130  30.991   5.791
 3951POPC   GL252934  41.964  30.654   5.797
 3951POPC   C1A52935  42.009  30.984   6.210
 3951POPC   D2A52936  42.253  30.805   6.523
 3951POPC   C3A52937  42.295  30.855   6.961
 3951POPC   C4A52938  42.734  30.790   7.102
 3951POPC   C1B52939  41.884  30.471   6.233
 3951POPC   C2B52940  41.892  30.504   6.715
 3951POPC   C3B52941  42.074  30.429   7.140
 3951POPC   C4B52942  42.264  30.275   7.544
 3952POPC   NC352943   6.171  39.463   5.416
 3952POPC   PO452944   5.646  39.075   5.454
 3952POPC   GL152945   5.856  39.247   5.797
 3952POPC   GL252946   6.015  38.956   5.889
 3952POPC   C1A52947   5.746  39.526   6.156
 3952POPC   D2A52948   5.518  39.472   6.555
 3952POPC   C3A52949   5.734  39.275   6.902
 3952POPC   C4A52950   5.809  39.363   7.345
 3952POPC   C1B52951   6.038  39.155   6.315
 3952POPC   C2B52952   6.295  39.234   6.686
 3952POPC   C3B52953   6.174  39.053   7.027
 3952POPC   C4B52954   5.866  38.876   7.221
 3953POPC   NC352955   4.009  25.288   5.564
 3953POPC   PO452956   4.661  25.057   5.352
 3953POPC   GL152957   4.436  25.098   5.739
 3953POPC   GL252958   4.445  25.470   5.764
 3953POPC   C1A52959   4.185  25.043   6.142
 3953POPC   D2A52960   4.304  25.226   6.513
 3953POPC   C3A52961   4.206  25.047   6.899
 3953POPC   C4A52962   4.201  25.293   7.269
 3953POPC   C1B52963   4.680  25.587   6.127
 3953POPC   C2B52964   4.781  25.433   6.551
 3953POPC   C3B52965   4.599  25.399   6.938
 3953POPC   C4B52966   4.581  25.670   7.288
 3954POPC   NC352967  37.947  12.354   5.390
 3954POPC   PO452968  37.521  11.819   5.442
 3954POPC   GL152969  37.700  11.946   5.809
 3954POPC   GL252970  38.065  11.960   5.794
 3954POPC   C1A52971  37.469  12.066   6.180
 3954POPC   D2A52972  37.545  12.194   6.576
 3954POPC   C3A52973  37.506  12.025   6.975
 3954POPC   C4A52974  37.699  12.259   7.320
 3954POPC   C1B52975  37.989  12.082   6.233
 3954POPC   C2B52976  37.931  11.887   6.636
 3954POPC   C3B52977  38.015  12.096   6.959
 3954POPC   C4B52978  38.221  12.245   7.272
 3955POPC   NC352979  37.384  44.736   5.382
 3955POPC   PO452980  38.067  44.674   5.392
 3955POPC   GL152981  37.814  44.782   5.804
 3955POPC   GL252982  37.641  44.454   5.744
 3955POPC   C1A52983  37.614  44.853   6.305
 3955POPC   D2A52984  37.533   0.026   6.765
 3955POPC   C3A52985  37.469  44.722   7.110
 3955POPC   C4A52986  37.185  44.391   7.259
 3955POPC   C1B52987  37.782  44.395   6.163
 3955POPC   C2B52988  37.916  44.316   6.579
 3955POPC   C3B52989  37.949  44.573   6.951
 3955POPC   C4B52990  37.942  44.909   7.219
 3956POPC   NC352991  15.808  36.221   5.366
 3956POPC   PO452992  16.308  36.476   5.720
 3956POPC   GL152993  16.108  36.070   5.841
 3956POPC   GL252994  15.773  35.914   5.783
 3956POPC   C1A52995  16.022  35.928   6.263
 3956POPC   D2A52996  16.219  36.194   6.595
 3956POPC   C3A52997  16.077  36.411   6.948
 3956POPC   C4A52998  15.980  36.352   7.385
 3956POPC   C1B52999  15.551  36.094   6.175
 3956POPC   C2B53000  15.714  36.122   6.616
 3956POPC   C3B53001  15.773  36.002   7.038
 3956POPC   C4B53002  15.497  36.246   7.263
 3957POPC   NC353003   4.718  20.055   5.442
 3957POPC   PO453004   5.205  19.671   5.245
 3957POPC   GL153005   4.992  19.767   5.755
 3957POPC   GL253006   4.839  20.092   5.919
 3957POPC   C1A53007   4.909  19.697   6.254
 3957POPC   D2A53008   4.862  19.546   6.725
 3957POPC   C3A53009   5.254  19.641   6.944
 3957POPC   C4A53010   5.464  19.791   7.307
 3957POPC   C1B53011   5.064  20.271   6.261
 3957POPC   C2B53012   5.055  20.344   6.709
 3957POPC   C3B53013   4.969  20.120   7.083
 3957POPC   C4B53014   4.610  20.111   7.376
 3958POPC   NC353015  20.555   7.124   5.435
 3958POPC   PO453016  20.676   6.493   5.425
 3958POPC   GL153017  20.614   6.513   5.832
 3958POPC   GL253018  20.646   6.863   5.891
 3958POPC   C1A53019  20.426   6.524   6.236
 3958POPC   D2A53020  20.609   6.673   6.629
 3958POPC   C3A53021  20.454   6.558   7.015
 3958POPC   C4A53022  20.559   6.851   7.342
 3958POPC   C1B53023  20.934   6.662   6.226
 3958POPC   C2B53024  21.090   6.430   6.590
 3958POPC   C3B53025  20.956   6.458   7.014
 3958POPC   C4B53026  21.032   6.712   7.380
 3959POPC   NC353027  17.037  23.212   5.390
 3959POPC   PO453028  16.850  23.880   5.372
 3959POPC   GL153029  16.931  23.735   5.780
 3959POPC   GL253030  17.122  23.457   5.827
 3959POPC   C1A53031  16.725  23.770   6.184
 3959POPC   D2A53032  16.794  23.600   6.597
 3959POPC   C3A53033  16.720  23.898   6.920
 3959POPC   C4A53034  16.928  23.961   7.299
 3959POPC   C1B53035  17.197  23.601   6.232
 3959POPC   C2B53036  17.302  23.507   6.631
 3959POPC   C3B53037  17.086  23.542   7.028
 3959POPC   C4B53038  17.168  23.367   7.435
 3960POPC   NC353039  40.151   5.990   5.446
 3960POPC   PO453040  39.860   6.603   5.321
 3960POPC   GL153041  39.974   6.658   5.728
 3960POPC   GL253042  40.246   6.459   5.654
 3960POPC   C1A53043  40.189   6.831   6.098
 3960POPC   D2A53044  40.012   6.936   6.500
 3960POPC   C3A53045  40.173   6.823   6.902
 3960POPC   C4A53046  39.979   6.903   7.299
 3960POPC   C1B53047  40.101   6.322   6.060
 3960POPC   C2B53048  40.154   6.441   6.468
 3960POPC   C3B53049  39.912   6.324   6.813
 3960POPC   C4B53050  40.039   6.416   7.215
 3961POPC   NC353051  42.637  23.183   5.250
 3961POPC   PO453052  42.532  22.585   5.414
 3961POPC   GL153053  42.420  22.808   5.788
 3961POPC   GL253054  42.482  22.516   5.964
 3961POPC   C1A53055  42.314  22.919   6.246
 3961POPC   D2A53056  42.425  22.750   6.691
 3961POPC   C3A53057  42.232  22.794   7.125
 3961POPC   C4A53058  41.910  22.640   7.455
 3961POPC   C1B53059  42.770  22.673   6.294
 3961POPC   C2B53060  42.911  22.585   6.740
 3961POPC   C3B53061  42.770  22.665   7.172
 3961POPC   C4B53062  42.729  22.923   7.556
 3962POPC   NC353063   0.221  33.484   5.032
 3962POPC   PO453064   0.655  33.613   5.486
 3962POPC   GL153065   0.465  33.628   5.909
 3962POPC   GL253066   0.473  33.974   6.008
 3962POPC   C1A53067   0.554  33.625   6.366
 3962POPC   D2A53068   0.526  33.891   6.731
 3962POPC   C3A53069   0.174  33.762   6.981
 3962POPC   C4A53070   0.381  33.364   7.124
 3962POPC   C1B53071   0.488  34.226   6.338
 3962POPC   C2B53072   0.676  34.411   6.681
 3962POPC   C3B53073   0.568  34.276   7.104
 3962POPC   C4B53074   0.450  34.301   7.552
 3963POPC   NC353075  27.989  14.834   5.520
 3963POPC   PO453076  28.408  14.244   5.362
 3963POPC   GL153077  28.415  14.115   5.784
 3963POPC   GL253078  28.717  14.298   5.803
 3963POPC   C1A53079  28.498  14.127   6.239
 3963POPC   D2A53080  28.388  14.214   6.669
 3963POPC   C3A53081  28.444  14.305   7.105
 3963POPC   C4A53082  28.123  14.356   7.439
 3963POPC   C1B53083  28.384  14.568   6.017
 3963POPC   C2B53084  28.231  14.668   6.428
 3963POPC   C3B53085  28.301  14.880   6.798
 3963POPC   C4B53086  28.343  14.800   7.220
 3964POPC   NC353087  35.744  24.590   5.570
 3964POPC   PO453088  35.183  24.247   5.327
 3964POPC   GL153089  35.149  24.374   5.768
 3964POPC   GL253090  35.480  24.402   5.951
 3964POPC   C1A53091  35.149  24.123   6.175
 3964POPC   D2A53092  35.391  24.285   6.517
 3964POPC   C3A53093  35.208  24.099   6.888
 3964POPC   C4A53094  35.343  24.283   7.240
 3964POPC   C1B53095  35.643  24.758   6.200
 3964POPC   C2B53096  35.543  24.895   6.607
 3964POPC   C3B53097  35.569  24.680   6.991
 3964POPC   C4B53098  35.895  24.778   7.273
 3965POPC   NC353099  43.970   4.671   5.524
 3965POPC   PO453100  43.776   5.338   5.348
 3965POPC   GL153101  43.939   5.206   5.730
 3965POPC   GL253102  43.658   4.981   5.771
 3965POPC   C1A53103  44.085   5.356   6.153
 3965POPC   D2A53104  44.100   5.438   6.616
 3965POPC   C3A53105  43.809   5.227   6.898
 3965POPC   C4A53106  43.711   5.339   7.331
 3965POPC   C1B53107  43.885   4.872   6.148
 3965POPC   C2B53108  44.155   4.941   6.487
 3965POPC   C3B53109  44.081   4.780   6.869
 3965POPC   C4B53110  43.971   4.899   7.259
 3966POPC   NC353111   8.151  16.251   5.581
 3966POPC   PO453112   8.549  15.731   5.449
 3966POPC   GL153113   8.285  15.731   5.876
 3966POPC   GL253114   8.141  16.052   6.018
 3966POPC   C1A53115   8.326  15.764   6.352
 3966POPC   D2A53116   8.159  15.580   6.690
 3966POPC   C3A53117   8.342  15.765   7.016
 3966POPC   C4A53118   8.359  15.676   7.427
 3966POPC   C1B53119   8.174  16.310   6.370
 3966POPC   C2B53120   8.072  16.560   6.693
 3966POPC   C3B53121   8.077  16.206   6.925
 3966POPC   C4B53122   8.083  16.090   7.339
 3967POPC   NC353123  43.146   1.343   5.383
 3967POPC   PO453124  42.581   1.729   5.219
 3967POPC   GL153125  42.705   1.528   5.673
 3967POPC   GL253126  42.944   1.237   5.855
 3967POPC   C1A53127  42.802   1.638   6.117
 3967POPC   D2A53128  42.864   1.725   6.526
 3967POPC   C3A53129  43.024   1.375   6.754
 3967POPC   C4A53130  43.140   1.402   7.171
 3967POPC   C1B53131  43.255   0.996   6.169
 3967POPC   C2B53132  43.413   0.977   6.634
 3967POPC   C3B53133  43.445   0.798   7.085
 3967POPC   C4B53134  43.348   0.855   7.559
 3968POPC   NC353135  11.625  31.530   5.460
 3968POPC   PO453136  11.020  31.237   5.631
 3968POPC   GL153137  11.159  31.575   5.918
 3968POPC   GL253138  11.515  31.588   5.962
 3968POPC   C1A53139  11.084  31.666   6.370
 3968POPC   D2A53140  10.961  31.255   6.598
 3968POPC   C3A53141  11.075  31.243   7.005
 3968POPC   C4A53142  11.138  31.665   7.071
 3968POPC   C1B53143  11.412  31.287   6.304
 3968POPC   C2B53144  11.474  31.417   6.745
 3968POPC   C3B53145  11.546  31.366   7.197
 3968POPC   C4B53146  11.659  31.190   7.621
 3969POPC   NC353147  44.852  44.720   5.570
 3969POPC   PO453148  44.301  44.497   5.728
 3969POPC   GL153149  44.599  44.675   6.013
 3969POPC   GL253150  44.870  44.406   6.037
 3969POPC   C1A53151  44.766  44.761   6.438
 3969POPC   D2A53152  44.973  44.814   6.827
 3969POPC   C3A53153  44.783  44.766   7.249
 3969POPC   C4A53154  44.963  44.946   7.642
 3969POPC   C1B53155  44.514  44.320   6.360
 3969POPC   C2B53156  44.219  44.297   6.691
 3969POPC   C3B53157  44.227  44.242   7.119
 3969POPC   C4B53158  44.492  44.357   7.438
 3970POPC   NC353159  34.134  39.467   5.446
 3970POPC   PO453160  33.587  39.024   5.476
 3970POPC   GL153161  33.817  39.190   5.795
 3970POPC   GL253162  34.147  39.091   5.855
 3970POPC   C1A53163  33.667  39.273   6.197
 3970POPC   D2A53164  33.564  39.576   6.508
 3970POPC   C3A53165  33.568  39.402   6.923
 3970POPC   C4A53166  33.634  39.028   7.200
 3970POPC   C1B53167  34.173  39.330   6.241
 3970POPC   C2B53168  34.034  39.370   6.678
 3970POPC   C3B53169  34.038  39.328   7.143
 3970POPC   C4B53170  34.051  39.306   7.624
 3971POPC   NC353171  35.670  36.371   5.262
 3971POPC   PO453172  36.292  36.154   5.450
 3971POPC   GL153173  36.268  36.245   5.868
 3971POPC   GL253174  35.972  36.002   5.908
 3971POPC   C1A53175  36.234  36.201   6.307
 3971POPC   D2A53176  36.043  36.175   6.726
 3971POPC   C3A53177  36.286  36.224   7.120
 3971POPC   C4A53178  36.310  36.138   7.593
 3971POPC   C1B53179  35.913  35.787   6.329
 3971POPC   C2B53180  36.006  35.678   6.771
 3971POPC   C3B53181  36.101  35.741   7.223
 3971POPC   C4B53182  36.052  35.695   7.685
 3972POPC   NC353183  24.205  31.145   5.489
 3972POPC   PO453184  24.773  31.100   5.637
 3972POPC   GL153185  24.556  31.390   5.905
 3972POPC   GL253186  24.229  31.493   5.864
 3972POPC   C1A53187  24.461  31.540   6.327
 3972POPC   D2A53188  24.302  31.339   6.721
 3972POPC   C3A53189  24.354  31.515   7.126
 3972POPC   C4A53190  24.570  31.858   7.324
 3972POPC   C1B53191  24.111  31.180   6.215
 3972POPC   C2B53192  23.984  30.950   6.620
 3972POPC   C3B53193  23.919  31.102   7.068
 3972POPC   C4B53194  23.989  31.342   7.463
 3973POPC   NC353195  11.379   7.946   5.386
 3973POPC   PO453196  11.698   8.519   5.449
 3973POPC   GL153197  11.547   8.231   5.763
 3973POPC   GL253198  11.191   8.240   5.790
 3973POPC   C1A53199  11.680   8.106   6.147
 3973POPC   D2A53200  11.526   8.202   6.514
 3973POPC   C3A53201  11.619   8.172   6.923
 3973POPC   C4A53202  11.449   8.094   7.303
 3973POPC   C1B53203  11.168   8.030   6.181
 3973POPC   C2B53204  11.072   8.037   6.625
 3973POPC   C3B53205  10.992   8.024   7.055
 3973POPC   C4B53206  10.768   7.884   7.403
 3974POPC   NC353207  23.455  22.157   5.629
 3974POPC   PO453208  22.804  22.263   5.440
 3974POPC   GL153209  22.978  22.381   5.837
 3974POPC   GL253210  23.282  22.538   5.911
 3974POPC   C1A53211  22.925  22.213   6.258
 3974POPC   D2A53212  22.978  22.038   6.692
 3974POPC   C3A53213  22.767  22.276   7.011
 3974POPC   C4A53214  22.572  22.170   7.408
 3974POPC   C1B53215  23.410  22.345   6.299
 3974POPC   C2B53216  23.487  22.238   6.728
 3974POPC   C3B53217  23.266  22.130   7.124
 3974POPC   C4B53218  23.026  22.379   7.440
 3975POPC   NC353219   5.625  25.702   5.424
 3975POPC   PO453220   5.866  26.305   5.345
 3975POPC   GL153221   5.877  26.138   5.824
 3975POPC   GL253222   6.098  25.875   5.929
 3975POPC   C1A53223   5.974  26.282   6.247
 3975POPC   D2A53224   5.723  26.354   6.614
 3975POPC   C3A53225   5.491  26.023   6.814
 3975POPC   C4A53226   5.513  25.940   7.225
 3975POPC   C1B53227   6.013  25.770   6.354
 3975POPC   C2B53228   6.015  25.944   6.767
 3975POPC   C3B53229   6.035  25.918   7.207
 3975POPC   C4B53230   6.245  25.794   7.588
 3976POPC   NC353231  39.869  27.483   5.475
 3976POPC   PO453232  40.385  27.677   5.477
 3976POPC   GL153233  40.248  27.686   5.903
 3976POPC   GL253234  40.218  28.057   5.890
 3976POPC   C1A53235  40.328  27.447   6.324
 3976POPC   D2A53236  40.362  27.229   6.751
 3976POPC   C3A53237  40.292  27.517   7.119
 3976POPC   C4A53238  40.126  27.613   7.533
 3976POPC   C1B53239  40.241  27.958   6.358
 3976POPC   C2B53240  40.135  27.986   6.845
 3976POPC   C3B53241  40.133  28.090   7.302
 3976POPC   C4B53242  40.084  28.087   7.759
 3977POPC   NC353243  13.334  39.538   5.684
 3977POPC   PO453244  12.690  39.878   5.485
 3977POPC   GL153245  13.048  39.967   5.799
 3977POPC   GL253246  13.012  40.306   5.860
 3977POPC   C1A53247  13.178  40.039   6.263
 3977POPC   D2A53248  12.964  39.924   6.649
 3977POPC   C3A53249  13.167  39.920   7.076
 3977POPC   C4A53250  13.110  40.216   7.453
 3977POPC   C1B53251  12.680  40.130   6.173
 3977POPC   C2B53252  12.574  40.289   6.592
 3977POPC   C3B53253  12.734  40.202   7.008
 3977POPC   C4B53254  12.579  40.334   7.372
 3978POPC   NC353255  36.360   5.492   5.438
 3978POPC   PO453256  36.880   5.791   5.189
 3978POPC   GL153257  37.023   5.843   5.631
 3978POPC   GL253258  36.773   5.610   5.731
 3978POPC   C1A53259  37.098   5.795   6.107
 3978POPC   D2A53260  37.121   5.662   6.564
 3978POPC   C3A53261  36.894   5.883   6.907
 3978POPC   C4A53262  36.810   5.861   7.337
 3978POPC   C1B53263  36.645   5.508   6.165
 3978POPC   C2B53264  36.568   5.697   6.584
 3978POPC   C3B53265  36.439   5.624   7.061
 3978POPC   C4B53266  36.345   5.760   7.527
 3979POPC   NC353267  14.103   9.941   5.411
 3979POPC   PO453268  14.561   9.490   5.512
 3979POPC   GL153269  14.494   9.857   5.751
 3979POPC   GL253270  14.769  10.053   5.814
 3979POPC   C1A53271  14.405   9.898   6.190
 3979POPC   D2A53272  14.572   9.735   6.585
 3979POPC   C3A53273  14.305   9.794   6.948
 3979POPC   C4A53274  14.085   9.749   7.347
 3979POPC   C1B53275  14.816  10.174   6.238
 3979POPC   C2B53276  14.672  10.220   6.666
 3979POPC   C3B53277  14.801  10.003   7.017
 3979POPC   C4B53278  14.603   9.783   7.393
 3980POPC   NC353279  30.529  31.965   5.505
 3980POPC   PO453280  30.892  32.482   5.351
 3980POPC   GL153281  30.956  32.433   5.827
 3980POPC   GL253282  30.816  32.113   5.926
 3980POPC   C1A53283  30.806  32.459   6.295
 3980POPC   D2A53284  30.486  32.245   6.584
 3980POPC   C3A53285  30.499  32.270   7.066
 3980POPC   C4A53286  30.605  32.230   7.513
 3980POPC   C1B53287  30.859  31.930   6.351
 3980POPC   C2B53288  30.919  32.054   6.795
 3980POPC   C3B53289  30.897  31.930   7.225
 3980POPC   C4B53290  30.805  31.786   7.674
 3981POPC   NC353291  20.976  34.245   5.487
 3981POPC   PO453292  21.587  34.502   5.309
 3981POPC   GL153293  21.383  34.543   5.735
 3981POPC   GL253294  21.611  34.276   5.789
 3981POPC   C1A53295  21.229  34.720   6.180
 3981POPC   D2A53296  21.250  34.605   6.621
 3981POPC   C3A53297  21.373  34.864   6.961
 3981POPC   C4A53298  21.240  34.788   7.400
 3981POPC   C1B53299  21.656  34.446   6.214
 3981POPC   C2B53300  21.724  34.465   6.664
 3981POPC   C3B53301  21.552  34.402   7.073
 3981POPC   C4B53302  21.840  34.299   7.408
 3982POPC   NC353303  23.733   7.599   5.535
 3982POPC   PO453304  23.297   7.084   5.461
 3982POPC   GL153305  23.555   7.055   5.866
 3982POPC   GL253306  23.829   7.345   5.971
 3982POPC   C1A53307  23.582   7.083   6.331
 3982POPC   D2A53308  23.834   7.237   6.643
 3982POPC   C3A53309  23.593   7.469   6.930
 3982POPC   C4A53310  23.359   7.247   7.268
 3982POPC   C1B53311  24.109   7.542   6.330
 3982POPC   C2B53312  24.137   7.597   6.830
 3982POPC   C3B53313  23.972   7.590   7.253
 3982POPC   C4B53314  24.034   7.718   7.679
 3983POPC   NC353315  30.887  17.931   5.341
 3983POPC   PO453316  30.478  17.407   5.435
 3983POPC   GL153317  30.561  17.585   5.827
 3983POPC   GL253318  30.896  17.747   5.828
 3983POPC   C1A53319  30.433  17.414   6.228
 3983POPC   D2A53320  30.564  17.225   6.641
 3983POPC   C3A53321  30.533  17.471   7.027
 3983POPC   C4A53322  30.459  17.337   7.474
 3983POPC   C1B53323  30.708  17.938   6.190
 3983POPC   C2B53324  30.690  17.993   6.628
 3983POPC   C3B53325  30.513  17.981   7.057
 3983POPC   C4B53326  30.727  17.789   7.404
 3984POPC   NC353327  10.850   1.519   5.418
 3984POPC   PO453328  10.558   2.200   5.215
 3984POPC   GL153329  10.752   2.098   5.624
 3984POPC   GL253330  10.582   1.809   5.742
 3984POPC   C1A53331  10.695   2.182   6.085
 3984POPC   D2A53332  10.332   2.205   6.386
 3984POPC   C3A53333  10.363   2.203   6.843
 3984POPC   C4A53334  10.618   2.020   7.145
 3984POPC   C1B53335  10.674   1.678   6.172
 3984POPC   C2B53336  10.769   1.840   6.585
 3984POPC   C3B53337  10.782   1.571   6.960
 3984POPC   C4B53338  10.716   1.595   7.425
 3985POPC   NC353339  27.327  25.504   5.456
 3985POPC   PO453340  27.810  25.095   5.605
 3985POPC   GL153341  27.610  25.389   5.876
 3985POPC   GL253342  27.292  25.241   5.949
 3985POPC   C1A53343  27.576  25.524   6.314
 3985POPC   D2A53344  27.702  25.664   6.729
 3985POPC   C3A53345  27.405  25.702   7.045
 3985POPC   C4A53346  27.641  25.520   7.344
 3985POPC   C1B53347  27.629  25.029   6.250
 3985POPC   C2B53348  27.691  25.124   6.683
 3985POPC   C3B53349  27.840  25.159   7.094
 3985POPC   C4B53350  27.620  25.047   7.507
 3986POPC   NC353351  12.233  13.990   5.059
 3986POPC   PO453352  11.804  13.577   5.432
 3986POPC   GL153353  11.954  13.711   5.838
 3986POPC   GL253354  12.195  13.993   5.795
 3986POPC   C1A53355  12.020  13.594   6.251
 3986POPC   D2A53356  12.244  13.595   6.615
 3986POPC   C3A53357  12.062  13.494   6.990
 3986POPC   C4A53358  12.323  13.245   7.203
 3986POPC   C1B53359  12.401  13.934   6.215
 3986POPC   C2B53360  12.414  14.082   6.648
 3986POPC   C3B53361  12.311  13.937   7.080
 3986POPC   C4B53362  12.246  14.157   7.530
 3987POPC   NC353363  11.308  33.306   5.499
 3987POPC   PO453364  11.402  32.679   5.297
 3987POPC   GL153365  11.349  32.897   5.785
 3987POPC   GL253366  11.607  33.213   5.906
 3987POPC   C1A53367  11.151  33.162   6.121
 3987POPC   D2A53368  11.094  32.955   6.518
 3987POPC   C3A53369  11.036  33.253   6.823
 3987POPC   C4A53370  11.274  33.245   7.173
 3987POPC   C1B53371  11.625  33.105   6.331
 3987POPC   C2B53372  11.570  33.170   6.761
 3987POPC   C3B53373  11.445  32.782   6.979
 3987POPC   C4B53374  11.112  32.575   7.196
 3988POPC   NC353375  41.726  42.307   5.441
 3988POPC   PO453376  41.118  42.154   5.461
 3988POPC   GL153377  41.326  42.345   5.826
 3988POPC   GL253378  41.128  42.625   5.955
 3988POPC   C1A53379  41.629  42.452   6.147
 3988POPC   D2A53380  41.863  42.403   6.553
 3988POPC   C3A53381  41.648  42.589   6.894
 3988POPC   C4A53382  41.567  42.741   7.303
 3988POPC   C1B53383  41.084  42.376   6.292
 3988POPC   C2B53384  41.351  42.288   6.600
 3988POPC   C3B53385  41.580  42.020   6.845
 3988POPC   C4B53386  41.330  41.960   7.201
 3989POPC   NC353387   4.967  16.106   5.624
 3989POPC   PO453388   5.544  15.864   5.563
 3989POPC   GL153389   5.289  15.838   5.899
 3989POPC   GL253390   4.990  15.609   5.906
 3989POPC   C1A53391   5.125  15.925   6.285
 3989POPC   D2A53392   4.929  15.997   6.662
 3989POPC   C3A53393   5.097  16.133   7.034
 3989POPC   C4A53394   5.011  15.992   7.431
 3989POPC   C1B53395   4.743  15.565   6.317
 3989POPC   C2B53396   4.684  15.577   6.817
 3989POPC   C3B53397   4.739  15.588   7.285
 3989POPC   C4B53398   4.788  15.704   7.783
 3990POPC   NC353399   9.212  34.203   5.501
 3990POPC   PO453400   9.823  34.343   5.347
 3990POPC   GL153401   9.636  34.487   5.720
 3990POPC   GL253402   9.976  34.472   5.819
 3990POPC   C1A53403   9.579  34.541   6.145
 3990POPC   D2A53404   9.398  34.666   6.528
 3990POPC   C3A53405   9.435  34.422   6.887
 3990POPC   C4A53406   9.637  34.563   7.277
 3990POPC   C1B53407  10.041  34.818   6.071
 3990POPC   C2B53408   9.928  34.927   6.482
 3990POPC   C3B53409   9.914  34.719   6.876
 3990POPC   C4B53410  10.134  34.727   7.264
 3991POPC   NC353411  31.807  18.278   5.524
 3991POPC   PO453412  31.297  18.615   5.353
 3991POPC   GL153413  31.405  18.502   5.777
 3991POPC   GL253414  31.427  18.116   5.835
 3991POPC   C1A53415  31.363  18.532   6.218
 3991POPC   D2A53416  31.289  18.188   6.500
 3991POPC   C3A53417  31.397  18.155   6.934
 3991POPC   C4A53418  31.388  18.256   7.378
 3991POPC   C1B53419  31.739  18.191   6.186
 3991POPC   C2B53420  31.825  18.276   6.620
 3991POPC   C3B53421  31.939  18.154   7.038
 3991POPC   C4B53422  31.865  18.244   7.493
 3992POPC   NC353423  39.901  39.866   5.350
 3992POPC   PO453424  40.302  40.498   5.309
 3992POPC   GL153425  40.096  40.221   5.647
 3992POPC   GL253426  39.781  40.326   5.810
 3992POPC   C1A53427  40.123  39.964   6.063
 3992POPC   D2A53428  39.982  39.893   6.522
 3992POPC   C3A53429  40.197  39.821   6.934
 3992POPC   C4A53430  39.991  39.747   7.331
 3992POPC   C1B53431  39.790  40.293   6.244
 3992POPC   C2B53432  39.877  40.396   6.634
 3992POPC   C3B53433  39.803  40.164   6.976
 3992POPC   C4B53434  40.049  40.235   7.259
 3993POPC   NC353435  21.596  43.455   5.561
 3993POPC   PO453436  21.177  42.898   5.485
 3993POPC   GL153437  21.371  43.066   5.848
 3993POPC   GL253438  21.294  43.423   5.950
 3993POPC   C1A53439  21.307  42.934   6.260
 3993POPC   D2A53440  21.025  42.970   6.588
 3993POPC   C3A53441  21.226  42.819   6.904
 3993POPC   C4A53442  21.395  43.004   7.265
 3993POPC   C1B53443  21.610  43.343   6.274
 3993POPC   C2B53444  21.479  43.270   6.716
 3993POPC   C3B53445  21.649  43.437   7.140
 3993POPC   C4B53446  21.754  43.299   7.581
 3994POPC   NC353447   9.730  23.432   5.393
 3994POPC   PO453448  10.338  23.651   5.515
 3994POPC   GL153449  10.051  23.769   5.831
 3994POPC   GL253450   9.672  23.763   5.787
 3994POPC   C1A53451   9.940  23.891   6.241
 3994POPC   D2A53452   9.789  23.693   6.581
 3994POPC   C3A53453   9.844  23.965   6.904
 3994POPC   C4A53454   9.846  23.741   7.197
 3994POPC   C1B53455   9.423  23.900   6.139
 3994POPC   C2B53456   9.466  24.078   6.553
 3994POPC   C3B53457   9.330  23.906   6.942
 3994POPC   C4B53458   9.359  23.649   7.311
 3995POPC   NC353459   8.169  37.957   5.469
 3995POPC   PO453460   7.999  38.592   5.411
 3995POPC   GL153461   8.198  38.582   5.803
 3995POPC   GL253462   8.429  38.354   5.663
 3995POPC   C1A53463   8.121  38.445   6.248
 3995POPC   D2A53464   7.935  38.356   6.642
 3995POPC   C3A53465   7.999  38.673   6.978
 3995POPC   C4A53466   8.315  38.904   7.155
 3995POPC   C1B53467   8.545  38.243   6.075
 3995POPC   C2B53468   8.516  38.254   6.558
 3995POPC   C3B53469   8.515  38.366   7.020
 3995POPC   C4B53470   8.683  38.159   7.413
 3996POPC   NC353471  22.490  33.683   5.185
 3996POPC   PO453472  22.913  34.208   5.466
 3996POPC   GL153473  23.009  33.988   5.879
 3996POPC   GL253474  23.293  34.032   6.092
 3996POPC   C1A53475  22.809  33.840   6.261
 3996POPC   D2A53476  22.990  33.817   6.669
 3996POPC   C3A53477  22.768  33.601   6.977
 3996POPC   C4A53478  22.806  33.741   7.409
 3996POPC   C1B53479  23.257  33.589   6.274
 3996POPC   C2B53480  23.186  33.360   6.682
 3996POPC   C3B53481  23.249  33.504   7.134
 3996POPC   C4B53482  23.327  33.723   7.530
 3997POPC   NC353483  42.407   7.773   5.419
 3997POPC   PO453484  42.579   7.136   5.718
 3997POPC   GL153485  42.413   7.429   5.938
 3997POPC   GL253486  42.496   7.783   5.911
 3997POPC   C1A53487  42.522   7.457   6.354
 3997POPC   D2A53488  42.364   7.439   6.746
 3997POPC   C3A53489  42.423   7.203   7.123
 3997POPC   C4A53490  42.207   7.251   7.525
 3997POPC   C1B53491  42.151   7.778   6.179
 3997POPC   C2B53492  42.098   7.869   6.572
 3997POPC   C3B53493  42.203   7.900   6.941
 3997POPC   C4B53494  42.064   7.567   7.141
 3998POPC   NC353495   4.165  24.231   5.434
 3998POPC   PO453496   4.188  23.517   5.414
 3998POPC   GL153497   4.409  23.678   5.724
 3998POPC   GL253498   4.112  23.876   5.797
 3998POPC   C1A53499   4.544  23.439   6.096
 3998POPC   D2A53500   4.651  23.541   6.521
 3998POPC   C3A53501   4.351  23.561   6.859
 3998POPC   C4A53502   4.270  23.344   7.255
 3998POPC   C1B53503   4.328  23.879   6.187
 3998POPC   C2B53504   4.339  24.017   6.556
 3998POPC   C3B53505   4.488  24.058   6.946
 3998POPC   C4B53506   4.388  23.840   7.297
 3999POPC   NC353507  20.405   9.769   5.060
 3999POPC   PO453508  20.560   9.382   5.617
 3999POPC   GL153509  20.531   9.466   5.985
 3999POPC   GL253510  20.210   9.272   5.952
 3999POPC   C1A53511  20.552   9.854   6.233
 3999POPC   D2A53512  20.622   9.974   6.670
 3999POPC   C3A53513  20.732   9.764   7.011
 3999POPC   C4A53514  20.401  10.026   7.195
 3999POPC   C1B53515  20.169   9.448   6.321
 3999POPC   C2B53516  20.502   9.485   6.582
 3999POPC   C3B53517  20.277   9.578   6.932
 3999POPC   C4B53518  20.378   9.522   7.314
 4000POPC   NC353519  39.735  22.459   5.352
 4000POPC   PO453520  39.629  21.743   5.397
 4000POPC   GL153521  39.886  22.042   5.667
 4000POPC   GL253522  39.984  21.777   5.922
 4000POPC   C1A53523  39.892  22.245   6.090
 4000POPC   D2A53524  39.769  22.054   6.496
 4000POPC   C3A53525  39.814  22.258   6.949
 4000POPC   C4A53526  40.163  22.366   7.237
 4000POPC   C1B53527  40.241  21.891   6.292
 4000POPC   C2B53528  40.211  22.008   6.725
 4000POPC   C3B53529  40.258  21.880   7.114
 4000POPC   C4B53530  40.517  21.974   7.498
 4001POPC   NC353531   1.671   2.734   5.403
 4001POPC   PO453532   2.245   3.011   5.570
 4001POPC   GL153533   1.931   2.863   5.821
 4001POPC   GL253534   2.020   2.528   5.783
 4001POPC   C1A53535   1.734   2.832   6.218
 4001POPC   D2A53536   1.774   3.084   6.619
 4001POPC   C3A53537   2.030   2.900   6.964
 4001POPC   C4A53538   1.887   2.556   7.175
 4001POPC   C1B53539   2.215   2.605   6.214
 4001POPC   C2B53540   2.137   2.482   6.668
 4001POPC   C3B53541   2.351   2.427   7.088
 4001POPC   C4B53542   2.349   2.730   7.432
 4002POPC   NC353543  44.495   6.277   5.550
 4002POPC   PO453544  44.801   5.746   5.339
 4002POPC   GL153545  44.693   5.801   5.808
 4002POPC   GL253546  44.529   5.517   5.955
 4002POPC   C1A53547  44.892   5.904   6.231
 4002POPC   D2A53548  44.970   6.064   6.693
 4002POPC   C3A53549  44.947   5.813   7.086
 4002POPC   C4A53550  44.669   5.493   7.216
 4002POPC   C1B53551  44.417   5.727   6.333
 4002POPC   C2B53552  44.553   5.720   6.770
 4002POPC   C3B53553  44.431   5.955   7.164
 4002POPC   C4B53554  44.316   6.263   7.491
 4003POPC   NC353555   7.235  33.992   5.397
 4003POPC   PO453556   7.629  33.440   5.424
 4003POPC   GL153557   7.567  33.752   5.756
 4003POPC   GL253558   7.224  33.779   5.851
 4003POPC   C1A53559   7.570  33.938   6.179
 4003POPC   D2A53560   7.296  34.042   6.496
 4003POPC   C3A53561   7.466  34.039   6.885
 4003POPC   C4A53562   7.459  33.956   7.308
 4003POPC   C1B53563   7.209  33.509   6.173
 4003POPC   C2B53564   7.061  33.516   6.570
 4003POPC   C3B53565   7.097  33.681   6.947
 4003POPC   C4B53566   7.188  33.508   7.346
 4004POPC   NC353567  23.897  36.040   5.486
 4004POPC   PO453568  23.472  36.551   5.234
 4004POPC   GL153569  23.526  36.272   5.716
 4004POPC   GL253570  23.836  36.333   5.932
 4004POPC   C1A53571  23.501  36.064   6.160
 4004POPC   D2A53572  23.704  36.239   6.546
 4004POPC   C3A53573  23.577  36.146   6.994
 4004POPC   C4A53574  23.354  36.044   7.382
 4004POPC   C1B53575  24.042  36.015   6.185
 4004POPC   C2B53576  24.010  35.849   6.620
 4004POPC   C3B53577  24.071  36.152   6.933
 4004POPC   C4B53578  23.997  35.846   7.231
 4005POPC   NC353579   2.501   0.771   5.305
 4005POPC   PO453580   2.589   1.483   5.317
 4005POPC   GL153581   2.853   1.318   5.672
 4005POPC   GL253582   2.934   0.943   5.668
 4005POPC   C1A53583   2.879   1.353   6.149
 4005POPC   D2A53584   2.760   1.424   6.606
 4005POPC   C3A53585   3.000   1.234   6.975
 4005POPC   C4A53586   2.960   1.324   7.412
 4005POPC   C1B53587   2.569   0.966   5.949
 4005POPC   C2B53588   2.468   1.023   6.385
 4005POPC   C3B53589   2.558   0.997   6.810
 4005POPC   C4B53590   2.636   0.953   7.225
 4006POPC   NC353591  42.112  32.523   5.071
 4006POPC   PO453592  42.399  31.962   5.315
 4006POPC   GL153593  42.228  32.029   5.731
 4006POPC   GL253594  42.423  32.311   5.820
 4006POPC   C1A53595  42.199  31.975   6.212
 4006POPC   D2A53596  42.414  31.914   6.643
 4006POPC   C3A53597  42.308  32.171   7.066
 4006POPC   C4A53598  42.124  32.096   7.500
 4006POPC   C1B53599  42.575  32.306   6.234
 4006POPC   C2B53600  42.512  32.445   6.664
 4006POPC   C3B53601  42.657  32.568   7.097
 4006POPC   C4B53602  42.500  32.460   7.545
 4007POPC   NC353603  16.438  34.712   5.374
 4007POPC   PO453604  17.115  34.563   5.273
 4007POPC   GL153605  16.879  34.570   5.705
 4007POPC   GL253606  16.514  34.487   5.814
 4007POPC   C1A53607  16.814  34.663   6.165
 4007POPC   D2A53608  16.592  34.729   6.546
 4007POPC   C3A53609  16.782  34.623   6.920
 4007POPC   C4A53610  17.006  34.708   7.269
 4007POPC   C1B53611  16.364  34.349   6.247
 4007POPC   C2B53612  16.229  34.391   6.710
 4007POPC   C3B53613  16.413  34.377   7.134
 4007POPC   C4B53614  16.654  34.345   7.538
 4008POPC   NC353615  10.441  28.102   5.207
 4008POPC   PO453616  10.137  27.797   5.744
 4008POPC   GL153617  10.402  28.173   5.739
 4008POPC   GL253618  10.410  28.529   5.811
 4008POPC   C1A53619  10.679  28.220   6.097
 4008POPC   D2A53620  10.610  28.392   6.498
 4008POPC   C3A53621  10.801  28.405   6.878
 4008POPC   C4A53622  10.646  28.238   7.204
 4008POPC   C1B53623  10.214  28.447   6.186
 4008POPC   C2B53624  10.114  28.592   6.582
 4008POPC   C3B53625  10.267  28.454   6.925
 4008POPC   C4B53626  10.463  28.723   7.183
 4009POPC   NC353627  22.402  25.024   5.320
 4009POPC   PO453628  21.782  25.227   5.517
 4009POPC   GL153629  22.151  25.117   5.773
 4009POPC   GL253630  22.408  25.384   5.795
 4009POPC   C1A53631  22.245  25.027   6.222
 4009POPC   D2A53632  22.084  25.239   6.613
 4009POPC   C3A53633  21.962  25.039   6.997
 4009POPC   C4A53634  22.161  25.075   7.408
 4009POPC   C1B53635  22.315  25.540   6.210
 4009POPC   C2B53636  22.514  25.529   6.625
 4009POPC   C3B53637  22.401  25.402   7.075
 4009POPC   C4B53638  22.444  25.487   7.559
 4010POPC   NC353639  14.538  20.361   5.498
 4010POPC   PO453640  14.241  20.990   5.298
 4010POPC   GL153641  14.281  20.757   5.722
 4010POPC   GL253642  14.596  20.626   5.921
 4010POPC   C1A53643  14.216  20.782   6.187
 4010POPC   D2A53644  14.559  20.889   6.498
 4010POPC   C3A53645  14.450  20.800   6.939
 4010POPC   C4A53646  14.591  20.839   7.355
 4010POPC   C1B53647  14.541  20.350   6.271
 4010POPC   C2B53648  14.713  20.411   6.675
 4010POPC   C3B53649  14.697  20.365   7.120
 4010POPC   C4B53650  14.659  20.373   7.564
 4011POPC   NC353651   9.254   1.967   5.399
 4011POPC   PO453652   8.749   1.587   5.459
 4011POPC   GL153653   9.011   1.677   5.795
 4011POPC   GL253654   8.951   2.051   5.862
 4011POPC   C1A53655   9.091   1.703   6.229
 4011POPC   D2A53656   8.878   1.949   6.547
 4011POPC   C3A53657   9.018   1.718   6.957
 4011POPC   C4A53658   9.263   1.845   7.332
 4011POPC   C1B53659   9.213   2.209   6.241
 4011POPC   C2B53660   9.303   2.124   6.714
 4011POPC   C3B53661   8.914   2.209   7.014
 4011POPC   C4B53662   8.783   2.456   7.392
 4012POPC   NC353663  20.317   2.779   5.218
 4012POPC   PO453664  19.805   3.065   5.520
 4012POPC   GL153665  19.834   2.812   5.830
 4012POPC   GL253666  19.686   2.514   5.841
 4012POPC   C1A53667  19.742   2.903   6.232
 4012POPC   D2A53668  19.824   3.105   6.655
 4012POPC   C3A53669  19.702   2.876   7.017
 4012POPC   C4A53670  19.726   3.000   7.472
 4012POPC   C1B53671  19.689   2.348   6.231
 4012POPC   C2B53672  19.809   2.540   6.602
 4012POPC   C3B53673  19.955   2.440   6.975
 4012POPC   C4B53674  20.091   2.311   7.352
 4013POPC   NC353675   0.852  27.286   5.597
 4013POPC   PO453676   1.492  27.454   5.466
 4013POPC   GL153677   1.326  27.429   5.871
 4013POPC   GL253678   1.082  27.690   5.821
 4013POPC   C1A53679   1.224  27.560   6.305
 4013POPC   D2A53680   1.240  27.915   6.587
 4013POPC   C3A53681   1.247  27.769   7.011
 4013POPC   C4A53682   1.335  27.464   7.366
 4013POPC   C1B53683   0.951  27.972   6.147
 4013POPC   C2B53684   0.780  28.087   6.542
 4013POPC   C3B53685   0.763  27.967   6.990
 4013POPC   C4B53686   0.915  27.736   7.388
 4014POPC   NC353687  25.761  36.306   5.203
 4014POPC   PO453688  26.316  35.872   5.478
 4014POPC   GL153689  26.266  36.081   5.917
 4014POPC   GL253690  25.890  36.088   6.017
 4014POPC   C1A53691  26.214  36.362   6.277
 4014POPC   D2A53692  25.965  36.188   6.572
 4014POPC   C3A53693  26.161  36.130   6.955
 4014POPC   C4A53694  26.169  35.961   7.342
 4014POPC   C1B53695  25.686  36.437   6.176
 4014POPC   C2B53696  25.652  36.591   6.570
 4014POPC   C3B53697  25.715  36.431   6.953
 4014POPC   C4B53698  26.029  36.505   7.253
 4015POPC   NC353699   9.769  10.714   5.445
 4015POPC   PO453700   9.769  10.090   5.537
 4015POPC   GL153701   9.752  10.351   5.899
 4015POPC   GL253702   9.427  10.518   5.831
 4015POPC   C1A53703   9.976  10.662   6.173
 4015POPC   D2A53704  10.094  10.801   6.593
 4015POPC   C3A53705  10.107  10.487   6.914
 4015POPC   C4A53706   9.873  10.351   7.294
 4015POPC   C1B53707   9.473  10.669   6.240
 4015POPC   C2B53708   9.629  10.578   6.627
 4015POPC   C3B53709   9.614  10.711   7.029
 4015POPC   C4B53710   9.479  10.711   7.460
 4016POPC   NC353711  39.232  39.081   5.311
 4016POPC   PO453712  39.643  38.881   5.789
 4016POPC   GL153713  39.270  39.140   5.809
 4016POPC   GL253714  39.361  39.462   5.647
 4016POPC   C1A53715  38.985  39.281   6.126
 4016POPC   D2A53716  39.127  39.278   6.572
 4016POPC   C3A53717  38.964  39.163   6.991
 4016POPC   C4A53718  39.171  39.102   7.435
 4016POPC   C1B53719  39.475  39.505   6.102
 4016POPC   C2B53720  39.567  39.563   6.544
 4016POPC   C3B53721  39.592  39.673   6.976
 4016POPC   C4B53722  39.512  39.895   7.342
 4017POPC   NC353723  28.197  21.131   5.313
 4017POPC   PO453724  28.540  20.534   5.405
 4017POPC   GL153725  28.358  20.530   5.783
 4017POPC   GL253726  28.124  20.799   5.755
 4017POPC   C1A53727  28.529  20.440   6.181
 4017POPC   D2A53728  28.749  20.393   6.535
 4017POPC   C3A53729  28.506  20.314   6.888
 4017POPC   C4A53730  28.651  20.368   7.311
 4017POPC   C1B53731  28.270  20.889   6.172
 4017POPC   C2B53732  28.317  20.716   6.593
 4017POPC   C3B53733  28.412  20.782   7.040
 4017POPC   C4B53734  28.701  21.019   7.267
 4018POPC   NC353735  32.686  31.327   5.335
 4018POPC   PO453736  33.300  31.665   5.386
 4018POPC   GL153737  32.954  31.664   5.688
 4018POPC   GL253738  32.975  31.306   5.741
 4018POPC   C1A53739  32.924  31.867   6.121
 4018POPC   D2A53740  33.069  32.073   6.517
 4018POPC   C3A53741  33.027  31.797   6.874
 4018POPC   C4A53742  33.104  31.644   7.281
 4018POPC   C1B53743  32.767  31.387   6.110
 4018POPC   C2B53744  32.807  31.519   6.515
 4018POPC   C3B53745  32.819  31.319   6.934
 4018POPC   C4B53746  32.606  31.464   7.302
 4019POPC   NC353747  17.446  24.919   5.481
 4019POPC   PO453748  17.820  24.362   5.399
 4019POPC   GL153749  17.703  24.303   5.808
 4019POPC   GL253750  17.378  24.434   5.847
 4019POPC   C1A53751  17.729  24.476   6.230
 4019POPC   D2A53752  17.546  24.373   6.620
 4019POPC   C3A53753  17.750  24.459   6.989
 4019POPC   C4A53754  17.551  24.555   7.376
 4019POPC   C1B53755  17.249  24.633   6.274
 4019POPC   C2B53756  17.179  24.717   6.763
 4019POPC   C3B53757  17.222  24.916   7.203
 4019POPC   C4B53758  17.413  24.978   7.633
 4020POPC   NC353759   6.634  44.783   5.450
 4020POPC   PO453760   6.303  44.190   5.396
 4020POPC   GL153761   6.548  44.371   5.791
 4020POPC   GL253762   6.780  44.694   5.909
 4020POPC   C1A53763   6.489  44.499   6.260
 4020POPC   D2A53764   6.347  44.521   6.692
 4020POPC   C3A53765   6.561  44.761   6.978
 4020POPC   C4A53766   6.700  44.537   7.323
 4020POPC   C1B53767   7.079  44.660   6.228
 4020POPC   C2B53768   7.047  44.621   6.657
 4020POPC   C3B53769   7.112  44.691   7.073
 4020POPC   C4B53770   7.183  44.506   7.493
 4021POPC   NC353771   3.332  41.076   5.442
 4021POPC   PO453772   3.905  40.731   5.478
 4021POPC   GL153773   3.653  40.905   5.803
 4021POPC   GL253774   3.361  40.690   5.799
 4021POPC   C1A53775   3.612  41.131   6.182
 4021POPC   D2A53776   3.747  40.925   6.545
 4021POPC   C3A53777   3.620  41.112   6.926
 4021POPC   C4A53778   3.806  40.998   7.336
 4021POPC   C1B53779   3.225  40.789   6.207
 4021POPC   C2B53780   3.241  40.978   6.608
 4021POPC   C3B53781   3.182  40.809   7.002
 4021POPC   C4B53782   3.152  40.512   7.332
 4022POPC   NC353783   6.710  17.954   5.468
 4022POPC   PO453784   6.556  18.594   5.494
 4022POPC   GL153785   6.355  18.425   5.858
 4022POPC   GL253786   6.530  18.109   5.945
 4022POPC   C1A53787   6.438  18.448   6.313
 4022POPC   D2A53788   6.746  18.187   6.525
 4022POPC   C3A53789   6.552  17.999   6.848
 4022POPC   C4A53790   6.482  18.191   7.245
 4022POPC   C1B53791   6.962  17.992   6.080
 4022POPC   C2B53792   7.228  17.997   6.429
 4022POPC   C3B53793   7.179  18.004   6.868
 4022POPC   C4B53794   6.918  17.928   7.205
 4023POPC   NC353795  11.681   2.143   5.517
 4023POPC   PO453796  12.319   1.773   5.500
 4023POPC   GL153797  12.056   1.931   5.831
 4023POPC   GL253798  11.700   1.817   5.912
 4023POPC   C1A53799  12.109   2.075   6.231
 4023POPC   D2A53800  12.036   1.853   6.582
 4023POPC   C3A53801  12.224   2.048   6.886
 4023POPC   C4A53802  12.189   2.009   7.294
 4023POPC   C1B53803  11.618   2.199   6.199
 4023POPC   C2B53804  11.814   2.370   6.588
 4023POPC   C3B53805  11.752   2.209   7.006
 4023POPC   C4B53806  11.761   2.202   7.465
 4024POPC   NC353807  10.047  13.134   5.373
 4024POPC   PO453808   9.371  13.030   5.389
 4024POPC   GL153809   9.656  12.886   5.718
 4024POPC   GL253810   9.640  12.518   5.790
 4024POPC   C1A53811   9.825  12.868   6.153
 4024POPC   D2A53812   9.584  13.002   6.542
 4024POPC   C3A53813   9.766  12.998   6.959
 4024POPC   C4A53814   9.773  12.875   7.421
 4024POPC   C1B53815   9.676  12.381   6.240
 4024POPC   C2B53816   9.808  12.548   6.657
 4024POPC   C3B53817   9.572  12.543   7.060
 4024POPC   C4B53818   9.487  12.451   7.511
 4025POPC   NC353819   3.363  19.823   5.458
 4025POPC   PO453820   2.725  19.697   5.359
 4025POPC   GL153821   2.947  19.935   5.729
 4025POPC   GL253822   3.166  19.669   5.911
 4025POPC   C1A53823   3.058  20.140   6.132
 4025POPC   D2A53824   3.037  19.967   6.539
 4025POPC   C3A53825   2.982  20.113   6.955
 4025POPC   C4A53826   2.669  19.908   7.210
 4025POPC   C1B53827   2.785  19.682   6.181
 4025POPC   C2B53828   2.566  19.593   6.579
 4025POPC   C3B53829   2.615  19.424   7.045
 4025POPC   C4B53830   2.790  19.475   7.488
 4026POPC   NC353831  27.957   5.354   5.379
 4026POPC   PO453832  28.485   4.948   5.475
 4026POPC   GL153833  28.269   5.164   5.791
 4026POPC   GL253834  28.569   5.201   5.956
 4026POPC   C1A53835  28.154   5.118   6.246
 4026POPC   D2A53836  28.358   4.985   6.651
 4026POPC   C3A53837  28.255   5.117   7.092
 4026POPC   C4A53838  28.231   5.410   7.483
 4026POPC   C1B53839  28.648   5.328   6.379
 4026POPC   C2B53840  28.552   5.439   6.817
 4026POPC   C3B53841  28.686   5.385   7.251
 4026POPC   C4B53842  28.847   5.416   7.683
 4027POPC   NC353843  11.631  34.695   5.402
 4027POPC   PO453844  12.203  34.333   5.485
 4027POPC   GL153845  12.167  34.345   5.881
 4027POPC   GL253846  11.816  34.326   5.839
 4027POPC   C1A53847  12.144  34.361   6.306
 4027POPC   D2A53848  12.247  34.513   6.676
 4027POPC   C3A53849  12.127  34.422   7.077
 4027POPC   C4A53850  12.401  34.602   7.378
 4027POPC   C1B53851  11.842  34.716   6.084
 4027POPC   C2B53852  11.803  34.778   6.532
 4027POPC   C3B53853  11.716  34.717   6.969
 4027POPC   C4B53854  11.623  34.355   7.225
 4028POPC   NC353855   2.176  10.311   5.461
 4028POPC   PO453856   2.127  10.963   5.251
 4028POPC   GL153857   2.045  10.811   5.719
 4028POPC   GL253858   1.825  10.487   5.792
 4028POPC   C1A53859   2.139  10.621   6.159
 4028POPC   D2A53860   2.118  10.489   6.600
 4028POPC   C3A53861   2.068  10.740   6.960
 4028POPC   C4A53862   1.878  10.665   7.334
 4028POPC   C1B53863   1.717  10.306   6.218
 4028POPC   C2B53864   1.689  10.151   6.635
 4028POPC   C3B53865   1.858  10.255   7.022
 4028POPC   C4B53866   1.557  10.258   7.347
 4029POPC   NC353867  11.685  15.894   5.495
 4029POPC   PO453868  10.951  15.646   5.473
 4029POPC   GL153869  11.216  15.687   5.828
 4029POPC   GL253870  11.241  16.049   5.788
 4029POPC   C1A53871  11.389  15.788   6.258
 4029POPC   D2A53872  11.367  15.895   6.714
 4029POPC   C3A53873  11.120  15.701   7.027
 4029POPC   C4A53874  11.546  15.577   7.193
 4029POPC   C1B53875  11.425  16.286   6.135
 4029POPC   C2B53876  11.304  16.379   6.562
 4029POPC   C3B53877  11.539  16.320   6.928
 4029POPC   C4B53878  11.407  16.073   7.210
 4030POPC   NC353879  35.639  25.425   5.361
 4030POPC   PO453880  34.996  25.637   5.521
 4030POPC   GL153881  35.305  25.346   5.764
 4030POPC   GL253882  35.382  24.950   5.761
 4030POPC   C1A53883  35.456  25.233   6.188
 4030POPC   D2A53884  35.227  25.317   6.547
 4030POPC   C3A53885  35.243  25.514   6.924
 4030POPC   C4A53886  35.398  25.406   7.319
 4030POPC   C1B53887  35.132  24.795   6.150
 4030POPC   C2B53888  35.024  24.856   6.603
 4030POPC   C3B53889  35.140  25.019   7.011
 4030POPC   C4B53890  35.228  24.770   7.357
 4031POPC   NC353891  44.861  31.423   5.281
 4031POPC   PO453892  44.241  31.160   5.338
 4031POPC   GL153893  44.536  31.167   5.676
 4031POPC   GL253894  44.844  31.298   5.849
 4031POPC   C1A53895  44.434  31.158   6.122
 4031POPC   D2A53896  44.628  31.259   6.523
 4031POPC   C3A53897  44.439  31.406   6.914
 4031POPC   C4A53898  44.597  31.710   7.205
 4031POPC   C1B53899  44.969  31.571   6.227
 4031POPC   C2B53900   0.129  31.837   6.582
 4031POPC   C3B53901   0.097  31.858   7.029
 4031POPC   C4B53902   0.280  31.529   7.285
 4032POPC   NC353903  42.165   2.924   5.446
 4032POPC   PO453904  42.595   2.393   5.455
 4032POPC   GL153905  42.681   2.731   5.789
 4032POPC   GL253906  42.479   3.063   5.845
 4032POPC   C1A53907  42.580   2.760   6.240
 4032POPC   D2A53908  42.320   2.594   6.542
 4032POPC   C3A53909  42.446   2.798   6.911
 4032POPC   C4A53910  42.371   2.587   7.267
 4032POPC   C1B53911  42.108   2.891   6.103
 4032POPC   C2B53912  41.844   2.847   6.466
 4032POPC   C3B53913  41.937   2.788   6.906
 4032POPC   C4B53914  42.100   3.030   7.259
 4033POPC   NC353915  22.436  42.147   5.546
 4033POPC   PO453916  21.968  42.584   5.429
 4033POPC   GL153917  22.199  42.574   5.819
 4033POPC   GL253918  21.988  42.274   5.923
 4033POPC   C1A53919  22.196  42.548   6.294
 4033POPC   D2A53920  22.225  42.695   6.705
 4033POPC   C3A53921  22.090  42.451   7.038
 4033POPC   C4A53922  22.317  42.527   7.410
 4033POPC   C1B53923  22.120  42.046   6.321
 4033POPC   C2B53924  22.397  42.177   6.668
 4033POPC   C3B53925  22.434  42.101   7.127
 4033POPC   C4B53926  22.215  41.987   7.533
 4034POPC   NC353927  14.893  31.450   5.312
 4034POPC   PO453928  14.290  31.546   5.313
 4034POPC   GL153929  14.322  31.477   5.791
 4034POPC   GL253930  14.630  31.655   5.760
 4034POPC   C1A53931  14.228  31.766   6.204
 4034POPC   D2A53932  14.156  31.978   6.605
 4034POPC   C3A53933  14.262  31.769   7.023
 4034POPC   C4A53934  14.350  31.412   7.301
 4034POPC   C1B53935  14.662  31.510   6.186
 4034POPC   C2B53936  14.570  31.676   6.593
 4034POPC   C3B53937  14.745  31.585   6.980
 4034POPC   C4B53938  14.844  31.615   7.392
 4035POPC   NC353939   1.422  41.183   5.535
 4035POPC   PO453940   0.963  41.719   5.424
 4035POPC   GL153941   1.180  41.589   5.780
 4035POPC   GL253942   1.320  41.943   5.896
 4035POPC   C1A53943   1.116  41.269   6.157
 4035POPC   D2A53944   0.950  41.063   6.553
 4035POPC   C3A53945   1.147  41.214   6.948
 4035POPC   C4A53946   1.420  41.482   7.224
 4035POPC   C1B53947   1.065  41.785   6.222
 4035POPC   C2B53948   1.086  41.581   6.582
 4035POPC   C3B53949   1.077  41.745   6.957
 4035POPC   C4B53950   0.991  41.760   7.368
 4036POPC   NC353951  17.849   9.217   5.296
 4036POPC   PO453952  18.367   9.005   5.494
 4036POPC   GL153953  18.152   9.262   5.814
 4036POPC   GL253954  17.849   9.075   5.818
 4036POPC   C1A53955  18.237   9.376   6.279
 4036POPC   D2A53956  18.500   9.183   6.619
 4036POPC   C3A53957  18.416   9.149   7.076
 4036POPC   C4A53958  18.330   9.166   7.507
 4036POPC   C1B53959  17.893   8.997   6.297
 4036POPC   C2B53960  18.013   9.035   6.761
 4036POPC   C3B53961  17.965   8.916   7.225
 4036POPC   C4B53962  18.050   8.778   7.672
 4037POPC   NC353963  12.606  18.082   5.118
 4037POPC   PO453964  12.869  17.485   5.233
 4037POPC   GL153965  12.960  17.562   5.716
 4037POPC   GL253966  12.776  17.294   5.742
 4037POPC   C1A53967  13.076  17.467   6.161
 4037POPC   D2A53968  13.066  17.627   6.588
 4037POPC   C3A53969  13.146  17.385   6.944
 4037POPC   C4A53970  12.970  17.423   7.346
 4037POPC   C1B53971  12.597  17.171   6.111
 4037POPC   C2B53972  12.500  17.346   6.501
 4037POPC   C3B53973  12.631  17.471   6.909
 4037POPC   C4B53974  12.502  17.176   7.233
 4038POPC   NC353975  23.270  26.668   5.567
 4038POPC   PO453976  23.812  27.090   5.455
 4038POPC   GL153977  23.701  26.861   5.827
 4038POPC   GL253978  23.486  27.137   5.888
 4038POPC   C1A53979  23.608  26.613   6.237
 4038POPC   D2A53980  23.855  26.565   6.627
 4038POPC   C3A53981  23.564  26.590   6.965
 4038POPC   C4A53982  23.422  26.770   7.368
 4038POPC   C1B53983  23.789  27.098   6.276
 4038POPC   C2B53984  23.750  27.054   6.722
 4038POPC   C3B53985  23.880  26.973   7.132
 4038POPC   C4B53986  23.819  27.025   7.570
 4039POPC   NC353987   8.332  12.626   5.198
 4039POPC   PO453988   8.291  11.951   5.340
 4039POPC   GL153989   8.162  12.052   5.786
 4039POPC   GL253990   7.818  12.125   5.793
 4039POPC   C1A53991   8.233  12.236   6.225
 4039POPC   D2A53992   8.290  12.348   6.681
 4039POPC   C3A53993   8.334  12.080   7.041
 4039POPC   C4A53994   8.371  12.038   7.518
 4039POPC   C1B53995   7.846  11.863   6.167
 4039POPC   C2B53996   8.035  11.910   6.573
 4039POPC   C3B53997   7.839  11.954   6.958
 4039POPC   C4B53998   7.904  12.125   7.341
 4040POPC   NC353999  44.339  23.284   5.582
 4040POPC   PO454000  44.903  23.673   5.459
 4040POPC   GL154001  44.755  23.657   5.884
 4040POPC   GL254002  44.771  23.339   5.906
 4040POPC   C1A54003  44.956  23.639   6.322
 4040POPC   D2A54004  44.877  23.926   6.683
 4040POPC   C3A54005  44.708  23.881   7.110
 4040POPC   C4A54006  44.828  23.637   7.498
 4040POPC   C1B54007  44.528  23.378   6.287
 4040POPC   C2B54008  44.556  23.505   6.738
 4040POPC   C3B54009  44.460  23.462   7.188
 4040POPC   C4B54010  44.349  23.404   7.631
 4041POPC   NC354011  27.523  42.075   5.304
 4041POPC   PO454012  27.483  42.765   5.431
 4041POPC   GL154013  27.628  42.397   5.720
 4041POPC   GL254014  27.331  42.220   5.775
 4041POPC   C1A54015  27.626  42.218   6.189
 4041POPC   D2A54016  27.462  41.956   6.545
 4041POPC   C3A54017  27.477  42.172   6.940
 4041POPC   C4A54018  27.696  42.537   7.114
 4041POPC   C1B54019  27.115  42.213   6.172
 4041POPC   C2B54020  27.203  42.426   6.545
 4041POPC   C3B54021  27.158  42.591   6.952
 4041POPC   C4B54022  27.247  42.421   7.325
 4042POPC   NC354023   3.339  37.920   5.384
 4042POPC   PO454024   3.830  37.457   5.522
 4042POPC   GL154025   3.703  37.683   5.837
 4042POPC   GL254026   3.390  37.601   5.774
 4042POPC   C1A54027   3.822  37.684   6.272
 4042POPC   D2A54028   3.586  37.760   6.638
 4042POPC   C3A54029   3.804  37.674   7.015
 4042POPC   C4A54030   3.637  37.863   7.345
 4042POPC   C1B54031   3.384  37.420   6.172
 4042POPC   C2B54032   3.282  37.345   6.575
 4042POPC   C3B54033   3.371  37.409   6.988
 4042POPC   C4B54034   3.108  37.428   7.335
 4043POPC   NC354035  43.428  23.597   5.316
 4043POPC   PO454036  43.932  23.494   5.613
 4043POPC   GL154037  44.196  23.629   5.967
 4043POPC   GL254038  43.979  23.914   6.015
 4043POPC   C1A54039  44.169  23.701   6.444
 4043POPC   D2A54040  43.873  23.581   6.779
 4043POPC   C3A54041  43.987  23.630   7.213
 4043POPC   C4A54042  44.288  23.894   7.446
 4043POPC   C1B54043  43.714  23.933   6.401
 4043POPC   C2B54044  43.768  24.095   6.835
 4043POPC   C3B54045  43.833  24.115   7.276
 4043POPC   C4B54046  43.741  24.338   7.668
 4044POPC   NC354047  38.767   2.448   5.361
 4044POPC   PO454048  38.260   2.987   5.178
 4044POPC   GL154049  38.413   2.932   5.688
 4044POPC   GL254050  38.575   2.632   5.800
 4044POPC   C1A54051  38.532   2.933   6.193
 4044POPC   D2A54052  38.382   2.998   6.590
 4044POPC   C3A54053  38.639   3.074   6.923
 4044POPC   C4A54054  38.713   2.773   7.253
 4044POPC   C1B54055  38.349   2.462   6.163
 4044POPC   C2B54056  38.141   2.547   6.544
 4044POPC   C3B54057  38.363   2.571   6.940
 4044POPC   C4B54058  38.312   2.395   7.371
 4045POPC   NC354059  34.503  25.435   5.440
 4045POPC   PO454060  34.509  24.870   5.103
 4045POPC   GL154061  34.646  24.954   5.599
 4045POPC   GL254062  34.461  24.804   5.867
 4045POPC   C1A54063  34.593  25.248   6.045
 4045POPC   D2A54064  34.726  25.331   6.509
 4045POPC   C3A54065  34.517  25.422   6.937
 4045POPC   C4A54066  34.419  25.621   7.357
 4045POPC   C1B54067  34.614  24.842   6.317
 4045POPC   C2B54068  34.523  24.665   6.708
 4045POPC   C3B54069  34.631  24.926   7.015
 4045POPC   C4B54070  34.596  25.131   7.387
 4046POPC   NC354071  23.338  19.053   5.396
 4046POPC   PO454072  23.893  19.415   5.271
 4046POPC   GL154073  23.911  19.105   5.589
 4046POPC   GL254074  23.626  19.207   5.798
 4046POPC   C1A54075  24.048  18.950   6.007
 4046POPC   D2A54076  23.807  18.972   6.412
 4046POPC   C3A54077  23.967  18.999   6.850
 4046POPC   C4A54078  23.756  18.976   7.272
 4046POPC   C1B54079  23.451  19.318   6.223
 4046POPC   C2B54080  23.351  19.167   6.663
 4046POPC   C3B54081  23.258  19.069   7.104
 4046POPC   C4B54082  23.366  19.290   7.492
 4047POPC   NC354083   7.278  27.978   5.083
 4047POPC   PO454084   7.604  27.433   5.383
 4047POPC   GL154085   7.488  27.652   5.761
 4047POPC   GL254086   7.256  27.946   5.691
 4047POPC   C1A54087   7.523  27.511   6.194
 4047POPC   D2A54088   7.205  27.547   6.507
 4047POPC   C3A54089   7.330  27.507   6.930
 4047POPC   C4A54090   7.210  27.123   7.049
 4047POPC   C1B54091   7.321  27.978   6.160
 4047POPC   C2B54092   7.532  27.912   6.594
 4047POPC   C3B54093   7.471  27.995   7.050
 4047POPC   C4B54094   7.570  27.710   7.424
 4048POPC   NC354095  15.674  34.762   5.461
 4048POPC   PO454096  16.177  34.312   5.451
 4048POPC   GL154097  15.973  34.441   5.763
 4048POPC   GL254098  16.089  34.759   5.765
 4048POPC   C1A54099  15.894  34.564   6.189
 4048POPC   D2A54100  15.719  34.419   6.549
 4048POPC   C3A54101  15.777  34.669   6.909
 4048POPC   C4A54102  15.903  34.355   7.147
 4048POPC   C1B54103  16.305  34.891   6.128
 4048POPC   C2B54104  16.108  34.902   6.542
 4048POPC   C3B54105  16.265  34.857   6.959
 4048POPC   C4B54106  16.019  34.928   7.323
 4049POPC   NC354107  22.819  31.724   5.210
 4049POPC   PO454108  23.087  31.119   5.320
 4049POPC   GL154109  22.925  31.322   5.694
 4049POPC   GL254110  23.249  31.437   5.804
 4049POPC   C1A54111  22.809  31.444   6.158
 4049POPC   D2A54112  22.841  31.629   6.610
 4049POPC   C3A54113  22.853  31.401   7.033
 4049POPC   C4A54114  22.621  31.490   7.433
 4049POPC   C1B54115  23.334  31.553   6.245
 4049POPC   C2B54116  23.330  31.538   6.685
 4049POPC   C3B54117  23.199  31.779   7.035
 4049POPC   C4B54118  23.106  31.635   7.456
 4050POPC   NC354119  28.179   7.213   5.456
 4050POPC   PO454120  28.565   7.740   5.280
 4050POPC   GL154121  28.496   7.548   5.751
 4050POPC   GL254122  28.463   7.195   5.900
 4050POPC   C1A54123  28.374   7.613   6.224
 4050POPC   D2A54124  28.516   7.525   6.663
 4050POPC   C3A54125  28.335   7.555   7.072
 4050POPC   C4A54126  28.327   7.162   7.264
 4050POPC   C1B54127  28.028   7.246   6.095
 4050POPC   C2B54128  27.853   7.272   6.511
 4050POPC   C3B54129  27.936   7.260   6.962
 4050POPC   C4B54130  27.938   7.426   7.432
 4051POPC   NC354131  23.904  21.674   5.127
 4051POPC   PO454132  23.959  21.089   5.550
 4051POPC   GL154133  23.947  21.219   5.985
 4051POPC   GL254134  23.738  21.490   5.980
 4051POPC   C1A54135  23.949  21.370   6.439
 4051POPC   D2A54136  23.676  21.352   6.802
 4051POPC   C3A54137  23.900  21.365   7.175
 4051POPC   C4A54138  24.015  21.017   7.477
 4051POPC   C1B54139  23.474  21.486   6.336
 4051POPC   C2B54140  23.381  21.738   6.678
 4051POPC   C3B54141  23.334  21.602   7.100
 4051POPC   C4B54142  23.475  21.793   7.475
 4052POPC   NC354143   3.467  27.174   5.428
 4052POPC   PO454144   3.850  27.752   5.532
 4052POPC   GL154145   3.587  27.513   5.809
 4052POPC   GL254146   3.685  27.147   5.896
 4052POPC   C1A54147   3.544  27.560   6.245
 4052POPC   D2A54148   3.672  27.827   6.582
 4052POPC   C3A54149   3.358  27.826   6.910
 4052POPC   C4A54150   3.351  27.513   7.245
 4052POPC   C1B54151   3.743  27.044   6.349
 4052POPC   C2B54152   3.745  27.026   6.819
 4052POPC   C3B54153   3.798  27.247   7.221
 4052POPC   C4B54154   3.865  27.083   7.653
 4053POPC   NC354155   3.985  36.996   5.570
 4053POPC   PO454156   4.620  36.845   5.553
 4053POPC   GL154157   4.517  36.943   5.950
 4053POPC   GL254158   4.176  36.868   6.010
 4053POPC   C1A54159   4.491  36.975   6.388
 4053POPC   D2A54160   4.223  37.035   6.705
 4053POPC   C3A54161   4.549  37.108   6.950
 4053POPC   C4A54162   4.691  36.939   7.300
 4053POPC   C1B54163   3.939  36.519   6.189
 4053POPC   C2B54164   3.735  36.399   6.585
 4053POPC   C3B54165   3.876  36.631   6.948
 4053POPC   C4B54166   4.199  36.827   7.174
 4054POPC   NC354167  20.140  26.541   5.582
 4054POPC   PO454168  20.520  27.069   5.387
 4054POPC   GL154169  20.505  26.855   5.799
 4054POPC   GL254170  20.708  26.560   5.868
 4054POPC   C1A54171  20.355  26.770   6.225
 4054POPC   D2A54172  20.539  26.914   6.606
 4054POPC   C3A54173  20.371  26.828   6.966
 4054POPC   C4A54174  20.392  27.052   7.342
 4054POPC   C1B54175  20.869  26.781   6.231
 4054POPC   C2B54176  21.001  26.687   6.641
 4054POPC   C3B54177  20.836  26.493   6.987
 4054POPC   C4B54178  20.587  26.570   7.345
 4055POPC   NC354179  39.923  30.942   5.356
 4055POPC   PO454180  40.310  30.404   5.528
 4055POPC   GL154181  40.152  30.523   5.937
 4055POPC   GL254182  39.803  30.695   5.939
 4055POPC   C1A54183  40.008  30.506   6.361
 4055POPC   D2A54184  39.801  30.861   6.516
 4055POPC   C3A54185  40.157  30.949   6.747
 4055POPC   C4A54186  40.282  30.837   7.139
 4055POPC   C1B54187  39.588  30.332   6.165
 4055POPC   C2B54188  39.593  30.233   6.605
 4055POPC   C3B54189  39.852  30.491   6.872
 4055POPC   C4B54190  39.768  30.908   7.091
 4056POPC   NC354191  29.377  31.793   5.132
 4056POPC   PO454192  29.384  32.349   5.287
 4056POPC   GL154193  29.454  32.426   5.762
 4056POPC   GL254194  29.409  32.775   5.879
 4056POPC   C1A54195  29.358  32.349   6.240
 4056POPC   D2A54196  29.248  32.377   6.723
 4056POPC   C3A54197  29.458  32.138   7.103
 4056POPC   C4A54198  29.642  31.982   7.519
 4056POPC   C1B54199  29.515  32.835   6.314
 4056POPC   C2B54200  29.687  32.667   6.713
 4056POPC   C3B54201  29.470  32.658   7.103
 4056POPC   C4B54202  29.047  32.475   7.211
 4057POPC   NC354203  16.802  43.007   5.410
 4057POPC   PO454204  16.396  43.516   5.367
 4057POPC   GL154205  16.698  43.381   5.761
 4057POPC   GL254206  16.667  43.008   5.888
 4057POPC   C1A54207  16.975  43.300   6.180
 4057POPC   D2A54208  16.935  43.192   6.634
 4057POPC   C3A54209  16.590  43.284   6.903
 4057POPC   C4A54210  16.681  43.401   7.269
 4057POPC   C1B54211  16.478  43.185   6.235
 4057POPC   C2B54212  16.463  42.934   6.550
 4057POPC   C3B54213  16.664  42.776   6.902
 4057POPC   C4B54214  16.522  42.902   7.300
 4058POPC   NC354215   7.426  16.647   5.268
 4058POPC   PO454216   7.255  17.124   5.720
 4058POPC   GL154217   7.304  16.691   5.836
 4058POPC   GL254218   7.638  16.570   5.817
 4058POPC   C1A54219   7.304  16.630   6.281
 4058POPC   D2A54220   7.158  17.013   6.506
 4058POPC   C3A54221   7.300  17.108   6.938
 4058POPC   C4A54222   7.035  17.115   7.319
 4058POPC   C1B54223   7.693  16.292   6.174
 4058POPC   C2B54224   7.616  16.348   6.595
 4058POPC   C3B54225   7.290  16.404   6.852
 4058POPC   C4B54226   7.341  16.671   7.201
 4059POPC   NC354227  14.409  15.505   5.585
 4059POPC   PO454228  14.122  14.881   5.404
 4059POPC   GL154229  14.248  14.861   5.863
 4059POPC   GL254230  14.508  15.113   5.909
 4059POPC   C1A54231  14.239  14.962   6.334
 4059POPC   D2A54232  14.352  15.174   6.739
 4059POPC   C3A54233  14.257  14.991   7.138
 4059POPC   C4A54234  14.411  15.085   7.562
 4059POPC   C1B54235  14.509  15.400   6.280
 4059POPC   C2B54236  14.790  15.462   6.631
 4059POPC   C3B54237  14.744  15.355   7.066
 4059POPC   C4B54238  14.756  15.513   7.485
 4060POPC   NC354239  23.765  24.075   5.522
 4060POPC   PO454240  23.706  24.752   5.348
 4060POPC   GL154241  23.683  24.547   5.741
 4060POPC   GL254242  23.502  24.739   5.944
 4060POPC   C1A54243  23.665  24.312   6.143
 4060POPC   D2A54244  23.666  24.184   6.555
 4060POPC   C3A54245  23.539  24.372   6.940
 4060POPC   C4A54246  23.787  24.197   7.305
 4060POPC   C1B54247  23.771  24.844   6.232
 4060POPC   C2B54248  23.691  24.817   6.676
 4060POPC   C3B54249  23.707  24.816   7.115
 4060POPC   C4B54250  23.958  24.654   7.419
 4061POPC   NC354251  28.388  26.903   5.293
 4061POPC   PO454252  28.023  26.413   5.484
 4061POPC   GL154253  28.318  26.707   5.763
 4061POPC   GL254254  28.222  27.040   5.903
 4061POPC   C1A54255  28.305  26.648   6.193
 4061POPC   D2A54256  28.295  26.808   6.590
 4061POPC   C3A54257  28.317  26.556   6.908
 4061POPC   C4A54258  28.621  26.602   7.132
 4061POPC   C1B54259  28.554  27.089   6.257
 4061POPC   C2B54260  28.511  27.261   6.671
 4061POPC   C3B54261  28.450  27.112   7.085
 4061POPC   C4B54262  28.535  27.371   7.447
 4062POPC   NC354263  36.628  14.561   5.307
 4062POPC   PO454264  37.292  14.532   5.615
 4062POPC   GL154265  37.068  14.565   5.950
 4062POPC   GL254266  36.741  14.530   5.812
 4062POPC   C1A54267  37.165  14.472   6.377
 4062POPC   D2A54268  37.535  14.328   6.601
 4062POPC   C3A54269  37.359  14.184   6.988
 4062POPC   C4A54270  36.982  14.341   7.125
 4062POPC   C1B54271  36.689  14.348   6.209
 4062POPC   C2B54272  36.666  14.511   6.628
 4062POPC   C3B54273  36.502  14.695   6.985
 4062POPC   C4B54274  36.362  14.501   7.382
 4063POPC   NC354275  36.396  27.068   5.339
 4063POPC   PO454276  35.775  26.829   5.301
 4063POPC   GL154277  36.066  26.842   5.680
 4063POPC   GL254278  36.159  27.134   5.843
 4063POPC   C1A54279  36.129  26.700   6.128
 4063POPC   D2A54280  36.174  26.428   6.488
 4063POPC   C3A54281  36.237  26.672   6.869
 4063POPC   C4A54282  36.419  26.726   7.289
 4063POPC   C1B54283  35.878  27.137   6.226
 4063POPC   C2B54284  35.957  27.141   6.696
 4063POPC   C3B54285  36.139  27.123   7.126
 4063POPC   C4B54286  36.015  27.097   7.603
 4064POPC   NC354287   6.287  10.076   5.523
 4064POPC   PO454288   5.849  10.662   5.465
 4064POPC   GL154289   5.972  10.496   5.886
 4064POPC   GL254290   5.651  10.614   5.965
 4064POPC   C1A54291   5.867  10.413   6.374
 4064POPC   D2A54292   5.611  10.152   6.648
 4064POPC   C3A54293   5.620  10.349   7.049
 4064POPC   C4A54294   5.851  10.540   7.374
 4064POPC   C1B54295   5.957  10.888   6.214
 4064POPC   C2B54296   6.228  10.810   6.564
 4064POPC   C3B54297   6.013  10.643   6.893
 4064POPC   C4B54298   5.663  10.876   7.036
 4065POPC   NC354299  40.163   1.630   5.437
 4065POPC   PO454300  39.971   2.260   5.471
 4065POPC   GL154301  39.789   2.026   5.752
 4065POPC   GL254302  40.131   1.947   5.881
 4065POPC   C1A54303  39.730   2.086   6.158
 4065POPC   D2A54304  39.975   1.984   6.520
 4065POPC   C3A54305  39.816   2.030   6.941
 4065POPC   C4A54306  39.887   2.123   7.375
 4065POPC   C1B54307  40.354   1.784   6.253
 4065POPC   C2B54308  40.394   1.775   6.729
 4065POPC   C3B54309  40.254   1.845   7.152
 4065POPC   C4B54310  40.139   1.721   7.571
 4066POPC   NC354311  34.756   0.688   5.449
 4066POPC   PO454312  34.196   0.221   5.388
 4066POPC   GL154313  34.462   0.356   5.715
 4066POPC   GL254314  34.222   0.529   5.868
 4066POPC   C1A54315  34.754   0.191   6.036
 4066POPC   D2A54316  34.988   0.146   6.401
 4066POPC   C3A54317  34.991   0.143   6.850
 4066POPC   C4A54318  34.859   0.397   7.169
 4066POPC   C1B54319  34.492   0.568   6.237
 4066POPC   C2B54320  34.649   0.499   6.673
 4066POPC   C3B54321  34.371   0.503   7.021
 4066POPC   C4B54322  34.097   0.867   7.071
 4067POPC   NC354323  21.573   8.381   5.374
 4067POPC   PO454324  21.036   7.957   5.350
 4067POPC   GL154325  21.259   8.093   5.672
 4067POPC   GL254326  21.574   7.893   5.649
 4067POPC   C1A54327  21.324   8.346   6.041
 4067POPC   D2A54328  21.521   8.300   6.449
 4067POPC   C3A54329  21.326   8.422   6.845
 4067POPC   C4A54330  21.511   8.201   7.219
 4067POPC   C1B54331  21.461   7.760   6.072
 4067POPC   C2B54332  21.478   7.694   6.528
 4067POPC   C3B54333  21.261   7.905   6.861
 4067POPC   C4B54334  21.160   7.792   7.280
 4068POPC   NC354335  39.208   9.328   5.429
 4068POPC   PO454336  39.009   8.661   5.371
 4068POPC   GL154337  39.142   8.876   5.711
 4068POPC   GL254338  38.889   9.070   5.748
 4068POPC   C1A54339  39.431   8.920   6.044
 4068POPC   D2A54340  39.362   8.808   6.484
 4068POPC   C3A54341  39.510   9.066   6.808
 4068POPC   C4A54342  39.454   8.921   7.215
 4068POPC   C1B54343  38.977   9.063   6.210
 4068POPC   C2B54344  38.957   9.183   6.670
 4068POPC   C3B54345  38.940   8.958   7.089
 4068POPC   C4B54346  39.078   8.991   7.542
 4069POPC   NC354347   0.881  38.017   5.418
 4069POPC   PO454348   0.311  37.769   5.438
 4069POPC   GL154349   0.532  37.887   5.822
 4069POPC   GL254350   0.394  37.554   5.926
 4069POPC   C1A54351   0.708  37.803   6.267
 4069POPC   D2A54352   0.550  37.576   6.648
 4069POPC   C3A54353   0.709  37.656   7.073
 4069POPC   C4A54354   0.764  37.950   7.439
 4069POPC   C1B54355   0.216  37.361   6.302
 4069POPC   C2B54356   0.127  37.282   6.722
 4069POPC   C3B54357   0.162  37.485   7.142
 4069POPC   C4B54358   0.010  37.308   7.550
 4070POPC   NC354359   8.902  37.441   5.467
 4070POPC   PO454360   9.476  37.858   5.272
 4070POPC   GL154361   9.212  37.844   5.682
 4070POPC   GL254362   8.819  37.941   5.699
 4070POPC   C1A54363   9.294  37.679   6.117
 4070POPC   D2A54364   9.045  37.472   6.445
 4070POPC   C3A54365   9.216  37.583   6.835
 4070POPC   C4A54366   9.259  37.503   7.259
 4070POPC   C1B54367   8.817  37.835   6.157
 4070POPC   C2B54368   8.977  37.989   6.578
 4070POPC   C3B54369   8.852  37.898   7.012
 4070POPC   C4B54370   8.594  37.616   7.252
 4071POPC   NC354371   7.100  37.062   5.363
 4071POPC   PO454372   7.759  36.852   5.400
 4071POPC   GL154373   7.519  36.819   5.792
 4071POPC   GL254374   7.250  36.595   5.667
 4071POPC   C1A54375   7.495  36.943   6.261
 4071POPC   D2A54376   7.354  37.015   6.714
 4071POPC   C3A54377   7.250  37.165   7.152
 4071POPC   C4A54378   7.392  37.036   7.595
 4071POPC   C1B54379   7.208  36.535   6.100
 4071POPC   C2B54380   7.147  36.620   6.515
 4071POPC   C3B54381   7.263  36.588   6.961
 4071POPC   C4B54382   7.091  36.689   7.347
 4072POPC   NC354383   7.849  27.977   5.539
 4072POPC   PO454384   7.300  28.385   5.347
 4072POPC   GL154385   7.285  28.464   5.797
 4072POPC   GL254386   7.597  28.312   5.859
 4072POPC   C1A54387   7.283  28.506   6.274
 4072POPC   D2A54388   7.175  28.724   6.672
 4072POPC   C3A54389   7.435  28.808   7.004
 4072POPC   C4A54390   7.594  28.483   7.225
 4072POPC   C1B54391   7.728  28.262   6.285
 4072POPC   C2B54392   7.675  28.383   6.723
 4072POPC   C3B54393   7.952  28.170   7.037
 4072POPC   C4B54394   7.848  28.125   7.509
 4073POPC   NC354395  20.405   6.142   5.282
 4073POPC   PO454396  20.784   5.620   5.271
 4073POPC   GL154397  20.714   5.708   5.700
 4073POPC   GL254398  20.846   5.400   5.813
 4073POPC   C1A54399  20.604   6.027   6.071
 4073POPC   D2A54400  20.648   6.174   6.540
 4073POPC   C3A54401  20.571   6.046   6.981
 4073POPC   C4A54402  20.604   5.885   7.415
 4073POPC   C1B54403  20.797   5.579   6.227
 4073POPC   C2B54404  20.633   5.655   6.629
 4073POPC   C3B54405  20.777   5.569   7.040
 4073POPC   C4B54406  20.651   5.395   7.456
 4074POPC   NC354407  33.282  39.582   5.479
 4074POPC   PO454408  32.953  39.094   5.275
 4074POPC   GL154409  33.083  39.144   5.704
 4074POPC   GL254410  32.832  39.425   5.764
 4074POPC   C1A54411  33.277  38.924   6.085
 4074POPC   D2A54412  33.249  39.137   6.489
 4074POPC   C3A54413  33.187  39.043   6.909
 4074POPC   C4A54414  33.186  39.305   7.251
 4074POPC   C1B54415  32.594  39.360   6.153
 4074POPC   C2B54416  32.726  39.269   6.587
 4074POPC   C3B54417  32.726  39.233   7.030
 4074POPC   C4B54418  32.735  39.525   7.363
 4075POPC   NC354419  16.512  41.916   5.349
 4075POPC   PO454420  16.711  42.567   5.369
 4075POPC   GL154421  16.805  42.434   5.783
 4075POPC   GL254422  16.773  42.065   5.794
 4075POPC   C1A54423  16.660  42.562   6.208
 4075POPC   D2A54424  16.446  42.429   6.586
 4075POPC   C3A54425  16.665  42.271   6.977
 4075POPC   C4A54426  16.859  42.509   7.318
 4075POPC   C1B54427  17.007  42.157   6.179
 4075POPC   C2B54428  16.992  42.366   6.595
 4075POPC   C3B54429  17.175  42.238   7.000
 4075POPC   C4B54430  17.105  42.037   7.422
 4076POPC   NC354431  35.120  37.180   5.468
 4076POPC   PO454432  35.516  36.760   5.051
 4076POPC   GL154433  35.404  36.728   5.548
 4076POPC   GL254434  35.074  36.741   5.745
 4076POPC   C1A54435  35.489  36.792   6.017
 4076POPC   D2A54436  35.466  37.131   6.311
 4076POPC   C3A54437  35.510  37.039   6.759
 4076POPC   C4A54438  35.747  36.968   7.135
 4076POPC   C1B54439  34.999  36.987   6.126
 4076POPC   C2B54440  35.039  36.928   6.561
 4076POPC   C3B54441  35.042  37.129   6.958
 4076POPC   C4B54442  35.246  36.835   7.203
 4077POPC   NC354443  32.944  23.392   5.339
 4077POPC   PO454444  32.967  24.033   5.209
 4077POPC   GL154445  32.833  23.990   5.671
 4077POPC   GL254446  32.803  23.647   5.807
 4077POPC   C1A54447  32.875  24.060   6.151
 4077POPC   D2A54448  32.685  24.142   6.559
 4077POPC   C3A54449  32.799  23.922   6.964
 4077POPC   C4A54450  33.171  23.834   7.202
 4077POPC   C1B54451  33.098  23.574   6.175
 4077POPC   C2B54452  33.049  23.262   6.509
 4077POPC   C3B54453  33.000  23.420   6.919
 4077POPC   C4B54454  32.921  23.324   7.313
 4078POPC   NC354455   0.748  20.983   5.459
 4078POPC   PO454456   0.285  20.379   5.349
 4078POPC   GL154457   0.302  20.415   5.782
 4078POPC   GL254458   0.410  20.754   5.750
 4078POPC   C1A54459   0.585  20.458   6.157
 4078POPC   D2A54460   0.740  20.341   6.570
 4078POPC   C3A54461   0.472  20.385   6.966
 4078POPC   C4A54462   0.536  20.630   7.371
 4078POPC   C1B54463   0.556  20.960   6.126
 4078POPC   C2B54464   0.476  20.804   6.566
 4078POPC   C3B54465   0.480  20.965   6.988
 4078POPC   C4B54466   0.203  21.033   7.339
 4079POPC   NC354467  22.350  39.559   5.441
 4079POPC   PO454468  22.017  40.139   5.604
 4079POPC   GL154469  22.115  39.820   5.858
 4079POPC   GL254470  22.432  39.986   5.931
 4079POPC   C1A54471  22.060  39.924   6.292
 4079POPC   D2A54472  22.254  40.004   6.675
 4079POPC   C3A54473  22.084  39.867   7.062
 4079POPC   C4A54474  22.008  39.623   7.444
 4079POPC   C1B54475  22.503  40.296   6.278
 4079POPC   C2B54476  22.477  40.464   6.720
 4079POPC   C3B54477  22.361  40.283   7.138
 4079POPC   C4B54478  22.418  39.949   7.463
 4080POPC   NC354479  44.919  28.940   5.478
 4080POPC   PO454480  44.479  29.460   5.440
 4080POPC   GL154481  44.690  29.469   5.844
 4080POPC   GL254482  44.865  29.151   5.939
 4080POPC   C1A54483  44.730  29.459   6.320
 4080POPC   D2A54484  44.837  29.242   6.695
 4080POPC   C3A54485  44.539  29.277   7.055
 4080POPC   C4A54486  44.701  29.579   7.341
 4080POPC   C1B54487  44.647  28.953   6.309
 4080POPC   C2B54488  44.552  28.829   6.711
 4080POPC   C3B54489  44.825  28.849   7.040
 4080POPC   C4B54490  44.797  28.659   7.405
 4081POPC   NC354491  26.718  24.957   5.411
 4081POPC   PO454492  26.881  25.667   5.418
 4081POPC   GL154493  26.817  25.482   5.820
 4081POPC   GL254494  26.766  25.120   5.893
 4081POPC   C1A54495  26.515  25.458   6.175
 4081POPC   D2A54496  26.372  25.069   6.373
 4081POPC   C3A54497  26.431  25.036   6.802
 4081POPC   C4A54498  26.746  25.092   7.126
 4081POPC   C1B54499  26.934  25.188   6.332
 4081POPC   C2B54500  27.213  25.363   6.663
 4081POPC   C3B54501  27.290  25.217   7.079
 4081POPC   C4B54502  27.146  24.922   7.388
 4082POPC   NC354503  25.259  14.981   5.396
 4082POPC   PO454504  24.707  15.235   5.373
 4082POPC   GL154505  24.954  15.153   5.803
 4082POPC   GL254506  25.362  15.162   5.857
 4082POPC   C1A54507  25.092  15.215   6.268
 4082POPC   D2A54508  25.351  15.085   6.613
 4082POPC   C3A54509  25.162  15.153   7.028
 4082POPC   C4A54510  25.095  15.195   7.468
 4082POPC   C1B54511  25.680  14.923   6.141
 4082POPC   C2B54512  25.799  14.805   6.590
 4082POPC   C3B54513  25.660  14.964   7.012
 4082POPC   C4B54514  25.458  14.828   7.381
 4083POPC   NC354515  24.944  11.808   5.375
 4083POPC   PO454516  24.292  12.110   5.299
 4083POPC   GL154517  24.542  12.075   5.681
 4083POPC   GL254518  24.209  12.032   5.818
 4083POPC   C1A54519  24.686  12.049   6.149
 4083POPC   D2A54520  24.896  11.997   6.574
 4083POPC   C3A54521  24.731  12.180   6.961
 4083POPC   C4A54522  24.671  12.026   7.386
 4083POPC   C1B54523  24.167  12.098   6.246
 4083POPC   C2B54524  24.356  11.985   6.630
 4083POPC   C3B54525  24.279  11.954   7.038
 4083POPC   C4B54526  24.229  12.277   7.330
 4084POPC   NC354527   3.028  37.284   5.603
 4084POPC   PO454528   2.658  36.706   5.395
 4084POPC   GL154529   2.748  36.909   5.795
 4084POPC   GL254530   2.511  37.107   5.879
 4084POPC   C1A54531   3.009  37.062   6.185
 4084POPC   D2A54532   2.994  36.936   6.596
 4084POPC   C3A54533   2.964  37.107   6.984
 4084POPC   C4A54534   2.895  36.975   7.417
 4084POPC   C1B54535   2.541  36.944   6.309
 4084POPC   C2B54536   2.541  37.165   6.708
 4084POPC   C3B54537   2.478  36.969   7.120
 4084POPC   C4B54538   2.229  37.104   7.471
 4085POPC   NC354539  37.948  19.980   5.425
 4085POPC   PO454540  37.816  19.350   5.401
 4085POPC   GL154541  37.669  19.683   5.745
 4085POPC   GL254542  37.867  19.933   5.948
 4085POPC   C1A54543  37.529  19.606   6.186
 4085POPC   D2A54544  37.625  19.430   6.605
 4085POPC   C3A54545  37.379  19.533   6.955
 4085POPC   C4A54546  37.402  19.831   7.265
 4085POPC   C1B54547  37.889  19.868   6.432
 4085POPC   C2B54548  37.839  19.835   6.895
 4085POPC   C3B54549  37.927  19.895   7.329
 4085POPC   C4B54550  38.025  20.143   7.725
 4086POPC   NC354551   9.411  41.908   5.278
 4086POPC   PO454552   9.214  42.522   5.357
 4086POPC   GL154553   9.063  42.283   5.700
 4086POPC   GL254554   9.227  41.955   5.775
 4086POPC   C1A54555   8.863  42.184   6.085
 4086POPC   D2A54556   8.978  42.146   6.514
 4086POPC   C3A54557   8.710  42.136   6.849
 4086POPC   C4A54558   8.758  42.287   7.254
 4086POPC   C1B54559   9.368  42.226   6.145
 4086POPC   C2B54560   9.434  42.336   6.607
 4086POPC   C3B54561   9.211  42.226   7.005
 4086POPC   C4B54562   9.281  42.320   7.441
 4087POPC   NC354563   6.456  33.982   5.494
 4087POPC   PO454564   6.961  33.611   5.425
 4087POPC   GL154565   6.726  33.695   5.818
 4087POPC   GL254566   6.435  33.552   5.816
 4087POPC   C1A54567   6.593  33.977   6.168
 4087POPC   D2A54568   6.794  33.946   6.558
 4087POPC   C3A54569   6.635  33.937   6.970
 4087POPC   C4A54570   6.910  33.959   7.330
 4087POPC   C1B54571   6.288  33.574   6.214
 4087POPC   C2B54572   6.498  33.526   6.611
 4087POPC   C3B54573   6.291  33.569   7.006
 4087POPC   C4B54574   6.384  33.488   7.433
 4088POPC   NC354575   9.017  15.808   5.617
 4088POPC   PO454576   8.576  16.331   5.429
 4088POPC   GL154577   8.637  16.092   5.836
 4088POPC   GL254578   8.934  15.894   6.088
 4088POPC   C1A54579   8.658  16.271   6.226
 4088POPC   D2A54580   8.722  16.022   6.555
 4088POPC   C3A54581   8.617  16.196   6.911
 4088POPC   C4A54582   8.794  15.919   7.217
 4088POPC   C1B54583   9.184  15.524   6.237
 4088POPC   C2B54584   9.196  15.357   6.662
 4088POPC   C3B54585   9.200  15.650   7.019
 4088POPC   C4B54586   9.290  15.935   7.351
 4089POPC   NC354587  12.472  25.628   5.372
 4089POPC   PO454588  12.995  26.095   5.420
 4089POPC   GL154589  12.754  25.901   5.794
 4089POPC   GL254590  12.467  26.082   5.697
 4089POPC   C1A54591  12.811  25.785   6.272
 4089POPC   D2A54592  13.063  25.733   6.673
 4089POPC   C3A54593  12.971  25.950   7.070
 4089POPC   C4A54594  12.973  26.239   7.442
 4089POPC   C1B54595  12.560  26.213   6.164
 4089POPC   C2B54596  12.528  26.074   6.644
 4089POPC   C3B54597  12.556  26.232   7.109
 4089POPC   C4B54598  12.561  26.551   7.443
 4090POPC   NC354599  12.026   9.576   5.369
 4090POPC   PO454600  12.152  10.285   5.610
 4090POPC   GL154601  12.174   9.876   5.819
 4090POPC   GL254602  11.894   9.680   5.852
 4090POPC   C1A54603  12.247   9.650   6.214
 4090POPC   D2A54604  12.170   9.808   6.622
 4090POPC   C3A54605  12.236   9.597   7.008
 4090POPC   C4A54606  12.236   9.745   7.408
 4090POPC   C1B54607  11.820   9.966   6.196
 4090POPC   C2B54608  11.700  10.029   6.617
 4090POPC   C3B54609  11.867   9.981   7.023
 4090POPC   C4B54610  11.734   9.669   7.288
 4091POPC   NC354611  42.561  40.090   5.370
 4091POPC   PO454612  41.866  39.982   5.489
 4091POPC   GL154613  42.188  40.072   5.791
 4091POPC   GL254614  42.426  40.327   5.806
 4091POPC   C1A54615  42.329  39.998   6.239
 4091POPC   D2A54616  42.393  39.702   6.591
 4091POPC   C3A54617  42.440  39.896   6.982
 4091POPC   C4A54618  42.185  40.019   7.348
 4091POPC   C1B54619  42.121  40.456   6.126
 4091POPC   C2B54620  42.095  40.364   6.574
 4091POPC   C3B54621  42.248  40.406   7.002
 4091POPC   C4B54622  42.624  40.289   7.231
 4092POPC   NC354623  35.500  21.273   5.292
 4092POPC   PO454624  35.219  20.596   5.244
 4092POPC   GL154625  35.349  20.781   5.610
 4092POPC   GL254626  35.087  20.812   5.760
 4092POPC   C1A54627  35.528  20.624   6.038
 4092POPC   D2A54628  35.347  20.621   6.461
 4092POPC   C3A54629  35.458  20.802   6.843
 4092POPC   C4A54630  35.741  20.671   7.139
 4092POPC   C1B54631  35.102  20.934   6.141
 4092POPC   C2B54632  35.222  21.140   6.505
 4092POPC   C3B54633  34.986  21.046   6.846
 4092POPC   C4B54634  34.975  20.815   7.243
 4093POPC   NC354635  32.317   4.127   5.258
 4093POPC   PO454636  32.089   4.691   5.500
 4093POPC   GL154637  32.102   4.379   5.836
 4093POPC   GL254638  32.200   4.025   5.805
 4093POPC   C1A54639  32.064   4.284   6.271
 4093POPC   D2A54640  32.189   4.406   6.653
 4093POPC   C3A54641  32.369   4.193   6.979
 4093POPC   C4A54642  32.192   4.366   7.342
 4093POPC   C1B54643  32.054   3.798   6.165
 4093POPC   C2B54644  32.102   3.903   6.625
 4093POPC   C3B54645  31.940   3.951   7.047
 4093POPC   C4B54646  31.987   3.924   7.492
 4094POPC   NC354647  10.807  22.330   5.297
 4094POPC   PO454648  11.484  22.198   5.313
 4094POPC   GL154649  11.368  22.269   5.779
 4094POPC   GL254650  11.687  22.256   5.944
 4094POPC   C1A54651  11.062  22.133   6.135
 4094POPC   D2A54652  10.835  22.336   6.481
 4094POPC   C3A54653  10.966  22.274   6.903
 4094POPC   C4A54654  10.922  22.134   7.339
 4094POPC   C1B54655  11.526  22.196   6.346
 4094POPC   C2B54656  11.499  22.263   6.772
 4094POPC   C3B54657  11.399  22.181   7.155
 4094POPC   C4B54658  11.526  22.158   7.519
 4095POPC   NC354659  26.016   6.251   5.405
 4095POPC   PO454660  26.578   5.929   5.482
 4095POPC   GL154661  26.832   6.049   5.847
 4095POPC   GL254662  26.620   6.311   5.884
 4095POPC   C1A54663  27.058   5.915   6.232
 4095POPC   D2A54664  26.997   5.974   6.681
 4095POPC   C3A54665  26.634   5.782   6.923
 4095POPC   C4A54666  26.587   5.761   7.380
 4095POPC   C1B54667  26.766   6.328   6.303
 4095POPC   C2B54668  26.585   6.296   6.707
 4095POPC   C3B54669  26.624   6.243   7.144
 4095POPC   C4B54670  26.665   6.221   7.587
 4096POPC   NC354671   2.136   1.701   5.262
 4096POPC   PO454672   1.669   2.251   5.433
 4096POPC   GL154673   1.758   2.094   5.844
 4096POPC   GL254674   1.984   1.863   5.724
 4096POPC   C1A54675   1.868   2.223   6.250
 4096POPC   D2A54676   1.668   2.256   6.646
 4096POPC   C3A54677   1.937   2.083   6.948
 4096POPC   C4A54678   1.775   2.081   7.335
 4096POPC   C1B54679   2.064   1.747   6.145
 4096POPC   C2B54680   1.833   1.747   6.554
 4096POPC   C3B54681   1.767   1.537   6.951
 4096POPC   C4B54682   2.040   1.659   7.254
 4097POPC   NC354683  21.196   5.510   5.462
 4097POPC   PO454684  21.525   6.086   5.524
 4097POPC   GL154685  21.417   5.794   5.828
 4097POPC   GL254686  21.118   5.895   5.897
 4097POPC   C1A54687  21.360   5.576   6.209
 4097POPC   D2A54688  21.506   5.808   6.547
 4097POPC   C3A54689  21.435   5.675   6.981
 4097POPC   C4A54690  21.525   5.902   7.334
 4097POPC   C1B54691  21.075   6.006   6.312
 4097POPC   C2B54692  21.045   5.927   6.751
 4097POPC   C3B54693  21.050   5.986   7.181
 4097POPC   C4B54694  21.089   6.146   7.576
 4098POPC   NC354695  18.223  24.313   5.650
 4098POPC   PO454696  18.726  24.782   5.464
 4098POPC   GL154697  18.636  24.550   5.846
 4098POPC   GL254698  18.688  24.186   5.863
 4098POPC   C1A54699  18.398  24.582   6.242
 4098POPC   D2A54700  18.493  24.769   6.632
 4098POPC   C3A54701  18.254  24.583   6.990
 4098POPC   C4A54702  18.059  24.665   7.398
 4098POPC   C1B54703  18.478  24.079   6.254
 4098POPC   C2B54704  18.550  24.261   6.661
 4098POPC   C3B54705  18.618  24.237   7.080
 4098POPC   C4B54706  18.543  23.828   7.232
 4099POPC   NC354707  37.751   1.349   5.359
 4099POPC   PO454708  37.948   0.704   5.543
 4099POPC   GL154709  37.858   1.081   5.790
 4099POPC   GL254710  37.944   1.464   5.814
 4099POPC   C1A54711  37.531   1.275   6.068
 4099POPC   D2A54712  37.312   1.439   6.435
 4099POPC   C3A54713  37.451   1.264   6.790
 4099POPC   C4A54714  37.581   1.387   7.182
 4099POPC   C1B54715  38.105   1.278   6.183
 4099POPC   C2B54716  37.914   1.011   6.472
 4099POPC   C3B54717  37.909   1.090   6.906
 4099POPC   C4B54718  38.081   1.304   7.258
 4100POPC   NC354719  19.387  28.975   5.362
 4100POPC   PO454720  18.846  28.946   5.312
 4100POPC   GL154721  19.066  28.964   5.777
 4100POPC   GL254722  19.447  28.935   5.887
 4100POPC   C1A54723  19.076  28.943   6.263
 4100POPC   D2A54724  19.090  28.679   6.656
 4100POPC   C3A54725  19.040  28.802   7.102
 4100POPC   C4A54726  19.278  28.676   7.458
 4100POPC   C1B54727  19.579  29.012   6.368
 4100POPC   C2B54728  19.441  29.039   6.826
 4100POPC   C3B54729  19.395  29.151   7.268
 4100POPC   C4B54730  19.606  29.024   7.656
 4101POPC   NC354731  19.605  25.690   5.411
 4101POPC   PO454732  19.832  26.355   5.255
 4101POPC   GL154733  19.944  26.041   5.623
 4101POPC   GL254734  19.716  26.165   5.885
 4101POPC   C1A54735  20.076  25.870   6.070
 4101POPC   D2A54736  19.898  25.848   6.523
 4101POPC   C3A54737  19.896  25.993   6.952
 4101POPC   C4A54738  19.624  26.138   7.269
 4101POPC   C1B54739  19.924  26.320   6.307
 4101POPC   C2B54740  20.092  26.433   6.758
 4101POPC   C3B54741  19.989  26.583   7.215
 4101POPC   C4B54742  19.944  26.345   7.620
 4102POPC   NC354743  19.519  23.626   5.312
 4102POPC   PO454744  20.167  23.714   5.357
 4102POPC   GL154745  19.838  23.729   5.721
 4102POPC   GL254746  19.453  23.670   5.805
 4102POPC   C1A54747  19.761  23.945   6.104
 4102POPC   D2A54748  19.644  23.882   6.529
 4102POPC   C3A54749  19.583  24.155   6.842
 4102POPC   C4A54750  19.903  24.052   7.147
 4102POPC   C1B54751  19.548  23.487   6.217
 4102POPC   C2B54752  19.372  23.464   6.659
 4102POPC   C3B54753  19.291  23.216   7.020
 4102POPC   C4B54754  19.598  23.183   7.396
 4103POPC   NC354755  32.165  38.195   5.531
 4103POPC   PO454756  32.561  38.672   5.449
 4103POPC   GL154757  32.368  38.580   5.821
 4103POPC   GL254758  32.016  38.641   5.751
 4103POPC   C1A54759  32.474  38.462   6.254
 4103POPC   D2A54760  32.380  38.178   6.603
 4103POPC   C3A54761  32.579  38.293   6.995
 4103POPC   C4A54762  32.553  38.445   7.427
 4103POPC   C1B54763  31.949  38.471   6.169
 4103POPC   C2B54764  32.078  38.586   6.587
 4103POPC   C3B54765  32.098  38.483   7.014
 4103POPC   C4B54766  31.826  38.417   7.337
 4104POPC   NC354767   7.758  27.025   5.600
 4104POPC   PO454768   7.224  26.702   5.306
 4104POPC   GL154769   7.205  26.821   5.740
 4104POPC   GL254770   7.077  27.166   5.762
 4104POPC   C1A54771   7.374  26.642   6.147
 4104POPC   D2A54772   7.181  26.536   6.561
 4104POPC   C3A54773   7.400  26.527   6.984
 4104POPC   C4A54774   7.423  26.807   7.380
 4104POPC   C1B54775   7.179  27.122   6.203
 4104POPC   C2B54776   7.527  27.023   6.488
 4104POPC   C3B54777   7.658  26.967   6.916
 4104POPC   C4B54778   7.696  27.231   7.292
 4105POPC   NC354779  20.846  13.734   5.285
 4105POPC   PO454780  20.268  13.466   5.362
 4105POPC   GL154781  20.591  13.524   5.688
 4105POPC   GL254782  20.567  13.270   5.922
 4105POPC   C1A54783  20.737  13.726   6.090
 4105POPC   D2A54784  20.551  13.763   6.503
 4105POPC   C3A54785  20.739  13.719   6.920
 4105POPC   C4A54786  20.833  13.427   7.241
 4105POPC   C1B54787  20.196  13.251   6.165
 4105POPC   C2B54788  20.198  13.432   6.611
 4105POPC   C3B54789  20.341  13.387   7.031
 4105POPC   C4B54790  20.366  13.585   7.434
 4106POPC   NC354791   0.905  11.843   5.491
 4106POPC   PO454792   1.558  11.935   5.426
 4106POPC   GL154793   1.359  12.065   5.809
 4106POPC   GL254794   1.029  12.164   5.924
 4106POPC   C1A54795   1.376  12.142   6.275
 4106POPC   D2A54796   1.039  12.141   6.516
 4106POPC   C3A54797   1.224  11.929   6.835
 4106POPC   C4A54798   1.225  12.103   7.184
 4106POPC   C1B54799   1.081  11.759   6.118
 4106POPC   C2B54800   0.970  11.611   6.502
 4106POPC   C3B54801   0.744  11.829   6.807
 4106POPC   C4B54802   0.900  11.702   7.198
 4107POPC   NC354803  21.200   9.348   5.260
 4107POPC   PO454804  21.246   8.708   5.343
 4107POPC   GL154805  21.285   8.857   5.824
 4107POPC   GL254806  21.505   9.184   5.800
 4107POPC   C1A54807  21.156   8.769   6.313
 4107POPC   D2A54808  21.249   9.080   6.695
 4107POPC   C3A54809  21.082   8.913   7.063
 4107POPC   C4A54810  21.163   8.565   7.315
 4107POPC   C1B54811  21.497   9.123   6.251
 4107POPC   C2B54812  21.658   8.787   6.604
 4107POPC   C3B54813  21.591   8.799   7.081
 4107POPC   C4B54814  21.454   9.234   7.195
 4108POPC   NC354815  21.879  30.833   5.422
 4108POPC   PO454816  21.261  30.503   5.521
 4108POPC   GL154817  21.168  30.746   5.879
 4108POPC   GL254818  21.471  30.907   5.811
 4108POPC   C1A54819  21.044  30.647   6.302
 4108POPC   D2A54820  21.026  30.686   6.752
 4108POPC   C3A54821  21.143  30.307   7.037
 4108POPC   C4A54822  21.335  30.352   7.488
 4108POPC   C1B54823  21.579  30.652   6.189
 4108POPC   C2B54824  21.471  30.494   6.605
 4108POPC   C3B54825  21.567  30.551   7.051
 4108POPC   C4B54826  21.848  30.420   7.396
 4109POPC   NC354827  13.146  13.772   5.497
 4109POPC   PO454828  12.540  13.939   5.393
 4109POPC   GL154829  12.754  13.934   5.807
 4109POPC   GL254830  12.851  13.548   5.867
 4109POPC   C1A54831  12.914  13.883   6.241
 4109POPC   D2A54832  12.757  13.641   6.572
 4109POPC   C3A54833  12.813  13.892   6.924
 4109POPC   C4A54834  13.049  13.934   7.320
 4109POPC   C1B54835  13.179  13.441   6.196
 4109POPC   C2B54836  13.270  13.598   6.621
 4109POPC   C3B54837  13.066  13.481   7.032
 4109POPC   C4B54838  12.739  13.524   7.339
 4110POPC   NC354839  25.991   4.176   5.474
 4110POPC   PO454840  26.563   4.357   5.489
 4110POPC   GL154841  26.247   4.435   5.867
 4110POPC   GL254842  25.890   4.501   5.936
 4110POPC   C1A54843  26.186   4.575   6.332
 4110POPC   D2A54844  26.013   4.843   6.665
 4110POPC   C3A54845  26.151   4.668   7.054
 4110POPC   C4A54846  26.270   4.331   7.361
 4110POPC   C1B54847  25.671   4.568   6.337
 4110POPC   C2B54848  25.787   4.386   6.729
 4110POPC   C3B54849  25.753   4.293   7.170
 4110POPC   C4B54850  25.471   4.347   7.551
 4111POPC   NC354851  31.736  35.652   5.062
 4111POPC   PO454852  32.195  35.204   5.234
 4111POPC   GL154853  32.329  35.158   5.702
 4111POPC   GL254854  32.279  35.475   5.889
 4111POPC   C1A54855  32.393  35.035   6.152
 4111POPC   D2A54856  32.109  34.849   6.440
 4111POPC   C3A54857  32.096  34.999   6.870
 4111POPC   C4A54858  31.875  35.177   7.215
 4111POPC   C1B54859  32.021  35.368   6.263
 4111POPC   C2B54860  32.078  35.519   6.698
 4111POPC   C3B54861  32.263  35.481   7.106
 4111POPC   C4B54862  32.220  35.459   7.566
 4112POPC   NC354863  34.249  15.492   5.081
 4112POPC   PO454864  34.820  15.315   5.429
 4112POPC   GL154865  34.692  15.109   5.829
 4112POPC   GL254866  34.383  14.924   5.798
 4112POPC   C1A54867  34.546  15.241   6.252
 4112POPC   D2A54868  34.332  15.335   6.652
 4112POPC   C3A54869  34.605  15.172   6.983
 4112POPC   C4A54870  34.671  15.419   7.369
 4112POPC   C1B54871  34.453  14.735   6.196
 4112POPC   C2B54872  34.283  14.832   6.594
 4112POPC   C3B54873  34.217  14.838   7.023
 4112POPC   C4B54874  34.378  14.948   7.427
 4113POPC   NC354875   0.148  22.354   5.446
 4113POPC   PO454876   0.646  22.022   5.168
 4113POPC   GL154877   0.555  22.091   5.627
 4113POPC   GL254878   0.581  22.457   5.711
 4113POPC   C1A54879   0.317  22.066   6.058
 4113POPC   D2A54880   0.320  21.879   6.493
 4113POPC   C3A54881   0.311  22.049   6.925
 4113POPC   C4A54882   0.334  21.865   7.368
 4113POPC   C1B54883   0.425  22.569   6.112
 4113POPC   C2B54884   0.378  22.421   6.533
 4113POPC   C3B54885   0.475  22.549   6.954
 4113POPC   C4B54886   0.381  22.393   7.361
 4114POPC   NC354887  39.380   6.620   5.359
 4114POPC   PO454888  38.804   7.034   5.366
 4114POPC   GL154889  39.048   6.703   5.744
 4114POPC   GL254890  39.454   6.665   5.841
 4114POPC   C1A54891  39.167   6.490   6.195
 4114POPC   D2A54892  39.398   6.353   6.596
 4114POPC   C3A54893  39.148   6.572   6.925
 4114POPC   C4A54894  38.962   6.588   7.331
 4114POPC   C1B54895  39.674   6.667   6.212
 4114POPC   C2B54896  39.517   6.855   6.595
 4114POPC   C3B54897  39.596   6.781   7.020
 4114POPC   C4B54898  39.532   6.689   7.476
 4115POPC   NC354899  15.667  21.014   5.411
 4115POPC   PO454900  16.022  21.576   5.329
 4115POPC   GL154901  15.970  21.472   5.781
 4115POPC   GL254902  15.901  21.118   5.883
 4115POPC   C1A54903  15.877  21.594   6.225
 4115POPC   D2A54904  15.902  21.728   6.662
 4115POPC   C3A54905  15.929  21.500   7.071
 4115POPC   C4A54906  15.941  21.633   7.538
 4115POPC   C1B54907  16.178  21.183   6.271
 4115POPC   C2B54908  16.270  21.252   6.716
 4115POPC   C3B54909  16.194  21.037   7.131
 4115POPC   C4B54910  16.148  20.818   7.558
 4116POPC   NC354911   7.545  18.185   5.453
 4116POPC   PO454912   7.318  18.803   5.352
 4116POPC   GL154913   7.277  18.582   5.748
 4116POPC   GL254914   6.979  18.357   5.704
 4116POPC   C1A54915   7.457  18.389   6.145
 4116POPC   D2A54916   7.686  18.211   6.519
 4116POPC   C3A54917   7.551  18.407   6.894
 4116POPC   C4A54918   7.453  18.601   7.284
 4116POPC   C1B54919   6.935  18.491   6.141
 4116POPC   C2B54920   7.149  18.519   6.558
 4116POPC   C3B54921   6.997  18.466   7.005
 4116POPC   C4B54922   7.055  18.346   7.443
 4117POPC   NC354923  12.368  15.484   5.547
 4117POPC   PO454924  12.118  16.095   5.356
 4117POPC   GL154925  12.067  16.161   5.790
 4117POPC   GL254926  12.334  15.979   5.897
 4117POPC   C1A54927  12.068  16.289   6.231
 4117POPC   D2A54928  11.763  16.108   6.500
 4117POPC   C3A54929  11.863  15.897   6.903
 4117POPC   C4A54930  12.203  16.051   7.155
 4117POPC   C1B54931  12.097  15.756   6.250
 4117POPC   C2B54932  12.209  15.560   6.667
 4117POPC   C3B54933  12.473  15.631   7.027
 4117POPC   C4B54934  12.535  15.632   7.490
 4118POPC   NC354935  39.434  31.639   5.398
 4118POPC   PO454936  38.853  31.262   5.460
 4118POPC   GL154937  39.147  31.412   5.794
 4118POPC   GL254938  38.894  31.294   5.997
 4118POPC   C1A54939  39.284  31.491   6.241
 4118POPC   D2A54940  39.481  31.283   6.609
 4118POPC   C3A54941  39.331  31.533   6.976
 4118POPC   C4A54942  39.379  31.620   7.413
 4118POPC   C1B54943  38.776  31.637   6.265
 4118POPC   C2B54944  38.868  31.725   6.661
 4118POPC   C3B54945  38.824  31.444   6.954
 4118POPC   C4B54946  38.907  31.377   7.337
 4119POPC   NC354947  40.084  42.228   5.417
 4119POPC   PO454948  39.547  41.829   5.574
 4119POPC   GL154949  39.831  42.108   5.852
 4119POPC   GL254950  40.226  42.127   5.895
 4119POPC   C1A54951  39.822  42.385   6.215
 4119POPC   D2A54952  39.809  42.240   6.647
 4119POPC   C3A54953  39.652  42.456   7.012
 4119POPC   C4A54954  39.905  42.554   7.381
 4119POPC   C1B54955  40.234  42.063   6.342
 4119POPC   C2B54956  40.297  42.161   6.763
 4119POPC   C3B54957  40.067  42.137   7.131
 4119POPC   C4B54958  40.319  42.132   7.525
 4120POPC   NC354959   9.934  38.069   5.463
 4120POPC   PO454960   9.525  38.661   5.308
 4120POPC   GL154961   9.483  38.556   5.778
 4120POPC   GL254962   9.813  38.375   5.880
 4120POPC   C1A54963   9.509  38.585   6.269
 4120POPC   D2A54964   9.570  38.300   6.654
 4120POPC   C3A54965   9.608  38.457   7.091
 4120POPC   C4A54966   9.854  38.627   7.473
 4120POPC   C1B54967  10.092  38.141   6.185
 4120POPC   C2B54968  10.158  37.917   6.552
 4120POPC   C3B54969   9.968  38.060   6.899
 4120POPC   C4B54970   9.952  38.125   7.304
 4121POPC   NC354971  12.145   8.586   5.451
 4121POPC   PO454972  11.871   7.931   5.435
 4121POPC   GL154973  12.060   8.155   5.783
 4121POPC   GL254974  11.960   8.487   5.903
 4121POPC   C1A54975  12.175   8.149   6.226
 4121POPC   D2A54976  11.979   7.954   6.579
 4121POPC   C3A54977  12.129   8.128   6.955
 4121POPC   C4A54978  11.927   8.259   7.333
 4121POPC   C1B54979  11.772   8.593   6.272
 4121POPC   C2B54980  11.876   8.532   6.679
 4121POPC   C3B54981  11.799   8.685   7.064
 4121POPC   C4B54982  12.091   8.785   7.357
 4122POPC   NC354983  27.651   9.397   5.693
 4122POPC   PO454984  27.570   9.880   5.245
 4122POPC   GL154985  27.470   9.910   5.719
 4122POPC   GL254986  27.127  10.074   5.731
 4122POPC   C1A54987  27.637   9.849   6.203
 4122POPC   D2A54988  27.462   9.787   6.650
 4122POPC   C3A54989  27.619   9.559   7.031
 4122POPC   C4A54990  27.809   9.292   7.386
 4122POPC   C1B54991  27.390  10.295   6.061
 4122POPC   C2B54992  27.443  10.301   6.525
 4122POPC   C3B54993  27.302  10.184   6.965
 4122POPC   C4B54994  27.449   9.921   7.352
 4123POPC   NC354995  25.886  41.946   5.540
 4123POPC   PO454996  26.414  41.526   5.461
 4123POPC   GL154997  26.240  41.606   5.829
 4123POPC   GL254998  25.972  41.362   5.818
 4123POPC   C1A54999  26.113  41.827   6.188
 4123POPC   D2A55000  26.152  41.661   6.585
 4123POPC   C3A55001  26.097  41.834   6.965
 4123POPC   C4A55002  25.768  41.818   7.217
 4123POPC   C1B55003  26.169  41.202   6.189
 4123POPC   C2B55004  26.024  41.050   6.579
 4123POPC   C3B55005  25.944  41.308   6.914
 4123POPC   C4B55006  26.087  41.421   7.294
 4124POPC   NC355007  29.797   6.808   5.368
 4124POPC   PO455008  30.229   6.247   5.447
 4124POPC   GL155009  30.101   6.556   5.786
 4124POPC   GL255010  29.733   6.615   5.823
 4124POPC   C1A55011  30.059   6.728   6.229
 4124POPC   D2A55012  29.862   6.900   6.599
 4124POPC   C3A55013  29.967   6.699   6.971
 4124POPC   C4A55014  30.292   6.829   7.232
 4124POPC   C1B55015  29.613   6.440   6.174
 4124POPC   C2B55016  29.613   6.448   6.584
 4124POPC   C3B55017  29.708   6.245   6.943
 4124POPC   C4B55018  29.848   6.351   7.335
 4125POPC   NC355019  26.313  23.354   5.559
 4125POPC   PO455020  26.820  23.769   5.228
 4125POPC   GL155021  26.726  23.735   5.688
 4125POPC   GL255022  26.787  23.390   5.812
 4125POPC   C1A55023  26.850  23.950   6.087
 4125POPC   D2A55024  26.994  23.818   6.522
 4125POPC   C3A55025  26.916  23.944   6.946
 4125POPC   C4A55026  26.945  23.690   7.306
 4125POPC   C1B55027  26.626  23.509   6.235
 4125POPC   C2B55028  26.492  23.597   6.666
 4125POPC   C3B55029  26.488  23.580   7.114
 4125POPC   C4B55030  26.527  23.584   7.604
 4126POPC   NC355031  29.907  21.812   5.522
 4126POPC   PO455032  29.909  22.449   5.465
 4126POPC   GL155033  30.077  22.224   5.837
 4126POPC   GL255034  30.342  21.972   5.801
 4126POPC   C1A55035  29.995  21.890   6.171
 4126POPC   D2A55036  29.962  21.649   6.532
 4126POPC   C3A55037  29.911  21.972   6.850
 4126POPC   C4A55038  29.672  22.022   7.239
 4126POPC   C1B55039  30.441  22.170   6.191
 4126POPC   C2B55040  30.273  22.294   6.570
 4126POPC   C3B55041  30.397  22.202   6.970
 4126POPC   C4B55042  30.167  22.122   7.307
 4127POPC   NC355043  44.028  39.322   5.420
 4127POPC   PO455044  43.506  38.951   5.403
 4127POPC   GL155045  43.533  39.166   5.782
 4127POPC   GL255046  43.710  39.401   5.808
 4127POPC   C1A55047  43.800  39.102   6.203
 4127POPC   D2A55048  44.076  39.304   6.544
 4127POPC   C3A55049  44.090  39.198   7.007
 4127POPC   C4A55050  43.768  38.970   7.230
 4127POPC   C1B55051  43.615  39.609   6.164
 4127POPC   C2B55052  43.819  39.743   6.519
 4127POPC   C3B55053  43.762  39.569   6.884
 4127POPC   C4B55054  43.723  39.474   7.273
 4128POPC   NC355055  16.953   2.205   5.414
 4128POPC   PO455056  17.493   1.757   5.429
 4128POPC   GL155057  17.333   1.959   5.775
 4128POPC   GL255058  17.627   1.801   5.922
 4128POPC   C1A55059  17.287   1.973   6.244
 4128POPC   D2A55060  17.509   2.040   6.655
 4128POPC   C3A55061  17.283   2.030   7.054
 4128POPC   C4A55062  17.231   2.219   7.453
 4128POPC   C1B55063  17.846   1.993   6.268
 4128POPC   C2B55064  18.037   1.952   6.678
 4128POPC   C3B55065  17.834   1.743   6.985
 4128POPC   C4B55066  17.614   1.666   7.336
 4129POPC   NC355067   1.113  35.407   5.239
 4129POPC   PO455068   1.740  35.299   5.458
 4129POPC   GL155069   1.329  35.319   5.699
 4129POPC   GL255070   0.974  35.148   5.664
 4129POPC   C1A55071   1.152  35.436   6.087
 4129POPC   D2A55072   1.245  35.328   6.500
 4129POPC   C3A55073   1.253  35.575   6.896
 4129POPC   C4A55074   1.275  35.292   7.262
 4129POPC   C1B55075   0.743  35.045   6.074
 4129POPC   C2B55076   0.834  34.955   6.518
 4129POPC   C3B55077   0.957  35.154   6.887
 4129POPC   C4B55078   0.783  35.200   7.287
 4130POPC   NC355079   6.171  12.009   5.528
 4130POPC   PO455080   5.655  12.360   5.586
 4130POPC   GL155081   5.960  12.320   5.877
 4130POPC   GL255082   5.828  11.972   5.939
 4130POPC   C1A55083   6.142  12.241   6.264
 4130POPC   D2A55084   5.890  12.006   6.513
 4130POPC   C3A55085   5.811  12.218   6.878
 4130POPC   C4A55086   6.031  12.293   7.255
 4130POPC   C1B55087   5.511  11.767   6.226
 4130POPC   C2B55088   5.555  11.655   6.665
 4130POPC   C3B55089   5.492  11.870   7.044
 4130POPC   C4B55090   5.730  11.873   7.437
 4131POPC   NC355091   1.038  10.879   5.724
 4131POPC   PO455092   0.621  10.469   5.362
 4131POPC   GL155093   0.458  10.301   5.824
 4131POPC   GL255094   0.099  10.268   5.842
 4131POPC   C1A55095   0.510  10.413   6.290
 4131POPC   D2A55096   0.689  10.637   6.657
 4131POPC   C3A55097   0.553  10.466   7.051
 4131POPC   C4A55098   0.390  10.222   7.391
 4131POPC   C1B55099   0.021  10.531   6.205
 4131POPC   C2B55100   0.140  10.512   6.641
 4131POPC   C3B55101   0.050  10.502   7.052
 4131POPC   C4B55102   0.155  10.705   7.386
 4132POPC   NC355103  17.821  10.088   5.553
 4132POPC   PO455104  18.378  10.546   5.452
 4132POPC   GL155105  18.125  10.459   5.782
 4132POPC   GL255106  17.943  10.772   5.811
 4132POPC   C1A55107  18.275  10.352   6.177
 4132POPC   D2A55108  18.576  10.434   6.476
 4132POPC   C3A55109  18.389  10.445   6.849
 4132POPC   C4A55110  18.354  10.453   7.272
 4132POPC   C1B55111  18.160  10.843   6.180
 4132POPC   C2B55112  18.242  10.960   6.604
 4132POPC   C3B55113  18.256  10.897   7.038
 4132POPC   C4B55114  18.017  10.795   7.456
 4133POPC   NC355115  23.088  22.507   5.190
 4133POPC   PO455116  22.732  23.068   5.468
 4133POPC   GL155117  22.923  22.925   5.847
 4133POPC   GL255118  22.882  23.249   5.973
 4133POPC   C1A55119  23.084  22.815   6.276
 4133POPC   D2A55120  23.045  22.536   6.643
 4133POPC   C3A55121  23.075  22.708   7.057
 4133POPC   C4A55122  22.649  22.727   7.287
 4133POPC   C1B55123  22.644  23.083   6.313
 4133POPC   C2B55124  22.786  22.988   6.731
 4133POPC   C3B55125  22.840  23.180   7.154
 4133POPC   C4B55126  23.096  23.370   7.458
 4134POPC   NC355127   6.317  37.834   5.251
 4134POPC   PO455128   6.945  37.483   5.309
 4134POPC   GL155129   6.906  37.520   5.793
 4134POPC   GL255130   6.776  37.871   5.848
 4134POPC   C1A55131   6.863  37.459   6.254
 4134POPC   D2A55132   6.967  37.326   6.683
 4134POPC   C3A55133   6.769  37.407   7.100
 4134POPC   C4A55134   6.780  37.738   7.414
 4134POPC   C1B55135   6.609  37.902   6.289
 4134POPC   C2B55136   6.650  37.751   6.723
 4134POPC   C3B55137   6.368  37.715   7.057
 4134POPC   C4B55138   6.071  38.046   7.057
 4135POPC   NC355139   6.886  35.563   5.478
 4135POPC   PO455140   6.230  35.223   5.361
 4135POPC   GL155141   6.481  35.123   5.754
 4135POPC   GL255142   6.850  35.171   5.813
 4135POPC   C1A55143   6.533  35.247   6.209
 4135POPC   D2A55144   6.818  35.261   6.575
 4135POPC   C3A55145   6.571  35.197   6.952
 4135POPC   C4A55146   6.597  35.521   7.249
 4135POPC   C1B55147   6.977  35.520   6.124
 4135POPC   C2B55148   7.100  35.699   6.536
 4135POPC   C3B55149   7.024  35.620   6.949
 4135POPC   C4B55150   7.039  35.232   7.154
 4136POPC   NC355151  18.252  34.309   5.396
 4136POPC   PO455152  18.635  33.940   5.692
 4136POPC   GL155153  18.518  34.310   5.932
 4136POPC   GL255154  18.313  34.573   5.850
 4136POPC   C1A55155  18.390  34.492   6.345
 4136POPC   D2A55156  18.120  34.346   6.677
 4136POPC   C3A55157  18.362  34.390   7.053
 4136POPC   C4A55158  18.535  34.815   7.137
 4136POPC   C1B55159  18.020  34.790   6.165
 4136POPC   C2B55160  18.177  34.914   6.589
 4136POPC   C3B55161  18.032  34.822   6.996
 4136POPC   C4B55162  18.089  34.640   7.388
 4137POPC   NC355163  27.802  43.873   5.461
 4137POPC   PO455164  27.094  43.785   5.316
 4137POPC   GL155165  27.370  43.931   5.744
 4137POPC   GL255166  27.610  43.640   5.860
 4137POPC   C1A55167  27.618  44.034   6.184
 4137POPC   D2A55168  27.941  43.953   6.544
 4137POPC   C3A55169  27.817  43.918   6.976
 4137POPC   C4A55170  27.375  43.993   7.102
 4137POPC   C1B55171  27.757  43.534   6.281
 4137POPC   C2B55172  27.563  43.591   6.690
 4137POPC   C3B55173  27.532  43.500   7.143
 4137POPC   C4B55174  27.682  43.403   7.577
 4138POPC   NC355175   4.283  42.381   5.295
 4138POPC   PO455176   4.577  41.797   5.423
 4138POPC   GL155177   4.592  42.198   5.688
 4138POPC   GL255178   4.285  42.395   5.812
 4138POPC   C1A55179   4.648  42.251   6.160
 4138POPC   D2A55180   4.401  42.173   6.560
 4138POPC   C3A55181   4.556  42.238   7.019
 4138POPC   C4A55182   4.546  42.636   7.303
 4138POPC   C1B55183   3.978  42.196   6.098
 4138POPC   C2B55184   3.877  41.960   6.493
 4138POPC   C3B55185   4.059  42.004   6.910
 4138POPC   C4B55186   4.078  42.329   7.232
 4139POPC   NC355187   4.210   0.744   5.333
 4139POPC   PO455188   4.362   0.134   5.254
 4139POPC   GL155189   4.275   0.459   5.729
 4139POPC   GL255190   4.001   0.706   5.801
 4139POPC   C1A55191   4.091   0.392   6.176
 4139POPC   D2A55192   4.170   0.557   6.563
 4139POPC   C3A55193   4.321   0.291   6.903
 4139POPC   C4A55194   4.644   0.355   7.178
 4139POPC   C1B55195   4.042   0.950   6.206
 4139POPC   C2B55196   3.884   0.964   6.641
 4139POPC   C3B55197   3.955   0.666   7.001
 4139POPC   C4B55198   4.251   0.634   7.345
 4140POPC   NC355199  39.873   0.661   5.336
 4140POPC   PO455200  40.130   1.202   5.302
 4140POPC   GL155201  39.900   1.255   5.730
 4140POPC   GL255202  39.614   1.504   5.722
 4140POPC   C1A55203  39.807   1.081   6.177
 4140POPC   D2A55204  39.976   1.098   6.593
 4140POPC   C3A55205  39.817   1.011   7.008
 4140POPC   C4A55206  40.078   1.245   7.326
 4140POPC   C1B55207  39.833   1.596   6.109
 4140POPC   C2B55208  39.736   1.523   6.517
 4140POPC   C3B55209  39.926   1.521   6.905
 4140POPC   C4B55210  39.714   1.622   7.280
 4141POPC   NC355211  42.985  41.590   5.414
 4141POPC   PO455212  43.607  41.774   5.421
 4141POPC   GL155213  43.313  41.701   5.792
 4141POPC   GL255214  43.009  41.496   5.918
 4141POPC   C1A55215  43.419  41.615   6.226
 4141POPC   D2A55216  43.489  41.678   6.664
 4141POPC   C3A55217  43.104  41.563   6.893
 4141POPC   C4A55218  43.023  41.558   7.325
 4141POPC   C1B55219  42.819  41.137   6.200
 4141POPC   C2B55220  42.801  41.059   6.647
 4141POPC   C3B55221  42.771  41.190   7.080
 4141POPC   C4B55222  42.701  41.232   7.569
 4142POPC   NC355223  21.576  36.538   5.372
 4142POPC   PO455224  21.303  37.172   5.304
 4142POPC   GL155225  21.352  36.902   5.642
 4142POPC   GL255226  21.725  36.971   5.632
 4142POPC   C1A55227  21.254  36.815   6.065
 4142POPC   D2A55228  21.337  37.035   6.459
 4142POPC   C3A55229  21.239  36.871   6.885
 4142POPC   C4A55230  21.542  36.722   7.230
 4142POPC   C1B55231  21.747  36.745   6.021
 4142POPC   C2B55232  21.746  36.707   6.482
 4142POPC   C3B55233  21.758  36.953   6.844
 4142POPC   C4B55234  21.922  37.065   7.266
 4143POPC   NC355235  34.295  44.134   5.539
 4143POPC   PO455236  34.755  43.648   5.473
 4143POPC   GL155237  34.524  43.749   5.808
 4143POPC   GL255238  34.668  44.054   5.923
 4143POPC   C1A55239  34.403  43.703   6.227
 4143POPC   D2A55240  34.226  43.598   6.614
 4143POPC   C3A55241  34.403  43.738   7.005
 4143POPC   C4A55242  34.729  43.990   7.177
 4143POPC   C1B55243  34.401  44.239   6.272
 4143POPC   C2B55244  34.217  44.209   6.713
 4143POPC   C3B55245  34.287  44.235   7.160
 4143POPC   C4B55246  34.178  44.308   7.623
 4144POPC   NC355247  36.871  30.956   5.286
 4144POPC   PO455248  37.236  31.492   5.514
 4144POPC   GL155249  36.983  31.533   5.880
 4144POPC   GL255250  36.707  31.323   5.778
 4144POPC   C1A55251  36.987  31.594   6.333
 4144POPC   D2A55252  37.235  31.444   6.665
 4144POPC   C3A55253  37.070  31.579   7.026
 4144POPC   C4A55254  37.026  31.686   7.448
 4144POPC   C1B55255  36.564  31.296   6.207
 4144POPC   C2B55256  36.464  31.430   6.624
 4144POPC   C3B55257  36.615  31.335   7.025
 4144POPC   C4B55258  36.394  31.112   7.309
 4145POPC   NC355259  30.266   3.763   5.445
 4145POPC   PO455260  30.831   4.207   5.344
 4145POPC   GL155261  30.818   4.397   5.764
 4145POPC   GL255262  31.139   4.408   5.937
 4145POPC   C1A55263  30.689   4.420   6.199
 4145POPC   D2A55264  30.902   4.457   6.587
 4145POPC   C3A55265  30.663   4.517   6.958
 4145POPC   C4A55266  30.870   4.546   7.307
 4145POPC   C1B55267  31.079   4.078   6.259
 4145POPC   C2B55268  31.106   3.892   6.651
 4145POPC   C3B55269  30.964   4.130   7.004
 4145POPC   C4B55270  31.103   4.108   7.434
 4146POPC   NC355271  30.966  36.398   5.725
 4146POPC   PO455272  31.014  35.822   5.327
 4146POPC   GL155273  30.747  35.904   5.692
 4146POPC   GL255274  31.026  35.872   5.914
 4146POPC   C1A55275  30.531  35.940   6.146
 4146POPC   D2A55276  30.235  36.037   6.547
 4146POPC   C3A55277  30.463  36.195   6.957
 4146POPC   C4A55278  30.921  36.291   7.057
 4146POPC   C1B55279  31.090  35.739   6.351
 4146POPC   C2B55280  30.848  35.828   6.738
 4146POPC   C3B55281  30.884  35.732   7.152
 4146POPC   C4B55282  31.255  35.779   7.374
 4147POPC   NC355283  11.738  32.428   5.529
 4147POPC   PO455284  12.296  32.028   5.624
 4147POPC   GL155285  11.991  32.172   5.932
 4147POPC   GL255286  12.042  32.527   5.921
 4147POPC   C1A55287  11.989  32.325   6.383
 4147POPC   D2A55288  12.321  32.557   6.618
 4147POPC   C3A55289  12.263  32.376   6.974
 4147POPC   C4A55290  12.016  32.106   7.263
 4147POPC   C1B55291  11.636  32.614   6.163
 4147POPC   C2B55292  11.488  32.448   6.548
 4147POPC   C3B55293  11.743  32.348   6.891
 4147POPC   C4B55294  11.896  32.603   7.243
 4148POPC   NC355295  43.013   5.687   5.116
 4148POPC   PO455296  43.348   6.129   5.456
 4148POPC   GL155297  43.147   5.920   5.821
 4148POPC   GL255298  43.000   5.580   5.814
 4148POPC   C1A55299  42.996   6.036   6.236
 4148POPC   D2A55300  42.840   5.922   6.656
 4148POPC   C3A55301  43.108   6.050   7.001
 4148POPC   C4A55302  43.238   6.216   7.408
 4148POPC   C1B55303  42.826   5.541   6.253
 4148POPC   C2B55304  42.802   5.397   6.703
 4148POPC   C3B55305  42.827   5.613   7.106
 4148POPC   C4B55306  43.101   5.713   7.495
 4149POPC   NC355307  13.710   0.766   5.602
 4149POPC   PO455308  13.819   0.130   5.509
 4149POPC   GL155309  13.665   0.333   5.857
 4149POPC   GL255310  14.001   0.479   5.919
 4149POPC   C1A55311  13.492   0.434   6.262
 4149POPC   D2A55312  13.426   0.119   6.582
 4149POPC   C3A55313  13.342   0.330   6.964
 4149POPC   C4A55314  13.464   0.651   7.251
 4149POPC   C1B55315  13.937   0.168   6.254
 4149POPC   C2B55316  13.915   0.219   6.687
 4149POPC   C3B55317  13.982   0.356   7.075
 4149POPC   C4B55318  14.137   0.138   7.408
 4150POPC   NC355319  28.310  12.145   5.150
 4150POPC   PO455320  28.656  11.820   5.668
 4150POPC   GL155321  28.595  12.060   5.993
 4150POPC   GL255322  28.251  12.061   5.957
 4150POPC   C1A55323  28.630  12.025   6.411
 4150POPC   D2A55324  28.310  11.986   6.719
 4150POPC   C3A55325  28.435  11.931   7.130
 4150POPC   C4A55326  28.779  12.045   7.402
 4150POPC   C1B55327  27.988  12.131   6.306
 4150POPC   C2B55328  27.982  12.377   6.685
 4150POPC   C3B55329  28.071  12.322   7.127
 4150POPC   C4B55330  28.348  12.304   7.487
 4151POPC   NC355331  13.641  37.023   5.412
 4151POPC   PO455332  13.148  36.587   5.496
 4151POPC   GL155333  13.492  36.748   5.816
 4151POPC   GL255334  13.711  36.454   5.823
 4151POPC   C1A55335  13.547  36.957   6.254
 4151POPC   D2A55336  13.485  36.696   6.660
 4151POPC   C3A55337  13.483  36.815   7.109
 4151POPC   C4A55338  13.658  36.693   7.526
 4151POPC   C1B55339  13.789  36.509   6.258
 4151POPC   C2B55340  13.968  36.841   6.536
 4151POPC   C3B55341  13.800  37.136   6.837
 4151POPC   C4B55342  13.855  37.110   7.304
 4152POPC   NC355343  43.765   3.067   5.457
 4152POPC   PO455344  44.100   2.460   5.382
 4152POPC   GL155345  43.909   2.682   5.786
 4152POPC   GL255346  43.983   3.061   5.901
 4152POPC   C1A55347  44.024   2.676   6.238
 4152POPC   D2A55348  44.289   2.561   6.591
 4152POPC   C3A55349  44.106   2.579   7.014
 4152POPC   C4A55350  44.023   2.634   7.456
 4152POPC   C1B55351  44.029   3.171   6.346
 4152POPC   C2B55352  43.896   2.962   6.706
 4152POPC   C3B55353  43.869   3.021   7.141
 4152POPC   C4B55354  43.893   3.115   7.566
 4153POPC   NC355355  20.274   3.038   5.662
 4153POPC   PO455356  20.590   2.448   5.402
 4153POPC   GL155357  20.491   2.593   5.772
 4153POPC   GL255358  20.204   2.412   5.807
 4153POPC   C1A55359  20.624   2.755   6.160
 4153POPC   D2A55360  20.681   3.010   6.492
 4153POPC   C3A55361  20.803   2.822   6.836
 4153POPC   C4A55362  20.693   2.790   7.232
 4153POPC   C1B55363  20.133   2.576   6.169
 4153POPC   C2B55364  20.206   2.887   6.440
 4153POPC   C3B55365  20.271   2.894   6.869
 4153POPC   C4B55366  20.144   2.808   7.260
 4154POPC   NC355367  41.462   7.482   5.268
 4154POPC   PO455368  42.057   7.518   5.558
 4154POPC   GL155369  41.691   7.313   5.742
 4154POPC   GL255370  41.356   7.397   5.790
 4154POPC   C1A55371  41.689   7.159   6.169
 4154POPC   D2A55372  41.889   7.396   6.511
 4154POPC   C3A55373  41.973   7.141   6.865
 4154POPC   C4A55374  41.775   7.162   7.255
 4154POPC   C1B55375  41.174   7.135   6.153
 4154POPC   C2B55376  41.324   6.981   6.580
 4154POPC   C3B55377  41.335   7.092   7.023
 4154POPC   C4B55378  41.406   6.869   7.439
 4155POPC   NC355379  35.551  19.334   5.065
 4155POPC   PO455380  35.288  18.801   5.380
 4155POPC   GL155381  35.458  19.039   5.716
 4155POPC   GL255382  35.339  19.395   5.702
 4155POPC   C1A55383  35.634  18.931   6.118
 4155POPC   D2A55384  35.496  18.706   6.493
 4155POPC   C3A55385  35.501  18.876   6.888
 4155POPC   C4A55386  35.359  18.731   7.286
 4155POPC   C1B55387  35.238  19.283   6.140
 4155POPC   C2B55388  35.146  19.103   6.535
 4155POPC   C3B55389  35.261  19.339   6.893
 4155POPC   C4B55390  35.463  19.249   7.265
 4156POPC   NC355391   8.787  10.878   5.341
 4156POPC   PO455392   8.875  11.554   5.239
 4156POPC   GL155393   8.935  11.386   5.652
 4156POPC   GL255394   9.169  11.098   5.696
 4156POPC   C1A55395   8.810  11.447   6.086
 4156POPC   D2A55396   8.722  11.197   6.447
 4156POPC   C3A55397   8.926  11.310   6.799
 4156POPC   C4A55398   8.857  11.389   7.253
 4156POPC   C1B55399   9.085  10.994   6.153
 4156POPC   C2B55400   9.205  10.912   6.626
 4156POPC   C3B55401   9.191  10.998   7.109
 4156POPC   C4B55402   9.192  11.142   7.568
 4157POPC   NC355403  22.250  42.916   5.304
 4157POPC   PO455404  22.118  43.496   5.516
 4157POPC   GL155405  22.188  43.152   5.775
 4157POPC   GL255406  21.873  43.016   5.675
 4157POPC   C1A55407  22.322  43.014   6.185
 4157POPC   D2A55408  22.614  42.981   6.546
 4157POPC   C3A55409  22.488  43.076   6.984
 4157POPC   C4A55410  22.193  43.272   7.296
 4157POPC   C1B55411  21.809  42.841   6.066
 4157POPC   C2B55412  21.794  42.898   6.495
 4157POPC   C3B55413  21.954  43.112   6.854
 4157POPC   C4B55414  21.901  42.878   7.217
 4158POPC   NC355415  43.946  30.056   5.320
 4158POPC   PO455416  43.494  30.633   5.522
 4158POPC   GL155417  43.697  30.213   5.758
 4158POPC   GL255418  44.074  30.138   5.802
 4158POPC   C1A55419  43.801  30.007   6.200
 4158POPC   D2A55420  43.616  30.074   6.605
 4158POPC   C3A55421  43.803  29.940   7.006
 4158POPC   C4A55422  43.917  30.114   7.430
 4158POPC   C1B55423  44.255  29.792   6.027
 4158POPC   C2B55424  44.378  29.803   6.454
 4158POPC   C3B55425  44.467  29.755   6.883
 4158POPC   C4B55426  44.219  29.738   7.265
 4159POPC   NC355427  33.280   3.858   5.260
 4159POPC   PO455428  33.963   3.666   5.280
 4159POPC   GL155429  33.770   3.449   5.681
 4159POPC   GL255430  34.082   3.438   5.849
 4159POPC   C1A55431  33.485   3.408   6.052
 4159POPC   D2A55432  33.493   3.625   6.445
 4159POPC   C3A55433  33.477   3.520   6.888
 4159POPC   C4A55434  33.600   3.788   7.250
 4159POPC   C1B55435  33.958   3.545   6.246
 4159POPC   C2B55436  33.892   3.316   6.624
 4159POPC   C3B55437  33.969   3.439   7.053
 4159POPC   C4B55438  34.205   3.674   7.340
 4160POPC   NC355439  32.510  39.120   5.371
 4160POPC   PO455440  31.886  39.239   5.409
 4160POPC   GL155441  31.954  39.471   5.769
 4160POPC   GL255442  32.238  39.245   5.798
 4160POPC   C1A55443  31.964  39.412   6.221
 4160POPC   D2A55444  32.005  39.635   6.606
 4160POPC   C3A55445  32.122  39.384   6.899
 4160POPC   C4A55446  32.276  39.375   7.246
 4160POPC   C1B55447  32.237  38.958   6.121
 4160POPC   C2B55448  32.270  39.061   6.524
 4160POPC   C3B55449  32.336  38.918   6.928
 4160POPC   C4B55450  32.434  38.925   7.346
 4161POPC   NC355451   1.859  15.975   5.457
 4161POPC   PO455452   2.348  15.524   5.386
 4161POPC   GL155453   2.331  15.853   5.675
 4161POPC   GL255454   2.044  15.755   5.874
 4161POPC   C1A55455   2.343  16.196   5.989
 4161POPC   D2A55456   2.121  16.256   6.377
 4161POPC   C3A55457   2.164  16.067   6.819
 4161POPC   C4A55458   2.133  16.133   7.291
 4161POPC   C1B55459   2.330  15.724   6.188
 4161POPC   C2B55460   2.361  15.598   6.599
 4161POPC   C3B55461   2.116  15.429   6.908
 4161POPC   C4B55462   2.057  15.632   7.296
 4162POPC   NC355463  23.427  21.134   5.231
 4162POPC   PO455464  23.602  21.729   5.532
 4162POPC   GL155465  23.296  21.735   5.904
 4162POPC   GL255466  23.210  21.367   5.910
 4162POPC   C1A55467  23.017  21.699   6.303
 4162POPC   D2A55468  22.945  21.493   6.751
 4162POPC   C3A55469  22.852  21.770   7.140
 4162POPC   C4A55470  22.578  21.665   7.523
 4162POPC   C1B55471  23.068  21.187   6.318
 4162POPC   C2B55472  23.209  21.019   6.712
 4162POPC   C3B55473  23.039  21.093   7.107
 4162POPC   C4B55474  22.636  21.299   7.170
 4163POPC   NC355475  44.271  40.812   5.533
 4163POPC   PO455476  43.649  41.004   5.408
 4163POPC   GL155477  43.637  40.803   5.788
 4163POPC   GL255478  43.932  40.906   5.896
 4163POPC   C1A55479  43.583  40.673   6.221
 4163POPC   D2A55480  43.676  40.817   6.621
 4163POPC   C3A55481  43.830  40.594   6.961
 4163POPC   C4A55482  43.689  40.941   7.213
 4163POPC   C1B55483  44.083  40.587   6.161
 4163POPC   C2B55484  44.193  40.686   6.555
 4163POPC   C3B55485  44.158  40.973   6.878
 4163POPC   C4B55486  44.197  40.854   7.272
 4164POPC   NC355487   2.381  43.318   5.053
 4164POPC   PO455488   1.738  43.318   5.338
 4164POPC   GL155489   1.885  43.258   5.759
 4164POPC   GL255490   2.252  43.211   5.674
 4164POPC   C1A55491   2.020  42.999   6.121
 4164POPC   D2A55492   2.169  42.919   6.540
 4164POPC   C3A55493   1.846  43.032   6.828
 4164POPC   C4A55494   1.703  42.865   7.210
 4164POPC   C1B55495   2.260  43.483   6.063
 4164POPC   C2B55496   2.089  43.427   6.465
 4164POPC   C3B55497   2.027  43.501   6.880
 4164POPC   C4B55498   2.141  43.190   7.229
 4165POPC   NC355499   9.359  14.956   5.409
 4165POPC   PO455500  10.042  15.229   5.464
 4165POPC   GL155501   9.725  15.141   5.719
 4165POPC   GL255502   9.506  15.384   5.831
 4165POPC   C1A55503   9.749  14.934   6.104
 4165POPC   D2A55504   9.934  15.048   6.499
 4165POPC   C3A55505   9.645  15.009   6.831
 4165POPC   C4A55506   9.747  15.017   7.242
 4165POPC   C1B55507   9.704  15.455   6.218
 4165POPC   C2B55508   9.641  15.607   6.614
 4165POPC   C3B55509   9.767  15.499   7.004
 4165POPC   C4B55510   9.588  15.482   7.369
 4166POPC   NC355511   5.255  22.340   5.251
 4166POPC   PO455512   4.941  21.864   5.540
 4166POPC   GL155513   5.110  22.186   5.821
 4166POPC   GL255514   5.358  22.479   5.761
 4166POPC   C1A55515   4.951  22.235   6.243
 4166POPC   D2A55516   4.856  21.986   6.588
 4166POPC   C3A55517   4.726  22.180   6.949
 4166POPC   C4A55518   4.901  22.188   7.337
 4166POPC   C1B55519   5.443  22.320   6.195
 4166POPC   C2B55520   5.315  22.247   6.637
 4166POPC   C3B55521   5.331  22.418   7.074
 4166POPC   C4B55522   5.256  22.463   7.539
 4167POPC   NC355523  21.214   7.531   5.453
 4167POPC   PO455524  21.929   7.526   5.477
 4167POPC   GL155525  21.808   7.408   5.878
 4167POPC   GL255526  21.484   7.234   5.808
 4167POPC   C1A55527  21.713   7.266   6.313
 4167POPC   D2A55528  21.643   7.164   6.749
 4167POPC   C3A55529  21.430   7.440   7.026
 4167POPC   C4A55530  21.346   7.360   7.480
 4167POPC   C1B55531  21.213   7.256   6.183
 4167POPC   C2B55532  21.129   7.271   6.657
 4167POPC   C3B55533  21.005   7.153   7.119
 4167POPC   C4B55534  20.894   7.160   7.595
 4168POPC   NC355535  29.410  14.645   5.364
 4168POPC   PO455536  29.207  14.008   5.503
 4168POPC   GL155537  29.349  14.320   5.756
 4168POPC   GL255538  29.148  14.574   5.808
 4168POPC   C1A55539  29.402  14.327   6.192
 4168POPC   D2A55540  29.182  14.326   6.586
 4168POPC   C3A55541  29.435  14.166   6.900
 4168POPC   C4A55542  29.398  14.295   7.299
 4168POPC   C1B55543  28.891  14.536   6.210
 4168POPC   C2B55544  28.745  14.616   6.650
 4168POPC   C3B55545  28.941  14.455   7.050
 4168POPC   C4B55546  28.891  14.196   7.423
 4169POPC   NC355547  37.910  41.083   5.242
 4169POPC   PO455548  37.462  40.677   5.375
 4169POPC   GL155549  37.607  40.669   5.799
 4169POPC   GL255550  37.764  40.997   5.761
 4169POPC   C1A55551  37.717  40.773   6.245
 4169POPC   D2A55552  38.024  40.705   6.599
 4169POPC   C3A55553  37.797  40.823   6.984
 4169POPC   C4A55554  37.780  40.733   7.451
 4169POPC   C1B55555  37.367  41.101   6.006
 4169POPC   C2B55556  37.266  41.028   6.427
 4169POPC   C3B55557  37.411  41.144   6.838
 4169POPC   C4B55558  37.426  41.049   7.262
 4170POPC   NC355559   4.793   1.523   5.347
 4170POPC   PO455560   5.365   1.217   5.542
 4170POPC   GL155561   5.098   1.147   5.877
 4170POPC   GL255562   4.824   1.353   5.833
 4170POPC   C1A55563   4.935   0.995   6.264
 4170POPC   D2A55564   4.892   1.192   6.658
 4170POPC   C3A55565   5.190   1.029   6.979
 4170POPC   C4A55566   5.254   1.206   7.378
 4170POPC   C1B55567   4.842   1.589   6.229
 4170POPC   C2B55568   4.971   1.712   6.655
 4170POPC   C3B55569   4.994   1.545   7.070
 4170POPC   C4B55570   4.833   1.463   7.480
 4171POPC   NC355571  35.952  42.692   5.629
 4171POPC   PO455572  36.499  43.034   5.455
 4171POPC   GL155573  36.286  43.234   5.856
 4171POPC   GL255574  35.938  43.163   5.867
 4171POPC   C1A55575  36.183  43.174   6.346
 4171POPC   D2A55576  35.966  42.974   6.740
 4171POPC   C3A55577  36.222  43.003   7.126
 4171POPC   C4A55578  36.650  43.170   7.039
 4171POPC   C1B55579  35.878  43.519   6.136
 4171POPC   C2B55580  35.770  43.440   6.582
 4171POPC   C3B55581  35.924  43.412   7.011
 4171POPC   C4B55582  35.883  43.284   7.455
 4172POPC   NC355583  30.172  17.823   5.475
 4172POPC   PO455584  29.811  17.303   5.465
 4172POPC   GL155585  30.034  17.459   5.838
 4172POPC   GL255586  29.869  17.801   5.902
 4172POPC   C1A55587  29.906  17.431   6.294
 4172POPC   D2A55588  29.554  17.430   6.609
 4172POPC   C3A55589  29.691  17.377   7.032
 4172POPC   C4A55590  30.105  17.215   7.139
 4172POPC   C1B55591  30.188  17.871   6.216
 4172POPC   C2B55592  30.264  17.697   6.643
 4172POPC   C3B55593  30.059  17.752   7.061
 4172POPC   C4B55594  30.127  18.029   7.439
 4173POPC   NC355595  19.522   1.890   5.339
 4173POPC   PO455596  19.988   2.459   5.352
 4173POPC   GL155597  19.862   2.073   5.659
 4173POPC   GL255598  20.126   1.880   5.811
 4173POPC   C1A55599  19.672   1.861   6.036
 4173POPC   D2A55600  19.567   1.913   6.463
 4173POPC   C3A55601  19.674   1.737   6.850
 4173POPC   C4A55602  19.739   2.007   7.187
 4173POPC   C1B55603  20.107   2.008   6.249
 4173POPC   C2B55604  20.035   2.051   6.674
 4173POPC   C3B55605  20.223   1.899   7.056
 4173POPC   C4B55606  20.191   1.822   7.509
 4174POPC   NC355607  42.660   2.151   5.050
 4174POPC   PO455608  43.263   2.011   5.366
 4174POPC   GL155609  43.125   1.862   5.762
 4174POPC   GL255610  42.829   2.040   5.840
 4174POPC   C1A55611  43.194   1.988   6.203
 4174POPC   D2A55612  43.231   2.332   6.493
 4174POPC   C3A55613  43.121   2.253   6.914
 4174POPC   C4A55614  43.226   1.972   7.226
 4174POPC   C1B55615  42.783   2.302   6.169
 4174POPC   C2B55616  42.722   2.219   6.565
 4174POPC   C3B55617  42.597   2.286   6.934
 4174POPC   C4B55618  42.728   2.188   7.350
 4175POPC   NC355619  19.370  22.658   5.111
 4175POPC   PO455620  19.016  23.226   5.371
 4175POPC   GL155621  18.865  23.160   5.846
 4175POPC   GL255622  18.678  23.469   5.931
 4175POPC   C1A55623  18.864  22.893   6.278
 4175POPC   D2A55624  19.076  22.794   6.711
 4175POPC   C3A55625  18.853  22.889   7.110
 4175POPC   C4A55626  18.842  22.718   7.516
 4175POPC   C1B55627  18.557  23.310   6.350
 4175POPC   C2B55628  18.774  23.222   6.724
 4175POPC   C3B55629  18.770  23.377   7.151
 4175POPC   C4B55630  18.603  23.185   7.534
 4176POPC   NC355631  31.905  29.874   5.479
 4176POPC   PO455632  31.234  30.012   5.327
 4176POPC   GL155633  31.405  29.827   5.703
 4176POPC   GL255634  31.588  30.091   5.877
 4176POPC   C1A55635  31.236  29.621   6.088
 4176POPC   D2A55636  31.092  29.498   6.512
 4176POPC   C3A55637  31.215  29.785   6.855
 4176POPC   C4A55638  31.654  29.868   7.009
 4176POPC   C1B55639  31.358  30.383   6.138
 4176POPC   C2B55640  31.392  30.159   6.514
 4176POPC   C3B55641  31.362  30.276   6.918
 4176POPC   C4B55642  31.265  30.143   7.276
 4177POPC   NC355643  26.504   7.124   5.381
 4177POPC   PO455644  26.410   6.476   5.315
 4177POPC   GL155645  26.262   6.637   5.747
 4177POPC   GL255646  26.004   6.875   5.781
 4177POPC   C1A55647  26.269   6.513   6.226
 4177POPC   D2A55648  26.227   6.715   6.657
 4177POPC   C3A55649  26.153   6.412   7.014
 4177POPC   C4A55650  26.186   6.082   7.338
 4177POPC   C1B55651  26.201   7.008   6.161
 4177POPC   C2B55652  26.487   7.158   6.497
 4177POPC   C3B55653  26.360   7.156   6.938
 4177POPC   C4B55654  26.068   6.891   7.151
 4178POPC   NC355655  26.051  37.008   5.414
 4178POPC   PO455656  26.012  36.354   5.581
 4178POPC   GL155657  26.050  36.715   5.863
 4178POPC   GL255658  26.315  37.008   5.841
 4178POPC   C1A55659  25.855  36.948   6.224
 4178POPC   D2A55660  25.661  37.077   6.642
 4178POPC   C3A55661  25.831  36.972   7.079
 4178POPC   C4A55662  25.998  37.230   7.450
 4178POPC   C1B55663  26.352  36.849   6.245
 4178POPC   C2B55664  26.145  36.792   6.642
 4178POPC   C3B55665  26.322  36.997   6.999
 4178POPC   C4B55666  26.365  36.870   7.435
 4179POPC   NC355667   7.223  23.823   5.490
 4179POPC   PO455668   7.771  23.467   5.411
 4179POPC   GL155669   7.536  23.511   5.743
 4179POPC   GL255670   7.682  23.864   5.743
 4179POPC   C1A55671   7.208  23.480   6.091
 4179POPC   D2A55672   6.973  23.507   6.494
 4179POPC   C3A55673   7.166  23.377   6.889
 4179POPC   C4A55674   7.429  23.487   7.223
 4179POPC   C1B55675   7.697  23.663   6.185
 4179POPC   C2B55676   7.813  23.499   6.585
 4179POPC   C3B55677   7.940  23.699   6.943
 4179POPC   C4B55678   7.736  23.875   7.286
 4180POPC   NC355679   0.680   9.348   5.310
 4180POPC   PO455680   0.311   8.735   5.401
 4180POPC   GL155681   0.514   8.885   5.811
 4180POPC   GL255682   0.487   9.252   5.883
 4180POPC   C1A55683   0.438   8.952   6.280
 4180POPC   D2A55684   0.647   9.087   6.659
 4180POPC   C3A55685   0.394   9.008   7.009
 4180POPC   C4A55686   0.201   8.791   7.347
 4180POPC   C1B55687   0.634   9.434   6.292
 4180POPC   C2B55688   0.748   9.595   6.694
 4180POPC   C3B55689   0.695   9.404   7.098
 4180POPC   C4B55690   0.584   9.204   7.459
 4181POPC   NC355691  10.279  19.643   5.470
 4181POPC   PO455692  10.764  19.058   5.481
 4181POPC   GL155693  10.487  19.248   5.762
 4181POPC   GL255694  10.441  18.924   5.948
 4181POPC   C1A55695  10.566  19.333   6.196
 4181POPC   D2A55696  10.595  18.995   6.485
 4181POPC   C3A55697  10.415  19.109   6.872
 4181POPC   C4A55698  10.469  19.208   7.301
 4181POPC   C1B55699  10.352  18.606   6.249
 4181POPC   C2B55700  10.250  18.621   6.675
 4181POPC   C3B55701  10.016  18.679   7.047
 4181POPC   C4B55702  10.194  18.812   7.448
 4182POPC   NC355703  25.556  26.201   5.458
 4182POPC   PO455704  25.100  25.777   5.339
 4182POPC   GL155705  24.985  25.822   5.750
 4182POPC   GL255706  25.077  26.172   5.738
 4182POPC   C1A55707  25.094  25.858   6.218
 4182POPC   D2A55708  25.372  26.080   6.546
 4182POPC   C3A55709  25.433  25.902   6.980
 4182POPC   C4A55710  25.795  25.952   7.230
 4182POPC   C1B55711  25.057  26.360   6.133
 4182POPC   C2B55712  24.894  26.284   6.516
 4182POPC   C3B55713  25.052  26.267   6.933
 4182POPC   C4B55714  24.948  26.005   7.225
 4183POPC   NC355715  19.397  14.497   5.408
 4183POPC   PO455716  19.992  14.125   5.205
 4183POPC   GL155717  19.885  14.277   5.702
 4183POPC   GL255718  19.794  13.991   5.910
 4183POPC   C1A55719  19.713  14.409   6.181
 4183POPC   D2A55720  19.655  14.339   6.648
 4183POPC   C3A55721  19.662  14.685   6.996
 4183POPC   C4A55722  19.804  14.601   7.439
 4183POPC   C1B55723  19.465  13.899   6.203
 4183POPC   C2B55724  19.359  13.876   6.633
 4183POPC   C3B55725  19.628  13.918   6.976
 4183POPC   C4B55726  19.535  14.237   7.195
 4184POPC   NC355727  36.113  37.259   5.382
 4184POPC   PO455728  36.746  37.492   5.633
 4184POPC   GL155729  36.390  37.214   5.886
 4184POPC   GL255730  36.190  36.840   5.798
 4184POPC   C1A55731  36.362  36.879   6.252
 4184POPC   D2A55732  36.227  36.637   6.607
 4184POPC   C3A55733  36.229  36.819   7.013
 4184POPC   C4A55734  36.431  36.652   7.376
 4184POPC   C1B55735  35.945  36.608   6.155
 4184POPC   C2B55736  35.707  36.578   6.574
 4184POPC   C3B55737  35.731  36.466   7.038
 4184POPC   C4B55738  35.939  36.490   7.451
 4185POPC   NC355739  43.450  38.508   5.345
 4185POPC   PO455740  42.880  38.687   5.258
 4185POPC   GL155741  43.034  38.622   5.697
 4185POPC   GL255742  43.352  38.704   5.840
 4185POPC   C1A55743  42.983  38.694   6.182
 4185POPC   D2A55744  43.111  38.863   6.616
 4185POPC   C3A55745  43.058  38.577   6.981
 4185POPC   C4A55746  42.876  38.586   7.425
 4185POPC   C1B55747  43.499  38.674   6.307
 4185POPC   C2B55748  43.580  38.751   6.785
 4185POPC   C3B55749  43.535  38.498   7.187
 4185POPC   C4B55750  43.209  38.186   7.321
 4186POPC   NC355751   5.822  44.374   5.480
 4186POPC   PO455752   6.219  44.928   5.629
 4186POPC   GL155753   5.849  44.792   5.811
 4186POPC   GL255754   5.641   0.066   5.873
 4186POPC   C1A55755   5.712  44.666   6.233
 4186POPC   D2A55756   5.855  44.434   6.591
 4186POPC   C3A55757   5.909  44.490   7.038
 4186POPC   C4A55758   6.171  44.514   7.380
 4186POPC   C1B55759   5.960   0.114   6.233
 4186POPC   C2B55760   6.160   0.032   6.664
 4186POPC   C3B55761   6.019  44.987   7.098
 4186POPC   C4B55762   5.885  44.950   7.524
 4187POPC   NC355763  37.348  40.241   5.346
 4187POPC   PO455764  37.855  39.867   5.581
 4187POPC   GL155765  37.826  40.186   5.872
 4187POPC   GL255766  37.476  40.129   5.912
 4187POPC   C1A55767  37.856  40.282   6.323
 4187POPC   D2A55768  37.607  40.418   6.681
 4187POPC   C3A55769  37.709  40.235   7.095
 4187POPC   C4A55770  37.854  39.791   7.175
 4187POPC   C1B55771  37.636  39.824   6.232
 4187POPC   C2B55772  37.700  39.896   6.671
 4187POPC   C3B55773  37.389  39.855   6.981
 4187POPC   C4B55774  37.373  39.543   7.278
 4188POPC   NC355775   5.053  41.754   5.410
 4188POPC   PO455776   5.643  41.881   5.723
 4188POPC   GL155777   5.314  41.549   5.823
 4188POPC   GL255778   4.965  41.381   5.751
 4188POPC   C1A55779   5.229  41.305   6.181
 4188POPC   D2A55780   5.003  41.360   6.553
 4188POPC   C3A55781   5.228  41.232   6.947
 4188POPC   C4A55782   5.241  41.491   7.332
 4188POPC   C1B55783   4.907  41.745   6.073
 4188POPC   C2B55784   4.829  41.854   6.515
 4188POPC   C3B55785   4.994  41.738   6.928
 4188POPC   C4B55786   4.842  41.799   7.351
 4189POPC   NC355787   2.797  15.631   5.496
 4189POPC   PO455788   2.748  14.916   5.374
 4189POPC   GL155789   2.770  15.116   5.797
 4189POPC   GL255790   2.494  15.373   5.836
 4189POPC   C1A55791   3.017  15.147   6.212
 4189POPC   D2A55792   3.243  15.272   6.616
 4189POPC   C3A55793   3.038  15.168   7.012
 4189POPC   C4A55794   2.858  15.067   7.412
 4189POPC   C1B55795   2.511  15.247   6.225
 4189POPC   C2B55796   2.670  15.182   6.598
 4189POPC   C3B55797   2.531  15.079   6.953
 4189POPC   C4B55798   2.394  15.241   7.297
 4190POPC   NC355799  14.946  44.704   5.449
 4190POPC   PO455800  15.493  44.939   5.384
 4190POPC   GL155801  15.362  44.764   5.821
 4190POPC   GL255802  14.989  44.786   5.952
 4190POPC   C1A55803  15.313  44.567   6.263
 4190POPC   D2A55804  15.026  44.647   6.632
 4190POPC   C3A55805  15.259  44.636   7.045
 4190POPC   C4A55806  15.308  44.666   7.516
 4190POPC   C1B55807  14.830  44.391   6.134
 4190POPC   C2B55808  14.767  44.179   6.517
 4190POPC   C3B55809  14.951  44.231   6.926
 4190POPC   C4B55810  14.891  44.400   7.327
 4191POPC   NC355811  27.558  34.065   5.340
 4191POPC   PO455812  27.307  33.565   5.353
 4191POPC   GL155813  27.370  33.650   5.799
 4191POPC   GL255814  27.472  34.006   5.855
 4191POPC   C1A55815  27.328  33.583   6.264
 4191POPC   D2A55816  27.608  33.650   6.622
 4191POPC   C3A55817  27.522  33.620   7.059
 4191POPC   C4A55818  27.748  33.792   7.434
 4191POPC   C1B55819  27.554  34.096   6.306
 4191POPC   C2B55820  27.703  34.149   6.737
 4191POPC   C3B55821  27.464  34.120   7.129
 4191POPC   C4B55822  27.200  33.839   7.385
 4192POPC   NC355823   1.387  34.516   5.106
 4192POPC   PO455824   2.056  34.442   5.303
 4192POPC   GL155825   2.142  34.574   5.724
 4192POPC   GL255826   1.803  34.551   5.814
 4192POPC   C1A55827   2.201  34.545   6.204
 4192POPC   D2A55828   2.327  34.712   6.638
 4192POPC   C3A55829   2.203  34.453   6.995
 4192POPC   C4A55830   2.185  34.577   7.420
 4192POPC   C1B55831   1.708  34.712   6.229
 4192POPC   C2B55832   1.824  34.645   6.670
 4192POPC   C3B55833   1.685  34.565   7.093
 4192POPC   C4B55834   1.514  34.852   7.416
 4193POPC   NC355835  44.341  31.643   5.410
 4193POPC   PO455836  43.691  31.479   5.495
 4193POPC   GL155837  44.050  31.415   5.782
 4193POPC   GL255838  44.353  31.615   5.894
 4193POPC   C1A55839  43.992  31.407   6.212
 4193POPC   D2A55840  43.709  31.316   6.519
 4193POPC   C3A55841  43.779  31.510   6.891
 4193POPC   C4A55842  43.543  31.471   7.228
 4193POPC   C1B55843  44.432  31.654   6.278
 4193POPC   C2B55844  44.157  31.712   6.591
 4193POPC   C3B55845  44.201  31.900   6.945
 4193POPC   C4B55846  44.090  31.694   7.293
 4194POPC   NC355847  27.868  38.566   5.413
 4194POPC   PO455848  27.236  38.198   5.331
 4194POPC   GL155849  27.320  38.458   5.757
 4194POPC   GL255850  27.557  38.773   5.810
 4194POPC   C1A55851  27.472  38.467   6.222
 4194POPC   D2A55852  27.515  38.147   6.547
 4194POPC   C3A55853  27.712  38.236   6.940
 4194POPC   C4A55854  27.383  38.433   7.147
 4194POPC   C1B55855  27.850  38.841   6.190
 4194POPC   C2B55856  27.842  38.631   6.624
 4194POPC   C3B55857  27.767  38.751   7.092
 4194POPC   C4B55858  27.491  38.763   7.512
 4195POPC   NC355859  29.919  21.081   5.424
 4195POPC   PO455860  30.323  21.662   5.410
 4195POPC   GL155861  30.143  21.425   5.784
 4195POPC   GL255862  30.295  21.089   5.807
 4195POPC   C1A55863  29.827  21.326   6.135
 4195POPC   D2A55864  29.735  21.172   6.589
 4195POPC   C3A55865  29.699  21.490   6.938
 4195POPC   C4A55866  30.015  21.636   7.208
 4195POPC   C1B55867  30.291  21.140   6.281
 4195POPC   C2B55868  30.284  21.275   6.727
 4195POPC   C3B55869  30.358  21.250   7.176
 4195POPC   C4B55870  30.483  21.009   7.536
 4196POPC   NC355871  10.295  17.041   5.474
 4196POPC   PO455872  10.800  16.614   5.424
 4196POPC   GL155873  10.440  16.483   5.656
 4196POPC   GL255874  10.489  16.740   5.851
 4196POPC   C1A55875  10.279  16.366   6.117
 4196POPC   D2A55876  10.073  16.514   6.526
 4196POPC   C3A55877  10.201  16.487   6.981
 4196POPC   C4A55878  10.249  16.836   7.269
 4196POPC   C1B55879  10.709  16.643   6.217
 4196POPC   C2B55880  10.529  16.793   6.590
 4196POPC   C3B55881  10.689  16.767   6.977
 4196POPC   C4B55882  10.643  16.521   7.316
 4197POPC   NC355883  38.713  29.210   5.339
 4197POPC   PO455884  38.268  28.788   5.385
 4197POPC   GL155885  38.299  29.154   5.694
 4197POPC   GL255886  38.203  28.957   5.979
 4197POPC   C1A55887  38.312  29.434   6.113
 4197POPC   D2A55888  38.247  29.250   6.559
 4197POPC   C3A55889  38.328  29.333   7.013
 4197POPC   C4A55890  38.245  29.191   7.451
 4197POPC   C1B55891  38.579  29.020   6.256
 4197POPC   C2B55892  38.618  28.899   6.705
 4197POPC   C3B55893  38.469  28.861   7.119
 4197POPC   C4B55894  38.679  28.907   7.518
 4198POPC   NC355895  19.287  27.577   5.166
 4198POPC   PO455896  18.734  27.569   5.365
 4198POPC   GL155897  18.980  27.641   5.756
 4198POPC   GL255898  19.356  27.668   5.693
 4198POPC   C1A55899  18.989  27.744   6.223
 4198POPC   D2A55900  19.218  27.790   6.641
 4198POPC   C3A55901  18.982  27.577   6.977
 4198POPC   C4A55902  19.036  27.253   7.302
 4198POPC   C1B55903  19.490  27.669   6.168
 4198POPC   C2B55904  19.683  27.544   6.614
 4198POPC   C3B55905  19.495  27.534   7.074
 4198POPC   C4B55906  19.190  27.765   7.398
 4199POPC   NC355907   0.018  23.225   5.463
 4199POPC   PO455908  44.437  22.828   5.460
 4199POPC   GL155909  44.767  22.850   5.764
 4199POPC   GL255910  44.974  22.586   5.864
 4199POPC   C1A55911  44.791  22.946   6.212
 4199POPC   D2A55912  44.528  22.950   6.568
 4199POPC   C3A55913  44.637  23.045   6.980
 4199POPC   C4A55914  44.299  22.996   7.299
 4199POPC   C1B55915  44.931  22.457   6.290
 4199POPC   C2B55916  44.952  22.672   6.693
 4199POPC   C3B55917   0.037  22.758   7.132
 4199POPC   C4B55918  44.803  22.634   7.465
 4200POPC   NC355919  28.916   6.959   5.388
 4200POPC   PO455920  29.404   6.523   5.422
 4200POPC   GL155921  29.231   6.792   5.769
 4200POPC   GL255922  28.848   6.795   5.852
 4200POPC   C1A55923  29.223   6.760   6.219
 4200POPC   D2A55924  29.356   6.921   6.613
 4200POPC   C3A55925  29.320   6.638   6.963
 4200POPC   C4A55926  29.097   6.855   7.240
 4200POPC   C1B55927  28.743   6.908   6.279
 4200POPC   C2B55928  28.855   6.770   6.697
 4200POPC   C3B55929  28.639   6.834   7.074
 4200POPC   C4B55930  28.535   6.776   7.511
 4201POPC   NC355931  42.731  12.435   5.465
 4201POPC   PO455932  42.105  12.169   5.303
 4201POPC   GL155933  42.098  12.103   5.761
 4201POPC   GL255934  42.451  12.068   5.790
 4201POPC   C1A55935  42.194  12.223   6.215
 4201POPC   D2A55936  42.056  11.963   6.547
 4201POPC   C3A55937  42.136  12.065   6.978
 4201POPC   C4A55938  42.217  11.983   7.399
 4201POPC   C1B55939  42.638  11.980   6.195
 4201POPC   C2B55940  42.575  12.123   6.646
 4201POPC   C3B55941  42.620  12.100   7.101
 4201POPC   C4B55942  42.703  11.980   7.543
 4202POPC   NC355943  28.096  35.644   5.521
 4202POPC   PO455944  27.511  35.447   5.301
 4202POPC   GL155945  27.615  35.421   5.726
 4202POPC   GL255946  27.443  35.705   5.830
 4202POPC   C1A55947  27.827  35.519   6.143
 4202POPC   D2A55948  27.918  35.600   6.581
 4202POPC   C3A55949  27.727  35.407   6.960
 4202POPC   C4A55950  27.768  35.008   7.197
 4202POPC   C1B55951  27.336  35.410   6.192
 4202POPC   C2B55952  27.262  35.407   6.642
 4202POPC   C3B55953  27.225  35.358   7.107
 4202POPC   C4B55954  27.170  35.024   7.424
 4203POPC   NC355955   0.719   4.013   5.323
 4203POPC   PO455956   0.242   4.492   5.570
 4203POPC   GL155957   0.566   4.377   5.884
 4203POPC   GL255958   0.776   4.084   5.832
 4203POPC   C1A55959   0.494   4.216   6.311
 4203POPC   D2A55960   0.504   4.406   6.719
 4203POPC   C3A55961   0.205   4.319   7.043
 4203POPC   C4A55962   0.217   3.937   7.278
 4203POPC   C1B55963   0.994   4.177   6.212
 4203POPC   C2B55964   0.912   4.036   6.627
 4203POPC   C3B55965   0.812   4.139   7.057
 4203POPC   C4B55966   0.658   4.551   7.196
 4204POPC   NC355967  22.360  24.124   5.508
 4204POPC   PO455968  22.080  24.703   5.353
 4204POPC   GL155969  22.096  24.558   5.770
 4204POPC   GL255970  21.844  24.336   5.727
 4204POPC   C1A55971  22.258  24.508   6.213
 4204POPC   D2A55972  22.156  24.708   6.638
 4204POPC   C3A55973  22.319  24.675   7.078
 4204POPC   C4A55974  22.645  24.948   7.274
 4204POPC   C1B55975  21.770  24.374   6.167
 4204POPC   C2B55976  21.959  24.249   6.559
 4204POPC   C3B55977  21.911  24.368   6.976
 4204POPC   C4B55978  22.151  24.249   7.337
 4205POPC   NC355979  13.169  21.405   5.358
 4205POPC   PO455980  12.471  21.389   5.280
 4205POPC   GL155981  12.618  21.201   5.684
 4205POPC   GL255982  12.955  21.282   5.799
 4205POPC   C1A55983  12.605  21.334   6.148
 4205POPC   D2A55984  12.908  21.329   6.486
 4205POPC   C3A55985  12.773  21.251   6.913
 4205POPC   C4A55986  13.054  21.161   7.241
 4205POPC   C1B55987  13.017  21.654   6.054
 4205POPC   C2B55988  12.898  21.844   6.441
 4205POPC   C3B55989  12.901  21.746   6.861
 4205POPC   C4B55990  13.182  21.696   7.205
 4206POPC   NC355991  39.798   8.207   5.433
 4206POPC   PO455992  39.217   7.932   5.211
 4206POPC   GL155993  39.241   7.987   5.690
 4206POPC   GL255994  39.275   8.356   5.717
 4206POPC   C1A55995  39.397   8.084   6.149
 4206POPC   D2A55996  39.609   8.167   6.599
 4206POPC   C3A55997  39.546   8.406   7.022
 4206POPC   C4A55998  39.382   8.085   7.344
 4206POPC   C1B55999  39.133   8.521   6.118
 4206POPC   C2B56000  39.093   8.304   6.505
 4206POPC   C3B56001  39.163   8.126   6.889
 4206POPC   C4B56002  39.045   8.446   7.207
 4207POPC   NC356003   4.138  41.605   5.352
 4207POPC   PO456004   4.621  41.231   5.355
 4207POPC   GL156005   4.403  41.384   5.764
 4207POPC   GL256006   4.006  41.296   5.741
 4207POPC   C1A56007   4.500  41.436   6.223
 4207POPC   D2A56008   4.310  41.668   6.579
 4207POPC   C3A56009   4.473  41.635   7.011
 4207POPC   C4A56010   4.770  41.307   7.160
 4207POPC   C1B56011   3.979  41.541   6.123
 4207POPC   C2B56012   3.837  41.441   6.539
 4207POPC   C3B56013   3.996  41.451   6.929
 4207POPC   C4B56014   3.974  41.683   7.285
 4208POPC   NC356015  15.445  38.667   5.435
 4208POPC   PO456016  16.085  38.272   5.447
 4208POPC   GL156017  15.820  38.479   5.751
 4208POPC   GL256018  15.604  38.244   5.874
 4208POPC   C1A56019  15.772  38.586   6.213
 4208POPC   D2A56020  15.629  38.457   6.634
 4208POPC   C3A56021  15.974  38.512   6.929
 4208POPC   C4A56022  15.947  38.552   7.364
 4208POPC   C1B56023  15.683  38.076   6.275
 4208POPC   C2B56024  15.593  37.930   6.662
 4208POPC   C3B56025  15.711  38.093   7.027
 4208POPC   C4B56026  16.037  38.043   7.266
 4209POPC   NC356027  12.285  23.417   5.455
 4209POPC   PO456028  11.785  23.912   5.466
 4209POPC   GL156029  11.849  23.564   5.754
 4209POPC   GL256030  12.147  23.762   5.830
 4209POPC   C1A56031  11.951  23.471   6.192
 4209POPC   D2A56032  12.022  23.682   6.579
 4209POPC   C3A56033  11.910  23.546   6.991
 4209POPC   C4A56034  12.015  23.611   7.425
 4209POPC   C1B56035  12.266  23.973   6.213
 4209POPC   C2B56036  12.064  24.184   6.565
 4209POPC   C3B56037  12.118  24.024   6.972
 4209POPC   C4B56038  11.946  24.109   7.344
 4210POPC   NC356039  38.333  10.860   5.479
 4210POPC   PO456040  38.725  10.389   5.456
 4210POPC   GL156041  38.615  10.527   5.884
 4210POPC   GL256042  38.296  10.625   5.940
 4210POPC   C1A56043  38.575  10.649   6.338
 4210POPC   D2A56044  38.562  10.392   6.700
 4210POPC   C3A56045  38.434  10.634   7.029
 4210POPC   C4A56046  38.645  10.676   7.360
 4210POPC   C1B56047  38.319  10.235   6.256
 4210POPC   C2B56048  38.204  10.020   6.698
 4210POPC   C3B56049  38.184  10.165   7.163
 4210POPC   C4B56050  38.556  10.180   7.463
 4211POPC   NC356051   8.589  41.371   5.468
 4211POPC   PO456052   9.274  41.508   5.431
 4211POPC   GL156053   9.047  41.428   5.784
 4211POPC   GL256054   9.106  41.083   5.902
 4211POPC   C1A56055   8.929  41.685   6.144
 4211POPC   D2A56056   8.817  41.667   6.570
 4211POPC   C3A56057   9.057  41.730   6.933
 4211POPC   C4A56058   8.807  41.553   7.253
 4211POPC   C1B56059   9.042  41.215   6.332
 4211POPC   C2B56060   9.312  41.314   6.689
 4211POPC   C3B56061   9.273  41.274   7.142
 4211POPC   C4B56062   9.214  41.431   7.558
 4212POPC   NC356063  36.556  36.533   5.513
 4212POPC   PO456064  37.207  36.337   5.442
 4212POPC   GL156065  36.891  36.165   5.778
 4212POPC   GL256066  36.663  35.920   5.700
 4212POPC   C1A56067  36.756  36.082   6.230
 4212POPC   D2A56068  36.593  36.226   6.647
 4212POPC   C3A56069  36.826  36.170   7.002
 4212POPC   C4A56070  36.804  36.303   7.417
 4212POPC   C1B56071  36.408  35.764   6.040
 4212POPC   C2B56072  36.416  35.726   6.477
 4212POPC   C3B56073  36.484  35.781   6.901
 4212POPC   C4B56074  36.612  35.826   7.312
 4213POPC   NC356075  28.350  37.915   5.408
 4213POPC   PO456076  28.439  37.299   5.558
 4213POPC   GL156077  28.352  37.599   5.825
 4213POPC   GL256078  28.619  37.770   5.889
 4213POPC   C1A56079  28.158  37.514   6.199
 4213POPC   D2A56080  28.024  37.274   6.511
 4213POPC   C3A56081  28.110  37.439   6.901
 4213POPC   C4A56082  27.832  37.454   7.178
 4213POPC   C1B56083  28.672  37.454   6.200
 4213POPC   C2B56084  28.527  37.362   6.592
 4213POPC   C3B56085  28.592  37.617   6.952
 4213POPC   C4B56086  28.840  37.698   7.283
 4214POPC   NC356087  30.871  15.446   5.355
 4214POPC   PO456088  30.837  14.870   5.120
 4214POPC   GL156089  30.835  15.086   5.684
 4214POPC   GL256090  30.519  15.342   5.706
 4214POPC   C1A56091  30.827  14.955   6.158
 4214POPC   D2A56092  30.783  14.737   6.573
 4214POPC   C3A56093  30.606  14.982   6.927
 4214POPC   C4A56094  30.855  15.109   7.295
 4214POPC   C1B56095  30.762  15.450   6.074
 4214POPC   C2B56096  30.741  15.321   6.522
 4214POPC   C3B56097  30.794  15.479   6.944
 4214POPC   C4B56098  30.549  15.514   7.328
 4215POPC   NC356099  27.279  23.867   5.237
 4215POPC   PO456100  27.695  23.306   5.371
 4215POPC   GL156101  27.561  23.430   5.765
 4215POPC   GL256102  27.243  23.619   5.686
 4215POPC   C1A56103  27.775  23.587   6.175
 4215POPC   D2A56104  27.624  23.938   6.463
 4215POPC   C3A56105  27.484  23.843   6.876
 4215POPC   C4A56106  27.814  23.814   7.144
 4215POPC   C1B56107  27.288  23.698   6.122
 4215POPC   C2B56108  27.386  23.470   6.513
 4215POPC   C3B56109  27.200  23.426   6.930
 4215POPC   C4B56110  27.417  23.533   7.312
 4216POPC   NC356111  24.858  13.524   5.415
 4216POPC   PO456112  24.275  13.831   5.415
 4216POPC   GL156113  24.227  13.768   5.821
 4216POPC   GL256114  24.335  13.418   5.836
 4216POPC   C1A56115  24.177  13.683   6.255
 4216POPC   D2A56116  24.433  13.393   6.496
 4216POPC   C3A56117  24.489  13.540   6.887
 4216POPC   C4A56118  24.201  13.760   7.119
 4216POPC   C1B56119  24.689  13.575   6.089
 4216POPC   C2B56120  24.869  13.716   6.510
 4216POPC   C3B56121  24.911  13.812   6.961
 4216POPC   C4B56122  24.667  13.784   7.360
 4217POPC   NC356123  35.989  44.409   5.562
 4217POPC   PO456124  36.547  44.803   5.606
 4217POPC   GL156125  36.176  44.754   5.922
 4217POPC   GL256126  35.856  44.981   5.913
 4217POPC   C1A56127  36.196  44.483   6.318
 4217POPC   D2A56128  36.308  44.193   6.655
 4217POPC   C3A56129  36.105  44.336   7.038
 4217POPC   C4A56130  36.267  44.752   7.125
 4217POPC   C1B56131  35.736  44.711   6.270
 4217POPC   C2B56132  35.847  44.666   6.715
 4217POPC   C3B56133  35.760  44.803   7.161
 4217POPC   C4B56134  35.784  44.960   7.597
 4218POPC   NC356135   6.180  11.066   5.429
 4218POPC   PO456136   5.797  11.656   5.371
 4218POPC   GL156137   6.108  11.564   5.760
 4218POPC   GL256138   6.143  11.261   5.921
 4218POPC   C1A56139   6.258  11.717   6.203
 4218POPC   D2A56140   6.351  11.803   6.649
 4218POPC   C3A56141   6.002  11.698   6.940
 4218POPC   C4A56142   5.696  11.397   7.123
 4218POPC   C1B56143   5.868  11.395   6.274
 4218POPC   C2B56144   5.864  11.213   6.668
 4218POPC   C3B56145   6.136  11.133   7.006
 4218POPC   C4B56146   6.007  11.018   7.393
 4219POPC   NC356147   4.049  15.843   5.329
 4219POPC   PO456148   4.760  15.703   5.463
 4219POPC   GL156149   4.539  15.911   5.853
 4219POPC   GL256150   4.161  16.025   5.845
 4219POPC   C1A56151   4.573  16.062   6.288
 4219POPC   D2A56152   4.502  16.292   6.702
 4219POPC   C3A56153   4.569  16.022   7.071
 4219POPC   C4A56154   4.403  15.902   7.485
 4219POPC   C1B56155   4.095  16.272   6.247
 4219POPC   C2B56156   4.000  16.431   6.680
 4219POPC   C3B56157   4.085  16.265   7.099
 4219POPC   C4B56158   3.847  16.045   7.417
 4220POPC   NC356159  31.893  20.424   5.450
 4220POPC   PO456160  31.417  20.776   5.736
 4220POPC   GL156161  31.508  20.794   6.099
 4220POPC   GL256162  31.783  20.566   6.039
 4220POPC   C1A56163  31.269  21.047   6.362
 4220POPC   D2A56164  31.272  21.070   6.787
 4220POPC   C3A56165  31.459  20.710   6.998
 4220POPC   C4A56166  31.254  20.307   7.103
 4220POPC   C1B56167  31.545  20.331   6.310
 4220POPC   C2B56168  31.632  20.316   6.700
 4220POPC   C3B56169  31.970  20.399   6.918
 4220POPC   C4B56170  31.750  20.335   7.274
 4221POPC   NC356171  24.716  23.325   5.489
 4221POPC   PO456172  24.205  23.898   5.556
 4221POPC   GL156173  24.441  23.639   5.804
 4221POPC   GL256174  24.292  23.340   5.800
 4221POPC   C1A56175  24.612  23.727   6.194
 4221POPC   D2A56176  24.743  23.978   6.535
 4221POPC   C3A56177  24.502  23.970   6.906
 4221POPC   C4A56178  24.561  23.887   7.330
 4221POPC   C1B56179  24.369  23.286   6.234
 4221POPC   C2B56180  24.416  23.501   6.623
 4221POPC   C3B56181  24.451  23.456   7.062
 4221POPC   C4B56182  24.793  23.445   7.320
 4222POPC   NC356183   5.941  38.681   5.426
 4222POPC   PO456184   5.600  38.087   5.363
 4222POPC   GL156185   5.640  38.374   5.744
 4222POPC   GL256186   6.000  38.423   5.858
 4222POPC   C1A56187   5.424  38.466   6.162
 4222POPC   D2A56188   5.274  38.468   6.624
 4222POPC   C3A56189   5.628  38.456   6.953
 4222POPC   C4A56190   5.587  38.524   7.408
 4222POPC   C1B56191   5.906  38.632   6.251
 4222POPC   C2B56192   6.131  38.728   6.616
 4222POPC   C3B56193   6.170  38.539   7.001
 4222POPC   C4B56194   6.330  38.682   7.347
 4223POPC   NC356195   2.477  22.535   5.490
 4223POPC   PO456196   2.511  21.808   5.466
 4223POPC   GL156197   2.411  21.888   5.895
 4223POPC   GL256198   2.578  22.214   5.892
 4223POPC   C1A56199   2.656  21.920   6.312
 4223POPC   D2A56200   3.089  21.983   6.547
 4223POPC   C3A56201   3.016  22.023   7.003
 4223POPC   C4A56202   2.596  21.987   7.164
 4223POPC   C1B56203   2.739  22.521   6.199
 4223POPC   C2B56204   2.987  22.510   6.596
 4223POPC   C3B56205   2.913  22.590   7.036
 4223POPC   C4B56206   2.769  22.406   7.443
 4224POPC   NC356207  18.874  44.172   5.522
 4224POPC   PO456208  19.505  43.963   5.535
 4224POPC   GL156209  19.303  43.732   5.866
 4224POPC   GL256210  18.980  43.870   5.960
 4224POPC   C1A56211  19.330  43.664   6.305
 4224POPC   D2A56212  19.452  43.818   6.711
 4224POPC   C3A56213  19.329  43.571   7.053
 4224POPC   C4A56214  19.034  43.562   7.368
 4224POPC   C1B56215  18.816  43.691   6.349
 4224POPC   C2B56216  18.916  43.876   6.766
 4224POPC   C3B56217  18.874  44.016   7.193
 4224POPC   C4B56218  18.719  44.214   7.620
 4225POPC   NC356219  38.035  18.243   5.502
 4225POPC   PO456220  37.437  18.565   5.444
 4225POPC   GL156221  37.402  18.286   5.794
 4225POPC   GL256222  37.558  17.996   5.652
 4225POPC   C1A56223  37.419  18.337   6.257
 4225POPC   D2A56224  37.545  18.560   6.653
 4225POPC   C3A56225  37.802  18.336   6.978
 4225POPC   C4A56226  38.173  18.336   7.252
 4225POPC   C1B56227  37.746  17.973   6.084
 4225POPC   C2B56228  37.871  18.131   6.506
 4225POPC   C3B56229  38.063  17.916   6.881
 4225POPC   C4B56230  37.833  17.888   7.278
 4226POPC   NC356231  17.422  15.522   5.574
 4226POPC   PO456232  17.106  14.951   5.577
 4226POPC   GL156233  17.364  15.134   5.911
 4226POPC   GL256234  17.712  15.183   5.809
 4226POPC   C1A56235  17.437  15.053   6.345
 4226POPC   D2A56236  17.269  14.862   6.722
 4226POPC   C3A56237  17.182  15.185   6.993
 4226POPC   C4A56238  17.542  15.216   7.158
 4226POPC   C1B56239  17.769  15.424   6.196
 4226POPC   C2B56240  17.653  15.520   6.637
 4226POPC   C3B56241  17.897  15.527   7.044
 4226POPC   C4B56242  17.757  15.651   7.495
 4227POPC   NC356243  43.568   7.485   5.322
 4227POPC   PO456244  44.196   7.320   5.386
 4227POPC   GL156245  43.916   7.334   5.751
 4227POPC   GL256246  43.755   7.672   5.763
 4227POPC   C1A56247  43.813   7.393   6.220
 4227POPC   D2A56248  43.694   7.188   6.603
 4227POPC   C3A56249  43.850   7.295   7.037
 4227POPC   C4A56250  43.597   7.047   7.309
 4227POPC   C1B56251  44.124   7.731   5.996
 4227POPC   C2B56252  44.078   7.803   6.436
 4227POPC   C3B56253  43.711   7.680   6.707
 4227POPC   C4B56254  43.583   7.717   7.165
 4228POPC   NC356255  13.878  11.548   5.535
 4228POPC   PO456256  13.494  11.051   5.368
 4228POPC   GL156257  13.540  11.247   5.752
 4228POPC   GL256258  13.840  11.087   5.821
 4228POPC   C1A56259  13.555  11.455   6.161
 4228POPC   D2A56260  13.686  11.290   6.562
 4228POPC   C3A56261  13.651  11.478   6.969
 4228POPC   C4A56262  13.371  11.510   7.270
 4228POPC   C1B56263  14.033  11.224   6.179
 4228POPC   C2B56264  14.137  11.027   6.551
 4228POPC   C3B56265  13.892  11.017   6.943
 4228POPC   C4B56266  13.924  11.024   7.421
 4229POPC   NC356267  25.624  13.613   5.200
 4229POPC   PO456268  25.097  13.934   5.409
 4229POPC   GL156269  25.443  13.861   5.724
 4229POPC   GL256270  25.520  13.504   5.707
 4229POPC   C1A56271  25.481  13.682   6.187
 4229POPC   D2A56272  25.460  13.485   6.637
 4229POPC   C3A56273  25.424  13.706   7.053
 4229POPC   C4A56274  25.178  13.872   7.404
 4229POPC   C1B56275  25.152  13.314   5.995
 4229POPC   C2B56276  24.916  13.207   6.395
 4229POPC   C3B56277  24.988  13.310   6.839
 4229POPC   C4B56278  25.273  13.252   7.212
 4230POPC   NC356279  13.921  21.439   5.283
 4230POPC   PO456280  13.383  21.081   5.602
 4230POPC   GL156281  13.479  21.475   5.778
 4230POPC   GL256282  13.834  21.574   5.762
 4230POPC   C1A56283  13.439  21.424   6.217
 4230POPC   D2A56284  13.347  21.667   6.543
 4230POPC   C3A56285  13.302  21.353   6.847
 4230POPC   C4A56286  13.547  21.265   7.230
 4230POPC   C1B56287  13.751  21.794   6.117
 4230POPC   C2B56288  13.868  21.661   6.520
 4230POPC   C3B56289  13.691  21.686   6.921
 4230POPC   C4B56290  13.909  21.613   7.271
 4231POPC   NC356291   1.482   1.771   5.569
 4231POPC   PO456292   0.887   1.706   5.233
 4231POPC   GL156293   0.991   1.788   5.730
 4231POPC   GL256294   1.168   2.111   5.832
 4231POPC   C1A56295   1.257   1.746   6.169
 4231POPC   D2A56296   1.225   1.771   6.611
 4231POPC   C3A56297   1.431   1.919   6.980
 4231POPC   C4A56298   1.292   1.932   7.427
 4231POPC   C1B56299   0.951   2.146   6.269
 4231POPC   C2B56300   1.083   2.244   6.686
 4231POPC   C3B56301   1.133   2.301   7.124
 4231POPC   C4B56302   1.439   2.489   7.386
 4232POPC   NC356303  37.400  26.871   5.564
 4232POPC   PO456304  36.773  26.820   5.368
 4232POPC   GL156305  36.606  26.880   5.777
 4232POPC   GL256306  36.645  27.272   5.740
 4232POPC   C1A56307  36.633  26.682   6.217
 4232POPC   D2A56308  36.654  26.418   6.619
 4232POPC   C3A56309  36.852  26.519   7.010
 4232POPC   C4A56310  37.249  26.718   7.160
 4232POPC   C1B56311  36.556  27.221   6.167
 4232POPC   C2B56312  36.447  27.027   6.559
 4232POPC   C3B56313  36.683  26.998   6.951
 4232POPC   C4B56314  36.865  26.969   7.394
 4233POPC   NC356315   0.596   4.789   5.544
 4233POPC   PO456316   0.629   5.396   5.343
 4233POPC   GL156317   0.424   5.266   5.758
 4233POPC   GL256318   0.214   4.945   5.853
 4233POPC   C1A56319   0.512   5.185   6.203
 4233POPC   D2A56320   0.676   5.431   6.543
 4233POPC   C3A56321   0.580   5.325   6.935
 4233POPC   C4A56322   0.687   5.070   7.267
 4233POPC   C1B56323   0.342   4.718   6.245
 4233POPC   C2B56324   0.480   4.903   6.652
 4233POPC   C3B56325   0.262   4.860   7.038
 4233POPC   C4B56326   0.288   4.853   7.488
 4234POPC   NC356327  30.868  25.640   5.435
 4234POPC   PO456328  30.610  25.047   5.337
 4234POPC   GL156329  30.676  25.225   5.731
 4234POPC   GL256330  31.031  25.228   5.684
 4234POPC   C1A56331  30.536  25.288   6.182
 4234POPC   D2A56332  30.355  25.105   6.570
 4234POPC   C3A56333  30.612  25.218   6.928
 4234POPC   C4A56334  30.516  25.413   7.335
 4234POPC   C1B56335  31.018  25.108   6.112
 4234POPC   C2B56336  30.999  25.277   6.515
 4234POPC   C3B56337  31.130  25.107   6.893
 4234POPC   C4B56338  31.022  25.276   7.247
 4235POPC   NC356339   3.749  40.300   5.364
 4235POPC   PO456340   3.485  39.743   5.483
 4235POPC   GL156341   3.784  39.971   5.765
 4235POPC   GL256342   3.748  40.346   5.865
 4235POPC   C1A56343   3.781  39.965   6.195
 4235POPC   D2A56344   3.484  39.906   6.521
 4235POPC   C3A56345   3.649  40.084   6.866
 4235POPC   C4A56346   3.525  40.189   7.240
 4235POPC   C1B56347   3.395  40.308   6.187
 4235POPC   C2B56348   3.391  40.476   6.629
 4235POPC   C3B56349   3.660  40.609   6.986
 4235POPC   C4B56350   4.020  40.417   7.174
 4236POPC   NC356351  19.515  11.964   5.326
 4236POPC   PO456352  19.972  12.472   5.198
 4236POPC   GL156353  19.903  12.265   5.641
 4236POPC   GL256354  19.828  11.917   5.763
 4236POPC   C1A56355  19.975  12.216   6.133
 4236POPC   D2A56356  19.755  12.048   6.532
 4236POPC   C3A56357  19.928  12.162   6.943
 4236POPC   C4A56358  19.756  12.531   7.186
 4236POPC   C1B56359  19.677  11.701   6.146
 4236POPC   C2B56360  19.674  11.476   6.570
 4236POPC   C3B56361  19.587  11.700   6.942
 4236POPC   C4B56362  19.458  12.078   7.193
 4237POPC   NC356363  33.785  28.124   5.369
 4237POPC   PO456364  34.138  28.704   5.595
 4237POPC   GL156365  33.974  28.330   5.796
 4237POPC   GL256366  33.674  28.479   5.750
 4237POPC   C1A56367  33.934  28.060   6.175
 4237POPC   D2A56368  33.967  28.329   6.577
 4237POPC   C3A56369  34.096  28.195   6.990
 4237POPC   C4A56370  33.784  27.947   7.187
 4237POPC   C1B56371  33.585  28.406   6.166
 4237POPC   C2B56372  33.527  28.575   6.559
 4237POPC   C3B56373  33.619  28.397   6.983
 4237POPC   C4B56374  33.330  28.150   7.282
 4238POPC   NC356375  32.227  27.418   5.350
 4238POPC   PO456376  32.634  27.924   5.481
 4238POPC   GL156377  32.474  27.656   5.822
 4238POPC   GL256378  32.119  27.582   5.825
 4238POPC   C1A56379  32.416  27.487   6.261
 4238POPC   D2A56380  32.194  27.366   6.664
 4238POPC   C3A56381  32.415  27.556   7.041
 4238POPC   C4A56382  32.470  27.722   7.471
 4238POPC   C1B56383  31.906  27.566   6.216
 4238POPC   C2B56384  31.798  27.727   6.612
 4238POPC   C3B56385  31.870  27.579   7.028
 4238POPC   C4B56386  32.043  27.479   7.394
 4239POPC   NC356387  17.707  41.645   5.288
 4239POPC   PO456388  17.044  41.895   5.400
 4239POPC   GL156389  17.156  41.707   5.847
 4239POPC   GL256390  17.501  41.564   5.770
 4239POPC   C1A56391  17.303  41.546   6.256
 4239POPC   D2A56392  17.657  41.728   6.504
 4239POPC   C3A56393  17.739  41.658   6.941
 4239POPC   C4A56394  17.353  41.612   7.197
 4239POPC   C1B56395  17.778  41.408   6.110
 4239POPC   C2B56396  17.813  41.258   6.569
 4239POPC   C3B56397  17.714  41.169   7.020
 4239POPC   C4B56398  17.774  41.381   7.414
 4240POPC   NC356399  24.683  14.164   5.434
 4240POPC   PO456400  24.122  14.528   5.485
 4240POPC   GL156401  24.303  14.294   5.793
 4240POPC   GL256402  24.614  14.491   5.837
 4240POPC   C1A56403  24.359  14.234   6.253
 4240POPC   D2A56404  24.413  14.519   6.645
 4240POPC   C3A56405  24.268  14.286   7.035
 4240POPC   C4A56406  24.274  14.101   7.473
 4240POPC   C1B56407  24.837  14.401   6.247
 4240POPC   C2B56408  24.863  14.280   6.680
 4240POPC   C3B56409  24.781  14.289   7.137
 4240POPC   C4B56410  24.860  14.231   7.589
 4241POPC   NC356411  36.985  35.963   5.298
 4241POPC   PO456412  36.712  35.441   5.314
 4241POPC   GL156413  36.725  35.426   5.767
 4241POPC   GL256414  37.063  35.525   5.794
 4241POPC   C1A56415  36.837  35.574   6.233
 4241POPC   D2A56416  36.921  35.775   6.646
 4241POPC   C3A56417  36.864  35.442   6.989
 4241POPC   C4A56418  36.729  34.994   7.018
 4241POPC   C1B56419  36.972  35.104   6.094
 4241POPC   C2B56420  37.010  34.921   6.558
 4241POPC   C3B56421  37.241  35.066   6.946
 4241POPC   C4B56422  37.344  35.143   7.402
 4242POPC   NC356423  15.409   1.275   5.608
 4242POPC   PO456424  16.039   1.158   5.250
 4242POPC   GL156425  15.929   1.124   5.708
 4242POPC   GL256426  15.723   0.851   5.651
 4242POPC   C1A56427  16.061   1.229   6.157
 4242POPC   D2A56428  16.154   1.341   6.590
 4242POPC   C3A56429  15.988   1.284   6.973
 4242POPC   C4A56430  16.201   1.131   7.316
 4242POPC   C1B56431  15.629   0.951   6.119
 4242POPC   C2B56432  15.652   1.174   6.525
 4242POPC   C3B56433  15.632   0.926   6.925
 4242POPC   C4B56434  15.708   1.059   7.345
 4243POPC   NC356435   9.341   0.427   5.377
 4243POPC   PO456436   9.719  44.872   5.368
 4243POPC   GL156437   9.620   0.164   5.798
 4243POPC   GL256438   9.308   0.366   5.881
 4243POPC   C1A56439   9.630   0.318   6.286
 4243POPC   D2A56440   9.684   0.488   6.708
 4243POPC   C3A56441   9.816   0.213   7.011
 4243POPC   C4A56442   9.740   0.189   7.440
 4243POPC   C1B56443   9.444   0.755   6.117
 4243POPC   C2B56444   9.574   0.950   6.525
 4243POPC   C3B56445   9.540   0.942   6.963
 4243POPC   C4B56446   9.706   0.674   7.243
 4244POPC   NC356447  41.609  39.923   5.123
 4244POPC   PO456448  41.183  40.297   5.370
 4244POPC   GL156449  41.386  40.121   5.758
 4244POPC   GL256450  41.050  40.166   5.890
 4244POPC   C1A56451  41.726  40.126   6.140
 4244POPC   D2A56452  41.890  39.906   6.543
 4244POPC   C3A56453  41.798  40.065   6.990
 4244POPC   C4A56454  41.647  39.792   7.356
 4244POPC   C1B56455  41.270  40.313   6.261
 4244POPC   C2B56456  41.368  40.171   6.661
 4244POPC   C3B56457  41.280  39.962   7.044
 4244POPC   C4B56458  41.386  40.253   7.380
 4245POPC   NC356459  33.206  11.882   5.344
 4245POPC   PO456460  33.025  12.406   5.231
 4245POPC   GL156461  33.078  12.338   5.679
 4245POPC   GL256462  32.913  12.018   5.776
 4245POPC   C1A56463  33.091  12.316   6.160
 4245POPC   D2A56464  32.769  12.219   6.503
 4245POPC   C3A56465  32.856  12.179   6.974
 4245POPC   C4A56466  32.986  12.128   7.414
 4245POPC   C1B56467  33.036  11.818   6.218
 4245POPC   C2B56468  33.174  11.921   6.665
 4245POPC   C3B56469  33.272  11.795   7.121
 4245POPC   C4B56470  33.178  11.597   7.545
 4246POPC   NC356471  17.287  21.204   5.623
 4246POPC   PO456472  17.019  21.797   5.491
 4246POPC   GL156473  17.235  21.654   5.898
 4246POPC   GL256474  17.592  21.495   5.931
 4246POPC   C1A56475  17.213  21.392   6.285
 4246POPC   D2A56476  17.359  21.197   6.676
 4246POPC   C3A56477  17.300  21.379   7.054
 4246POPC   C4A56478  17.262  21.167   7.438
 4246POPC   C1B56479  17.707  21.207   6.293
 4246POPC   C2B56480  17.855  21.115   6.736
 4246POPC   C3B56481  17.689  21.047   7.171
 4246POPC   C4B56482  17.485  20.715   7.467
 4247POPC   NC356483  21.948  11.540   5.400
 4247POPC   PO456484  22.475  11.102   5.375
 4247POPC   GL156485  22.346  11.420   5.732
 4247POPC   GL256486  22.036  11.260   5.844
 4247POPC   C1A56487  22.250  11.577   6.183
 4247POPC   D2A56488  22.446  11.677   6.572
 4247POPC   C3A56489  22.313  11.415   6.923
 4247POPC   C4A56490  22.081  11.514   7.275
 4247POPC   C1B56491  21.835  11.279   6.268
 4247POPC   C2B56492  21.859  11.494   6.657
 4247POPC   C3B56493  21.749  11.257   7.004
 4247POPC   C4B56494  21.755  11.063   7.419
 4248POPC   NC356495  26.836  41.687   5.452
 4248POPC   PO456496  27.451  41.754   5.652
 4248POPC   GL156497  27.076  41.755   5.912
 4248POPC   GL256498  26.796  41.489   5.915
 4248POPC   C1A56499  27.002  41.764   6.362
 4248POPC   D2A56500  26.870  41.574   6.737
 4248POPC   C3A56501  26.915  41.708   7.138
 4248POPC   C4A56502  26.486  41.809   7.282
 4248POPC   C1B56503  26.551  41.528   6.285
 4248POPC   C2B56504  26.468  41.284   6.652
 4248POPC   C3B56505  26.525  41.353   7.062
 4248POPC   C4B56506  26.801  41.278   7.381
 4249POPC   NC356507  11.421   0.703   5.338
 4249POPC   PO456508  10.921   0.698   5.764
 4249POPC   GL156509  11.136   0.346   5.888
 4249POPC   GL256510  11.386   0.107   5.708
 4249POPC   C1A56511  11.101   0.332   6.309
 4249POPC   D2A56512  11.084   0.605   6.635
 4249POPC   C3A56513  11.267   0.443   6.985
 4249POPC   C4A56514  11.116   0.133   7.283
 4249POPC   C1B56515  11.596   0.299   6.087
 4249POPC   C2B56516  11.585   0.334   6.560
 4249POPC   C3B56517  11.783   0.381   6.978
 4249POPC   C4B56518  11.733   0.145   7.368
 4250POPC   NC356519   0.473  14.954   5.622
 4250POPC   PO456520   0.228  14.298   5.437
 4250POPC   GL156521   0.202  14.551   5.798
 4250POPC   GL256522   0.560  14.484   5.820
 4250POPC   C1A56523   0.275  14.566   6.255
 4250POPC   D2A56524   0.357  14.271   6.597
 4250POPC   C3A56525   0.250  14.380   7.000
 4250POPC   C4A56526   0.533  14.247   7.304
 4250POPC   C1B56527   0.644  14.208   6.158
 4250POPC   C2B56528   0.835  14.452   6.484
 4250POPC   C3B56529   0.769  14.519   6.909
 4250POPC   C4B56530   0.569  14.760   7.189
 4251POPC   NC356531  10.230  14.741   5.464
 4251POPC   PO456532   9.565  14.534   5.419
 4251POPC   GL156533   9.720  14.465   5.842
 4251POPC   GL256534   9.974  14.227   5.775
 4251POPC   C1A56535   9.701  14.440   6.310
 4251POPC   D2A56536   9.554  14.215   6.690
 4251POPC   C3A56537   9.632  14.490   7.043
 4251POPC   C4A56538   9.350  14.701   7.309
 4251POPC   C1B56539  10.208  14.328   6.143
 4251POPC   C2B56540  10.184  14.582   6.508
 4251POPC   C3B56541  10.203  14.497   6.945
 4251POPC   C4B56542  10.034  14.453   7.339
 4252POPC   NC356543  25.422  16.039   5.403
 4252POPC   PO456544  24.744  16.049   5.398
 4252POPC   GL156545  24.914  15.872   5.761
 4252POPC   GL256546  25.185  15.629   5.676
 4252POPC   C1A56547  25.073  16.043   6.170
 4252POPC   D2A56548  25.449  16.096   6.427
 4252POPC   C3A56549  25.308  15.989   6.838
 4252POPC   C4A56550  25.348  16.053   7.263
 4252POPC   C1B56551  25.438  15.707   6.031
 4252POPC   C2B56552  25.392  15.597   6.450
 4252POPC   C3B56553  25.053  15.551   6.711
 4252POPC   C4B56554  25.073  15.635   7.149
 4253POPC   NC356555   0.863  38.857   5.539
 4253POPC   PO456556   0.348  39.381   5.494
 4253POPC   GL156557   0.571  39.265   5.811
 4253POPC   GL256558   0.335  39.055   5.932
 4253POPC   C1A56559   0.625  39.325   6.263
 4253POPC   D2A56560   0.705  39.135   6.651
 4253POPC   C3A56561   0.509  39.290   7.021
 4253POPC   C4A56562   0.301  39.578   7.301
 4253POPC   C1B56563   0.129  38.767   6.197
 4253POPC   C2B56564   0.247  38.706   6.606
 4253POPC   C3B56565   0.084  38.823   7.005
 4253POPC   C4B56566   0.257  39.016   7.359
 4254POPC   NC356567  13.097  16.726   5.445
 4254POPC   PO456568  12.433  16.789   5.439
 4254POPC   GL156569  12.732  16.791   5.790
 4254POPC   GL256570  12.772  16.466   5.798
 4254POPC   C1A56571  12.948  16.777   6.205
 4254POPC   D2A56572  12.940  17.089   6.553
 4254POPC   C3A56573  12.906  16.923   6.986
 4254POPC   C4A56574  13.142  16.694   7.293
 4254POPC   C1B56575  12.620  16.334   6.215
 4254POPC   C2B56576  12.826  16.446   6.633
 4254POPC   C3B56577  12.738  16.427   7.096
 4254POPC   C4B56578  12.610  16.210   7.500
 4255POPC   NC356579   9.426  32.102   5.557
 4255POPC   PO456580   9.776  32.636   5.280
 4255POPC   GL156581   9.831  32.451   5.719
 4255POPC   GL256582   9.538  32.420   5.938
 4255POPC   C1A56583   9.965  32.480   6.176
 4255POPC   D2A56584   9.990  32.358   6.626
 4255POPC   C3A56585   9.762  32.403   7.009
 4255POPC   C4A56586   9.747  32.193   7.455
 4255POPC   C1B56587   9.492  32.200   6.324
 4255POPC   C2B56588   9.307  32.339   6.721
 4255POPC   C3B56589   9.333  32.159   7.116
 4255POPC   C4B56590   9.583  31.786   7.166
 4256POPC   NC356591  26.792   9.229   5.623
 4256POPC   PO456592  26.533   8.666   5.639
 4256POPC   GL156593  26.684   8.813   5.987
 4256POPC   GL256594  26.975   8.881   5.921
 4256POPC   C1A56595  26.710   9.127   6.308
 4256POPC   D2A56596  26.907   8.911   6.639
 4256POPC   C3A56597  26.866   8.945   7.086
 4256POPC   C4A56598  26.777   9.351   7.257
 4256POPC   C1B56599  27.203   9.148   6.221
 4256POPC   C2B56600  27.111   9.421   6.528
 4256POPC   C3B56601  27.214   9.254   6.901
 4256POPC   C4B56602  27.316   9.240   7.308
 4257POPC   NC356603  20.213  29.073   5.378
 4257POPC   PO456604  20.809  28.821   5.316
 4257POPC   GL156605  20.752  29.050   5.771
 4257POPC   GL256606  20.509  29.335   5.877
 4257POPC   C1A56607  20.956  29.298   6.152
 4257POPC   D2A56608  20.907  29.474   6.618
 4257POPC   C3A56609  20.731  29.187   6.976
 4257POPC   C4A56610  20.611  29.234   7.420
 4257POPC   C1B56611  20.467  29.536   6.308
 4257POPC   C2B56612  20.405  29.634   6.776
 4257POPC   C3B56613  20.269  29.559   7.208
 4257POPC   C4B56614  20.048  29.292   7.526
 4258POPC   NC356615  43.987  11.520   5.413
 4258POPC   PO456616  44.114  10.876   5.340
 4258POPC   GL156617  43.946  11.074   5.760
 4258POPC   GL256618  43.654  11.333   5.762
 4258POPC   C1A56619  43.790  10.996   6.209
 4258POPC   D2A56620  43.545  10.937   6.600
 4258POPC   C3A56621  43.786  10.987   6.993
 4258POPC   C4A56622  44.087  11.165   7.292
 4258POPC   C1B56623  43.869  11.489   6.135
 4258POPC   C2B56624  43.934  11.361   6.576
 4258POPC   C3B56625  43.946  11.545   6.978
 4258POPC   C4B56626  43.652  11.423   7.290
 4259POPC   NC356627  43.748  22.510   5.355
 4259POPC   PO456628  44.161  22.018   5.322
 4259POPC   GL156629  44.093  22.016   5.756
 4259POPC   GL256630  43.749  22.096   5.836
 4259POPC   C1A56631  44.146  22.183   6.182
 4259POPC   D2A56632  43.909  22.198   6.586
 4259POPC   C3A56633  44.064  22.333   6.963
 4259POPC   C4A56634  43.843  22.535   7.319
 4259POPC   C1B56635  43.768  21.866   6.232
 4259POPC   C2B56636  44.093  21.721   6.532
 4259POPC   C3B56637  43.988  21.816   6.962
 4259POPC   C4B56638  43.658  22.067   7.159
 4260POPC   NC356639   2.803   5.041   5.397
 4260POPC   PO456640   2.303   5.373   5.664
 4260POPC   GL156641   2.572   5.094   5.843
 4260POPC   GL256642   2.804   5.320   5.901
 4260POPC   C1A56643   2.738   4.877   6.190
 4260POPC   D2A56644   2.951   5.028   6.555
 4260POPC   C3A56645   2.794   4.845   6.900
 4260POPC   C4A56646   2.851   4.909   7.316
 4260POPC   C1B56647   2.649   5.599   6.235
 4260POPC   C2B56648   2.724   5.506   6.662
 4260POPC   C3B56649   2.885   5.370   7.064
 4260POPC   C4B56650   2.770   5.384   7.494
 4261POPC   NC356651  31.688  15.811   5.397
 4261POPC   PO456652  31.361  16.446   5.384
 4261POPC   GL156653  31.231  16.152   5.760
 4261POPC   GL256654  31.308  15.804   5.788
 4261POPC   C1A56655  31.322  16.099   6.227
 4261POPC   D2A56656  31.214  16.215   6.636
 4261POPC   C3A56657  31.370  15.934   6.973
 4261POPC   C4A56658  31.147  15.690   7.300
 4261POPC   C1B56659  31.669  15.748   6.088
 4261POPC   C2B56660  31.751  15.903   6.521
 4261POPC   C3B56661  31.821  15.668   6.909
 4261POPC   C4B56662  31.653  15.632   7.313
 4262POPC   NC356663  23.632  41.222   5.398
 4262POPC   PO456664  23.416  40.530   5.326
 4262POPC   GL156665  23.607  40.583   5.729
 4262POPC   GL256666  23.374  40.364   5.862
 4262POPC   C1A56667  23.847  40.820   6.064
 4262POPC   D2A56668  23.914  40.961   6.495
 4262POPC   C3A56669  23.886  40.709   6.890
 4262POPC   C4A56670  23.714  40.937   7.226
 4262POPC   C1B56671  23.374  40.666   6.217
 4262POPC   C2B56672  23.410  40.753   6.651
 4262POPC   C3B56673  23.346  40.622   7.062
 4262POPC   C4B56674  23.623  40.410   7.321
 4263POPC   NC356675   3.138  10.054   5.365
 4263POPC   PO456676   3.683   9.539   5.236
 4263POPC   GL156677   3.597   9.615   5.704
 4263POPC   GL256678   3.385   9.885   5.793
 4263POPC   C1A56679   3.804   9.889   6.100
 4263POPC   D2A56680   4.065   9.971   6.538
 4263POPC   C3A56681   3.957   9.821   6.961
 4263POPC   C4A56682   3.652   9.549   7.207
 4263POPC   C1B56683   3.405   9.556   6.165
 4263POPC   C2B56684   3.412   9.592   6.630
 4263POPC   C3B56685   3.469   9.959   6.903
 4263POPC   C4B56686   3.586  10.052   7.331
 4264POPC   NC356687   1.657  40.209   5.432
 4264POPC   PO456688   2.290  40.393   5.427
 4264POPC   GL156689   2.072  40.151   5.755
 4264POPC   GL256690   2.228  39.840   5.902
 4264POPC   C1A56691   1.804  40.031   6.124
 4264POPC   D2A56692   1.947  39.805   6.477
 4264POPC   C3A56693   1.787  39.876   6.885
 4264POPC   C4A56694   1.864  40.089   7.262
 4264POPC   C1B56695   2.275  40.192   6.216
 4264POPC   C2B56696   2.497  40.213   6.588
 4264POPC   C3B56697   2.263  40.074   6.913
 4264POPC   C4B56698   2.309  40.350   7.253
 4265POPC   NC356699   7.224  19.896   5.536
 4265POPC   PO456700   7.748  19.632   5.281
 4265POPC   GL156701   7.566  19.570   5.749
 4265POPC   GL256702   7.492  19.874   5.966
 4265POPC   C1A56703   7.334  19.434   6.164
 4265POPC   D2A56704   7.045  19.622   6.479
 4265POPC   C3A56705   7.225  19.713   6.854
 4265POPC   C4A56706   7.459  19.605   7.176
 4265POPC   C1B56707   7.401  20.213   6.257
 4265POPC   C2B56708   7.247  20.190   6.681
 4265POPC   C3B56709   7.256  20.180   7.111
 4265POPC   C4B56710   7.407  20.015   7.470
 4266POPC   NC356711  12.292  21.814   5.403
 4266POPC   PO456712  12.914  22.163   5.397
 4266POPC   GL156713  12.735  22.091   5.790
 4266POPC   GL256714  12.604  21.728   5.784
 4266POPC   C1A56715  12.825  22.307   6.184
 4266POPC   D2A56716  12.779  22.541   6.576
 4266POPC   C3A56717  12.852  22.260   6.923
 4266POPC   C4A56718  12.781  22.345   7.373
 4266POPC   C1B56719  12.480  21.872   6.183
 4266POPC   C2B56720  12.489  22.109   6.566
 4266POPC   C3B56721  12.443  21.980   6.962
 4266POPC   C4B56722  12.666  21.849   7.342
 4267POPC   NC356723  26.461  21.590   4.933
 4267POPC   PO456724  26.067  21.087   5.270
 4267POPC   GL156725  25.935  21.244   5.660
 4267POPC   GL256726  26.130  21.020   5.799
 4267POPC   C1A56727  26.099  21.489   5.996
 4267POPC   D2A56728  26.217  21.594   6.384
 4267POPC   C3A56729  25.944  21.577   6.712
 4267POPC   C4A56730  26.029  21.538   7.130
 4267POPC   C1B56731  25.927  21.025   6.188
 4267POPC   C2B56732  26.030  21.074   6.627
 4267POPC   C3B56733  26.168  21.052   7.055
 4267POPC   C4B56734  26.179  21.195   7.485
 4268POPC   NC356735  32.036  20.944   4.908
 4268POPC   PO456736  31.883  21.550   5.307
 4268POPC   GL156737  32.072  21.416   5.733
 4268POPC   GL256738  32.452  21.301   5.765
 4268POPC   C1A56739  32.141  21.281   6.186
 4268POPC   D2A56740  32.211  21.550   6.539
 4268POPC   C3A56741  32.179  21.370   6.920
 4268POPC   C4A56742  31.963  21.303   7.294
 4268POPC   C1B56743  32.579  21.535   6.155
 4268POPC   C2B56744  32.658  21.782   6.565
 4268POPC   C3B56745  32.620  21.627   7.022
 4268POPC   C4B56746  32.467  21.393   7.396
 4269POPC   NC356747  10.709  44.073   5.419
 4269POPC   PO456748  10.206  43.639   5.373
 4269POPC   GL156749  10.409  43.789   5.760
 4269POPC   GL256750  10.734  43.668   5.752
 4269POPC   C1A56751  10.385  43.953   6.187
 4269POPC   D2A56752  10.215  44.115   6.578
 4269POPC   C3A56753  10.362  43.915   6.950
 4269POPC   C4A56754  10.488  44.064   7.390
 4269POPC   C1B56755  10.888  43.777   6.143
 4269POPC   C2B56756  10.722  43.727   6.550
 4269POPC   C3B56757  10.874  43.830   6.935
 4269POPC   C4B56758  10.813  43.689   7.331
 4270POPC   NC356759  37.602  25.896   5.469
 4270POPC   PO456760  37.243  26.434   5.547
 4270POPC   GL156761  37.405  26.151   5.879
 4270POPC   GL256762  37.343  25.788   5.899
 4270POPC   C1A56763  37.767  26.041   6.154
 4270POPC   D2A56764  37.818  25.957   6.602
 4270POPC   C3A56765  37.732  26.275   6.916
 4270POPC   C4A56766  37.869  26.137   7.309
 4270POPC   C1B56767  37.301  25.885   6.322
 4270POPC   C2B56768  37.343  25.753   6.717
 4270POPC   C3B56769  37.577  25.793   7.051
 4270POPC   C4B56770  37.447  25.844   7.450
 4271POPC   NC356771   5.526  13.664   5.497
 4271POPC   PO456772   6.202  13.815   5.371
 4271POPC   GL156773   5.941  13.869   5.754
 4271POPC   GL256774   5.948  13.496   5.832
 4271POPC   C1A56775   5.766  13.808   6.197
 4271POPC   D2A56776   5.919  13.605   6.570
 4271POPC   C3A56777   5.749  13.707   6.927
 4271POPC   C4A56778   5.803  14.033   7.243
 4271POPC   C1B56779   6.232  13.444   6.214
 4271POPC   C2B56780   6.337  13.297   6.630
 4271POPC   C3B56781   6.054  13.279   6.987
 4271POPC   C4B56782   6.023  13.568   7.328
 4272POPC   NC356783  37.894  20.729   5.520
 4272POPC   PO456784  37.474  21.078   5.066
 4272POPC   GL156785  37.664  21.215   5.569
 4272POPC   GL256786  37.425  21.416   5.795
 4272POPC   C1A56787  37.790  21.274   6.089
 4272POPC   D2A56788  37.861  21.558   6.480
 4272POPC   C3A56789  37.816  21.408   6.927
 4272POPC   C4A56790  37.594  21.234   7.290
 4272POPC   C1B56791  37.440  21.672   6.195
 4272POPC   C2B56792  37.410  21.771   6.652
 4272POPC   C3B56793  37.271  21.544   7.029
 4272POPC   C4B56794  37.270  21.567   7.498
 4273POPC   NC356795  29.576  10.726   5.547
 4273POPC   PO456796  30.232  10.624   5.378
 4273POPC   GL156797  30.077  10.362   5.753
 4273POPC   GL256798  29.729  10.292   5.840
 4273POPC   C1A56799  30.090  10.449   6.202
 4273POPC   D2A56800  30.038  10.810   6.494
 4273POPC   C3A56801  29.981  10.643   6.902
 4273POPC   C4A56802  30.014  10.675   7.354
 4273POPC   C1B56803  29.584  10.543   6.237
 4273POPC   C2B56804  29.500  10.566   6.725
 4273POPC   C3B56805  29.613  10.425   7.164
 4273POPC   C4B56806  29.714  10.348   7.608
 4274POPC   NC356807  35.138  23.032   5.326
 4274POPC   PO456808  35.587  22.589   5.213
 4274POPC   GL156809  35.482  22.779   5.642
 4274POPC   GL256810  35.670  23.097   5.780
 4274POPC   C1A56811  35.368  22.839   6.106
 4274POPC   D2A56812  35.603  22.906   6.497
 4274POPC   C3A56813  35.490  22.991   6.928
 4274POPC   C4A56814  35.571  22.830   7.357
 4274POPC   C1B56815  35.521  23.328   6.192
 4274POPC   C2B56816  35.203  23.245   6.554
 4274POPC   C3B56817  35.052  23.262   7.013
 4274POPC   C4B56818  35.348  23.287   7.350
 4275POPC   NC356819  38.014  22.044   5.486
 4275POPC   PO456820  38.654  21.873   5.576
 4275POPC   GL156821  38.356  22.062   5.893
 4275POPC   GL256822  38.074  22.358   5.873
 4275POPC   C1A56823  38.557  22.076   6.298
 4275POPC   D2A56824  38.786  22.027   6.687
 4275POPC   C3A56825  38.627  22.143   7.103
 4275POPC   C4A56826  38.765  22.163   7.518
 4275POPC   C1B56827  38.215  22.454   6.296
 4275POPC   C2B56828  38.295  22.283   6.729
 4275POPC   C3B56829  38.156  22.340   7.171
 4275POPC   C4B56830  38.387  22.492   7.568
 4276POPC   NC356831   2.006  36.802   5.245
 4276POPC   PO456832   1.326  36.883   5.145
 4276POPC   GL156833   1.192  36.952   5.674
 4276POPC   GL256834   1.451  37.140   5.892
 4276POPC   C1A56835   1.260  36.697   6.101
 4276POPC   D2A56836   0.987  36.428   6.397
 4276POPC   C3A56837   1.128  36.508   6.845
 4276POPC   C4A56838   1.000  36.627   7.292
 4276POPC   C1B56839   1.658  37.144   6.296
 4276POPC   C2B56840   1.534  37.326   6.710
 4276POPC   C3B56841   1.243  37.147   7.036
 4276POPC   C4B56842   1.302  37.036   7.464
 4277POPC   NC356843  35.936  28.850   5.350
 4277POPC   PO456844  36.538  29.043   5.363
 4277POPC   GL156845  36.218  29.119   5.697
 4277POPC   GL256846  36.029  29.420   5.571
 4277POPC   C1A56847  35.965  28.906   6.046
 4277POPC   D2A56848  36.028  28.850   6.502
 4277POPC   C3A56849  35.832  28.927   6.890
 4277POPC   C4A56850  36.008  29.143   7.247
 4277POPC   C1B56851  35.786  29.377   5.968
 4277POPC   C2B56852  35.799  29.359   6.433
 4277POPC   C3B56853  35.767  29.438   6.894
 4277POPC   C4B56854  35.687  29.548   7.320
 4278POPC   NC356855   2.572  41.790   5.665
 4278POPC   PO456856   2.703  41.160   5.443
 4278POPC   GL156857   2.777  41.309   5.811
 4278POPC   GL256858   3.077  41.126   5.854
 4278POPC   C1A56859   2.561  41.408   6.203
 4278POPC   D2A56860   2.387  41.602   6.586
 4278POPC   C3A56861   2.528  41.532   7.014
 4278POPC   C4A56862   2.663  41.611   7.444
 4278POPC   C1B56863   3.104  41.288   6.224
 4278POPC   C2B56864   2.863  41.310   6.585
 4278POPC   C3B56865   2.774  41.092   6.907
 4278POPC   C4B56866   2.891  41.148   7.294
 4279POPC   NC356867  15.014  38.879   5.186
 4279POPC   PO456868  15.315  38.220   5.417
 4279POPC   GL156869  15.151  38.439   5.800
 4279POPC   GL256870  15.367  38.717   5.921
 4279POPC   C1A56871  15.254  38.372   6.256
 4279POPC   D2A56872  15.056  38.419   6.636
 4279POPC   C3A56873  15.256  38.377   7.032
 4279POPC   C4A56874  15.085  38.320   7.455
 4279POPC   C1B56875  15.378  38.887   6.330
 4279POPC   C2B56876  15.320  38.861   6.758
 4279POPC   C3B56877  15.571  38.771   7.092
 4279POPC   C4B56878  15.427  38.699   7.506
 4280POPC   NC356879   6.961  22.255   5.343
 4280POPC   PO456880   7.451  21.803   5.457
 4280POPC   GL156881   7.264  22.001   5.793
 4280POPC   GL256882   7.335  22.363   5.837
 4280POPC   C1A56883   7.257  22.024   6.219
 4280POPC   D2A56884   7.400  22.209   6.564
 4280POPC   C3A56885   7.342  22.017   6.943
 4280POPC   C4A56886   7.024  21.979   7.238
 4280POPC   C1B56887   7.737  22.296   6.082
 4280POPC   C2B56888   7.858  22.405   6.530
 4280POPC   C3B56889   7.767  22.322   6.975
 4280POPC   C4B56890   7.703  22.285   7.422
 4281POPC   NC356891  26.309  15.826   5.405
 4281POPC   PO456892  25.638  15.601   5.366
 4281POPC   GL156893  25.855  15.782   5.712
 4281POPC   GL256894  26.147  15.622   5.835
 4281POPC   C1A56895  25.903  15.942   6.142
 4281POPC   D2A56896  25.946  16.220   6.489
 4281POPC   C3A56897  25.811  15.988   6.845
 4281POPC   C4A56898  25.846  16.174   7.249
 4281POPC   C1B56899  26.312  15.528   6.229
 4281POPC   C2B56900  26.181  15.750   6.561
 4281POPC   C3B56901  26.339  16.042   6.837
 4281POPC   C4B56902  26.179  15.793   7.136
 4282POPC   NC356903  30.889  26.924   5.539
 4282POPC   PO456904  30.312  26.650   5.650
 4282POPC   GL156905  30.585  26.711   5.947
 4282POPC   GL256906  30.890  26.519   5.853
 4282POPC   C1A56907  30.453  26.757   6.378
 4282POPC   D2A56908  30.384  26.707   6.801
 4282POPC   C3A56909  30.638  26.942   7.110
 4282POPC   C4A56910  30.642  26.756   7.496
 4282POPC   C1B56911  30.972  26.719   6.266
 4282POPC   C2B56912  30.917  26.803   6.705
 4282POPC   C3B56913  31.021  26.612   7.123
 4282POPC   C4B56914  31.094  26.586   7.612
 4283POPC   NC356915  22.433   4.551   5.525
 4283POPC   PO456916  21.985   4.141   5.333
 4283POPC   GL156917  22.026   4.134   5.782
 4283POPC   GL256918  22.368   4.154   5.909
 4283POPC   C1A56919  21.988   4.292   6.219
 4283POPC   D2A56920  22.258   4.246   6.596
 4283POPC   C3A56921  22.097   4.281   7.010
 4283POPC   C4A56922  22.281   4.224   7.404
 4283POPC   C1B56923  22.461   4.525   6.208
 4283POPC   C2B56924  22.382   4.739   6.634
 4283POPC   C3B56925  22.511   4.587   7.081
 4283POPC   C4B56926  22.554   4.642   7.554
 4284POPC   NC356927  29.348  39.691   5.436
 4284POPC   PO456928  29.019  40.299   5.442
 4284POPC   GL156929  29.196  40.079   5.791
 4284POPC   GL256930  29.099  39.723   5.882
 4284POPC   C1A56931  29.376  40.007   6.190
 4284POPC   D2A56932  29.596  40.216   6.506
 4284POPC   C3A56933  29.346  40.275   6.877
 4284POPC   C4A56934  29.258  40.033   7.247
 4284POPC   C1B56935  28.847  39.919   6.188
 4284POPC   C2B56936  28.906  40.042   6.624
 4284POPC   C3B56937  28.773  39.875   7.007
 4284POPC   C4B56938  28.839  39.840   7.442
 4285POPC   NC356939  44.891  28.405   5.257
 4285POPC   PO456940  44.547  28.783   5.707
 4285POPC   GL156941  44.783  28.553   5.950
 4285POPC   GL256942  44.887  28.227   5.762
 4285POPC   C1A56943  44.517  28.454   6.340
 4285POPC   D2A56944  44.210  28.421   6.701
 4285POPC   C3A56945  44.365  28.558   7.111
 4285POPC   C4A56946  44.329  28.918   7.377
 4285POPC   C1B56947  44.932  28.167   6.233
 4285POPC   C2B56948  44.952  28.456   6.615
 4285POPC   C3B56949   0.101  28.420   7.042
 4285POPC   C4B56950   0.021  28.195   7.421
 4286POPC   NC356951  22.799  37.052   5.115
 4286POPC   PO456952  22.770  36.501   5.449
 4286POPC   GL156953  22.873  36.775   5.773
 4286POPC   GL256954  22.715  37.068   5.811
 4286POPC   C1A56955  23.076  36.836   6.159
 4286POPC   D2A56956  22.931  36.718   6.587
 4286POPC   C3A56957  23.086  36.854   6.983
 4286POPC   C4A56958  23.100  36.928   7.428
 4286POPC   C1B56959  22.584  36.963   6.224
 4286POPC   C2B56960  22.665  37.198   6.603
 4286POPC   C3B56961  22.637  37.109   7.033
 4286POPC   C4B56962  22.641  37.123   7.493
 4287POPC   NC356963   2.632   6.644   5.252
 4287POPC   PO456964   3.086   7.082   5.416
 4287POPC   GL156965   2.836   6.805   5.732
 4287POPC   GL256966   2.997   6.479   5.722
 4287POPC   C1A56967   2.696   6.614   6.157
 4287POPC   D2A56968   2.633   6.661   6.621
 4287POPC   C3A56969   2.590   6.371   6.947
 4287POPC   C4A56970   2.606   6.465   7.351
 4287POPC   C1B56971   3.172   6.410   6.135
 4287POPC   C2B56972   3.123   6.622   6.478
 4287POPC   C3B56973   3.095   6.553   6.934
 4287POPC   C4B56974   3.065   6.246   7.268
 4288POPC   NC356975  35.424  28.021   5.574
 4288POPC   PO456976  35.366  27.407   5.314
 4288POPC   GL156977  35.513  27.487   5.708
 4288POPC   GL256978  35.677  27.186   5.705
 4288POPC   C1A56979  35.300  27.574   6.106
 4288POPC   D2A56980  35.084  27.425   6.474
 4288POPC   C3A56981  35.164  27.674   6.821
 4288POPC   C4A56982  35.389  27.614   7.192
 4288POPC   C1B56983  35.394  27.064   6.038
 4288POPC   C2B56984  35.347  26.992   6.477
 4288POPC   C3B56985  35.437  27.231   6.838
 4288POPC   C4B56986  35.645  27.169   7.246
 4289POPC   NC356987  30.021   9.292   5.371
 4289POPC   PO456988  29.585   8.841   5.368
 4289POPC   GL156989  29.691   8.923   5.791
 4289POPC   GL256990  30.015   9.003   5.822
 4289POPC   C1A56991  29.625   8.969   6.245
 4289POPC   D2A56992  29.497   8.991   6.687
 4289POPC   C3A56993  29.793   9.037   7.067
 4289POPC   C4A56994  29.952   8.681   7.302
 4289POPC   C1B56995  30.108   9.198   6.208
 4289POPC   C2B56996  30.022   9.120   6.607
 4289POPC   C3B56997  30.267   9.150   6.939
 4289POPC   C4B56998  30.338   9.021   7.322
 4290POPC   NC356999  32.018  34.828   5.434
 4290POPC   PO457000  32.669  34.759   5.625
 4290POPC   GL157001  32.360  34.597   5.890
 4290POPC   GL257002  32.288  34.252   5.821
 4290POPC   C1A57003  32.490  34.527   6.317
 4290POPC   D2A57004  32.556  34.736   6.709
 4290POPC   C3A57005  32.341  34.571   7.079
 4290POPC   C4A57006  31.870  34.586   7.135
 4290POPC   C1B57007  32.234  34.101   6.249
 4290POPC   C2B57008  32.167  34.269   6.688
 4290POPC   C3B57009  32.072  34.117   7.125
 4290POPC   C4B57010  31.950  34.069   7.605
 4291POPC   NC357011   8.542  42.337   5.447
 4291POPC   PO457012   7.864  42.381   5.353
 4291POPC   GL157013   8.049  42.178   5.761
 4291POPC   GL257014   8.383  42.103   5.888
 4291POPC   C1A57015   8.033  42.281   6.228
 4291POPC   D2A57016   7.795  42.543   6.497
 4291POPC   C3A57017   8.004  42.486   6.884
 4291POPC   C4A57018   8.253  42.151   7.089
 4291POPC   C1B57019   8.472  42.490   6.100
 4291POPC   C2B57020   8.539  42.557   6.541
 4291POPC   C3B57021   8.490  42.630   6.976
 4291POPC   C4B57022   8.246  42.579   7.344
 4292POPC   NC357023  30.148  18.564   5.425
 4292POPC   PO457024  29.749  18.090   5.479
 4292POPC   GL157025  29.807  18.350   5.815
 4292POPC   GL257026  30.129  18.253   5.837
 4292POPC   C1A57027  29.848  18.300   6.269
 4292POPC   D2A57028  29.872  18.022   6.622
 4292POPC   C3A57029  29.895  18.255   7.014
 4292POPC   C4A57030  29.790  18.584   7.320
 4292POPC   C1B57031  30.097  18.703   6.059
 4292POPC   C2B57032  30.017  18.789   6.507
 4292POPC   C3B57033  30.193  18.750   6.936
 4292POPC   C4B57034  30.309  18.458   7.229
 4293POPC   NC357035   9.544  28.695   5.469
 4293POPC   PO457036   9.676  29.314   5.461
 4293POPC   GL157037   9.546  29.136   5.831
 4293POPC   GL257038   9.845  29.162   5.978
 4293POPC   C1A57039   9.425  29.005   6.277
 4293POPC   D2A57040   9.615  28.867   6.683
 4293POPC   C3A57041   9.734  29.161   7.023
 4293POPC   C4A57042   9.839  29.388   7.375
 4293POPC   C1B57043  10.000  29.477   6.280
 4293POPC   C2B57044   9.866  29.612   6.711
 4293POPC   C3B57045  10.138  29.684   7.071
 4293POPC   C4B57046  10.108  29.785   7.540
 4294POPC   NC357047  31.814   5.833   5.470
 4294POPC   PO457048  31.266   5.638   5.549
 4294POPC   GL157049  31.458   5.682   5.924
 4294POPC   GL257050  31.664   5.405   5.811
 4294POPC   C1A57051  31.244   5.832   6.320
 4294POPC   D2A57052  31.283   6.150   6.646
 4294POPC   C3A57053  31.401   6.135   7.061
 4294POPC   C4A57054  31.600   6.424   7.348
 4294POPC   C1B57055  31.830   5.454   6.240
 4294POPC   C2B57056  31.655   5.663   6.585
 4294POPC   C3B57057  31.575   5.652   7.002
 4294POPC   C4B57058  31.162   5.719   7.192
 4295POPC   NC357059  20.996  38.471   5.534
 4295POPC   PO457060  21.660  38.724   5.526
 4295POPC   GL157061  21.389  38.646   5.859
 4295POPC   GL257062  21.452  38.295   5.943
 4295POPC   C1A57063  21.141  38.624   6.254
 4295POPC   D2A57064  21.117  38.456   6.693
 4295POPC   C3A57065  21.226  38.700   7.090
 4295POPC   C4A57066  21.263  38.509   7.524
 4295POPC   C1B57067  21.657  38.537   6.313
 4295POPC   C2B57068  21.628  38.549   6.781
 4295POPC   C3B57069  21.479  38.251   7.086
 4295POPC   C4B57070  21.733  38.040   7.376
 4296POPC   NC357071  38.862   5.756   5.593
 4296POPC   PO457072  38.221   5.598   5.490
 4296POPC   GL157073  38.397   5.761   5.848
 4296POPC   GL257074  38.347   6.128   5.788
 4296POPC   C1A57075  38.524   5.525   6.215
 4296POPC   D2A57076  38.548   5.322   6.619
 4296POPC   C3A57077  38.474   5.633   6.941
 4296POPC   C4A57078  38.553   5.803   7.364
 4296POPC   C1B57079  38.237   6.089   6.239
 4296POPC   C2B57080  38.355   6.065   6.689
 4296POPC   C3B57081  38.219   6.173   7.124
 4296POPC   C4B57082  38.244   6.154   7.572
 4297POPC   NC357083   1.794  25.710   5.440
 4297POPC   PO457084   1.813  26.471   5.517
 4297POPC   GL157085   1.969  26.251   5.831
 4297POPC   GL257086   2.114  25.944   5.745
 4297POPC   C1A57087   1.997  26.098   6.245
 4297POPC   D2A57088   1.834  26.277   6.601
 4297POPC   C3A57089   1.989  26.251   6.955
 4297POPC   C4A57090   1.755  26.137   7.262
 4297POPC   C1B57091   2.270  25.681   6.089
 4297POPC   C2B57092   2.396  25.745   6.505
 4297POPC   C3B57093   2.341  25.887   6.912
 4297POPC   C4B57094   2.338  25.702   7.281
 4298POPC   NC357095  22.211   8.550   5.353
 4298POPC   PO457096  22.282   9.194   5.356
 4298POPC   GL157097  22.357   8.951   5.711
 4298POPC   GL257098  22.055   8.776   5.823
 4298POPC   C1A57099  22.479   9.034   6.164
 4298POPC   D2A57100  22.298   8.948   6.653
 4298POPC   C3A57101  22.407   9.182   7.070
 4298POPC   C4A57102  22.156   8.943   7.406
 4298POPC   C1B57103  21.985   9.030   6.218
 4298POPC   C2B57104  21.854   9.261   6.588
 4298POPC   C3B57105  21.915   9.174   6.995
 4298POPC   C4B57106  21.951   9.402   7.371
 4299POPC   NC357107  31.767  16.629   5.236
 4299POPC   PO457108  31.338  16.958   5.675
 4299POPC   GL157109  31.369  16.573   6.007
 4299POPC   GL257110  31.699  16.293   5.957
 4299POPC   C1A57111  31.553  16.531   6.426
 4299POPC   D2A57112  31.685  16.318   6.812
 4299POPC   C3A57113  31.323  16.440   7.085
 4299POPC   C4A57114  31.181  16.896   7.140
 4299POPC   C1B57115  32.020  16.495   6.260
 4299POPC   C2B57116  32.005  16.781   6.603
 4299POPC   C3B57117  31.663  16.815   6.898
 4299POPC   C4B57118  31.768  16.577   7.255
 4300POPC   NC357119  25.103  25.321   5.316
 4300POPC   PO457120  25.544  24.883   5.388
 4300POPC   GL157121  25.334  24.901   5.792
 4300POPC   GL257122  25.004  25.077   5.780
 4300POPC   C1A57123  25.496  25.033   6.209
 4300POPC   D2A57124  25.689  25.260   6.566
 4300POPC   C3A57125  25.483  25.246   6.961
 4300POPC   C4A57126  25.557  25.501   7.326
 4300POPC   C1B57127  24.771  25.008   6.173
 4300POPC   C2B57128  24.834  24.870   6.610
 4300POPC   C3B57129  24.938  25.074   7.014
 4300POPC   C4B57130  25.031  25.493   7.230
 4301POPC   NC357131  42.629   8.748   5.454
 4301POPC   PO457132  42.283   8.171   5.228
 4301POPC   GL157133  42.524   8.230   5.628
 4301POPC   GL257134  42.203   8.189   5.856
 4301POPC   C1A57135  42.659   8.334   6.047
 4301POPC   D2A57136  42.405   8.208   6.364
 4301POPC   C3A57137  42.395   8.376   6.752
 4301POPC   C4A57138  42.599   8.191   7.097
 4301POPC   C1B57139  41.895   8.221   6.210
 4301POPC   C2B57140  41.883   8.321   6.672
 4301POPC   C3B57141  42.035   8.350   7.105
 4301POPC   C4B57142  41.952   8.010   7.361
 4302POPC   NC357143  28.188  39.241   5.431
 4302POPC   PO457144  28.858  39.484   5.508
 4302POPC   GL157145  28.536  39.305   5.866
 4302POPC   GL257146  28.311  39.026   5.874
 4302POPC   C1A57147  28.299  39.200   6.324
 4302POPC   D2A57148  28.148  39.451   6.667
 4302POPC   C3A57149  28.476  39.428   6.969
 4302POPC   C4A57150  28.792  39.122   7.098
 4302POPC   C1B57151  28.706  38.898   6.143
 4302POPC   C2B57152  28.629  38.803   6.584
 4302POPC   C3B57153  28.256  38.926   6.823
 4302POPC   C4B57154  28.308  39.027   7.247
 4303POPC   NC357155  20.830   9.759   5.577
 4303POPC   PO457156  21.492   9.718   5.388
 4303POPC   GL157157  21.511   9.717   5.815
 4303POPC   GL257158  21.481  10.066   5.888
 4303POPC   C1A57159  21.246   9.576   6.124
 4303POPC   D2A57160  21.000   9.678   6.503
 4303POPC   C3A57161  21.196   9.577   6.895
 4303POPC   C4A57162  21.211   9.802   7.284
 4303POPC   C1B57163  21.403  10.009   6.349
 4303POPC   C2B57164  21.573   9.918   6.762
 4303POPC   C3B57165  21.690   9.764   7.155
 4303POPC   C4B57166  21.602   9.950   7.590
 4304POPC   NC357167   7.364  11.624   4.933
 4304POPC   PO457168   7.486  11.396   5.546
 4304POPC   GL157169   7.369  11.239   5.888
 4304POPC   GL257170   7.683  11.320   6.015
 4304POPC   C1A57171   7.186  11.364   6.250
 4304POPC   D2A57172   7.348  11.380   6.637
 4304POPC   C3A57173   7.256  11.106   6.970
 4304POPC   C4A57174   6.988  11.370   7.216
 4304POPC   C1B57175   7.903  11.346   6.357
 4304POPC   C2B57176   7.818  11.493   6.734
 4304POPC   C3B57177   7.598  11.489   7.096
 4304POPC   C4B57178   7.869  11.404   7.411
 4305POPC   NC357179  13.680  19.117   5.318
 4305POPC   PO457180  13.904  18.536   5.542
 4305POPC   GL157181  13.667  18.842   5.791
 4305POPC   GL257182  13.724  19.222   5.808
 4305POPC   C1A57183  13.532  18.832   6.213
 4305POPC   D2A57184  13.665  18.988   6.617
 4305POPC   C3A57185  13.634  18.798   7.011
 4305POPC   C4A57186  13.550  18.999   7.417
 4305POPC   C1B57187  13.881  19.246   6.223
 4305POPC   C2B57188  14.056  19.293   6.633
 4305POPC   C3B57189  13.876  19.246   7.067
 4305POPC   C4B57190  13.979  19.215   7.515
 4306POPC   NC357191  28.851  35.370   5.338
 4306POPC   PO457192  28.186  35.303   5.220
 4306POPC   GL157193  28.390  35.293   5.715
 4306POPC   GL257194  28.738  35.295   5.822
 4306POPC   C1A57195  28.342  35.491   6.173
 4306POPC   D2A57196  28.408  35.691   6.581
 4306POPC   C3A57197  28.240  35.553   7.007
 4306POPC   C4A57198  28.000  35.506   7.407
 4306POPC   C1B57199  28.704  35.131   6.238
 4306POPC   C2B57200  28.453  35.178   6.586
 4306POPC   C3B57201  28.119  35.088   6.822
 4306POPC   C4B57202  28.291  35.047   7.219
 4307POPC   NC357203  44.780  42.642   5.306
 4307POPC   PO457204   0.013  42.017   5.335
 4307POPC   GL157205  44.713  42.166   5.691
 4307POPC   GL257206  44.682  42.487   5.790
 4307POPC   C1A57207  44.687  42.143   6.161
 4307POPC   D2A57208  44.805  42.386   6.528
 4307POPC   C3A57209  44.886  42.160   6.877
 4307POPC   C4A57210  44.807  42.291   7.271
 4307POPC   C1B57211  44.475  42.633   6.185
 4307POPC   C2B57212  44.322  42.523   6.608
 4307POPC   C3B57213  44.506  42.592   6.991
 4307POPC   C4B57214  44.270  42.742   7.316
 4308POPC   NC357215  18.562   9.417   5.508
 4308POPC   PO457216  17.922   9.658   5.381
 4308POPC   GL157217  18.216   9.771   5.719
 4308POPC   GL257218  18.467  10.032   5.767
 4308POPC   C1A57219  18.145   9.866   6.158
 4308POPC   D2A57220  18.279   9.993   6.588
 4308POPC   C3A57221  18.289   9.611   6.854
 4308POPC   C4A57222  17.962   9.420   7.121
 4308POPC   C1B57223  18.655   9.990   6.197
 4308POPC   C2B57224  18.786   9.933   6.639
 4308POPC   C3B57225  18.573  10.000   7.052
 4308POPC   C4B57226  18.122  10.034   7.120
 4309POPC   NC357227  35.615  32.188   5.277
 4309POPC   PO457228  36.292  32.131   5.466
 4309POPC   GL157229  36.121  32.246   5.826
 4309POPC   GL257230  35.814  32.373   5.709
 4309POPC   C1A57231  36.064  32.057   6.221
 4309POPC   D2A57232  36.180  31.968   6.643
 4309POPC   C3A57233  36.310  32.152   7.016
 4309POPC   C4A57234  36.159  32.172   7.422
 4309POPC   C1B57235  35.695  32.413   6.140
 4309POPC   C2B57236  35.915  32.435   6.531
 4309POPC   C3B57237  35.816  32.281   6.921
 4309POPC   C4B57238  35.794  32.511   7.301
 4310POPC   NC357239  20.506  40.362   5.381
 4310POPC   PO457240  20.388  39.681   5.384
 4310POPC   GL157241  20.540  39.920   5.730
 4310POPC   GL257242  20.202  39.972   5.826
 4310POPC   C1A57243  20.812  39.895   6.103
 4310POPC   D2A57244  21.049  39.855   6.493
 4310POPC   C3A57245  20.795  39.822   6.876
 4310POPC   C4A57246  20.854  40.105   7.209
 4310POPC   C1B57247  20.375  40.190   6.192
 4310POPC   C2B57248  20.533  40.213   6.619
 4310POPC   C3B57249  20.370  40.159   7.046
 4310POPC   C4B57250  20.419  39.991   7.464
 4311POPC   NC357251  34.275   1.309   5.444
 4311POPC   PO457252  34.885   1.262   5.433
 4311POPC   GL157253  34.654   1.282   5.813
 4311POPC   GL257254  34.444   0.983   5.808
 4311POPC   C1A57255  34.598   1.167   6.261
 4311POPC   D2A57256  34.665   1.407   6.627
 4311POPC   C3A57257  34.460   1.483   7.028
 4311POPC   C4A57258  34.747   1.510   7.376
 4311POPC   C1B57259  34.149   0.944   6.178
 4311POPC   C2B57260  34.312   0.886   6.601
 4311POPC   C3B57261  34.598   0.976   6.949
 4311POPC   C4B57262  34.483   1.056   7.367
 4312POPC   NC357263   4.517   8.370   5.402
 4312POPC   PO457264   3.888   8.147   5.486
 4312POPC   GL157265   4.119   8.201   5.846
 4312POPC   GL257266   4.317   8.487   5.877
 4312POPC   C1A57267   4.078   8.018   6.249
 4312POPC   D2A57268   4.305   7.886   6.582
 4312POPC   C3A57269   4.227   7.998   6.979
 4312POPC   C4A57270   4.567   8.125   7.208
 4312POPC   C1B57271   4.253   8.501   6.331
 4312POPC   C2B57272   4.291   8.459   6.789
 4312POPC   C3B57273   4.177   8.466   7.208
 4312POPC   C4B57274   4.501   8.566   7.498
 4313POPC   NC357275   6.890  41.630   5.075
 4313POPC   PO457276   6.442  41.800   5.529
 4313POPC   GL157277   6.449  41.545   5.903
 4313POPC   GL257278   6.775  41.374   6.022
 4313POPC   C1A57279   6.554  41.700   6.333
 4313POPC   D2A57280   6.751  41.572   6.719
 4313POPC   C3A57281   6.555  41.705   7.098
 4313POPC   C4A57282   6.375  41.757   7.512
 4313POPC   C1B57283   6.727  41.152   6.413
 4313POPC   C2B57284   6.685  41.085   6.850
 4313POPC   C3B57285   6.831  41.278   7.214
 4313POPC   C4B57286   6.979  41.136   7.617
 4314POPC   NC357287   6.588   1.542   5.412
 4314POPC   PO457288   6.911   1.060   5.093
 4314POPC   GL157289   6.814   1.043   5.566
 4314POPC   GL257290   6.441   1.114   5.692
 4314POPC   C1A57291   6.784   0.926   6.048
 4314POPC   D2A57292   6.511   0.909   6.461
 4314POPC   C3A57293   6.652   1.126   6.853
 4314POPC   C4A57294   6.712   1.096   7.292
 4314POPC   C1B57295   6.264   1.237   6.132
 4314POPC   C2B57296   6.294   1.389   6.592
 4314POPC   C3B57297   6.188   1.228   7.036
 4314POPC   C4B57298   6.292   1.269   7.503
 4315POPC   NC357299  29.623   7.665   5.419
 4315POPC   PO457300  30.117   7.213   5.363
 4315POPC   GL157301  29.795   7.251   5.725
 4315POPC   GL257302  29.667   7.572   5.908
 4315POPC   C1A57303  29.892   7.229   6.184
 4315POPC   D2A57304  30.255   7.180   6.433
 4315POPC   C3A57305  30.214   7.176   6.869
 4315POPC   C4A57306  29.811   7.175   7.079
 4315POPC   C1B57307  29.751   7.748   6.297
 4315POPC   C2B57308  29.895   7.510   6.639
 4315POPC   C3B57309  30.032   7.632   7.033
 4315POPC   C4B57310  29.659   7.743   7.163
 4316POPC   NC357311   9.330  22.603   5.397
 4316POPC   PO457312   9.865  22.954   5.379
 4316POPC   GL157313   9.708  22.738   5.733
 4316POPC   GL257314   9.969  22.546   5.861
 4316POPC   C1A57315   9.525  22.848   6.143
 4316POPC   D2A57316   9.722  22.729   6.534
 4316POPC   C3A57317   9.572  22.913   6.908
 4316POPC   C4A57318   9.692  22.833   7.284
 4316POPC   C1B57319  10.035  22.902   6.128
 4316POPC   C2B57320  10.216  22.928   6.552
 4316POPC   C3B57321  10.075  22.686   6.933
 4316POPC   C4B57322  10.195  22.752   7.375
 4317POPC   NC357323  18.892  31.384   5.461
 4317POPC   PO457324  19.407  31.781   5.236
 4317POPC   GL157325  19.303  31.670   5.701
 4317POPC   GL257326  18.964  31.717   5.811
 4317POPC   C1A57327  19.245  31.409   6.100
 4317POPC   D2A57328  19.260  31.292   6.535
 4317POPC   C3A57329  19.131  31.445   6.939
 4317POPC   C4A57330  19.016  31.258   7.331
 4317POPC   C1B57331  18.760  31.616   6.161
 4317POPC   C2B57332  18.838  31.633   6.564
 4317POPC   C3B57333  18.739  31.817   6.960
 4317POPC   C4B57334  18.990  31.774   7.288
 4318POPC   NC357335  32.217  41.126   5.609
 4318POPC   PO457336  32.656  41.600   5.381
 4318POPC   GL157337  32.396  41.624   5.749
 4318POPC   GL257338  32.109  41.854   5.795
 4318POPC   C1A57339  32.258  41.480   6.144
 4318POPC   D2A57340  32.302  41.183   6.452
 4318POPC   C3A57341  32.224  41.320   6.805
 4318POPC   C4A57342  32.273  41.218   7.188
 4318POPC   C1B57343  32.215  42.047   6.171
 4318POPC   C2B57344  32.307  42.046   6.613
 4318POPC   C3B57345  31.986  41.905   6.919
 4318POPC   C4B57346  32.007  41.637   7.259
 4319POPC   NC357347   8.987  35.069   5.539
 4319POPC   PO457348   8.775  35.671   5.727
 4319POPC   GL157349   8.838  35.312   5.947
 4319POPC   GL257350   9.123  35.498   6.107
 4319POPC   C1A57351   9.047  35.009   6.219
 4319POPC   D2A57352   8.937  34.901   6.609
 4319POPC   C3A57353   8.973  35.217   6.925
 4319POPC   C4A57354   8.928  35.158   7.389
 4319POPC   C1B57355   8.712  35.509   6.387
 4319POPC   C2B57356   8.507  35.368   6.774
 4319POPC   C3B57357   8.643  35.513   7.184
 4319POPC   C4B57358   8.640  35.503   7.658
 4320POPC   NC357359  27.776   7.957   5.339
 4320POPC   PO457360  27.677   7.296   5.402
 4320POPC   GL157361  27.677   7.521   5.791
 4320POPC   GL257362  27.981   7.758   5.799
 4320POPC   C1A57363  27.454   7.421   6.188
 4320POPC   D2A57364  27.453   7.603   6.603
 4320POPC   C3A57365  27.434   7.335   6.895
 4320POPC   C4A57366  27.531   7.179   7.255
 4320POPC   C1B57367  27.877   7.740   6.246
 4320POPC   C2B57368  28.034   7.718   6.678
 4320POPC   C3B57369  27.826   7.789   7.065
 4320POPC   C4B57370  27.390   7.758   7.176
 4321POPC   NC357371  17.936   6.428   5.463
 4321POPC   PO457372  18.391   6.119   5.418
 4321POPC   GL157373  18.330   6.090   5.869
 4321POPC   GL257374  18.056   6.291   5.949
 4321POPC   C1A57375  18.231   5.848   6.259
 4321POPC   D2A57376  18.459   5.657   6.622
 4321POPC   C3A57377  18.238   5.552   7.008
 4321POPC   C4A57378  18.379   5.584   7.482
 4321POPC   C1B57379  18.246   6.350   6.357
 4321POPC   C2B57380  18.184   6.093   6.736
 4321POPC   C3B57381  18.316   6.014   7.163
 4321POPC   C4B57382  18.201   6.209   7.532
 4322POPC   NC357383  40.293   4.207   5.268
 4322POPC   PO457384  39.730   4.620   5.439
 4322POPC   GL157385  39.929   4.454   5.838
 4322POPC   GL257386  39.994   4.125   5.826
 4322POPC   C1A57387  40.045   4.404   6.303
 4322POPC   D2A57388  39.797   4.402   6.725
 4322POPC   C3A57389  39.898   4.463   7.176
 4322POPC   C4A57390  40.247   4.395   7.479
 4322POPC   C1B57391  39.929   3.887   6.218
 4322POPC   C2B57392  40.086   3.972   6.617
 4322POPC   C3B57393  40.232   4.085   7.034
 4322POPC   C4B57394  39.946   3.980   7.382
 4323POPC   NC357395  25.064  11.143   5.126
 4323POPC   PO457396  25.468  11.693   5.336
 4323POPC   GL157397  25.426  11.359   5.702
 4323POPC   GL257398  25.635  11.025   5.731
 4323POPC   C1A57399  25.256  11.283   6.141
 4323POPC   D2A57400  25.079  11.492   6.507
 4323POPC   C3A57401  25.199  11.498   6.930
 4323POPC   C4A57402  24.986  11.640   7.314
 4323POPC   C1B57403  25.516  10.851   6.164
 4323POPC   C2B57404  25.320  10.968   6.572
 4323POPC   C3B57405  25.508  11.042   6.996
 4323POPC   C4B57406  25.308  10.930   7.417
 4324POPC   NC357407  16.387  13.176   5.267
 4324POPC   PO457408  16.998  12.914   5.341
 4324POPC   GL157409  16.803  12.997   5.755
 4324POPC   GL257410  16.822  12.639   5.907
 4324POPC   C1A57411  16.570  13.011   6.170
 4324POPC   D2A57412  16.546  12.845   6.599
 4324POPC   C3A57413  16.521  13.077   6.981
 4324POPC   C4A57414  16.264  13.254   7.331
 4324POPC   C1B57415  16.551  12.447   6.237
 4324POPC   C2B57416  16.601  12.342   6.685
 4324POPC   C3B57417  16.725  12.589   7.093
 4324POPC   C4B57418  16.774  12.589   7.590
 4325POPC   NC357419   6.344  23.254   5.530
 4325POPC   PO457420   5.746  23.033   5.204
 4325POPC   GL157421   5.751  22.853   5.660
 4325POPC   GL257422   5.911  23.128   5.808
 4325POPC   C1A57423   5.672  22.800   6.174
 4325POPC   D2A57424   5.791  22.478   6.536
 4325POPC   C3A57425   5.829  22.586   6.978
 4325POPC   C4A57426   5.615  22.733   7.341
 4325POPC   C1B57427   6.102  23.107   6.213
 4325POPC   C2B57428   5.972  22.987   6.635
 4325POPC   C3B57429   5.670  23.073   6.946
 4325POPC   C4B57430   5.528  23.340   7.256
 4326POPC   NC357431  10.019  29.561   5.269
 4326POPC   PO457432   9.408  29.879   5.350
 4326POPC   GL157433   9.650  29.919   5.765
 4326POPC   GL257434   9.720  29.636   5.841
 4326POPC   C1A57435   9.891  29.989   6.174
 4326POPC   D2A57436   9.998  30.276   6.520
 4326POPC   C3A57437   9.933  30.124   6.928
 4326POPC   C4A57438   9.693  29.862   7.217
 4326POPC   C1B57439   9.483  29.515   6.176
 4326POPC   C2B57440   9.247  29.579   6.544
 4326POPC   C3B57441   9.377  29.553   6.971
 4326POPC   C4B57442   9.329  29.441   7.405
 4327POPC   NC357443  10.108   3.495   5.519
 4327POPC   PO457444  10.348   4.062   5.415
 4327POPC   GL157445  10.040   3.914   5.834
 4327POPC   GL257446   9.789   3.599   5.905
 4327POPC   C1A57447  10.058   3.745   6.302
 4327POPC   D2A57448   9.889   3.499   6.692
 4327POPC   C3A57449   9.966   3.612   7.139
 4327POPC   C4A57450  10.102   3.525   7.572
 4327POPC   C1B57451   9.546   3.424   6.292
 4327POPC   C2B57452   9.372   3.517   6.720
 4327POPC   C3B57453   9.456   3.658   7.160
 4327POPC   C4B57454   9.592   3.654   7.599
 4328POPC   NC357455   1.722  22.642   5.151
 4328POPC   PO457456   2.291  22.964   5.403
 4328POPC   GL157457   2.169  22.839   5.831
 4328POPC   GL257458   2.086  23.192   5.873
 4328POPC   C1A57459   2.016  22.886   6.289
 4328POPC   D2A57460   1.610  22.805   6.515
 4328POPC   C3A57461   1.645  22.605   6.954
 4328POPC   C4A57462   2.039  22.645   7.162
 4328POPC   C1B57463   1.680  23.228   6.107
 4328POPC   C2B57464   1.704  23.315   6.545
 4328POPC   C3B57465   1.866  23.066   6.881
 4328POPC   C4B57466   1.923  23.118   7.307
 4329POPC   NC357467  42.069  44.911   5.415
 4329POPC   PO457468  42.547  44.395   5.534
 4329POPC   GL157469  42.337  44.632   5.833
 4329POPC   GL257470  42.475  44.973   5.813
 4329POPC   C1A57471  42.267  44.571   6.271
 4329POPC   D2A57472  42.035  44.397   6.645
 4329POPC   C3A57473  42.236  44.613   6.977
 4329POPC   C4A57474  42.691  44.494   7.083
 4329POPC   C1B57475  42.677  44.881   6.225
 4329POPC   C2B57476  42.570  44.798   6.651
 4329POPC   C3B57477  42.562  44.995   7.088
 4329POPC   C4B57478  42.295  44.983   7.449
 4330POPC   NC357479  12.354  20.201   5.402
 4330POPC   PO457480  11.898  19.666   5.361
 4330POPC   GL157481  12.020  19.965   5.685
 4330POPC   GL257482  11.756  20.134   5.838
 4330POPC   C1A57483  12.203  20.121   6.075
 4330POPC   D2A57484  12.058  20.023   6.508
 4330POPC   C3A57485  12.222  19.666   6.730
 4330POPC   C4A57486  12.207  19.585   7.154
 4330POPC   C1B57487  11.816  19.761   6.119
 4330POPC   C2B57488  11.756  19.532   6.515
 4330POPC   C3B57489  11.808  19.355   6.944
 4330POPC   C4B57490  11.738  19.559   7.357
 4331POPC   NC357491  29.445  27.526   5.330
 4331POPC   PO457492  28.832  27.862   5.339
 4331POPC   GL157493  29.033  27.493   5.676
 4331POPC   GL257494  29.391  27.408   5.841
 4331POPC   C1A57495  29.007  27.335   6.155
 4331POPC   D2A57496  29.091  27.480   6.598
 4331POPC   C3A57497  28.856  27.458   7.008
 4331POPC   C4A57498  29.013  27.586   7.420
 4331POPC   C1B57499  29.471  27.131   6.231
 4331POPC   C2B57500  29.371  27.033   6.677
 4331POPC   C3B57501  29.342  27.343   7.040
 4331POPC   C4B57502  29.441  27.347   7.476
 4332POPC   NC357503  25.005  27.033   5.389
 4332POPC   PO457504  25.534  26.669   5.421
 4332POPC   GL157505  25.300  26.658   5.795
 4332POPC   GL257506  24.945  26.779   5.842
 4332POPC   C1A57507  25.415  26.721   6.232
 4332POPC   D2A57508  25.309  26.591   6.656
 4332POPC   C3A57509  25.495  26.771   7.062
 4332POPC   C4A57510  25.454  26.775   7.529
 4332POPC   C1B57511  24.915  26.833   6.322
 4332POPC   C2B57512  24.834  26.734   6.765
 4332POPC   C3B57513  25.002  26.747   7.183
 4332POPC   C4B57514  25.056  27.078   7.509
 4333POPC   NC357515   3.565   6.943   5.452
 4333POPC   PO457516   3.583   6.251   5.458
 4333POPC   GL157517   3.538   6.569   5.813
 4333POPC   GL257518   3.322   6.878   5.910
 4333POPC   C1A57519   3.641   6.621   6.250
 4333POPC   D2A57520   3.536   6.351   6.578
 4333POPC   C3A57521   3.659   6.455   6.961
 4333POPC   C4A57522   3.485   6.568   7.331
 4333POPC   C1B57523   3.402   7.052   6.349
 4333POPC   C2B57524   3.463   6.874   6.752
 4333POPC   C3B57525   3.315   7.038   7.141
 4333POPC   C4B57526   3.425   7.084   7.587
 4334POPC   NC357527  21.213  16.235   5.377
 4334POPC   PO457528  21.681  15.851   5.412
 4334POPC   GL157529  21.382  15.818   5.755
 4334POPC   GL257530  21.095  15.556   5.800
 4334POPC   C1A57531  21.497  16.033   6.147
 4334POPC   D2A57532  21.778  15.925   6.523
 4334POPC   C3A57533  21.589  15.910   6.964
 4334POPC   C4A57534  21.332  16.036   7.336
 4334POPC   C1B57535  21.263  15.590   6.204
 4334POPC   C2B57536  21.227  15.860   6.552
 4334POPC   C3B57537  21.117  15.728   6.948
 4334POPC   C4B57538  21.318  15.515   7.240
 4335POPC   NC357539  25.472   9.031   5.364
 4335POPC   PO457540  24.846   9.267   5.433
 4335POPC   GL157541  25.146   9.085   5.815
 4335POPC   GL257542  25.461   8.846   5.841
 4335POPC   C1A57543  25.327   9.111   6.248
 4335POPC   D2A57544  25.540   8.898   6.572
 4335POPC   C3A57545  25.452   9.053   6.978
 4335POPC   C4A57546  25.339   9.065   7.406
 4335POPC   C1B57547  25.310   8.603   6.207
 4335POPC   C2B57548  25.128   8.637   6.668
 4335POPC   C3B57549  25.238   8.603   7.119
 4335POPC   C4B57550  25.001   8.600   7.483
 4336POPC   NC357551  31.221  27.742   5.449
 4336POPC   PO457552  31.873  27.759   5.326
 4336POPC   GL157553  31.603  27.596   5.770
 4336POPC   GL257554  31.289  27.360   5.774
 4336POPC   C1A57555  31.394  27.660   6.228
 4336POPC   D2A57556  31.257  27.748   6.681
 4336POPC   C3A57557  31.293  27.575   7.089
 4336POPC   C4A57558  31.551  27.275   7.296
 4336POPC   C1B57559  31.058  27.262   6.152
 4336POPC   C2B57560  31.146  27.254   6.603
 4336POPC   C3B57561  31.151  27.103   7.028
 4336POPC   C4B57562  31.031  27.068   7.437
 4337POPC   NC357563   9.229  12.588   5.454
 4337POPC   PO457564   8.898  13.227   5.534
 4337POPC   GL157565   9.100  12.943   5.820
 4337POPC   GL257566   8.876  12.977   6.101
 4337POPC   C1A57567   9.314  12.729   6.154
 4337POPC   D2A57568   9.279  12.544   6.582
 4337POPC   C3A57569   9.104  12.790   6.929
 4337POPC   C4A57570   9.279  13.132   7.163
 4337POPC   C1B57571   8.649  12.607   6.264
 4337POPC   C2B57572   8.790  12.390   6.595
 4337POPC   C3B57573   8.672  12.489   7.008
 4337POPC   C4B57574   8.627  12.863   7.298
 4338POPC   NC357575   5.388  33.275   5.478
 4338POPC   PO457576   4.938  32.769   5.564
 4338POPC   GL157577   5.063  33.054   5.859
 4338POPC   GL257578   5.386  32.913   5.861
 4338POPC   C1A57579   4.935  33.233   6.276
 4338POPC   D2A57580   5.147  33.243   6.690
 4338POPC   C3A57581   4.879  33.219   7.057
 4338POPC   C4A57582   4.684  32.896   7.280
 4338POPC   C1B57583   5.429  33.039   6.282
 4338POPC   C2B57584   5.491  32.821   6.670
 4338POPC   C3B57585   5.393  32.783   7.105
 4338POPC   C4B57586   5.588  32.751   7.513
 4339POPC   NC357587  22.316   0.421   5.597
 4339POPC   PO457588  21.641   0.301   5.628
 4339POPC   GL157589  21.806   0.110   6.001
 4339POPC   GL257590  22.184   0.184   6.034
 4339POPC   C1A57591  21.860   0.101   6.442
 4339POPC   D2A57592  22.214   0.272   6.627
 4339POPC   C3A57593  22.110   0.548   6.977
 4339POPC   C4A57594  22.319   0.868   7.229
 4339POPC   C1B57595  22.525  44.945   6.249
 4339POPC   C2B57596  22.669   0.021   6.679
 4339POPC   C3B57597  22.516   0.168   7.052
 4339POPC   C4B57598  22.344   0.359   7.379
 4340POPC   NC357599   1.493  28.664   5.362
 4340POPC   PO457600   1.043  29.281   5.392
 4340POPC   GL157601   1.046  29.184   5.817
 4340POPC   GL257602   0.872  28.902   5.897
 4340POPC   C1A57603   1.046  29.316   6.243
 4340POPC   D2A57604   1.295  29.441   6.576
 4340POPC   C3A57605   1.064  29.388   6.932
 4340POPC   C4A57606   1.043  29.240   7.296
 4340POPC   C1B57607   1.185  28.824   6.203
 4340POPC   C2B57608   1.132  28.952   6.644
 4340POPC   C3B57609   0.917  28.824   6.984
 4340POPC   C4B57610   0.867  28.769   7.402
 4341POPC   NC357611  33.227  24.392   5.315
 4341POPC   PO457612  32.631  24.582   5.589
 4341POPC   GL157613  32.946  24.454   5.847
 4341POPC   GL257614  33.268  24.308   5.816
 4341POPC   C1A57615  33.102  24.612   6.208
 4341POPC   D2A57616  32.974  24.565   6.608
 4341POPC   C3A57617  33.061  24.785   6.953
 4341POPC   C4A57618  32.947  24.717   7.358
 4341POPC   C1B57619  33.360  24.151   6.223
 4341POPC   C2B57620  33.208  24.089   6.631
 4341POPC   C3B57621  33.168  24.300   7.008
 4341POPC   C4B57622  33.390  24.495   7.320
 4342POPC   NC357623  42.217  11.726   5.460
 4342POPC   PO457624  42.623  11.190   5.522
 4342POPC   GL157625  42.424  11.348   5.884
 4342POPC   GL257626  42.074  11.318   5.785
 4342POPC   C1A57627  42.215  11.199   6.283
 4342POPC   D2A57628  42.092  11.046   6.696
 4342POPC   C3A57629  42.377  11.142   7.048
 4342POPC   C4A57630  42.486  11.153   7.484
 4342POPC   C1B57631  41.888  11.580   6.130
 4342POPC   C2B57632  41.812  11.484   6.569
 4342POPC   C3B57633  42.012  11.561   6.949
 4342POPC   C4B57634  42.121  11.494   7.350
 4343POPC   NC357635  30.592  10.971   5.582
 4343POPC   PO457636  30.318  11.619   5.422
 4343POPC   GL157637  30.267  11.379   5.807
 4343POPC   GL257638  30.546  11.470   5.906
 4343POPC   C1A57639  30.360  11.194   6.269
 4343POPC   D2A57640  30.526  11.044   6.680
 4343POPC   C3A57641  30.727  11.372   6.988
 4343POPC   C4A57642  30.547  11.538   7.373
 4343POPC   C1B57643  30.878  11.242   6.171
 4343POPC   C2B57644  31.011  11.159   6.608
 4343POPC   C3B57645  31.082  11.008   7.022
 4343POPC   C4B57646  31.004  11.234   7.433
 4344POPC   NC357647   3.483  16.914   5.576
 4344POPC   PO457648   3.890  16.272   5.462
 4344POPC   GL157649   3.687  16.342   5.899
 4344POPC   GL257650   3.373  16.546   5.963
 4344POPC   C1A57651   3.592  16.333   6.356
 4344POPC   D2A57652   3.272  16.551   6.524
 4344POPC   C3A57653   3.353  16.439   6.950
 4344POPC   C4A57654   3.642  16.525   7.306
 4344POPC   C1B57655   3.372  16.979   6.208
 4344POPC   C2B57656   3.357  17.267   6.554
 4344POPC   C3B57657   3.408  17.136   6.970
 4344POPC   C4B57658   3.216  16.837   7.250
 4345POPC   NC357659   1.133  25.681   5.316
 4345POPC   PO457660   1.676  25.265   5.377
 4345POPC   GL157661   1.448  25.221   5.751
 4345POPC   GL257662   1.122  25.240   5.758
 4345POPC   C1A57663   1.454  25.241   6.190
 4345POPC   D2A57664   1.317  25.552   6.493
 4345POPC   C3A57665   1.447  25.427   6.884
 4345POPC   C4A57666   1.591  25.213   7.244
 4345POPC   C1B57667   0.950  25.369   6.165
 4345POPC   C2B57668   0.780  25.426   6.555
 4345POPC   C3B57669   0.756  25.274   6.933
 4345POPC   C4B57670   1.089  25.175   7.173
 4346POPC   NC357671  10.764  43.207   5.071
 4346POPC   PO457672  10.300  42.924   5.526
 4346POPC   GL157673  10.593  43.139   5.821
 4346POPC   GL257674  10.813  42.866   5.949
 4346POPC   C1A57675  10.501  43.431   6.188
 4346POPC   D2A57676  10.274  43.502   6.581
 4346POPC   C3A57677  10.486  43.419   6.977
 4346POPC   C4A57678  10.617  43.243   7.376
 4346POPC   C1B57679  10.545  42.921   6.321
 4346POPC   C2B57680  10.464  42.889   6.805
 4346POPC   C3B57681  10.505  42.775   7.271
 4346POPC   C4B57682  10.824  42.844   7.645
 4347POPC   NC357683  30.892  16.413   5.450
 4347POPC   PO457684  30.590  15.808   5.366
 4347POPC   GL157685  30.766  15.893   5.734
 4347POPC   GL257686  30.520  16.154   5.815
 4347POPC   C1A57687  30.853  15.940   6.173
 4347POPC   D2A57688  31.045  15.746   6.560
 4347POPC   C3A57689  30.861  15.989   6.918
 4347POPC   C4A57690  30.733  15.984   7.324
 4347POPC   C1B57691  30.415  16.237   6.271
 4347POPC   C2B57692  30.447  16.263   6.745
 4347POPC   C3B57693  30.416  16.380   7.214
 4347POPC   C4B57694  30.601  16.310   7.670
 4348POPC   NC357695  39.063   7.530   5.396
 4348POPC   PO457696  39.511   7.038   5.505
 4348POPC   GL157697  39.377   7.356   5.762
 4348POPC   GL257698  39.059   7.204   5.801
 4348POPC   C1A57699  39.191   7.610   6.093
 4348POPC   D2A57700  39.203   7.790   6.509
 4348POPC   C3A57701  39.020   7.624   6.889
 4348POPC   C4A57702  39.187   7.558   7.306
 4348POPC   C1B57703  39.269   7.050   6.161
 4348POPC   C2B57704  39.084   7.134   6.545
 4348POPC   C3B57705  39.254   7.164   6.941
 4348POPC   C4B57706  39.204   7.052   7.329
 4349POPC   NC357707  39.787   5.069   5.310
 4349POPC   PO457708  40.468   5.267   5.241
 4349POPC   GL157709  40.163   5.239   5.611
 4349POPC   GL257710  40.040   4.936   5.741
 4349POPC   C1A57711  40.125   5.315   6.071
 4349POPC   D2A57712  39.966   5.379   6.480
 4349POPC   C3A57713  40.280   5.268   6.784
 4349POPC   C4A57714  40.242   5.358   7.206
 4349POPC   C1B57715  39.885   4.870   6.165
 4349POPC   C2B57716  40.037   4.846   6.607
 4349POPC   C3B57717  39.947   4.970   7.057
 4349POPC   C4B57718  39.895   4.851   7.533
 4350POPC   NC357719  39.565  21.319   5.217
 4350POPC   PO457720  39.018  21.120   5.541
 4350POPC   GL157721  39.242  21.395   5.815
 4350POPC   GL257722  38.985  21.615   5.948
 4350POPC   C1A57723  39.253  21.288   6.269
 4350POPC   D2A57724  39.301  21.135   6.668
 4350POPC   C3A57725  39.383  21.413   7.014
 4350POPC   C4A57726  39.133  21.291   7.263
 4350POPC   C1B57727  38.799  21.544   6.330
 4350POPC   C2B57728  39.053  21.586   6.666
 4350POPC   C3B57729  38.913  21.708   7.066
 4350POPC   C4B57730  39.045  21.764   7.454
 4351POPC   NC357731  23.097  14.884   5.390
 4351POPC   PO457732  22.661  14.356   5.526
 4351POPC   GL157733  22.819  14.290   5.906
 4351POPC   GL257734  23.058  14.589   5.828
 4351POPC   C1A57735  23.018  14.373   6.282
 4351POPC   D2A57736  23.031  14.220   6.654
 4351POPC   C3A57737  22.824  14.288   7.013
 4351POPC   C4A57738  22.976  14.373   7.421
 4351POPC   C1B57739  22.736  14.754   6.090
 4351POPC   C2B57740  22.833  14.875   6.500
 4351POPC   C3B57741  22.821  14.771   6.918
 4351POPC   C4B57742  22.605  14.778   7.286
 4352POPC   NC357743   7.899  23.001   5.345
 4352POPC   PO457744   7.276  22.598   5.378
 4352POPC   GL157745   7.491  22.927   5.668
 4352POPC   GL257746   7.713  22.725   5.832
 4352POPC   C1A57747   7.620  23.142   6.089
 4352POPC   D2A57748   7.430  23.177   6.498
 4352POPC   C3A57749   7.626  23.131   6.905
 4352POPC   C4A57750   7.373  23.000   7.250
 4352POPC   C1B57751   7.485  22.678   6.285
 4352POPC   C2B57752   7.455  22.681   6.766
 4352POPC   C3B57753   7.300  22.511   7.196
 4352POPC   C4B57754   7.476  22.686   7.641
 4353POPC   NC357755  41.362  29.788   5.448
 4353POPC   PO457756  41.964  29.763   5.494
 4353POPC   GL157757  41.699  30.021   5.826
 4353POPC   GL257758  41.329  30.115   5.858
 4353POPC   C1A57759  41.669  29.996   6.300
 4353POPC   D2A57760  41.736  30.006   6.754
 4353POPC   C3A57761  41.393  29.846   7.004
 4353POPC   C4A57762  41.349  29.763   7.446
 4353POPC   C1B57763  41.335  30.367   6.237
 4353POPC   C2B57764  41.403  30.401   6.684
 4353POPC   C3B57765  41.565  30.317   7.134
 4353POPC   C4B57766  41.800  30.062   7.405
 4354POPC   NC357767  25.911  11.570   5.443
 4354POPC   PO457768  26.217  11.038   5.363
 4354POPC   GL157769  26.146  11.231   5.748
 4354POPC   GL257770  26.455  11.090   5.864
 4354POPC   C1A57771  25.819  11.386   6.059
 4354POPC   D2A57772  25.681  11.278   6.445
 4354POPC   C3A57773  25.719  11.543   6.800
 4354POPC   C4A57774  25.933  11.431   7.160
 4354POPC   C1B57775  26.306  11.318   6.242
 4354POPC   C2B57776  26.137  11.262   6.663
 4354POPC   C3B57777  26.160  11.010   7.011
 4354POPC   C4B57778  26.304  11.157   7.390
 4355POPC   NC357779  11.858  36.349   5.317
 4355POPC   PO457780  12.324  35.862   5.265
 4355POPC   GL157781  12.062  35.960   5.635
 4355POPC   GL257782  12.012  36.307   5.785
 4355POPC   C1A57783  12.051  35.908   6.101
 4355POPC   D2A57784  11.962  36.112   6.498
 4355POPC   C3A57785  12.031  35.906   6.896
 4355POPC   C4A57786  12.372  35.987   7.185
 4355POPC   C1B57787  11.786  36.473   6.137
 4355POPC   C2B57788  11.816  36.665   6.553
 4355POPC   C3B57789  11.960  36.421   6.915
 4355POPC   C4B57790  11.908  36.191   7.312
 4356POPC   NC357791   2.569  14.527   5.229
 4356POPC   PO457792   2.757  13.917   5.425
 4356POPC   GL157793   2.642  14.270   5.719
 4356POPC   GL257794   2.523  14.633   5.769
 4356POPC   C1A57795   2.560  14.247   6.170
 4356POPC   D2A57796   2.780  14.347   6.553
 4356POPC   C3A57797   2.530  14.298   6.888
 4356POPC   C4A57798   2.496  14.144   7.276
 4356POPC   C1B57799   2.666  14.762   6.226
 4356POPC   C2B57800   2.989  14.800   6.615
 4356POPC   C3B57801   2.836  14.691   7.041
 4356POPC   C4B57802   2.398  14.668   7.263
 4357POPC   NC357803  37.774  28.793   5.383
 4357POPC   PO457804  37.740  28.131   5.169
 4357POPC   GL157805  37.725  28.354   5.630
 4357POPC   GL257806  37.990  28.527   5.774
 4357POPC   C1A57807  37.521  28.379   6.075
 4357POPC   D2A57808  37.611  28.203   6.502
 4357POPC   C3A57809  37.928  28.328   6.845
 4357POPC   C4A57810  38.136  28.482   7.258
 4357POPC   C1B57811  37.971  28.570   6.252
 4357POPC   C2B57812  38.104  28.778   6.661
 4357POPC   C3B57813  37.967  28.949   7.078
 4357POPC   C4B57814  37.804  28.947   7.521
 4358POPC   NC357815  20.722  35.592   5.393
 4358POPC   PO457816  20.273  35.070   5.466
 4358POPC   GL157817  20.551  35.144   5.810
 4358POPC   GL257818  20.800  35.375   5.861
 4358POPC   C1A57819  20.718  34.984   6.198
 4358POPC   D2A57820  20.569  35.185   6.568
 4358POPC   C3A57821  20.676  35.206   6.999
 4358POPC   C4A57822  20.566  35.389   7.424
 4358POPC   C1B57823  20.866  35.547   6.294
 4358POPC   C2B57824  20.752  35.639   6.733
 4358POPC   C3B57825  20.949  35.744   7.125
 4358POPC   C4B57826  20.863  35.768   7.571
 4359POPC   NC357827  25.807  38.525   5.489
 4359POPC   PO457828  26.383  38.257   5.179
 4359POPC   GL157829  26.122  38.064   5.574
 4359POPC   GL257830  26.397  38.026   5.846
 4359POPC   C1A57831  25.893  38.145   6.003
 4359POPC   D2A57832  25.829  38.230   6.467
 4359POPC   C3A57833  25.843  38.605   6.773
 4359POPC   C4A57834  25.961  38.732   7.201
 4359POPC   C1B57835  26.431  38.175   6.255
 4359POPC   C2B57836  26.305  38.195   6.661
 4359POPC   C3B57837  26.320  38.454   6.968
 4359POPC   C4B57838  26.534  38.389   7.316
 4360POPC   NC357839  28.169  25.950   5.501
 4360POPC   PO457840  28.633  26.495   5.378
 4360POPC   GL157841  28.481  26.242   5.790
 4360POPC   GL257842  28.534  25.908   5.870
 4360POPC   C1A57843  28.378  26.165   6.274
 4360POPC   D2A57844  28.618  25.917   6.575
 4360POPC   C3A57845  28.613  26.107   6.969
 4360POPC   C4A57846  28.367  26.010   7.329
 4360POPC   C1B57847  28.356  25.676   6.190
 4360POPC   C2B57848  28.205  25.578   6.559
 4360POPC   C3B57849  28.181  25.820   6.883
 4360POPC   C4B57850  28.161  25.552   7.221
 4361POPC   NC357851   4.833  42.672   5.601
 4361POPC   PO457852   5.175  42.224   5.354
 4361POPC   GL157853   5.076  42.259   5.840
 4361POPC   GL257854   5.068  42.597   6.026
 4361POPC   C1A57855   5.190  42.190   6.301
 4361POPC   D2A57856   5.350  42.108   6.739
 4361POPC   C3A57857   5.107  42.217   7.129
 4361POPC   C4A57858   5.220  42.097   7.548
 4361POPC   C1B57859   5.353  42.753   6.319
 4361POPC   C2B57860   5.396  42.664   6.753
 4361POPC   C3B57861   5.254  42.721   7.155
 4361POPC   C4B57862   5.016  42.600   7.546
 4362POPC   NC357863  25.536   7.112   5.576
 4362POPC   PO457864  25.172   7.652   5.486
 4362POPC   GL157865  25.095   7.443   5.871
 4362POPC   GL257866  25.392   7.328   6.020
 4362POPC   C1A57867  24.994   7.166   6.284
 4362POPC   D2A57868  25.010   7.196   6.733
 4362POPC   C3A57869  25.282   6.987   7.033
 4362POPC   C4A57870  25.627   6.975   7.393
 4362POPC   C1B57871  25.219   7.732   6.240
 4362POPC   C2B57872  25.051   7.715   6.637
 4362POPC   C3B57873  25.180   7.597   7.032
 4362POPC   C4B57874  24.941   7.701   7.365
 4363POPC   NC357875  14.664   1.920   5.448
 4363POPC   PO457876  14.048   1.790   5.393
 4363POPC   GL157877  14.230   2.015   5.740
 4363POPC   GL257878  13.931   2.178   5.789
 4363POPC   C1A57879  14.531   2.147   6.059
 4363POPC   D2A57880  14.429   2.126   6.491
 4363POPC   C3A57881  14.413   2.015   6.919
 4363POPC   C4A57882  14.772   2.071   7.199
 4363POPC   C1B57883  13.988   2.112   6.225
 4363POPC   C2B57884  13.964   2.202   6.659
 4363POPC   C3B57885  14.151   2.439   6.987
 4363POPC   C4B57886  14.335   2.225   7.375
 4364POPC   NC357887  42.423   1.967   5.578
 4364POPC   PO457888  41.896   1.890   5.265
 4364POPC   GL157889  41.975   2.179   5.727
 4364POPC   GL257890  42.317   2.330   5.914
 4364POPC   C1A57891  41.891   2.370   6.187
 4364POPC   D2A57892  41.728   2.372   6.628
 4364POPC   C3A57893  42.073   2.284   6.907
 4364POPC   C4A57894  42.257   2.024   7.214
 4364POPC   C1B57895  42.345   2.005   6.281
 4364POPC   C2B57896  42.399   1.826   6.725
 4364POPC   C3B57897  42.769   1.794   7.026
 4364POPC   C4B57898  42.873   1.716   7.486
 4365POPC   NC357899  30.529  10.826   5.090
 4365POPC   PO457900  30.743  10.289   5.510
 4365POPC   GL157901  30.566  10.522   5.836
 4365POPC   GL257902  30.859  10.675   5.897
 4365POPC   C1A57903  30.527  10.703   6.279
 4365POPC   D2A57904  30.401  10.481   6.657
 4365POPC   C3A57905  30.455  10.693   7.055
 4365POPC   C4A57906  30.560  10.633   7.496
 4365POPC   C1B57907  30.990  10.489   6.292
 4365POPC   C2B57908  30.880  10.658   6.698
 4365POPC   C3B57909  30.909  10.505   7.120
 4365POPC   C4B57910  31.069  10.730   7.455
 4366POPC   NC357911  10.691  10.331   5.391
 4366POPC   PO457912  10.245  10.766   5.463
 4366POPC   GL157913  10.340  10.405   5.790
 4366POPC   GL257914  10.674  10.193   5.851
 4366POPC   C1A57915  10.416  10.415   6.245
 4366POPC   D2A57916  10.586  10.732   6.500
 4366POPC   C3A57917  10.632  10.589   6.886
 4366POPC   C4A57918  10.561  10.720   7.269
 4366POPC   C1B57919  10.814  10.029   6.192
 4366POPC   C2B57920  10.777  10.225   6.565
 4366POPC   C3B57921  10.738  10.059   6.958
 4366POPC   C4B57922  10.458  10.242   7.251
 4367POPC   NC357923  12.445   2.235   5.577
 4367POPC   PO457924  13.183   2.271   5.579
 4367POPC   GL157925  12.938   1.959   5.782
 4367POPC   GL257926  13.149   1.715   5.950
 4367POPC   C1A57927  12.662   1.856   6.134
 4367POPC   D2A57928  12.547   2.114   6.493
 4367POPC   C3A57929  12.752   2.032   6.876
 4367POPC   C4A57930  12.953   1.752   7.123
 4367POPC   C1B57931  13.125   1.895   6.386
 4367POPC   C2B57932  13.267   2.005   6.810
 4367POPC   C3B57933  13.258   2.153   7.241
 4367POPC   C4B57934  13.101   2.222   7.635
 4368POPC   NC357935   5.990  17.539   5.301
 4368POPC   PO457936   5.368  17.445   5.197
 4368POPC   GL157937   5.578  17.493   5.644
 4368POPC   GL257938   5.814  17.728   5.771
 4368POPC   C1A57939   5.682  17.407   6.133
 4368POPC   D2A57940   6.076  17.299   6.417
 4368POPC   C3A57941   6.088  17.215   6.868
 4368POPC   C4A57942   5.756  17.317   7.176
 4368POPC   C1B57943   6.149  17.686   6.084
 4368POPC   C2B57944   6.143  17.831   6.524
 4368POPC   C3B57945   6.050  17.729   6.960
 4368POPC   C4B57946   6.026  17.695   7.397
 4369POPC   NC357947  20.486  38.916   5.131
 4369POPC   PO457948  20.498  38.269   5.403
 4369POPC   GL157949  20.528  38.567   5.725
 4369POPC   GL257950  20.272  38.381   5.867
 4369POPC   C1A57951  20.621  38.670   6.144
 4369POPC   D2A57952  20.589  38.880   6.553
 4369POPC   C3A57953  20.729  38.728   6.931
 4369POPC   C4A57954  20.499  38.540   7.249
 4369POPC   C1B57955  20.152  38.142   6.188
 4369POPC   C2B57956  20.008  38.345   6.523
 4369POPC   C3B57957  20.216  38.283   6.872
 4369POPC   C4B57958  20.156  38.176   7.245
 4370POPC   NC357959   8.568  34.626   5.389
 4370POPC   PO457960   9.253  34.687   5.409
 4370POPC   GL157961   9.139  34.641   5.841
 4370POPC   GL257962   8.784  34.748   5.870
 4370POPC   C1A57963   9.013  34.477   6.244
 4370POPC   D2A57964   8.914  34.230   6.587
 4370POPC   C3A57965   8.910  34.496   6.903
 4370POPC   C4A57966   9.179  34.798   7.109
 4370POPC   C1B57967   8.560  34.809   6.218
 4370POPC   C2B57968   8.472  34.639   6.598
 4370POPC   C3B57969   8.530  34.878   6.964
 4370POPC   C4B57970   8.686  34.696   7.302
 4371POPC   NC357971   8.170  19.557   5.431
 4371POPC   PO457972   8.567  20.148   5.535
 4371POPC   GL157973   8.341  19.865   5.802
 4371POPC   GL257974   7.972  19.912   5.746
 4371POPC   C1A57975   8.331  19.720   6.216
 4371POPC   D2A57976   8.128  19.762   6.611
 4371POPC   C3A57977   8.320  19.976   6.929
 4371POPC   C4A57978   8.347  19.724   7.262
 4371POPC   C1B57979   7.914  20.048   6.179
 4371POPC   C2B57980   7.663  19.924   6.552
 4371POPC   C3B57981   7.713  20.033   6.950
 4371POPC   C4B57982   7.870  19.861   7.300
 4372POPC   NC357983  26.903   8.392   5.561
 4372POPC   PO457984  26.283   8.160   5.446
 4372POPC   GL157985  26.535   8.143   5.840
 4372POPC   GL257986  26.891   7.960   5.830
 4372POPC   C1A57987  26.475   8.366   6.251
 4372POPC   D2A57988  26.526   8.525   6.684
 4372POPC   C3A57989  26.935   8.458   6.910
 4372POPC   C4A57990  27.010   8.508   7.375
 4372POPC   C1B57991  26.921   8.091   6.287
 4372POPC   C2B57992  27.062   7.959   6.729
 4372POPC   C3B57993  26.962   8.024   7.191
 4372POPC   C4B57994  26.721   7.841   7.522
 4373POPC   NC357995  17.942  31.072   5.500
 4373POPC   PO457996  17.618  31.628   5.324
 4373POPC   GL157997  17.745  31.528   5.729
 4373POPC   GL257998  17.412  31.625   5.830
 4373POPC   C1A57999  17.776  31.489   6.191
 4373POPC   D2A58000  17.543  31.654   6.528
 4373POPC   C3A58001  17.505  31.520   6.954
 4373POPC   C4A58002  17.366  31.766   7.313
 4373POPC   C1B58003  17.227  31.441   6.200
 4373POPC   C2B58004  17.406  31.179   6.538
 4373POPC   C3B58005  17.247  31.068   6.913
 4373POPC   C4B58006  17.303  31.135   7.325
 4374POPC   NC358007  21.101  41.733   4.989
 4374POPC   PO458008  21.393  41.352   5.524
 4374POPC   GL158009  21.354  41.582   5.921
 4374POPC   GL258010  21.168  41.284   5.989
 4374POPC   C1A58011  21.514  41.832   6.279
 4374POPC   D2A58012  21.396  41.822   6.708
 4374POPC   C3A58013  21.429  41.478   7.019
 4374POPC   C4A58014  21.388  41.543   7.447
 4374POPC   C1B58015  21.119  41.480   6.392
 4374POPC   C2B58016  20.974  41.512   6.807
 4374POPC   C3B58017  20.891  41.419   7.247
 4374POPC   C4B58018  20.958  41.297   7.672
 4375POPC   NC358019  28.330  41.915   5.083
 4375POPC   PO458020  28.118  41.527   5.571
 4375POPC   GL158021  28.225  41.326   5.920
 4375POPC   GL258022  28.588  41.272   5.941
 4375POPC   C1A58023  28.186  41.298   6.363
 4375POPC   D2A58024  28.331  41.296   6.778
 4375POPC   C3A58025  28.064  41.412   7.157
 4375POPC   C4A58026  28.069  41.250   7.587
 4375POPC   C1B58027  28.564  41.615   6.228
 4375POPC   C2B58028  28.513  41.773   6.633
 4375POPC   C3B58029  28.674  41.578   7.026
 4375POPC   C4B58030  28.663  41.551   7.442
 4376POPC   NC358031  23.810   8.731   5.464
 4376POPC   PO458032  23.613   8.038   5.444
 4376POPC   GL158033  23.689   8.212   5.806
 4376POPC   GL258034  23.400   8.046   5.951
 4376POPC   C1A58035  23.912   8.106   6.196
 4376POPC   D2A58036  23.774   7.864   6.562
 4376POPC   C3A58037  23.870   8.020   6.958
 4376POPC   C4A58038  23.827   8.230   7.325
 4376POPC   C1B58039  23.500   8.420   6.228
 4376POPC   C2B58040  23.694   8.420   6.632
 4376POPC   C3B58041  23.445   8.348   7.006
 4376POPC   C4B58042  23.318   8.269   7.451
 4377POPC   NC358043  32.575   3.182   5.057
 4377POPC   PO458044  32.260   3.709   5.420
 4377POPC   GL158045  32.256   3.407   5.742
 4377POPC   GL258046  32.517   3.551   5.943
 4377POPC   C1A58047  32.115   3.288   6.141
 4377POPC   D2A58048  32.303   3.472   6.483
 4377POPC   C3A58049  32.032   3.444   6.843
 4377POPC   C4A58050  32.121   3.489   7.261
 4377POPC   C1B58051  32.556   3.900   6.201
 4377POPC   C2B58052  32.600   3.883   6.615
 4377POPC   C3B58053  32.474   3.692   6.958
 4377POPC   C4B58054  32.659   3.852   7.308
 4378POPC   NC358055  25.449   4.873   5.486
 4378POPC   PO458056  25.172   5.362   5.537
 4378POPC   GL158057  25.395   5.202   5.912
 4378POPC   GL258058  25.407   4.837   5.994
 4378POPC   C1A58059  25.349   5.266   6.359
 4378POPC   D2A58060  25.471   5.016   6.696
 4378POPC   C3A58061  25.318   5.202   7.112
 4378POPC   C4A58062  25.229   5.316   7.555
 4378POPC   C1B58063  25.094   4.829   6.344
 4378POPC   C2B58064  24.966   5.115   6.699
 4378POPC   C3B58065  24.777   5.087   7.117
 4378POPC   C4B58066  24.811   5.034   7.564
 4379POPC   NC358067  17.081  41.410   5.460
 4379POPC   PO458068  16.426  41.463   5.340
 4379POPC   GL158069  16.647  41.525   5.751
 4379POPC   GL258070  16.664  41.140   5.709
 4379POPC   C1A58071  16.783  41.681   6.203
 4379POPC   D2A58072  17.055  41.843   6.591
 4379POPC   C3A58073  16.894  41.799   7.010
 4379POPC   C4A58074  16.480  41.804   7.099
 4379POPC   C1B58075  16.595  41.100   6.133
 4379POPC   C2B58076  16.865  41.236   6.455
 4379POPC   C3B58077  16.634  41.438   6.748
 4379POPC   C4B58078  16.450  41.309   7.126
 4380POPC   NC358079  13.183  32.019   5.489
 4380POPC   PO458080  13.876  32.152   5.335
 4380POPC   GL158081  13.785  32.207   5.805
 4380POPC   GL258082  13.431  32.304   5.918
 4380POPC   C1A58083  13.783  32.073   6.238
 4380POPC   D2A58084  13.646  31.962   6.674
 4380POPC   C3A58085  13.907  32.147   7.026
 4380POPC   C4A58086  13.756  32.370   7.433
 4380POPC   C1B58087  13.286  32.622   6.244
 4380POPC   C2B58088  13.335  32.737   6.713
 4380POPC   C3B58089  13.329  32.498   7.095
 4380POPC   C4B58090  13.437  32.070   7.132
 4381POPC   NC358091   5.420  10.419   5.489
 4381POPC   PO458092   4.691  10.568   5.370
 4381POPC   GL158093   4.879  10.416   5.765
 4381POPC   GL258094   5.143  10.629   5.857
 4381POPC   C1A58095   4.794  10.539   6.195
 4381POPC   D2A58096   4.893  10.647   6.601
 4381POPC   C3A58097   4.824  10.334   6.905
 4381POPC   C4A58098   4.861  10.349   7.353
 4381POPC   C1B58099   5.289  10.427   6.265
 4381POPC   C2B58100   5.408  10.631   6.653
 4381POPC   C3B58101   5.193  10.645   7.064
 4381POPC   C4B58102   5.332  10.574   7.497
 4382POPC   NC358103   8.999  39.590   5.635
 4382POPC   PO458104   9.100  40.205   5.320
 4382POPC   GL158105   9.126  40.088   5.756
 4382POPC   GL258106   8.760  40.041   5.799
 4382POPC   C1A58107   9.083  40.031   6.221
 4382POPC   D2A58108   9.256  40.099   6.640
 4382POPC   C3A58109   9.167  39.778   6.957
 4382POPC   C4A58110   9.041  39.795   7.364
 4382POPC   C1B58111   8.602  40.240   6.192
 4382POPC   C2B58112   8.759  40.254   6.617
 4382POPC   C3B58113   8.888  40.218   7.041
 4382POPC   C4B58114   8.674  40.135   7.428
 4383POPC   NC358115  44.986  16.420   5.544
 4383POPC   PO458116  44.493  16.693   5.407
 4383POPC   GL158117  44.644  16.685   5.863
 4383POPC   GL258118  44.980  16.804   5.932
 4383POPC   C1A58119  44.575  16.622   6.333
 4383POPC   D2A58120  44.578  16.383   6.750
 4383POPC   C3A58121  44.591  16.618   7.151
 4383POPC   C4A58122  44.427  16.621   7.582
 4383POPC   C1B58123   0.085  16.579   6.343
 4383POPC   C2B58124   0.009  16.671   6.807
 4383POPC   C3B58125   0.051  16.845   7.242
 4383POPC   C4B58126   0.145  17.082   7.634
 4384POPC   NC358127  19.906  28.121   5.402
 4384POPC   PO458128  19.813  28.805   5.413
 4384POPC   GL158129  19.796  28.470   5.794
 4384POPC   GL258130  19.682  28.083   5.845
 4384POPC   C1A58131  19.915  28.464   6.265
 4384POPC   D2A58132  20.160  28.288   6.656
 4384POPC   C3A58133  19.984  28.413   7.080
 4384POPC   C4A58134  19.723  28.768   7.206
 4384POPC   C1B58135  19.893  27.963   6.242
 4384POPC   C2B58136  19.711  28.053   6.664
 4384POPC   C3B58137  19.671  28.007   7.108
 4384POPC   C4B58138  19.594  28.275   7.451
 4385POPC   NC358139  28.738  10.158   5.542
 4385POPC   PO458140  29.302  10.341   5.513
 4385POPC   GL158141  29.242  10.238   5.960
 4385POPC   GL258142  28.918  10.312   5.995
 4385POPC   C1A58143  29.197  10.261   6.432
 4385POPC   D2A58144  28.950  10.624   6.590
 4385POPC   C3A58145  28.999  10.812   6.995
 4385POPC   C4A58146  29.356  10.862   7.275
 4385POPC   C1B58147  28.684  10.223   6.366
 4385POPC   C2B58148  28.745  10.219   6.849
 4385POPC   C3B58149  28.768  10.434   7.258
 4385POPC   C4B58150  28.803  10.275   7.719
 4386POPC   NC358151  10.795  31.644   5.532
 4386POPC   PO458152  10.419  31.133   5.369
 4386POPC   GL158153  10.517  31.295   5.780
 4386POPC   GL258154  10.315  31.603   5.806
 4386POPC   C1A58155  10.655  31.420   6.209
 4386POPC   D2A58156  10.443  31.493   6.628
 4386POPC   C3A58157  10.640  31.511   7.031
 4386POPC   C4A58158  10.776  31.652   7.448
 4386POPC   C1B58159  10.134  31.496   6.215
 4386POPC   C2B58160   9.942  31.328   6.625
 4386POPC   C3B58161   9.987  31.460   7.070
 4386POPC   C4B58162  10.309  31.402   7.401
 4387POPC   NC358163   3.820  34.937   5.416
 4387POPC   PO458164   3.053  35.041   5.398
 4387POPC   GL158165   3.339  35.102   5.742
 4387POPC   GL258166   3.191  35.359   5.936
 4387POPC   C1A58167   3.670  35.082   6.083
 4387POPC   D2A58168   3.888  35.075   6.484
 4387POPC   C3A58169   3.759  35.425   6.735
 4387POPC   C4A58170   3.893  35.539   7.144
 4387POPC   C1B58171   3.358  35.445   6.364
 4387POPC   C2B58172   3.272  35.647   6.773
 4387POPC   C3B58173   3.374  35.443   7.168
 4387POPC   C4B58174   3.668  35.078   7.098
 4388POPC   NC358175   5.209  29.595   5.523
 4388POPC   PO458176   5.111  30.318   5.651
 4388POPC   GL158177   4.986  29.936   5.860
 4388POPC   GL258178   4.634  30.021   5.936
 4388POPC   C1A58179   5.084  29.645   6.225
 4388POPC   D2A58180   4.938  29.522   6.651
 4388POPC   C3A58181   5.183  29.727   6.982
 4388POPC   C4A58182   5.258  30.023   7.336
 4388POPC   C1B58183   4.860  30.210   6.302
 4388POPC   C2B58184   5.029  30.163   6.736
 4388POPC   C3B58185   4.794  30.051   7.133
 4388POPC   C4B58186   4.567  30.010   7.544
 4389POPC   NC358187  24.039  33.012   5.584
 4389POPC   PO458188  23.488  32.923   5.560
 4389POPC   GL158189  23.642  33.080   5.963
 4389POPC   GL258190  23.894  33.347   5.954
 4389POPC   C1A58191  23.618  33.251   6.403
 4389POPC   D2A58192  23.662  33.345   6.843
 4389POPC   C3A58193  23.468  33.045   7.122
 4389POPC   C4A58194  23.622  32.622   7.240
 4389POPC   C1B58195  24.054  33.033   6.276
 4389POPC   C2B58196  23.890  32.894   6.703
 4389POPC   C3B58197  23.968  33.034   7.136
 4389POPC   C4B58198  23.782  33.417   7.342
 4390POPC   NC358199  12.904  38.535   5.235
 4390POPC   PO458200  12.553  39.039   5.141
 4390POPC   GL158201  12.594  38.745   5.601
 4390POPC   GL258202  12.930  38.640   5.743
 4390POPC   C1A58203  12.554  38.717   6.098
 4390POPC   D2A58204  12.710  38.371   6.403
 4390POPC   C3A58205  12.638  38.342   6.865
 4390POPC   C4A58206  12.739  38.237   7.292
 4390POPC   C1B58207  13.133  38.642   6.163
 4390POPC   C2B58208  13.269  38.394   6.551
 4390POPC   C3B58209  13.144  38.341   6.994
 4390POPC   C4B58210  12.953  38.686   7.267
 4391POPC   NC358211  39.020  29.729   5.525
 4391POPC   PO458212  38.763  30.312   5.441
 4391POPC   GL158213  38.948  30.172   5.832
 4391POPC   GL258214  39.300  30.029   5.857
 4391POPC   C1A58215  38.926  29.991   6.239
 4391POPC   D2A58216  38.961  29.862   6.659
 4391POPC   C3A58217  39.099  30.133   6.975
 4391POPC   C4A58218  39.198  30.163   7.412
 4391POPC   C1B58219  39.420  29.833   6.272
 4391POPC   C2B58220  39.683  29.725   6.640
 4391POPC   C3B58221  39.583  29.584   7.019
 4391POPC   C4B58222  39.175  29.649   7.175
 4392POPC   NC358223   6.367  15.688   5.369
 4392POPC   PO458224   6.825  16.143   5.324
 4392POPC   GL158225   6.747  16.010   5.765
 4392POPC   GL258226   6.889  15.705   5.876
 4392POPC   C1A58227   6.588  16.241   6.143
 4392POPC   D2A58228   6.373  16.338   6.539
 4392POPC   C3A58229   6.631  16.310   6.933
 4392POPC   C4A58230   6.369  16.086   7.199
 4392POPC   C1B58231   6.804  15.796   6.322
 4392POPC   C2B58232   6.567  15.856   6.723
 4392POPC   C3B58233   6.702  15.721   7.171
 4392POPC   C4B58234   6.979  15.749   7.592
 4393POPC   NC358235  27.075  44.238   5.396
 4393POPC   PO458236  27.669  44.310   5.489
 4393POPC   GL158237  27.568  44.466   5.896
 4393POPC   GL258238  27.471  44.808   5.910
 4393POPC   C1A58239  27.640  44.533   6.348
 4393POPC   D2A58240  27.609  44.323   6.751
 4393POPC   C3A58241  27.710  44.379   7.199
 4393POPC   C4A58242  27.863  44.557   7.580
 4393POPC   C1B58243  27.302  44.932   6.311
 4393POPC   C2B58244  27.383  44.799   6.732
 4393POPC   C3B58245  27.684  44.883   7.055
 4393POPC   C4B58246  27.761   0.069   7.480
 4394POPC   NC358247   2.737   7.491   5.496
 4394POPC   PO458248   2.960   8.059   5.242
 4394POPC   GL158249   3.129   7.763   5.704
 4394POPC   GL258250   3.115   7.373   5.833
 4394POPC   C1A58251   2.958   7.672   6.209
 4394POPC   D2A58252   2.702   7.537   6.626
 4394POPC   C3A58253   2.943   7.432   7.026
 4394POPC   C4A58254   3.333   7.557   7.284
 4394POPC   C1B58255   2.920   7.111   6.202
 4394POPC   C2B58256   2.974   7.053   6.681
 4394POPC   C3B58257   2.750   6.934   7.068
 4394POPC   C4B58258   2.381   7.162   7.194
 4395POPC   NC358259  27.061  15.795   5.179
 4395POPC   PO458260  26.600  15.527   5.630
 4395POPC   GL158261  26.572  15.909   5.929
 4395POPC   GL258262  26.879  16.137   6.002
 4395POPC   C1A58263  26.602  15.989   6.390
 4395POPC   D2A58264  26.899  15.987   6.771
 4395POPC   C3A58265  26.715  15.860   7.150
 4395POPC   C4A58266  26.458  16.166   7.336
 4395POPC   C1B58267  27.099  15.842   6.312
 4395POPC   C2B58268  27.399  15.904   6.640
 4395POPC   C3B58269  27.352  16.209   6.954
 4395POPC   C4B58270  27.103  16.167   7.284
 4396POPC   NC358271   5.132  38.093   5.431
 4396POPC   PO458272   5.016  38.787   5.387
 4396POPC   GL158273   5.052  38.544   5.776
 4396POPC   GL258274   4.821  38.294   5.859
 4396POPC   C1A58275   4.957  38.662   6.211
 4396POPC   D2A58276   4.747  38.527   6.590
 4396POPC   C3A58277   4.927  38.605   7.005
 4396POPC   C4A58278   5.174  38.279   7.154
 4396POPC   C1B58279   4.961  38.148   6.253
 4396POPC   C2B58280   4.914  37.970   6.668
 4396POPC   C3B58281   4.689  37.996   7.070
 4396POPC   C4B58282   4.723  38.305   7.424
 4397POPC   NC358283   4.102  17.536   5.219
 4397POPC   PO458284   4.562  17.028   5.175
 4397POPC   GL158285   4.539  17.250   5.614
 4397POPC   GL258286   4.278  17.478   5.687
 4397POPC   C1A58287   4.590  17.418   6.084
 4397POPC   D2A58288   4.505  17.612   6.489
 4397POPC   C3A58289   4.329  17.441   6.868
 4397POPC   C4A58290   4.393  17.615   7.274
 4397POPC   C1B58291   4.136  17.672   6.063
 4397POPC   C2B58292   3.995  17.739   6.484
 4397POPC   C3B58293   3.989  17.866   6.926
 4397POPC   C4B58294   3.982  17.867   7.371
 4398POPC   NC358295  12.794  41.838   5.213
 4398POPC   PO458296  12.299  41.409   5.225
 4398POPC   GL158297  12.614  41.556   5.611
 4398POPC   GL258298  12.757  41.901   5.727
 4398POPC   C1A58299  12.655  41.501   6.101
 4398POPC   D2A58300  12.879  41.389   6.509
 4398POPC   C3A58301  12.692  41.509   6.913
 4398POPC   C4A58302  12.624  41.314   7.299
 4398POPC   C1B58303  12.934  41.937   6.137
 4398POPC   C2B58304  12.834  41.887   6.581
 4398POPC   C3B58305  12.888  41.995   7.031
 4398POPC   C4B58306  12.683  41.804   7.373
 4399POPC   NC358307  44.547  11.033   5.245
 4399POPC   PO458308  44.449  11.620   5.361
 4399POPC   GL158309  44.397  11.356   5.718
 4399POPC   GL258310  44.739  11.284   5.699
 4399POPC   C1A58311  44.358  11.308   6.185
 4399POPC   D2A58312  44.572  11.327   6.610
 4399POPC   C3A58313  44.475  11.359   7.065
 4399POPC   C4A58314  44.441  11.471   7.559
 4399POPC   C1B58315  44.787  11.576   6.036
 4399POPC   C2B58316  44.984  11.551   6.412
 4399POPC   C3B58317   0.042  11.428   6.823
 4399POPC   C4B58318  44.904  11.592   7.203
 4400POPC   NC358319  15.826  35.556   5.126
 4400POPC   PO458320  16.068  35.004   5.317
 4400POPC   GL158321  16.133  35.261   5.727
 4400POPC   GL258322  16.258  35.604   5.705
 4400POPC   C1A58323  15.928  35.266   6.160
 4400POPC   D2A58324  15.978  35.500   6.560
 4400POPC   C3A58325  16.007  35.314   6.973
 4400POPC   C4A58326  15.759  35.419   7.344
 4400POPC   C1B58327  16.358  35.555   6.153
 4400POPC   C2B58328  16.440  35.737   6.565
 4400POPC   C3B58329  16.232  35.785   6.955
 4400POPC   C4B58330  16.183  35.705   7.393
 4401POPC   NC358331   2.150  42.679   5.486
 4401POPC   PO458332   2.392  42.108   5.387
 4401POPC   GL158333   2.112  42.185   5.758
 4401POPC   GL258334   1.954  42.505   5.908
 4401POPC   C1A58335   1.960  42.083   6.185
 4401POPC   D2A58336   1.861  42.353   6.543
 4401POPC   C3A58337   1.919  42.177   6.945
 4401POPC   C4A58338   1.838  42.334   7.335
 4401POPC   C1B58339   2.295  42.518   6.227
 4401POPC   C2B58340   2.350  42.439   6.693
 4401POPC   C3B58341   2.133  42.671   7.024
 4401POPC   C4B58342   2.140  42.732   7.496
 4402POPC   NC358343   0.281  31.345   5.573
 4402POPC   PO458344   0.751  31.806   5.583
 4402POPC   GL158345   0.672  31.527   5.933
 4402POPC   GL258346   0.702  31.202   5.947
 4402POPC   C1A58347   0.511  31.530   6.368
 4402POPC   D2A58348   0.529  31.610   6.826
 4402POPC   C3A58349   0.695  31.291   7.116
 4402POPC   C4A58350   0.491  31.122   7.524
 4402POPC   C1B58351   0.305  31.125   6.167
 4402POPC   C2B58352   0.127  31.114   6.565
 4402POPC   C3B58353  44.968  31.393   6.879
 4402POPC   C4B58354  44.825  31.262   7.284
 4403POPC   NC358355   4.437   5.723   5.009
 4403POPC   PO458356   3.932   5.547   5.270
 4403POPC   GL158357   4.039   5.697   5.674
 4403POPC   GL258358   4.376   5.565   5.739
 4403POPC   C1A58359   4.088   5.870   6.105
 4403POPC   D2A58360   4.258   5.844   6.551
 4403POPC   C3A58361   4.100   6.198   6.793
 4403POPC   C4A58362   4.029   6.238   7.234
 4403POPC   C1B58363   4.317   5.418   6.194
 4403POPC   C2B58364   4.417   5.350   6.654
 4403POPC   C3B58365   4.629   5.604   6.954
 4403POPC   C4B58366   4.486   6.006   7.095
 4404POPC   NC358367  38.025  29.633   5.519
 4404POPC   PO458368  37.525  29.202   5.357
 4404POPC   GL158369  37.781  29.201   5.733
 4404POPC   GL258370  37.674  28.903   5.878
 4404POPC   C1A58371  37.842  29.264   6.222
 4404POPC   D2A58372  37.746  29.201   6.691
 4404POPC   C3A58373  37.844  29.477   7.081
 4404POPC   C4A58374  37.798  29.464   7.556
 4404POPC   C1B58375  37.543  28.846   6.290
 4404POPC   C2B58376  37.603  28.700   6.715
 4404POPC   C3B58377  37.493  28.754   7.137
 4404POPC   C4B58378  37.378  29.155   7.329
 4405POPC   NC358379  34.926   4.198   5.387
 4405POPC   PO458380  34.298   4.219   5.518
 4405POPC   GL158381  34.440   3.994   5.883
 4405POPC   GL258382  34.743   4.212   5.876
 4405POPC   C1A58383  34.505   4.068   6.349
 4405POPC   D2A58384  34.427   4.491   6.526
 4405POPC   C3A58385  34.444   4.517   6.971
 4405POPC   C4A58386  34.489   4.154   7.202
 4405POPC   C1B58387  34.965   4.289   6.266
 4405POPC   C2B58388  34.869   4.279   6.717
 4405POPC   C3B58389  35.041   4.030   7.041
 4405POPC   C4B58390  34.937   4.103   7.457
 4406POPC   NC358391  40.844   0.210   5.368
 4406POPC   PO458392  40.246   0.470   5.543
 4406POPC   GL158393  40.608   0.341   5.834
 4406POPC   GL258394  40.990   0.432   5.801
 4406POPC   C1A58395  40.730   0.551   6.238
 4406POPC   D2A58396  40.817   0.727   6.653
 4406POPC   C3A58397  40.569   0.427   6.886
 4406POPC   C4A58398  40.543   0.281   7.270
 4406POPC   C1B58399  41.240   0.505   6.165
 4406POPC   C2B58400  41.305   0.546   6.607
 4406POPC   C3B58401  41.102   0.477   7.024
 4406POPC   C4B58402  40.778   0.741   7.213
 4407POPC   NC358403  43.253  30.318   5.253
 4407POPC   PO458404  43.546  29.725   5.199
 4407POPC   GL158405  43.421  29.813   5.610
 4407POPC   GL258406  43.719  29.700   5.766
 4407POPC   C1A58407  43.332  29.869   6.079
 4407POPC   D2A58408  43.134  29.920   6.507
 4407POPC   C3A58409  43.289  29.882   6.947
 4407POPC   C4A58410  43.131  30.014   7.343
 4407POPC   C1B58411  43.685  29.491   6.175
 4407POPC   C2B58412  43.562  29.563   6.606
 4407POPC   C3B58413  43.517  29.430   7.021
 4407POPC   C4B58414  43.540  29.701   7.382
 4408POPC   NC358415  30.166  17.005   5.420
 4408POPC   PO458416  29.475  16.790   5.408
 4408POPC   GL158417  29.831  16.722   5.699
 4408POPC   GL258418  30.048  16.415   5.717
 4408POPC   C1A58419  29.973  16.841   6.115
 4408POPC   D2A58420  29.703  16.954   6.466
 4408POPC   C3A58421  29.822  16.875   6.881
 4408POPC   C4A58422  29.986  16.732   7.275
 4408POPC   C1B58423  29.912  16.323   6.142
 4408POPC   C2B58424  30.037  16.501   6.542
 4408POPC   C3B58425  29.977  16.337   6.948
 4408POPC   C4B58426  29.721  16.299   7.296
 4409POPC   NC358427  12.362  28.474   5.220
 4409POPC   PO458428  11.781  28.294   5.148
 4409POPC   GL158429  11.887  28.223   5.626
 4409POPC   GL258430  12.231  28.270   5.754
 4409POPC   C1A58431  11.793  28.125   6.082
 4409POPC   D2A58432  11.739  28.285   6.528
 4409POPC   C3A58433  11.995  28.209   6.902
 4409POPC   C4A58434  11.981  28.280   7.331
 4409POPC   C1B58435  12.190  28.412   6.232
 4409POPC   C2B58436  12.109  28.634   6.646
 4409POPC   C3B58437  11.863  28.699   7.052
 4409POPC   C4B58438  11.922  28.820   7.505
 4410POPC   NC358439   8.364  29.343   5.377
 4410POPC   PO458440   8.087  28.739   5.310
 4410POPC   GL158441   8.245  28.921   5.701
 4410POPC   GL258442   8.030  29.188   5.739
 4410POPC   C1A58443   8.414  28.988   6.137
 4410POPC   D2A58444   8.201  29.020   6.505
 4410POPC   C3A58445   8.400  29.127   6.867
 4410POPC   C4A58446   8.263  29.031   7.257
 4410POPC   C1B58447   8.174  29.425   6.084
 4410POPC   C2B58448   8.022  29.526   6.479
 4410POPC   C3B58449   7.846  29.664   6.832
 4410POPC   C4B58450   8.129  29.523   7.170
 4411POPC   NC358451  36.088  31.739   5.596
 4411POPC   PO458452  36.344  31.133   5.419
 4411POPC   GL158453  36.189  31.251   5.856
 4411POPC   GL258454  35.863  31.353   5.866
 4411POPC   C1A58455  36.125  31.536   6.250
 4411POPC   D2A58456  35.909  31.551   6.635
 4411POPC   C3A58457  36.156  31.592   7.024
 4411POPC   C4A58458  35.998  31.384   7.401
 4411POPC   C1B58459  35.657  31.711   6.157
 4411POPC   C2B58460  35.619  31.985   6.507
 4411POPC   C3B58461  35.524  31.822   6.892
 4411POPC   C4B58462  35.776  31.826   7.261
 4412POPC   NC358463   5.113  18.915   5.481
 4412POPC   PO458464   5.398  19.469   5.764
 4412POPC   GL158465   5.197  19.139   5.999
 4412POPC   GL258466   4.877  18.916   5.946
 4412POPC   C1A58467   5.156  19.205   6.448
 4412POPC   D2A58468   4.902  19.012   6.765
 4412POPC   C3A58469   5.022  19.180   7.138
 4412POPC   C4A58470   5.221  19.390   7.478
 4412POPC   C1B58471   5.104  18.719   6.299
 4412POPC   C2B58472   5.324  18.754   6.692
 4412POPC   C3B58473   5.126  18.646   7.072
 4412POPC   C4B58474   5.053  18.771   7.505
 4413POPC   NC358475   2.585  27.565   5.488
 4413POPC   PO458476   3.241  27.571   5.320
 4413POPC   GL158477   3.050  27.654   5.752
 4413POPC   GL258478   2.706  27.771   5.944
 4413POPC   C1A58479   3.047  27.439   6.157
 4413POPC   D2A58480   2.973  27.603   6.570
 4413POPC   C3A58481   2.927  27.473   6.982
 4413POPC   C4A58482   2.930  27.872   7.217
 4413POPC   C1B58483   2.563  27.446   6.311
 4413POPC   C2B58484   2.503  27.368   6.711
 4413POPC   C3B58485   2.521  27.773   6.903
 4413POPC   C4B58486   2.450  27.730   7.314
 4414POPC   NC358487  15.005  43.118   5.426
 4414POPC   PO458488  15.480  43.597   5.314
 4414POPC   GL158489  15.421  43.264   5.690
 4414POPC   GL258490  15.334  42.869   5.782
 4414POPC   C1A58491  15.229  43.240   6.120
 4414POPC   D2A58492  15.227  43.427   6.532
 4414POPC   C3A58493  15.071  43.234   6.883
 4414POPC   C4A58494  15.068  43.394   7.276
 4414POPC   C1B58495  15.605  42.886   6.180
 4414POPC   C2B58496  15.673  43.071   6.607
 4414POPC   C3B58497  15.658  42.943   7.010
 4414POPC   C4B58498  15.332  42.955   7.239
 4415POPC   NC358499  35.295  18.357   5.280
 4415POPC   PO458500  35.710  17.904   5.511
 4415POPC   GL158501  35.378  18.164   5.755
 4415POPC   GL258502  35.360  18.517   5.788
 4415POPC   C1A58503  35.172  18.164   6.166
 4415POPC   D2A58504  35.384  18.164   6.569
 4415POPC   C3A58505  35.249  17.998   6.971
 4415POPC   C4A58506  35.426  18.155   7.364
 4415POPC   C1B58507  35.140  18.721   6.123
 4415POPC   C2B58508  35.008  18.527   6.486
 4415POPC   C3B58509  35.137  18.505   6.881
 4415POPC   C4B58510  34.983  18.358   7.247
 4416POPC   NC358511   1.907   6.270   5.055
 4416POPC   PO458512   1.927   5.848   5.540
 4416POPC   GL158513   1.955   5.685   5.930
 4416POPC   GL258514   1.790   5.985   6.047
 4416POPC   C1A58515   2.105   5.685   6.335
 4416POPC   D2A58516   1.926   5.973   6.625
 4416POPC   C3A58517   1.862   5.738   6.936
 4416POPC   C4A58518   1.833   5.756   7.348
 4416POPC   C1B58519   1.631   6.275   6.341
 4416POPC   C2B58520   1.404   6.247   6.763
 4416POPC   C3B58521   1.683   6.179   7.113
 4416POPC   C4B58522   2.163   6.122   7.149
 4417POPC   NC358523   4.186   7.741   5.467
 4417POPC   PO458524   3.973   7.153   5.509
 4417POPC   GL158525   4.070   7.341   5.905
 4417POPC   GL258526   3.791   7.162   6.049
 4417POPC   C1A58527   4.319   7.430   6.302
 4417POPC   D2A58528   4.217   7.422   6.758
 4417POPC   C3A58529   4.462   7.572   7.099
 4417POPC   C4A58530   4.308   7.567   7.507
 4417POPC   C1B58531   3.827   7.528   6.358
 4417POPC   C2B58532   3.824   7.778   6.744
 4417POPC   C3B58533   3.871   7.659   7.197
 4417POPC   C4B58534   3.815   7.441   7.612
 4418POPC   NC358535   6.914  22.897   5.297
 4418POPC   PO458536   6.322  22.791   5.609
 4418POPC   GL158537   6.715  23.007   5.766
 4418POPC   GL258538   7.011  22.778   5.789
 4418POPC   C1A58539   6.623  23.106   6.189
 4418POPC   D2A58540   6.448  22.834   6.488
 4418POPC   C3A58541   6.399  22.919   6.929
 4418POPC   C4A58542   6.487  22.707   7.326
 4418POPC   C1B58543   7.101  22.981   6.168
 4418POPC   C2B58544   6.928  23.011   6.603
 4418POPC   C3B58545   6.903  22.921   7.044
 4418POPC   C4B58546   6.943  22.869   7.486
 4419POPC   NC358547  24.192  34.625   5.407
 4419POPC   PO458548  24.649  34.187   5.352
 4419POPC   GL158549  24.453  34.404   5.798
 4419POPC   GL258550  24.347  34.783   5.877
 4419POPC   C1A58551  24.434  34.508   6.288
 4419POPC   D2A58552  24.267  34.756   6.669
 4419POPC   C3A58553  24.429  34.624   7.112
 4419POPC   C4A58554  24.317  34.736   7.556
 4419POPC   C1B58555  24.389  35.056   6.264
 4419POPC   C2B58556  24.696  35.169   6.602
 4419POPC   C3B58557  24.700  35.059   7.041
 4419POPC   C4B58558  24.818  34.892   7.431
 4420POPC   NC358559  35.686  41.769   5.401
 4420POPC   PO458560  35.131  41.456   5.492
 4420POPC   GL158561  35.290  41.548   5.866
 4420POPC   GL258562  35.647  41.539   5.860
 4420POPC   C1A58563  35.076  41.638   6.254
 4420POPC   D2A58564  34.933  41.783   6.642
 4420POPC   C3A58565  34.945  41.472   6.968
 4420POPC   C4A58566  35.307  41.418   7.221
 4420POPC   C1B58567  35.553  41.473   6.298
 4420POPC   C2B58568  35.434  41.552   6.730
 4420POPC   C3B58569  35.743  41.608   7.081
 4420POPC   C4B58570  35.749  41.420   7.515
 4421POPC   NC358571   0.684  17.070   5.347
 4421POPC   PO458572   0.450  16.430   5.529
 4421POPC   GL158573   0.460  16.649   5.895
 4421POPC   GL258574   0.776  16.694   5.886
 4421POPC   C1A58575   0.459  16.915   6.282
 4421POPC   D2A58576   0.379  17.027   6.718
 4421POPC   C3A58577   0.504  16.728   7.006
 4421POPC   C4A58578   0.357  16.452   7.300
 4421POPC   C1B58579   0.730  16.475   6.303
 4421POPC   C2B58580   0.877  16.481   6.736
 4421POPC   C3B58581   0.765  16.218   7.088
 4421POPC   C4B58582   0.396  15.953   7.227
 4422POPC   NC358583   9.617  25.646   5.524
 4422POPC   PO458584   9.781  25.136   5.013
 4422POPC   GL158585   9.792  25.162   5.548
 4422POPC   GL258586  10.040  25.237   5.791
 4422POPC   C1A58587   9.606  25.246   6.033
 4422POPC   D2A58588   9.607  25.120   6.480
 4422POPC   C3A58589   9.550  25.261   6.893
 4422POPC   C4A58590   9.712  24.986   7.214
 4422POPC   C1B58591  10.064  25.390   6.230
 4422POPC   C2B58592   9.927  25.488   6.636
 4422POPC   C3B58593  10.019  25.382   7.073
 4422POPC   C4B58594   9.659  25.452   7.386
 4423POPC   NC358595   9.416  26.555   5.359
 4423POPC   PO458596  10.060  26.670   5.330
 4423POPC   GL158597   9.873  26.873   5.688
 4423POPC   GL258598   9.505  26.786   5.800
 4423POPC   C1A58599   9.887  26.808   6.146
 4423POPC   D2A58600  10.054  26.669   6.553
 4423POPC   C3A58601  10.189  26.971   6.849
 4423POPC   C4A58602   9.939  26.829   7.152
 4423POPC   C1B58603   9.338  26.495   6.134
 4423POPC   C2B58604   9.342  26.214   6.528
 4423POPC   C3B58605   9.373  26.285   7.003
 4423POPC   C4B58606   9.601  26.512   7.348
 4424POPC   NC358607  30.763  21.650   5.281
 4424POPC   PO458608  31.054  21.140   5.096
 4424POPC   GL158609  30.914  21.230   5.594
 4424POPC   GL258610  30.671  21.496   5.765
 4424POPC   C1A58611  30.819  21.120   6.075
 4424POPC   D2A58612  30.773  21.368   6.486
 4424POPC   C3A58613  30.783  21.181   6.914
 4424POPC   C4A58614  30.833  21.365   7.341
 4424POPC   C1B58615  30.441  21.615   6.157
 4424POPC   C2B58616  30.437  21.793   6.566
 4424POPC   C3B58617  30.606  21.677   6.951
 4424POPC   C4B58618  30.489  21.733   7.359
 4425POPC   NC358619  15.350  37.104   5.343
 4425POPC   PO458620  14.748  36.947   5.659
 4425POPC   GL158621  15.172  36.985   5.821
 4425POPC   GL258622  15.297  36.658   5.751
 4425POPC   C1A58623  15.348  37.125   6.215
 4425POPC   D2A58624  15.347  36.950   6.627
 4425POPC   C3A58625  15.249  37.169   7.006
 4425POPC   C4A58626  15.029  37.025   7.375
 4425POPC   C1B58627  15.421  36.606   6.217
 4425POPC   C2B58628  15.322  36.440   6.662
 4425POPC   C3B58629  15.173  36.615   7.078
 4425POPC   C4B58630  15.180  36.538   7.540
 4426POPC   NC358631  37.989  34.016   5.454
 4426POPC   PO458632  37.330  33.843   5.400
 4426POPC   GL158633  37.525  33.599   5.753
 4426POPC   GL258634  37.796  33.769   5.881
 4426POPC   C1A58635  37.446  33.626   6.247
 4426POPC   D2A58636  37.684  33.660   6.647
 4426POPC   C3A58637  37.552  33.827   7.066
 4426POPC   C4A58638  37.422  33.912   7.517
 4426POPC   C1B58639  37.742  34.044   6.255
 4426POPC   C2B58640  37.695  34.192   6.689
 4426POPC   C3B58641  37.895  34.291   7.062
 4426POPC   C4B58642  37.829  34.237   7.493
 4427POPC   NC358643   8.394  38.849   5.343
 4427POPC   PO458644   8.011  39.324   5.065
 4427POPC   GL158645   8.111  39.232   5.557
 4427POPC   GL258646   7.881  39.002   5.714
 4427POPC   C1A58647   8.202  39.275   6.050
 4427POPC   D2A58648   8.242  39.475   6.483
 4427POPC   C3A58649   8.482  39.294   6.834
 4427POPC   C4A58650   8.316  39.412   7.211
 4427POPC   C1B58651   7.887  38.877   6.143
 4427POPC   C2B58652   8.125  38.937   6.522
 4427POPC   C3B58653   7.977  39.184   6.865
 4427POPC   C4B58654   7.872  39.194   7.293
 4428POPC   NC358655  40.130  39.037   5.352
 4428POPC   PO458656  40.152  38.302   5.339
 4428POPC   GL158657  40.260  38.269   5.836
 4428POPC   GL258658  40.130  38.553   6.045
 4428POPC   C1A58659  40.125  38.151   6.320
 4428POPC   D2A58660  39.743  38.291   6.550
 4428POPC   C3A58661  39.778  38.304   7.001
 4428POPC   C4A58662  40.074  38.035   7.160
 4428POPC   C1B58663  39.936  38.729   6.368
 4428POPC   C2B58664  39.991  38.723   6.783
 4428POPC   C3B58665  40.238  38.529   7.078
 4428POPC   C4B58666  40.115  38.429   7.488
 4429POPC   NC358667  36.793  26.342   5.453
 4429POPC   PO458668  37.154  25.748   5.434
 4429POPC   GL158669  36.836  25.730   5.765
 4429POPC   GL258670  36.891  26.062   5.864
 4429POPC   C1A58671  36.807  25.747   6.248
 4429POPC   D2A58672  36.884  25.960   6.657
 4429POPC   C3A58673  36.928  25.763   7.057
 4429POPC   C4A58674  36.563  25.699   7.329
 4429POPC   C1B58675  36.994  26.283   6.251
 4429POPC   C2B58676  37.251  26.309   6.663
 4429POPC   C3B58677  37.244  26.191   7.107
 4429POPC   C4B58678  37.401  26.337   7.505
 4430POPC   NC358679  27.663   8.625   5.250
 4430POPC   PO458680  27.271   9.172   5.517
 4430POPC   GL158681  27.463   8.938   5.851
 4430POPC   GL258682  27.354   8.555   5.824
 4430POPC   C1A58683  27.700   9.014   6.257
 4430POPC   D2A58684  27.614   9.271   6.584
 4430POPC   C3A58685  27.720   9.054   6.951
 4430POPC   C4A58686  28.082   8.842   7.126
 4430POPC   C1B58687  27.209   8.605   6.264
 4430POPC   C2B58688  27.392   8.787   6.637
 4430POPC   C3B58689  27.347   8.745   7.073
 4430POPC   C4B58690  27.642   8.718   7.383
 4431POPC   NC358691  38.087   8.027   5.424
 4431POPC   PO458692  37.515   8.416   5.347
 4431POPC   GL158693  37.660   8.283   5.742
 4431POPC   GL258694  37.978   8.416   5.764
 4431POPC   C1A58695  37.551   8.290   6.208
 4431POPC   D2A58696  37.390   8.181   6.648
 4431POPC   C3A58697  37.464   8.291   7.095
 4431POPC   C4A58698  37.535   8.022   7.493
 4431POPC   C1B58699  38.026   8.483   6.185
 4431POPC   C2B58700  37.870   8.399   6.638
 4431POPC   C3B58701  37.909   8.560   7.073
 4431POPC   C4B58702  37.879   8.380   7.484
 4432POPC   NC358703   7.111  30.682   5.467
 4432POPC   PO458704   7.906  30.781   5.465
 4432POPC   GL158705   7.577  30.750   5.802
 4432POPC   GL258706   7.223  30.871   5.940
 4432POPC   C1A58707   7.540  30.520   6.193
 4432POPC   D2A58708   7.746  30.567   6.588
 4432POPC   C3A58709   7.701  30.705   7.025
 4432POPC   C4A58710   7.358  30.548   7.269
 4432POPC   C1B58711   7.356  30.961   6.385
 4432POPC   C2B58712   7.233  30.862   6.821
 4432POPC   C3B58713   6.953  30.856   7.189
 4432POPC   C4B58714   7.175  30.968   7.563
 4433POPC   NC358715   3.250   9.139   5.607
 4433POPC   PO458716   2.616   8.883   5.459
 4433POPC   GL158717   2.686   8.962   5.883
 4433POPC   GL258718   2.973   8.751   5.909
 4433POPC   C1A58719   2.703   9.267   6.255
 4433POPC   D2A58720   2.921   9.415   6.650
 4433POPC   C3A58721   2.852   9.225   7.068
 4433POPC   C4A58722   2.809   9.108   7.534
 4433POPC   C1B58723   2.796   8.763   6.343
 4433POPC   C2B58724   2.591   8.937   6.706
 4433POPC   C3B58725   2.602   8.808   7.145
 4433POPC   C4B58726   3.060   8.782   7.250
 4434POPC   NC358727  13.983  17.795   5.041
 4434POPC   PO458728  14.499  17.865   5.528
 4434POPC   GL158729  14.384  17.680   5.890
 4434POPC   GL258730  14.027  17.663   5.847
 4434POPC   C1A58731  14.277  17.430   6.261
 4434POPC   D2A58732  14.379  17.183   6.624
 4434POPC   C3A58733  14.313  17.465   6.991
 4434POPC   C4A58734  14.302  17.537   7.456
 4434POPC   C1B58735  14.075  17.916   6.230
 4434POPC   C2B58736  14.146  17.781   6.621
 4434POPC   C3B58737  14.457  17.937   6.822
 4434POPC   C4B58738  14.507  17.938   7.225
 4435POPC   NC358739  14.218  39.499   5.457
 4435POPC   PO458740  14.751  39.159   5.444
 4435POPC   GL158741  14.560  39.307   5.838
 4435POPC   GL258742  14.229  39.173   5.838
 4435POPC   C1A58743  14.479  39.114   6.275
 4435POPC   D2A58744  14.542  38.840   6.639
 4435POPC   C3A58745  14.438  39.110   7.014
 4435POPC   C4A58746  14.569  39.549   7.073
 4435POPC   C1B58747  14.126  39.471   6.168
 4435POPC   C2B58748  14.295  39.546   6.575
 4435POPC   C3B58749  14.067  39.472   6.936
 4435POPC   C4B58750  13.990  39.325   7.317
 4436POPC   NC358751  18.702  30.817   5.343
 4436POPC   PO458752  19.220  31.065   5.442
 4436POPC   GL158753  19.052  31.042   5.828
 4436POPC   GL258754  18.718  30.932   5.858
 4436POPC   C1A58755  19.241  30.890   6.201
 4436POPC   D2A58756  19.048  30.744   6.551
 4436POPC   C3A58757  19.136  30.921   6.919
 4436POPC   C4A58758  19.349  30.826   7.256
 4436POPC   C1B58759  18.785  31.129   6.287
 4436POPC   C2B58760  18.725  31.155   6.754
 4436POPC   C3B58761  18.647  30.946   7.183
 4436POPC   C4B58762  18.462  30.793   7.603
 4437POPC   NC358763  44.645   9.852   5.353
 4437POPC   PO458764   0.245   9.543   5.353
 4437POPC   GL158765  44.856   9.547   5.714
 4437POPC   GL258766  44.745   9.894   5.862
 4437POPC   C1A58767  44.630   9.469   6.133
 4437POPC   D2A58768  44.373   9.531   6.520
 4437POPC   C3A58769  44.397   9.682   6.929
 4437POPC   C4A58770  44.794   9.560   7.046
 4437POPC   C1B58771  44.412   9.938   6.206
 4437POPC   C2B58772  44.201  10.065   6.632
 4437POPC   C3B58773  44.282  10.147   7.092
 4437POPC   C4B58774  44.737  10.075   7.122
 4438POPC   NC358775   1.546   4.183   5.377
 4438POPC   PO458776   0.902   4.443   5.470
 4438POPC   GL158777   1.246   4.357   5.789
 4438POPC   GL258778   1.297   4.019   5.810
 4438POPC   C1A58779   1.438   4.454   6.207
 4438POPC   D2A58780   1.159   4.529   6.571
 4438POPC   C3A58781   1.257   4.462   7.009
 4438POPC   C4A58782   1.105   4.782   7.306
 4438POPC   C1B58783   1.461   3.941   6.223
 4438POPC   C2B58784   1.416   4.087   6.619
 4438POPC   C3B58785   1.588   4.049   6.995
 4438POPC   C4B58786   1.491   4.093   7.370
 4439POPC   NC358787   8.426   2.279   5.377
 4439POPC   PO458788   8.492   2.944   5.478
 4439POPC   GL158789   8.341   2.760   5.893
 4439POPC   GL258790   8.265   2.409   5.842
 4439POPC   C1A58791   8.214   2.597   6.333
 4439POPC   D2A58792   8.022   2.444   6.744
 4439POPC   C3A58793   8.097   2.742   7.087
 4439POPC   C4A58794   8.522   2.860   7.066
 4439POPC   C1B58795   8.554   2.246   6.166
 4439POPC   C2B58796   8.554   2.342   6.641
 4439POPC   C3B58797   8.408   2.337   7.072
 4439POPC   C4B58798   7.973   2.266   7.236
 4440POPC   NC358799  17.170   1.001   5.495
 4440POPC   PO458800  17.525   0.383   5.328
 4440POPC   GL158801  17.857   0.345   5.608
 4440POPC   GL258802  17.615   0.476   5.815
 4440POPC   C1A58803  17.986   0.226   6.049
 4440POPC   D2A58804  17.675   0.226   6.352
 4440POPC   C3A58805  17.755   0.322   6.773
 4440POPC   C4A58806  17.643   0.328   7.176
 4440POPC   C1B58807  17.347   0.550   6.132
 4440POPC   C2B58808  17.453   0.680   6.512
 4440POPC   C3B58809  17.282   0.554   6.867
 4440POPC   C4B58810  17.318   0.710   7.242
 4441POPC   NC358811  41.915  12.677   5.393
 4441POPC   PO458812  41.474  13.175   5.435
 4441POPC   GL158813  41.485  12.848   5.775
 4441POPC   GL258814  41.215  12.595   5.788
 4441POPC   C1A58815  41.570  12.929   6.221
 4441POPC   D2A58816  41.878  12.988   6.538
 4441POPC   C3A58817  41.733  12.867   6.913
 4441POPC   C4A58818  41.560  12.974   7.290
 4441POPC   C1B58819  41.364  12.452   6.171
 4441POPC   C2B58820  41.320  12.602   6.595
 4441POPC   C3B58821  41.410  12.471   6.997
 4441POPC   C4B58822  41.812  12.429   7.159
 4442POPC   NC358823  40.367   5.599   4.927
 4442POPC   PO458824  39.884   5.604   5.341
 4442POPC   GL158825  39.779   5.823   5.751
 4442POPC   GL258826  39.720   6.204   5.703
 4442POPC   C1A58827  40.034   5.815   6.132
 4442POPC   D2A58828  40.170   5.930   6.525
 4442POPC   C3A58829  40.010   5.722   6.868
 4442POPC   C4A58830  39.924   5.923   7.213
 4442POPC   C1B58831  39.633   6.139   6.160
 4442POPC   C2B58832  39.631   5.824   6.502
 4442POPC   C3B58833  39.482   5.916   6.917
 4442POPC   C4B58834  39.532   6.285   7.171
 4443POPC   NC358835  14.346  16.252   5.352
 4443POPC   PO458836  14.007  15.694   5.435
 4443POPC   GL158837  14.235  15.989   5.765
 4443POPC   GL258838  14.434  15.800   5.977
 4443POPC   C1A58839  14.400  16.253   6.159
 4443POPC   D2A58840  14.586  16.112   6.557
 4443POPC   C3A58841  14.437  16.185   6.957
 4443POPC   C4A58842  14.634  16.048   7.317
 4443POPC   C1B58843  14.069  15.863   6.220
 4443POPC   C2B58844  14.112  15.979   6.621
 4443POPC   C3B58845  14.367  15.692   6.868
 4443POPC   C4B58846  14.296  15.500   7.260
 4444POPC   NC358847  40.809  30.576   5.486
 4444POPC   PO458848  40.753  31.239   5.544
 4444POPC   GL158849  40.588  30.839   5.865
 4444POPC   GL258850  40.732  30.460   5.959
 4444POPC   C1A58851  40.476  30.699   6.314
 4444POPC   D2A58852  40.437  30.426   6.670
 4444POPC   C3A58853  40.620  30.454   7.070
 4444POPC   C4A58854  40.781  30.841   7.226
 4444POPC   C1B58855  40.853  30.257   6.363
 4444POPC   C2B58856  40.991  30.114   6.786
 4444POPC   C3B58857  41.057  30.174   7.202
 4444POPC   C4B58858  40.924  30.432   7.500
 4445POPC   NC358859  31.412  41.251   5.338
 4445POPC   PO458860  32.034  41.556   5.383
 4445POPC   GL158861  31.683  41.552   5.683
 4445POPC   GL258862  31.381  41.808   5.638
 4445POPC   C1A58863  31.732  41.462   6.123
 4445POPC   D2A58864  31.929  41.646   6.488
 4445POPC   C3A58865  31.753  41.453   6.846
 4445POPC   C4A58866  31.624  41.282   7.217
 4445POPC   C1B58867  31.363  41.836   6.099
 4445POPC   C2B58868  31.405  41.650   6.516
 4445POPC   C3B58869  31.321  41.646   6.986
 4445POPC   C4B58870  31.541  41.892   7.292
 4446POPC   NC358871  42.678  33.129   5.610
 4446POPC   PO458872  42.085  32.907   5.338
 4446POPC   GL158873  42.280  32.813   5.762
 4446POPC   GL258874  42.326  33.103   5.991
 4446POPC   C1A58875  42.163  32.645   6.186
 4446POPC   D2A58876  42.261  32.913   6.559
 4446POPC   C3A58877  42.197  32.747   6.972
 4446POPC   C4A58878  42.316  32.900   7.378
 4446POPC   C1B58879  42.625  32.823   6.214
 4446POPC   C2B58880  42.776  32.878   6.657
 4446POPC   C3B58881  42.634  33.096   7.034
 4446POPC   C4B58882  42.599  33.323   7.457
 4447POPC   NC358883  40.391  12.253   5.417
 4447POPC   PO458884  40.831  11.785   5.252
 4447POPC   GL158885  40.680  11.884   5.691
 4447POPC   GL258886  40.819  12.232   5.729
 4447POPC   C1A58887  40.652  11.931   6.157
 4447POPC   D2A58888  40.740  11.749   6.574
 4447POPC   C3A58889  40.624  12.013   6.915
 4447POPC   C4A58890  40.605  12.048   7.362
 4447POPC   C1B58891  40.835  12.409   6.133
 4447POPC   C2B58892  40.646  12.412   6.545
 4447POPC   C3B58893  40.902  12.437   6.898
 4447POPC   C4B58894  40.886  12.484   7.329
 4448POPC   NC358895  16.564  39.663   5.380
 4448POPC   PO458896  16.913  40.299   5.483
 4448POPC   GL158897  16.726  40.003   5.779
 4448POPC   GL258898  16.378  39.941   5.769
 4448POPC   C1A58899  16.716  39.777   6.183
 4448POPC   D2A58900  16.489  39.782   6.583
 4448POPC   C3A58901  16.671  39.814   7.020
 4448POPC   C4A58902  16.557  39.637   7.467
 4448POPC   C1B58903  16.215  40.018   6.164
 4448POPC   C2B58904  16.241  40.234   6.523
 4448POPC   C3B58905  16.235  40.095   6.907
 4448POPC   C4B58906  16.222  39.939   7.266
 4449POPC   NC358907  11.887  14.988   5.566
 4449POPC   PO458908  12.236  14.438   5.165
 4449POPC   GL158909  12.188  14.495   5.619
 4449POPC   GL258910  11.873  14.464   5.839
 4449POPC   C1A58911  12.334  14.420   6.061
 4449POPC   D2A58912  12.040  14.568   6.357
 4449POPC   C3A58913  12.061  14.451   6.744
 4449POPC   C4A58914  12.173  14.442   7.138
 4449POPC   C1B58915  11.901  14.114   6.213
 4449POPC   C2B58916  11.882  13.961   6.687
 4449POPC   C3B58917  11.830  14.041   7.173
 4449POPC   C4B58918  11.793  13.919   7.602
 4450POPC   NC358919   4.597  28.812   5.413
 4450POPC   PO458920   4.045  29.152   5.402
 4450POPC   GL158921   4.205  28.921   5.754
 4450POPC   GL258922   4.462  29.116   5.826
 4450POPC   C1A58923   4.066  28.901   6.185
 4450POPC   D2A58924   3.921  29.088   6.556
 4450POPC   C3A58925   4.121  29.109   6.951
 4450POPC   C4A58926   4.076  29.437   7.257
 4450POPC   C1B58927   4.568  28.939   6.203
 4450POPC   C2B58928   4.485  29.164   6.567
 4450POPC   C3B58929   4.619  29.260   6.973
 4450POPC   C4B58930   4.783  29.002   7.257
 4451POPC   NC358931  29.626  23.516   5.355
 4451POPC   PO458932  30.200  23.847   5.217
 4451POPC   GL158933  29.943  23.760   5.705
 4451POPC   GL258934  30.116  23.575   5.942
 4451POPC   C1A58935  29.822  23.965   6.146
 4451POPC   D2A58936  29.665  23.794   6.566
 4451POPC   C3A58937  29.683  24.024   6.984
 4451POPC   C4A58938  30.025  24.029   7.296
 4451POPC   C1B58939  29.734  23.463   6.128
 4451POPC   C2B58940  29.626  23.286   6.512
 4451POPC   C3B58941  29.562  23.418   6.911
 4451POPC   C4B58942  29.800  23.576   7.200
 4452POPC   NC358943  21.505  42.538   5.476
 4452POPC   PO458944  21.078  42.198   5.186
 4452POPC   GL158945  21.122  42.322   5.684
 4452POPC   GL258946  21.397  42.158   5.869
 4452POPC   C1A58947  21.069  42.512   6.079
 4452POPC   D2A58948  21.006  42.462   6.506
 4452POPC   C3A58949  21.351  42.328   6.740
 4452POPC   C4A58950  21.551  42.493   7.115
 4452POPC   C1B58951  21.558  42.415   6.237
 4452POPC   C2B58952  21.832  42.368   6.594
 4452POPC   C3B58953  21.908  42.004   6.834
 4452POPC   C4B58954  21.621  41.960   7.155
 4453POPC   NC358955  35.059  44.043   5.529
 4453POPC   PO458956  35.564  43.732   5.488
 4453POPC   GL158957  35.423  43.756   5.896
 4453POPC   GL258958  35.100  43.629   5.858
 4453POPC   C1A58959  35.494  43.800   6.333
 4453POPC   D2A58960  35.312  43.620   6.687
 4453POPC   C3A58961  35.223  43.968   6.963
 4453POPC   C4A58962  35.162  44.208   7.323
 4453POPC   C1B58963  34.881  43.481   6.203
 4453POPC   C2B58964  34.745  43.577   6.626
 4453POPC   C3B58965  34.944  43.552   7.021
 4453POPC   C4B58966  35.010  43.701   7.484
 4454POPC   NC358967   4.743  15.145   5.459
 4454POPC   PO458968   3.988  15.106   5.474
 4454POPC   GL158969   4.299  15.059   5.781
 4454POPC   GL258970   4.432  15.409   5.837
 4454POPC   C1A58971   4.481  15.040   6.178
 4454POPC   D2A58972   4.391  15.261   6.555
 4454POPC   C3A58973   4.515  15.072   6.938
 4454POPC   C4A58974   4.352  14.921   7.322
 4454POPC   C1B58975   4.229  15.643   6.213
 4454POPC   C2B58976   4.201  15.862   6.637
 4454POPC   C3B58977   4.130  15.724   7.075
 4454POPC   C4B58978   4.277  15.421   7.388
 4455POPC   NC358979   2.053  21.807   5.409
 4455POPC   PO458980   2.020  22.492   5.461
 4455POPC   GL158981   2.087  22.310   5.807
 4455POPC   GL258982   1.854  22.063   5.787
 4455POPC   C1A58983   2.221  22.410   6.225
 4455POPC   D2A58984   2.037  22.498   6.642
 4455POPC   C3A58985   2.172  22.202   6.965
 4455POPC   C4A58986   2.098  21.847   7.234
 4455POPC   C1B58987   1.789  22.135   6.192
 4455POPC   C2B58988   1.936  21.987   6.557
 4455POPC   C3B58989   1.712  21.983   6.911
 4455POPC   C4B58990   1.572  21.783   7.254
 4456POPC   NC358991  27.727  19.618   5.364
 4456POPC   PO458992  27.507  20.286   5.436
 4456POPC   GL158993  27.738  19.979   5.752
 4456POPC   GL258994  27.991  19.688   5.837
 4456POPC   C1A58995  27.741  20.015   6.213
 4456POPC   D2A58996  27.444  20.122   6.546
 4456POPC   C3A58997  27.528  19.996   6.953
 4456POPC   C4A58998  27.426  19.810   7.332
 4456POPC   C1B58999  27.781  19.508   6.202
 4456POPC   C2B59000  27.595  19.606   6.599
 4456POPC   C3B59001  27.788  19.553   7.020
 4456POPC   C4B59002  27.931  19.841   7.332
 4457POPC   NC359003   4.653  32.400   5.654
 4457POPC   PO459004   3.998  32.477   5.388
 4457POPC   GL159005   4.085  32.364   5.869
 4457POPC   GL259006   4.389  32.145   6.002
 4457POPC   C1A59007   4.015  32.193   6.317
 4457POPC   D2A59008   4.260  32.122   6.670
 4457POPC   C3A59009   4.141  32.294   7.064
 4457POPC   C4A59010   4.086  32.051   7.412
 4457POPC   C1B59011   4.577  32.367   6.325
 4457POPC   C2B59012   4.764  32.233   6.683
 4457POPC   C3B59013   4.622  32.136   7.075
 4457POPC   C4B59014   4.568  32.433   7.433
 4458POPC   NC359015   3.888  37.261   5.109
 4458POPC   PO459016   3.281  36.980   5.335
 4458POPC   GL159017   3.254  36.840   5.770
 4458POPC   GL259018   3.535  37.052   5.837
 4458POPC   C1A59019   3.380  36.718   6.220
 4458POPC   D2A59020   3.514  36.870   6.610
 4458POPC   C3A59021   3.358  36.726   6.957
 4458POPC   C4A59022   3.388  36.956   7.305
 4458POPC   C1B59023   3.768  37.087   6.230
 4458POPC   C2B59024   3.798  37.296   6.640
 4458POPC   C3B59025   3.834  37.150   7.080
 4458POPC   C4B59026   3.890  36.985   7.558
 4459POPC   NC359027  12.586  35.731   5.615
 4459POPC   PO459028  12.624  35.116   5.467
 4459POPC   GL159029  12.953  35.378   5.782
 4459POPC   GL259030  12.954  35.741   5.947
 4459POPC   C1A59031  13.008  35.382   6.266
 4459POPC   D2A59032  12.631  35.372   6.525
 4459POPC   C3A59033  12.679  35.152   6.911
 4459POPC   C4A59034  12.949  35.201   7.269
 4459POPC   C1B59035  12.563  35.826   6.243
 4459POPC   C2B59036  12.492  35.851   6.673
 4459POPC   C3B59037  12.733  35.652   6.979
 4459POPC   C4B59038  12.615  35.570   7.372
 4460POPC   NC359039  13.315  43.184   5.810
 4460POPC   PO459040  13.839  43.210   5.378
 4460POPC   GL159041  13.813  43.128   5.860
 4460POPC   GL259042  13.634  42.849   6.069
 4460POPC   C1A59043  13.824  43.295   6.303
 4460POPC   D2A59044  13.673  43.145   6.724
 4460POPC   C3A59045  13.928  43.039   7.101
 4460POPC   C4A59046  13.865  43.089   7.555
 4460POPC   C1B59047  13.252  42.857   6.391
 4460POPC   C2B59048  13.186  42.987   6.855
 4460POPC   C3B59049  13.426  43.045   7.263
 4460POPC   C4B59050  13.289  42.986   7.725
 4461POPC   NC359051   2.031  25.168   5.107
 4461POPC   PO459052   2.246  25.751   5.235
 4461POPC   GL159053   2.191  25.411   5.615
 4461POPC   GL259054   1.885  25.451   5.843
 4461POPC   C1A59055   2.194  25.145   6.056
 4461POPC   D2A59056   2.067  25.334   6.441
 4461POPC   C3A59057   2.262  25.371   6.860
 4461POPC   C4A59058   2.101  25.261   7.287
 4461POPC   C1B59059   1.746  25.661   6.199
 4461POPC   C2B59060   1.894  25.765   6.629
 4461POPC   C3B59061   1.862  25.679   7.057
 4461POPC   C4B59062   1.487  25.713   7.316
 4462POPC   NC359063  22.114  33.147   5.406
 4462POPC   PO459064  21.532  32.903   5.510
 4462POPC   GL159065  21.934  32.862   5.785
 4462POPC   GL259066  21.914  33.207   5.874
 4462POPC   C1A59067  22.334  33.018   6.079
 4462POPC   D2A59068  22.360  33.243   6.512
 4462POPC   C3A59069  22.414  33.110   6.958
 4462POPC   C4A59070  22.522  33.324   7.351
 4462POPC   C1B59071  21.890  33.095   6.326
 4462POPC   C2B59072  21.885  33.368   6.690
 4462POPC   C3B59073  21.909  33.178   7.084
 4462POPC   C4B59074  21.941  32.732   7.118
 4463POPC   NC359075  37.573  15.041   5.134
 4463POPC   PO459076  37.201  15.493   5.600
 4463POPC   GL159077  37.447  15.355   5.969
 4463POPC   GL259078  37.680  15.075   5.904
 4463POPC   C1A59079  37.665  15.273   6.390
 4463POPC   D2A59080  37.950  15.170   6.723
 4463POPC   C3A59081  37.871  15.330   7.148
 4463POPC   C4A59082  37.789  15.127   7.552
 4463POPC   C1B59083  37.318  14.933   6.210
 4463POPC   C2B59084  37.403  14.869   6.626
 4463POPC   C3B59085  37.476  15.065   6.997
 4463POPC   C4B59086  37.364  14.887   7.374
 4464POPC   NC359087  10.021  24.743   5.055
 4464POPC   PO459088  10.515  24.498   5.401
 4464POPC   GL159089  10.442  24.583   5.854
 4464POPC   GL259090  10.132  24.751   5.941
 4464POPC   C1A59091  10.381  24.456   6.293
 4464POPC   D2A59092  10.393  24.294   6.718
 4464POPC   C3A59093  10.604  24.476   7.041
 4464POPC   C4A59094  10.896  24.319   7.313
 4464POPC   C1B59095   9.968  24.798   6.353
 4464POPC   C2B59096  10.010  24.901   6.813
 4464POPC   C3B59097  10.182  24.763   7.263
 4464POPC   C4B59098  10.290  24.751   7.783
 4465POPC   NC359099  36.054  30.856   5.192
 4465POPC   PO459100  35.402  30.797   5.357
 4465POPC   GL159101  35.374  30.595   5.779
 4465POPC   GL259102  35.614  30.335   5.845
 4465POPC   C1A59103  35.276  30.762   6.214
 4465POPC   D2A59104  35.520  30.812   6.604
 4465POPC   C3A59105  35.244  30.952   6.937
 4465POPC   C4A59106  35.195  30.779   7.313
 4465POPC   C1B59107  35.377  30.275   6.198
 4465POPC   C2B59108  35.479  30.278   6.615
 4465POPC   C3B59109  35.478  30.447   7.031
 4465POPC   C4B59110  35.631  30.562   7.459
 4466POPC   NC359111  30.735  39.466   5.457
 4466POPC   PO459112  30.441  38.873   5.653
 4466POPC   GL159113  30.538  39.237   5.877
 4466POPC   GL259114  30.345  39.526   5.768
 4466POPC   C1A59115  30.777  39.292   6.259
 4466POPC   D2A59116  30.745  39.135   6.670
 4466POPC   C3A59117  30.927  39.326   7.032
 4466POPC   C4A59118  30.952  38.981   7.307
 4466POPC   C1B59119  30.249  39.522   6.181
 4466POPC   C2B59120  30.435  39.536   6.584
 4466POPC   C3B59121  30.396  39.344   7.001
 4466POPC   C4B59122  30.395  39.572   7.414
 4467POPC   NC359123   0.657  39.754   5.553
 4467POPC   PO459124   0.153  40.256   5.474
 4467POPC   GL159125   0.272  40.067   5.844
 4467POPC   GL259126   0.622  40.161   5.852
 4467POPC   C1A59127   0.336  39.890   6.266
 4467POPC   D2A59128   0.424  39.657   6.645
 4467POPC   C3A59129   0.436  39.943   6.990
 4467POPC   C4A59130   0.285  40.137   7.338
 4467POPC   C1B59131   0.818  40.074   6.202
 4467POPC   C2B59132   0.708  40.126   6.611
 4467POPC   C3B59133   0.886  40.174   7.017
 4467POPC   C4B59134   0.795  39.922   7.397
 4468POPC   NC359135   2.305   8.080   5.448
 4468POPC   PO459136   1.758   8.373   5.408
 4468POPC   GL159137   1.816   8.093   5.777
 4468POPC   GL259138   2.060   8.248   5.901
 4468POPC   C1A59139   1.887   7.915   6.227
 4468POPC   D2A59140   2.157   8.076   6.571
 4468POPC   C3A59141   1.944   8.052   6.985
 4468POPC   C4A59142   1.871   8.294   7.390
 4468POPC   C1B59143   1.892   8.497   6.266
 4468POPC   C2B59144   2.053   8.574   6.704
 4468POPC   C3B59145   2.298   8.397   7.082
 4468POPC   C4B59146   2.345   8.552   7.518
 4469POPC   NC359147  26.820  38.382   5.258
 4469POPC   PO459148  26.346  38.503   5.671
 4469POPC   GL159149  26.780  38.458   5.784
 4469POPC   GL259150  26.891  38.120   5.693
 4469POPC   C1A59151  26.962  38.569   6.195
 4469POPC   D2A59152  26.742  38.495   6.594
 4469POPC   C3A59153  26.787  38.697   6.975
 4469POPC   C4A59154  26.432  38.898   7.226
 4469POPC   C1B59155  26.906  38.031   6.111
 4469POPC   C2B59156  26.833  38.009   6.541
 4469POPC   C3B59157  27.074  38.112   6.882
 4469POPC   C4B59158  26.989  38.169   7.303
 4470POPC   NC359159  25.088  16.982   5.428
 4470POPC   PO459160  25.522  16.512   5.406
 4470POPC   GL159161  25.470  16.794   5.743
 4470POPC   GL259162  25.147  16.615   5.798
 4470POPC   C1A59163  25.303  16.968   6.124
 4470POPC   D2A59164  25.081  16.922   6.527
 4470POPC   C3A59165  25.393  16.928   6.845
 4470POPC   C4A59166  25.355  16.976   7.269
 4470POPC   C1B59167  24.968  16.546   6.206
 4470POPC   C2B59168  25.081  16.399   6.617
 4470POPC   C3B59169  25.148  16.471   7.028
 4470POPC   C4B59170  24.950  16.571   7.382
 4471POPC   NC359171  41.249   4.091   5.538
 4471POPC   PO459172  41.637   4.611   5.204
 4471POPC   GL159173  41.594   4.472   5.676
 4471POPC   GL259174  41.798   4.737   5.842
 4471POPC   C1A59175  41.368   4.333   6.137
 4471POPC   D2A59176  41.239   4.107   6.567
 4471POPC   C3A59177  41.484   4.158   6.978
 4471POPC   C4A59178  41.431   4.382   7.333
 4471POPC   C1B59179  41.855   4.445   6.196
 4471POPC   C2B59180  41.752   4.335   6.612
 4471POPC   C3B59181  41.880   4.485   7.068
 4471POPC   C4B59182  41.863   4.519   7.549
 4472POPC   NC359183  36.923   6.230   5.065
 4472POPC   PO459184  37.182   6.744   5.223
 4472POPC   GL159185  37.243   6.599   5.690
 4472POPC   GL259186  36.966   6.689   5.898
 4472POPC   C1A59187  37.300   6.361   6.121
 4472POPC   D2A59188  37.035   6.204   6.501
 4472POPC   C3A59189  37.134   6.328   6.972
 4472POPC   C4A59190  36.825   6.380   7.309
 4472POPC   C1B59191  36.756   6.592   6.303
 4472POPC   C2B59192  36.726   6.569   6.771
 4472POPC   C3B59193  36.814   6.874   7.106
 4472POPC   C4B59194  37.040   7.220   7.350
 4473POPC   NC359195  38.347  43.496   5.234
 4473POPC   PO459196  38.737  44.009   5.352
 4473POPC   GL159197  38.511  43.973   5.760
 4473POPC   GL259198  38.651  44.291   5.862
 4473POPC   C1A59199  38.532  43.694   6.167
 4473POPC   D2A59200  38.535  43.427   6.574
 4473POPC   C3A59201  38.413  43.672   6.925
 4473POPC   C4A59202  38.411  43.861   7.345
 4473POPC   C1B59203  38.723  44.177   6.281
 4473POPC   C2B59204  38.823  43.866   6.606
 4473POPC   C3B59205  38.771  44.058   6.992
 4473POPC   C4B59206  38.577  44.403   7.224
 4474POPC   NC359207   0.126  19.131   5.401
 4474POPC   PO459208   0.689  18.899   5.492
 4474POPC   GL159209   0.617  19.161   5.906
 4474POPC   GL259210   0.338  19.327   5.849
 4474POPC   C1A59211   0.559  19.130   6.396
 4474POPC   D2A59212   0.735  18.927   6.789
 4474POPC   C3A59213   0.476  18.688   7.118
 4474POPC   C4A59214   0.612  18.735   7.607
 4474POPC   C1B59215   0.311  19.545   6.234
 4474POPC   C2B59216   0.194  19.480   6.667
 4474POPC   C3B59217   0.307  19.163   6.961
 4474POPC   C4B59218   0.616  19.140   7.280
 4475POPC   NC359219  34.864   1.729   5.452
 4475POPC   PO459220  34.436   2.245   5.376
 4475POPC   GL159221  34.590   2.089   5.757
 4475POPC   GL259222  34.444   1.773   5.751
 4475POPC   C1A59223  34.455   2.171   6.201
 4475POPC   D2A59224  34.159   2.300   6.541
 4475POPC   C3A59225  34.350   2.280   6.929
 4475POPC   C4A59226  34.585   2.089   7.239
 4475POPC   C1B59227  34.527   1.665   6.176
 4475POPC   C2B59228  34.353   1.815   6.584
 4475POPC   C3B59229  34.026   1.812   6.839
 4475POPC   C4B59230  34.107   1.845   7.243
 4476POPC   NC359231  21.874  31.675   5.234
 4476POPC   PO459232  22.462  31.450   5.275
 4476POPC   GL159233  22.322  31.356   5.692
 4476POPC   GL259234  22.003  31.555   5.738
 4476POPC   C1A59235  22.273  31.320   6.163
 4476POPC   D2A59236  22.343  31.643   6.470
 4476POPC   C3A59237  22.361  31.545   6.911
 4476POPC   C4A59238  22.202  31.284   7.225
 4476POPC   C1B59239  21.868  31.638   6.174
 4476POPC   C2B59240  21.886  31.433   6.580
 4476POPC   C3B59241  21.713  31.425   6.966
 4476POPC   C4B59242  21.710  31.734   7.247
 4477POPC   NC359243   7.829  28.500   5.016
 4477POPC   PO459244   8.256  28.186   5.473
 4477POPC   GL159245   8.081  28.437   5.747
 4477POPC   GL259246   8.114  28.188   5.975
 4477POPC   C1A59247   8.007  28.667   6.137
 4477POPC   D2A59248   8.131  28.475   6.517
 4477POPC   C3A59249   8.082  28.675   6.911
 4477POPC   C4A59250   8.065  28.568   7.346
 4477POPC   C1B59251   8.400  28.024   6.300
 4477POPC   C2B59252   8.441  28.104   6.728
 4477POPC   C3B59253   8.439  28.336   7.109
 4477POPC   C4B59254   8.334  28.198   7.575
 4478POPC   NC359255  43.322  10.059   5.424
 4478POPC   PO459256  43.481   9.473   5.472
 4478POPC   GL159257  43.364   9.767   5.835
 4478POPC   GL259258  43.000   9.902   5.785
 4478POPC   C1A59259  43.506   9.707   6.248
 4478POPC   D2A59260  43.425   9.445   6.613
 4478POPC   C3A59261  43.399   9.639   7.014
 4478POPC   C4A59262  43.147   9.745   7.356
 4478POPC   C1B59263  42.849   9.778   6.174
 4478POPC   C2B59264  42.756   9.658   6.573
 4478POPC   C3B59265  42.820   9.823   6.948
 4478POPC   C4B59266  42.723  10.018   7.306
 4479POPC   NC359267   7.182  37.832   5.504
 4479POPC   PO459268   7.826  37.614   5.532
 4479POPC   GL159269   7.529  37.433   5.865
 4479POPC   GL259270   7.399  37.737   5.942
 4479POPC   C1A59271   7.398  37.431   6.343
 4479POPC   D2A59272   7.502  37.479   6.794
 4479POPC   C3A59273   7.646  37.857   6.978
 4479POPC   C4A59274   7.722  37.902   7.425
 4479POPC   C1B59275   7.141  37.929   6.207
 4479POPC   C2B59276   7.135  37.789   6.590
 4479POPC   C3B59277   7.113  37.755   6.992
 4479POPC   C4B59278   7.249  38.050   7.227
 4480POPC   NC359279  39.678  29.232   5.647
 4480POPC   PO459280  39.139  29.350   5.247
 4480POPC   GL159281  39.138  29.279   5.725
 4480POPC   GL259282  38.787  29.352   5.843
 4480POPC   C1A59283  39.290  29.339   6.189
 4480POPC   D2A59284  39.239  29.448   6.653
 4480POPC   C3A59285  39.320  29.151   7.014
 4480POPC   C4A59286  39.117  28.822   7.253
 4480POPC   C1B59287  38.801  29.501   6.271
 4480POPC   C2B59288  38.730  29.395   6.696
 4480POPC   C3B59289  38.826  29.243   7.128
 4480POPC   C4B59290  38.697  29.433   7.526
 4481POPC   NC359291   1.375  12.358   5.349
 4481POPC   PO459292   1.284  13.056   5.492
 4481POPC   GL159293   1.301  12.979   5.913
 4481POPC   GL259294   1.369  12.600   5.877
 4481POPC   C1A59295   1.017  13.083   6.269
 4481POPC   D2A59296   0.839  12.744   6.595
 4481POPC   C3A59297   0.995  12.599   7.024
 4481POPC   C4A59298   0.952  12.828   7.450
 4481POPC   C1B59299   1.269  12.645   6.337
 4481POPC   C2B59300   1.276  12.984   6.691
 4481POPC   C3B59301   1.368  12.926   7.097
 4481POPC   C4B59302   1.532  12.497   7.127
 4482POPC   NC359303  10.428  37.212   5.315
 4482POPC   PO459304  10.828  36.618   5.490
 4482POPC   GL159305  10.475  36.695   5.763
 4482POPC   GL259306  10.680  36.550   6.028
 4482POPC   C1A59307  10.269  36.806   6.180
 4482POPC   D2A59308  10.469  36.968   6.554
 4482POPC   C3A59309  10.387  36.753   6.910
 4482POPC   C4A59310  10.604  36.791   7.254
 4482POPC   C1B59311  10.732  37.035   6.117
 4482POPC   C2B59312  10.882  37.282   6.494
 4482POPC   C3B59313  10.855  37.112   6.910
 4482POPC   C4B59314  10.900  37.205   7.365
 4483POPC   NC359315  31.191  22.891   5.402
 4483POPC   PO459316  31.834  23.045   5.356
 4483POPC   GL159317  31.617  22.836   5.715
 4483POPC   GL259318  31.625  23.177   5.873
 4483POPC   C1A59319  31.364  22.814   6.128
 4483POPC   D2A59320  31.431  23.130   6.485
 4483POPC   C3A59321  31.362  22.981   6.935
 4483POPC   C4A59322  31.458  23.093   7.375
 4483POPC   C1B59323  31.833  23.418   6.226
 4483POPC   C2B59324  31.757  23.497   6.666
 4483POPC   C3B59325  31.788  23.300   7.050
 4483POPC   C4B59326  32.024  23.308   7.433
 4484POPC   NC359327   0.416  43.917   5.379
 4484POPC   PO459328  44.902  44.267   5.504
 4484POPC   GL159329   0.264  44.133   5.812
 4484POPC   GL259330   0.370  43.762   5.843
 4484POPC   C1A59331   0.535  44.120   6.202
 4484POPC   D2A59332   0.514  43.850   6.593
 4484POPC   C3A59333   0.599  44.016   6.970
 4484POPC   C4A59334   0.383  44.044   7.339
 4484POPC   C1B59335   0.489  43.558   6.192
 4484POPC   C2B59336   0.817  43.402   6.468
 4484POPC   C3B59337   0.895  43.552   6.880
 4484POPC   C4B59338   0.545  43.536   7.172
 4485POPC   NC359339   3.455  41.978   5.568
 4485POPC   PO459340   3.830  42.461   5.386
 4485POPC   GL159341   3.641  42.516   5.808
 4485POPC   GL259342   3.285  42.504   5.843
 4485POPC   C1A59343   3.661  42.587   6.286
 4485POPC   D2A59344   3.609  42.782   6.743
 4485POPC   C3A59345   3.494  42.477   7.080
 4485POPC   C4A59346   3.641  42.070   7.239
 4485POPC   C1B59347   3.233  42.232   6.216
 4485POPC   C2B59348   3.350  42.034   6.616
 4485POPC   C3B59349   3.172  42.067   7.031
 4485POPC   C4B59350   2.974  42.426   7.200
 4486POPC   NC359351  10.156  13.877   5.419
 4486POPC   PO459352  10.477  13.285   5.451
 4486POPC   GL159353  10.608  13.594   5.814
 4486POPC   GL259354  10.419  13.930   5.841
 4486POPC   C1A59355  10.807  13.491   6.249
 4486POPC   D2A59356  10.741  13.200   6.642
 4486POPC   C3A59357  10.608  13.387   7.059
 4486POPC   C4A59358  10.579  13.316   7.541
 4486POPC   C1B59359  10.289  13.701   6.204
 4486POPC   C2B59360  10.459  13.650   6.583
 4486POPC   C3B59361  10.321  13.771   6.930
 4486POPC   C4B59362  10.159  13.627   7.305
 4487POPC   NC359363  30.285  26.156   5.565
 4487POPC   PO459364  30.945  26.097   5.471
 4487POPC   GL159365  30.707  26.022   5.833
 4487POPC   GL259366  30.785  25.694   5.936
 4487POPC   C1A59367  30.570  26.262   6.202
 4487POPC   D2A59368  30.741  26.358   6.588
 4487POPC   C3A59369  30.590  26.273   6.990
 4487POPC   C4A59370  30.789  26.229   7.356
 4487POPC   C1B59371  30.422  25.776   6.203
 4487POPC   C2B59372  30.582  25.621   6.584
 4487POPC   C3B59373  30.476  25.762   6.945
 4487POPC   C4B59374  30.279  25.882   7.278
 4488POPC   NC359375  11.722  10.508   5.173
 4488POPC   PO459376  11.155  10.341   5.483
 4488POPC   GL159377  11.138  10.711   5.718
 4488POPC   GL259378  10.762  10.752   5.772
 4488POPC   C1A59379  11.353  10.786   6.122
 4488POPC   D2A59380  11.604  10.501   6.447
 4488POPC   C3A59381  11.587  10.579   6.911
 4488POPC   C4A59382  11.508  10.283   7.258
 4488POPC   C1B59383  10.912  10.539   6.151
 4488POPC   C2B59384  11.104  10.622   6.551
 4488POPC   C3B59385  11.140  10.368   6.893
 4488POPC   C4B59386  10.973  10.402   7.272
 4489POPC   NC359387  22.149  15.885   5.339
 4489POPC   PO459388  22.493  16.371   5.677
 4489POPC   GL159389  22.342  15.911   5.815
 4489POPC   GL259390  22.017  15.969   5.956
 4489POPC   C1A59391  22.279  15.643   6.225
 4489POPC   D2A59392  22.335  15.764   6.666
 4489POPC   C3A59393  22.094  15.846   7.033
 4489POPC   C4A59394  22.247  15.915   7.440
 4489POPC   C1B59395  22.393  16.131   6.281
 4489POPC   C2B59396  22.412  16.381   6.670
 4489POPC   C3B59397  22.145  16.374   7.048
 4489POPC   C4B59398  21.838  16.213   7.361
 4490POPC   NC359399  13.439  41.090   5.372
 4490POPC   PO459400  13.805  40.576   5.473
 4490POPC   GL159401  13.708  40.901   5.776
 4490POPC   GL259402  13.338  40.855   5.838
 4490POPC   C1A59403  13.656  40.902   6.237
 4490POPC   D2A59404  13.794  40.889   6.671
 4490POPC   C3A59405  13.508  40.853   7.036
 4490POPC   C4A59406  13.622  40.949   7.486
 4490POPC   C1B59407  13.196  40.604   6.220
 4490POPC   C2B59408  13.142  40.436   6.659
 4490POPC   C3B59409  13.071  40.585   7.101
 4490POPC   C4B59410  13.153  40.732   7.558
 4491POPC   NC359411  33.619  20.998   5.475
 4491POPC   PO459412  33.747  21.662   5.421
 4491POPC   GL159413  33.801  21.401   5.778
 4491POPC   GL259414  33.474  21.394   5.833
 4491POPC   C1A59415  33.933  21.264   6.190
 4491POPC   D2A59416  33.952  21.081   6.555
 4491POPC   C3A59417  33.976  21.313   6.905
 4491POPC   C4A59418  33.934  21.429   7.300
 4491POPC   C1B59419  33.430  21.343   6.262
 4491POPC   C2B59420  33.478  21.205   6.702
 4491POPC   C3B59421  33.471  21.288   7.179
 4491POPC   C4B59422  33.622  21.082   7.595
 4492POPC   NC359423  43.030   7.132   5.686
 4492POPC   PO459424  43.144   7.662   5.229
 4492POPC   GL159425  43.249   7.573   5.747
 4492POPC   GL259426  42.932   7.545   5.960
 4492POPC   C1A59427  43.287   7.413   6.273
 4492POPC   D2A59428  42.956   7.438   6.642
 4492POPC   C3A59429  43.009   7.318   7.092
 4492POPC   C4A59430  43.166   7.199   7.508
 4492POPC   C1B59431  42.827   7.868   6.284
 4492POPC   C2B59432  42.650   7.853   6.704
 4492POPC   C3B59433  42.617   7.669   7.141
 4492POPC   C4B59434  42.707   7.409   7.528
 4493POPC   NC359435  20.441  13.054   5.480
 4493POPC   PO459436  20.933  12.546   5.418
 4493POPC   GL159437  20.769  12.752   5.776
 4493POPC   GL259438  20.962  13.052   5.676
 4493POPC   C1A59439  20.564  12.847   6.192
 4493POPC   D2A59440  20.293  12.928   6.537
 4493POPC   C3A59441  20.510  12.811   6.867
 4493POPC   C4A59442  20.572  12.980   7.223
 4493POPC   C1B59443  21.055  13.044   6.125
 4493POPC   C2B59444  20.909  12.912   6.560
 4493POPC   C3B59445  21.059  13.070   6.965
 4493POPC   C4B59446  21.033  12.984   7.427
 4494POPC   NC359447  19.502  41.654   5.461
 4494POPC   PO459448  19.939  41.231   5.133
 4494POPC   GL159449  19.956  41.408   5.619
 4494POPC   GL259450  20.009  41.776   5.738
 4494POPC   C1A59451  19.859  41.445   6.120
 4494POPC   D2A59452  20.047  41.724   6.529
 4494POPC   C3A59453  20.007  41.726   7.002
 4494POPC   C4A59454  19.772  41.384   7.183
 4494POPC   C1B59455  19.767  41.937   6.134
 4494POPC   C2B59456  19.528  41.681   6.424
 4494POPC   C3B59457  19.529  41.678   6.837
 4494POPC   C4B59458  19.336  41.764   7.228
 4495POPC   NC359459  13.170  12.886   5.541
 4495POPC   PO459460  12.495  12.824   5.531
 4495POPC   GL159461  12.709  12.755   5.921
 4495POPC   GL259462  12.948  13.034   5.976
 4495POPC   C1A59463  12.793  12.740   6.377
 4495POPC   D2A59464  12.544  12.629   6.737
 4495POPC   C3A59465  12.799  12.484   7.043
 4495POPC   C4A59466  12.965  12.649   7.410
 4495POPC   C1B59467  12.590  13.197   6.233
 4495POPC   C2B59468  12.544  13.164   6.693
 4495POPC   C3B59469  12.779  13.031   7.068
 4495POPC   C4B59470  12.684  13.053   7.532
 4496POPC   NC359471  15.033  33.406   5.288
 4496POPC   PO459472  15.359  32.692   5.356
 4496POPC   GL159473  15.127  32.950   5.651
 4496POPC   GL259474  15.279  33.287   5.740
 4496POPC   C1A59475  15.162  32.915   6.098
 4496POPC   D2A59476  15.175  33.105   6.479
 4496POPC   C3A59477  15.215  32.909   6.865
 4496POPC   C4A59478  15.347  33.179   7.168
 4496POPC   C1B59479  15.000  33.430   6.095
 4496POPC   C2B59480  14.778  33.433   6.509
 4496POPC   C3B59481  14.943  33.396   6.906
 4496POPC   C4B59482  15.045  33.586   7.276
 4497POPC   NC359483   3.184  10.743   5.308
 4497POPC   PO459484   2.682  10.248   5.432
 4497POPC   GL159485   2.631  10.437   5.862
 4497POPC   GL259486   2.879  10.710   5.898
 4497POPC   C1A59487   2.629  10.576   6.321
 4497POPC   D2A59488   2.759  10.763   6.703
 4497POPC   C3A59489   2.693  10.416   6.985
 4497POPC   C4A59490   2.329  10.395   7.246
 4497POPC   C1B59491   3.103  10.843   6.307
 4497POPC   C2B59492   3.306  10.873   6.704
 4497POPC   C3B59493   3.103  10.789   7.090
 4497POPC   C4B59494   2.650  10.850   7.233
 4498POPC   NC359495  34.626   2.674   5.320
 4498POPC   PO459496  34.303   3.233   5.453
 4498POPC   GL159497  34.393   2.985   5.830
 4498POPC   GL259498  34.466   2.599   5.791
 4498POPC   C1A59499  34.620   2.890   6.196
 4498POPC   D2A59500  34.594   2.568   6.486
 4498POPC   C3A59501  34.564   2.762   6.867
 4498POPC   C4A59502  34.381   2.728   7.253
 4498POPC   C1B59503  34.843   2.453   6.021
 4498POPC   C2B59504  35.063   2.375   6.413
 4498POPC   C3B59505  34.885   2.336   6.847
 4498POPC   C4B59506  34.866   2.555   7.238
 4499POPC   NC359507   1.151  42.141   5.449
 4499POPC   PO459508   1.764  42.426   5.375
 4499POPC   GL159509   1.469  42.440   5.724
 4499POPC   GL259510   1.122  42.432   5.876
 4499POPC   C1A59511   1.522  42.352   6.155
 4499POPC   D2A59512   1.468  42.014   6.425
 4499POPC   C3A59513   1.389  42.177   6.817
 4499POPC   C4A59514   1.414  42.027   7.218
 4499POPC   C1B59515   1.010  42.299   6.262
 4499POPC   C2B59516   0.938  42.439   6.661
 4499POPC   C3B59517   0.925  42.245   7.051
 4499POPC   C4B59518   0.976  42.252   7.466
 4500POPC   NC359519  25.135  24.661   5.315
 4500POPC   PO459520  25.504  24.176   5.328
 4500POPC   GL159521  25.358  24.229   5.774
 4500POPC   GL259522  25.057  24.461   5.811
 4500POPC   C1A59523  25.185  24.152   6.222
 4500POPC   D2A59524  25.060  24.359   6.642
 4500POPC   C3A59525  25.333  24.251   6.984
 4500POPC   C4A59526  25.368  24.268   7.434
 4500POPC   C1B59527  25.141  24.665   6.229
 4500POPC   C2B59528  25.374  24.768   6.639
 4500POPC   C3B59529  25.346  24.748   7.101
 4500POPC   C4B59530  25.288  25.072   7.397
 4501POPC   NC359531   7.513  44.991   5.473
 4501POPC   PO459532   7.301   0.592   5.332
 4501POPC   GL159533   7.470   0.461   5.737
 4501POPC   GL259534   7.728   0.696   5.834
 4501POPC   C1A59535   7.376   0.536   6.175
 4501POPC   D2A59536   7.053   0.518   6.471
 4501POPC   C3A59537   7.259   0.514   6.878
 4501POPC   C4A59538   7.239   0.454   7.328
 4501POPC   C1B59539   7.799   0.883   6.225
 4501POPC   C2B59540   7.602   0.820   6.618
 4501POPC   C3B59541   7.679   0.829   7.046
 4501POPC   C4B59542   7.586   0.767   7.475
 4502POPC   NC359543  10.128  41.703   5.439
 4502POPC   PO459544   9.778  41.068   5.253
 4502POPC   GL159545   9.780  41.348   5.654
 4502POPC   GL259546   9.666  41.676   5.695
 4502POPC   C1A59547   9.929  41.449   6.131
 4502POPC   D2A59548   9.937  41.621   6.607
 4502POPC   C3A59549   9.772  41.416   7.032
 4502POPC   C4A59550   9.729  41.449   7.524
 4502POPC   C1B59551   9.437  41.602   6.094
 4502POPC   C2B59552   9.371  41.805   6.491
 4502POPC   C3B59553   9.572  41.876   6.887
 4502POPC   C4B59554   9.436  41.831   7.315
 4503POPC   NC359555  40.429  31.558   5.456
 4503POPC   PO459556  39.836  31.399   5.335
 4503POPC   GL159557  39.954  31.208   5.795
 4503POPC   GL259558  39.626  31.189   5.948
 4503POPC   C1A59559  40.159  31.155   6.253
 4503POPC   D2A59560  40.129  31.454   6.656
 4503POPC   C3A59561  40.148  31.332   7.118
 4503POPC   C4A59562  40.366  31.182   7.525
 4503POPC   C1B59563  39.790  31.516   6.245
 4503POPC   C2B59564  39.681  31.750   6.642
 4503POPC   C3B59565  39.803  31.711   7.087
 4503POPC   C4B59566  39.878  32.044   7.370
 4504POPC   NC359567  16.608  25.398   5.220
 4504POPC   PO459568  17.059  25.120   5.398
 4504POPC   GL159569  16.830  25.076   5.796
 4504POPC   GL259570  17.027  25.302   5.983
 4504POPC   C1A59571  16.603  25.161   6.237
 4504POPC   D2A59572  16.720  25.364   6.665
 4504POPC   C3A59573  16.764  25.106   7.065
 4504POPC   C4A59574  16.643  24.769   7.377
 4504POPC   C1B59575  17.072  25.094   6.404
 4504POPC   C2B59576  17.212  25.244   6.800
 4504POPC   C3B59577  17.125  25.440   7.205
 4504POPC   C4B59578  16.790  25.626   7.466
 4505POPC   NC359579  30.952  17.199   5.506
 4505POPC   PO459580  30.459  16.612   5.437
 4505POPC   GL159581  30.553  16.674   5.843
 4505POPC   GL259582  30.549  17.054   5.806
 4505POPC   C1A59583  30.870  16.483   6.143
 4505POPC   D2A59584  31.050  16.684   6.517
 4505POPC   C3A59585  30.844  16.550   6.893
 4505POPC   C4A59586  30.884  16.526   7.327
 4505POPC   C1B59587  30.745  16.991   6.197
 4505POPC   C2B59588  30.519  16.712   6.478
 4505POPC   C3B59589  30.341  16.767   6.877
 4505POPC   C4B59590  30.608  16.961   7.147
 4506POPC   NC359591   5.250  31.056   5.281
 4506POPC   PO459592   4.999  30.555   5.140
 4506POPC   GL159593   5.000  30.814   5.634
 4506POPC   GL259594   4.639  30.918   5.756
 4506POPC   C1A59595   5.263  30.842   6.036
 4506POPC   D2A59596   5.207  30.599   6.432
 4506POPC   C3A59597   5.304  30.743   6.860
 4506POPC   C4A59598   5.134  30.480   7.145
 4506POPC   C1B59599   4.811  31.025   6.170
 4506POPC   C2B59600   4.962  31.032   6.596
 4506POPC   C3B59601   4.867  30.978   7.039
 4506POPC   C4B59602   5.004  30.884   7.479
 4507POPC   NC359603  30.567   7.335   5.410
 4507POPC   PO459604  30.846   7.897   5.350
 4507POPC   GL159605  30.607   7.688   5.770
 4507POPC   GL259606  30.237   7.541   5.776
 4507POPC   C1A59607  30.613   7.318   6.097
 4507POPC   D2A59608  30.738   7.231   6.564
 4507POPC   C3A59609  30.711   7.017   6.971
 4507POPC   C4A59610  30.701   7.119   7.417
 4507POPC   C1B59611  30.242   7.654   6.227
 4507POPC   C2B59612  30.397   7.630   6.663
 4507POPC   C3B59613  30.566   7.502   7.071
 4507POPC   C4B59614  30.573   7.672   7.506
 4508POPC   NC359615  32.669  13.541   5.452
 4508POPC   PO459616  32.005  13.705   5.264
 4508POPC   GL159617  32.166  13.618   5.678
 4508POPC   GL259618  31.821  13.501   5.754
 4508POPC   C1A59619  32.448  13.664   6.076
 4508POPC   D2A59620  32.348  13.596   6.540
 4508POPC   C3A59621  32.539  13.858   6.849
 4508POPC   C4A59622  32.591  13.819   7.283
 4508POPC   C1B59623  32.009  13.431   6.159
 4508POPC   C2B59624  32.009  13.198   6.552
 4508POPC   C3B59625  32.035  13.362   6.949
 4508POPC   C4B59626  32.055  13.684   7.265
 4509POPC   NC359627  33.809  29.696   5.317
 4509POPC   PO459628  33.675  30.372   5.241
 4509POPC   GL159629  33.604  30.161   5.680
 4509POPC   GL259630  33.630  29.795   5.802
 4509POPC   C1A59631  33.519  30.183   6.155
 4509POPC   D2A59632  33.609  29.998   6.563
 4509POPC   C3A59633  33.695  30.230   6.952
 4509POPC   C4A59634  33.518  30.165   7.379
 4509POPC   C1B59635  33.984  29.899   6.089
 4509POPC   C2B59636  34.110  29.871   6.543
 4509POPC   C3B59637  33.940  29.783   6.989
 4509POPC   C4B59638  33.921  29.851   7.447
 4510POPC   NC359639   6.097  43.758   5.341
 4510POPC   PO459640   5.512  44.016   5.539
 4510POPC   GL159641   5.801  43.784   5.776
 4510POPC   GL259642   6.053  44.030   5.827
 4510POPC   C1A59643   5.918  43.675   6.213
 4510POPC   D2A59644   5.775  43.583   6.645
 4510POPC   C3A59645   6.071  43.662   6.995
 4510POPC   C4A59646   6.070  44.013   7.312
 4510POPC   C1B59647   5.723  44.156   6.138
 4510POPC   C2B59648   5.551  44.042   6.523
 4510POPC   C3B59649   5.733  44.035   6.907
 4510POPC   C4B59650   5.563  44.147   7.286
 4511POPC   NC359651   1.314  32.638   5.422
 4511POPC   PO459652   1.546  33.286   5.411
 4511POPC   GL159653   1.294  33.102   5.747
 4511POPC   GL259654   0.994  32.863   5.787
 4511POPC   C1A59655   1.238  33.174   6.188
 4511POPC   D2A59656   1.499  33.204   6.548
 4511POPC   C3A59657   1.270  33.217   6.904
 4511POPC   C4A59658   1.387  33.129   7.277
 4511POPC   C1B59659   1.291  32.674   6.065
 4511POPC   C2B59660   1.497  32.687   6.442
 4511POPC   C3B59661   1.395  32.733   6.853
 4511POPC   C4B59662   1.600  32.666   7.229
 4512POPC   NC359663  15.795  33.946   5.381
 4512POPC   PO459664  16.410  33.855   5.227
 4512POPC   GL159665  16.195  33.871   5.675
 4512POPC   GL259666  16.380  34.000   5.853
 4512POPC   C1A59667  15.916  34.036   6.065
 4512POPC   D2A59668  15.702  33.885   6.449
 4512POPC   C3A59669  15.858  33.925   6.881
 4512POPC   C4A59670  15.908  33.584   7.191
 4512POPC   C1B59671  16.290  33.715   6.166
 4512POPC   C2B59672  16.260  33.906   6.541
 4512POPC   C3B59673  16.375  33.895   6.959
 4512POPC   C4B59674  16.184  33.976   7.348
 4513POPC   NC359675  18.832  40.587   5.606
 4513POPC   PO459676  19.374  41.144   5.420
 4513POPC   GL159677  19.185  40.928   5.764
 4513POPC   GL259678  19.379  40.629   5.882
 4513POPC   C1A59679  18.986  40.914   6.181
 4513POPC   D2A59680  19.176  41.071   6.568
 4513POPC   C3A59681  19.171  40.934   7.017
 4513POPC   C4A59682  19.402  41.101   7.402
 4513POPC   C1B59683  19.104  40.411   6.193
 4513POPC   C2B59684  19.076  40.515   6.632
 4513POPC   C3B59685  19.109  40.399   7.071
 4513POPC   C4B59686  18.798  40.442   7.378
 4514POPC   NC359687   2.542  36.145   5.423
 4514POPC   PO459688   3.214  35.984   5.390
 4514POPC   GL159689   2.930  36.068   5.749
 4514POPC   GL259690   2.913  36.413   5.722
 4514POPC   C1A59691   2.813  36.050   6.220
 4514POPC   D2A59692   2.538  36.227   6.559
 4514POPC   C3A59693   2.767  36.113   6.907
 4514POPC   C4A59694   2.745  36.079   7.331
 4514POPC   C1B59695   2.863  36.558   6.133
 4514POPC   C2B59696   2.983  36.455   6.526
 4514POPC   C3B59697   2.860  36.599   6.968
 4514POPC   C4B59698   3.095  36.493   7.341
 4515POPC   NC359699  17.532  33.616   5.440
 4515POPC   PO459700  17.140  34.121   5.639
 4515POPC   GL159701  17.395  33.821   5.897
 4515POPC   GL259702  17.747  33.624   5.876
 4515POPC   C1A59703  17.621  33.889   6.279
 4515POPC   D2A59704  17.628  34.095   6.646
 4515POPC   C3A59705  17.451  33.906   6.976
 4515POPC   C4A59706  17.583  33.971   7.340
 4515POPC   C1B59707  17.826  33.441   6.264
 4515POPC   C2B59708  17.666  33.518   6.672
 4515POPC   C3B59709  17.760  33.497   7.092
 4515POPC   C4B59710  17.995  33.639   7.427
 4516POPC   NC359711  18.379  38.117   5.314
 4516POPC   PO459712  18.188  37.483   5.388
 4516POPC   GL159713  18.250  37.777   5.698
 4516POPC   GL259714  18.509  38.001   5.832
 4516POPC   C1A59715  18.163  37.745   6.118
 4516POPC   D2A59716  18.358  37.945   6.461
 4516POPC   C3A59717  18.269  37.716   6.819
 4516POPC   C4A59718  17.997  37.701   7.127
 4516POPC   C1B59719  18.682  37.684   6.149
 4516POPC   C2B59720  18.675  37.518   6.589
 4516POPC   C3B59721  18.738  37.648   7.000
 4516POPC   C4B59722  18.465  37.917   7.259
 4517POPC   NC359723  29.276   9.908   5.320
 4517POPC   PO459724  28.863   9.458   5.680
 4517POPC   GL159725  29.032   9.804   5.784
 4517POPC   GL259726  29.389   9.768   5.790
 4517POPC   C1A59727  28.986   9.845   6.206
 4517POPC   D2A59728  28.806   9.784   6.584
 4517POPC   C3A59729  28.979   9.759   6.972
 4517POPC   C4A59730  28.983   9.981   7.339
 4517POPC   C1B59731  29.476   9.844   6.196
 4517POPC   C2B59732  29.328   9.793   6.605
 4517POPC   C3B59733  29.465  10.000   6.954
 4517POPC   C4B59734  29.789   9.937   7.300
 4518POPC   NC359735  14.629   2.673   5.411
 4518POPC   PO459736  14.037   2.785   5.492
 4518POPC   GL159737  14.280   2.547   5.812
 4518POPC   GL259738  14.633   2.632   5.924
 4518POPC   C1A59739  14.256   2.547   6.266
 4518POPC   D2A59740  14.368   2.816   6.622
 4518POPC   C3A59741  14.337   2.899   7.072
 4518POPC   C4A59742  14.217   2.697   7.450
 4518POPC   C1B59743  14.761   2.507   6.368
 4518POPC   C2B59744  14.678   2.439   6.817
 4518POPC   C3B59745  14.710   2.590   7.231
 4518POPC   C4B59746  14.644   2.956   7.525
 4519POPC   NC359747  44.928  11.692   5.344
 4519POPC   PO459748  44.910  12.407   5.358
 4519POPC   GL159749  44.672  12.322   5.736
 4519POPC   GL259750  44.632  11.953   5.729
 4519POPC   C1A59751  44.657  12.236   6.177
 4519POPC   D2A59752  44.720  11.963   6.496
 4519POPC   C3A59753  44.830  12.081   6.911
 4519POPC   C4A59754  44.777  12.262   7.319
 4519POPC   C1B59755  44.323  11.810   6.045
 4519POPC   C2B59756  44.246  11.732   6.446
 4519POPC   C3B59757  44.393  11.781   6.835
 4519POPC   C4B59758  44.482  11.859   7.241
 4520POPC   NC359759   9.985  18.293   5.111
 4520POPC   PO459760   9.451  18.456   5.545
 4520POPC   GL159761   9.783  18.349   5.764
 4520POPC   GL259762  10.119  18.421   5.679
 4520POPC   C1A59763   9.860  18.591   6.123
 4520POPC   D2A59764   9.773  18.683   6.530
 4520POPC   C3A59765   9.517  18.430   6.747
 4520POPC   C4A59766   9.547  18.368   7.157
 4520POPC   C1B59767  10.152  18.185   6.070
 4520POPC   C2B59768   9.883  18.154   6.444
 4520POPC   C3B59769   9.968  18.178   6.883
 4520POPC   C4B59770   9.924  17.915   7.235
 4521POPC   NC359771  30.586  32.883   5.327
 4521POPC   PO459772  30.987  33.426   5.180
 4521POPC   GL159773  30.757  33.422   5.618
 4521POPC   GL259774  30.824  33.073   5.771
 4521POPC   C1A59775  30.682  33.442   6.092
 4521POPC   D2A59776  30.857  33.123   6.385
 4521POPC   C3A59777  30.723  33.132   6.824
 4521POPC   C4A59778  30.687  33.526   7.058
 4521POPC   C1B59779  30.506  32.903   6.094
 4521POPC   C2B59780  30.465  32.772   6.552
 4521POPC   C3B59781  30.336  32.803   7.006
 4521POPC   C4B59782  30.427  32.712   7.455
 4522POPC   NC359783  42.134   7.071   5.644
 4522POPC   PO459784  42.142   6.538   5.178
 4522POPC   GL159785  42.347   6.607   5.693
 4522POPC   GL259786  42.725   6.658   5.830
 4522POPC   C1A59787  42.333   6.765   6.187
 4522POPC   D2A59788  42.608   6.881   6.552
 4522POPC   C3A59789  42.428   6.720   6.931
 4522POPC   C4A59790  42.131   6.799   7.265
 4522POPC   C1B59791  42.609   6.356   6.145
 4522POPC   C2B59792  42.415   6.362   6.529
 4522POPC   C3B59793  42.496   6.196   6.918
 4522POPC   C4B59794  42.379   6.365   7.304
 4523POPC   NC359795   3.160  26.473   5.322
 4523POPC   PO459796   3.833  26.766   5.365
 4523POPC   GL159797   3.679  26.589   5.766
 4523POPC   GL259798   3.314  26.645   5.798
 4523POPC   C1A59799   3.554  26.541   6.228
 4523POPC   D2A59800   3.357  26.722   6.600
 4523POPC   C3A59801   3.511  26.517   6.956
 4523POPC   C4A59802   3.671  26.757   7.303
 4523POPC   C1B59803   3.260  26.976   6.150
 4523POPC   C2B59804   3.320  27.230   6.577
 4523POPC   C3B59805   3.262  27.065   7.005
 4523POPC   C4B59806   3.151  26.714   7.259
 4524POPC   NC359807  15.720  37.979   5.466
 4524POPC   PO459808  15.761  37.326   5.454
 4524POPC   GL159809  16.063  37.559   5.688
 4524POPC   GL259810  15.896  37.808   5.908
 4524POPC   C1A59811  16.244  37.512   6.104
 4524POPC   D2A59812  16.017  37.695   6.440
 4524POPC   C3A59813  16.077  37.732   6.854
 4524POPC   C4A59814  16.120  37.532   7.226
 4524POPC   C1B59815  15.597  37.571   6.194
 4524POPC   C2B59816  15.597  37.405   6.627
 4524POPC   C3B59817  15.629  37.566   7.051
 4524POPC   C4B59818  15.703  37.726   7.500
 4525POPC   NC359819  37.220  30.221   5.436
 4525POPC   PO459820  37.927  30.115   5.415
 4525POPC   GL159821  37.661  29.932   5.740
 4525POPC   GL259822  37.440  29.683   5.581
 4525POPC   C1A59823  37.782  29.796   6.169
 4525POPC   D2A59824  37.630  29.954   6.574
 4525POPC   C3A59825  37.939  30.149   6.832
 4525POPC   C4A59826  37.773  29.989   7.225
 4525POPC   C1B59827  37.434  29.476   5.982
 4525POPC   C2B59828  37.424  29.510   6.439
 4525POPC   C3B59829  37.352  29.498   6.905
 4525POPC   C4B59830  37.398  29.660   7.326
 4526POPC   NC359831  15.940  44.959   5.321
 4526POPC   PO459832  16.227  44.261   5.338
 4526POPC   GL159833  15.911  44.492   5.604
 4526POPC   GL259834  16.090  44.787   5.798
 4526POPC   C1A59835  15.787  44.457   6.052
 4526POPC   D2A59836  16.088  44.487   6.405
 4526POPC   C3A59837  16.011  44.482   6.861
 4526POPC   C4A59838  15.743  44.519   7.212
 4526POPC   C1B59839  16.264  44.949   6.231
 4526POPC   C2B59840  16.245  44.923   6.706
 4526POPC   C3B59841  16.107  44.890   7.155
 4526POPC   C4B59842  16.296  44.989   7.522
 4527POPC   NC359843  33.506  25.366   5.471
 4527POPC   PO459844  34.163  25.094   5.548
 4527POPC   GL159845  33.863  25.235   5.815
 4527POPC   GL259846  34.110  25.438   5.962
 4527POPC   C1A59847  33.667  25.295   6.216
 4527POPC   D2A59848  33.749  25.078   6.577
 4527POPC   C3A59849  33.778  25.335   6.931
 4527POPC   C4A59850  33.579  25.367   7.327
 4527POPC   C1B59851  34.134  25.045   6.211
 4527POPC   C2B59852  34.269  25.087   6.603
 4527POPC   C3B59853  34.137  25.002   6.972
 4527POPC   C4B59854  34.091  25.239   7.345
 4528POPC   NC359855  11.682   7.031   5.480
 4528POPC   PO459856  11.202   7.383   5.262
 4528POPC   GL159857  11.352   7.443   5.667
 4528POPC   GL259858  11.414   7.167   5.902
 4528POPC   C1A59859  11.514   7.664   5.995
 4528POPC   D2A59860  11.468   7.712   6.447
 4528POPC   C3A59861  11.389   7.722   6.889
 4528POPC   C4A59862  11.383   7.591   7.321
 4528POPC   C1B59863  11.125   7.423   6.197
 4528POPC   C2B59864  10.941   7.547   6.616
 4528POPC   C3B59865  10.952   7.501   7.079
 4528POPC   C4B59866  10.956   7.420   7.543
 4529POPC   NC359867  29.086  21.044   5.211
 4529POPC   PO459868  29.538  21.520   5.479
 4529POPC   GL159869  29.347  21.360   5.871
 4529POPC   GL259870  28.991  21.253   5.915
 4529POPC   C1A59871  29.210  21.638   6.216
 4529POPC   D2A59872  29.478  21.840   6.514
 4529POPC   C3A59873  29.331  21.837   6.920
 4529POPC   C4A59874  29.243  21.718   7.335
 4529POPC   C1B59875  29.243  21.157   6.340
 4529POPC   C2B59876  29.243  21.355   6.729
 4529POPC   C3B59877  28.980  21.388   7.076
 4529POPC   C4B59878  28.999  21.315   7.549
 4530POPC   NC359879  43.150  42.568   5.546
 4530POPC   PO459880  42.891  42.035   5.454
 4530POPC   GL159881  43.049  42.148   5.869
 4530POPC   GL259882  43.420  42.211   5.848
 4530POPC   C1A59883  42.988  42.151   6.332
 4530POPC   D2A59884  43.196  42.074   6.742
 4530POPC   C3A59885  43.116  42.040   7.187
 4530POPC   C4A59886  42.970  42.426   7.271
 4530POPC   C1B59887  43.419  42.497   6.215
 4530POPC   C2B59888  43.286  42.586   6.646
 4530POPC   C3B59889  43.452  42.413   7.054
 4530POPC   C4B59890  43.431  42.339   7.510
 4531POPC   NC359891  34.740  41.913   5.451
 4531POPC   PO459892  34.386  41.460   5.093
 4531POPC   GL159893  34.433  41.524   5.627
 4531POPC   GL259894  34.757  41.584   5.840
 4531POPC   C1A59895  34.396  41.348   6.098
 4531POPC   D2A59896  34.589  41.362   6.557
 4531POPC   C3A59897  34.407  41.491   6.971
 4531POPC   C4A59898  34.636  41.540   7.376
 4531POPC   C1B59899  34.583  41.792   6.245
 4531POPC   C2B59900  34.412  41.891   6.671
 4531POPC   C3B59901  34.673  41.931   7.055
 4531POPC   C4B59902  35.076  41.918   7.229
 4532POPC   NC359903  37.775   2.346   5.432
 4532POPC   PO459904  37.344   1.834   5.175
 4532POPC   GL159905  37.533   1.786   5.620
 4532POPC   GL259906  37.839   1.964   5.750
 4532POPC   C1A59907  37.485   1.797   6.091
 4532POPC   D2A59908  37.426   1.949   6.526
 4532POPC   C3A59909  37.608   1.867   6.934
 4532POPC   C4A59910  37.438   1.841   7.339
 4532POPC   C1B59911  37.852   2.180   6.164
 4532POPC   C2B59912  37.967   2.008   6.569
 4532POPC   C3B59913  38.028   2.186   6.987
 4532POPC   C4B59914  37.827   2.220   7.392
 4533POPC   NC359915  30.680   6.341   5.411
 4533POPC   PO459916  30.848   6.960   5.444
 4533POPC   GL159917  30.593   6.765   5.777
 4533POPC   GL259918  30.826   6.517   5.883
 4533POPC   C1A59919  30.581   6.804   6.248
 4533POPC   D2A59920  30.397   6.743   6.657
 4533POPC   C3A59921  30.611   6.527   6.978
 4533POPC   C4A59922  30.718   6.602   7.408
 4533POPC   C1B59923  31.043   6.415   6.265
 4533POPC   C2B59924  31.002   6.602   6.669
 4533POPC   C3B59925  31.116   6.542   7.110
 4533POPC   C4B59926  31.142   6.286   7.523
 4534POPC   NC359927  14.431  17.430   5.424
 4534POPC   PO459928  14.411  16.726   5.415
 4534POPC   GL159929  14.492  16.774   5.834
 4534POPC   GL259930  14.515  17.151   5.876
 4534POPC   C1A59931  14.521  16.750   6.262
 4534POPC   D2A59932  14.303  16.561   6.575
 4534POPC   C3A59933  14.464  16.700   6.911
 4534POPC   C4A59934  14.525  16.554   7.292
 4534POPC   C1B59935  14.092  17.009   6.054
 4534POPC   C2B59936  13.907  16.937   6.487
 4534POPC   C3B59937  14.029  16.967   6.912
 4534POPC   C4B59938  14.309  17.050   7.270
 4535POPC   NC359939   2.815  17.638   5.322
 4535POPC   PO459940   2.675  17.058   5.490
 4535POPC   GL159941   2.669  17.304   5.867
 4535POPC   GL259942   2.728  17.663   5.828
 4535POPC   C1A59943   2.957  17.400   6.216
 4535POPC   D2A59944   2.847  17.420   6.633
 4535POPC   C3A59945   3.053  17.533   6.995
 4535POPC   C4A59946   2.848  17.214   7.229
 4535POPC   C1B59947   2.801  17.920   6.222
 4535POPC   C2B59948   2.858  17.909   6.648
 4535POPC   C3B59949   2.660  17.882   7.032
 4535POPC   C4B59950   2.865  17.858   7.394
 4536POPC   NC359951   8.095  34.517   5.335
 4536POPC   PO459952   8.509  35.062   5.578
 4536POPC   GL159953   8.259  34.720   5.804
 4536POPC   GL259954   8.313  34.396   5.789
 4536POPC   C1A59955   8.089  34.569   6.210
 4536POPC   D2A59956   7.905  34.717   6.580
 4536POPC   C3A59957   8.103  34.561   6.951
 4536POPC   C4A59958   8.186  34.758   7.343
 4536POPC   C1B59959   8.520  34.284   6.199
 4536POPC   C2B59960   8.412  34.100   6.580
 4536POPC   C3B59961   8.569  34.115   6.985
 4536POPC   C4B59962   8.342  34.264   7.315
 4537POPC   NC359963   3.751  23.673   5.343
 4537POPC   PO459964   3.215  23.532   5.644
 4537POPC   GL159965   3.457  23.858   5.814
 4537POPC   GL259966   3.704  23.610   5.876
 4537POPC   C1A59967   3.372  24.155   6.161
 4537POPC   D2A59968   3.618  24.227   6.531
 4537POPC   C3A59969   3.436  23.992   6.841
 4537POPC   C4A59970   3.292  23.905   7.244
 4537POPC   C1B59971   3.669  23.749   6.301
 4537POPC   C2B59972   3.890  23.770   6.691
 4537POPC   C3B59973   3.886  23.757   7.143
 4537POPC   C4B59974   3.777  23.352   7.306
 4538POPC   NC359975  15.874  18.265   5.346
 4538POPC   PO459976  16.337  18.645   5.496
 4538POPC   GL159977  15.995  18.419   5.825
 4538POPC   GL259978  15.755  18.098   5.826
 4538POPC   C1A59979  15.848  18.326   6.273
 4538POPC   D2A59980  15.922  18.032   6.623
 4538POPC   C3A59981  15.907  18.215   7.039
 4538POPC   C4A59982  15.667  18.591   7.214
 4538POPC   C1B59983  16.134  17.945   6.066
 4538POPC   C2B59984  16.337  17.797   6.469
 4538POPC   C3B59985  16.271  17.817   6.941
 4538POPC   C4B59986  16.296  18.079   7.331
 4539POPC   NC359987  21.797  26.341   5.510
 4539POPC   PO459988  22.161  26.896   5.442
 4539POPC   GL159989  22.329  26.777   5.855
 4539POPC   GL259990  22.174  26.482   5.988
 4539POPC   C1A59991  22.486  26.792   6.287
 4539POPC   D2A59992  22.220  26.883   6.623
 4539POPC   C3A59993  22.270  26.696   7.005
 4539POPC   C4A59994  22.062  26.768   7.410
 4539POPC   C1B59995  21.870  26.676   6.294
 4539POPC   C2B59996  21.786  26.655   6.773
 4539POPC   C3B59997  21.798  26.370   7.135
 4539POPC   C4B59998  21.750  26.412   7.631
 4540POPC   NC359999  14.518  24.743   5.305
 4540POPC   PO460000  14.108  24.307   5.270
 4540POPC   GL160001  14.204  24.346   5.739
 4540POPC   GL260002  14.382  24.689   5.824
 4540POPC   C1A60003  14.341  24.301   6.195
 4540POPC   D2A60004  14.495  24.091   6.570
 4540POPC   C3A60005  14.333  24.258   6.967
 4540POPC   C4A60006  14.086  24.620   7.159
 4540POPC   C1B60007  14.443  24.820   6.280
 4540POPC   C2B60008  14.338  24.721   6.722
 4540POPC   C3B60009  14.617  24.655   7.098
 4540POPC   C4B60010  14.855  24.471   7.454
 4541POPC   NC360011  39.823  40.531   5.347
 4541POPC   PO460012  40.153  41.039   5.484
 4541POPC   GL160013  40.098  40.748   5.779
 4541POPC   GL260014  39.752  40.867   5.764
 4541POPC   C1A60015  40.045  40.722   6.231
 4541POPC   D2A60016  40.265  40.766   6.610
 4541POPC   C3A60017  40.099  40.710   7.036
 4541POPC   C4A60018  40.120  41.034   7.378
 4541POPC   C1B60019  39.564  40.736   6.117
 4541POPC   C2B60020  39.634  40.841   6.560
 4541POPC   C3B60021  39.551  40.632   6.961
 4541POPC   C4B60022  39.677  40.736   7.362
 4542POPC   NC360023   0.252   5.656   5.256
 4542POPC   PO460024   0.701   6.179   5.389
 4542POPC   GL160025   0.550   5.829   5.668
 4542POPC   GL260026   0.189   5.861   5.726
 4542POPC   C1A60027   0.485   5.671   6.113
 4542POPC   D2A60028   0.220   5.640   6.500
 4542POPC   C3A60029   0.399   5.792   6.865
 4542POPC   C4A60030   0.540   5.762   7.278
 4542POPC   C1B60031   0.344   6.143   6.063
 4542POPC   C2B60032   0.438   6.135   6.477
 4542POPC   C3B60033   0.396   6.305   6.892
 4542POPC   C4B60034   0.250   6.195   7.280
 4543POPC   NC360035   3.074  24.009   5.498
 4543POPC   PO460036   3.026  23.440   5.136
 4543POPC   GL160037   2.731  23.616   5.591
 4543POPC   GL260038   2.581  23.923   5.715
 4543POPC   C1A60039   2.495  23.508   5.998
 4543POPC   D2A60040   2.460  23.688   6.439
 4543POPC   C3A60041   2.568  23.451   6.824
 4543POPC   C4A60042   2.840  23.637   7.168
 4543POPC   C1B60043   2.864  23.854   6.112
 4543POPC   C2B60044   2.964  23.903   6.588
 4543POPC   C3B60045   2.914  24.153   7.005
 4543POPC   C4B60046   2.898  24.113   7.500
 4544POPC   NC360047  38.651  21.408   5.613
 4544POPC   PO460048  38.319  20.932   5.526
 4544POPC   GL160049  38.202  21.216   5.816
 4544POPC   GL260050  38.094  21.584   5.769
 4544POPC   C1A60051  38.278  21.116   6.231
 4544POPC   D2A60052  38.251  21.252   6.636
 4544POPC   C3A60053  38.621  21.367   6.805
 4544POPC   C4A60054  38.637  21.284   7.228
 4544POPC   C1B60055  38.302  21.622   6.182
 4544POPC   C2B60056  38.329  21.762   6.620
 4544POPC   C3B60057  38.353  21.709   7.069
 4544POPC   C4B60058  38.099  21.880   7.409
 4545POPC   NC360059  12.345  31.643   5.406
 4545POPC   PO460060  11.927  31.176   5.249
 4545POPC   GL160061  12.039  31.277   5.688
 4545POPC   GL260062  12.012  31.637   5.822
 4545POPC   C1A60063  11.875  31.207   6.086
 4545POPC   D2A60064  11.872  31.466   6.433
 4545POPC   C3A60065  12.017  31.272   6.766
 4545POPC   C4A60066  12.010  31.173   7.190
 4545POPC   C1B60067  12.184  31.799   6.235
 4545POPC   C2B60068  12.134  31.929   6.681
 4545POPC   C3B60069  12.098  31.677   7.027
 4545POPC   C4B60070  12.397  31.495   7.296
 4546POPC   NC360071   3.737  15.388   5.737
 4546POPC   PO460072   3.630  15.728   5.197
 4546POPC   GL160073   3.661  15.876   5.675
 4546POPC   GL260074   3.341  15.998   5.778
 4546POPC   C1A60075   3.741  15.891   6.142
 4546POPC   D2A60076   3.519  15.823   6.536
 4546POPC   C3A60077   3.681  15.956   6.925
 4546POPC   C4A60078   3.591  15.630   7.248
 4546POPC   C1B60079   3.206  16.042   6.185
 4546POPC   C2B60080   3.084  16.099   6.607
 4546POPC   C3B60081   3.163  15.889   6.976
 4546POPC   C4B60082   3.333  16.072   7.325
 4547POPC   NC360083  40.827   2.171   5.140
 4547POPC   PO460084  40.618   1.591   5.297
 4547POPC   GL160085  40.860   1.866   5.619
 4547POPC   GL260086  40.633   2.111   5.800
 4547POPC   C1A60087  41.012   1.832   6.069
 4547POPC   D2A60088  40.795   1.952   6.449
 4547POPC   C3A60089  40.924   1.764   6.824
 4547POPC   C4A60090  41.042   1.641   7.207
 4547POPC   C1B60091  40.442   2.310   6.187
 4547POPC   C2B60092  40.355   2.313   6.638
 4547POPC   C3B60093  40.653   2.190   6.941
 4547POPC   C4B60094  40.703   1.991   7.325
 4548POPC   NC360095   5.230   0.755   5.562
 4548POPC   PO460096   4.768   0.260   5.673
 4548POPC   GL160097   4.903   0.607   5.911
 4548POPC   GL260098   4.653   0.866   5.765
 4548POPC   C1A60099   5.098   0.483   6.311
 4548POPC   D2A60100   4.936   0.143   6.612
 4548POPC   C3A60101   5.082   0.109   7.030
 4548POPC   C4A60102   5.365   0.268   7.306
 4548POPC   C1B60103   4.494   0.698   6.167
 4548POPC   C2B60104   4.676   0.617   6.560
 4548POPC   C3B60105   4.738   0.783   6.934
 4548POPC   C4B60106   5.008   0.682   7.284
 4549POPC   NC360107  33.490  13.365   5.475
 4549POPC   PO460108  33.830  13.896   5.327
 4549POPC   GL160109  33.843  13.709   5.701
 4549POPC   GL260110  33.560  13.827   5.777
 4549POPC   C1A60111  33.889  13.723   6.157
 4549POPC   D2A60112  33.823  13.931   6.541
 4549POPC   C3A60113  34.159  13.878   6.855
 4549POPC   C4A60114  34.006  13.783   7.286
 4549POPC   C1B60115  33.409  13.528   6.108
 4549POPC   C2B60116  33.521  13.386   6.503
 4549POPC   C3B60117  33.721  13.555   6.868
 4549POPC   C4B60118  33.520  13.840   7.130
 4550POPC   NC360119  39.112  10.735   5.444
 4550POPC   PO460120  39.688  10.348   5.418
 4550POPC   GL160121  39.417  10.271   5.795
 4550POPC   GL260122  39.102  10.386   5.818
 4550POPC   C1A60123  39.424  10.540   6.205
 4550POPC   D2A60124  39.416  10.789   6.613
 4550POPC   C3A60125  39.390  10.587   7.020
 4550POPC   C4A60126  39.472  10.563   7.437
 4550POPC   C1B60127  38.950  10.309   6.239
 4550POPC   C2B60128  39.068  10.402   6.657
 4550POPC   C3B60129  38.911  10.313   7.079
 4550POPC   C4B60130  39.034  10.356   7.508
 4551POPC   NC360131  14.532  37.336   5.521
 4551POPC   PO460132  14.229  38.026   5.490
 4551POPC   GL160133  14.324  37.775   5.843
 4551POPC   GL260134  14.211  37.447   5.898
 4551POPC   C1A60135  14.480  37.723   6.265
 4551POPC   D2A60136  14.664  37.801   6.672
 4551POPC   C3A60137  14.393  37.799   7.035
 4551POPC   C4A60138  14.387  37.596   7.442
 4551POPC   C1B60139  14.036  37.306   6.292
 4551POPC   C2B60140  14.247  37.462   6.647
 4551POPC   C3B60141  14.226  37.324   7.036
 4551POPC   C4B60142  13.882  37.598   7.115
 4552POPC   NC360143  24.506  15.638   5.435
 4552POPC   PO460144  24.020  16.046   5.422
 4552POPC   GL160145  24.346  16.017   5.752
 4552POPC   GL260146  24.183  15.731   5.833
 4552POPC   C1A60147  24.563  15.866   6.145
 4552POPC   D2A60148  24.506  15.759   6.594
 4552POPC   C3A60149  24.778  15.983   6.910
 4552POPC   C4A60150  24.847  16.065   7.373
 4552POPC   C1B60151  24.138  15.495   6.202
 4552POPC   C2B60152  24.019  15.550   6.626
 4552POPC   C3B60153  24.130  15.678   7.012
 4552POPC   C4B60154  24.431  15.811   7.252
 4553POPC   NC360155  18.644  23.536   5.406
 4553POPC   PO460156  18.253  22.982   5.394
 4553POPC   GL160157  18.349  23.099   5.788
 4553POPC   GL260158  18.121  23.361   5.723
 4553POPC   C1A60159  18.342  22.875   6.206
 4553POPC   D2A60160  18.174  22.773   6.633
 4553POPC   C3A60161  18.321  22.948   7.042
 4553POPC   C4A60162  18.309  22.792   7.483
 4553POPC   C1B60163  17.977  23.207   6.107
 4553POPC   C2B60164  18.062  23.256   6.524
 4553POPC   C3B60165  17.880  23.295   6.936
 4553POPC   C4B60166  17.879  23.099   7.359
 4554POPC   NC360167  11.697  21.019   5.525
 4554POPC   PO460168  12.011  20.502   5.248
 4554POPC   GL160169  12.114  20.532   5.720
 4554POPC   GL260170  11.864  20.640   5.905
 4554POPC   C1A60171  12.319  20.637   6.154
 4554POPC   D2A60172  12.403  20.402   6.549
 4554POPC   C3A60173  12.275  20.581   6.962
 4554POPC   C4A60174  12.312  20.802   7.453
 4554POPC   C1B60175  11.855  20.431   6.261
 4554POPC   C2B60176  11.851  20.581   6.636
 4554POPC   C3B60177  11.831  20.900   6.905
 4554POPC   C4B60178  11.867  20.674   7.260
 4555POPC   NC360179   4.361  31.404   5.379
 4555POPC   PO460180   4.312  32.086   5.513
 4555POPC   GL160181   4.200  31.721   5.780
 4555POPC   GL260182   4.505  31.508   5.851
 4555POPC   C1A60183   4.207  31.711   6.248
 4555POPC   D2A60184   4.082  31.612   6.667
 4555POPC   C3A60185   4.284  31.750   7.028
 4555POPC   C4A60186   4.294  31.544   7.403
 4555POPC   C1B60187   4.339  31.219   6.155
 4555POPC   C2B60188   4.452  31.162   6.586
 4555POPC   C3B60189   4.313  31.201   7.006
 4555POPC   C4B60190   4.511  31.086   7.377
 4556POPC   NC360191  10.251  11.236   5.399
 4556POPC   PO460192  10.923  11.456   5.277
 4556POPC   GL160193  10.649  11.466   5.716
 4556POPC   GL260194  10.269  11.451   5.862
 4556POPC   C1A60195  10.640  11.557   6.182
 4556POPC   D2A60196  10.610  11.750   6.587
 4556POPC   C3A60197  10.810  11.536   6.914
 4556POPC   C4A60198  10.719  11.233   7.241
 4556POPC   C1B60199  10.322  11.135   6.180
 4556POPC   C2B60200  10.440  11.240   6.594
 4556POPC   C3B60201  10.339  11.053   6.965
 4556POPC   C4B60202  10.060  10.863   7.250
 4557POPC   NC360203  23.833  14.902   5.507
 4557POPC   PO460204  23.310  15.327   5.472
 4557POPC   GL160205  23.609  15.321   5.866
 4557POPC   GL260206  23.914  15.097   5.959
 4557POPC   C1A60207  23.672  15.315   6.328
 4557POPC   D2A60208  23.767  14.998   6.645
 4557POPC   C3A60209  23.932  15.206   7.005
 4557POPC   C4A60210  23.882  15.398   7.406
 4557POPC   C1B60211  23.550  14.840   6.145
 4557POPC   C2B60212  23.386  14.636   6.540
 4557POPC   C3B60213  23.346  14.829   6.958
 4557POPC   C4B60214  23.646  14.910   7.291
 4558POPC   NC360215   7.979  20.431   5.539
 4558POPC   PO460216   8.136  21.043   5.424
 4558POPC   GL160217   8.126  20.908   5.860
 4558POPC   GL260218   8.387  20.669   5.860
 4558POPC   C1A60219   8.020  20.574   6.204
 4558POPC   D2A60220   8.160  20.299   6.552
 4558POPC   C3A60221   8.055  20.424   6.976
 4558POPC   C4A60222   8.203  20.246   7.373
 4558POPC   C1B60223   8.511  20.775   6.294
 4558POPC   C2B60224   8.468  20.685   6.748
 4558POPC   C3B60225   8.510  20.600   7.176
 4558POPC   C4B60226   8.477  20.695   7.604
 4559POPC   NC360227  25.364  40.042   5.353
 4559POPC   PO460228  25.094  40.614   5.316
 4559POPC   GL160229  24.952  40.364   5.714
 4559POPC   GL260230  25.041  39.980   5.762
 4559POPC   C1A60231  25.024  40.266   6.187
 4559POPC   D2A60232  25.392  40.096   6.451
 4559POPC   C3A60233  25.378  40.033   6.888
 4559POPC   C4A60234  25.157  40.234   7.198
 4559POPC   C1B60235  25.270  39.729   6.107
 4559POPC   C2B60236  25.317  39.505   6.535
 4559POPC   C3B60237  25.352  39.547   7.006
 4559POPC   C4B60238  24.992  39.752   7.229
 4560POPC   NC360239  42.649  10.743   5.388
 4560POPC   PO460240  41.977  10.619   5.351
 4560POPC   GL160241  42.225  10.581   5.787
 4560POPC   GL260242  42.573  10.729   5.890
 4560POPC   C1A60243  42.300  10.519   6.260
 4560POPC   D2A60244  42.508  10.725   6.614
 4560POPC   C3A60245  42.274  10.635   6.977
 4560POPC   C4A60246  42.286  10.275   7.237
 4560POPC   C1B60247  42.728  10.298   6.074
 4560POPC   C2B60248  42.774  10.186   6.514
 4560POPC   C3B60249  42.760  10.372   6.930
 4560POPC   C4B60250  42.710  10.726   7.242
 4561POPC   NC360251   2.583  23.292   5.257
 4561POPC   PO460252   2.902  22.728   5.475
 4561POPC   GL160253   2.666  22.984   5.739
 4561POPC   GL260254   2.890  23.202   5.856
 4561POPC   C1A60255   2.525  23.015   6.169
 4561POPC   D2A60256   2.721  22.975   6.570
 4561POPC   C3A60257   2.418  22.911   6.880
 4561POPC   C4A60258   2.512  22.835   7.285
 4561POPC   C1B60259   2.940  23.372   6.282
 4561POPC   C2B60260   3.048  23.348   6.720
 4561POPC   C3B60261   2.915  23.111   7.073
 4561POPC   C4B60262   2.833  23.222   7.503
 4562POPC   NC360263  38.592  12.831   5.469
 4562POPC   PO460264  38.024  12.941   5.179
 4562POPC   GL160265  38.209  13.069   5.669
 4562POPC   GL260266  38.203  13.330   5.885
 4562POPC   C1A60267  38.366  12.800   6.096
 4562POPC   D2A60268  38.268  12.505   6.493
 4562POPC   C3A60269  38.459  12.571   6.929
 4562POPC   C4A60270  38.520  12.614   7.400
 4562POPC   C1B60271  38.094  13.172   6.315
 4562POPC   C2B60272  38.253  13.022   6.732
 4562POPC   C3B60273  38.326  13.035   7.182
 4562POPC   C4B60274  38.327  13.020   7.646
 4563POPC   NC360275  22.480  35.409   5.518
 4563POPC   PO460276  21.822  35.147   5.418
 4563POPC   GL160277  22.076  35.322   5.796
 4563POPC   GL260278  22.182  35.040   5.864
 4563POPC   C1A60279  22.401  35.304   6.235
 4563POPC   D2A60280  22.415  35.525   6.676
 4563POPC   C3A60281  22.204  35.283   7.023
 4563POPC   C4A60282  22.238  35.012   7.395
 4563POPC   C1B60283  21.908  35.282   6.256
 4563POPC   C2B60284  21.929  35.606   6.557
 4563POPC   C3B60285  22.022  35.774   6.982
 4563POPC   C4B60286  21.956  35.557   7.383
 4564POPC   NC360287  15.769   9.057   5.155
 4564POPC   PO460288  15.793   8.544   5.615
 4564POPC   GL160289  15.791   8.858   5.913
 4564POPC   GL260290  16.140   8.808   5.944
 4564POPC   C1A60291  15.566   8.890   6.318
 4564POPC   D2A60292  15.707   8.640   6.687
 4564POPC   C3A60293  15.686   8.778   7.107
 4564POPC   C4A60294  15.682   9.051   7.496
 4564POPC   C1B60295  16.058   8.896   6.390
 4564POPC   C2B60296  15.817   9.128   6.738
 4564POPC   C3B60297  16.013   9.189   7.145
 4564POPC   C4B60298  16.443   9.050   7.271
 4565POPC   NC360299   8.605  12.914   5.685
 4565POPC   PO460300   8.194  13.180   5.266
 4565POPC   GL160301   8.079  12.984   5.682
 4565POPC   GL260302   8.152  12.608   5.718
 4565POPC   C1A60303   8.198  12.918   6.149
 4565POPC   D2A60304   8.066  12.755   6.499
 4565POPC   C3A60305   8.303  12.854   6.871
 4565POPC   C4A60306   8.246  13.199   7.168
 4565POPC   C1B60307   7.847  12.543   6.079
 4565POPC   C2B60308   7.785  12.337   6.502
 4565POPC   C3B60309   7.876  12.489   6.948
 4565POPC   C4B60310   8.226  12.522   7.266
 4566POPC   NC360311  38.603  42.600   5.524
 4566POPC   PO460312  38.157  43.076   5.334
 4566POPC   GL160313  38.175  43.047   5.751
 4566POPC   GL260314  38.152  42.704   5.748
 4566POPC   C1A60315  38.358  43.183   6.133
 4566POPC   D2A60316  38.523  42.903   6.437
 4566POPC   C3A60317  38.397  42.974   6.851
 4566POPC   C4A60318  38.661  42.984   7.192
 4566POPC   C1B60319  38.072  42.751   6.184
 4566POPC   C2B60320  37.992  43.082   6.491
 4566POPC   C3B60321  38.015  43.328   6.875
 4566POPC   C4B60322  38.276  43.317   7.243
 4567POPC   NC360323  38.069  16.516   5.505
 4567POPC   PO460324  37.471  16.362   5.310
 4567POPC   GL160325  37.558  16.607   5.684
 4567POPC   GL260326  37.281  16.695   5.882
 4567POPC   C1A60327  37.756  16.879   6.018
 4567POPC   D2A60328  37.828  17.004   6.468
 4567POPC   C3A60329  37.660  16.994   6.891
 4567POPC   C4A60330  37.823  17.003   7.300
 4567POPC   C1B60331  37.417  16.672   6.334
 4567POPC   C2B60332  37.724  16.540   6.673
 4567POPC   C3B60333  37.702  16.528   7.135
 4567POPC   C4B60334  37.499  16.655   7.503
 4568POPC   NC360335  39.618  44.705   5.207
 4568POPC   PO460336  40.315  44.879   5.214
 4568POPC   GL160337  40.368  44.762   5.693
 4568POPC   GL260338  40.001  44.704   5.867
 4568POPC   C1A60339  40.353  44.915   6.150
 4568POPC   D2A60340  40.059  44.697   6.461
 4568POPC   C3A60341  40.201  44.398   6.779
 4568POPC   C4A60342  40.311  44.654   7.138
 4568POPC   C1B60343  39.698  44.918   6.177
 4568POPC   C2B60344  39.696   0.070   6.648
 4568POPC   C3B60345  39.812  44.984   7.126
 4568POPC   C4B60346  39.684  44.986   7.604
 4569POPC   NC360347   8.424  16.787   5.290
 4569POPC   PO460348   7.835  16.464   5.355
 4569POPC   GL160349   8.118  16.749   5.711
 4569POPC   GL260350   8.337  16.533   5.938
 4569POPC   C1A60351   8.387  16.988   6.075
 4569POPC   D2A60352   8.513  16.713   6.446
 4569POPC   C3A60353   8.504  16.744   6.896
 4569POPC   C4A60354   8.427  16.852   7.332
 4569POPC   C1B60355   7.949  16.740   6.200
 4569POPC   C2B60356   7.665  16.866   6.573
 4569POPC   C3B60357   7.767  16.897   7.004
 4569POPC   C4B60358   8.001  16.609   7.219
 4570POPC   NC360359  20.027  24.134   5.457
 4570POPC   PO460360  20.308  24.634   5.110
 4570POPC   GL160361  19.869  24.534   5.662
 4570POPC   GL260362  19.559  24.630   5.700
 4570POPC   C1A60363  19.863  24.428   6.160
 4570POPC   D2A60364  20.008  24.340   6.638
 4570POPC   C3A60365  19.943  24.559   7.076
 4570POPC   C4A60366  20.004  24.767   7.519
 4570POPC   C1B60367  19.462  24.724   6.129
 4570POPC   C2B60368  19.566  24.628   6.566
 4570POPC   C3B60369  19.431  24.622   6.986
 4570POPC   C4B60370  19.528  24.350   7.323
 4571POPC   NC360371  30.972  28.710   5.420
 4571POPC   PO460372  30.888  28.044   5.445
 4571POPC   GL160373  30.862  28.358   5.789
 4571POPC   GL260374  31.180  28.548   5.864
 4571POPC   C1A60375  30.679  28.487   6.191
 4571POPC   D2A60376  30.747  28.568   6.614
 4571POPC   C3A60377  30.478  28.440   6.921
 4571POPC   C4A60378  30.630  28.514   7.292
 4571POPC   C1B60379  31.203  28.185   6.135
 4571POPC   C2B60380  30.995  28.136   6.515
 4571POPC   C3B60381  31.099  28.206   6.960
 4571POPC   C4B60382  31.214  28.024   7.369
 4572POPC   NC360383  33.355  31.155   5.433
 4572POPC   PO460384  33.967  31.382   5.399
 4572POPC   GL160385  33.668  31.382   5.779
 4572POPC   GL260386  33.419  31.092   5.929
 4572POPC   C1A60387  33.726  31.358   6.236
 4572POPC   D2A60388  33.870  31.617   6.548
 4572POPC   C3A60389  33.922  31.425   6.922
 4572POPC   C4A60390  34.246  31.478   7.225
 4572POPC   C1B60391  33.273  31.501   6.086
 4572POPC   C2B60392  33.319  31.601   6.496
 4572POPC   C3B60393  33.350  31.385   6.879
 4572POPC   C4B60394  33.548  31.428   7.268
 4573POPC   NC360395   3.156   4.125   5.587
 4573POPC   PO460396   2.728   4.578   5.376
 4573POPC   GL160397   2.593   4.567   5.795
 4573POPC   GL260398   2.864   4.400   5.926
 4573POPC   C1A60399   2.448   4.414   6.224
 4573POPC   D2A60400   2.347   4.087   6.540
 4573POPC   C3A60401   2.487   4.152   6.974
 4573POPC   C4A60402   2.824   4.024   7.242
 4573POPC   C1B60403   2.899   4.186   6.329
 4573POPC   C2B60404   2.964   4.229   6.775
 4573POPC   C3B60405   3.058   4.474   7.149
 4573POPC   C4B60406   3.241   4.638   7.533
 4574POPC   NC360407  25.488  22.690   5.517
 4574POPC   PO460408  25.160  23.239   5.267
 4574POPC   GL160409  25.304  23.179   5.678
 4574POPC   GL260410  25.069  22.931   5.736
 4574POPC   C1A60411  25.416  23.035   6.102
 4574POPC   D2A60412  25.324  23.200   6.484
 4574POPC   C3A60413  25.397  23.012   6.860
 4574POPC   C4A60414  25.205  23.068   7.237
 4574POPC   C1B60415  24.967  22.733   6.145
 4574POPC   C2B60416  25.175  22.689   6.526
 4574POPC   C3B60417  25.132  22.561   6.949
 4574POPC   C4B60418  25.272  22.575   7.373
 4575POPC   NC360419  13.808  23.356   5.448
 4575POPC   PO460420  13.404  22.853   5.343
 4575POPC   GL160421  13.439  22.903   5.774
 4575POPC   GL260422  13.420  23.225   5.787
 4575POPC   C1A60423  13.706  22.945   6.155
 4575POPC   D2A60424  13.756  22.683   6.509
 4575POPC   C3A60425  13.818  22.840   6.938
 4575POPC   C4A60426  13.555  22.665   7.230
 4575POPC   C1B60427  13.286  23.300   6.167
 4575POPC   C2B60428  13.483  23.237   6.533
 4575POPC   C3B60429  13.387  23.122   6.920
 4575POPC   C4B60430  13.113  23.139   7.237
 4576POPC   NC360431  43.724  21.811   5.410
 4576POPC   PO460432  44.102  21.313   5.450
 4576POPC   GL160433  44.184  21.496   5.793
 4576POPC   GL260434  43.874  21.564   5.857
 4576POPC   C1A60435  44.236  21.362   6.183
 4576POPC   D2A60436  44.051  21.196   6.534
 4576POPC   C3A60437  44.192  21.342   6.928
 4576POPC   C4A60438  44.273  21.570   7.320
 4576POPC   C1B60439  43.669  21.384   6.234
 4576POPC   C2B60440  43.654  21.509   6.690
 4576POPC   C3B60441  43.533  21.570   7.136
 4576POPC   C4B60442  43.196  21.458   7.450
 4577POPC   NC360443  17.310  30.440   5.510
 4577POPC   PO460444  17.098  29.942   5.546
 4577POPC   GL160445  17.356  30.153   5.929
 4577POPC   GL260446  17.713  30.288   5.919
 4577POPC   C1A60447  17.446  30.219   6.377
 4577POPC   D2A60448  17.690  29.963   6.661
 4577POPC   C3A60449  17.391  29.702   6.870
 4577POPC   C4A60450  17.035  29.797   7.133
 4577POPC   C1B60451  17.928  30.360   6.345
 4577POPC   C2B60452  17.751  30.467   6.748
 4577POPC   C3B60453  17.418  30.230   7.005
 4577POPC   C4B60454  17.510  29.915   7.337
 4578POPC   NC360455  27.741  18.712   5.502
 4578POPC   PO460456  27.994  19.261   5.233
 4578POPC   GL160457  27.820  19.222   5.694
 4578POPC   GL260458  27.527  19.389   5.789
 4578POPC   C1A60459  27.639  19.018   6.105
 4578POPC   D2A60460  27.446  19.121   6.514
 4578POPC   C3A60461  27.647  19.031   6.898
 4578POPC   C4A60462  27.516  18.737   7.216
 4578POPC   C1B60463  27.241  19.465   6.149
 4578POPC   C2B60464  27.058  19.442   6.572
 4578POPC   C3B60465  27.235  19.513   6.956
 4578POPC   C4B60466  27.434  19.293   7.281
 4579POPC   NC360467  21.764   3.765   5.514
 4579POPC   PO460468  21.283   4.259   5.515
 4579POPC   GL160469  21.492   4.152   5.874
 4579POPC   GL260470  21.275   3.900   5.936
 4579POPC   C1A60471  21.487   4.229   6.323
 4579POPC   D2A60472  21.723   4.424   6.645
 4579POPC   C3A60473  21.598   4.188   6.963
 4579POPC   C4A60474  21.475   4.320   7.339
 4579POPC   C1B60475  21.068   3.921   6.313
 4579POPC   C2B60476  21.111   4.151   6.731
 4579POPC   C3B60477  21.188   3.942   7.163
 4579POPC   C4B60478  21.041   4.162   7.568
 4580POPC   NC360479  30.463  27.850   5.397
 4580POPC   PO460480  30.957  27.362   5.372
 4580POPC   GL160481  30.767  27.562   5.716
 4580POPC   GL260482  30.993  27.766   5.911
 4580POPC   C1A60483  30.576  27.482   6.116
 4580POPC   D2A60484  30.783  27.636   6.483
 4580POPC   C3A60485  30.731  27.417   6.882
 4580POPC   C4A60486  30.785  27.499   7.309
 4580POPC   C1B60487  30.662  27.991   6.108
 4580POPC   C2B60488  30.484  28.095   6.519
 4580POPC   C3B60489  30.667  27.946   6.881
 4580POPC   C4B60490  30.732  28.016   7.288
 4581POPC   NC360491  21.254  41.002   5.223
 4581POPC   PO460492  21.730  40.461   5.217
 4581POPC   GL160493  21.409  40.570   5.547
 4581POPC   GL260494  21.596  40.408   5.835
 4581POPC   C1A60495  21.141  40.749   5.921
 4581POPC   D2A60496  21.112  40.941   6.359
 4581POPC   C3A60497  21.101  40.842   6.812
 4581POPC   C4A60498  21.115  40.955   7.261
 4581POPC   C1B60499  21.524  40.588   6.243
 4581POPC   C2B60500  21.561  40.663   6.669
 4581POPC   C3B60501  21.620  40.886   7.042
 4581POPC   C4B60502  21.517  40.667   7.390
 4582POPC   NC360503  15.575  21.655   5.503
 4582POPC   PO460504  15.234  21.153   5.382
 4582POPC   GL160505  15.112  21.231   5.797
 4582POPC   GL260506  15.108  21.591   5.805
 4582POPC   C1A60507  15.259  21.120   6.210
 4582POPC   D2A60508  15.593  21.234   6.511
 4582POPC   C3A60509  15.447  21.296   6.938
 4582POPC   C4A60510  15.214  21.148   7.281
 4582POPC   C1B60511  15.370  21.607   6.169
 4582POPC   C2B60512  15.356  21.712   6.598
 4582POPC   C3B60513  15.514  21.803   6.998
 4582POPC   C4B60514  15.461  21.596   7.404
 4583POPC   NC360515   9.091  13.272   5.115
 4583POPC   PO460516   8.872  13.884   5.235
 4583POPC   GL160517   8.918  13.744   5.690
 4583POPC   GL260518   8.755  13.488   5.924
 4583POPC   C1A60519   8.959  13.910   6.131
 4583POPC   D2A60520   8.824  13.782   6.567
 4583POPC   C3A60521   9.086  13.752   6.961
 4583POPC   C4A60522   9.224  13.597   7.377
 4583POPC   C1B60523   8.631  13.372   6.328
 4583POPC   C2B60524   8.658  13.250   6.789
 4583POPC   C3B60525   8.735  13.398   7.221
 4583POPC   C4B60526   8.921  13.212   7.565
 4584POPC   NC360527  24.979  17.627   5.203
 4584POPC   PO460528  25.565  17.240   5.413
 4584POPC   GL160529  25.200  17.429   5.648
 4584POPC   GL260530  25.274  17.767   5.749
 4584POPC   C1A60531  25.078  17.421   6.086
 4584POPC   D2A60532  25.324  17.374   6.449
 4584POPC   C3A60533  25.119  17.358   6.817
 4584POPC   C4A60534  25.381  17.467   7.116
 4584POPC   C1B60535  25.415  17.843   6.211
 4584POPC   C2B60536  25.413  17.837   6.694
 4584POPC   C3B60537  25.442  17.976   7.142
 4584POPC   C4B60538  25.239  17.773   7.494
 4585POPC   NC360539  22.654  27.456   5.587
 4585POPC   PO460540  23.196  27.878   5.449
 4585POPC   GL160541  23.156  27.579   5.803
 4585POPC   GL260542  23.061  27.872   5.973
 4585POPC   C1A60543  22.943  27.419   6.197
 4585POPC   D2A60544  22.978  27.349   6.633
 4585POPC   C3A60545  22.852  27.536   6.990
 4585POPC   C4A60546  22.877  27.292   7.294
 4585POPC   C1B60547  23.186  27.822   6.394
 4585POPC   C2B60548  23.175  27.872   6.830
 4585POPC   C3B60549  23.313  27.693   7.214
 4585POPC   C4B60550  23.361  27.843   7.641
 4586POPC   NC360551  43.271  39.758   5.407
 4586POPC   PO460552  42.991  40.347   5.315
 4586POPC   GL160553  42.935  40.280   5.748
 4586POPC   GL260554  43.049  39.952   5.840
 4586POPC   C1A60555  42.800  40.220   6.193
 4586POPC   D2A60556  42.842  39.921   6.530
 4586POPC   C3A60557  42.976  40.083   6.914
 4586POPC   C4A60558  43.286  40.144   7.234
 4586POPC   C1B60559  43.298  40.029   6.249
 4586POPC   C2B60560  43.327  39.773   6.644
 4586POPC   C3B60561  43.303  39.681   7.078
 4586POPC   C4B60562  43.362  39.717   7.530
 4587POPC   NC360563  12.378   6.823   5.267
 4587POPC   PO460564  11.851   6.425   5.438
 4587POPC   GL160565  12.031   6.649   5.747
 4587POPC   GL260566  11.700   6.693   5.878
 4587POPC   C1A60567  12.269   6.506   6.122
 4587POPC   D2A60568  12.187   6.489   6.584
 4587POPC   C3A60569  12.280   6.644   7.008
 4587POPC   C4A60570  11.920   6.705   7.282
 4587POPC   C1B60571  11.884   6.787   6.278
 4587POPC   C2B60572  12.072   7.007   6.619
 4587POPC   C3B60573  12.064   7.133   7.020
 4587POPC   C4B60574  12.268   7.292   7.320
 4588POPC   NC360575  34.345  44.810   5.243
 4588POPC   PO460576  34.773  44.413   5.552
 4588POPC   GL160577  34.459  44.536   5.833
 4588POPC   GL260578  34.373  44.859   5.762
 4588POPC   C1A60579  34.649  44.710   6.207
 4588POPC   D2A60580  34.889  44.678   6.593
 4588POPC   C3A60581  34.704  44.419   6.878
 4588POPC   C4A60582  34.717  44.498   7.295
 4588POPC   C1B60583  34.273   0.076   6.161
 4588POPC   C2B60584  34.498   0.037   6.567
 4588POPC   C3B60585  34.552  44.905   6.998
 4588POPC   C4B60586  34.222  44.719   7.273
 4589POPC   NC360587  12.219   1.377   5.283
 4589POPC   PO460588  11.816   0.937   5.516
 4589POPC   GL160589  11.942   1.101   5.910
 4589POPC   GL260590  12.052   1.413   5.793
 4589POPC   C1A60591  11.755   1.172   6.341
 4589POPC   D2A60592  11.838   1.286   6.790
 4589POPC   C3A60593  12.264   1.137   6.912
 4589POPC   C4A60594  12.370   0.755   7.170
 4589POPC   C1B60595  12.229   1.551   6.195
 4589POPC   C2B60596  12.521   1.573   6.569
 4589POPC   C3B60597  12.479   1.603   7.022
 4589POPC   C4B60598  12.174   1.461   7.310
 4590POPC   NC360599  18.871  13.397   5.440
 4590POPC   PO460600  19.070  13.901   5.063
 4590POPC   GL160601  19.098  13.783   5.628
 4590POPC   GL260602  18.830  13.794   5.842
 4590POPC   C1A60603  19.176  13.482   6.047
 4590POPC   D2A60604  19.344  13.394   6.478
 4590POPC   C3A60605  19.229  13.386   6.890
 4590POPC   C4A60606  19.145  13.760   7.120
 4590POPC   C1B60607  18.945  13.882   6.258
 4590POPC   C2B60608  18.858  13.618   6.595
 4590POPC   C3B60609  18.631  13.793   6.908
 4590POPC   C4B60610  18.684  13.821   7.346
 4591POPC   NC360611  31.686  26.977   5.003
 4591POPC   PO460612  31.305  26.699   5.545
 4591POPC   GL160613  31.355  26.868   5.926
 4591POPC   GL260614  31.691  27.074   5.898
 4591POPC   C1A60615  31.469  26.633   6.276
 4591POPC   D2A60616  31.296  26.450   6.620
 4591POPC   C3A60617  31.490  26.733   6.897
 4591POPC   C4A60618  31.476  26.770   7.319
 4591POPC   C1B60619  31.561  27.168   6.309
 4591POPC   C2B60620  31.655  27.213   6.745
 4591POPC   C3B60621  31.949  27.056   7.059
 4591POPC   C4B60622  31.922  27.001   7.499
 4592POPC   NC360623  12.315   7.804   5.448
 4592POPC   PO460624  12.123   7.143   5.444
 4592POPC   GL160625  11.903   7.440   5.713
 4592POPC   GL260626  11.946   7.159   5.936
 4592POPC   C1A60627  12.012   7.669   6.112
 4592POPC   D2A60628  12.265   7.467   6.452
 4592POPC   C3A60629  12.307   7.615   6.898
 4592POPC   C4A60630  12.266   7.809   7.341
 4592POPC   C1B60631  11.740   7.287   6.310
 4592POPC   C2B60632  11.829   7.481   6.713
 4592POPC   C3B60633  11.849   7.614   7.131
 4592POPC   C4B60634  11.782   7.319   7.480
 4593POPC   NC360635  35.542  33.142   5.438
 4593POPC   PO460636  34.925  32.968   5.506
 4593POPC   GL160637  35.218  33.009   5.826
 4593POPC   GL260638  35.512  32.782   5.812
 4593POPC   C1A60639  35.145  33.134   6.225
 4593POPC   D2A60640  35.160  32.946   6.622
 4593POPC   C3A60641  35.348  33.199   6.900
 4593POPC   C4A60642  35.234  33.379   7.256
 4593POPC   C1B60643  35.636  32.921   6.239
 4593POPC   C2B60644  35.699  32.870   6.705
 4593POPC   C3B60645  35.746  33.001   7.149
 4593POPC   C4B60646  35.739  32.936   7.606
 4594POPC   NC360647  25.679  37.770   5.458
 4594POPC   PO460648  25.027  37.588   5.337
 4594POPC   GL160649  25.251  37.626   5.759
 4594POPC   GL260650  25.573  37.430   5.821
 4594POPC   C1A60651  25.351  37.831   6.177
 4594POPC   D2A60652  25.085  37.992   6.538
 4594POPC   C3A60653  25.162  37.794   6.928
 4594POPC   C4A60654  25.565  37.940   7.092
 4594POPC   C1B60655  25.695  37.445   6.249
 4594POPC   C2B60656  25.519  37.575   6.627
 4594POPC   C3B60657  25.683  37.455   7.025
 4594POPC   C4B60658  25.526  37.447   7.429
 4595POPC   NC360659   7.036  15.733   5.379
 4595POPC   PO460660   7.653  15.550   5.480
 4595POPC   GL160661   7.416  15.824   5.709
 4595POPC   GL260662   7.689  16.050   5.723
 4595POPC   C1A60663   7.253  16.014   6.073
 4595POPC   D2A60664   7.357  15.871   6.470
 4595POPC   C3A60665   7.088  15.828   6.799
 4595POPC   C4A60666   7.113  16.034   7.170
 4595POPC   C1B60667   7.747  15.771   6.105
 4595POPC   C2B60668   7.855  15.919   6.514
 4595POPC   C3B60669   7.628  15.954   6.922
 4595POPC   C4B60670   7.622  16.255   7.227
 4596POPC   NC360671   5.256  28.913   5.235
 4596POPC   PO460672   4.786  29.331   5.498
 4596POPC   GL160673   5.012  29.223   5.861
 4596POPC   GL260674   5.222  28.946   5.773
 4596POPC   C1A60675   5.038  29.105   6.300
 4596POPC   D2A60676   4.956  28.953   6.716
 4596POPC   C3A60677   5.164  29.207   7.007
 4596POPC   C4A60678   5.152  29.425   7.382
 4596POPC   C1B60679   5.382  28.744   6.161
 4596POPC   C2B60680   5.555  28.788   6.583
 4596POPC   C3B60681   5.374  28.741   6.990
 4596POPC   C4B60682   5.490  28.543   7.348
 4597POPC   NC360683  36.621  19.652   5.430
 4597POPC   PO460684  36.938  19.046   5.464
 4597POPC   GL160685  36.870  19.344   5.798
 4597POPC   GL260686  37.159  19.281   6.024
 4597POPC   C1A60687  36.684  19.360   6.213
 4597POPC   D2A60688  36.794  19.068   6.535
 4597POPC   C3A60689  36.974  19.204   6.916
 4597POPC   C4A60690  36.726  19.172   7.254
 4597POPC   C1B60691  36.977  18.848   6.099
 4597POPC   C2B60692  37.009  18.577   6.459
 4597POPC   C3B60693  37.004  18.709   6.859
 4597POPC   C4B60694  37.138  18.871   7.261
 4598POPC   NC360695  34.614  33.333   5.508
 4598POPC   PO460696  34.281  32.778   5.335
 4598POPC   GL160697  34.344  32.923   5.762
 4598POPC   GL260698  34.674  32.887   5.918
 4598POPC   C1A60699  34.258  32.834   6.210
 4598POPC   D2A60700  34.250  33.061   6.608
 4598POPC   C3A60701  34.520  32.941   6.909
 4598POPC   C4A60702  34.880  33.062   7.082
 4598POPC   C1B60703  34.624  33.217   6.199
 4598POPC   C2B60704  34.752  33.305   6.602
 4598POPC   C3B60705  34.517  33.457   6.941
 4598POPC   C4B60706  34.730  33.519   7.296
 4599POPC   NC360707  27.882  41.926   5.655
 4599POPC   PO460708  27.654  41.492   5.192
 4599POPC   GL160709  27.660  41.316   5.770
 4599POPC   GL260710  27.346  41.058   5.831
 4599POPC   C1A60711  27.708  41.473   6.236
 4599POPC   D2A60712  27.852  41.548   6.700
 4599POPC   C3A60713  27.576  41.684   7.064
 4599POPC   C4A60714  27.329  41.930   7.397
 4599POPC   C1B60715  27.211  41.314   6.182
 4599POPC   C2B60716  27.334  41.456   6.601
 4599POPC   C3B60717  27.238  41.303   7.004
 4599POPC   C4B60718  27.623  41.166   7.190
 4600POPC   NC360719  26.988  43.355   5.197
 4600POPC   PO460720  26.526  42.929   5.192
 4600POPC   GL160721  26.619  43.019   5.661
 4600POPC   GL260722  26.420  42.778   5.824
 4600POPC   C1A60723  26.747  43.003   6.148
 4600POPC   D2A60724  26.949  42.895   6.582
 4600POPC   C3A60725  26.933  43.071   7.040
 4600POPC   C4A60726  27.212  43.162   7.418
 4600POPC   C1B60727  26.267  42.796   6.254
 4600POPC   C2B60728  26.249  42.729   6.702
 4600POPC   C3B60729  26.269  42.946   7.107
 4600POPC   C4B60730  26.500  43.065   7.483
 4601POPC   NC360731  28.696  13.047   5.343
 4601POPC   PO460732  28.337  13.638   5.333
 4601POPC   GL160733  28.334  13.613   5.730
 4601POPC   GL260734  28.233  13.305   5.769
 4601POPC   C1A60735  28.504  13.602   6.140
 4601POPC   D2A60736  28.655  13.752   6.535
 4601POPC   C3A60737  28.481  13.655   6.919
 4601POPC   C4A60738  28.699  13.583   7.283
 4601POPC   C1B60739  28.026  13.352   6.191
 4601POPC   C2B60740  27.865  13.372   6.631
 4601POPC   C3B60741  28.032  13.410   7.039
 4601POPC   C4B60742  27.855  13.334   7.461
 4602POPC   NC360743   8.469  21.250   5.187
 4602POPC   PO460744   8.045  21.713   5.311
 4602POPC   GL160745   8.157  21.477   5.704
 4602POPC   GL260746   8.492  21.313   5.725
 4602POPC   C1A60747   8.139  21.506   6.157
 4602POPC   D2A60748   8.459  21.683   6.439
 4602POPC   C3A60749   8.358  21.653   6.864
 4602POPC   C4A60750   8.028  21.412   7.004
 4602POPC   C1B60751   8.604  21.274   6.178
 4602POPC   C2B60752   8.461  21.190   6.631
 4602POPC   C3B60753   8.451  21.120   7.093
 4602POPC   C4B60754   8.725  21.186   7.476
 4603POPC   NC360755   5.991   0.158   5.310
 4603POPC   PO460756   5.616   0.663   5.318
 4603POPC   GL160757   5.764   0.574   5.745
 4603POPC   GL260758   6.094   0.405   5.773
 4603POPC   C1A60759   5.605   0.509   6.170
 4603POPC   D2A60760   5.475   0.778   6.531
 4603POPC   C3A60761   5.493   0.567   6.911
 4603POPC   C4A60762   5.842   0.473   7.186
 4603POPC   C1B60763   6.125   0.593   6.189
 4603POPC   C2B60764   5.942   0.518   6.579
 4603POPC   C3B60765   6.204   0.658   6.869
 4603POPC   C4B60766   6.418   0.314   7.090
 4604POPC   NC360767  26.557  37.871   5.388
 4604POPC   PO460768  26.004  37.455   5.502
 4604POPC   GL160769  26.036  37.649   5.880
 4604POPC   GL260770  26.349  37.524   5.892
 4604POPC   C1A60771  26.079  37.801   6.311
 4604POPC   D2A60772  25.940  37.823   6.747
 4604POPC   C3A60773  26.099  37.998   7.127
 4604POPC   C4A60774  25.880  37.797   7.486
 4604POPC   C1B60775  26.212  37.323   6.259
 4604POPC   C2B60776  26.085  37.330   6.670
 4604POPC   C3B60777  26.202  37.493   7.057
 4604POPC   C4B60778  26.340  37.643   7.422
 4605POPC   NC360779  12.322  44.023   5.324
 4605POPC   PO460780  11.767  43.742   5.561
 4605POPC   GL160781  12.050  43.998   5.765
 4605POPC   GL260782  12.277  43.730   5.771
 4605POPC   C1A60783  12.054  43.981   6.202
 4605POPC   D2A60784  11.694  43.880   6.455
 4605POPC   C3A60785  11.827  43.861   6.846
 4605POPC   C4A60786  12.007  43.943   7.207
 4605POPC   C1B60787  12.391  43.589   6.159
 4605POPC   C2B60788  12.156  43.568   6.552
 4605POPC   C3B60789  12.243  43.548   6.984
 4605POPC   C4B60790  12.178  43.543   7.454
 4606POPC   NC360791  25.232  12.739   5.461
 4606POPC   PO460792  25.894  12.493   5.431
 4606POPC   GL160793  25.604  12.631   5.767
 4606POPC   GL260794  25.524  13.003   5.775
 4606POPC   C1A60795  25.327  12.711   6.136
 4606POPC   D2A60796  24.902  12.683   6.295
 4606POPC   C3A60797  24.863  12.641   6.738
 4606POPC   C4A60798  25.005  12.852   7.081
 4606POPC   C1B60799  25.579  13.153   6.220
 4606POPC   C2B60800  25.333  12.989   6.580
 4606POPC   C3B60801  25.492  12.864   6.948
 4606POPC   C4B60802  25.451  12.759   7.355
 4607POPC   NC360803  37.177  21.268   5.366
 4607POPC   PO460804  36.673  21.670   5.400
 4607POPC   GL160805  36.907  21.514   5.787
 4607POPC   GL260806  36.994  21.156   5.879
 4607POPC   C1A60807  36.925  21.576   6.245
 4607POPC   D2A60808  36.946  21.409   6.655
 4607POPC   C3A60809  36.597  21.485   6.922
 4607POPC   C4A60810  36.600  21.710   7.303
 4607POPC   C1B60811  37.266  21.192   6.253
 4607POPC   C2B60812  37.412  21.175   6.673
 4607POPC   C3B60813  37.173  21.033   7.037
 4607POPC   C4B60814  36.908  21.291   7.301
 4608POPC   NC360815  18.877  33.049   5.150
 4608POPC   PO460816  19.421  32.696   5.123
 4608POPC   GL160817  19.278  32.869   5.587
 4608POPC   GL260818  18.967  32.964   5.686
 4608POPC   C1A60819  19.264  32.886   6.108
 4608POPC   D2A60820  19.086  32.886   6.563
 4608POPC   C3A60821  19.244  33.007   6.970
 4608POPC   C4A60822  19.229  33.028   7.410
 4608POPC   C1B60823  18.767  33.054   6.090
 4608POPC   C2B60824  18.639  33.128   6.538
 4608POPC   C3B60825  18.754  33.152   6.966
 4608POPC   C4B60826  18.800  32.804   7.219
 4609POPC   NC360827  27.108  40.540   5.454
 4609POPC   PO460828  26.851  41.177   5.502
 4609POPC   GL160829  26.783  40.910   5.840
 4609POPC   GL260830  26.522  40.628   5.814
 4609POPC   C1A60831  26.697  41.050   6.242
 4609POPC   D2A60832  26.963  41.091   6.596
 4609POPC   C3A60833  26.831  40.948   6.988
 4609POPC   C4A60834  26.695  40.774   7.398
 4609POPC   C1B60835  26.751  40.551   6.219
 4609POPC   C2B60836  26.936  40.569   6.649
 4609POPC   C3B60837  26.662  40.456   6.993
 4609POPC   C4B60838  26.601  40.274   7.391
 4610POPC   NC360839  20.275  41.024   5.384
 4610POPC   PO460840  20.892  40.612   5.311
 4610POPC   GL160841  20.674  40.814   5.656
 4610POPC   GL260842  20.798  41.171   5.618
 4610POPC   C1A60843  20.552  40.675   6.081
 4610POPC   D2A60844  20.675  40.706   6.493
 4610POPC   C3A60845  20.415  40.677   6.829
 4610POPC   C4A60846  20.753  40.578   7.087
 4610POPC   C1B60847  20.683  41.167   6.066
 4610POPC   C2B60848  20.686  41.217   6.505
 4610POPC   C3B60849  20.667  41.100   6.929
 4610POPC   C4B60850  20.610  40.981   7.354
 4611POPC   NC360851   5.531  42.343   5.637
 4611POPC   PO460852   6.060  42.688   5.306
 4611POPC   GL160853   6.082  42.551   5.715
 4611POPC   GL260854   6.164  42.865   5.800
 4611POPC   C1A60855   5.996  42.318   6.110
 4611POPC   D2A60856   5.746  42.400   6.475
 4611POPC   C3A60857   5.868  42.216   6.867
 4611POPC   C4A60858   5.617  42.124   7.215
 4611POPC   C1B60859   5.821  42.809   6.090
 4611POPC   C2B60860   5.799  42.903   6.525
 4611POPC   C3B60861   5.875  42.734   6.926
 4611POPC   C4B60862   5.972  42.508   7.300
 4612POPC   NC360863  15.215   0.305   5.465
 4612POPC   PO460864  15.181   0.989   5.326
 4612POPC   GL160865  15.169   0.853   5.780
 4612POPC   GL260866  15.379   0.561   5.889
 4612POPC   C1A60867  14.976   0.706   6.177
 4612POPC   D2A60868  15.182   0.497   6.532
 4612POPC   C3A60869  15.085   0.611   6.964
 4612POPC   C4A60870  15.473   0.505   7.182
 4612POPC   C1B60871  15.295   0.184   6.128
 4612POPC   C2B60872  15.405   0.009   6.530
 4612POPC   C3B60873  15.204   0.121   6.889
 4612POPC   C4B60874  15.062   0.054   7.280
 4613POPC   NC360875  15.992  39.414   5.164
 4613POPC   PO460876  15.721  38.988   5.615
 4613POPC   GL160877  15.927  39.266   5.894
 4613POPC   GL260878  16.182  39.457   5.713
 4613POPC   C1A60879  15.820  39.270   6.339
 4613POPC   D2A60880  15.838  38.938   6.654
 4613POPC   C3A60881  16.021  39.021   7.087
 4613POPC   C4A60882  15.786  39.051   7.482
 4613POPC   C1B60883  16.266  39.515   6.165
 4613POPC   C2B60884  16.297  39.313   6.576
 4613POPC   C3B60885  16.270  39.492   6.986
 4613POPC   C4B60886  16.056  39.461   7.372
 4614POPC   NC360887  35.506  41.138   5.541
 4614POPC   PO460888  34.952  40.731   5.468
 4614POPC   GL160889  35.230  40.775   5.814
 4614POPC   GL260890  35.044  41.082   5.847
 4614POPC   C1A60891  35.537  40.720   6.190
 4614POPC   D2A60892  35.664  40.795   6.644
 4614POPC   C3A60893  35.568  40.517   7.016
 4614POPC   C4A60894  35.334  40.669   7.400
 4614POPC   C1B60895  35.191  41.120   6.230
 4614POPC   C2B60896  35.055  41.091   6.635
 4614POPC   C3B60897  35.270  40.973   6.986
 4614POPC   C4B60898  35.660  41.016   7.195
 4615POPC   NC360899  22.358  37.218   5.503
 4615POPC   PO460900  22.137  36.626   5.389
 4615POPC   GL160901  22.343  36.645   5.785
 4615POPC   GL260902  22.201  36.903   5.843
 4615POPC   C1A60903  22.189  36.607   6.247
 4615POPC   D2A60904  22.422  36.636   6.617
 4615POPC   C3A60905  22.238  36.792   6.989
 4615POPC   C4A60906  22.306  36.760   7.436
 4615POPC   C1B60907  22.091  37.113   6.157
 4615POPC   C2B60908  22.164  37.064   6.549
 4615POPC   C3B60909  22.121  37.310   6.880
 4615POPC   C4B60910  22.308  37.434   7.268
 4616POPC   NC360911   4.623  34.704   5.538
 4616POPC   PO460912   5.305  34.474   5.473
 4616POPC   GL160913   5.048  34.571   5.784
 4616POPC   GL260914   4.799  34.341   5.895
 4616POPC   C1A60915   5.091  34.753   6.155
 4616POPC   D2A60916   5.217  34.654   6.563
 4616POPC   C3A60917   5.218  34.854   6.941
 4616POPC   C4A60918   5.292  34.561   7.268
 4616POPC   C1B60919   4.593  34.664   6.214
 4616POPC   C2B60920   4.706  34.729   6.665
 4616POPC   C3B60921   4.783  34.659   7.112
 4616POPC   C4B60922   4.493  34.635   7.452
 4617POPC   NC360923  20.188  31.526   5.360
 4617POPC   PO460924  20.799  31.273   5.402
 4617POPC   GL160925  20.680  31.575   5.718
 4617POPC   GL260926  20.338  31.716   5.790
 4617POPC   C1A60927  20.754  31.553   6.157
 4617POPC   D2A60928  20.993  31.668   6.525
 4617POPC   C3A60929  20.768  31.697   6.867
 4617POPC   C4A60930  20.856  31.479   7.239
 4617POPC   C1B60931  20.212  31.638   6.212
 4617POPC   C2B60932  20.405  31.425   6.567
 4617POPC   C3B60933  20.431  31.365   7.021
 4617POPC   C4B60934  20.386  31.143   7.397
 4618POPC   NC360935  20.434  34.676   5.658
 4618POPC   PO460936  19.893  34.841   5.198
 4618POPC   GL160937  19.872  34.688   5.666
 4618POPC   GL260938  19.775  34.995   5.809
 4618POPC   C1A60939  19.658  34.441   6.076
 4618POPC   D2A60940  19.501  34.430   6.572
 4618POPC   C3A60941  19.720  34.427   7.023
 4618POPC   C4A60942  19.684  34.261   7.491
 4618POPC   C1B60943  20.004  34.806   6.170
 4618POPC   C2B60944  20.186  34.820   6.591
 4618POPC   C3B60945  20.006  34.859   7.013
 4618POPC   C4B60946  20.091  34.567   7.359
 4619POPC   NC360947  19.077  35.689   5.431
 4619POPC   PO460948  19.397  35.139   5.455
 4619POPC   GL160949  19.021  35.193   5.701
 4619POPC   GL260950  19.211  35.423   5.861
 4619POPC   C1A60951  18.967  35.126   6.165
 4619POPC   D2A60952  19.121  35.356   6.513
 4619POPC   C3A60953  19.005  35.145   6.906
 4619POPC   C4A60954  19.239  35.284   7.237
 4619POPC   C1B60955  18.856  35.608   6.098
 4619POPC   C2B60956  18.765  35.732   6.539
 4619POPC   C3B60957  18.938  35.639   6.936
 4619POPC   C4B60958  19.129  35.755   7.343
 4620POPC   NC360959  16.233  37.121   5.442
 4620POPC   PO460960  15.661  36.691   5.342
 4620POPC   GL160961  15.794  36.796   5.762
 4620POPC   GL260962  15.754  36.439   5.838
 4620POPC   C1A60963  15.877  37.092   6.135
 4620POPC   D2A60964  16.162  37.198   6.505
 4620POPC   C3A60965  15.994  37.150   6.913
 4620POPC   C4A60966  16.115  36.850   7.241
 4620POPC   C1B60967  15.921  36.460   6.252
 4620POPC   C2B60968  15.846  36.755   6.566
 4620POPC   C3B60969  15.671  36.740   6.951
 4620POPC   C4B60970  15.617  36.718   7.334
 4621POPC   NC360971  36.257  24.650   5.223
 4621POPC   PO460972  35.885  24.159   5.534
 4621POPC   GL160973  35.995  24.382   5.944
 4621POPC   GL260974  36.210  24.636   5.784
 4621POPC   C1A60975  35.997  24.438   6.354
 4621POPC   D2A60976  36.012  24.614   6.733
 4621POPC   C3A60977  36.176  24.365   7.042
 4621POPC   C4A60978  35.953  24.260   7.370
 4621POPC   C1B60979  36.469  24.539   6.140
 4621POPC   C2B60980  36.519  24.638   6.583
 4621POPC   C3B60981  36.405  24.823   7.005
 4621POPC   C4B60982  36.347  24.640   7.435
 4622POPC   NC360983  11.564  39.578   5.548
 4622POPC   PO460984  11.224  38.965   5.422
 4622POPC   GL160985  11.355  39.170   5.801
 4622POPC   GL260986  11.178  39.491   5.852
 4622POPC   C1A60987  11.189  39.059   6.226
 4622POPC   D2A60988  11.327  38.873   6.654
 4622POPC   C3A60989  11.101  39.082   7.013
 4622POPC   C4A60990  11.076  39.531   7.155
 4622POPC   C1B60991  11.243  39.602   6.267
 4622POPC   C2B60992  11.305  39.384   6.618
 4622POPC   C3B60993  11.585  39.364   6.878
 4622POPC   C4B60994  11.630  39.702   7.090
 4623POPC   NC360995  11.575  44.179   5.548
 4623POPC   PO460996  11.092  43.689   5.372
 4623POPC   GL160997  11.248  43.820   5.751
 4623POPC   GL260998  11.102  44.155   5.776
 4623POPC   C1A60999  11.384  43.611   6.123
 4623POPC   D2A61000  11.210  43.601   6.536
 4623POPC   C3A61001  11.365  43.658   6.936
 4623POPC   C4A61002  11.307  43.725   7.371
 4623POPC   C1B61003  11.291  44.112   6.206
 4623POPC   C2B61004  11.264  44.092   6.690
 4623POPC   C3B61005  11.481  44.151   7.125
 4623POPC   C4B61006  11.395  44.205   7.609
 4624POPC   NC361007   6.005  14.240   5.370
 4624POPC   PO461008   5.383  14.109   5.693
 4624POPC   GL161009   5.702  14.438   5.799
 4624POPC   GL261010   5.650  14.817   5.686
 4624POPC   C1A61011   5.852  14.374   6.230
 4624POPC   D2A61012   5.812  14.140   6.629
 4624POPC   C3A61013   5.616  14.401   6.949
 4624POPC   C4A61014   5.564  14.522   7.367
 4624POPC   C1B61015   5.604  14.845   6.142
 4624POPC   C2B61016   5.702  14.758   6.589
 4624POPC   C3B61017   5.585  14.915   6.992
 4624POPC   C4B61018   5.562  15.047   7.400
 4625POPC   NC361019  12.370   8.776   4.871
 4625POPC   PO461020  11.981   9.073   5.303
 4625POPC   GL161021  11.949   8.974   5.752
 4625POPC   GL261022  11.728   9.204   5.899
 4625POPC   C1A61023  12.063   9.002   6.222
 4625POPC   D2A61024  12.189   9.265   6.589
 4625POPC   C3A61025  12.367   9.103   6.996
 4625POPC   C4A61026  12.322   9.241   7.430
 4625POPC   C1B61027  11.743   9.462   6.315
 4625POPC   C2B61028  11.775   9.508   6.784
 4625POPC   C3B61029  11.890   9.218   7.124
 4625POPC   C4B61030  11.826   9.211   7.570
 4626POPC   NC361031   6.776  38.667   5.447
 4626POPC   PO461032   6.213  38.288   5.356
 4626POPC   GL161033   6.514  38.336   5.747
 4626POPC   GL261034   6.476  38.670   5.904
 4626POPC   C1A61035   6.839  38.354   6.115
 4626POPC   D2A61036   6.905  38.239   6.557
 4626POPC   C3A61037   7.027  38.505   6.899
 4626POPC   C4A61038   6.824  38.587   7.310
 4626POPC   C1B61039   6.349  38.369   6.260
 4626POPC   C2B61040   6.420  38.211   6.711
 4626POPC   C3B61041   6.537  38.193   7.199
 4626POPC   C4B61042   6.500  38.351   7.671
 4627POPC   NC361043  14.033  33.439   5.456
 4627POPC   PO461044  14.666  33.729   5.367
 4627POPC   GL161045  14.490  33.608   5.755
 4627POPC   GL261046  14.200  33.824   5.782
 4627POPC   C1A61047  14.616  33.784   6.167
 4627POPC   D2A61048  14.443  33.850   6.588
 4627POPC   C3A61049  14.629  33.809   7.023
 4627POPC   C4A61050  14.624  33.783   7.511
 4627POPC   C1B61051  13.926  33.957   6.130
 4627POPC   C2B61052  13.987  34.154   6.543
 4627POPC   C3B61053  14.037  33.887   6.898
 4627POPC   C4B61054  14.171  33.810   7.312
 4628POPC   NC361055  34.056  27.446   5.509
 4628POPC   PO461056  33.576  27.738   5.204
 4628POPC   GL161057  33.660  27.718   5.659
 4628POPC   GL261058  33.530  27.984   5.787
 4628POPC   C1A61059  33.744  27.539   6.083
 4628POPC   D2A61060  33.551  27.523   6.498
 4628POPC   C3A61061  33.820  27.573   6.854
 4628POPC   C4A61062  33.850  27.374   7.259
 4628POPC   C1B61063  33.413  27.926   6.182
 4628POPC   C2B61064  33.530  28.042   6.581
 4628POPC   C3B61065  33.347  27.814   6.894
 4628POPC   C4B61066  33.359  27.639   7.295
 4629POPC   NC361067  36.074  16.953   5.302
 4629POPC   PO461068  36.206  17.567   5.250
 4629POPC   GL161069  36.341  17.695   5.721
 4629POPC   GL261070  36.036  17.809   5.891
 4629POPC   C1A61071  36.429  17.692   6.201
 4629POPC   D2A61072  36.246  17.474   6.597
 4629POPC   C3A61073  36.363  17.605   6.978
 4629POPC   C4A61074  36.161  17.716   7.313
 4629POPC   C1B61075  35.929  17.465   6.199
 4629POPC   C2B61076  35.763  17.290   6.590
 4629POPC   C3B61077  35.906  17.324   6.981
 4629POPC   C4B61078  35.746  17.390   7.355
 4630POPC   NC361079  25.218  20.472   5.626
 4630POPC   PO461080  25.198  21.101   5.565
 4630POPC   GL161081  25.144  20.880   5.924
 4630POPC   GL261082  24.882  20.639   5.982
 4630POPC   C1A61083  25.197  20.973   6.312
 4630POPC   D2A61084  25.119  21.118   6.685
 4630POPC   C3A61085  25.133  20.754   6.898
 4630POPC   C4A61086  25.348  20.672   7.230
 4630POPC   C1B61087  25.030  20.306   6.259
 4630POPC   C2B61088  24.998  20.111   6.670
 4630POPC   C3B61089  25.103  20.225   7.092
 4630POPC   C4B61090  24.861  20.398   7.414
 4631POPC   NC361091  10.774   0.031   5.699
 4631POPC   PO461092  10.452  44.453   5.289
 4631POPC   GL161093  10.323  44.351   5.731
 4631POPC   GL261094  10.649  44.476   5.775
 4631POPC   C1A61095  10.322  44.498   6.201
 4631POPC   D2A61096  10.541  44.681   6.581
 4631POPC   C3A61097  10.308  44.914   6.910
 4631POPC   C4A61098  10.181  44.940   7.327
 4631POPC   C1B61099  10.781  44.275   6.143
 4631POPC   C2B61100  10.758  44.213   6.577
 4631POPC   C3B61101  10.645  44.341   6.970
 4631POPC   C4B61102  10.238  44.436   7.107
 4632POPC   NC361103  43.645   3.973   5.390
 4632POPC   PO461104  44.233   4.295   5.411
 4632POPC   GL161105  44.197   4.359   5.846
 4632POPC   GL261106  43.826   4.402   5.918
 4632POPC   C1A61107  44.221   4.488   6.254
 4632POPC   D2A61108  44.476   4.540   6.610
 4632POPC   C3A61109  44.303   4.340   6.994
 4632POPC   C4A61110  43.870   4.396   7.148
 4632POPC   C1B61111  43.626   4.294   6.318
 4632POPC   C2B61112  43.534   4.213   6.769
 4632POPC   C3B61113  43.361   4.256   7.192
 4632POPC   C4B61114  43.509   4.463   7.526
 4633POPC   NC361115  42.879  44.107   5.315
 4633POPC   PO461116  43.345  43.738   5.586
 4633POPC   GL161117  43.017  43.712   5.805
 4633POPC   GL261118  42.829  43.434   5.655
 4633POPC   C1A61119  42.908  43.873   6.194
 4633POPC   D2A61120  43.206  44.009   6.492
 4633POPC   C3A61121  43.076  43.864   6.883
 4633POPC   C4A61122  42.828  44.001   7.228
 4633POPC   C1B61123  42.829  43.331   6.110
 4633POPC   C2B61124  42.990  43.454   6.518
 4633POPC   C3B61125  42.937  43.376   6.956
 4633POPC   C4B61126  42.733  43.391   7.359
 4634POPC   NC361127   0.442  42.003   5.514
 4634POPC   PO461128   0.891  42.530   5.452
 4634POPC   GL161129   0.586  42.469   5.808
 4634POPC   GL261130   0.210  42.328   5.829
 4634POPC   C1A61131   0.512  42.498   6.249
 4634POPC   D2A61132   0.357  42.316   6.604
 4634POPC   C3A61133   0.510  42.553   6.919
 4634POPC   C4A61134   0.430  42.332   7.242
 4634POPC   C1B61135   0.039  42.627   6.142
 4634POPC   C2B61136   0.139  42.778   6.592
 4634POPC   C3B61137   0.029  42.654   7.012
 4634POPC   C4B61138   0.173  42.706   7.471
 4635POPC   NC361139  33.887   3.223   5.254
 4635POPC   PO461140  33.754   2.665   5.313
 4635POPC   GL161141  33.917   2.890   5.677
 4635POPC   GL261142  33.759   2.597   5.844
 4635POPC   C1A61143  33.839   3.047   6.109
 4635POPC   D2A61144  33.693   2.795   6.464
 4635POPC   C3A61145  33.581   2.976   6.875
 4635POPC   C4A61146  33.362   2.744   7.203
 4635POPC   C1B61147  34.120   2.628   6.139
 4635POPC   C2B61148  34.199   2.892   6.494
 4635POPC   C3B61149  34.044   2.714   6.864
 4635POPC   C4B61150  33.869   2.760   7.262
 4636POPC   NC361151  20.865  26.749   5.429
 4636POPC   PO461152  21.387  26.573   5.435
 4636POPC   GL161153  21.205  26.764   5.828
 4636POPC   GL261154  20.980  27.073   5.817
 4636POPC   C1A61155  21.331  26.575   6.241
 4636POPC   D2A61156  21.443  26.924   6.486
 4636POPC   C3A61157  21.372  26.970   6.920
 4636POPC   C4A61158  21.567  26.792   7.274
 4636POPC   C1B61159  21.129  27.263   6.207
 4636POPC   C2B61160  20.993  27.174   6.622
 4636POPC   C3B61161  20.848  27.043   7.026
 4636POPC   C4B61162  21.057  26.782   7.310
 4637POPC   NC361163   9.978  33.846   5.357
 4637POPC   PO461164   9.272  33.670   5.464
 4637POPC   GL161165   9.593  33.681   5.779
 4637POPC   GL261166   9.725  33.994   5.761
 4637POPC   C1A61167   9.562  33.686   6.229
 4637POPC   D2A61168   9.843  33.788   6.580
 4637POPC   C3A61169   9.704  33.659   6.989
 4637POPC   C4A61170   9.302  33.607   7.154
 4637POPC   C1B61171   9.881  34.096   6.157
 4637POPC   C2B61172   9.875  34.331   6.535
 4637POPC   C3B61173   9.853  34.154   6.940
 4637POPC   C4B61174   9.591  34.059   7.278
 4638POPC   NC361175  36.614  35.058   5.090
 4638POPC   PO461176  36.828  34.550   5.295
 4638POPC   GL161177  36.818  34.621   5.802
 4638POPC   GL261178  36.861  34.310   6.020
 4638POPC   C1A61179  36.629  34.732   6.239
 4638POPC   D2A61180  36.480  34.681   6.685
 4638POPC   C3A61181  36.789  34.488   6.980
 4638POPC   C4A61182  37.102  34.694   7.254
 4638POPC   C1B61183  36.963  34.394   6.477
 4638POPC   C2B61184  37.280  34.491   6.804
 4638POPC   C3B61185  37.411  34.308   7.200
 4638POPC   C4B61186  37.378  34.396   7.664
 4639POPC   NC361187  43.061  39.083   5.363
 4639POPC   PO461188  42.815  39.673   5.420
 4639POPC   GL161189  43.071  39.441   5.760
 4639POPC   GL261190  42.978  39.109   5.863
 4639POPC   C1A61191  43.079  39.571   6.205
 4639POPC   D2A61192  42.988  39.373   6.600
 4639POPC   C3A61193  42.832  39.544   6.984
 4639POPC   C4A61194  43.001  39.373   7.398
 4639POPC   C1B61195  43.283  39.120   6.202
 4639POPC   C2B61196  43.490  39.264   6.573
 4639POPC   C3B61197  43.365  39.193   6.989
 4639POPC   C4B61198  43.258  38.906   7.304
 4640POPC   NC361199  27.433  11.192   5.255
 4640POPC   PO461200  27.789  11.728   5.361
 4640POPC   GL161201  27.506  11.501   5.683
 4640POPC   GL261202  27.622  11.160   5.750
 4640POPC   C1A61203  27.284  11.377   6.079
 4640POPC   D2A61204  27.283  11.549   6.505
 4640POPC   C3A61205  27.555  11.288   6.788
 4640POPC   C4A61206  27.547  11.390   7.225
 4640POPC   C1B61207  27.732  11.164   6.195
 4640POPC   C2B61208  27.981  11.069   6.525
 4640POPC   C3B61209  27.977  10.975   6.922
 4640POPC   C4B61210  28.002  11.160   7.331
 4641POPC   NC361211  14.541  28.475   5.546
 4641POPC   PO461212  13.999  28.636   5.520
 4641POPC   GL161213  14.208  28.642   5.911
 4641POPC   GL261214  14.126  28.292   5.964
 4641POPC   C1A61215  14.445  28.526   6.296
 4641POPC   D2A61216  14.421  28.255   6.665
 4641POPC   C3A61217  14.374  28.417   7.064
 4641POPC   C4A61218  14.373  28.855   7.213
 4641POPC   C1B61219  14.035  28.074   6.373
 4641POPC   C2B61220  14.023  27.921   6.825
 4641POPC   C3B61221  14.049  28.083   7.242
 4641POPC   C4B61222  14.448  28.123   7.498
 4642POPC   NC361223  11.668  20.172   5.343
 4642POPC   PO461224  11.016  19.805   5.252
 4642POPC   GL161225  11.331  19.834   5.592
 4642POPC   GL261226  11.261  20.178   5.704
 4642POPC   C1A61227  11.307  19.772   6.046
 4642POPC   D2A61228  11.103  19.774   6.456
 4642POPC   C3A61229  11.320  19.573   6.812
 4642POPC   C4A61230  11.215  19.661   7.233
 4642POPC   C1B61231  11.386  20.268   6.144
 4642POPC   C2B61232  11.509  20.126   6.547
 4642POPC   C3B61233  11.229  20.089   6.906
 4642POPC   C4B61234  11.034  20.122   7.295
 4643POPC   NC361235  42.089  31.530   5.182
 4643POPC   PO461236  41.566  31.435   5.485
 4643POPC   GL161237  41.724  31.317   5.892
 4643POPC   GL261238  41.430  31.211   5.935
 4643POPC   C1A61239  41.701  31.377   6.345
 4643POPC   D2A61240  41.454  31.452   6.713
 4643POPC   C3A61241  41.692  31.392   7.062
 4643POPC   C4A61242  41.992  31.716   7.190
 4643POPC   C1B61243  41.220  31.202   6.303
 4643POPC   C2B61244  41.236  31.003   6.682
 4643POPC   C3B61245  41.152  31.159   7.041
 4643POPC   C4B61246  41.351  31.192   7.401
 4644POPC   NC361247   2.690  30.861   5.360
 4644POPC   PO461248   2.799  30.277   5.302
 4644POPC   GL161249   2.940  30.530   5.695
 4644POPC   GL261250   2.716  30.815   5.858
 4644POPC   C1A61251   3.074  30.598   6.132
 4644POPC   D2A61252   2.816  30.568   6.490
 4644POPC   C3A61253   2.967  30.658   6.890
 4644POPC   C4A61254   2.939  30.516   7.305
 4644POPC   C1B61255   2.415  30.623   6.173
 4644POPC   C2B61256   2.307  30.564   6.641
 4644POPC   C3B61257   2.487  30.684   7.072
 4644POPC   C4B61258   2.639  30.939   7.438
 4645POPC   NC361259  13.986  32.609   5.571
 4645POPC   PO461260  13.892  33.131   5.130
 4645POPC   GL161261  13.579  33.177   5.545
 4645POPC   GL261262  13.559  32.826   5.792
 4645POPC   C1A61263  13.401  33.253   6.008
 4645POPC   D2A61264  13.594  33.023   6.356
 4645POPC   C3A61265  13.714  33.122   6.765
 4645POPC   C4A61266  13.465  33.086   7.138
 4645POPC   C1B61267  13.798  32.593   6.175
 4645POPC   C2B61268  13.883  32.434   6.592
 4645POPC   C3B61269  13.812  32.650   6.974
 4645POPC   C4B61270  13.899  32.882   7.326
 4646POPC   NC361271  39.188  44.036   5.258
 4646POPC   PO461272  39.610  43.501   5.386
 4646POPC   GL161273  39.648  43.732   5.813
 4646POPC   GL261274  39.505  44.061   5.751
 4646POPC   C1A61275  39.649  43.839   6.298
 4646POPC   D2A61276  39.561  43.862   6.770
 4646POPC   C3A61277  39.223  43.725   7.054
 4646POPC   C4A61278  39.320  43.359   7.301
 4646POPC   C1B61279  39.200  44.037   6.114
 4646POPC   C2B61280  39.205  44.197   6.549
 4646POPC   C3B61281  39.287  44.241   7.002
 4646POPC   C4B61282  39.067  44.408   7.371
 4647POPC   NC361283  35.369  22.172   4.874
 4647POPC   PO461284  35.191  22.034   5.513
 4647POPC   GL161285  35.384  21.988   5.896
 4647POPC   GL261286  35.380  22.339   5.908
 4647POPC   C1A61287  35.464  22.051   6.355
 4647POPC   D2A61288  35.190  22.154   6.717
 4647POPC   C3A61289  35.320  22.011   7.134
 4647POPC   C4A61290  35.622  21.674   7.241
 4647POPC   C1B61291  35.124  22.430   6.272
 4647POPC   C2B61292  35.149  22.684   6.642
 4647POPC   C3B61293  35.273  22.539   7.060
 4647POPC   C4B61294  35.267  22.431   7.487
 4648POPC   NC361295  22.386  36.219   5.481
 4648POPC   PO461296  21.758  36.131   5.309
 4648POPC   GL161297  21.884  36.329   5.743
 4648POPC   GL261298  22.185  36.188   5.946
 4648POPC   C1A61299  21.752  36.267   6.195
 4648POPC   D2A61300  22.026  36.115   6.520
 4648POPC   C3A61301  22.125  36.294   6.916
 4648POPC   C4A61302  22.549  36.386   7.055
 4648POPC   C1B61303  22.600  36.350   6.143
 4648POPC   C2B61304  22.709  36.219   6.558
 4648POPC   C3B61305  22.736  35.912   6.871
 4648POPC   C4B61306  22.542  35.869   7.258
 4649POPC   NC361307  28.247   4.590   5.314
 4649POPC   PO461308  28.147   4.055   5.531
 4649POPC   GL161309  28.318   4.435   5.803
 4649POPC   GL261310  28.082   4.697   5.797
 4649POPC   C1A61311  28.455   4.712   6.177
 4649POPC   D2A61312  28.721   4.634   6.548
 4649POPC   C3A61313  28.550   4.489   6.969
 4649POPC   C4A61314  28.235   4.159   7.122
 4649POPC   C1B61315  27.978   4.559   6.222
 4649POPC   C2B61316  28.195   4.500   6.610
 4649POPC   C3B61317  28.056   4.632   7.039
 4649POPC   C4B61318  27.854   4.421   7.410
 4650POPC   NC361319  15.434  17.783   5.538
 4650POPC   PO461320  14.917  17.399   5.409
 4650POPC   GL161321  15.107  17.467   5.815
 4650POPC   GL261322  14.913  17.746   5.820
 4650POPC   C1A61323  15.293  17.713   6.186
 4650POPC   D2A61324  15.465  17.844   6.594
 4650POPC   C3A61325  15.257  17.679   6.935
 4650POPC   C4A61326  15.133  17.264   6.930
 4650POPC   C1B61327  14.782  17.563   6.236
 4650POPC   C2B61328  14.755  17.530   6.717
 4650POPC   C3B61329  14.781  17.515   7.190
 4650POPC   C4B61330  14.787  17.661   7.620
 4651POPC   NC361331  29.034  39.047   5.430
 4651POPC   PO461332  29.607  39.308   5.374
 4651POPC   GL161333  29.441  39.081   5.752
 4651POPC   GL261334  29.078  39.193   5.898
 4651POPC   C1A61335  29.389  38.950   6.197
 4651POPC   D2A61336  29.087  39.062   6.546
 4651POPC   C3A61337  29.283  39.078   6.958
 4651POPC   C4A61338  29.586  38.905   7.218
 4651POPC   C1B61339  28.875  39.401   6.227
 4651POPC   C2B61340  29.164  39.617   6.462
 4651POPC   C3B61341  29.304  39.753   6.823
 4651POPC   C4B61342  29.151  39.524   7.174
 4652POPC   NC361343  24.623  24.124   5.656
 4652POPC   PO461344  24.701  24.759   5.446
 4652POPC   GL161345  24.559  24.613   5.819
 4652POPC   GL261346  24.212  24.587   5.731
 4652POPC   C1A61347  24.653  24.494   6.261
 4652POPC   D2A61348  24.514  24.445   6.682
 4652POPC   C3A61349  24.741  24.580   7.023
 4652POPC   C4A61350  24.889  24.242   7.186
 4652POPC   C1B61351  24.168  24.371   6.100
 4652POPC   C2B61352  24.050  24.494   6.491
 4652POPC   C3B61353  24.057  24.300   6.886
 4652POPC   C4B61354  24.318  24.324   7.239
 4653POPC   NC361355  11.621  38.573   5.530
 4653POPC   PO461356  10.980  38.316   5.432
 4653POPC   GL161357  11.220  38.293   5.825
 4653POPC   GL261358  11.290  38.663   5.895
 4653POPC   C1A61359  11.370  38.251   6.268
 4653POPC   D2A61360  11.186  38.365   6.685
 4653POPC   C3A61361  11.341  38.523   7.074
 4653POPC   C4A61362  11.322  38.808   7.399
 4653POPC   C1B61363  11.606  38.722   6.222
 4653POPC   C2B61364  11.690  38.469   6.615
 4653POPC   C3B61365  11.745  38.238   6.978
 4653POPC   C4B61366  11.829  38.501   7.300
 4654POPC   NC361367  38.921   9.978   5.480
 4654POPC   PO461368  39.358   9.676   5.155
 4654POPC   GL161369  39.315   9.762   5.700
 4654POPC   GL261370  39.252   9.437   5.939
 4654POPC   C1A61371  39.282   9.918   6.144
 4654POPC   D2A61372  39.452   9.807   6.572
 4654POPC   C3A61373  39.329  10.009   6.977
 4654POPC   C4A61374  39.453   9.690   7.274
 4654POPC   C1B61375  38.939   9.573   6.284
 4654POPC   C2B61376  38.956   9.886   6.618
 4654POPC   C3B61377  39.007   9.625   7.010
 4654POPC   C4B61378  38.955   9.826   7.425
 4655POPC   NC361379  13.385  37.947   5.692
 4655POPC   PO461380  13.727  38.465   5.307
 4655POPC   GL161381  13.581  38.417   5.731
 4655POPC   GL261382  13.865  38.204   5.816
 4655POPC   C1A61383  13.660  38.554   6.186
 4655POPC   D2A61384  13.633  38.774   6.600
 4655POPC   C3A61385  13.628  38.499   6.964
 4655POPC   C4A61386  13.424  38.495   7.391
 4655POPC   C1B61387  14.170  38.151   6.172
 4655POPC   C2B61388  14.159  37.988   6.600
 4655POPC   C3B61389  13.992  38.131   6.989
 4655POPC   C4B61390  13.926  38.415   7.366
 4656POPC   NC361391  43.697  12.401   5.726
 4656POPC   PO461392  43.576  11.757   5.414
 4656POPC   GL161393  43.831  11.884   5.788
 4656POPC   GL261394  44.127  12.127   5.727
 4656POPC   C1A61395  43.815  11.983   6.241
 4656POPC   D2A61396  43.842  11.953   6.675
 4656POPC   C3A61397  43.623  12.232   6.952
 4656POPC   C4A61398  43.569  12.088   7.355
 4656POPC   C1B61399  44.168  12.327   6.168
 4656POPC   C2B61400  44.281  12.213   6.607
 4656POPC   C3B61401  44.116  12.150   7.055
 4656POPC   C4B61402  44.302  12.415   7.332
 4657POPC   NC361403  18.017  13.916   5.399
 4657POPC   PO461404  17.926  14.541   5.441
 4657POPC   GL161405  18.313  14.499   5.718
 4657POPC   GL261406  18.451  14.161   5.757
 4657POPC   C1A61407  18.429  14.732   6.097
 4657POPC   D2A61408  18.240  14.579   6.505
 4657POPC   C3A61409  18.436  14.714   6.902
 4657POPC   C4A61410  18.253  14.585   7.294
 4657POPC   C1B61411  18.341  13.989   6.173
 4657POPC   C2B61412  18.187  13.900   6.579
 4657POPC   C3B61413  18.086  14.193   6.892
 4657POPC   C4B61414  18.205  14.021   7.273
 4658POPC   NC361415  30.358  30.296   5.211
 4658POPC   PO461416  29.974  30.806   5.241
 4658POPC   GL161417  29.922  30.736   5.707
 4658POPC   GL261418  29.585  30.656   5.815
 4658POPC   C1A61419  29.984  30.709   6.192
 4658POPC   D2A61420  29.889  30.878   6.645
 4658POPC   C3A61421  29.984  30.657   7.050
 4658POPC   C4A61422  29.779  30.282   7.229
 4658POPC   C1B61423  29.496  30.869   6.249
 4658POPC   C2B61424  29.397  31.027   6.683
 4658POPC   C3B61425  29.606  31.072   7.087
 4658POPC   C4B61426  29.831  31.238   7.478
 4659POPC   NC361427  31.733  26.615   5.686
 4659POPC   PO461428  32.105  26.985   5.251
 4659POPC   GL161429  32.180  26.998   5.718
 4659POPC   GL261430  32.240  26.641   5.809
 4659POPC   C1A61431  32.433  26.994   6.133
 4659POPC   D2A61432  32.609  26.841   6.537
 4659POPC   C3A61433  32.466  27.010   6.936
 4659POPC   C4A61434  32.534  26.731   7.265
 4659POPC   C1B61435  32.134  26.586   6.232
 4659POPC   C2B61436  32.085  26.821   6.609
 4659POPC   C3B61437  32.136  26.571   6.975
 4659POPC   C4B61438  31.916  26.525   7.351
 4660POPC   NC361439  22.433  16.761   5.471
 4660POPC   PO461440  23.108  16.844   5.463
 4660POPC   GL161441  22.925  16.833   5.886
 4660POPC   GL261442  23.154  16.638   6.019
 4660POPC   C1A61443  22.975  16.942   6.372
 4660POPC   D2A61444  22.619  16.858   6.662
 4660POPC   C3A61445  22.654  16.671   7.100
 4660POPC   C4A61446  22.686  16.856   7.538
 4660POPC   C1B61447  22.806  16.482   6.304
 4660POPC   C2B61448  22.957  16.483   6.709
 4660POPC   C3B61449  23.021  16.303   7.075
 4660POPC   C4B61450  23.045  16.515   7.415
 4661POPC   NC361451  37.114  16.637   5.390
 4661POPC   PO461452  36.513  16.858   5.230
 4661POPC   GL161453  36.743  16.887   5.655
 4661POPC   GL261454  36.759  16.563   5.819
 4661POPC   C1A61455  36.920  16.946   6.114
 4661POPC   D2A61456  36.746  16.798   6.518
 4661POPC   C3A61457  36.817  16.869   6.983
 4661POPC   C4A61458  36.665  16.923   7.435
 4661POPC   C1B61459  36.974  16.408   6.193
 4661POPC   C2B61460  37.061  16.422   6.613
 4661POPC   C3B61461  37.269  16.669   6.876
 4661POPC   C4B61462  37.096  16.514   7.210
 4662POPC   NC361463  30.700   4.654   5.312
 4662POPC   PO461464  30.372   5.244   5.367
 4662POPC   GL161465  30.674   5.043   5.644
 4662POPC   GL261466  30.667   5.353   5.832
 4662POPC   C1A61467  30.801   4.875   6.014
 4662POPC   D2A61468  30.643   4.890   6.445
 4662POPC   C3A61469  30.837   4.960   6.841
 4662POPC   C4A61470  30.621   4.986   7.237
 4662POPC   C1B61471  30.849   5.331   6.245
 4662POPC   C2B61472  30.686   5.428   6.624
 4662POPC   C3B61473  30.788   5.414   7.030
 4662POPC   C4B61474  30.965   5.328   7.445
 4663POPC   NC361475  33.317  14.073   5.369
 4663POPC   PO461476  33.072  13.381   5.304
 4663POPC   GL161477  33.076  13.636   5.740
 4663POPC   GL261478  33.092  13.992   5.826
 4663POPC   C1A61479  32.947  13.728   6.217
 4663POPC   D2A61480  32.891  13.544   6.622
 4663POPC   C3A61481  33.211  13.450   6.922
 4663POPC   C4A61482  32.983  13.472   7.248
 4663POPC   C1B61483  33.370  14.029   6.196
 4663POPC   C2B61484  33.321  13.858   6.624
 4663POPC   C3B61485  33.035  13.925   6.991
 4663POPC   C4B61486  33.112  13.931   7.450
 4664POPC   NC361487   7.820  10.808   5.094
 4664POPC   PO461488   8.369  10.717   5.447
 4664POPC   GL161489   8.190  10.786   5.823
 4664POPC   GL261490   7.951  10.549   5.774
 4664POPC   C1A61491   7.984  10.807   6.221
 4664POPC   D2A61492   8.142  10.524   6.551
 4664POPC   C3A61493   8.050  10.654   6.959
 4664POPC   C4A61494   8.105  10.574   7.401
 4664POPC   C1B61495   7.836  10.326   6.175
 4664POPC   C2B61496   7.710  10.237   6.647
 4664POPC   C3B61497   7.920  10.169   7.082
 4664POPC   C4B61498   8.226  10.068   7.431
 4665POPC   NC361499   1.684  12.874   5.357
 4665POPC   PO461500   2.157  12.550   5.459
 4665POPC   GL161501   2.079  12.752   5.841
 4665POPC   GL261502   1.829  13.003   5.820
 4665POPC   C1A61503   2.246  13.096   6.119
 4665POPC   D2A61504   2.224  13.185   6.562
 4665POPC   C3A61505   2.295  12.798   6.754
 4665POPC   C4A61506   2.362  12.655   7.173
 4665POPC   C1B61507   1.720  12.861   6.228
 4665POPC   C2B61508   1.737  12.683   6.648
 4665POPC   C3B61509   1.880  12.857   7.026
 4665POPC   C4B61510   1.765  13.066   7.376
 4666POPC   NC361511  44.438   8.770   5.401
 4666POPC   PO461512  43.736   8.889   5.447
 4666POPC   GL161513  43.826   9.049   5.834
 4666POPC   GL261514  44.157   9.005   5.807
 4666POPC   C1A61515  43.663   9.190   6.221
 4666POPC   D2A61516  43.572   8.931   6.575
 4666POPC   C3A61517  43.450   9.085   6.973
 4666POPC   C4A61518  43.647   9.010   7.327
 4666POPC   C1B61519  44.310   9.075   6.214
 4666POPC   C2B61520  44.055   9.145   6.557
 4666POPC   C3B61521  43.959   9.000   6.917
 4666POPC   C4B61522  44.145   8.935   7.267
 4667POPC   NC361523  32.056  33.073   5.200
 4667POPC   PO461524  32.663  33.076   5.519
 4667POPC   GL161525  32.313  33.091   5.809
 4667POPC   GL261526  32.546  33.247   5.992
 4667POPC   C1A61527  32.137  33.189   6.271
 4667POPC   D2A61528  32.233  33.003   6.671
 4667POPC   C3A61529  32.183  33.053   7.109
 4667POPC   C4A61530  32.000  32.946   7.521
 4667POPC   C1B61531  32.521  32.829   6.214
 4667POPC   C2B61532  32.400  32.537   6.550
 4667POPC   C3B61533  32.489  32.660   6.980
 4667POPC   C4B61534  32.675  32.940   7.289
 4668POPC   NC361535   1.177  17.688   5.354
 4668POPC   PO461536   1.764  17.308   5.371
 4668POPC   GL161537   1.486  17.416   5.717
 4668POPC   GL261538   1.513  17.781   5.759
 4668POPC   C1A61539   1.256  17.518   6.104
 4668POPC   D2A61540   1.112  17.424   6.498
 4668POPC   C3A61541   1.262  17.372   6.903
 4668POPC   C4A61542   1.058  17.561   7.217
 4668POPC   C1B61543   1.567  17.921   6.165
 4668POPC   C2B61544   1.532  17.707   6.557
 4668POPC   C3B61545   1.505  17.905   6.964
 4668POPC   C4B61546   1.411  17.929   7.372
 4669POPC   NC361547  27.893  13.465   5.343
 4669POPC   PO461548  27.443  13.982   5.352
 4669POPC   GL161549  27.435  13.636   5.743
 4669POPC   GL261550  27.792  13.585   5.804
 4669POPC   C1A61551  27.572  13.581   6.242
 4669POPC   D2A61552  27.661  13.857   6.608
 4669POPC   C3A61553  27.590  13.665   7.038
 4669POPC   C4A61554  27.410  13.604   7.470
 4669POPC   C1B61555  28.046  13.834   6.079
 4669POPC   C2B61556  28.153  13.779   6.522
 4669POPC   C3B61557  28.040  13.948   6.964
 4669POPC   C4B61558  27.928  13.855   7.409
 4670POPC   NC361559  10.027  36.348   5.404
 4670POPC   PO461560   9.985  37.001   5.195
 4670POPC   GL161561   9.844  37.021   5.628
 4670POPC   GL261562  10.159  37.135   5.739
 4670POPC   C1A61563   9.769  36.758   6.020
 4670POPC   D2A61564   9.621  36.761   6.463
 4670POPC   C3A61565   9.878  36.698   6.813
 4670POPC   C4A61566   9.695  36.762   7.196
 4670POPC   C1B61567   9.987  37.233   6.110
 4670POPC   C2B61568   9.991  37.141   6.534
 4670POPC   C3B61569  10.047  37.189   6.968
 4670POPC   C4B61570  10.138  36.967   7.332
 4671POPC   NC361571  14.191  41.748   5.401
 4671POPC   PO461572  14.712  41.919   5.690
 4671POPC   GL161573  14.523  41.509   5.772
 4671POPC   GL261574  14.155  41.404   5.841
 4671POPC   C1A61575  14.626  41.263   6.114
 4671POPC   D2A61576  14.636  41.324   6.555
 4671POPC   C3A61577  14.656  41.530   6.976
 4671POPC   C4A61578  14.468  41.289   7.322
 4671POPC   C1B61579  14.135  41.246   6.305
 4671POPC   C2B61580  14.171  41.431   6.739
 4671POPC   C3B61581  14.158  41.672   7.139
 4671POPC   C4B61582  14.090  41.801   7.596
 4672POPC   NC361583   9.113   1.287   5.413
 4672POPC   PO461584   8.486   0.861   5.474
 4672POPC   GL161585   8.772   1.125   5.775
 4672POPC   GL261586   9.146   1.081   5.864
 4672POPC   C1A61587   8.669   1.241   6.189
 4672POPC   D2A61588   8.758   1.472   6.558
 4672POPC   C3A61589   8.644   1.329   6.973
 4672POPC   C4A61590   8.563   0.996   7.283
 4672POPC   C1B61591   9.158   1.175   6.303
 4672POPC   C2B61592   9.131   1.189   6.752
 4672POPC   C3B61593   9.054   1.065   7.175
 4672POPC   C4B61594   9.300   0.887   7.474
 4673POPC   NC361595  17.508  16.264   5.418
 4673POPC   PO461596  17.861  15.597   5.470
 4673POPC   GL161597  17.677  15.798   5.876
 4673POPC   GL261598  17.566  16.109   5.952
 4673POPC   C1A61599  17.347  15.702   6.224
 4673POPC   D2A61600  17.201  15.844   6.642
 4673POPC   C3A61601  17.431  15.774   7.046
 4673POPC   C4A61602  17.387  15.988   7.453
 4673POPC   C1B61603  17.805  15.950   6.336
 4673POPC   C2B61604  17.892  15.958   6.749
 4673POPC   C3B61605  17.797  16.145   7.100
 4673POPC   C4B61606  17.836  16.178   7.497
 4674POPC   NC361607   6.858  29.716   5.523
 4674POPC   PO461608   6.296  29.935   5.163
 4674POPC   GL161609   6.425  29.962   5.647
 4674POPC   GL261610   6.561  30.313   5.722
 4674POPC   C1A61611   6.552  29.852   6.116
 4674POPC   D2A61612   6.455  29.582   6.504
 4674POPC   C3A61613   6.437  29.779   6.918
 4674POPC   C4A61614   6.779  29.738   7.201
 4674POPC   C1B61615   6.660  30.392   6.176
 4674POPC   C2B61616   6.635  30.167   6.592
 4674POPC   C3B61617   6.717  30.206   7.043
 4674POPC   C4B61618   6.496  30.113   7.453
 4675POPC   NC361619  35.300  31.240   5.236
 4675POPC   PO461620  35.590  31.783   5.513
 4675POPC   GL161621  35.376  31.452   5.815
 4675POPC   GL261622  35.411  31.110   5.792
 4675POPC   C1A61623  35.132  31.504   6.207
 4675POPC   D2A61624  34.994  31.707   6.588
 4675POPC   C3A61625  35.077  31.515   6.984
 4675POPC   C4A61626  35.237  31.740   7.325
 4675POPC   C1B61627  35.547  31.208   6.241
 4675POPC   C2B61628  35.452  31.347   6.663
 4675POPC   C3B61629  35.537  31.347   7.131
 4675POPC   C4B61630  35.186  31.263   7.448
 4676POPC   NC361631  24.267  17.188   5.509
 4676POPC   PO461632  24.837  17.204   5.116
 4676POPC   GL161633  24.670  17.503   5.578
 4676POPC   GL261634  24.755  17.834   5.690
 4676POPC   C1A61635  24.568  17.520   6.076
 4676POPC   D2A61636  24.708  17.306   6.501
 4676POPC   C3A61637  24.597  17.386   6.971
 4676POPC   C4A61638  24.476  17.256   7.431
 4676POPC   C1B61639  24.911  17.900   6.122
 4676POPC   C2B61640  24.901  17.795   6.588
 4676POPC   C3B61641  24.949  17.763   7.059
 4676POPC   C4B61642  24.740  17.744   7.477
 4677POPC   NC361643   3.024  21.576   5.470
 4677POPC   PO461644   2.822  20.860   5.405
 4677POPC   GL161645   2.799  21.030   5.811
 4677POPC   GL261646   2.673  21.384   5.791
 4677POPC   C1A61647   2.914  21.181   6.235
 4677POPC   D2A61648   2.744  21.225   6.690
 4677POPC   C3A61649   2.916  21.517   7.032
 4677POPC   C4A61650   3.051  21.418   7.462
 4677POPC   C1B61651   2.437  21.395   6.178
 4677POPC   C2B61652   2.319  21.592   6.577
 4677POPC   C3B61653   2.394  21.462   7.012
 4677POPC   C4B61654   2.556  21.533   7.394
 4678POPC   NC361655   9.646  42.675   5.320
 4678POPC   PO461656   9.846  42.065   5.291
 4678POPC   GL161657   9.671  42.232   5.687
 4678POPC   GL261658   9.953  42.065   5.825
 4678POPC   C1A61659   9.816  42.480   6.095
 4678POPC   D2A61660  10.087  42.689   6.434
 4678POPC   C3A61661  10.006  42.601   6.858
 4678POPC   C4A61662   9.702  42.334   7.097
 4678POPC   C1B61663   9.808  41.962   6.218
 4678POPC   C2B61664   9.923  42.167   6.582
 4678POPC   C3B61665  10.098  42.015   6.933
 4678POPC   C4B61666   9.956  41.833   7.291
 4679POPC   NC361667  23.873  10.842   5.440
 4679POPC   PO461668  23.433  10.392   5.640
 4679POPC   GL161669  23.719  10.624   5.903
 4679POPC   GL261670  24.094  10.627   5.829
 4679POPC   C1A61671  23.604  10.656   6.331
 4679POPC   D2A61672  23.498  10.454   6.722
 4679POPC   C3A61673  23.814  10.642   6.926
 4679POPC   C4A61674  23.751  10.712   7.310
 4679POPC   C1B61675  24.140  10.318   6.134
 4679POPC   C2B61676  23.970  10.300   6.520
 4679POPC   C3B61677  24.199  10.309   6.889
 4679POPC   C4B61678  24.230  10.549   7.260
 4680POPC   NC361679  20.643  36.214   5.528
 4680POPC   PO461680  21.068  35.761   5.650
 4680POPC   GL161681  20.908  35.992   5.932
 4680POPC   GL261682  20.584  35.833   5.908
 4680POPC   C1A61683  20.689  36.207   6.250
 4680POPC   D2A61684  20.590  36.123   6.670
 4680POPC   C3A61685  20.438  36.326   7.000
 4680POPC   C4A61686  20.736  36.188   7.246
 4680POPC   C1B61687  20.406  35.751   6.335
 4680POPC   C2B61688  20.217  35.800   6.758
 4680POPC   C3B61689  20.429  35.789   7.142
 4680POPC   C4B61690  20.372  35.932   7.559
 4681POPC   NC361691   2.266  17.272   5.525
 4681POPC   PO461692   2.041  16.778   5.171
 4681POPC   GL161693   2.055  16.789   5.723
 4681POPC   GL261694   1.889  17.085   5.823
 4681POPC   C1A61695   1.896  16.733   6.247
 4681POPC   D2A61696   1.783  16.466   6.673
 4681POPC   C3A61697   1.886  16.521   7.080
 4681POPC   C4A61698   1.757  16.404   7.528
 4681POPC   C1B61699   2.214  17.139   6.147
 4681POPC   C2B61700   2.442  17.086   6.539
 4681POPC   C3B61701   2.240  16.934   6.918
 4681POPC   C4B61702   2.004  17.093   7.256
 4682POPC   NC361703   0.737  13.039   5.552
 4682POPC   PO461704   0.892  12.334   5.483
 4682POPC   GL161705   0.609  12.455   5.854
 4682POPC   GL261706   0.847  12.687   5.977
 4682POPC   C1A61707   0.197  12.531   6.096
 4682POPC   D2A61708  44.982  12.453   6.519
 4682POPC   C3A61709   0.139  12.499   6.983
 4682POPC   C4A61710   0.514  12.660   7.215
 4682POPC   C1B61711   0.529  12.929   6.213
 4682POPC   C2B61712   0.491  13.101   6.659
 4682POPC   C3B61713   0.755  13.075   7.014
 4682POPC   C4B61714   0.658  13.244   7.397
 4683POPC   NC361715  40.102  10.670   5.571
 4683POPC   PO461716  40.017  11.222   5.108
 4683POPC   GL161717  40.077  11.213   5.574
 4683POPC   GL261718  39.774  11.358   5.670
 4683POPC   C1A61719  40.140  11.203   6.065
 4683POPC   D2A61720  40.138  11.482   6.453
 4683POPC   C3A61721  40.168  11.294   6.864
 4683POPC   C4A61722  40.118  11.154   7.269
 4683POPC   C1B61723  39.673  11.031   5.995
 4683POPC   C2B61724  39.736  11.158   6.435
 4683POPC   C3B61725  39.667  11.154   6.886
 4683POPC   C4B61726  39.550  11.040   7.301
 4684POPC   NC361727  10.942  40.297   5.497
 4684POPC   PO461728  11.604  40.023   5.434
 4684POPC   GL161729  11.385  40.021   5.782
 4684POPC   GL261730  11.493  40.367   5.838
 4684POPC   C1A61731  11.132  40.076   6.114
 4684POPC   D2A61732  11.017  40.048   6.508
 4684POPC   C3A61733  11.261  39.880   6.796
 4684POPC   C4A61734  11.169  40.063   7.184
 4684POPC   C1B61735  11.620  40.200   6.233
 4684POPC   C2B61736  11.503  40.316   6.645
 4684POPC   C3B61737  11.686  40.203   7.002
 4684POPC   C4B61738  11.619  40.095   7.401
 4685POPC   NC361739  13.116   8.413   5.406
 4685POPC   PO461740  12.753   7.918   5.485
 4685POPC   GL161741  12.823   8.245   5.806
 4685POPC   GL261742  12.514   8.374   5.738
 4685POPC   C1A61743  12.867   8.363   6.274
 4685POPC   D2A61744  12.721   8.191   6.697
 4685POPC   C3A61745  12.877   8.376   7.086
 4685POPC   C4A61746  12.937   8.176   7.491
 4685POPC   C1B61747  12.399   8.602   6.126
 4685POPC   C2B61748  12.359   8.509   6.546
 4685POPC   C3B61749  12.380   8.588   6.973
 4685POPC   C4B61750  12.590   8.770   7.346
 4686POPC   NC361751  25.423  22.041   5.138
 4686POPC   PO461752  24.977  22.546   5.411
 4686POPC   GL161753  25.134  22.371   5.835
 4686POPC   GL261754  25.311  22.047   5.909
 4686POPC   C1A61755  25.028  22.244   6.297
 4686POPC   D2A61756  24.734  22.049   6.580
 4686POPC   C3A61757  24.953  21.970   6.988
 4686POPC   C4A61758  25.352  22.124   7.152
 4686POPC   C1B61759  25.518  22.365   6.226
 4686POPC   C2B61760  25.641  22.387   6.700
 4686POPC   C3B61761  25.867  22.108   7.041
 4686POPC   C4B61762  25.734  22.012   7.476
 4687POPC   NC361763   9.845   8.744   5.316
 4687POPC   PO461764   9.141   8.856   5.346
 4687POPC   GL161765   9.449   8.980   5.692
 4687POPC   GL261766   9.816   9.104   5.698
 4687POPC   C1A61767   9.588   8.863   6.130
 4687POPC   D2A61768   9.859   8.592   6.413
 4687POPC   C3A61769   9.845   8.642   6.867
 4687POPC   C4A61770   9.609   8.787   7.220
 4687POPC   C1B61771  10.071   8.979   6.085
 4687POPC   C2B61772  10.083   9.014   6.569
 4687POPC   C3B61773   9.982   9.117   7.028
 4687POPC   C4B61774   9.567   9.319   7.177
 4688POPC   NC361775  20.268  27.503   5.342
 4688POPC   PO461776  19.701  27.737   5.254
 4688POPC   GL161777  19.876  27.625   5.672
 4688POPC   GL261778  20.154  27.759   5.812
 4688POPC   C1A61779  19.904  27.389   6.083
 4688POPC   D2A61780  20.138  27.226   6.457
 4688POPC   C3A61781  20.028  27.235   6.911
 4688POPC   C4A61782  19.689  27.031   7.172
 4688POPC   C1B61783  20.303  27.663   6.213
 4688POPC   C2B61784  20.167  27.767   6.641
 4688POPC   C3B61785  20.182  27.923   7.054
 4688POPC   C4B61786  19.990  27.605   7.271
 4689POPC   NC361787  21.959   9.739   5.549
 4689POPC   PO461788  22.574   9.601   5.207
 4689POPC   GL161789  22.465   9.520   5.687
 4689POPC   GL261790  22.120   9.371   5.855
 4689POPC   C1A61791  22.508   9.556   6.129
 4689POPC   D2A61792  22.336   9.409   6.498
 4689POPC   C3A61793  22.153   9.606   6.848
 4689POPC   C4A61794  22.361   9.691   7.210
 4689POPC   C1B61795  21.951   9.629   6.224
 4689POPC   C2B61796  22.027   9.999   6.521
 4689POPC   C3B61797  22.063  10.100   6.979
 4689POPC   C4B61798  22.053   9.999   7.432
 4690POPC   NC361799  36.727  24.437   5.475
 4690POPC   PO461800  37.022  24.978   5.167
 4690POPC   GL161801  37.058  24.791   5.630
 4690POPC   GL261802  37.112  24.435   5.798
 4690POPC   C1A61803  36.928  24.791   6.105
 4690POPC   D2A61804  37.072  24.744   6.555
 4690POPC   C3A61805  36.876  24.635   6.965
 4690POPC   C4A61806  36.839  24.529   7.408
 4690POPC   C1B61807  36.914  24.279   6.247
 4690POPC   C2B61808  36.822  24.213   6.687
 4690POPC   C3B61809  36.929  24.125   7.128
 4690POPC   C4B61810  36.937  24.055   7.635
 4691POPC   NC361811   5.158  24.853   5.463
 4691POPC   PO461812   4.667  24.352   5.465
 4691POPC   GL161813   4.826  24.606   5.815
 4691POPC   GL261814   5.189  24.502   5.822
 4691POPC   C1A61815   4.984  24.659   6.266
 4691POPC   D2A61816   5.163  24.612   6.671
 4691POPC   C3A61817   4.919  24.480   7.017
 4691POPC   C4A61818   4.686  24.311   7.341
 4691POPC   C1B61819   5.303  24.245   6.174
 4691POPC   C2B61820   5.372  24.106   6.585
 4691POPC   C3B61821   5.410  24.271   6.988
 4691POPC   C4B61822   5.450  24.722   7.104
 4692POPC   NC361823  19.670  40.868   5.171
 4692POPC   PO461824  20.149  40.585   5.575
 4692POPC   GL161825  19.913  40.660   5.917
 4692POPC   GL261826  19.776  40.940   5.735
 4692POPC   C1A61827  19.967  40.750   6.376
 4692POPC   D2A61828  19.702  41.036   6.653
 4692POPC   C3A61829  19.670  40.815   7.030
 4692POPC   C4A61830  19.987  40.489   7.024
 4692POPC   C1B61831  20.175  41.076   6.020
 4692POPC   C2B61832  20.187  41.211   6.456
 4692POPC   C3B61833  20.152  41.194   6.876
 4692POPC   C4B61834  20.121  40.944   7.224
 4693POPC   NC361835  31.729  31.127   5.471
 4693POPC   PO461836  31.554  31.750   5.193
 4693POPC   GL161837  31.642  31.635   5.671
 4693POPC   GL261838  31.340  31.425   5.731
 4693POPC   C1A61839  31.777  31.582   6.168
 4693POPC   D2A61840  31.822  31.743   6.649
 4693POPC   C3A61841  31.782  31.533   7.088
 4693POPC   C4A61842  31.788  31.644   7.569
 4693POPC   C1B61843  31.329  31.297   6.167
 4693POPC   C2B61844  31.476  31.336   6.612
 4693POPC   C3B61845  31.331  31.262   7.050
 4693POPC   C4B61846  31.526  31.214   7.449
 4694POPC   NC361847  25.128  34.279   5.340
 4694POPC   PO461848  25.407  34.807   5.487
 4694POPC   GL161849  25.175  34.610   5.834
 4694POPC   GL261850  24.850  34.727   5.737
 4694POPC   C1A61851  25.209  34.541   6.305
 4694POPC   D2A61852  25.253  34.805   6.710
 4694POPC   C3A61853  25.445  34.618   7.067
 4694POPC   C4A61854  25.620  34.798   7.395
 4694POPC   C1B61855  24.828  34.835   6.198
 4694POPC   C2B61856  24.776  34.665   6.643
 4694POPC   C3B61857  24.941  34.553   7.062
 4694POPC   C4B61858  24.765  34.373   7.449
 4695POPC   NC361859  44.358   3.760   5.392
 4695POPC   PO461860  43.729   3.516   5.432
 4695POPC   GL161861  43.811   3.613   5.779
 4695POPC   GL261862  44.009   3.896   5.747
 4695POPC   C1A61863  43.744   3.542   6.166
 4695POPC   D2A61864  43.867   3.633   6.555
 4695POPC   C3A61865  43.672   3.439   6.890
 4695POPC   C4A61866  43.837   3.528   7.287
 4695POPC   C1B61867  44.013   3.997   6.169
 4695POPC   C2B61868  44.034   4.136   6.595
 4695POPC   C3B61869  43.945   3.926   6.976
 4695POPC   C4B61870  44.244   3.849   7.289
 4696POPC   NC361871  27.246  23.173   5.401
 4696POPC   PO461872  26.568  23.038   5.321
 4696POPC   GL161873  26.676  22.893   5.734
 4696POPC   GL261874  27.046  22.906   5.770
 4696POPC   C1A61875  26.717  22.993   6.172
 4696POPC   D2A61876  26.506  23.046   6.563
 4696POPC   C3A61877  26.740  23.186   6.895
 4696POPC   C4A61878  26.757  23.175   7.319
 4696POPC   C1B61879  27.185  23.191   6.099
 4696POPC   C2B61880  27.086  23.061   6.528
 4696POPC   C3B61881  27.218  22.917   6.919
 4696POPC   C4B61882  27.277  23.046   7.343
 4697POPC   NC361883  33.345  15.636   5.482
 4697POPC   PO461884  32.876  16.165   5.450
 4697POPC   GL161885  33.084  15.978   5.796
 4697POPC   GL261886  33.439  16.036   5.777
 4697POPC   C1A61887  33.156  15.692   6.141
 4697POPC   D2A61888  33.350  15.701   6.533
 4697POPC   C3A61889  33.098  15.773   6.901
 4697POPC   C4A61890  32.975  15.794   7.332
 4697POPC   C1B61891  33.449  16.119   6.196
 4697POPC   C2B61892  33.282  16.208   6.585
 4697POPC   C3B61893  33.524  16.049   6.888
 4697POPC   C4B61894  33.448  15.942   7.277
 4698POPC   NC361895  29.255  18.989   5.296
 4698POPC   PO461896  28.895  19.599   5.416
 4698POPC   GL161897  29.156  19.311   5.731
 4698POPC   GL261898  29.179  18.912   5.798
 4698POPC   C1A61899  29.260  19.236   6.167
 4698POPC   D2A61900  29.030  19.098   6.519
 4698POPC   C3A61901  29.198  19.105   6.913
 4698POPC   C4A61902  28.988  19.215   7.235
 4698POPC   C1B61903  29.102  18.689   6.232
 4698POPC   C2B61904  29.087  18.629   6.726
 4698POPC   C3B61905  29.105  18.597   7.212
 4698POPC   C4B61906  29.358  18.532   7.642
 4699POPC   NC361907  36.617  22.115   5.497
 4699POPC   PO461908  37.075  22.586   5.407
 4699POPC   GL161909  36.994  22.367   5.756
 4699POPC   GL261910  36.653  22.496   5.838
 4699POPC   C1A61911  36.991  22.051   6.064
 4699POPC   D2A61912  37.005  22.105   6.511
 4699POPC   C3A61913  36.914  21.886   6.874
 4699POPC   C4A61914  37.142  22.006   7.233
 4699POPC   C1B61915  36.708  22.449   6.236
 4699POPC   C2B61916  36.557  22.337   6.606
 4699POPC   C3B61917  36.761  22.357   6.975
 4699POPC   C4B61918  36.662  22.213   7.378
 4700POPC   NC361919   8.809   8.553   5.429
 4700POPC   PO461920   8.647   9.144   5.661
 4700POPC   GL161921   8.972   8.962   5.909
 4700POPC   GL261922   8.755   8.678   5.918
 4700POPC   C1A61923   9.171   9.031   6.359
 4700POPC   D2A61924   9.460   9.007   6.754
 4700POPC   C3A61925   9.160   8.996   7.114
 4700POPC   C4A61926   8.846   9.083   7.451
 4700POPC   C1B61927   8.735   8.745   6.346
 4700POPC   C2B61928   8.861   8.854   6.751
 4700POPC   C3B61929   8.747   8.643   7.159
 4700POPC   C4B61930   8.617   8.671   7.629
 4701POPC   NC361931  26.099   9.642   5.342
 4701POPC   PO461932  25.567   9.372   5.653
 4701POPC   GL161933  25.956   9.499   5.861
 4701POPC   GL261934  26.224   9.758   5.831
 4701POPC   C1A61935  26.189   9.455   6.254
 4701POPC   D2A61936  26.130   9.716   6.647
 4701POPC   C3A61937  26.166   9.466   7.017
 4701POPC   C4A61938  25.911   9.211   7.281
 4701POPC   C1B61939  25.954   9.920   6.178
 4701POPC   C2B61940  25.639   9.958   6.533
 4701POPC   C3B61941  25.756  10.028   6.963
 4701POPC   C4B61942  26.151  10.122   7.170
 4702POPC   NC361943  31.837   3.634   5.558
 4702POPC   PO461944  31.353   3.324   5.249
 4702POPC   GL161945  31.399   3.425   5.712
 4702POPC   GL261946  31.715   3.229   5.831
 4702POPC   C1A61947  31.479   3.730   6.099
 4702POPC   D2A61948  31.707   3.595   6.474
 4702POPC   C3A61949  31.547   3.660   6.880
 4702POPC   C4A61950  31.550   3.752   7.315
 4702POPC   C1B61951  31.449   3.239   6.203
 4702POPC   C2B61952  31.225   3.352   6.600
 4702POPC   C3B61953  31.302   3.237   7.012
 4702POPC   C4B61954  31.679   3.258   7.203
 4703POPC   NC361955   2.205  20.186   5.582
 4703POPC   PO461956   1.833  20.709   5.419
 4703POPC   GL161957   1.988  20.646   5.814
 4703POPC   GL261958   1.834  20.375   5.905
 4703POPC   C1A61959   2.152  20.653   6.257
 4703POPC   D2A61960   2.374  20.643   6.684
 4703POPC   C3A61961   2.088  20.556   7.056
 4703POPC   C4A61962   1.779  20.773   7.236
 4703POPC   C1B61963   1.641  20.560   6.304
 4703POPC   C2B61964   1.577  20.536   6.767
 4703POPC   C3B61965   1.651  20.250   7.121
 4703POPC   C4B61966   1.847  20.201   7.506
 4704POPC   NC361967   9.748  28.011   5.588
 4704POPC   PO461968  10.172  28.452   5.353
 4704POPC   GL161969   9.892  28.445   5.805
 4704POPC   GL261970   9.839  28.109   6.060
 4704POPC   C1A61971   9.706  28.544   6.268
 4704POPC   D2A61972   9.703  28.350   6.741
 4704POPC   C3A61973   9.821  28.641   7.114
 4704POPC   C4A61974  10.045  28.911   7.422
 4704POPC   C1B61975   9.397  27.997   6.241
 4704POPC   C2B61976   9.176  27.971   6.626
 4704POPC   C3B61977   9.332  28.061   7.034
 4704POPC   C4B61978   9.749  28.129   7.214
 4705POPC   NC361979  29.793  38.798   5.364
 4705POPC   PO461980  29.866  38.024   5.478
 4705POPC   GL161981  29.934  38.413   5.728
 4705POPC   GL261982  29.610  38.588   5.833
 4705POPC   C1A61983  30.012  38.583   6.146
 4705POPC   D2A61984  29.771  38.760   6.490
 4705POPC   C3A61985  29.827  38.539   6.872
 4705POPC   C4A61986  30.015  38.180   7.103
 4705POPC   C1B61987  29.579  38.247   6.169
 4705POPC   C2B61988  29.469  38.142   6.639
 4705POPC   C3B61989  29.422  38.334   7.091
 4705POPC   C4B61990  29.633  38.486   7.477
 4706POPC   NC361991  19.542   1.074   5.446
 4706POPC   PO461992  19.954   1.680   5.328
 4706POPC   GL161993  19.749   1.490   5.688
 4706POPC   GL261994  19.891   1.153   5.821
 4706POPC   C1A61995  19.529   1.376   6.087
 4706POPC   D2A61996  19.440   1.353   6.541
 4706POPC   C3A61997  19.778   1.222   6.807
 4706POPC   C4A61998  19.761   1.106   7.220
 4706POPC   C1B61999  19.893   1.087   6.307
 4706POPC   C2B62000  20.076   0.818   6.631
 4706POPC   C3B62001  20.213   0.956   7.045
 4706POPC   C4B62002  20.218   1.338   7.323
 4707POPC   NC362003  11.126  16.943   5.398
 4707POPC   PO462004  11.552  16.375   5.498
 4707POPC   GL162005  11.436  16.711   5.807
 4707POPC   GL262006  11.073  16.716   5.860
 4707POPC   C1A62007  11.426  16.775   6.267
 4707POPC   D2A62008  11.685  16.734   6.656
 4707POPC   C3A62009  11.510  16.797   7.073
 4707POPC   C4A62010  11.155  16.578   7.224
 4707POPC   C1B62011  11.115  17.124   6.079
 4707POPC   C2B62012  11.016  17.106   6.483
 4707POPC   C3B62013  11.137  17.088   6.890
 4707POPC   C4B62014  10.979  17.052   7.281
 4708POPC   NC362015  39.105   1.521   5.523
 4708POPC   PO462016  39.062   0.939   5.479
 4708POPC   GL162017  39.242   1.106   5.817
 4708POPC   GL262018  39.503   0.933   5.757
 4708POPC   C1A62019  39.375   1.345   6.168
 4708POPC   D2A62020  39.220   1.502   6.556
 4708POPC   C3A62021  39.337   1.381   6.981
 4708POPC   C4A62022  39.003   1.225   7.256
 4708POPC   C1B62023  39.406   0.772   6.171
 4708POPC   C2B62024  39.426   1.010   6.570
 4708POPC   C3B62025  39.282   0.881   6.977
 4708POPC   C4B62026  39.441   0.996   7.378
 4709POPC   NC362027   3.577  38.675   5.333
 4709POPC   PO462028   3.767  37.991   5.203
 4709POPC   GL162029   3.738  38.167   5.641
 4709POPC   GL262030   3.803  38.517   5.762
 4709POPC   C1A62031   3.692  38.149   6.109
 4709POPC   D2A62032   3.898  38.166   6.538
 4709POPC   C3A62033   3.624  38.211   6.929
 4709POPC   C4A62034   3.237  38.420   7.091
 4709POPC   C1B62035   3.941  38.602   6.193
 4709POPC   C2B62036   3.747  38.664   6.594
 4709POPC   C3B62037   3.885  38.675   7.034
 4709POPC   C4B62038   3.574  38.703   7.377
 4710POPC   NC362039  20.661  10.703   5.310
 4710POPC   PO462040  20.458  10.018   5.450
 4710POPC   GL162041  20.474  10.388   5.720
 4710POPC   GL262042  20.814  10.512   5.754
 4710POPC   C1A62043  20.500  10.469   6.172
 4710POPC   D2A62044  20.318  10.364   6.567
 4710POPC   C3A62045  20.597  10.439   6.908
 4710POPC   C4A62046  20.485  10.512   7.351
 4710POPC   C1B62047  20.967  10.216   6.053
 4710POPC   C2B62048  20.970  10.273   6.486
 4710POPC   C3B62049  21.089  10.110   6.867
 4710POPC   C4B62050  20.887  10.205   7.248
 4711POPC   NC362051  10.173  20.481   5.131
 4711POPC   PO462052  10.659  20.945   5.233
 4711POPC   GL162053  10.539  20.760   5.701
 4711POPC   GL262054  10.385  20.440   5.782
 4711POPC   C1A62055  10.587  20.684   6.186
 4711POPC   D2A62056  10.338  20.755   6.586
 4711POPC   C3A62057  10.424  20.554   6.972
 4711POPC   C4A62058  10.201  20.585   7.347
 4711POPC   C1B62059  10.190  20.178   6.138
 4711POPC   C2B62060  10.282  20.213   6.588
 4711POPC   C3B62061  10.125  20.135   7.017
 4711POPC   C4B62062  10.060  20.103   7.451
 4712POPC   NC362063  22.357  14.033   5.394
 4712POPC   PO462064  22.148  13.472   5.165
 4712POPC   GL162065  22.146  13.649   5.665
 4712POPC   GL262066  22.441  13.881   5.888
 4712POPC   C1A62067  22.001  13.740   6.130
 4712POPC   D2A62068  21.781  13.864   6.560
 4712POPC   C3A62069  21.950  13.730   6.984
 4712POPC   C4A62070  22.232  13.884   7.298
 4712POPC   C1B62071  22.637  13.982   6.317
 4712POPC   C2B62072  22.517  13.939   6.781
 4712POPC   C3B62073  22.503  13.540   7.036
 4712POPC   C4B62074  22.503  13.485   7.488
 4713POPC   NC362075  25.856  17.622   5.422
 4713POPC   PO462076  26.330  17.097   5.471
 4713POPC   GL162077  25.994  17.236   5.739
 4713POPC   GL262078  26.198  17.530   5.785
 4713POPC   C1A62079  25.727  17.402   6.093
 4713POPC   D2A62080  25.845  17.441   6.546
 4713POPC   C3A62081  25.819  17.256   6.975
 4713POPC   C4A62082  26.069  17.166   7.339
 4713POPC   C1B62083  26.204  17.713   6.167
 4713POPC   C2B62084  26.093  17.889   6.528
 4713POPC   C3B62085  26.157  17.683   6.902
 4713POPC   C4B62086  26.158  17.891   7.247
 4714POPC   NC362087  38.211   0.090   5.537
 4714POPC   PO462088  38.656   0.472   5.262
 4714POPC   GL162089  38.560   0.490   5.755
 4714POPC   GL262090  38.288   0.730   5.910
 4714POPC   C1A62091  38.461   0.356   6.199
 4714POPC   D2A62092  38.550   0.119   6.575
 4714POPC   C3A62093  38.472   0.368   6.956
 4714POPC   C4A62094  38.551   0.513   7.379
 4714POPC   C1B62095  38.455   0.893   6.307
 4714POPC   C2B62096  38.315   0.809   6.742
 4714POPC   C3B62097  38.188   0.802   7.203
 4714POPC   C4B62098  38.180   0.789   7.692
 4715POPC   NC362099  31.249  19.853   5.561
 4715POPC   PO462100  31.933  19.940   5.520
 4715POPC   GL162101  31.637  20.041   5.869
 4715POPC   GL262102  31.355  20.281   5.833
 4715POPC   C1A62103  31.602  19.814   6.265
 4715POPC   D2A62104  31.811  19.839   6.655
 4715POPC   C3A62105  31.556  19.905   7.035
 4715POPC   C4A62106  31.674  19.745   7.453
 4715POPC   C1B62107  31.130  20.071   6.187
 4715POPC   C2B62108  31.221  20.002   6.625
 4715POPC   C3B62109  31.050  19.840   7.000
 4715POPC   C4B62110  31.267  19.500   7.221
 4716POPC   NC362111  15.036  36.211   5.020
 4716POPC   PO462112  15.504  35.852   5.279
 4716POPC   GL162113  15.323  36.140   5.610
 4716POPC   GL262114  15.255  35.854   5.801
 4716POPC   C1A62115  15.072  36.250   6.035
 4716POPC   D2A62116  14.969  36.029   6.454
 4716POPC   C3A62117  14.863  36.262   6.847
 4716POPC   C4A62118  14.992  36.134   7.240
 4716POPC   C1B62119  15.469  35.588   6.091
 4716POPC   C2B62120  15.461  35.676   6.522
 4716POPC   C3B62121  15.286  35.894   6.871
 4716POPC   C4B62122  15.383  35.764   7.282
 4717POPC   NC362123  38.400   0.822   5.408
 4717POPC   PO462124  38.219   1.467   5.378
 4717POPC   GL162125  38.406   1.219   5.748
 4717POPC   GL262126  38.720   0.987   5.842
 4717POPC   C1A62127  38.606   1.398   6.111
 4717POPC   D2A62128  38.483   1.550   6.493
 4717POPC   C3A62129  38.447   1.309   6.878
 4717POPC   C4A62130  38.555   1.488   7.270
 4717POPC   C1B62131  38.961   1.054   6.260
 4717POPC   C2B62132  38.901   1.105   6.706
 4717POPC   C3B62133  38.708   0.879   7.053
 4717POPC   C4B62134  38.584   1.020   7.479
 4718POPC   NC362135   9.875  35.613   5.487
 4718POPC   PO462136   9.583  36.220   5.511
 4718POPC   GL162137   9.654  36.060   5.875
 4718POPC   GL262138   9.995  35.995   5.816
 4718POPC   C1A62139   9.586  36.273   6.257
 4718POPC   D2A62140   9.563  36.067   6.642
 4718POPC   C3A62141   9.543  36.326   6.979
 4718POPC   C4A62142   9.393  36.061   7.265
 4718POPC   C1B62143  10.086  36.301   6.146
 4718POPC   C2B62144  10.076  36.139   6.582
 4718POPC   C3B62145   9.991  36.089   7.028
 4718POPC   C4B62146  10.114  36.455   7.263
 4719POPC   NC362147  34.270  19.561   5.512
 4719POPC   PO462148  34.538  20.257   5.383
 4719POPC   GL162149  34.541  19.985   5.738
 4719POPC   GL262150  34.900  19.997   5.734
 4719POPC   C1A62151  34.420  19.755   6.130
 4719POPC   D2A62152  34.198  19.797   6.525
 4719POPC   C3A62153  34.448  19.764   6.890
 4719POPC   C4A62154  34.550  19.546   7.266
 4719POPC   C1B62155  34.946  19.801   6.113
 4719POPC   C2B62156  34.781  19.797   6.514
 4719POPC   C3B62157  34.989  19.786   6.898
 4719POPC   C4B62158  34.966  19.885   7.312
 4720POPC   NC362159  42.683   5.105   5.475
 4720POPC   PO462160  42.046   5.133   5.469
 4720POPC   GL162161  42.252   5.078   5.828
 4720POPC   GL262162  42.492   5.395   5.859
 4720POPC   C1A62163  42.145   4.856   6.223
 4720POPC   D2A62164  42.158   4.626   6.628
 4720POPC   C3A62165  42.058   4.946   6.917
 4720POPC   C4A62166  42.272   5.296   7.084
 4720POPC   C1B62167  42.613   5.084   6.177
 4720POPC   C2B62168  42.478   5.018   6.581
 4720POPC   C3B62169  42.583   4.865   6.939
 4720POPC   C4B62170  42.744   5.125   7.237
 4721POPC   NC362171  11.050   2.273   5.239
 4721POPC   PO462172  11.325   1.704   5.534
 4721POPC   GL162173  11.130   1.800   5.892
 4721POPC   GL262174  11.199   2.153   5.885
 4721POPC   C1A62175  11.358   1.705   6.277
 4721POPC   D2A62176  11.520   1.897   6.630
 4721POPC   C3A62177  11.180   1.911   6.897
 4721POPC   C4A62178  11.171   1.743   7.282
 4721POPC   C1B62179  11.124   2.154   6.354
 4721POPC   C2B62180  11.319   2.366   6.696
 4721POPC   C3B62181  11.268   2.329   7.167
 4721POPC   C4B62182  11.342   2.448   7.597
 4722POPC   NC362183  39.693  16.908   5.312
 4722POPC   PO462184  39.845  16.473   5.456
 4722POPC   GL162185  39.935  16.632   5.880
 4722POPC   GL262186  39.882  16.974   5.808
 4722POPC   C1A62187  40.044  16.765   6.329
 4722POPC   D2A62188  39.976  16.539   6.732
 4722POPC   C3A62189  40.265  16.584   7.097
 4722POPC   C4A62190  40.265  16.311   7.464
 4722POPC   C1B62191  39.588  16.926   6.158
 4722POPC   C2B62192  39.649  16.943   6.626
 4722POPC   C3B62193  39.926  16.990   7.001
 4722POPC   C4B62194  40.002  16.853   7.422
 4723POPC   NC362195  35.732  16.057   5.583
 4723POPC   PO462196  36.349  15.825   5.530
 4723POPC   GL162197  36.166  15.835   5.895
 4723POPC   GL262198  35.901  15.580   5.917
 4723POPC   C1A62199  36.290  15.603   6.249
 4723POPC   D2A62200  36.065  15.513   6.619
 4723POPC   C3A62201  36.212  15.749   6.980
 4723POPC   C4A62202  36.019  15.803   7.402
 4723POPC   C1B62203  35.817  15.876   6.279
 4723POPC   C2B62204  35.921  16.080   6.684
 4723POPC   C3B62205  36.127  16.240   7.076
 4723POPC   C4B62206  36.155  16.277   7.528
 4724POPC   NC362207  10.635   9.337   5.475
 4724POPC   PO462208  10.308   8.772   5.445
 4724POPC   GL162209  10.518   8.818   5.853
 4724POPC   GL262210  10.530   9.180   5.953
 4724POPC   C1A62211  10.478   8.772   6.312
 4724POPC   D2A62212  10.560   8.952   6.728
 4724POPC   C3A62213  10.466   8.758   7.127
 4724POPC   C4A62214  10.100   8.651   7.377
 4724POPC   C1B62215  10.887   9.079   6.221
 4724POPC   C2B62216  11.041   9.026   6.629
 4724POPC   C3B62217  10.972   8.914   7.059
 4724POPC   C4B62218  10.914   8.955   7.495
 4725POPC   NC362219   2.074  43.647   5.456
 4725POPC   PO462220   1.642  44.123   5.453
 4725POPC   GL162221   1.662  43.759   5.764
 4725POPC   GL262222   1.967  43.881   5.881
 4725POPC   C1A62223   1.686  43.608   6.201
 4725POPC   D2A62224   1.857  43.889   6.526
 4725POPC   C3A62225   1.659  44.045   6.910
 4725POPC   C4A62226   1.866  43.806   7.244
 4725POPC   C1B62227   1.919  44.240   6.139
 4725POPC   C2B62228   2.158  44.296   6.530
 4725POPC   C3B62229   2.171  44.083   6.918
 4725POPC   C4B62230   2.022  44.273   7.272
 4726POPC   NC362231   7.004  20.646   5.488
 4726POPC   PO462232   7.573  20.236   5.600
 4726POPC   GL162233   7.371  20.525   5.837
 4726POPC   GL262234   7.110  20.285   5.864
 4726POPC   C1A62235   7.515  20.713   6.222
 4726POPC   D2A62236   7.672  20.490   6.600
 4726POPC   C3A62237   7.538  20.627   7.001
 4726POPC   C4A62238   7.689  20.404   7.343
 4726POPC   C1B62239   7.013  20.566   6.210
 4726POPC   C2B62240   7.171  20.671   6.591
 4726POPC   C3B62241   7.006  20.650   6.980
 4726POPC   C4B62242   7.150  20.614   7.351
 4727POPC   NC362243  27.457  27.540   5.325
 4727POPC   PO462244  28.072  27.271   5.369
 4727POPC   GL162245  27.837  27.512   5.672
 4727POPC   GL262246  27.775  27.279   5.894
 4727POPC   C1A62247  27.796  27.731   6.122
 4727POPC   D2A62248  27.770  27.707   6.608
 4727POPC   C3A62249  27.462  27.652   6.969
 4727POPC   C4A62250  27.151  27.561   7.324
 4727POPC   C1B62251  27.573  27.308   6.303
 4727POPC   C2B62252  27.474  27.137   6.698
 4727POPC   C3B62253  27.462  27.167   7.113
 4727POPC   C4B62254  27.566  27.318   7.487
 4728POPC   NC362255  25.862  15.212   5.237
 4728POPC   PO462256  26.448  15.443   5.149
 4728POPC   GL162257  26.226  15.185   5.587
 4728POPC   GL262258  25.857  15.218   5.734
 4728POPC   C1A62259  26.192  15.022   6.056
 4728POPC   D2A62260  26.319  14.960   6.506
 4728POPC   C3A62261  26.134  15.103   6.898
 4728POPC   C4A62262  26.096  15.323   7.298
 4728POPC   C1B62263  25.823  15.407   6.164
 4728POPC   C2B62264  25.813  15.374   6.615
 4728POPC   C3B62265  25.570  15.506   6.982
 4728POPC   C4B62266  25.574  15.320   7.396
 4729POPC   NC362267  39.065   0.077   5.453
 4729POPC   PO462268  39.239  44.460   5.092
 4729POPC   GL162269  39.206  44.547   5.554
 4729POPC   GL262270  39.527  44.572   5.721
 4729POPC   C1A62271  39.059  44.565   6.013
 4729POPC   D2A62272  38.808  44.677   6.394
 4729POPC   C3A62273  38.914  44.563   6.832
 4729POPC   C4A62274  38.921  44.864   7.174
 4729POPC   C1B62275  39.524  44.441   6.163
 4729POPC   C2B62276  39.340  44.694   6.515
 4729POPC   C3B62277  39.384  44.751   6.969
 4729POPC   C4B62278  39.576  44.550   7.331
 4730POPC   NC362279  10.107  40.846   5.479
 4730POPC   PO462280  10.467  40.295   5.513
 4730POPC   GL162281  10.420  40.723   5.835
 4730POPC   GL262282  10.638  41.024   5.839
 4730POPC   C1A62283  10.326  40.949   6.270
 4730POPC   D2A62284  10.544  40.788   6.643
 4730POPC   C3A62285  10.380  40.775   7.059
 4730POPC   C4A62286  10.477  40.798   7.486
 4730POPC   C1B62287  10.806  40.821   6.200
 4730POPC   C2B62288  11.019  41.002   6.540
 4730POPC   C3B62289  10.820  41.119   6.940
 4730POPC   C4B62290  10.912  41.040   7.359
 4731POPC   NC362291  11.663  17.693   5.418
 4731POPC   PO462292  11.038  17.403   5.328
 4731POPC   GL162293  11.257  17.503   5.736
 4731POPC   GL262294  11.456  17.225   5.676
 4731POPC   C1A62295  11.365  17.625   6.220
 4731POPC   D2A62296  11.204  17.556   6.674
 4731POPC   C3A62297  11.298  17.754   7.095
 4731POPC   C4A62298  11.167  17.795   7.561
 4731POPC   C1B62299  11.627  17.214   6.067
 4731POPC   C2B62300  11.537  17.205   6.500
 4731POPC   C3B62301  11.628  17.319   6.904
 4731POPC   C4B62302  11.460  17.259   7.290
 4732POPC   NC362303   6.075  18.649   5.421
 4732POPC   PO462304   5.830  17.973   5.328
 4732POPC   GL162305   5.733  18.227   5.727
 4732POPC   GL262306   5.849  18.548   5.849
 4732POPC   C1A62307   5.983  18.164   6.130
 4732POPC   D2A62308   5.864  18.259   6.535
 4732POPC   C3A62309   6.076  18.237   6.914
 4732POPC   C4A62310   5.858  18.150   7.309
 4732POPC   C1B62311   5.979  18.675   6.265
 4732POPC   C2B62312   5.821  18.729   6.696
 4732POPC   C3B62313   5.821  18.627   7.114
 4732POPC   C4B62314   6.141  18.547   7.416
 4733POPC   NC362315  20.423  16.135   5.508
 4733POPC   PO462316  20.366  15.505   5.583
 4733POPC   GL162317  20.626  15.768   5.841
 4733POPC   GL262318  20.881  16.010   5.728
 4733POPC   C1A62319  20.757  15.677   6.248
 4733POPC   D2A62320  20.727  15.863   6.642
 4733POPC   C3A62321  20.558  15.729   7.016
 4733POPC   C4A62322  20.197  15.922   7.209
 4733POPC   C1B62323  20.959  16.146   6.177
 4733POPC   C2B62324  20.946  16.318   6.622
 4733POPC   C3B62325  20.914  16.172   7.056
 4733POPC   C4B62326  20.887  16.283   7.487
 4734POPC   NC362327  44.915   0.641   5.349
 4734POPC   PO462328  44.451   0.157   5.524
 4734POPC   GL162329  44.503   0.345   5.923
 4734POPC   GL262330  44.473   0.691   5.867
 4734POPC   C1A62331  44.682   0.276   6.354
 4734POPC   D2A62332  44.593   0.143   6.789
 4734POPC   C3A62333  44.807   0.263   7.173
 4734POPC   C4A62334  44.553   0.273   7.536
 4734POPC   C1B62335  44.650   0.787   6.249
 4734POPC   C2B62336  44.534   0.659   6.669
 4734POPC   C3B62337  44.640   0.734   7.076
 4734POPC   C4B62338  44.376   0.764   7.478
 4735POPC   NC362339   9.952  44.465   5.361
 4735POPC   PO462340  10.359  44.888   5.598
 4735POPC   GL162341   9.972  44.748   5.832
 4735POPC   GL262342   9.611  44.634   5.805
 4735POPC   C1A62343   9.836  44.731   6.273
 4735POPC   D2A62344  10.004  44.590   6.660
 4735POPC   C3A62345   9.795  44.708   7.056
 4735POPC   C4A62346   9.781  44.695   7.515
 4735POPC   C1B62347   9.371  44.911   6.174
 4735POPC   C2B62348   9.502  44.951   6.644
 4735POPC   C3B62349   9.353  44.970   7.092
 4735POPC   C4B62350   9.320  44.894   7.533
 4736POPC   NC362351  37.974   6.001   5.424
 4736POPC   PO462352  37.552   5.572   5.505
 4736POPC   GL162353  37.563   5.889   5.811
 4736POPC   GL262354  37.892   5.845   5.885
 4736POPC   C1A62355  37.563   5.929   6.270
 4736POPC   D2A62356  37.455   6.024   6.692
 4736POPC   C3A62357  37.362   5.825   7.062
 4736POPC   C4A62358  37.690   6.006   7.263
 4736POPC   C1B62359  38.011   5.631   6.203
 4736POPC   C2B62360  37.932   5.765   6.589
 4736POPC   C3B62361  37.791   5.614   6.933
 4736POPC   C4B62362  38.075   5.699   7.235
 4737POPC   NC362363   7.330   1.047   5.290
 4737POPC   PO462364   7.070   1.639   5.462
 4737POPC   GL162365   7.322   1.314   5.741
 4737POPC   GL262366   7.274   0.943   5.797
 4737POPC   C1A62367   7.631   1.364   6.091
 4737POPC   D2A62368   7.773   1.303   6.524
 4737POPC   C3A62369   7.522   1.296   6.896
 4737POPC   C4A62370   7.590   1.246   7.337
 4737POPC   C1B62371   7.275   1.029   6.259
 4737POPC   C2B62372   7.121   0.985   6.693
 4737POPC   C3B62373   7.179   0.944   7.140
 4737POPC   C4B62374   7.157   1.065   7.561
 4738POPC   NC362375   5.557  27.434   5.441
 4738POPC   PO462376   4.900  27.693   5.424
 4738POPC   GL162377   5.118  27.653   5.811
 4738POPC   GL262378   5.465  27.824   5.792
 4738POPC   C1A62379   4.933  27.835   6.201
 4738POPC   D2A62380   4.816  28.069   6.569
 4738POPC   C3A62381   4.870  27.889   6.992
 4738POPC   C4A62382   4.941  27.674   7.406
 4738POPC   C1B62383   5.420  27.713   6.226
 4738POPC   C2B62384   5.261  27.768   6.655
 4738POPC   C3B62385   5.375  27.674   7.097
 4738POPC   C4B62386   5.416  27.678   7.598
 4739POPC   NC362387   6.883  28.195   5.401
 4739POPC   PO462388   6.379  28.695   5.448
 4739POPC   GL162389   6.416  28.404   5.774
 4739POPC   GL262390   6.760  28.447   5.823
 4739POPC   C1A62391   6.373  28.410   6.227
 4739POPC   D2A62392   6.491  28.126   6.566
 4739POPC   C3A62393   6.347  28.255   6.961
 4739POPC   C4A62394   6.527  28.443   7.299
 4739POPC   C1B62395   6.852  28.196   6.174
 4739POPC   C2B62396   7.029  28.098   6.578
 4739POPC   C3B62397   6.873  28.150   6.972
 4739POPC   C4B62398   7.077  28.439   7.180
 4740POPC   NC362399  36.634  17.379   5.375
 4740POPC   PO462400  37.260  17.079   5.505
 4740POPC   GL162401  37.004  17.358   5.778
 4740POPC   GL262402  36.670  17.339   5.882
 4740POPC   C1A62403  36.971  17.498   6.228
 4740POPC   D2A62404  37.148  17.607   6.599
 4740POPC   C3A62405  36.847  17.767   6.878
 4740POPC   C4A62406  36.740  17.828   7.306
 4740POPC   C1B62407  36.522  17.194   6.289
 4740POPC   C2B62408  36.730  17.295   6.701
 4740POPC   C3B62409  36.754  17.342   7.180
 4740POPC   C4B62410  36.581  17.433   7.620
 4741POPC   NC362411  25.458  23.715   5.286
 4741POPC   PO462412  24.832  23.764   5.487
 4741POPC   GL162413  25.056  23.617   5.844
 4741POPC   GL262414  25.427  23.698   5.816
 4741POPC   C1A62415  25.099  23.633   6.307
 4741POPC   D2A62416  25.268  23.862   6.666
 4741POPC   C3A62417  25.131  23.786   7.122
 4741POPC   C4A62418  25.023  23.915   7.566
 4741POPC   C1B62419  25.596  23.545   6.224
 4741POPC   C2B62420  25.663  23.528   6.691
 4741POPC   C3B62421  25.579  23.496   7.164
 4741POPC   C4B62422  25.720  23.294   7.567
 4742POPC   NC362423  10.020   0.200   5.477
 4742POPC   PO462424  10.675   0.318   5.316
 4742POPC   GL162425  10.478   0.445   5.749
 4742POPC   GL262426  10.186   0.628   5.745
 4742POPC   C1A62427  10.547   0.493   6.244
 4742POPC   D2A62428  10.664   0.209   6.592
 4742POPC   C3A62429  10.767   0.363   6.984
 4742POPC   C4A62430  10.611   0.219   7.376
 4742POPC   C1B62431  10.087   0.350   6.098
 4742POPC   C2B62432  10.108   0.212   6.531
 4742POPC   C3B62433  10.270   0.416   6.903
 4742POPC   C4B62434  10.155   0.465   7.334
 4743POPC   NC362435  32.933   0.745   5.397
 4743POPC   PO462436  33.353   0.226   5.743
 4743POPC   GL162437  33.058   0.318   6.029
 4743POPC   GL262438  32.834   0.571   5.878
 4743POPC   C1A62439  33.074   0.273   6.479
 4743POPC   D2A62440  32.929   0.571   6.797
 4743POPC   C3A62441  33.180   0.379   7.112
 4743POPC   C4A62442  33.293   0.092   7.380
 4743POPC   C1B62443  32.680   0.558   6.300
 4743POPC   C2B62444  32.581   0.219   6.603
 4743POPC   C3B62445  32.634   0.267   7.070
 4743POPC   C4B62446  32.793   0.604   7.360
 4744POPC   NC362447  13.716  24.205   5.563
 4744POPC   PO462448  13.339  23.637   5.526
 4744POPC   GL162449  13.430  23.786   5.868
 4744POPC   GL262450  13.728  23.647   5.867
 4744POPC   C1A62451  13.497  23.764   6.314
 4744POPC   D2A62452  13.277  23.709   6.674
 4744POPC   C3A62453  13.452  23.951   7.028
 4744POPC   C4A62454  13.600  23.571   7.090
 4744POPC   C1B62455  13.892  23.446   6.236
 4744POPC   C2B62456  13.923  23.438   6.692
 4744POPC   C3B62457  14.094  23.678   7.055
 4744POPC   C4B62458  13.910  23.668   7.477
 4745POPC   NC362459   5.481  40.156   5.206
 4745POPC   PO462460   5.997  39.796   5.130
 4745POPC   GL162461   5.971  39.865   5.639
 4745POPC   GL262462   6.258  40.057   5.783
 4745POPC   C1A62463   5.807  40.021   6.058
 4745POPC   D2A62464   5.745  39.942   6.504
 4745POPC   C3A62465   5.600  40.091   6.924
 4745POPC   C4A62466   5.683  40.220   7.381
 4745POPC   C1B62467   6.368  39.987   6.209
 4745POPC   C2B62468   6.216  39.689   6.467
 4745POPC   C3B62469   6.018  39.687   6.844
 4745POPC   C4B62470   5.929  39.825   7.235
 4746POPC   NC362471   2.334  20.855   5.285
 4746POPC   PO462472   1.895  21.374   5.369
 4746POPC   GL162473   2.146  21.435   5.741
 4746POPC   GL262474   2.256  21.082   5.748
 4746POPC   C1A62475   2.005  21.658   6.125
 4746POPC   D2A62476   1.777  21.506   6.471
 4746POPC   C3A62477   1.909  21.516   6.884
 4746POPC   C4A62478   1.748  21.289   7.228
 4746POPC   C1B62479   1.966  21.121   6.103
 4746POPC   C2B62480   2.130  21.118   6.515
 4746POPC   C3B62481   2.099  21.045   6.931
 4746POPC   C4B62482   2.251  21.025   7.347
 4747POPC   NC362483   4.235  10.726   5.346
 4747POPC   PO462484   3.734  10.446   5.653
 4747POPC   GL162485   4.208  10.490   5.796
 4747POPC   GL262486   4.516  10.770   5.812
 4747POPC   C1A62487   4.296  10.469   6.214
 4747POPC   D2A62488   4.515  10.249   6.515
 4747POPC   C3A62489   4.302  10.318   6.883
 4747POPC   C4A62490   4.408  10.168   7.254
 4747POPC   C1B62491   4.512  10.951   6.242
 4747POPC   C2B62492   4.391  10.779   6.647
 4747POPC   C3B62493   4.601  10.747   7.072
 4747POPC   C4B62494   4.866  10.848   7.464
 4748POPC   NC362495   2.374  37.809   5.393
 4748POPC   PO462496   2.240  37.160   5.441
 4748POPC   GL162497   2.023  37.545   5.708
 4748POPC   GL262498   2.093  37.930   5.796
 4748POPC   C1A62499   1.808  37.610   6.118
 4748POPC   D2A62500   1.886  37.757   6.525
 4748POPC   C3A62501   1.787  37.711   6.961
 4748POPC   C4A62502   2.011  37.661   7.356
 4748POPC   C1B62503   2.297  37.792   6.166
 4748POPC   C2B62504   2.376  37.664   6.597
 4748POPC   C3B62505   2.293  37.853   6.978
 4748POPC   C4B62506   2.410  37.984   7.390
 4749POPC   NC362507  40.699  28.001   5.489
 4749POPC   PO462508  40.746  28.573   5.520
 4749POPC   GL162509  40.715  28.324   5.920
 4749POPC   GL262510  40.700  27.939   6.001
 4749POPC   C1A62511  40.902  28.415   6.320
 4749POPC   D2A62512  40.999  28.544   6.739
 4749POPC   C3A62513  40.754  28.437   7.091
 4749POPC   C4A62514  40.946  28.210   7.414
 4749POPC   C1B62515  40.868  27.935   6.424
 4749POPC   C2B62516  40.927  28.010   6.877
 4749POPC   C3B62517  40.596  27.945   7.176
 4749POPC   C4B62518  40.552  27.888   7.618
 4750POPC   NC362519  33.216  38.716   5.401
 4750POPC   PO462520  33.298  38.085   5.726
 4750POPC   GL162521  33.078  38.394   5.948
 4750POPC   GL262522  32.897  38.679   5.828
 4750POPC   C1A62523  33.078  38.516   6.371
 4750POPC   D2A62524  33.370  38.624   6.691
 4750POPC   C3A62525  33.357  38.295   7.014
 4750POPC   C4A62526  33.011  38.229   7.292
 4750POPC   C1B62527  32.765  38.887   6.219
 4750POPC   C2B62528  32.746  38.761   6.669
 4750POPC   C3B62529  32.842  38.728   7.110
 4750POPC   C4B62530  32.904  38.979   7.507
 4751POPC   NC362531  10.608  29.856   5.463
 4751POPC   PO462532  10.100  29.994   5.129
 4751POPC   GL162533  10.146  29.861   5.654
 4751POPC   GL262534  10.222  29.528   5.782
 4751POPC   C1A62535  10.392  29.905   6.097
 4751POPC   D2A62536  10.295  29.836   6.540
 4751POPC   C3A62537  10.431  30.125   6.847
 4751POPC   C4A62538  10.475  30.009   7.262
 4751POPC   C1B62539  10.515  29.405   6.135
 4751POPC   C2B62540  10.554  29.380   6.585
 4751POPC   C3B62541  10.637  29.598   6.968
 4751POPC   C4B62542  10.894  29.722   7.347
 4752POPC   NC362543  16.390   0.914   5.006
 4752POPC   PO462544  16.057   0.427   5.355
 4752POPC   GL162545  15.985   0.408   5.779
 4752POPC   GL262546  15.713   0.181   5.764
 4752POPC   C1A62547  16.083   0.657   6.145
 4752POPC   D2A62548  15.927   0.761   6.531
 4752POPC   C3A62549  16.144   0.774   6.898
 4752POPC   C4A62550  15.987   0.644   7.256
 4752POPC   C1B62551  15.759  44.976   6.140
 4752POPC   C2B62552  15.876   0.240   6.467
 4752POPC   C3B62553  15.865   0.285   6.902
 4752POPC   C4B62554  15.608   0.014   7.181
 4753POPC   NC362555  43.950   9.395   5.469
 4753POPC   PO462556  44.216   9.972   5.235
 4753POPC   GL162557  44.177   9.992   5.730
 4753POPC   GL262558  44.299   9.645   5.778
 4753POPC   C1A62559  43.916  10.051   6.175
 4753POPC   D2A62560  43.665  10.129   6.585
 4753POPC   C3A62561  43.781   9.997   7.022
 4753POPC   C4A62562  43.551  10.033   7.451
 4753POPC   C1B62563  44.036   9.540   6.139
 4753POPC   C2B62564  43.890   9.657   6.572
 4753POPC   C3B62565  43.881   9.490   6.971
 4753POPC   C4B62566  44.114   9.431   7.317
 4754POPC   NC362567   8.587  22.782   5.178
 4754POPC   PO462568   8.065  22.559   5.230
 4754POPC   GL162569   8.218  22.747   5.669
 4754POPC   GL262570   8.102  23.080   5.802
 4754POPC   C1A62571   8.115  22.700   6.148
 4754POPC   D2A62572   7.904  22.922   6.488
 4754POPC   C3A62573   8.041  22.751   6.879
 4754POPC   C4A62574   7.825  22.760   7.258
 4754POPC   C1B62575   8.105  23.317   6.188
 4754POPC   C2B62576   8.271  23.252   6.619
 4754POPC   C3B62577   8.102  23.228   7.031
 4754POPC   C4B62578   8.273  23.308   7.394
 4755POPC   NC362579   9.333  24.987   5.429
 4755POPC   PO462580   9.914  24.668   5.489
 4755POPC   GL162581   9.637  24.485   5.766
 4755POPC   GL262582   9.300  24.608   5.760
 4755POPC   C1A62583   9.696  24.345   6.180
 4755POPC   D2A62584   9.913  24.344   6.573
 4755POPC   C3A62585   9.741  24.469   7.000
 4755POPC   C4A62586   9.916  24.246   7.357
 4755POPC   C1B62587   9.431  24.778   6.142
 4755POPC   C2B62588   9.474  24.626   6.562
 4755POPC   C3B62589   9.319  24.789   6.934
 4755POPC   C4B62590   9.351  24.667   7.383
 4756POPC   NC362591   5.439  11.942   5.522
 4756POPC   PO462592   5.028  12.478   5.380
 4756POPC   GL162593   4.959  12.109   5.666
 4756POPC   GL262594   5.227  12.267   5.842
 4756POPC   C1A62595   4.905  11.941   6.127
 4756POPC   D2A62596   5.065  11.745   6.549
 4756POPC   C3A62597   4.991  11.979   6.958
 4756POPC   C4A62598   5.124  12.050   7.435
 4756POPC   C1B62599   5.474  12.275   6.207
 4756POPC   C2B62600   5.367  12.151   6.598
 4756POPC   C3B62601   5.324  12.368   6.957
 4756POPC   C4B62602   5.536  12.339   7.319
 4757POPC   NC362603  22.307  13.166   5.459
 4757POPC   PO462604  22.554  12.634   5.622
 4757POPC   GL162605  22.341  12.899   5.902
 4757POPC   GL262606  22.077  12.699   6.039
 4757POPC   C1A62607  22.145  13.140   6.250
 4757POPC   D2A62608  21.924  12.899   6.574
 4757POPC   C3A62609  22.005  13.006   7.015
 4757POPC   C4A62610  22.373  13.027   7.293
 4757POPC   C1B62611  21.925  12.405   6.288
 4757POPC   C2B62612  21.752  12.414   6.701
 4757POPC   C3B62613  21.845  12.492   7.138
 4757POPC   C4B62614  21.709  12.500   7.598
 4758POPC   NC362615  33.595  37.073   5.456
 4758POPC   PO462616  33.077  36.554   5.473
 4758POPC   GL162617  33.068  36.724   5.888
 4758POPC   GL262618  33.285  37.014   5.870
 4758POPC   C1A62619  32.814  36.926   6.218
 4758POPC   D2A62620  32.937  37.091   6.605
 4758POPC   C3A62621  32.820  36.847   6.945
 4758POPC   C4A62622  33.163  36.738   7.199
 4758POPC   C1B62623  33.277  37.259   6.238
 4758POPC   C2B62624  33.396  37.325   6.680
 4758POPC   C3B62625  33.264  37.327   7.132
 4758POPC   C4B62626  33.267  37.430   7.585
 4759POPC   NC362627  15.660  42.379   5.587
 4759POPC   PO462628  16.051  41.906   5.281
 4759POPC   GL162629  16.211  42.117   5.724
 4759POPC   GL262630  15.987  42.299   5.983
 4759POPC   C1A62631  16.431  42.076   6.160
 4759POPC   D2A62632  16.513  41.930   6.598
 4759POPC   C3A62633  16.169  42.138   6.888
 4759POPC   C4A62634  16.257  42.410   7.238
 4759POPC   C1B62635  15.634  42.379   6.295
 4759POPC   C2B62636  15.538  42.385   6.751
 4759POPC   C3B62637  15.740  42.450   7.152
 4759POPC   C4B62638  15.805  42.312   7.567
 4760POPC   NC362639  30.855  13.467   5.377
 4760POPC   PO462640  30.728  14.079   5.375
 4760POPC   GL162641  30.681  13.757   5.756
 4760POPC   GL262642  30.819  13.417   5.905
 4760POPC   C1A62643  30.517  13.749   6.185
 4760POPC   D2A62644  30.370  13.476   6.500
 4760POPC   C3A62645  30.697  13.351   6.763
 4760POPC   C4A62646  30.702  13.467   7.200
 4760POPC   C1B62647  31.009  13.508   6.348
 4760POPC   C2B62648  31.110  13.730   6.764
 4760POPC   C3B62649  31.012  13.914   7.169
 4760POPC   C4B62650  31.001  13.773   7.588
 4761POPC   NC362651  38.321  31.295   5.307
 4761POPC   PO462652  38.337  30.659   5.145
 4761POPC   GL162653  38.372  30.804   5.601
 4761POPC   GL262654  38.659  30.875   5.764
 4761POPC   C1A62655  38.243  30.727   6.054
 4761POPC   D2A62656  38.128  30.450   6.438
 4761POPC   C3A62657  38.297  30.602   6.867
 4761POPC   C4A62658  38.333  30.676   7.335
 4761POPC   C1B62659  38.775  30.823   6.153
 4761POPC   C2B62660  38.747  30.661   6.547
 4761POPC   C3B62661  38.885  30.622   6.919
 4761POPC   C4B62662  38.755  30.912   7.183
 4762POPC   NC362663  24.311  36.930   5.502
 4762POPC   PO462664  24.888  36.600   5.398
 4762POPC   GL162665  24.713  36.805   5.802
 4762POPC   GL262666  24.765  37.132   5.913
 4762POPC   C1A62667  24.340  36.888   6.169
 4762POPC   D2A62668  24.099  36.590   6.488
 4762POPC   C3A62669  24.011  36.697   6.953
 4762POPC   C4A62670  24.235  36.733   7.373
 4762POPC   C1B62671  24.832  36.958   6.302
 4762POPC   C2B62672  24.717  37.034   6.729
 4762POPC   C3B62673  24.803  36.904   7.119
 4762POPC   C4B62674  24.723  37.300   7.256
 4763POPC   NC362675  32.827  29.601   5.478
 4763POPC   PO462676  32.702  30.264   5.444
 4763POPC   GL162677  32.340  30.076   5.689
 4763POPC   GL262678  32.349  29.721   5.788
 4763POPC   C1A62679  32.284  30.147   6.157
 4763POPC   D2A62680  32.308  30.347   6.599
 4763POPC   C3A62681  32.313  30.115   7.001
 4763POPC   C4A62682  32.194  30.040   7.441
 4763POPC   C1B62683  32.240  29.641   6.245
 4763POPC   C2B62684  32.313  29.682   6.721
 4763POPC   C3B62685  32.127  29.602   7.173
 4763POPC   C4B62686  32.132  29.597   7.663
 4764POPC   NC362687  13.838  16.856   5.354
 4764POPC   PO462688  13.258  17.130   5.584
 4764POPC   GL162689  13.488  16.818   5.798
 4764POPC   GL262690  13.814  16.649   5.802
 4764POPC   C1A62691  13.473  16.649   6.227
 4764POPC   D2A62692  13.302  16.730   6.648
 4764POPC   C3A62693  13.549  16.831   7.016
 4764POPC   C4A62694  13.413  17.161   7.318
 4764POPC   C1B62695  13.971  16.519   6.183
 4764POPC   C2B62696  13.801  16.423   6.587
 4764POPC   C3B62697  14.001  16.457   6.988
 4764POPC   C4B62698  13.971  16.695   7.338
 4765POPC   NC362699  32.529   1.304   5.616
 4765POPC   PO462700  33.117   1.385   5.371
 4765POPC   GL162701  33.058   1.408   5.786
 4765POPC   GL262702  32.943   1.075   5.793
 4765POPC   C1A62703  33.224   1.459   6.206
 4765POPC   D2A62704  32.954   1.470   6.588
 4765POPC   C3A62705  33.108   1.576   6.996
 4765POPC   C4A62706  33.024   1.467   7.433
 4765POPC   C1B62707  32.999   0.980   6.199
 4765POPC   C2B62708  33.281   1.072   6.537
 4765POPC   C3B62709  33.116   1.067   6.910
 4765POPC   C4B62710  33.233   0.851   7.246
 4766POPC   NC362711  33.474  43.380   5.419
 4766POPC   PO462712  33.090  42.813   5.349
 4766POPC   GL162713  33.017  43.005   5.767
 4766POPC   GL262714  33.207  43.340   5.858
 4766POPC   C1A62715  32.892  43.159   6.189
 4766POPC   D2A62716  33.009  43.038   6.584
 4766POPC   C3A62717  32.862  43.182   6.983
 4766POPC   C4A62718  32.942  43.033   7.427
 4766POPC   C1B62719  33.390  43.430   6.302
 4766POPC   C2B62720  33.332  43.431   6.767
 4766POPC   C3B62721  33.334  43.240   7.179
 4766POPC   C4B62722  33.304  43.362   7.641
 4767POPC   NC362723   8.636   0.420   5.271
 4767POPC   PO462724   9.175   0.849   5.270
 4767POPC   GL162725   8.941   0.662   5.636
 4767POPC   GL262726   8.781   0.366   5.757
 4767POPC   C1A62727   8.819   0.737   6.097
 4767POPC   D2A62728   9.062   0.684   6.462
 4767POPC   C3A62729   8.908   0.656   6.860
 4767POPC   C4A62730   9.267   0.492   7.052
 4767POPC   C1B62731   8.927   0.236   6.194
 4767POPC   C2B62732   8.998   0.120   6.642
 4767POPC   C3B62733   8.870   0.150   7.078
 4767POPC   C4B62734   8.830   0.089   7.531
 4768POPC   NC362735  32.850  35.114   5.399
 4768POPC   PO462736  33.042  35.676   5.480
 4768POPC   GL162737  32.947  35.398   5.806
 4768POPC   GL262738  33.251  35.264   5.774
 4768POPC   C1A62739  32.830  35.344   6.221
 4768POPC   D2A62740  32.837  35.606   6.590
 4768POPC   C3A62741  32.733  35.383   6.942
 4768POPC   C4A62742  32.826  35.326   7.354
 4768POPC   C1B62743  33.289  35.067   6.173
 4768POPC   C2B62744  33.408  35.144   6.605
 4768POPC   C3B62745  33.234  35.214   7.014
 4768POPC   C4B62746  33.230  35.004   7.414
 4769POPC   NC362747  36.482  41.740   5.472
 4769POPC   PO462748  35.928  41.372   5.438
 4769POPC   GL162749  36.140  41.305   5.803
 4769POPC   GL262750  36.484  41.300   5.872
 4769POPC   C1A62751  36.053  41.286   6.221
 4769POPC   D2A62752  35.925  41.387   6.635
 4769POPC   C3A62753  36.228  41.469   6.925
 4769POPC   C4A62754  36.183  41.600   7.332
 4769POPC   C1B62755  36.440  41.647   6.178
 4769POPC   C2B62756  36.593  41.689   6.608
 4769POPC   C3B62757  36.556  41.841   7.048
 4769POPC   C4B62758  36.641  41.649   7.497
 4770POPC   NC362759  14.663  42.396   5.662
 4770POPC   PO462760  14.007  42.225   5.418
 4770POPC   GL162761  14.163  42.255   5.828
 4770POPC   GL262762  14.216  41.925   5.875
 4770POPC   C1A62763  14.291  42.245   6.284
 4770POPC   D2A62764  13.998  42.415   6.574
 4770POPC   C3A62765  14.107  42.550   6.988
 4770POPC   C4A62766  14.100  42.617   7.405
 4770POPC   C1B62767  14.358  41.708   6.230
 4770POPC   C2B62768  14.505  41.844   6.594
 4770POPC   C3B62769  14.315  42.093   6.868
 4770POPC   C4B62770  14.288  42.151   7.268
 4771POPC   NC362771   6.366  27.574   5.042
 4771POPC   PO462772   5.784  27.896   5.359
 4771POPC   GL162773   5.989  27.605   5.688
 4771POPC   GL262774   6.345  27.503   5.606
 4771POPC   C1A62775   5.937  27.470   6.127
 4771POPC   D2A62776   5.770  27.601   6.564
 4771POPC   C3A62777   5.894  27.390   6.910
 4771POPC   C4A62778   5.794  27.482   7.327
 4771POPC   C1B62779   6.485  27.422   6.036
 4771POPC   C2B62780   6.318  27.197   6.411
 4771POPC   C3B62781   6.411  27.243   6.846
 4771POPC   C4B62782   6.288  27.410   7.245
 4772POPC   NC362783  22.649  44.492   5.440
 4772POPC   PO462784  23.228  44.709   5.287
 4772POPC   GL162785  23.071  44.555   5.746
 4772POPC   GL262786  22.758  44.336   5.892
 4772POPC   C1A62787  23.103  44.513   6.230
 4772POPC   D2A62788  23.049  44.671   6.674
 4772POPC   C3A62789  23.191  44.507   7.075
 4772POPC   C4A62790  23.500  44.851   7.150
 4772POPC   C1B62791  22.507  44.412   6.248
 4772POPC   C2B62792  22.601  44.439   6.677
 4772POPC   C3B62793  22.569  44.656   7.063
 4772POPC   C4B62794  22.745  44.696   7.495
 4773POPC   NC362795  35.065  21.601   5.637
 4773POPC   PO462796  35.678  21.714   5.308
 4773POPC   GL162797  35.614  21.529   5.752
 4773POPC   GL262798  35.381  21.244   5.808
 4773POPC   C1A62799  35.459  21.565   6.205
 4773POPC   D2A62800  35.116  21.653   6.515
 4773POPC   C3A62801  35.207  21.512   6.945
 4773POPC   C4A62802  35.346  21.163   7.209
 4773POPC   C1B62803  35.621  21.095   6.167
 4773POPC   C2B62804  35.865  21.268   6.482
 4773POPC   C3B62805  35.690  21.276   6.862
 4773POPC   C4B62806  35.855  21.158   7.242
 4774POPC   NC362807   2.869   8.478   5.415
 4774POPC   PO462808   2.653   7.907   5.676
 4774POPC   GL162809   2.549   8.123   5.942
 4774POPC   GL262810   2.541   8.451   5.806
 4774POPC   C1A62811   2.636   8.051   6.331
 4774POPC   D2A62812   2.871   8.023   6.649
 4774POPC   C3A62813   2.583   8.001   6.919
 4774POPC   C4A62814   2.777   7.857   7.239
 4774POPC   C1B62815   2.387   8.489   6.235
 4774POPC   C2B62816   2.540   8.438   6.633
 4774POPC   C3B62817   2.893   8.498   6.847
 4774POPC   C4B62818   2.795   8.353   7.236
 4775POPC   NC362819  35.647  22.184   5.471
 4775POPC   PO462820  36.288  22.491   5.464
 4775POPC   GL162821  36.207  22.198   5.800
 4775POPC   GL262822  35.877  22.166   5.944
 4775POPC   C1A62823  36.315  22.069   6.220
 4775POPC   D2A62824  36.088  22.120   6.616
 4775POPC   C3A62825  36.344  22.024   6.988
 4775POPC   C4A62826  36.180  22.048   7.418
 4775POPC   C1B62827  35.734  22.474   6.250
 4775POPC   C2B62828  35.636  22.429   6.694
 4775POPC   C3B62829  35.801  22.238   7.075
 4775POPC   C4B62830  35.778  22.361   7.506
 4776POPC   NC362831   8.684  33.725   5.386
 4776POPC   PO462832   8.792  34.312   5.633
 4776POPC   GL162833   8.941  34.042   5.935
 4776POPC   GL262834   9.290  34.117   5.992
 4776POPC   C1A62835   9.003  33.802   6.323
 4776POPC   D2A62836   8.699  33.661   6.650
 4776POPC   C3A62837   8.772  33.624   7.097
 4776POPC   C4A62838   8.769  33.933   7.447
 4776POPC   C1B62839   9.410  34.144   6.409
 4776POPC   C2B62840   9.341  33.930   6.749
 4776POPC   C3B62841   9.093  34.054   7.075
 4776POPC   C4B62842   9.059  34.362   7.379
 4777POPC   NC362843   2.959   1.747   5.375
 4777POPC   PO462844   2.950   2.403   5.470
 4777POPC   GL162845   2.801   2.074   5.744
 4777POPC   GL262846   2.499   1.920   5.611
 4777POPC   C1A62847   2.736   1.863   6.153
 4777POPC   D2A62848   2.861   1.939   6.585
 4777POPC   C3A62849   2.896   1.743   6.995
 4777POPC   C4A62850   2.966   1.841   7.430
 4777POPC   C1B62851   2.337   2.156   5.980
 4777POPC   C2B62852   2.330   2.066   6.441
 4777POPC   C3B62853   2.401   1.861   6.840
 4777POPC   C4B62854   2.484   1.938   7.266
 4778POPC   NC362855   9.925  39.183   5.389
 4778POPC   PO462856   9.340  39.295   5.658
 4778POPC   GL162857   9.748  39.424   5.864
 4778POPC   GL262858  10.138  39.473   5.831
 4778POPC   C1A62859   9.781  39.300   6.290
 4778POPC   D2A62860   9.584  39.057   6.623
 4778POPC   C3A62861   9.793  38.965   7.010
 4778POPC   C4A62862   9.459  38.892   7.291
 4778POPC   C1B62863  10.274  39.400   6.280
 4778POPC   C2B62864  10.072  39.316   6.717
 4778POPC   C3B62865  10.137  39.373   7.149
 4778POPC   C4B62866  10.249  39.451   7.573
 4779POPC   NC362867   2.665  11.581   5.477
 4779POPC   PO462868   3.013  11.135   5.111
 4779POPC   GL162869   2.692  11.084   5.600
 4779POPC   GL262870   2.381  11.233   5.753
 4779POPC   C1A62871   2.742  11.147   6.111
 4779POPC   D2A62872   2.660  11.347   6.523
 4779POPC   C3A62873   2.817  11.242   6.944
 4779POPC   C4A62874   2.603  11.400   7.345
 4779POPC   C1B62875   2.242  11.115   6.150
 4779POPC   C2B62876   2.297  10.979   6.561
 4779POPC   C3B62877   2.300  11.207   6.958
 4779POPC   C4B62878   2.197  11.062   7.370
 4780POPC   NC362879  12.325   4.366   5.480
 4780POPC   PO462880  11.733   4.082   5.320
 4780POPC   GL162881  11.899   4.064   5.768
 4780POPC   GL262882  11.851   4.409   5.861
 4780POPC   C1A62883  11.835   4.100   6.251
 4780POPC   D2A62884  11.839   4.347   6.637
 4780POPC   C3A62885  11.983   4.171   7.005
 4780POPC   C4A62886  12.322   4.160   7.263
 4780POPC   C1B62887  12.163   4.512   6.210
 4780POPC   C2B62888  12.231   4.717   6.630
 4780POPC   C3B62889  12.257   4.621   7.076
 4780POPC   C4B62890  12.116   4.511   7.547
 4781POPC   NC362891   5.542   9.489   5.458
 4781POPC   PO462892   6.220   9.619   5.569
 4781POPC   GL162893   5.826   9.711   5.826
 4781POPC   GL262894   5.691  10.062   5.887
 4781POPC   C1A62895   5.588   9.669   6.239
 4781POPC   D2A62896   5.643   9.373   6.603
 4781POPC   C3A62897   5.885   9.491   6.939
 4781POPC   C4A62898   5.626   9.813   7.080
 4781POPC   C1B62899   6.027   9.959   6.229
 4781POPC   C2B62900   6.098   9.997   6.699
 4781POPC   C3B62901   6.053  10.090   7.146
 4781POPC   C4B62902   5.772  10.076   7.520
 4782POPC   NC362903  23.696  15.696   5.515
 4782POPC   PO462904  23.393  16.281   5.761
 4782POPC   GL162905  23.376  15.852   5.863
 4782POPC   GL262906  23.723  15.809   6.033
 4782POPC   C1A62907  23.295  15.620   6.193
 4782POPC   D2A62908  23.540  15.756   6.579
 4782POPC   C3A62909  23.419  16.122   6.840
 4782POPC   C4A62910  23.469  16.203   7.312
 4782POPC   C1B62911  24.074  15.987   6.305
 4782POPC   C2B62912  24.178  16.156   6.719
 4782POPC   C3B62913  23.894  16.125   7.032
 4782POPC   C4B62914  23.617  15.750   7.136
 4783POPC   NC362915  13.073  24.032   5.490
 4783POPC   PO462916  12.717  23.580   5.323
 4783POPC   GL162917  12.869  23.616   5.741
 4783POPC   GL262918  12.646  23.896   5.829
 4783POPC   C1A62919  13.001  23.735   6.152
 4783POPC   D2A62920  12.727  23.836   6.470
 4783POPC   C3A62921  12.799  23.597   6.806
 4783POPC   C4A62922  13.061  23.638   7.139
 4783POPC   C1B62923  12.509  23.521   6.118
 4783POPC   C2B62924  12.415  23.323   6.535
 4783POPC   C3B62925  12.378  23.386   6.979
 4783POPC   C4B62926  12.547  23.690   7.247
 4784POPC   NC362927  21.571   4.595   5.317
 4784POPC   PO462928  21.096   5.061   5.512
 4784POPC   GL162929  21.365   5.003   5.837
 4784POPC   GL262930  21.348   4.656   5.814
 4784POPC   C1A62931  21.544   5.083   6.249
 4784POPC   D2A62932  21.408   5.292   6.637
 4784POPC   C3A62933  21.597   5.185   7.035
 4784POPC   C4A62934  21.589   4.820   7.292
 4784POPC   C1B62935  21.173   4.625   6.215
 4784POPC   C2B62936  21.256   4.796   6.590
 4784POPC   C3B62937  21.273   4.607   6.956
 4784POPC   C4B62938  21.054   4.606   7.330
 4785POPC   NC362939   8.147  25.540   5.114
 4785POPC   PO462940   7.942  24.975   5.481
 4785POPC   GL162941   8.116  25.131   5.820
 4785POPC   GL262942   8.262  25.428   5.698
 4785POPC   C1A62943   8.062  25.140   6.251
 4785POPC   D2A62944   8.173  25.342   6.612
 4785POPC   C3A62945   8.035  25.111   6.944
 4785POPC   C4A62946   8.199  24.957   7.329
 4785POPC   C1B62947   8.054  25.621   6.089
 4785POPC   C2B62948   7.803  25.710   6.498
 4785POPC   C3B62949   7.870  25.598   6.943
 4785POPC   C4B62950   8.213  25.470   7.246
 4786POPC   NC362951  20.116   1.264   5.223
 4786POPC   PO462952  20.734   1.089   5.355
 4786POPC   GL162953  20.394   1.065   5.658
 4786POPC   GL262954  20.304   1.413   5.686
 4786POPC   C1A62955  20.335   0.964   6.094
 4786POPC   D2A62956  20.445   1.146   6.487
 4786POPC   C3A62957  20.679   0.986   6.846
 4786POPC   C4A62958  20.690   1.158   7.251
 4786POPC   C1B62959  20.157   1.483   6.125
 4786POPC   C2B62960  20.149   1.554   6.584
 4786POPC   C3B62961  20.486   1.483   6.896
 4786POPC   C4B62962  20.628   1.654   7.295
 4787POPC   NC362963  33.148  27.858   5.432
 4787POPC   PO462964  33.429  27.288   5.476
 4787POPC   GL162965  33.218  27.551   5.868
 4787POPC   GL262966  32.975  27.875   5.896
 4787POPC   C1A62967  33.036  27.569   6.321
 4787POPC   D2A62968  32.738  27.378   6.646
 4787POPC   C3A62969  32.907  27.334   7.057
 4787POPC   C4A62970  32.907  27.448   7.482
 4787POPC   C1B62971  32.951  28.142   6.264
 4787POPC   C2B62972  32.844  27.950   6.684
 4787POPC   C3B62973  32.892  27.860   7.141
 4787POPC   C4B62974  32.846  28.033   7.578
 4788POPC   NC362975  13.157  10.733   5.352
 4788POPC   PO462976  13.704  10.277   5.426
 4788POPC   GL162977  13.678  10.499   5.808
 4788POPC   GL262978  13.435  10.740   5.796
 4788POPC   C1A62979  13.530  10.413   6.239
 4788POPC   D2A62980  13.553  10.142   6.606
 4788POPC   C3A62981  13.447  10.382   6.965
 4788POPC   C4A62982  13.762  10.602   7.176
 4788POPC   C1B62983  13.547  10.941   6.192
 4788POPC   C2B62984  13.453  10.826   6.600
 4788POPC   C3B62985  13.303  11.104   6.877
 4788POPC   C4B62986  13.433  11.006   7.271
 4789POPC   NC362987  19.674   5.465   5.356
 4789POPC   PO462988  19.979   6.076   5.069
 4789POPC   GL162989  19.923   5.937   5.526
 4789POPC   GL262990  20.230   5.835   5.709
 4789POPC   C1A62991  19.884   5.992   6.028
 4789POPC   D2A62992  20.169   6.089   6.400
 4789POPC   C3A62993  20.070   6.100   6.861
 4789POPC   C4A62994  20.169   6.230   7.282
 4789POPC   C1B62995  20.275   5.636   6.171
 4789POPC   C2B62996  20.127   5.628   6.642
 4789POPC   C3B62997  20.266   5.610   7.095
 4789POPC   C4B62998  20.186   5.584   7.557
 4790POPC   NC362999  36.844   4.686   5.483
 4790POPC   PO463000  37.295   4.179   5.374
 4790POPC   GL163001  37.184   4.353   5.752
 4790POPC   GL263002  36.818   4.337   5.874
 4790POPC   C1A63003  37.212   4.411   6.193
 4790POPC   D2A63004  36.937   4.562   6.507
 4790POPC   C3A63005  36.974   4.310   6.872
 4790POPC   C4A63006  37.191   4.335   7.254
 4790POPC   C1B63007  36.831   4.064   6.296
 4790POPC   C2B63008  36.842   3.824   6.710
 4790POPC   C3B63009  36.865   3.901   7.162
 4790POPC   C4B63010  36.783   4.178   7.514
 4791POPC   NC363011  23.160  28.353   5.472
 4791POPC   PO463012  22.520  28.612   5.386
 4791POPC   GL163013  22.768  28.544   5.737
 4791POPC   GL263014  22.692  28.194   5.744
 4791POPC   C1A63015  23.013  28.363   6.136
 4791POPC   D2A63016  23.244  28.302   6.553
 4791POPC   C3A63017  23.015  28.361   6.964
 4791POPC   C4A63018  22.738  28.405   7.323
 4791POPC   C1B63019  22.573  27.963   6.127
 4791POPC   C2B63020  22.678  27.788   6.534
 4791POPC   C3B63021  22.661  27.991   6.924
 4791POPC   C4B63022  22.383  28.050   7.232
 4792POPC   NC363023   8.804  11.946   5.487
 4792POPC   PO463024   8.751  12.582   5.409
 4792POPC   GL163025   8.904  12.461   5.827
 4792POPC   GL263026   8.586  12.331   5.836
 4792POPC   C1A63027   9.179  12.228   6.151
 4792POPC   D2A63028   9.105  11.878   6.447
 4792POPC   C3A63029   9.053  12.033   6.838
 4792POPC   C4A63030   9.127  12.328   7.161
 4792POPC   C1B63031   8.702  12.052   6.159
 4792POPC   C2B63032   8.579  11.933   6.562
 4792POPC   C3B63033   8.665  11.721   6.920
 4792POPC   C4B63034   8.794  11.937   7.255
 4793POPC   NC363035  23.944  11.792   5.358
 4793POPC   PO463036  23.418  12.135   5.574
 4793POPC   GL163037  23.685  11.951   5.900
 4793POPC   GL263038  23.858  11.632   5.855
 4793POPC   C1A63039  23.651  12.094   6.324
 4793POPC   D2A63040  23.852  11.997   6.718
 4793POPC   C3A63041  23.876  12.338   6.974
 4793POPC   C4A63042  23.724  12.397   7.371
 4793POPC   C1B63043  23.940  11.654   6.328
 4793POPC   C2B63044  24.127  11.526   6.732
 4793POPC   C3B63045  23.973  11.542   7.148
 4793POPC   C4B63046  23.811  11.922   7.239
 4794POPC   NC363047  22.646   5.398   5.106
 4794POPC   PO463048  22.230   5.010   5.569
 4794POPC   GL163049  22.170   5.203   5.933
 4794POPC   GL263050  22.405   5.031   6.120
 4794POPC   C1A63051  21.991   5.363   6.285
 4794POPC   D2A63052  21.883   5.470   6.673
 4794POPC   C3A63053  22.154   5.282   6.940
 4794POPC   C4A63054  22.017   5.185   7.342
 4794POPC   C1B63055  22.016   4.828   6.259
 4794POPC   C2B63056  21.834   4.933   6.646
 4794POPC   C3B63057  22.019   4.790   7.005
 4794POPC   C4B63058  22.083   4.688   7.409
 4795POPC   NC363059  35.785  27.275   5.192
 4795POPC   PO463060  36.355  27.536   5.387
 4795POPC   GL163061  36.028  27.610   5.702
 4795POPC   GL263062  36.278  27.629   5.940
 4795POPC   C1A63063  35.812  27.725   6.116
 4795POPC   D2A63064  35.650  27.525   6.495
 4795POPC   C3A63065  35.822  27.573   6.933
 4795POPC   C4A63066  36.123  27.609   7.261
 4795POPC   C1B63067  36.202  27.507   6.390
 4795POPC   C2B63068  36.350  27.471   6.808
 4795POPC   C3B63069  36.607  27.442   7.158
 4795POPC   C4B63070  36.471  27.242   7.514
 4796POPC   NC363071  18.079  19.425   5.467
 4796POPC   PO463072  17.558  19.631   5.553
 4796POPC   GL163073  17.304  19.730   5.965
 4796POPC   GL263074  17.237  20.073   5.896
 4796POPC   C1A63075  17.284  19.761   6.467
 4796POPC   D2A63076  17.323  19.793   6.952
 4796POPC   C3A63077  17.776  19.921   7.098
 4796POPC   C4A63078  18.075  19.838   7.465
 4796POPC   C1B63079  17.111  20.219   6.320
 4796POPC   C2B63080  17.309  20.264   6.751
 4796POPC   C3B63081  17.267  20.291   7.218
 4796POPC   C4B63082  17.283  20.294   7.699
 4797POPC   NC363083   6.899  39.347   5.619
 4797POPC   PO463084   6.353  38.966   5.484
 4797POPC   GL163085   6.441  39.223   5.849
 4797POPC   GL263086   6.250  39.532   5.957
 4797POPC   C1A63087   6.521  39.040   6.256
 4797POPC   D2A63088   6.646  38.694   6.513
 4797POPC   C3A63089   6.617  38.825   6.904
 4797POPC   C4A63090   6.633  39.090   7.237
 4797POPC   C1B63091   6.643  39.540   6.209
 4797POPC   C2B63092   6.796  39.359   6.577
 4797POPC   C3B63093   6.695  39.529   6.971
 4797POPC   C4B63094   6.327  39.494   7.194
 4798POPC   NC363095   9.436  20.997   5.232
 4798POPC   PO463096   8.860  21.447   5.362
 4798POPC   GL163097   9.043  21.412   5.771
 4798POPC   GL263098   9.324  21.153   5.780
 4798POPC   C1A63099   9.077  21.500   6.218
 4798POPC   D2A63100   8.944  21.345   6.622
 4798POPC   C3A63101   8.822  21.495   7.007
 4798POPC   C4A63102   9.045  21.608   7.341
 4798POPC   C1B63103   9.497  21.194   6.195
 4798POPC   C2B63104   9.400  21.101   6.622
 4798POPC   C3B63105   9.324  21.300   7.000
 4798POPC   C4B63106   9.267  21.167   7.398
 4799POPC   NC363107  10.649  44.857   5.213
 4799POPC   PO463108  11.305  44.589   5.474
 4799POPC   GL163109  11.311  44.620   5.927
 4799POPC   GL263110  11.001  44.729   6.036
 4799POPC   C1A63111  11.386  44.909   6.294
 4799POPC   D2A63112  11.163   0.007   6.691
 4799POPC   C3A63113  11.470  44.969   6.969
 4799POPC   C4A63114  11.570  44.655   7.243
 4799POPC   C1B63115  11.121  44.529   6.430
 4799POPC   C2B63116  11.479  44.544   6.699
 4799POPC   C3B63117  11.144  44.546   6.989
 4799POPC   C4B63118  10.793  44.833   7.032
 4800POPC   NC363119  33.500  44.922   5.431
 4800POPC   PO463120  34.026  44.474   5.342
 4800POPC   GL163121  33.909  44.633   5.728
 4800POPC   GL263122  33.883   0.023   5.763
 4800POPC   C1A63123  33.953  44.483   6.152
 4800POPC   D2A63124  34.093  44.697   6.530
 4800POPC   C3A63125  33.874  44.592   6.915
 4800POPC   C4A63126  33.795  44.308   7.261
 4800POPC   C1B63127  33.775  44.977   6.198
 4800POPC   C2B63128  33.641   0.160   6.569
 4800POPC   C3B63129  33.580   0.026   6.985
 4800POPC   C4B63130  33.672  44.775   7.381
 4801POPC   NC363131  31.376  33.196   5.280
 4801POPC   PO463132  31.787  32.702   5.215
 4801POPC   GL163133  31.726  33.001   5.620
 4801POPC   GL263134  31.348  33.013   5.739
 4801POPC   C1A63135  31.679  33.189   6.059
 4801POPC   D2A63136  31.447  33.179   6.452
 4801POPC   C3A63137  31.722  33.185   6.801
 4801POPC   C4A63138  31.683  32.914   7.127
 4801POPC   C1B63139  31.281  32.797   6.132
 4801POPC   C2B63140  31.138  32.757   6.560
 4801POPC   C3B63141  31.186  32.818   6.987
 4801POPC   C4B63142  31.378  32.485   7.214
 4802POPC   NC363143  18.615   2.503   5.393
 4802POPC   PO463144  17.938   2.652   5.393
 4802POPC   GL163145  18.245   2.717   5.670
 4802POPC   GL263146  18.365   2.403   5.829
 4802POPC   C1A63147  18.416   2.878   6.023
 4802POPC   D2A63148  18.389   2.674   6.378
 4802POPC   C3A63149  18.402   2.771   6.811
 4802POPC   C4A63150  18.408   2.677   7.223
 4802POPC   C1B63151  18.027   2.452   6.091
 4802POPC   C2B63152  18.001   2.428   6.543
 4802POPC   C3B63153  17.955   2.524   6.977
 4802POPC   C4B63154  17.732   2.218   7.153
 4803POPC   NC363155  31.933  19.434   5.545
 4803POPC   PO463156  32.059  18.670   5.475
 4803POPC   GL163157  32.231  18.900   5.863
 4803POPC   GL263158  32.147  19.249   5.962
 4803POPC   C1A63159  32.408  19.031   6.306
 4803POPC   D2A63160  32.623  19.158   6.690
 4803POPC   C3A63161  32.416  19.010   7.046
 4803POPC   C4A63162  31.990  19.005   7.120
 4803POPC   C1B63163  31.806  19.275   6.216
 4803POPC   C2B63164  31.676  19.296   6.639
 4803POPC   C3B63165  31.816  19.471   7.025
 4803POPC   C4B63166  32.098  19.464   7.369
 4804POPC   NC363167   1.484  26.602   5.232
 4804POPC   PO463168   0.983  26.830   5.591
 4804POPC   GL163169   1.384  26.926   5.728
 4804POPC   GL263170   1.492  26.625   5.843
 4804POPC   C1A63171   1.310  26.965   6.173
 4804POPC   D2A63172   1.074  27.122   6.514
 4804POPC   C3A63173   1.259  27.249   6.895
 4804POPC   C4A63174   1.162  26.974   7.242
 4804POPC   C1B63175   1.693  26.562   6.204
 4804POPC   C2B63176   1.480  26.649   6.588
 4804POPC   C3B63177   1.598  26.589   7.001
 4804POPC   C4B63178   1.489  26.605   7.418
 4805POPC   NC363179  20.329  34.702   5.164
 4805POPC   PO463180  20.902  34.723   5.537
 4805POPC   GL163181  20.872  34.525   5.914
 4805POPC   GL263182  20.678  34.307   5.909
 4805POPC   C1A63183  20.909  34.342   6.351
 4805POPC   D2A63184  20.751  34.688   6.620
 4805POPC   C3A63185  20.891  34.717   7.021
 4805POPC   C4A63186  20.736  34.894   7.393
 4805POPC   C1B63187  20.432  34.479   6.249
 4805POPC   C2B63188  20.412  34.310   6.611
 4805POPC   C3B63189  20.423  34.510   6.982
 4805POPC   C4B63190  20.574  34.411   7.373
 4806POPC   NC363191  38.383  17.589   5.452
 4806POPC   PO463192  38.468  18.157   5.646
 4806POPC   GL163193  38.198  17.856   5.887
 4806POPC   GL263194  38.264  17.486   5.947
 4806POPC   C1A63195  38.198  17.773   6.362
 4806POPC   D2A63196  38.471  17.610   6.709
 4806POPC   C3A63197  38.375  17.584   7.155
 4806POPC   C4A63198  38.346  17.881   7.468
 4806POPC   C1B63199  38.265  17.257   6.377
 4806POPC   C2B63200  38.339  17.135   6.836
 4806POPC   C3B63201  38.724  17.202   7.101
 4806POPC   C4B63202  38.830  17.562   7.374
 4807POPC   NC363203  14.924  32.449   5.320
 4807POPC   PO463204  15.250  31.826   5.365
 4807POPC   GL163205  15.179  32.059   5.779
 4807POPC   GL263206  15.168  32.437   5.769
 4807POPC   C1A63207  15.203  32.243   6.226
 4807POPC   D2A63208  15.346  32.559   6.502
 4807POPC   C3A63209  15.332  32.328   6.864
 4807POPC   C4A63210  15.285  32.273   7.289
 4807POPC   C1B63211  14.818  32.548   6.061
 4807POPC   C2B63212  14.858  32.699   6.497
 4807POPC   C3B63213  14.863  32.534   6.919
 4807POPC   C4B63214  14.698  32.523   7.335
 4808POPC   NC363215   8.590  10.300   5.480
 4808POPC   PO463216   9.184  10.659   5.403
 4808POPC   GL163217   8.901  10.651   5.777
 4808POPC   GL263218   8.679  10.959   5.827
 4808POPC   C1A63219   8.994  10.493   6.174
 4808POPC   D2A63220   9.060  10.214   6.486
 4808POPC   C3A63221   9.250  10.320   6.883
 4808POPC   C4A63222   9.021  10.533   7.173
 4808POPC   C1B63223   8.551  10.746   6.200
 4808POPC   C2B63224   8.711  10.684   6.607
 4808POPC   C3B63225   8.554  10.666   7.020
 4808POPC   C4B63226   8.726  10.913   7.350
 4809POPC   NC363227  20.131  37.068   5.426
 4809POPC   PO463228  19.647  36.603   5.359
 4809POPC   GL163229  19.549  36.954   5.665
 4809POPC   GL263230  19.425  36.720   5.936
 4809POPC   C1A63231  19.704  37.117   6.097
 4809POPC   D2A63232  19.967  37.025   6.500
 4809POPC   C3A63233  19.781  37.030   6.940
 4809POPC   C4A63234  20.035  37.209   7.262
 4809POPC   C1B63235  19.729  36.619   6.298
 4809POPC   C2B63236  19.893  36.568   6.766
 4809POPC   C3B63237  19.823  36.574   7.240
 4809POPC   C4B63238  19.674  36.535   7.712
 4810POPC   NC363239  24.920  37.123   5.384
 4810POPC   PO463240  25.456  36.642   5.307
 4810POPC   GL163241  25.555  36.886   5.751
 4810POPC   GL263242  25.239  37.057   5.780
 4810POPC   C1A63243  25.357  36.853   6.228
 4810POPC   D2A63244  25.143  36.662   6.598
 4810POPC   C3A63245  25.353  36.816   6.970
 4810POPC   C4A63246  25.525  36.659   7.365
 4810POPC   C1B63247  25.176  37.328   6.176
 4810POPC   C2B63248  25.179  37.195   6.615
 4810POPC   C3B63249  25.191  37.284   7.057
 4810POPC   C4B63250  25.128  37.109   7.499
 4811POPC   NC363251   2.334   0.147   5.447
 4811POPC   PO463252   2.910   0.536   5.337
 4811POPC   GL163253   2.658   0.490   5.725
 4811POPC   GL263254   2.630   0.157   5.874
 4811POPC   C1A63255   2.785   0.554   6.163
 4811POPC   D2A63256   2.669   0.561   6.587
 4811POPC   C3A63257   2.948   0.671   6.917
 4811POPC   C4A63258   3.067   0.373   7.199
 4811POPC   C1B63259   2.370   0.056   6.246
 4811POPC   C2B63260   2.324   0.203   6.666
 4811POPC   C3B63261   2.609   0.230   7.020
 4811POPC   C4B63262   2.719   0.049   7.418
 4812POPC   NC363263  34.433   3.655   5.336
 4812POPC   PO463264  35.127   3.777   5.296
 4812POPC   GL163265  34.843   3.751   5.653
 4812POPC   GL263266  34.621   3.468   5.790
 4812POPC   C1A63267  34.868   3.785   6.109
 4812POPC   D2A63268  34.937   3.799   6.552
 4812POPC   C3A63269  34.594   3.780   6.850
 4812POPC   C4A63270  34.687   3.703   7.289
 4812POPC   C1B63271  34.460   3.388   6.232
 4812POPC   C2B63272  34.617   3.252   6.673
 4812POPC   C3B63273  34.465   3.242   7.136
 4812POPC   C4B63274  34.126   3.166   7.481
 4813POPC   NC363275   2.910  43.350   5.519
 4813POPC   PO463276   2.515  42.903   5.259
 4813POPC   GL163277   2.660  42.893   5.685
 4813POPC   GL263278   3.014  42.931   5.771
 4813POPC   C1A63279   2.524  43.032   6.095
 4813POPC   D2A63280   2.594  43.317   6.436
 4813POPC   C3A63281   2.471  43.232   6.840
 4813POPC   C4A63282   2.663  43.213   7.256
 4813POPC   C1B63283   3.027  43.123   6.190
 4813POPC   C2B63284   3.150  42.988   6.602
 4813POPC   C3B63285   3.149  42.887   7.019
 4813POPC   C4B63286   3.165  43.170   7.328
 4814POPC   NC363287  32.832  44.179   5.476
 4814POPC   PO463288  33.296  43.791   5.310
 4814POPC   GL163289  33.278  43.866   5.756
 4814POPC   GL263290  33.253  44.205   5.794
 4814POPC   C1A63291  33.042  43.776   6.159
 4814POPC   D2A63292  32.818  43.538   6.524
 4814POPC   C3A63293  32.899  43.692   6.932
 4814POPC   C4A63294  32.871  43.537   7.362
 4814POPC   C1B63295  33.022  44.312   6.144
 4814POPC   C2B63296  33.091  44.296   6.580
 4814POPC   C3B63297  32.900  44.351   6.974
 4814POPC   C4B63298  32.909  44.063   7.289
 4815POPC   NC363299   4.532  43.340   5.458
 4815POPC   PO463300   4.388  42.777   5.485
 4815POPC   GL163301   4.277  43.017   5.818
 4815POPC   GL263302   4.023  42.810   5.967
 4815POPC   C1A63303   4.532  43.107   6.169
 4815POPC   D2A63304   4.523  43.265   6.585
 4815POPC   C3A63305   4.480  43.109   7.004
 4815POPC   C4A63306   4.372  43.213   7.453
 4815POPC   C1B63307   4.248  42.644   6.314
 4815POPC   C2B63308   4.287  42.636   6.782
 4815POPC   C3B63309   4.081  42.810   7.137
 4815POPC   C4B63310   4.022  42.870   7.573
 4816POPC   NC363311   2.572   5.719   5.559
 4816POPC   PO463312   2.380   6.261   5.156
 4816POPC   GL163313   2.528   6.254   5.642
 4816POPC   GL263314   2.277   6.092   5.843
 4816POPC   C1A63315   2.751   6.108   6.081
 4816POPC   D2A63316   2.871   6.185   6.558
 4816POPC   C3A63317   2.821   5.903   6.982
 4816POPC   C4A63318   2.640   5.949   7.417
 4816POPC   C1B63319   2.291   6.191   6.295
 4816POPC   C2B63320   2.424   5.956   6.666
 4816POPC   C3B63321   2.360   5.641   6.995
 4816POPC   C4B63322   2.303   5.568   7.415
 4817POPC   NC363323  25.879  16.833   5.427
 4817POPC   PO463324  26.349  16.302   5.407
 4817POPC   GL163325  26.013  16.415   5.721
 4817POPC   GL263326  26.133  16.738   5.858
 4817POPC   C1A63327  25.679  16.416   6.058
 4817POPC   D2A63328  25.499  16.607   6.432
 4817POPC   C3A63329  25.625  16.467   6.844
 4817POPC   C4A63330  25.812  16.754   7.145
 4817POPC   C1B63331  25.839  16.903   6.166
 4817POPC   C2B63332  25.896  16.896   6.624
 4817POPC   C3B63333  26.260  16.921   6.929
 4817POPC   C4B63334  26.349  16.706   7.345
 4818POPC   NC363335  37.564  13.019   5.136
 4818POPC   PO463336  37.848  12.735   5.676
 4818POPC   GL163337  37.495  12.807   5.975
 4818POPC   GL263338  37.328  13.146   6.009
 4818POPC   C1A63339  37.566  12.668   6.411
 4818POPC   D2A63340  37.787  12.571   6.826
 4818POPC   C3A63341  37.542  12.742   7.165
 4818POPC   C4A63342  37.496  12.645   7.609
 4818POPC   C1B63343  37.577  13.185   6.340
 4818POPC   C2B63344  37.743  13.070   6.703
 4818POPC   C3B63345  37.787  13.198   7.087
 4818POPC   C4B63346  37.691  13.103   7.492
 4819POPC   NC363347  38.756  31.681   5.623
 4819POPC   PO463348  38.153  31.768   5.332
 4819POPC   GL163349  38.162  31.575   5.733
 4819POPC   GL263350  38.411  31.319   5.817
 4819POPC   C1A63351  38.248  31.660   6.177
 4819POPC   D2A63352  38.149  31.483   6.594
 4819POPC   C3A63353  38.387  31.699   6.868
 4819POPC   C4A63354  38.524  31.739   7.266
 4819POPC   C1B63355  38.469  31.200   6.283
 4819POPC   C2B63356  38.492  31.101   6.751
 4819POPC   C3B63357  38.396  31.249   7.188
 4819POPC   C4B63358  38.555  31.109   7.617
 4820POPC   NC363359  43.275  40.727   5.371
 4820POPC   PO463360  42.743  41.206   5.542
 4820POPC   GL163361  43.000  40.939   5.743
 4820POPC   GL263362  43.259  41.141   5.680
 4820POPC   C1A63363  43.078  40.652   6.077
 4820POPC   D2A63364  43.140  40.709   6.514
 4820POPC   C3A63365  43.330  40.490   6.855
 4820POPC   C4A63366  43.284  40.623   7.299
 4820POPC   C1B63367  43.315  41.107   6.118
 4820POPC   C2B63368  43.310  41.202   6.553
 4820POPC   C3B63369  43.256  41.015   6.941
 4820POPC   C4B63370  43.158  41.084   7.370
 4821POPC   NC363371  15.907  15.428   5.605
 4821POPC   PO463372  15.543  14.980   5.146
 4821POPC   GL163373  15.533  15.057   5.644
 4821POPC   GL263374  15.867  14.940   5.815
 4821POPC   C1A63375  15.540  15.195   6.130
 4821POPC   D2A63376  15.726  15.342   6.568
 4821POPC   C3A63377  15.667  15.167   6.977
 4821POPC   C4A63378  15.704  15.377   7.389
 4821POPC   C1B63379  16.059  15.165   6.208
 4821POPC   C2B63380  16.218  15.192   6.651
 4821POPC   C3B63381  16.143  15.269   7.113
 4821POPC   C4B63382  16.000  14.976   7.467
 4822POPC   NC363383  11.378  37.522   5.342
 4822POPC   PO463384  11.667  38.108   5.601
 4822POPC   GL163385  11.455  37.765   5.804
 4822POPC   GL263386  11.093  37.693   5.730
 4822POPC   C1A63387  11.462  37.487   6.166
 4822POPC   D2A63388  11.493  37.585   6.616
 4822POPC   C3A63389  11.155  37.537   6.929
 4822POPC   C4A63390  11.356  37.422   7.291
 4822POPC   C1B63391  11.066  37.859   6.129
 4822POPC   C2B63392  11.057  37.881   6.565
 4822POPC   C3B63393  10.972  38.030   7.002
 4822POPC   C4B63394  10.944  37.833   7.378
 4823POPC   NC363395   3.448  24.780   5.434
 4823POPC   PO463396   3.693  24.130   5.415
 4823POPC   GL163397   3.654  24.417   5.797
 4823POPC   GL263398   3.309  24.537   5.843
 4823POPC   C1A63399   3.643  24.651   6.228
 4823POPC   D2A63400   3.796  24.937   6.583
 4823POPC   C3A63401   3.816  24.682   6.995
 4823POPC   C4A63402   3.663  24.261   7.231
 4823POPC   C1B63403   3.074  24.642   6.203
 4823POPC   C2B63404   3.127  24.425   6.565
 4823POPC   C3B63405   3.350  24.491   6.900
 4823POPC   C4B63406   3.220  24.496   7.288
 4824POPC   NC363407  25.414  43.685   5.099
 4824POPC   PO463408  24.955  43.971   5.331
 4824POPC   GL163409  24.912  43.625   5.667
 4824POPC   GL263410  25.270  43.616   5.812
 4824POPC   C1A63411  24.889  43.583   6.147
 4824POPC   D2A63412  24.761  43.769   6.574
 4824POPC   C3A63413  25.030  43.698   6.952
 4824POPC   C4A63414  25.175  43.929   7.326
 4824POPC   C1B63415  25.373  43.756   6.269
 4824POPC   C2B63416  25.429  43.902   6.709
 4824POPC   C3B63417  25.593  43.746   7.113
 4824POPC   C4B63418  25.667  43.884   7.574
 4825POPC   NC363419   0.365   7.380   5.272
 4825POPC   PO463420   0.076   7.638   5.719
 4825POPC   GL163421   0.242   7.265   5.860
 4825POPC   GL263422   0.581   7.229   5.749
 4825POPC   C1A63423   0.281   7.391   6.281
 4825POPC   D2A63424   0.286   7.680   6.585
 4825POPC   C3A63425   0.362   7.454   6.922
 4825POPC   C4A63426   0.206   7.447   7.286
 4825POPC   C1B63427   0.615   7.036   6.161
 4825POPC   C2B63428   0.636   7.187   6.583
 4825POPC   C3B63429   0.839   7.209   6.971
 4825POPC   C4B63430   0.589   7.122   7.334
 4826POPC   NC363431   5.360  17.953   5.360
 4826POPC   PO463432   5.103  17.308   5.604
 4826POPC   GL163433   5.160  17.602   5.928
 4826POPC   GL263434   5.305  17.925   5.854
 4826POPC   C1A63435   5.044  17.561   6.337
 4826POPC   D2A63436   5.171  17.638   6.758
 4826POPC   C3A63437   4.822  17.596   6.996
 4826POPC   C4A63438   4.700  17.207   7.197
 4826POPC   C1B63439   5.541  17.904   6.237
 4826POPC   C2B63440   5.637  17.837   6.683
 4826POPC   C3B63441   5.514  17.773   7.125
 4826POPC   C4B63442   5.245  17.388   7.222
 4827POPC   NC363443  15.259  20.208   5.309
 4827POPC   PO463444  14.908  20.640   5.526
 4827POPC   GL163445  15.108  20.707   5.888
 4827POPC   GL263446  15.430  20.826   5.828
 4827POPC   C1A63447  14.990  20.672   6.296
 4827POPC   D2A63448  15.193  20.829   6.645
 4827POPC   C3A63449  14.996  20.750   6.984
 4827POPC   C4A63450  15.058  20.642   7.376
 4827POPC   C1B63451  15.523  20.695   6.264
 4827POPC   C2B63452  15.584  20.520   6.693
 4827POPC   C3B63453  15.492  20.547   7.140
 4827POPC   C4B63454  15.550  20.328   7.538
 4828POPC   NC363455  37.473  39.587   5.624
 4828POPC   PO463456  37.786  39.153   5.210
 4828POPC   GL163457  37.897  39.348   5.689
 4828POPC   GL263458  37.646  39.184   5.918
 4828POPC   C1A63459  38.036  39.368   6.172
 4828POPC   D2A63460  37.904  39.061   6.538
 4828POPC   C3A63461  37.962  39.016   7.022
 4828POPC   C4A63462  37.784  38.890   7.436
 4828POPC   C1B63463  37.374  39.361   6.218
 4828POPC   C2B63464  37.306  39.554   6.574
 4828POPC   C3B63465  37.601  39.389   6.862
 4828POPC   C4B63466  37.444  39.045   7.105
 4829POPC   NC363467   8.934   2.914   5.428
 4829POPC   PO463468   8.924   2.322   5.361
 4829POPC   GL163469   8.774   2.529   5.753
 4829POPC   GL263470   9.101   2.613   5.855
 4829POPC   C1A63471   8.775   2.692   6.233
 4829POPC   D2A63472   9.016   2.538   6.623
 4829POPC   C3A63473   9.018   2.739   7.047
 4829POPC   C4A63474   8.835   2.972   7.446
 4829POPC   C1B63475   9.292   2.757   6.254
 4829POPC   C2B63476   9.209   3.026   6.635
 4829POPC   C3B63477   9.333   3.143   7.087
 4829POPC   C4B63478   9.709   3.209   7.359
 4830POPC   NC363479  39.400   4.151   5.219
 4830POPC   PO463480  38.943   4.598   5.526
 4830POPC   GL163481  39.111   4.268   5.833
 4830POPC   GL263482  39.470   4.206   5.731
 4830POPC   C1A63483  39.096   4.223   6.310
 4830POPC   D2A63484  39.303   4.532   6.602
 4830POPC   C3A63485  39.364   4.523   7.059
 4830POPC   C4A63486  39.052   4.447   7.438
 4830POPC   C1B63487  39.576   4.256   6.177
 4830POPC   C2B63488  39.542   3.990   6.561
 4830POPC   C3B63489  39.554   4.010   7.021
 4830POPC   C4B63490  39.491   4.215   7.425
 4831POPC   NC363491   0.470  32.179   5.520
 4831POPC   PO463492   0.211  31.720   5.287
 4831POPC   GL163493   0.241  31.845   5.824
 4831POPC   GL263494   0.568  32.013   5.997
 4831POPC   C1A63495   0.175  32.188   6.223
 4831POPC   D2A63496  44.989  32.380   6.638
 4831POPC   C3A63497   0.167  32.364   7.096
 4831POPC   C4A63498   0.107  32.518   7.570
 4831POPC   C1B63499   0.612  32.028   6.440
 4831POPC   C2B63500   0.515  32.428   6.591
 4831POPC   C3B63501   0.631  32.564   6.969
 4831POPC   C4B63502   0.668  32.175   7.152
 4832POPC   NC363503   8.071  37.078   5.126
 4832POPC   PO463504   8.461  37.604   5.416
 4832POPC   GL163505   8.326  37.628   5.843
 4832POPC   GL263506   8.307  37.293   6.006
 4832POPC   C1A63507   8.310  37.809   6.262
 4832POPC   D2A63508   8.526  37.715   6.645
 4832POPC   C3A63509   8.296  37.904   6.968
 4832POPC   C4A63510   8.024  38.192   7.130
 4832POPC   C1B63511   7.927  37.456   6.251
 4832POPC   C2B63512   7.982  37.615   6.666
 4832POPC   C3B63513   8.152  37.388   7.026
 4832POPC   C4B63514   8.470  37.080   7.156
 4833POPC   NC363515  22.964  16.394   5.615
 4833POPC   PO463516  22.605  15.974   5.251
 4833POPC   GL163517  22.840  15.905   5.745
 4833POPC   GL263518  22.970  16.119   6.011
 4833POPC   C1A63519  22.784  15.722   6.225
 4833POPC   D2A63520  23.046  15.607   6.613
 4833POPC   C3A63521  23.045  15.774   7.021
 4833POPC   C4A63522  23.151  15.791   7.421
 4833POPC   C1B63523  23.120  16.079   6.409
 4833POPC   C2B63524  22.769  16.023   6.672
 4833POPC   C3B63525  22.569  16.096   7.065
 4833POPC   C4B63526  22.753  16.089   7.465
 4834POPC   NC363527  37.442  23.865   5.478
 4834POPC   PO463528  37.642  23.288   5.439
 4834POPC   GL163529  37.840  23.428   5.812
 4834POPC   GL263530  37.875  23.779   5.870
 4834POPC   C1A63531  37.767  23.435   6.264
 4834POPC   D2A63532  37.518  23.464   6.635
 4834POPC   C3A63533  37.717  23.513   7.096
 4834POPC   C4A63534  37.623  23.522   7.602
 4834POPC   C1B63535  37.781  23.975   6.284
 4834POPC   C2B63536  37.716  23.921   6.729
 4834POPC   C3B63537  37.892  23.990   7.158
 4834POPC   C4B63538  37.749  24.067   7.577
 4835POPC   NC363539  18.120  38.856   5.502
 4835POPC   PO463540  17.897  38.179   5.349
 4835POPC   GL163541  18.105  38.341   5.719
 4835POPC   GL263542  17.903  38.614   5.876
 4835POPC   C1A63543  18.242  38.358   6.158
 4835POPC   D2A63544  18.427  38.478   6.552
 4835POPC   C3A63545  18.292  38.243   6.884
 4835POPC   C4A63546  18.380  38.427   7.224
 4835POPC   C1B63547  17.968  38.824   6.260
 4835POPC   C2B63548  18.122  38.939   6.640
 4835POPC   C3B63549  18.063  38.775   7.023
 4835POPC   C4B63550  17.985  38.663   7.462
 4836POPC   NC363551  24.601  27.842   5.424
 4836POPC   PO463552  24.783  28.420   5.625
 4836POPC   GL163553  24.497  28.114   5.882
 4836POPC   GL263554  24.124  28.043   5.815
 4836POPC   C1A63555  24.440  28.022   6.333
 4836POPC   D2A63556  24.178  28.017   6.719
 4836POPC   C3A63557  24.535  28.162   6.965
 4836POPC   C4A63558  24.882  28.166   7.285
 4836POPC   C1B63559  24.075  28.331   6.173
 4836POPC   C2B63560  24.271  28.489   6.560
 4836POPC   C3B63561  24.117  28.487   6.987
 4836POPC   C4B63562  24.017  28.617   7.420
 4837POPC   NC363563  42.589   0.608   5.463
 4837POPC   PO463564  41.950   0.362   5.321
 4837POPC   GL163565  42.108   0.342   5.776
 4837POPC   GL263566  42.403   0.527   5.923
 4837POPC   C1A63567  42.180   0.137   6.206
 4837POPC   D2A63568  42.039  44.913   6.586
 4837POPC   C3A63569  42.060   0.126   7.005
 4837POPC   C4A63570  41.998   0.430   7.345
 4837POPC   C1B63571  42.722   0.376   6.200
 4837POPC   C2B63572  42.769   0.265   6.628
 4837POPC   C3B63573  42.741   0.471   7.009
 4837POPC   C4B63574  42.493   0.454   7.352
 4838POPC   NC363575  34.552  28.496   5.639
 4838POPC   PO463576  34.238  27.877   5.488
 4838POPC   GL163577  34.400  28.063   5.893
 4838POPC   GL263578  34.737  28.126   5.987
 4838POPC   C1A63579  34.376  28.299   6.291
 4838POPC   D2A63580  34.436  28.560   6.674
 4838POPC   C3A63581  34.611  28.348   7.000
 4838POPC   C4A63582  34.503  28.119   7.319
 4838POPC   C1B63583  34.859  28.445   6.297
 4838POPC   C2B63584  35.034  28.312   6.705
 4838POPC   C3B63585  35.092  28.522   7.040
 4838POPC   C4B63586  34.813  28.866   7.073
 4839POPC   NC363587  30.840  24.653   5.279
 4839POPC   PO463588  30.420  24.256   5.603
 4839POPC   GL163589  30.749  24.370   5.858
 4839POPC   GL263590  30.902  24.716   5.775
 4839POPC   C1A63591  30.578  24.348   6.281
 4839POPC   D2A63592  30.402  24.455   6.659
 4839POPC   C3A63593  30.496  24.174   7.011
 4839POPC   C4A63594  30.731  24.313   7.370
 4839POPC   C1B63595  30.601  24.807   6.072
 4839POPC   C2B63596  30.757  24.807   6.481
 4839POPC   C3B63597  30.785  24.698   6.903
 4839POPC   C4B63598  30.798  24.836   7.289
 4840POPC   NC363599  37.471   3.790   5.162
 4840POPC   PO463600  36.900   3.574   5.459
 4840POPC   GL163601  36.851   3.312   5.833
 4840POPC   GL263602  37.172   3.350   5.907
 4840POPC   C1A63603  36.742   3.157   6.270
 4840POPC   D2A63604  36.558   3.351   6.661
 4840POPC   C3A63605  36.766   3.408   7.083
 4840POPC   C4A63606  36.674   3.413   7.535
 4840POPC   C1B63607  37.074   3.581   6.274
 4840POPC   C2B63608  37.067   3.349   6.631
 4840POPC   C3B63609  37.257   3.304   6.981
 4840POPC   C4B63610  37.441   3.509   7.318
 4841POPC   NC363611  12.983   9.115   5.585
 4841POPC   PO463612  12.579   8.626   5.255
 4841POPC   GL163613  12.527   8.879   5.692
 4841POPC   GL263614  12.821   8.755   5.911
 4841POPC   C1A63615  12.552   9.114   6.136
 4841POPC   D2A63616  12.614   8.954   6.567
 4841POPC   C3A63617  12.858   9.205   6.860
 4841POPC   C4A63618  12.776   9.377   7.249
 4841POPC   C1B63619  13.046   8.860   6.306
 4841POPC   C2B63620  13.092   8.731   6.744
 4841POPC   C3B63621  13.049   8.857   7.193
 4841POPC   C4B63622  13.046   8.672   7.610
 4842POPC   NC363623  17.894  36.718   5.559
 4842POPC   PO463624  17.530  37.332   5.470
 4842POPC   GL163625  17.366  37.133   5.849
 4842POPC   GL263626  17.704  37.024   5.923
 4842POPC   C1A63627  17.373  36.950   6.284
 4842POPC   D2A63628  17.643  36.971   6.635
 4842POPC   C3A63629  17.369  36.888   6.937
 4842POPC   C4A63630  16.988  36.905   7.162
 4842POPC   C1B63631  17.845  36.694   6.245
 4842POPC   C2B63632  17.970  36.587   6.679
 4842POPC   C3B63633  17.840  36.745   7.101
 4842POPC   C4B63634  17.932  37.007   7.479
 4843POPC   NC363635   1.074   2.480   5.481
 4843POPC   PO463636   1.363   3.098   5.417
 4843POPC   GL163637   1.301   2.839   5.785
 4843POPC   GL263638   1.484   2.535   5.825
 4843POPC   C1A63639   1.016   2.755   6.130
 4843POPC   D2A63640   0.801   2.632   6.493
 4843POPC   C3A63641   0.988   2.712   6.863
 4843POPC   C4A63642   1.009   2.786   7.261
 4843POPC   C1B63643   1.390   2.404   6.214
 4843POPC   C2B63644   1.372   2.672   6.545
 4843POPC   C3B63645   1.489   2.773   6.955
 4843POPC   C4B63646   1.471   3.013   7.344
 4844POPC   NC363647  41.727  40.427   5.499
 4844POPC   PO463648  41.753  41.083   5.610
 4844POPC   GL163649  41.718  40.731   5.921
 4844POPC   GL263650  41.397  40.618   5.857
 4844POPC   C1A63651  41.670  40.649   6.370
 4844POPC   D2A63652  41.602  40.992   6.701
 4844POPC   C3A63653  41.874  40.959   7.053
 4844POPC   C4A63654  41.849  41.034   7.513
 4844POPC   C1B63655  41.210  40.836   6.217
 4844POPC   C2B63656  41.175  40.704   6.656
 4844POPC   C3B63657  41.351  40.720   7.093
 4844POPC   C4B63658  41.426  40.760   7.552
 4845POPC   NC363659  26.891  19.134   5.516
 4845POPC   PO463660  27.291  18.606   5.607
 4845POPC   GL163661  27.135  18.892   5.896
 4845POPC   GL263662  26.777  18.746   5.917
 4845POPC   C1A63663  27.001  19.019   6.279
 4845POPC   D2A63664  26.904  18.751   6.594
 4845POPC   C3A63665  27.101  18.949   6.935
 4845POPC   C4A63666  26.929  19.198   7.221
 4845POPC   C1B63667  26.503  19.008   6.209
 4845POPC   C2B63668  26.623  19.177   6.629
 4845POPC   C3B63669  26.434  19.242   7.033
 4845POPC   C4B63670  26.542  19.437   7.411
 4846POPC   NC363671  39.759  14.496   5.441
 4846POPC   PO463672  40.350  14.252   5.376
 4846POPC   GL163673  40.097  14.285   5.805
 4846POPC   GL263674  39.750  14.394   5.942
 4846POPC   C1A63675  40.037  14.166   6.279
 4846POPC   D2A63676  39.759  14.309   6.613
 4846POPC   C3A63677  40.014  14.323   6.972
 4846POPC   C4A63678  40.155  13.983   7.230
 4846POPC   C1B63679  39.892  14.670   6.278
 4846POPC   C2B63680  39.906  14.795   6.723
 4846POPC   C3B63681  39.858  14.761   7.178
 4846POPC   C4B63682  39.946  14.781   7.637
 4847POPC   NC363683   6.233  40.152   5.287
 4847POPC   PO463684   6.573  39.667   5.577
 4847POPC   GL163685   6.832  39.995   5.768
 4847POPC   GL263686   6.815  40.337   5.633
 4847POPC   C1A63687   6.906  40.086   6.207
 4847POPC   D2A63688   6.746  39.885   6.577
 4847POPC   C3A63689   6.420  40.037   6.814
 4847POPC   C4A63690   6.406  39.984   7.236
 4847POPC   C1B63691   6.574  40.402   5.983
 4847POPC   C2B63692   6.576  40.417   6.461
 4847POPC   C3B63693   6.853  40.335   6.830
 4847POPC   C4B63694   6.771  40.339   7.279
 4848POPC   NC363695  33.437  28.814   5.385
 4848POPC   PO463696  32.815  29.148   5.329
 4848POPC   GL163697  32.935  29.209   5.798
 4848POPC   GL263698  33.294  29.317   5.917
 4848POPC   C1A63699  32.896  29.064   6.227
 4848POPC   D2A63700  32.604  28.901   6.558
 4848POPC   C3A63701  32.879  28.939   6.894
 4848POPC   C4A63702  32.879  29.010   7.315
 4848POPC   C1B63703  33.431  29.066   6.325
 4848POPC   C2B63704  33.414  29.004   6.810
 4848POPC   C3B63705  33.349  29.157   7.252
 4848POPC   C4B63706  33.443  29.259   7.726
 4849POPC   NC363707  17.296  14.539   5.497
 4849POPC   PO463708  17.170  13.875   5.558
 4849POPC   GL163709  17.505  14.112   5.840
 4849POPC   GL263710  17.908  14.078   5.858
 4849POPC   C1A63711  17.462  14.470   6.137
 4849POPC   D2A63712  17.721  14.617   6.471
 4849POPC   C3A63713  17.625  14.505   6.872
 4849POPC   C4A63714  17.550  14.704   7.246
 4849POPC   C1B63715  17.826  14.130   6.289
 4849POPC   C2B63716  17.461  14.149   6.541
 4849POPC   C3B63717  17.431  14.039   6.951
 4849POPC   C4B63718  17.716  14.193   7.276
 4850POPC   NC363719  18.566  41.765   5.534
 4850POPC   PO463720  18.114  41.407   5.301
 4850POPC   GL163721  18.158  41.510   5.769
 4850POPC   GL263722  18.007  41.864   5.748
 4850POPC   C1A63723  18.274  41.340   6.248
 4850POPC   D2A63724  18.258  41.475   6.729
 4850POPC   C3A63725  18.258  41.364   7.197
 4850POPC   C4A63726  18.564  41.256   7.576
 4850POPC   C1B63727  18.095  41.813   6.201
 4850POPC   C2B63728  18.097  41.940   6.621
 4850POPC   C3B63729  18.185  41.921   7.043
 4850POPC   C4B63730  17.996  41.829   7.408
 4851POPC   NC363731  35.985  22.822   5.308
 4851POPC   PO463732  36.373  23.283   5.437
 4851POPC   GL163733  36.211  22.963   5.782
 4851POPC   GL263734  35.960  22.667   5.805
 4851POPC   C1A63735  36.005  23.030   6.198
 4851POPC   D2A63736  36.006  23.180   6.645
 4851POPC   C3A63737  36.262  23.049   7.007
 4851POPC   C4A63738  36.069  22.825   7.357
 4851POPC   C1B63739  36.227  22.579   6.158
 4851POPC   C2B63740  36.100  22.644   6.586
 4851POPC   C3B63741  36.253  22.523   6.988
 4851POPC   C4B63742  36.553  22.697   7.284
 4852POPC   NC363743  12.661  14.387   5.366
 4852POPC   PO463744  13.173  14.713   5.379
 4852POPC   GL163745  12.954  14.526   5.777
 4852POPC   GL263746  12.646  14.685   5.764
 4852POPC   C1A63747  12.917  14.402   6.244
 4852POPC   D2A63748  13.148  14.191   6.610
 4852POPC   C3A63749  13.054  14.345   7.026
 4852POPC   C4A63750  12.661  14.243   7.245
 4852POPC   C1B63751  12.668  14.847   6.141
 4852POPC   C2B63752  12.513  14.715   6.495
 4852POPC   C3B63753  12.606  14.534   6.839
 4852POPC   C4B63754  12.668  14.739   7.218
 4853POPC   NC363755  11.104  19.373   5.396
 4853POPC   PO463756  11.536  18.860   5.457
 4853POPC   GL163757  11.361  18.946   5.873
 4853POPC   GL263758  11.397  19.310   5.836
 4853POPC   C1A63759  11.221  18.814   6.312
 4853POPC   D2A63760  11.183  18.658   6.756
 4853POPC   C3A63761  11.142  18.867   7.130
 4853POPC   C4A63762  11.384  19.197   7.217
 4853POPC   C1B63763  11.103  19.303   6.204
 4853POPC   C2B63764  11.040  19.171   6.650
 4853POPC   C3B63765  10.890  19.314   7.035
 4853POPC   C4B63766  10.930  19.321   7.481
 4854POPC   NC363767  42.422  41.072   5.242
 4854POPC   PO463768  42.171  40.426   5.288
 4854POPC   GL163769  42.171  40.755   5.666
 4854POPC   GL263770  42.503  40.831   5.794
 4854POPC   C1A63771  42.156  40.958   6.135
 4854POPC   D2A63772  42.104  40.867   6.569
 4854POPC   C3A63773  42.387  40.895   6.899
 4854POPC   C4A63774  42.306  41.120   7.265
 4854POPC   C1B63775  42.574  40.680   6.241
 4854POPC   C2B63776  42.668  40.485   6.643
 4854POPC   C3B63777  42.864  40.669   6.993
 4854POPC   C4B63778  42.676  40.771   7.373
 4855POPC   NC363779  18.703  22.871   5.451
 4855POPC   PO463780  19.047  22.389   5.254
 4855POPC   GL163781  19.062  22.422   5.738
 4855POPC   GL263782  18.842  22.168   5.903
 4855POPC   C1A63783  19.143  22.450   6.235
 4855POPC   D2A63784  19.205  22.252   6.672
 4855POPC   C3A63785  19.001  22.407   7.061
 4855POPC   C4A63786  18.559  22.465   7.160
 4855POPC   C1B63787  18.871  22.000   6.336
 4855POPC   C2B63788  18.763  22.009   6.792
 4855POPC   C3B63789  18.959  21.923   7.200
 4855POPC   C4B63790  19.223  21.827   7.559
 4856POPC   NC363791  12.189  29.943   5.252
 4856POPC   PO463792  11.633  29.668   5.340
 4856POPC   GL163793  11.886  29.899   5.695
 4856POPC   GL263794  12.255  30.044   5.760
 4856POPC   C1A63795  11.990  29.886   6.166
 4856POPC   D2A63796  12.061  30.064   6.590
 4856POPC   C3A63797  11.893  29.880   6.974
 4856POPC   C4A63798  11.772  29.695   7.368
 4856POPC   C1B63799  12.347  30.266   6.192
 4856POPC   C2B63800  12.353  30.466   6.612
 4856POPC   C3B63801  12.299  30.227   7.035
 4856POPC   C4B63802  12.583  30.163   7.406
 4857POPC   NC363803  38.508   1.819   5.422
 4857POPC   PO463804  38.224   2.461   5.448
 4857POPC   GL163805  38.318   2.165   5.753
 4857POPC   GL263806  38.687   2.137   5.808
 4857POPC   C1A63807  38.337   1.945   6.152
 4857POPC   D2A63808  38.455   2.130   6.547
 4857POPC   C3A63809  38.404   1.865   6.872
 4857POPC   C4A63810  38.615   2.036   7.151
 4857POPC   C1B63811  38.855   2.218   6.219
 4857POPC   C2B63812  38.929   1.947   6.582
 4857POPC   C3B63813  38.867   1.633   6.894
 4857POPC   C4B63814  38.998   1.725   7.305
 4858POPC   NC363815   7.826  11.740   5.456
 4858POPC   PO463816   7.318  12.049   5.133
 4858POPC   GL163817   7.314  12.039   5.657
 4858POPC   GL263818   7.416  11.762   5.887
 4858POPC   C1A63819   7.429  12.199   6.126
 4858POPC   D2A63820   7.472  11.934   6.531
 4858POPC   C3A63821   7.423  12.226   6.875
 4858POPC   C4A63822   7.403  12.130   7.276
 4858POPC   C1B63823   7.075  11.854   6.206
 4858POPC   C2B63824   6.919  11.709   6.588
 4858POPC   C3B63825   7.162  11.773   6.953
 4858POPC   C4B63826   6.981  11.851   7.351
 4859POPC   NC363827   8.661  25.334   5.363
 4859POPC   PO463828   8.959  24.704   5.385
 4859POPC   GL163829   8.897  25.055   5.734
 4859POPC   GL263830   8.781  25.461   5.830
 4859POPC   C1A63831   9.089  25.177   6.119
 4859POPC   D2A63832   9.153  25.326   6.517
 4859POPC   C3A63833   9.030  25.246   6.919
 4859POPC   C4A63834   9.232  25.168   7.283
 4859POPC   C1B63835   8.562  25.228   6.143
 4859POPC   C2B63836   8.651  25.172   6.572
 4859POPC   C3B63837   8.541  25.149   7.011
 4859POPC   C4B63838   8.606  25.189   7.495
 4860POPC   NC363839  28.206  10.875   5.248
 4860POPC   PO463840  28.310  10.251   5.422
 4860POPC   GL163841  28.268  10.536   5.760
 4860POPC   GL263842  28.412  10.258   5.931
 4860POPC   C1A63843  28.306  10.692   6.210
 4860POPC   D2A63844  28.441  10.566   6.621
 4860POPC   C3A63845  28.398  10.696   7.015
 4860POPC   C4A63846  28.043  10.631   7.285
 4860POPC   C1B63847  28.138  10.189   6.246
 4860POPC   C2B63848  28.270  10.048   6.621
 4860POPC   C3B63849  28.248  10.209   7.014
 4860POPC   C4B63850  28.432  10.085   7.361
 4861POPC   NC363851  40.970  21.259   5.403
 4861POPC   PO463852  40.551  21.707   5.411
 4861POPC   GL163853  40.621  21.458   5.798
 4861POPC   GL263854  40.624  21.081   5.764
 4861POPC   C1A63855  40.705  21.617   6.236
 4861POPC   D2A63856  40.879  21.489   6.634
 4861POPC   C3A63857  40.703  21.656   7.024
 4861POPC   C4A63858  40.799  21.542   7.450
 4861POPC   C1B63859  40.708  21.108   6.216
 4861POPC   C2B63860  40.530  21.125   6.638
 4861POPC   C3B63861  40.730  21.144   7.049
 4861POPC   C4B63862  40.538  21.084   7.427
 4862POPC   NC363863   2.070  38.918   5.383
 4862POPC   PO463864   2.215  38.268   5.397
 4862POPC   GL163865   2.205  38.453   5.789
 4862POPC   GL263866   1.902  38.610   5.811
 4862POPC   C1A63867   2.240  38.310   6.197
 4862POPC   D2A63868   2.032  38.243   6.566
 4862POPC   C3A63869   2.149  38.369   6.957
 4862POPC   C4A63870   1.920  38.149   7.261
 4862POPC   C1B63871   1.911  38.721   6.266
 4862POPC   C2B63872   1.714  38.644   6.674
 4862POPC   C3B63873   1.801  38.875   7.053
 4862POPC   C4B63874   1.793  38.776   7.519
 4863POPC   NC363875  23.763  17.880   5.561
 4863POPC   PO463876  23.709  17.200   5.531
 4863POPC   GL163877  23.738  17.445   5.868
 4863POPC   GL263878  24.070  17.534   5.841
 4863POPC   C1A63879  23.680  17.332   6.303
 4863POPC   D2A63880  23.756  17.109   6.694
 4863POPC   C3A63881  23.521  17.193   7.062
 4863POPC   C4A63882  23.661  17.167   7.436
 4863POPC   C1B63883  24.105  17.618   6.273
 4863POPC   C2B63884  24.194  17.344   6.622
 4863POPC   C3B63885  24.094  17.307   7.079
 4863POPC   C4B63886  24.266  17.703   7.296
 4864POPC   NC363887  27.508  37.936   5.085
 4864POPC   PO463888  26.980  37.626   5.395
 4864POPC   GL163889  26.839  37.612   5.817
 4864POPC   GL263890  26.842  37.265   5.911
 4864POPC   C1A63891  26.658  37.597   6.280
 4864POPC   D2A63892  26.429  37.712   6.650
 4864POPC   C3A63893  26.623  37.877   7.033
 4864POPC   C4A63894  27.017  37.677   7.190
 4864POPC   C1B63895  27.152  37.515   6.216
 4864POPC   C2B63896  27.058  37.579   6.660
 4864POPC   C3B63897  26.725  37.395   6.884
 4864POPC   C4B63898  26.636  37.271   7.273
 4865POPC   NC363899  37.152   2.144   5.461
 4865POPC   PO463900  36.477   2.188   5.526
 4865POPC   GL163901  36.780   2.013   5.807
 4865POPC   GL263902  36.892   2.342   5.853
 4865POPC   C1A63903  36.988   1.967   6.226
 4865POPC   D2A63904  36.909   1.973   6.666
 4865POPC   C3A63905  37.117   1.640   6.927
 4865POPC   C4A63906  36.925   1.575   7.369
 4865POPC   C1B63907  37.253   2.384   6.106
 4865POPC   C2B63908  37.215   2.400   6.515
 4865POPC   C3B63909  37.249   2.262   6.938
 4865POPC   C4B63910  36.989   2.039   7.195
 4866POPC   NC363911  27.918  17.713   5.518
 4866POPC   PO463912  27.726  18.299   5.279
 4866POPC   GL163913  27.792  18.213   5.724
 4866POPC   GL263914  27.943  17.969   5.946
 4866POPC   C1A63915  27.640  18.357   6.121
 4866POPC   D2A63916  27.357  18.640   6.328
 4866POPC   C3A63917  27.357  18.546   6.753
 4866POPC   C4A63918  27.287  18.286   7.097
 4866POPC   C1B63919  27.637  17.851   6.256
 4866POPC   C2B63920  27.481  17.999   6.645
 4866POPC   C3B63921  27.656  17.928   7.044
 4866POPC   C4B63922  27.582  18.071   7.442
 4867POPC   NC363923  29.626  20.370   5.291
 4867POPC   PO463924  30.226  20.667   5.398
 4867POPC   GL163925  29.919  20.638   5.695
 4867POPC   GL263926  29.851  20.287   5.739
 4867POPC   C1A63927  29.966  20.732   6.124
 4867POPC   D2A63928  30.175  20.557   6.495
 4867POPC   C3A63929  29.917  20.687   6.852
 4867POPC   C4A63930  29.891  21.061   7.123
 4867POPC   C1B63931  29.731  20.240   6.161
 4867POPC   C2B63932  29.570  20.118   6.563
 4867POPC   C3B63933  29.535  20.303   6.967
 4867POPC   C4B63934  29.574  20.655   7.253
 4868POPC   NC363935  21.368  25.451   5.490
 4868POPC   PO463936  21.104  24.826   5.438
 4868POPC   GL163937  21.386  25.026   5.779
 4868POPC   GL263938  21.713  24.889   5.918
 4868POPC   C1A63939  21.293  25.202   6.175
 4868POPC   D2A63940  21.149  25.063   6.567
 4868POPC   C3A63941  21.139  25.349   6.855
 4868POPC   C4A63942  21.182  25.256   7.251
 4868POPC   C1B63943  21.791  25.274   6.190
 4868POPC   C2B63944  21.599  25.448   6.601
 4868POPC   C3B63945  21.633  25.440   7.070
 4868POPC   C4B63946  21.647  25.115   7.403
 4869POPC   NC363947   2.341  19.834   5.150
 4869POPC   PO463948   1.788  19.973   5.574
 4869POPC   GL163949   2.031  19.756   5.808
 4869POPC   GL263950   1.752  19.672   6.002
 4869POPC   C1A63951   2.255  19.790   6.180
 4869POPC   D2A63952   2.028  19.728   6.536
 4869POPC   C3A63953   2.222  19.714   6.921
 4869POPC   C4A63954   2.147  20.056   7.122
 4869POPC   C1B63955   1.727  20.038   6.247
 4869POPC   C2B63956   1.609  20.027   6.654
 4869POPC   C3B63957   1.729  19.758   6.949
 4869POPC   C4B63958   1.788  19.724   7.368
 4870POPC   NC363959  10.981  41.240   5.504
 4870POPC   PO463960  10.300  41.280   5.547
 4870POPC   GL163961  10.429  41.544   5.872
 4870POPC   GL263962  10.799  41.551   5.867
 4870POPC   C1A63963  10.392  41.662   6.312
 4870POPC   D2A63964  10.414  41.351   6.667
 4870POPC   C3A63965  10.325  41.556   7.069
 4870POPC   C4A63966  10.503  41.953   7.263
 4870POPC   C1B63967  10.781  41.343   6.240
 4870POPC   C2B63968  10.924  41.509   6.618
 4870POPC   C3B63969  10.811  41.644   6.993
 4870POPC   C4B63970  10.786  41.525   7.433
 4871POPC   NC363971  40.317  23.208   5.034
 4871POPC   PO463972  40.100  22.719   5.274
 4871POPC   GL163973  40.015  22.681   5.764
 4871POPC   GL263974  39.933  23.022   5.908
 4871POPC   C1A63975  40.102  22.692   6.257
 4871POPC   D2A63976  40.182  22.997   6.601
 4871POPC   C3A63977  40.161  22.845   7.031
 4871POPC   C4A63978  39.785  22.766   7.245
 4871POPC   C1B63979  39.724  23.037   6.326
 4871POPC   C2B63980  39.361  22.977   6.619
 4871POPC   C3B63981  39.328  22.977   7.079
 4871POPC   C4B63982  39.543  23.163   7.469
 4872POPC   NC363983  18.630  37.391   5.483
 4872POPC   PO463984  18.453  36.705   5.593
 4872POPC   GL163985  18.228  36.884   5.932
 4872POPC   GL263986  18.182  37.255   5.847
 4872POPC   C1A63987  18.363  36.677   6.315
 4872POPC   D2A63988  18.446  36.434   6.681
 4872POPC   C3A63989  18.359  36.729   6.989
 4872POPC   C4A63990  18.410  36.907   7.375
 4872POPC   C1B63991  18.014  37.228   6.259
 4872POPC   C2B63992  18.159  37.051   6.616
 4872POPC   C3B63993  18.190  37.199   7.007
 4872POPC   C4B63994  18.384  37.417   7.279
 4873POPC   NC363995  25.027  42.518   5.213
 4873POPC   PO463996  25.717  42.564   5.371
 4873POPC   GL163997  25.495  42.365   5.761
 4873POPC   GL263998  25.717  42.144   5.981
 4873POPC   C1A63999  25.080  42.340   6.009
 4873POPC   D2A64000  24.964  42.426   6.455
 4873POPC   C3A64001  24.915  42.180   6.818
 4873POPC   C4A64002  24.835  42.350   7.222
 4873POPC   C1B64003  25.439  42.173   6.321
 4873POPC   C2B64004  25.426  42.358   6.701
 4873POPC   C3B64005  25.647  42.287   7.071
 4873POPC   C4B64006  25.455  42.164   7.444
 4874POPC   NC364007  37.076  29.361   5.363
 4874POPC   PO464008  37.314  28.660   5.505
 4874POPC   GL164009  37.195  29.040   5.757
 4874POPC   GL264010  36.833  29.147   5.776
 4874POPC   C1A64011  37.124  29.129   6.191
 4874POPC   D2A64012  37.229  29.078   6.605
 4874POPC   C3A64013  36.896  29.225   6.809
 4874POPC   C4A64014  36.892  29.114   7.188
 4874POPC   C1B64015  36.635  28.896   6.112
 4874POPC   C2B64016  36.566  28.839   6.570
 4874POPC   C3B64017  36.439  28.949   6.998
 4874POPC   C4B64018  36.560  28.766   7.395
 4875POPC   NC364019   9.287  21.769   5.434
 4875POPC   PO464020   9.910  22.131   5.481
 4875POPC   GL164021   9.731  22.096   5.859
 4875POPC   GL264022   9.453  22.219   5.721
 4875POPC   C1A64023   9.788  22.268   6.270
 4875POPC   D2A64024   9.769  22.023   6.636
 4875POPC   C3A64025  10.059  22.037   6.956
 4875POPC   C4A64026   9.975  21.849   7.320
 4875POPC   C1B64027   9.314  22.398   6.082
 4875POPC   C2B64028   9.339  22.389   6.540
 4875POPC   C3B64029   9.557  22.374   6.950
 4875POPC   C4B64030   9.401  22.184   7.347
 4876POPC   NC364031  21.030  41.659   5.543
 4876POPC   PO464032  20.410  41.472   5.351
 4876POPC   GL164033  20.501  41.570   5.772
 4876POPC   GL264034  20.822  41.659   6.009
 4876POPC   C1A64035  20.352  41.579   6.149
 4876POPC   D2A64036  20.586  41.716   6.477
 4876POPC   C3A64037  20.482  41.592   6.853
 4876POPC   C4A64038  20.605  41.833   7.185
 4876POPC   C1B64039  21.004  41.977   6.312
 4876POPC   C2B64040  20.906  42.020   6.761
 4876POPC   C3B64041  21.106  41.877   7.147
 4876POPC   C4B64042  20.966  41.798   7.581
 4877POPC   NC364043  16.596  22.569   5.448
 4877POPC   PO464044  16.516  23.252   5.332
 4877POPC   GL164045  16.664  23.266   5.749
 4877POPC   GL264046  16.806  22.934   5.816
 4877POPC   C1A64047  16.804  23.262   6.202
 4877POPC   D2A64048  16.617  23.103   6.582
 4877POPC   C3A64049  16.787  23.121   6.994
 4877POPC   C4A64050  16.677  23.324   7.354
 4877POPC   C1B64051  16.886  22.757   6.263
 4877POPC   C2B64052  16.865  22.603   6.718
 4877POPC   C3B64053  16.925  22.668   7.172
 4877POPC   C4B64054  16.949  22.920   7.554
 4878POPC   NC364055  35.098  35.685   5.406
 4878POPC   PO464056  35.750  35.340   5.568
 4878POPC   GL164057  35.389  35.429   5.755
 4878POPC   GL264058  35.218  35.086   5.650
 4878POPC   C1A64059  35.257  35.639   6.156
 4878POPC   D2A64060  35.074  35.517   6.556
 4878POPC   C3A64061  35.214  35.624   6.974
 4878POPC   C4A64062  35.091  35.542   7.403
 4878POPC   C1B64063  35.217  35.111   6.093
 4878POPC   C2B64064  35.287  35.040   6.519
 4878POPC   C3B64065  35.280  35.102   6.958
 4878POPC   C4B64066  35.414  35.130   7.375
 4879POPC   NC364067  36.412  34.673   5.485
 4879POPC   PO464068  35.771  34.403   5.489
 4879POPC   GL164069  35.908  34.388   5.928
 4879POPC   GL264070  36.238  34.552   5.957
 4879POPC   C1A64071  36.061  34.247   6.368
 4879POPC   D2A64072  36.401  34.154   6.712
 4879POPC   C3A64073  36.311  34.357   7.115
 4879POPC   C4A64074  35.889  34.455   7.229
 4879POPC   C1B64075  36.026  34.906   6.163
 4879POPC   C2B64076  35.789  34.963   6.571
 4879POPC   C3B64077  35.855  34.946   7.011
 4879POPC   C4B64078  36.246  34.854   7.184
 4880POPC   NC364079  11.401   4.017   5.636
 4880POPC   PO464080  11.385   3.395   5.432
 4880POPC   GL164081  11.314   3.460   5.829
 4880POPC   GL264082  11.605   3.639   5.896
 4880POPC   C1A64083  11.296   3.243   6.222
 4880POPC   D2A64084  11.336   3.302   6.668
 4880POPC   C3A64085  11.237   3.524   7.048
 4880POPC   C4A64086  11.170   3.325   7.420
 4880POPC   C1B64087  11.555   3.665   6.328
 4880POPC   C2B64088  11.688   3.840   6.702
 4880POPC   C3B64089  11.661   3.797   7.123
 4880POPC   C4B64090  11.401   3.779   7.492
 4881POPC   NC364091  42.011   9.270   5.411
 4881POPC   PO464092  42.203   8.609   5.573
 4881POPC   GL164093  42.378   8.747   5.903
 4881POPC   GL264094  42.366   9.080   5.814
 4881POPC   C1A64095  42.389   8.845   6.305
 4881POPC   D2A64096  42.594   8.845   6.661
 4881POPC   C3A64097  42.372   8.832   7.045
 4881POPC   C4A64098  42.674   9.003   7.314
 4881POPC   C1B64099  42.099   9.258   6.141
 4881POPC   C2B64100  41.866   9.314   6.567
 4881POPC   C3B64101  41.970   9.212   6.987
 4881POPC   C4B64102  42.208   9.238   7.374
 4882POPC   NC364103  17.032  11.640   5.476
 4882POPC   PO464104  16.858  10.896   5.392
 4882POPC   GL164105  16.789  11.265   5.694
 4882POPC   GL264106  17.068  11.365   5.919
 4882POPC   C1A64107  16.614  11.500   6.057
 4882POPC   D2A64108  16.507  11.490   6.491
 4882POPC   C3A64109  16.553  11.133   6.762
 4882POPC   C4A64110  16.585  11.233   7.194
 4882POPC   C1B64111  17.033  11.565   6.323
 4882POPC   C2B64112  16.995  11.400   6.726
 4882POPC   C3B64113  17.055  11.450   7.136
 4882POPC   C4B64114  17.238  11.744   7.388
 4883POPC   NC364115  35.781  20.594   5.434
 4883POPC   PO464116  36.323  20.953   5.244
 4883POPC   GL164117  36.199  20.783   5.727
 4883POPC   GL264118  36.311  20.479   5.987
 4883POPC   C1A64119  36.100  20.917   6.148
 4883POPC   D2A64120  35.874  20.745   6.513
 4883POPC   C3A64121  36.181  20.642   6.842
 4883POPC   C4A64122  36.222  20.738   7.268
 4883POPC   C1B64123  35.908  20.285   6.213
 4883POPC   C2B64124  35.611  20.194   6.589
 4883POPC   C3B64125  35.708  20.166   7.039
 4883POPC   C4B64126  36.124  20.214   7.177
 4884POPC   NC364127  40.393  44.409   5.294
 4884POPC   PO464128  40.911  44.739   5.388
 4884POPC   GL164129  40.914  44.718   5.805
 4884POPC   GL264130  41.168  44.957   5.832
 4884POPC   C1A64131  40.719  44.565   6.199
 4884POPC   D2A64132  40.590  44.679   6.635
 4884POPC   C3A64133  40.704  44.360   6.988
 4884POPC   C4A64134  40.679  44.342   7.480
 4884POPC   C1B64135  40.926   0.067   6.189
 4884POPC   C2B64136  40.932   0.185   6.612
 4884POPC   C3B64137  40.847  44.968   7.002
 4884POPC   C4B64138  41.021  44.666   7.277
 4885POPC   NC364139  33.392  22.804   5.607
 4885POPC   PO464140  32.822  22.950   5.195
 4885POPC   GL164141  32.925  22.961   5.656
 4885POPC   GL264142  33.133  23.224   5.811
 4885POPC   C1A64143  32.882  22.912   6.122
 4885POPC   D2A64144  32.879  22.775   6.551
 4885POPC   C3A64145  32.757  22.960   6.955
 4885POPC   C4A64146  32.895  22.798   7.369
 4885POPC   C1B64147  33.441  23.150   6.189
 4885POPC   C2B64148  33.441  22.934   6.622
 4885POPC   C3B64149  33.280  23.008   7.067
 4885POPC   C4B64150  33.313  23.033   7.551
 4886POPC   NC364151  23.545  12.528   5.352
 4886POPC   PO464152  24.025  12.930   5.398
 4886POPC   GL164153  23.722  12.900   5.738
 4886POPC   GL264154  23.433  13.101   5.686
 4886POPC   C1A64155  23.740  12.702   6.152
 4886POPC   D2A64156  23.944  12.514   6.498
 4886POPC   C3A64157  23.898  12.819   6.830
 4886POPC   C4A64158  24.055  12.775   7.235
 4886POPC   C1B64159  23.492  13.151   6.137
 4886POPC   C2B64160  23.461  13.011   6.546
 4886POPC   C3B64161  23.468  13.131   6.966
 4886POPC   C4B64162  23.539  12.822   7.215
 4887POPC   NC364163   9.465  32.927   5.059
 4887POPC   PO464164   9.898  33.359   5.364
 4887POPC   GL164165   9.929  33.200   5.768
 4887POPC   GL264166  10.196  33.406   5.822
 4887POPC   C1A64167   9.697  32.972   6.130
 4887POPC   D2A64168   9.584  32.692   6.479
 4887POPC   C3A64169   9.559  32.870   6.908
 4887POPC   C4A64170   9.855  32.864   7.255
 4887POPC   C1B64171   9.994  33.395   6.246
 4887POPC   C2B64172   9.864  33.274   6.680
 4887POPC   C3B64173  10.044  33.311   7.098
 4887POPC   C4B64174  10.056  33.271   7.545
 4888POPC   NC364175  37.828  27.766   5.439
 4888POPC   PO464176  37.726  27.143   5.756
 4888POPC   GL164177  37.479  27.533   5.963
 4888POPC   GL264178  37.466  27.885   5.854
 4888POPC   C1A64179  37.482  27.687   6.400
 4888POPC   D2A64180  37.457  27.387   6.756
 4888POPC   C3A64181  37.655  27.243   7.159
 4888POPC   C4A64182  37.856  27.543   7.460
 4888POPC   C1B64183  37.140  27.985   6.119
 4888POPC   C2B64184  37.096  28.008   6.554
 4888POPC   C3B64185  37.353  28.029   6.922
 4888POPC   C4B64186  37.473  27.705   7.172
 4889POPC   NC364187  24.633  39.779   5.024
 4889POPC   PO464188  24.348  40.322   5.268
 4889POPC   GL164189  24.431  40.376   5.697
 4889POPC   GL264190  24.118  40.469   5.801
 4889POPC   C1A64191  24.583  40.067   6.021
 4889POPC   D2A64192  24.812  39.833   6.387
 4889POPC   C3A64193  24.843  40.067   6.798
 4889POPC   C4A64194  24.652  40.154   7.216
 4889POPC   C1B64195  24.385  40.580   6.174
 4889POPC   C2B64196  24.616  40.498   6.576
 4889POPC   C3B64197  24.404  40.553   6.969
 4889POPC   C4B64198  24.122  40.349   7.273
 4890POPC   NC364199  24.376  38.898   5.421
 4890POPC   PO464200  24.667  38.309   5.306
 4890POPC   GL164201  24.623  38.375   5.752
 4890POPC   GL264202  24.309  38.544   5.787
 4890POPC   C1A64203  24.514  38.164   6.148
 4890POPC   D2A64204  24.359  37.866   6.480
 4890POPC   C3A64205  24.345  38.149   6.852
 4890POPC   C4A64206  24.627  38.201   7.198
 4890POPC   C1B64207  24.229  38.631   6.217
 4890POPC   C2B64208  24.475  38.628   6.600
 4890POPC   C3B64209  24.527  38.684   7.036
 4890POPC   C4B64210  24.248  38.506   7.321
 4891POPC   NC364211   2.655  42.442   5.188
 4891POPC   PO464212   2.999  41.899   5.479
 4891POPC   GL164213   2.872  42.162   5.846
 4891POPC   GL264214   2.593  42.394   5.781
 4891POPC   C1A64215   2.682  42.171   6.283
 4891POPC   D2A64216   2.865  42.309   6.677
 4891POPC   C3A64217   2.638  42.086   7.018
 4891POPC   C4A64218   2.445  42.380   7.266
 4891POPC   C1B64219   2.826  42.624   6.133
 4891POPC   C2B64220   2.681  42.804   6.543
 4891POPC   C3B64221   2.643  42.769   7.008
 4891POPC   C4B64222   2.703  42.753   7.507
 4892POPC   NC364223  32.430   5.797   5.191
 4892POPC   PO464224  32.087   6.191   5.411
 4892POPC   GL164225  32.253   5.874   5.731
 4892POPC   GL264226  31.957   5.836   5.945
 4892POPC   C1A64227  32.387   5.753   6.177
 4892POPC   D2A64228  32.149   5.713   6.588
 4892POPC   C3A64229  32.312   5.763   7.013
 4892POPC   C4A64230  32.501   5.760   7.426
 4892POPC   C1B64231  32.029   6.111   6.281
 4892POPC   C2B64232  31.809   6.150   6.667
 4892POPC   C3B64233  31.897   6.064   7.078
 4892POPC   C4B64234  32.037   6.183   7.486
 4893POPC   NC364235  31.036  42.146   5.383
 4893POPC   PO464236  30.534  42.350   5.701
 4893POPC   GL164237  30.748  42.317   5.986
 4893POPC   GL264238  30.982  42.107   5.881
 4893POPC   C1A64239  30.612  42.333   6.367
 4893POPC   D2A64240  30.731  42.301   6.740
 4893POPC   C3A64241  30.547  42.467   7.037
 4893POPC   C4A64242  30.508  42.664   7.408
 4893POPC   C1B64243  30.887  41.915   6.287
 4893POPC   C2B64244  31.021  41.915   6.701
 4893POPC   C3B64245  31.043  42.101   7.121
 4893POPC   C4B64246  30.919  41.915   7.502
 4894POPC   NC364247  23.161  23.263   5.527
 4894POPC   PO464248  22.653  23.764   5.495
 4894POPC   GL164249  23.029  23.706   5.793
 4894POPC   GL264250  23.317  23.946   5.819
 4894POPC   C1A64251  23.045  23.661   6.225
 4894POPC   D2A64252  22.844  23.865   6.580
 4894POPC   C3A64253  22.968  23.661   6.981
 4894POPC   C4A64254  22.855  23.840   7.352
 4894POPC   C1B64255  23.192  24.142   6.188
 4894POPC   C2B64256  23.114  24.326   6.568
 4894POPC   C3B64257  23.063  24.149   6.951
 4894POPC   C4B64258  23.287  24.106   7.306
 4895POPC   NC364259  44.223   0.542   5.453
 4895POPC   PO464260  43.692   0.232   5.587
 4895POPC   GL164261  43.984   0.434   5.886
 4895POPC   GL264262  43.959   0.800   5.871
 4895POPC   C1A64263  44.176   0.556   6.287
 4895POPC   D2A64264  44.131   0.297   6.656
 4895POPC   C3A64265  44.212   0.459   7.060
 4895POPC   C4A64266  43.941   0.770   7.231
 4895POPC   C1B64267  43.662   0.649   6.232
 4895POPC   C2B64268  43.661   0.507   6.676
 4895POPC   C3B64269  43.714   0.306   7.084
 4895POPC   C4B64270  43.667   0.435   7.510
 4896POPC   NC364271   3.236   2.922   5.437
 4896POPC   PO464272   3.785   2.520   5.282
 4896POPC   GL164273   3.617   2.669   5.709
 4896POPC   GL264274   3.286   2.596   5.816
 4896POPC   C1A64275   3.580   2.924   6.134
 4896POPC   D2A64276   3.432   2.901   6.559
 4896POPC   C3A64277   3.677   2.895   6.936
 4896POPC   C4A64278   3.704   2.545   7.210
 4896POPC   C1B64279   3.108   2.713   6.184
 4896POPC   C2B64280   2.933   2.793   6.571
 4896POPC   C3B64281   3.137   2.655   6.937
 4896POPC   C4B64282   3.268   2.773   7.327
 4897POPC   NC364283   7.611  44.324   5.490
 4897POPC   PO464284   7.103  44.783   5.490
 4897POPC   GL164285   7.211  44.453   5.774
 4897POPC   GL264286   7.469  44.690   5.887
 4897POPC   C1A64287   7.405  44.282   6.144
 4897POPC   D2A64288   7.561  44.582   6.417
 4897POPC   C3A64289   7.558  44.610   6.829
 4897POPC   C4A64290   7.633  44.543   7.269
 4897POPC   C1B64291   7.468   0.030   6.170
 4897POPC   C2B64292   7.333   0.068   6.584
 4897POPC   C3B64293   7.465   0.072   7.014
 4897POPC   C4B64294   7.347  44.974   7.409
 4898POPC   NC364295   5.026  41.033   5.356
 4898POPC   PO464296   5.492  40.648   5.270
 4898POPC   GL164297   5.276  40.912   5.758
 4898POPC   GL264298   5.389  40.818   6.059
 4898POPC   C1A64299   4.883  40.939   6.134
 4898POPC   D2A64300   4.728  40.959   6.641
 4898POPC   C3A64301   4.964  40.790   7.025
 4898POPC   C4A64302   4.885  40.562   7.463
 4898POPC   C1B64303   5.229  40.839   6.491
 4898POPC   C2B64304   5.327  40.522   6.775
 4898POPC   C3B64305   5.562  40.643   7.126
 4898POPC   C4B64306   5.414  40.628   7.550
 4899POPC   NC364307  28.214  11.733   5.567
 4899POPC   PO464308  28.548  11.114   5.447
 4899POPC   GL164309  28.185  11.230   5.777
 4899POPC   GL264310  27.968  11.538   5.947
 4899POPC   C1A64311  28.352  11.202   6.200
 4899POPC   D2A64312  28.608  11.064   6.567
 4899POPC   C3A64313  28.486  11.192   6.973
 4899POPC   C4A64314  28.438  11.454   7.311
 4899POPC   C1B64315  28.262  11.685   6.270
 4899POPC   C2B64316  28.263  11.483   6.626
 4899POPC   C3B64317  28.045  11.478   6.952
 4899POPC   C4B64318  28.008  11.697   7.320
 4900POPC   NC364319  21.289  14.556   5.434
 4900POPC   PO464320  21.880  14.872   5.466
 4900POPC   GL164321  21.533  14.689   5.836
 4900POPC   GL264322  21.459  14.287   5.836
 4900POPC   C1A64323  21.413  14.580   6.259
 4900POPC   D2A64324  21.446  14.285   6.594
 4900POPC   C3A64325  21.404  14.544   6.931
 4900POPC   C4A64326  21.624  14.685   7.297
 4900POPC   C1B64327  21.149  14.129   6.171
 4900POPC   C2B64328  20.992  14.046   6.608
 4900POPC   C3B64329  21.015  14.168   7.038
 4900POPC   C4B64330  21.381  14.245   7.319
 4901POPC   NC364331  13.897   6.829   5.079
 4901POPC   PO464332  13.542   6.560   5.415
 4901POPC   GL164333  13.482   6.664   5.858
 4901POPC   GL264334  13.763   6.871   5.931
 4901POPC   C1A64335  13.275   6.658   6.282
 4901POPC   D2A64336  13.206   6.425   6.667
 4901POPC   C3A64337  13.428   6.515   7.073
 4901POPC   C4A64338  13.838   6.570   7.337
 4901POPC   C1B64339  13.789   6.626   6.324
 4901POPC   C2B64340  13.741   6.353   6.696
 4901POPC   C3B64341  14.055   6.237   7.026
 4901POPC   C4B64342  14.328   6.320   7.410
 4902POPC   NC364343  11.370  23.642   5.525
 4902POPC   PO464344  10.869  24.061   5.835
 4902POPC   GL164345  11.298  23.949   5.940
 4902POPC   GL264346  11.576  24.187   5.824
 4902POPC   C1A64347  11.454  23.590   6.194
 4902POPC   D2A64348  11.517  23.507   6.642
 4902POPC   C3A64349  11.147  23.649   6.883
 4902POPC   C4A64350  11.106  23.865   7.276
 4902POPC   C1B64351  11.747  24.002   6.202
 4902POPC   C2B64352  11.592  24.008   6.643
 4902POPC   C3B64353  11.572  23.894   7.078
 4902POPC   C4B64354  11.548  23.864   7.539
 4903POPC   NC364355  27.031  13.944   5.174
 4903POPC   PO464356  26.667  13.554   5.510
 4903POPC   GL164357  26.885  13.682   5.839
 4903POPC   GL264358  26.776  13.351   5.989
 4903POPC   C1A64359  26.776  13.836   6.235
 4903POPC   D2A64360  26.634  13.580   6.555
 4903POPC   C3A64361  26.545  13.845   6.870
 4903POPC   C4A64362  26.594  13.995   7.254
 4903POPC   C1B64363  27.090  13.452   6.260
 4903POPC   C2B64364  27.206  13.638   6.660
 4903POPC   C3B64365  27.044  13.715   7.056
 4903POPC   C4B64366  26.701  13.480   7.192
 4904POPC   NC364367  33.814  32.835   5.389
 4904POPC   PO464368  34.094  33.522   5.454
 4904POPC   GL164369  33.872  33.342   5.816
 4904POPC   GL264370  33.695  33.030   5.846
 4904POPC   C1A64371  33.919  33.255   6.264
 4904POPC   D2A64372  33.763  33.271   6.700
 4904POPC   C3A64373  34.017  33.232   7.048
 4904POPC   C4A64374  34.085  32.797   7.116
 4904POPC   C1B64375  33.447  33.043   6.223
 4904POPC   C2B64376  33.311  33.009   6.650
 4904POPC   C3B64377  33.561  32.838   6.978
 4904POPC   C4B64378  33.632  32.834   7.411
 4905POPC   NC364379  22.608  29.073   5.446
 4905POPC   PO464380  23.192  28.806   5.554
 4905POPC   GL164381  22.912  29.038   5.868
 4905POPC   GL264382  22.751  29.393   5.832
 4905POPC   C1A64383  22.626  29.017   6.215
 4905POPC   D2A64384  22.475  28.969   6.652
 4905POPC   C3A64385  22.679  28.882   7.066
 4905POPC   C4A64386  23.031  28.834   7.362
 4905POPC   C1B64387  22.886  29.445   6.285
 4905POPC   C2B64388  22.755  29.422   6.740
 4905POPC   C3B64389  22.905  29.338   7.170
 4905POPC   C4B64390  23.281  29.284   7.439
 4906POPC   NC364391  17.038  17.140   5.307
 4906POPC   PO464392  16.358  17.017   5.458
 4906POPC   GL164393  16.406  17.331   5.770
 4906POPC   GL264394  16.755  17.402   5.858
 4906POPC   C1A64395  16.372  17.359   6.218
 4906POPC   D2A64396  16.703  17.300   6.532
 4906POPC   C3A64397  16.527  17.373   6.916
 4906POPC   C4A64398  16.562  17.275   7.333
 4906POPC   C1B64399  16.785  17.694   6.229
 4906POPC   C2B64400  16.790  17.775   6.713
 4906POPC   C3B64401  16.719  17.784   7.186
 4906POPC   C4B64402  16.855  17.953   7.594
 4907POPC   NC364403  10.731  20.076   5.008
 4907POPC   PO464404  10.199  20.107   5.452
 4907POPC   GL164405  10.498  19.930   5.819
 4907POPC   GL264406  10.832  19.742   5.764
 4907POPC   C1A64407  10.552  19.835   6.290
 4907POPC   D2A64408  10.656  19.581   6.660
 4907POPC   C3A64409  10.322  19.621   6.962
 4907POPC   C4A64410  10.189  19.619   7.371
 4907POPC   C1B64411  10.904  20.113   6.070
 4907POPC   C2B64412  10.829  20.227   6.523
 4907POPC   C3B64413  10.657  20.075   6.935
 4907POPC   C4B64414  10.552  20.224   7.376
 4908POPC   NC364415  42.829  13.080   5.340
 4908POPC   PO464416  43.366  12.646   5.525
 4908POPC   GL164417  43.070  12.634   5.858
 4908POPC   GL264418  42.751  12.814   5.807
 4908POPC   C1A64419  43.001  12.925   6.253
 4908POPC   D2A64420  43.053  13.174   6.663
 4908POPC   C3A64421  43.219  12.991   7.049
 4908POPC   C4A64422  43.307  12.556   7.206
 4908POPC   C1B64423  42.682  12.495   6.144
 4908POPC   C2B64424  42.911  12.483   6.516
 4908POPC   C3B64425  42.858  12.554   6.951
 4908POPC   C4B64426  42.727  12.923   7.127
 4909POPC   NC364427  19.115  24.537   5.387
 4909POPC   PO464428  19.559  24.063   5.445
 4909POPC   GL164429  19.379  24.180   5.844
 4909POPC   GL264430  19.130  24.422   5.886
 4909POPC   C1A64431  19.365  24.233   6.303
 4909POPC   D2A64432  19.086  24.040   6.622
 4909POPC   C3A64433  19.120  24.136   7.066
 4909POPC   C4A64434  19.050  24.480   7.313
 4909POPC   C1B64435  18.896  24.429   6.299
 4909POPC   C2B64436  18.970  24.543   6.750
 4909POPC   C3B64437  18.725  24.757   7.078
 4909POPC   C4B64438  18.558  24.598   7.463
 4910POPC   NC364439  23.784  36.895   5.194
 4910POPC   PO464440  24.098  36.479   5.540
 4910POPC   GL164441  23.771  36.790   5.692
 4910POPC   GL264442  23.394  36.747   5.759
 4910POPC   C1A64443  23.662  37.078   6.021
 4910POPC   D2A64444  23.817  37.040   6.446
 4910POPC   C3A64445  23.623  37.179   6.820
 4910POPC   C4A64446  23.753  37.103   7.225
 4910POPC   C1B64447  23.543  36.628   6.233
 4910POPC   C2B64448  23.495  36.674   6.725
 4910POPC   C3B64449  23.465  36.606   7.224
 4910POPC   C4B64450  23.494  36.403   7.690
 4911POPC   NC364451  17.956   0.794   5.314
 4911POPC   PO464452  18.355   0.238   5.477
 4911POPC   GL164453  18.272   0.592   5.799
 4911POPC   GL264454  17.976   0.845   5.802
 4911POPC   C1A64455  18.506   0.503   6.187
 4911POPC   D2A64456  18.596   0.672   6.604
 4911POPC   C3A64457  18.713   0.384   6.937
 4911POPC   C4A64458  18.500   0.290   7.328
 4911POPC   C1B64459  17.853   0.720   6.182
 4911POPC   C2B64460  18.072   0.560   6.477
 4911POPC   C3B64461  18.202   0.561   6.923
 4911POPC   C4B64462  18.054   0.549   7.343
 4912POPC   NC364463  22.565  33.962   5.659
 4912POPC   PO464464  22.056  33.620   5.335
 4912POPC   GL164465  21.922  33.722   5.763
 4912POPC   GL264466  22.061  34.041   5.731
 4912POPC   C1A64467  22.056  33.600   6.215
 4912POPC   D2A64468  22.375  33.750   6.550
 4912POPC   C3A64469  22.257  33.605   6.956
 4912POPC   C4A64470  21.874  33.680   7.137
 4912POPC   C1B64471  22.057  34.113   6.164
 4912POPC   C2B64472  21.897  33.971   6.568
 4912POPC   C3B64473  22.013  34.138   6.959
 4912POPC   C4B64474  22.275  33.993   7.289
 4913POPC   NC364475  23.885  40.367   5.335
 4913POPC   PO464476  23.523  39.774   5.422
 4913POPC   GL164477  23.751  40.049   5.719
 4913POPC   GL264478  24.096  39.964   5.650
 4913POPC   C1A64479  23.812  40.248   6.146
 4913POPC   D2A64480  23.822  39.960   6.521
 4913POPC   C3A64481  23.806  40.136   6.915
 4913POPC   C4A64482  23.750  39.888   7.275
 4913POPC   C1B64483  24.121  39.836   6.097
 4913POPC   C2B64484  24.309  40.090   6.449
 4913POPC   C3B64485  24.312  40.028   6.880
 4913POPC   C4B64486  24.256  39.848   7.314
 4914POPC   NC364487  37.252  15.947   5.408
 4914POPC   PO464488  37.687  15.409   5.387
 4914POPC   GL164489  37.630  15.764   5.725
 4914POPC   GL264490  37.758  16.102   5.656
 4914POPC   C1A64491  37.673  15.772   6.202
 4914POPC   D2A64492  37.502  15.698   6.653
 4914POPC   C3A64493  37.673  15.791   7.072
 4914POPC   C4A64494  37.712  15.697   7.492
 4914POPC   C1B64495  37.694  16.295   6.076
 4914POPC   C2B64496  37.467  16.169   6.445
 4914POPC   C3B64497  37.412  16.173   6.889
 4914POPC   C4B64498  37.407  16.153   7.342
 4915POPC   NC364499  44.159  20.839   5.383
 4915POPC   PO464500  43.593  20.484   5.398
 4915POPC   GL164501  43.846  20.703   5.767
 4915POPC   GL264502  43.820  21.050   5.847
 4915POPC   C1A64503  44.196  20.840   6.101
 4915POPC   D2A64504  44.353  20.777   6.534
 4915POPC   C3A64505  44.088  20.837   6.896
 4915POPC   C4A64506  43.823  20.628   7.191
 4915POPC   C1B64507  43.713  20.885   6.305
 4915POPC   C2B64508  43.634  21.009   6.784
 4915POPC   C3B64509  43.812  21.149   7.230
 4915POPC   C4B64510  43.611  21.232   7.655
 4916POPC   NC364511   8.081  15.684   5.390
 4916POPC   PO464512   8.206  15.004   5.348
 4916POPC   GL164513   8.091  15.256   5.743
 4916POPC   GL264514   7.747  15.226   5.877
 4916POPC   C1A64515   8.117  15.313   6.232
 4916POPC   D2A64516   8.366  15.129   6.617
 4916POPC   C3A64517   8.229  15.261   7.071
 4916POPC   C4A64518   8.195  15.200   7.536
 4916POPC   C1B64519   7.618  14.983   6.234
 4916POPC   C2B64520   7.872  14.935   6.585
 4916POPC   C3B64521   7.807  14.977   7.011
 4916POPC   C4B64522   7.639  14.603   7.149
 4917POPC   NC364523  24.942  39.393   4.795
 4917POPC   PO464524  24.378  39.321   5.211
 4917POPC   GL164525  24.301  39.358   5.693
 4917POPC   GL264526  24.349  39.049   5.898
 4917POPC   C1A64527  24.510  39.484   6.108
 4917POPC   D2A64528  24.365  39.585   6.519
 4917POPC   C3A64529  24.649  39.583   6.857
 4917POPC   C4A64530  24.566  39.442   7.255
 4917POPC   C1B64531  24.650  38.936   6.199
 4917POPC   C2B64532  24.631  39.127   6.596
 4917POPC   C3B64533  24.319  39.144   6.931
 4917POPC   C4B64534  24.328  39.012   7.407
 4918POPC   NC364535  27.405  37.643   5.591
 4918POPC   PO464536  27.898  38.042   5.303
 4918POPC   GL164537  27.898  37.824   5.724
 4918POPC   GL264538  27.863  37.448   5.779
 4918POPC   C1A64539  27.751  37.822   6.177
 4918POPC   D2A64540  27.822  37.749   6.626
 4918POPC   C3A64541  27.485  37.781   6.933
 4918POPC   C4A64542  27.452  37.944   7.346
 4918POPC   C1B64543  27.643  37.301   6.149
 4918POPC   C2B64544  27.509  37.347   6.570
 4918POPC   C3B64545  27.366  37.298   6.970
 4918POPC   C4B64546  27.405  37.443   7.421
 4919POPC   NC364547  14.323  43.206   5.183
 4919POPC   PO464548  14.717  42.875   5.687
 4919POPC   GL164549  14.310  43.011   5.848
 4919POPC   GL264550  14.248  43.383   5.750
 4919POPC   C1A64551  14.147  42.880   6.280
 4919POPC   D2A64552  14.419  42.725   6.636
 4919POPC   C3A64553  14.439  42.969   7.033
 4919POPC   C4A64554  14.614  43.364   7.068
 4919POPC   C1B64555  14.375  43.356   6.226
 4919POPC   C2B64556  14.209  43.293   6.656
 4919POPC   C3B64557  14.151  43.527   7.019
 4919POPC   C4B64558  14.205  43.395   7.395
 4920POPC   NC364559  23.183  10.765   5.783
 4920POPC   PO464560  22.688  10.360   5.640
 4920POPC   GL164561  22.653  10.666   5.968
 4920POPC   GL264562  22.935  10.463   6.118
 4920POPC   C1A64563  22.639  10.714   6.443
 4920POPC   D2A64564  22.886  10.392   6.672
 4920POPC   C3A64565  23.051  10.527   7.058
 4920POPC   C4A64566  22.875  10.534   7.456
 4920POPC   C1B64567  23.257  10.215   6.337
 4920POPC   C2B64568  23.236   9.978   6.732
 4920POPC   C3B64569  23.333  10.058   7.178
 4920POPC   C4B64570  23.390  10.398   7.442
 4921POPC   NC364571  43.521  31.859   5.306
 4921POPC   PO464572  43.003  31.459   5.244
 4921POPC   GL164573  43.096  31.532   5.655
 4921POPC   GL264574  43.230  31.851   5.722
 4921POPC   C1A64575  43.259  31.331   6.024
 4921POPC   D2A64576  43.207  31.186   6.432
 4921POPC   C3A64577  43.255  31.361   6.824
 4921POPC   C4A64578  43.008  31.240   7.171
 4921POPC   C1B64579  43.535  31.749   6.074
 4921POPC   C2B64580  43.444  31.748   6.508
 4921POPC   C3B64581  43.253  31.855   6.896
 4921POPC   C4B64582  43.058  31.712   7.282
 4922POPC   NC364583   6.935  32.554   5.439
 4922POPC   PO464584   6.710  31.953   5.505
 4922POPC   GL164585   6.732  32.243   5.805
 4922POPC   GL264586   6.426  32.123   5.923
 4922POPC   C1A64587   6.912  32.483   6.138
 4922POPC   D2A64588   6.920  32.326   6.552
 4922POPC   C3A64589   6.674  32.397   6.895
 4922POPC   C4A64590   6.916  32.327   7.275
 4922POPC   C1B64591   6.463  32.220   6.323
 4922POPC   C2B64592   6.582  31.931   6.596
 4922POPC   C3B64593   6.395  31.869   6.944
 4922POPC   C4B64594   6.461  32.108   7.248
 4923POPC   NC364595   3.873  22.378   5.360
 4923POPC   PO464596   3.422  21.874   5.463
 4923POPC   GL164597   3.753  22.094   5.767
 4923POPC   GL264598   3.547  22.386   5.817
 4923POPC   C1A64599   3.840  22.273   6.211
 4923POPC   D2A64600   3.513  22.388   6.510
 4923POPC   C3A64601   3.624  22.492   6.942
 4923POPC   C4A64602   3.320  22.355   7.244
 4923POPC   C1B64603   3.407  22.013   6.118
 4923POPC   C2B64604   3.627  21.862   6.472
 4923POPC   C3B64605   3.512  21.984   6.856
 4923POPC   C4B64606   3.716  22.036   7.186
 4924POPC   NC364607  18.671  11.857   5.592
 4924POPC   PO464608  19.208  12.381   5.315
 4924POPC   GL164609  19.057  12.220   5.713
 4924POPC   GL264610  19.365  12.128   5.788
 4924POPC   C1A64611  18.881  12.286   6.144
 4924POPC   D2A64612  18.838  12.034   6.521
 4924POPC   C3A64613  18.973  12.154   6.925
 4924POPC   C4A64614  18.853  11.920   7.298
 4924POPC   C1B64615  19.189  11.877   6.115
 4924POPC   C2B64616  19.229  11.693   6.522
 4924POPC   C3B64617  19.084  11.675   6.930
 4924POPC   C4B64618  19.254  11.602   7.347
 4925POPC   NC364619   1.848  34.873   5.366
 4925POPC   PO464620   2.372  35.391   5.315
 4925POPC   GL164621   2.194  35.251   5.738
 4925POPC   GL264622   1.925  35.041   5.850
 4925POPC   C1A64623   2.122  35.426   6.157
 4925POPC   D2A64624   2.207  35.361   6.590
 4925POPC   C3A64625   1.933  35.479   6.928
 4925POPC   C4A64626   2.059  35.569   7.326
 4925POPC   C1B64627   1.644  35.237   6.130
 4925POPC   C2B64628   1.722  35.159   6.545
 4925POPC   C3B64629   1.612  35.064   6.949
 4925POPC   C4B64630   1.962  35.000   7.206
 4926POPC   NC364631   9.966  31.141   5.285
 4926POPC   PO464632   9.548  31.671   5.415
 4926POPC   GL164633   9.771  31.595   5.800
 4926POPC   GL264634   9.801  31.941   5.872
 4926POPC   C1A64635   9.641  31.591   6.240
 4926POPC   D2A64636   9.407  31.322   6.464
 4926POPC   C3A64637   9.447  31.364   6.885
 4926POPC   C4A64638   9.365  31.328   7.311
 4926POPC   C1B64639   9.970  31.979   6.265
 4926POPC   C2B64640   9.855  31.851   6.688
 4926POPC   C3B64641  10.056  31.978   7.077
 4926POPC   C4B64642  10.140  31.863   7.535
 4927POPC   NC364643   7.953  37.193   5.659
 4927POPC   PO464644   8.345  36.781   5.346
 4927POPC   GL164645   8.322  36.750   5.787
 4927POPC   GL264646   8.002  36.635   5.829
 4927POPC   C1A64647   8.368  36.494   6.163
 4927POPC   D2A64648   8.156  36.476   6.547
 4927POPC   C3A64649   8.151  36.751   6.866
 4927POPC   C4A64650   8.155  36.679   7.285
 4927POPC   C1B64651   8.032  36.898   6.248
 4927POPC   C2B64652   7.849  37.099   6.639
 4927POPC   C3B64653   7.724  36.948   7.080
 4927POPC   C4B64654   7.881  37.007   7.523
 4928POPC   NC364655   1.671  23.592   5.446
 4928POPC   PO464656   2.287  23.745   5.336
 4928POPC   GL164657   2.084  23.714   5.747
 4928POPC   GL264658   1.986  24.025   5.872
 4928POPC   C1A64659   2.007  23.627   6.202
 4928POPC   D2A64660   1.903  23.791   6.626
 4928POPC   C3A64661   2.060  23.541   6.932
 4928POPC   C4A64662   2.321  23.622   7.241
 4928POPC   C1B64663   2.195  24.130   6.246
 4928POPC   C2B64664   2.169  24.238   6.688
 4928POPC   C3B64665   2.024  24.046   7.090
 4928POPC   C4B64666   1.810  24.076   7.525
 4929POPC   NC364667  38.254  19.213   5.400
 4929POPC   PO464668  38.830  19.031   5.592
 4929POPC   GL164669  38.438  19.042   5.875
 4929POPC   GL264670  38.208  19.384   5.885
 4929POPC   C1A64671  38.303  18.841   6.291
 4929POPC   D2A64672  38.411  19.013   6.720
 4929POPC   C3A64673  38.207  18.867   7.125
 4929POPC   C4A64674  38.391  18.784   7.568
 4929POPC   C1B64675  38.347  19.351   6.330
 4929POPC   C2B64676  38.173  19.460   6.752
 4929POPC   C3B64677  38.231  19.453   7.241
 4929POPC   C4B64678  38.139  19.589   7.681
 4930POPC   NC364679  37.639  38.855   5.543
 4930POPC   PO464680  37.441  38.182   5.432
 4930POPC   GL164681  37.665  38.404   5.799
 4930POPC   GL264682  37.414  38.525   5.941
 4930POPC   C1A64683  37.767  38.573   6.280
 4930POPC   D2A64684  37.912  38.572   6.736
 4930POPC   C3A64685  37.619  38.533   7.080
 4930POPC   C4A64686  37.691  38.363   7.498
 4930POPC   C1B64687  37.397  38.217   6.282
 4930POPC   C2B64688  37.544  38.164   6.715
 4930POPC   C3B64689  37.479  38.001   7.170
 4930POPC   C4B64690  37.520  37.925   7.658
 4931POPC   NC364691   8.026  39.700   5.337
 4931POPC   PO464692   8.330  40.280   5.305
 4931POPC   GL164693   8.239  40.090   5.727
 4931POPC   GL264694   8.350  39.715   5.787
 4931POPC   C1A64695   8.137  39.995   6.166
 4931POPC   D2A64696   8.322  39.985   6.579
 4931POPC   C3A64697   8.108  39.821   6.933
 4931POPC   C4A64698   8.219  39.905   7.371
 4931POPC   C1B64699   8.605  39.724   6.197
 4931POPC   C2B64700   8.757  39.699   6.632
 4931POPC   C3B64701   8.619  39.784   7.062
 4931POPC   C4B64702   8.594  39.653   7.566
 4932POPC   NC364703  26.899  26.887   5.464
 4932POPC   PO464704  27.258  26.503   5.816
 4932POPC   GL164705  26.851  26.566   5.980
 4932POPC   GL264706  26.754  26.909   5.963
 4932POPC   C1A64707  26.825  26.545   6.442
 4932POPC   D2A64708  27.000  26.815   6.784
 4932POPC   C3A64709  26.931  26.626   7.192
 4932POPC   C4A64710  27.074  26.529   7.621
 4932POPC   C1B64711  26.453  26.861   6.315
 4932POPC   C2B64712  26.482  26.882   6.796
 4932POPC   C3B64713  26.721  27.105   7.139
 4932POPC   C4B64714  26.643  27.185   7.608
 4933POPC   NC364715  22.029  25.619   5.545
 4933POPC   PO464716  22.255  26.198   5.544
 4933POPC   GL164717  22.144  25.973   5.891
 4933POPC   GL264718  21.814  26.088   5.953
 4933POPC   C1A64719  22.304  26.049   6.283
 4933POPC   D2A64720  22.168  26.354   6.553
 4933POPC   C3A64721  22.249  26.191   6.919
 4933POPC   C4A64722  22.242  26.297   7.325
 4933POPC   C1B64723  21.855  25.786   6.289
 4933POPC   C2B64724  22.051  25.757   6.698
 4933POPC   C3B64725  22.015  25.791   7.152
 4933POPC   C4B64726  21.697  25.948   7.425
 4934POPC   NC364727  19.920  43.718   5.427
 4934POPC   PO464728  20.046  44.343   5.440
 4934POPC   GL164729  20.114  44.016   5.786
 4934POPC   GL264730  19.809  43.858   5.925
 4934POPC   C1A64731  20.216  43.836   6.210
 4934POPC   D2A64732  19.940  43.781   6.566
 4934POPC   C3A64733  20.059  43.840   7.019
 4934POPC   C4A64734  20.033  43.823   7.500
 4934POPC   C1B64735  19.629  44.099   6.260
 4934POPC   C2B64736  19.463  44.352   6.592
 4934POPC   C3B64737  19.301  44.240   6.984
 4934POPC   C4B64738  19.606  44.000   7.197
 4935POPC   NC364739  14.143  31.883   5.584
 4935POPC   PO464740  14.421  32.470   5.326
 4935POPC   GL164741  14.370  32.321   5.750
 4935POPC   GL264742  14.672  32.161   5.776
 4935POPC   C1A64743  14.242  32.306   6.182
 4935POPC   D2A64744  14.459  32.402   6.567
 4935POPC   C3A64745  14.415  32.257   6.966
 4935POPC   C4A64746  14.213  32.458   7.278
 4935POPC   C1B64747  14.694  32.053   6.233
 4935POPC   C2B64748  14.893  32.096   6.655
 4935POPC   C3B64749  14.863  32.061   7.119
 4935POPC   C4B64750  14.602  32.053   7.477
 4936POPC   NC364751  29.447  12.933   5.454
 4936POPC   PO464752  28.927  12.621   5.332
 4936POPC   GL164753  28.961  12.803   5.746
 4936POPC   GL264754  28.794  12.555   5.965
 4936POPC   C1A64755  29.210  12.960   6.099
 4936POPC   D2A64756  29.379  12.761   6.466
 4936POPC   C3A64757  29.425  13.014   6.802
 4936POPC   C4A64758  29.457  13.054   7.235
 4936POPC   C1B64759  28.784  12.827   6.329
 4936POPC   C2B64760  28.928  12.819   6.711
 4936POPC   C3B64761  29.030  12.826   7.089
 4936POPC   C4B64762  28.826  13.112   7.246
 4937POPC   NC364763  39.714   3.400   5.386
 4937POPC   PO464764  40.154   3.816   5.023
 4937POPC   GL164765  40.212   3.733   5.543
 4937POPC   GL264766  39.913   3.630   5.775
 4937POPC   C1A64767  40.352   3.660   6.037
 4937POPC   D2A64768  40.141   3.453   6.446
 4937POPC   C3A64769  40.210   3.574   6.908
 4937POPC   C4A64770  40.329   3.647   7.334
 4937POPC   C1B64771  39.748   3.351   6.083
 4937POPC   C2B64772  39.601   3.317   6.478
 4937POPC   C3B64773  39.706   3.521   6.842
 4937POPC   C4B64774  39.846   3.367   7.249
 4938POPC   NC364775   5.461  19.896   5.562
 4938POPC   PO464776   6.146  19.787   5.476
 4938POPC   GL164777   6.150  19.865   5.891
 4938POPC   GL264778   5.798  19.776   5.938
 4938POPC   C1A64779   6.063  19.935   6.339
 4938POPC   D2A64780   5.708  20.189   6.516
 4938POPC   C3A64781   5.521  20.103   6.907
 4938POPC   C4A64782   5.803  20.161   7.247
 4938POPC   C1B64783   5.641  19.643   6.362
 4938POPC   C2B64784   5.831  19.729   6.764
 4938POPC   C3B64785   5.930  19.598   7.150
 4938POPC   C4B64786   5.721  19.372   7.474
 4939POPC   NC364787  35.651  14.541   5.519
 4939POPC   PO464788  36.323  14.296   5.543
 4939POPC   GL164789  36.217  14.202   5.930
 4939POPC   GL264790  35.877  14.219   5.847
 4939POPC   C1A64791  36.217  14.263   6.363
 4939POPC   D2A64792  36.110  14.493   6.691
 4939POPC   C3A64793  36.239  14.245   6.962
 4939POPC   C4A64794  36.561  14.088   7.155
 4939POPC   C1B64795  35.792  14.016   6.236
 4939POPC   C2B64796  35.955  13.925   6.655
 4939POPC   C3B64797  35.750  14.092   7.010
 4939POPC   C4B64798  35.844  14.493   7.167
 4940POPC   NC364799  38.446  13.750   5.384
 4940POPC   PO464800  38.735  13.208   5.685
 4940POPC   GL164801  38.605  13.637   5.869
 4940POPC   GL264802  38.289  13.848   5.851
 4940POPC   C1A64803  38.689  13.600   6.297
 4940POPC   D2A64804  38.666  13.351   6.683
 4940POPC   C3A64805  38.506  13.515   7.074
 4940POPC   C4A64806  38.580  13.437   7.519
 4940POPC   C1B64807  38.466  14.048   6.179
 4940POPC   C2B64808  38.548  13.940   6.635
 4940POPC   C3B64809  38.573  14.028   7.060
 4940POPC   C4B64810  38.331  13.895   7.386
 4941POPC   NC364811  23.909   4.821   5.530
 4941POPC   PO464812  23.879   5.466   5.573
 4941POPC   GL164813  23.568   5.340   5.922
 4941POPC   GL264814  23.649   4.990   5.935
 4941POPC   C1A64815  23.400   5.129   6.349
 4941POPC   D2A64816  23.645   4.944   6.703
 4941POPC   C3A64817  23.729   5.164   7.095
 4941POPC   C4A64818  23.880   5.424   7.435
 4941POPC   C1B64819  23.912   5.180   6.297
 4941POPC   C2B64820  24.082   5.243   6.726
 4941POPC   C3B64821  24.251   5.188   7.152
 4941POPC   C4B64822  24.322   5.192   7.604
 4942POPC   NC364823  32.471  30.688   5.429
 4942POPC   PO464824  31.889  30.335   5.542
 4942POPC   GL164825  32.210  30.552   5.839
 4942POPC   GL264826  32.584  30.478   5.882
 4942POPC   C1A64827  32.309  30.705   6.235
 4942POPC   D2A64828  32.020  30.877   6.507
 4942POPC   C3A64829  32.130  30.761   6.899
 4942POPC   C4A64830  31.920  30.858   7.271
 4942POPC   C1B64831  32.745  30.378   6.281
 4942POPC   C2B64832  32.736  30.651   6.631
 4942POPC   C3B64833  32.702  30.565   7.063
 4942POPC   C4B64834  32.306  30.519   7.305
 4943POPC   NC364835  22.885  38.842   5.287
 4943POPC   PO464836  23.044  38.196   5.520
 4943POPC   GL164837  22.930  38.592   5.735
 4943POPC   GL264838  22.561  38.670   5.673
 4943POPC   C1A64839  23.010  38.630   6.171
 4943POPC   D2A64840  22.990  38.247   6.455
 4943POPC   C3A64841  22.962  38.335   6.886
 4943POPC   C4A64842  23.132  38.586   7.185
 4943POPC   C1B64843  22.506  38.540   6.106
 4943POPC   C2B64844  22.638  38.639   6.543
 4943POPC   C3B64845  22.539  38.581   6.983
 4943POPC   C4B64846  22.671  38.822   7.307
 4944POPC   NC364847  20.094  38.673   5.488
 4944POPC   PO464848  19.650  38.177   5.520
 4944POPC   GL164849  19.742  38.288   5.900
 4944POPC   GL264850  19.761  38.588   5.868
 4944POPC   C1A64851  19.551  38.462   6.293
 4944POPC   D2A64852  19.470  38.307   6.662
 4944POPC   C3A64853  19.756  38.516   6.957
 4944POPC   C4A64854  19.710  38.381   7.418
 4944POPC   C1B64855  20.043  38.727   6.158
 4944POPC   C2B64856  19.963  38.862   6.555
 4944POPC   C3B64857  20.206  38.785   6.888
 4944POPC   C4B64858  20.062  38.747   7.286
 4945POPC   NC364859   6.956  10.773   5.263
 4945POPC   PO464860   6.714  10.179   5.323
 4945POPC   GL164861   6.655  10.538   5.639
 4945POPC   GL264862   6.989  10.547   5.740
 4945POPC   C1A64863   6.448  10.670   6.068
 4945POPC   D2A64864   6.392  10.345   6.432
 4945POPC   C3A64865   6.470  10.416   6.904
 4945POPC   C4A64866   6.406  10.713   7.254
 4945POPC   C1B64867   6.861  10.392   6.146
 4945POPC   C2B64868   6.869  10.532   6.581
 4945POPC   C3B64869   6.969  10.524   7.037
 4945POPC   C4B64870   6.861  10.436   7.484
 4946POPC   NC364871  39.550  26.261   5.358
 4946POPC   PO464872  39.017  26.132   5.462
 4946POPC   GL164873  39.185  26.032   5.871
 4946POPC   GL264874  39.094  25.683   5.803
 4946POPC   C1A64875  39.337  26.149   6.327
 4946POPC   D2A64876  39.526  26.051   6.747
 4946POPC   C3A64877  39.229  26.038   7.116
 4946POPC   C4A64878  38.994  26.376   7.305
 4946POPC   C1B64879  39.189  25.669   6.256
 4946POPC   C2B64880  39.056  25.843   6.671
 4946POPC   C3B64881  38.742  25.942   7.007
 4946POPC   C4B64882  38.865  25.911   7.458
 4947POPC   NC364883   3.395   2.295   5.406
 4947POPC   PO464884   3.420   1.595   5.385
 4947POPC   GL164885   3.683   1.848   5.656
 4947POPC   GL264886   3.575   2.150   5.866
 4947POPC   C1A64887   3.768   1.705   6.067
 4947POPC   D2A64888   3.592   1.908   6.426
 4947POPC   C3A64889   3.736   1.754   6.813
 4947POPC   C4A64890   3.724   2.041   7.167
 4947POPC   C1B64891   3.183   2.188   6.108
 4947POPC   C2B64892   3.176   2.327   6.526
 4947POPC   C3B64893   3.292   2.089   6.874
 4947POPC   C4B64894   3.260   2.230   7.288
 4948POPC   NC364895  22.090  12.485   5.583
 4948POPC   PO464896  22.465  11.874   5.421
 4948POPC   GL164897  22.277  11.975   5.827
 4948POPC   GL264898  21.966  11.807   5.825
 4948POPC   C1A64899  22.388  12.160   6.251
 4948POPC   D2A64900  22.301  12.474   6.628
 4948POPC   C3A64901  22.315  12.280   7.042
 4948POPC   C4A64902  22.435  11.852   7.118
 4948POPC   C1B64903  21.819  11.855   6.230
 4948POPC   C2B64904  22.029  11.990   6.576
 4948POPC   C3B64905  21.930  11.960   6.954
 4948POPC   C4B64906  21.639  11.753   7.154
 4949POPC   NC364907  34.814  22.371   5.509
 4949POPC   PO464908  34.302  21.940   5.510
 4949POPC   GL164909  34.472  22.045   5.895
 4949POPC   GL264910  34.853  22.091   5.944
 4949POPC   C1A64911  34.254  22.111   6.281
 4949POPC   D2A64912  34.455  22.082   6.658
 4949POPC   C3A64913  34.288  22.307   6.983
 4949POPC   C4A64914  34.446  22.111   7.340
 4949POPC   C1B64915  34.623  22.463   6.173
 4949POPC   C2B64916  34.639  22.553   6.620
 4949POPC   C3B64917  34.801  22.317   7.015
 4949POPC   C4B64918  34.764  22.476   7.451
 4950POPC   NC364919  30.561  23.516   5.167
 4950POPC   PO464920  30.697  22.794   5.268
 4950POPC   GL164921  30.742  22.789   5.708
 4950POPC   GL264922  30.501  22.588   5.856
 4950POPC   C1A64923  30.828  22.955   6.127
 4950POPC   D2A64924  31.006  22.856   6.546
 4950POPC   C3A64925  30.861  23.123   6.889
 4950POPC   C4A64926  30.491  23.102   7.142
 4950POPC   C1B64927  30.406  22.695   6.259
 4950POPC   C2B64928  30.476  22.882   6.638
 4950POPC   C3B64929  30.219  22.717   6.940
 4950POPC   C4B64930  30.259  22.619   7.351
 4951POPC   NC364931   5.252  14.507   5.471
 4951POPC   PO464932   4.614  14.714   5.487
 4951POPC   GL164933   4.850  14.536   5.784
 4951POPC   GL264934   4.853  14.194   5.688
 4951POPC   C1A64935   5.133  14.571   6.134
 4951POPC   D2A64936   5.359  14.384   6.477
 4951POPC   C3A64937   5.105  14.429   6.842
 4951POPC   C4A64938   5.077  14.633   7.223
 4951POPC   C1B64939   4.860  14.085   6.128
 4951POPC   C2B64940   5.060  13.959   6.513
 4951POPC   C3B64941   5.339  13.986   6.853
 4951POPC   C4B64942   5.266  14.130   7.261
 4952POPC   NC364943  17.388  38.248   5.342
 4952POPC   PO464944  17.553  38.868   5.512
 4952POPC   GL164945  17.415  38.524   5.809
 4952POPC   GL264946  17.603  38.165   5.797
 4952POPC   C1A64947  17.554  38.523   6.257
 4952POPC   D2A64948  17.888  38.423   6.603
 4952POPC   C3A64949  17.766  38.364   7.074
 4952POPC   C4A64950  17.503  38.681   7.313
 4952POPC   C1B64951  17.410  38.022   6.181
 4952POPC   C2B64952  17.368  38.199   6.600
 4952POPC   C3B64953  17.270  38.425   6.949
 4952POPC   C4B64954  17.288  38.211   7.351
 4953POPC   NC364955  20.416  25.744   5.400
 4953POPC   PO464956  20.532  26.399   5.352
 4953POPC   GL164957  20.455  26.139   5.730
 4953POPC   GL264958  20.742  25.945   5.811
 4953POPC   C1A64959  20.414  26.247   6.169
 4953POPC   D2A64960  20.584  26.388   6.552
 4953POPC   C3A64961  20.528  26.117   6.916
 4953POPC   C4A64962  20.278  26.178   7.237
 4953POPC   C1B64963  20.573  25.760   6.170
 4953POPC   C2B64964  20.389  25.785   6.571
 4953POPC   C3B64965  20.288  25.675   7.036
 4953POPC   C4B64966  20.471  25.782   7.479
 4954POPC   NC364967  42.224   3.969   5.352
 4954POPC   PO464968  42.401   3.315   5.410
 4954POPC   GL164969  42.437   3.630   5.724
 4954POPC   GL264970  42.731   3.883   5.731
 4954POPC   C1A64971  42.242   3.473   6.115
 4954POPC   D2A64972  42.207   3.231   6.491
 4954POPC   C3A64973  42.093   3.524   6.795
 4954POPC   C4A64974  42.092   3.558   7.234
 4954POPC   C1B64975  42.707   3.675   6.157
 4954POPC   C2B64976  42.546   3.675   6.591
 4954POPC   C3B64977  42.598   3.608   7.058
 4954POPC   C4B64978  42.482   3.787   7.478
 4955POPC   NC364979  32.439  26.441   5.385
 4955POPC   PO464980  32.561  25.857   5.190
 4955POPC   GL164981  32.454  26.009   5.682
 4955POPC   GL264982  32.677  26.220   5.818
 4955POPC   C1A64983  32.177  26.059   6.098
 4955POPC   D2A64984  31.976  25.851   6.472
 4955POPC   C3A64985  32.118  26.040   6.832
 4955POPC   C4A64986  32.210  25.880   7.173
 4955POPC   C1B64987  32.677  26.081   6.229
 4955POPC   C2B64988  32.463  26.307   6.560
 4955POPC   C3B64989  32.595  26.292   6.980
 4955POPC   C4B64990  32.689  25.951   7.264
 4956POPC   NC364991   0.878   3.256   5.302
 4956POPC   PO464992   1.180   3.873   5.295
 4956POPC   GL164993   1.000   3.639   5.651
 4956POPC   GL264994   1.083   3.319   5.767
 4956POPC   C1A64995   1.025   3.673   6.129
 4956POPC   D2A64996   1.224   3.600   6.546
 4956POPC   C3A64997   1.182   3.740   6.991
 4956POPC   C4A64998   1.515   3.582   7.272
 4956POPC   C1B64999   1.277   3.202   6.154
 4956POPC   C2B65000   1.091   3.099   6.536
 4956POPC   C3B65001   1.229   3.214   6.923
 4956POPC   C4B65002   1.059   3.318   7.291
 4957POPC   NC365003   1.652  31.833   5.350
 4957POPC   PO465004   2.112  31.310   5.109
 4957POPC   GL165005   2.078  31.342   5.619
 4957POPC   GL265006   1.716  31.400   5.718
 4957POPC   C1A65007   2.088  31.426   6.086
 4957POPC   D2A65008   2.087  31.703   6.486
 4957POPC   C3A65009   2.131  31.565   6.940
 4957POPC   C4A65010   2.161  31.810   7.329
 4957POPC   C1B65011   1.587  31.232   6.156
 4957POPC   C2B65012   1.620  31.137   6.632
 4957POPC   C3B65013   1.696  31.281   7.082
 4957POPC   C4B65014   1.878  31.405   7.500
 4958POPC   NC365015  22.291  14.656   5.547
 4958POPC   PO465016  21.897  14.150   5.326
 4958POPC   GL165017  22.035  14.161   5.766
 4958POPC   GL265018  21.952  14.444   5.830
 4958POPC   C1A65019  22.315  14.350   6.154
 4958POPC   D2A65020  22.554  14.442   6.554
 4958POPC   C3A65021  22.346  14.448   6.970
 4958POPC   C4A65022  22.492  14.294   7.412
 4958POPC   C1B65023  21.805  14.238   6.208
 4958POPC   C2B65024  21.966  14.345   6.603
 4958POPC   C3B65025  21.807  14.228   6.989
 4958POPC   C4B65026  22.000  14.349   7.324
 4959POPC   NC365027   0.289   2.496   5.576
 4959POPC   PO465028   0.839   2.792   5.253
 4959POPC   GL165029   0.739   2.854   5.703
 4959POPC   GL265030   0.587   3.170   5.738
 4959POPC   C1A65031   0.476   2.788   6.129
 4959POPC   D2A65032   0.257   2.674   6.547
 4959POPC   C3A65033   0.488   2.672   6.931
 4959POPC   C4A65034   0.646   2.385   7.231
 4959POPC   C1B65035   0.744   3.229   6.156
 4959POPC   C2B65036   0.576   3.093   6.547
 4959POPC   C3B65037   0.722   3.121   6.943
 4959POPC   C4B65038   0.594   3.097   7.315
 4960POPC   NC365039  34.646  40.395   5.341
 4960POPC   PO465040  34.672  39.741   5.403
 4960POPC   GL165041  34.650  40.030   5.744
 4960POPC   GL265042  34.965  40.186   5.719
 4960POPC   C1A65043  34.433  40.247   6.118
 4960POPC   D2A65044  34.318  40.375   6.554
 4960POPC   C3A65045  34.334  40.037   6.853
 4960POPC   C4A65046  34.443  40.024   7.264
 4960POPC   C1B65047  34.954  40.106   6.154
 4960POPC   C2B65048  34.752  40.068   6.549
 4960POPC   C3B65049  34.838  40.141   6.978
 4960POPC   C4B65050  35.193  40.229   7.222
 4961POPC   NC365051   4.446  44.024   5.430
 4961POPC   PO465052   4.077  43.424   5.497
 4961POPC   GL165053   4.216  43.677   5.831
 4961POPC   GL265054   4.521  43.894   5.888
 4961POPC   C1A65055   4.323  43.598   6.246
 4961POPC   D2A65056   4.113  43.569   6.647
 4961POPC   C3A65057   4.363  43.633   6.983
 4961POPC   C4A65058   4.182  43.700   7.368
 4961POPC   C1B65059   4.261  44.101   6.162
 4961POPC   C2B65060   4.318  44.011   6.554
 4961POPC   C3B65061   4.636  44.060   6.886
 4961POPC   C4B65062   4.563  44.018   7.289
 4962POPC   NC365063  21.456  39.238   5.440
 4962POPC   PO465064  20.815  38.945   5.454
 4962POPC   GL165065  21.103  39.117   5.806
 4962POPC   GL265066  21.419  39.359   5.923
 4962POPC   C1A65067  21.100  39.141   6.247
 4962POPC   D2A65068  21.096  38.976   6.641
 4962POPC   C3A65069  21.223  39.265   6.916
 4962POPC   C4A65070  21.038  39.226   7.272
 4962POPC   C1B65071  21.612  39.023   6.165
 4962POPC   C2B65072  21.777  39.005   6.609
 4962POPC   C3B65073  21.647  39.004   7.068
 4962POPC   C4B65074  21.569  39.360   7.321
 4963POPC   NC365075  22.257   7.857   5.597
 4963POPC   PO465076  22.499   7.261   5.243
 4963POPC   GL165077  22.307   7.157   5.687
 4963POPC   GL265078  22.381   7.438   5.850
 4963POPC   C1A65079  22.174   7.091   6.142
 4963POPC   D2A65080  22.210   7.220   6.586
 4963POPC   C3A65081  21.992   7.491   6.881
 4963POPC   C4A65082  21.833   7.408   7.304
 4963POPC   C1B65083  22.267   7.617   6.232
 4963POPC   C2B65084  22.592   7.680   6.505
 4963POPC   C3B65085  22.579   7.682   6.930
 4963POPC   C4B65086  22.318   7.566   7.267
 4964POPC   NC365087  16.367  43.893   5.628
 4964POPC   PO465088  16.877  44.077   5.285
 4964POPC   GL165089  16.876  43.892   5.682
 4964POPC   GL265090  16.745  44.168   5.804
 4964POPC   C1A65091  16.829  43.774   6.130
 4964POPC   D2A65092  16.587  43.624   6.493
 4964POPC   C3A65093  16.693  43.788   6.868
 4964POPC   C4A65094  16.763  43.916   7.257
 4964POPC   C1B65095  16.964  44.269   6.114
 4964POPC   C2B65096  16.909  44.150   6.510
 4964POPC   C3B65097  16.822  44.349   6.862
 4964POPC   C4B65098  17.010  44.343   7.225
 4965POPC   NC365099  21.075   1.443   5.446
 4965POPC   PO465100  21.703   1.140   5.373
 4965POPC   GL165101  21.398   1.164   5.732
 4965POPC   GL265102  21.086   0.954   5.697
 4965POPC   C1A65103  21.356   1.286   6.164
 4965POPC   D2A65104  21.366   1.552   6.546
 4965POPC   C3A65105  21.512   1.287   6.883
 4965POPC   C4A65106  21.631   1.373   7.289
 4965POPC   C1B65107  20.854   1.123   6.053
 4965POPC   C2B65108  20.951   1.233   6.483
 4965POPC   C3B65109  21.010   1.373   6.900
 4965POPC   C4B65110  21.177   1.035   7.183
 4966POPC   NC365111   3.889  20.823   5.351
 4966POPC   PO465112   4.321  20.281   5.256
 4966POPC   GL165113   4.529  20.497   5.618
 4966POPC   GL265114   4.254  20.728   5.735
 4966POPC   C1A65115   4.581  20.497   6.104
 4966POPC   D2A65116   4.461  20.636   6.546
 4966POPC   C3A65117   4.538  20.432   6.948
 4966POPC   C4A65118   4.470  20.609   7.371
 4966POPC   C1B65119   4.084  20.635   6.154
 4966POPC   C2B65120   3.920  20.709   6.552
 4966POPC   C3B65121   4.104  20.731   6.967
 4966POPC   C4B65122   3.839  20.712   7.285
 4967POPC   NC365123   0.157  13.804   5.416
 4967POPC   PO465124  44.646  13.318   5.137
 4967POPC   GL165125  44.727  13.277   5.605
 4967POPC   GL265126  44.580  13.577   5.726
 4967POPC   C1A65127  44.643  13.238   6.096
 4967POPC   D2A65128  44.586  13.135   6.548
 4967POPC   C3A65129  44.695  13.395   6.891
 4967POPC   C4A65130  44.734  13.291   7.307
 4967POPC   C1B65131  44.536  13.753   6.127
 4967POPC   C2B65132  44.404  13.614   6.521
 4967POPC   C3B65133  44.371  13.814   6.888
 4967POPC   C4B65134  44.450  13.699   7.268
 4968POPC   NC365135  26.158   7.727   5.580
 4968POPC   PO465136  25.786   8.199   5.185
 4968POPC   GL165137  25.759   8.257   5.664
 4968POPC   GL265138  26.011   8.102   5.882
 4968POPC   C1A65139  25.847   8.561   6.041
 4968POPC   D2A65140  25.934   8.557   6.492
 4968POPC   C3A65141  25.662   8.439   6.860
 4968POPC   C4A65142  25.837   8.226   7.238
 4968POPC   C1B65143  26.109   8.009   6.307
 4968POPC   C2B65144  26.143   8.153   6.752
 4968POPC   C3B65145  26.330   8.066   7.145
 4968POPC   C4B65146  26.180   7.865   7.525
 4969POPC   NC365147  37.139   5.417   5.366
 4969POPC   PO465148  36.552   5.067   5.485
 4969POPC   GL165149  36.931   5.126   5.770
 4969POPC   GL265150  37.057   4.823   5.929
 4969POPC   C1A65151  37.101   5.270   6.188
 4969POPC   D2A65152  36.828   5.244   6.585
 4969POPC   C3A65153  36.950   5.345   7.002
 4969POPC   C4A65154  37.021   5.026   7.368
 4969POPC   C1B65155  36.718   4.927   6.205
 4969POPC   C2B65156  36.487   4.834   6.581
 4969POPC   C3B65157  36.661   4.903   6.973
 4969POPC   C4B65158  36.758   4.592   7.241
 4970POPC   NC365159   5.540  30.311   5.499
 4970POPC   PO465160   5.968  30.739   5.304
 4970POPC   GL165161   5.736  30.923   5.645
 4970POPC   GL265162   5.703  30.629   5.863
 4970POPC   C1A65163   5.741  31.063   6.104
 4970POPC   D2A65164   5.627  30.901   6.488
 4970POPC   C3A65165   5.734  31.066   6.891
 4970POPC   C4A65166   5.624  30.942   7.332
 4970POPC   C1B65167   5.734  30.425   6.279
 4970POPC   C2B65168   5.582  30.340   6.711
 4970POPC   C3B65169   5.705  30.445   7.148
 4970POPC   C4B65170   6.068  30.417   7.456
 4971POPC   NC365171   2.448  34.110   5.313
 4971POPC   PO465172   3.180  34.060   5.251
 4971POPC   GL165173   2.960  33.854   5.647
 4971POPC   GL265174   2.610  33.934   5.766
 4971POPC   C1A65175   2.943  33.810   6.133
 4971POPC   D2A65176   2.580  33.696   6.437
 4971POPC   C3A65177   2.737  33.559   6.848
 4971POPC   C4A65178   3.041  33.791   7.116
 4971POPC   C1B65179   2.566  34.172   6.157
 4971POPC   C2B65180   2.453  34.206   6.590
 4971POPC   C3B65181   2.589  34.065   7.006
 4971POPC   C4B65182   2.378  34.106   7.403
 4972POPC   NC365183  41.093   5.775   5.518
 4972POPC   PO465184  41.659   6.084   5.416
 4972POPC   GL165185  41.620   6.045   5.844
 4972POPC   GL265186  41.375   5.756   5.937
 4972POPC   C1A65187  41.521   6.125   6.264
 4972POPC   D2A65188  41.530   5.891   6.654
 4972POPC   C3A65189  41.484   6.131   7.038
 4972POPC   C4A65190  41.402   6.098   7.510
 4972POPC   C1B65191  41.757   5.670   6.186
 4972POPC   C2B65192  41.894   5.502   6.586
 4972POPC   C3B65193  41.886   5.688   6.983
 4972POPC   C4B65194  41.550   5.693   7.274
 4973POPC   NC365195  13.686  24.258   5.035
 4973POPC   PO465196  13.297  24.429   5.563
 4973POPC   GL165197  13.276  24.279   5.915
 4973POPC   GL265198  13.593  24.232   6.056
 4973POPC   C1A65199  13.270  24.583   6.202
 4973POPC   D2A65200  13.532  24.536   6.513
 4973POPC   C3A65201  13.347  24.478   6.868
 4973POPC   C4A65202  13.561  24.584   7.224
 4973POPC   C1B65203  13.933  23.991   6.160
 4973POPC   C2B65204  14.005  23.935   6.572
 4973POPC   C3B65205  13.838  24.233   6.858
 4973POPC   C4B65206  13.935  24.138   7.266
 4974POPC   NC365207  39.963   7.070   5.454
 4974POPC   PO465208  39.904   7.784   5.624
 4974POPC   GL165209  40.051   7.394   5.848
 4974POPC   GL265210  39.798   7.102   5.936
 4974POPC   C1A65211  40.171   7.361   6.273
 4974POPC   D2A65212  39.997   7.410   6.679
 4974POPC   C3A65213  40.172   7.356   7.066
 4974POPC   C4A65214  40.024   7.712   7.278
 4974POPC   C1B65215  39.660   7.410   6.194
 4974POPC   C2B65216  39.507   7.403   6.569
 4974POPC   C3B65217  39.582   7.579   6.968
 4974POPC   C4B65218  39.685   7.317   7.317
 4975POPC   NC365219  20.273  29.993   5.398
 4975POPC   PO465220  20.530  29.430   5.374
 4975POPC   GL165221  20.682  29.797   5.678
 4975POPC   GL265222  20.399  29.868   5.896
 4975POPC   C1A65223  20.793  30.122   6.061
 4975POPC   D2A65224  20.693  29.953   6.484
 4975POPC   C3A65225  20.756  30.002   6.926
 4975POPC   C4A65226  20.777  29.655   7.171
 4975POPC   C1B65227  20.289  30.140   6.257
 4975POPC   C2B65228  20.360  30.255   6.731
 4975POPC   C3B65229  20.339  30.170   7.206
 4975POPC   C4B65230  20.345  30.295   7.665
 4976POPC   NC365231  35.070  39.666   5.155
 4976POPC   PO465232  35.170  39.101   5.492
 4976POPC   GL165233  35.351  39.016   5.848
 4976POPC   GL265234  35.103  38.758   5.928
 4976POPC   C1A65235  35.561  39.298   6.152
 4976POPC   D2A65236  35.662  39.235   6.579
 4976POPC   C3A65237  35.582  39.531   6.867
 4976POPC   C4A65238  35.503  39.438   7.286
 4976POPC   C1B65239  35.145  39.040   6.305
 4976POPC   C2B65240  35.119  39.383   6.596
 4976POPC   C3B65241  35.082  39.258   7.006
 4976POPC   C4B65242  34.912  39.355   7.380
 4977POPC   NC365243  23.460   6.652   5.369
 4977POPC   PO465244  23.316   6.114   5.703
 4977POPC   GL165245  23.522   6.474   5.835
 4977POPC   GL265246  23.839   6.666   5.713
 4977POPC   C1A65247  23.576   6.609   6.199
 4977POPC   D2A65248  23.621   6.555   6.619
 4977POPC   C3A65249  23.477   6.913   6.836
 4977POPC   C4A65250  23.502   6.749   7.215
 4977POPC   C1B65251  24.001   6.879   6.070
 4977POPC   C2B65252  24.051   6.783   6.480
 4977POPC   C3B65253  23.976   6.808   6.906
 4977POPC   C4B65254  23.852   7.108   7.181
 4978POPC   NC365255  15.203  41.881   5.619
 4978POPC   PO465256  15.375  41.351   5.203
 4978POPC   GL165257  15.378  41.384   5.706
 4978POPC   GL265258  15.072  41.482   5.920
 4978POPC   C1A65259  15.560  41.395   6.159
 4978POPC   D2A65260  15.481  41.561   6.604
 4978POPC   C3A65261  15.539  41.326   7.016
 4978POPC   C4A65262  15.225  41.237   7.350
 4978POPC   C1B65263  14.891  41.681   6.277
 4978POPC   C2B65264  15.021  41.850   6.658
 4978POPC   C3B65265  15.188  41.704   7.019
 4978POPC   C4B65266  15.091  41.735   7.419
 4979POPC   NC365267  31.439  30.396   5.496
 4979POPC   PO465268  31.223  31.006   5.440
 4979POPC   GL165269  31.440  30.911   5.839
 4979POPC   GL265270  31.704  30.685   5.851
 4979POPC   C1A65271  31.538  30.857   6.294
 4979POPC   D2A65272  31.322  30.666   6.600
 4979POPC   C3A65273  31.498  30.778   6.976
 4979POPC   C4A65274  31.472  30.647   7.385
 4979POPC   C1B65275  31.856  30.448   6.235
 4979POPC   C2B65276  31.797  30.431   6.693
 4979POPC   C3B65277  31.834  30.343   7.150
 4979POPC   C4B65278  31.893  30.421   7.600
 4980POPC   NC365279   4.438  18.451   5.442
 4980POPC   PO465280   4.451  17.824   5.321
 4980POPC   GL165281   4.376  17.999   5.705
 4980POPC   GL265282   4.027  18.070   5.672
 4980POPC   C1A65283   4.538  18.000   6.129
 4980POPC   D2A65284   4.347  18.109   6.516
 4980POPC   C3A65285   4.486  17.981   6.896
 4980POPC   C4A65286   4.378  18.154   7.250
 4980POPC   C1B65287   4.041  18.189   6.105
 4980POPC   C2B65288   4.079  18.530   6.438
 4980POPC   C3B65289   4.132  18.417   6.886
 4980POPC   C4B65290   4.180  18.598   7.330
 4981POPC   NC365291  41.616  43.301   5.457
 4981POPC   PO465292  41.482  42.698   5.498
 4981POPC   GL165293  41.445  42.997   5.818
 4981POPC   GL265294  41.167  43.166   5.680
 4981POPC   C1A65295  41.654  43.162   6.175
 4981POPC   D2A65296  41.806  42.988   6.571
 4981POPC   C3A65297  41.803  43.269   6.923
 4981POPC   C4A65298  41.766  43.211   7.353
 4981POPC   C1B65299  41.132  43.292   6.114
 4981POPC   C2B65300  41.295  43.241   6.547
 4981POPC   C3B65301  41.328  43.021   6.942
 4981POPC   C4B65302  41.262  43.154   7.361
 4982POPC   NC365303  26.692  15.119   5.385
 4982POPC   PO465304  27.267  15.454   5.447
 4982POPC   GL165305  27.012  15.209   5.785
 4982POPC   GL265306  26.669  15.114   5.907
 4982POPC   C1A65307  27.058  14.964   6.194
 4982POPC   D2A65308  26.833  15.034   6.604
 4982POPC   C3A65309  26.857  14.952   7.063
 4982POPC   C4A65310  26.450  14.958   7.282
 4982POPC   C1B65311  26.814  15.413   6.240
 4982POPC   C2B65312  26.659  15.545   6.636
 4982POPC   C3B65313  26.529  15.402   7.016
 4982POPC   C4B65314  26.733  15.367   7.399
 4983POPC   NC365315  26.997  15.747   5.692
 4983POPC   PO465316  27.516  15.866   5.180
 4983POPC   GL165317  27.542  15.836   5.667
 4983POPC   GL265318  27.829  16.083   5.763
 4983POPC   C1A65319  27.593  15.838   6.149
 4983POPC   D2A65320  27.912  15.857   6.513
 4983POPC   C3A65321  27.776  15.723   6.930
 4983POPC   C4A65322  27.533  15.876   7.272
 4983POPC   C1B65323  27.817  16.305   6.186
 4983POPC   C2B65324  27.731  16.321   6.644
 4983POPC   C3B65325  27.901  16.181   7.087
 4983POPC   C4B65326  27.786  16.201   7.570
 4984POPC   NC365327  20.405  12.415   5.391
 4984POPC   PO465328  20.723  11.864   5.412
 4984POPC   GL165329  20.688  12.152   5.732
 4984POPC   GL265330  20.347  12.027   5.787
 4984POPC   C1A65331  20.597  12.353   6.104
 4984POPC   D2A65332  20.333  12.415   6.460
 4984POPC   C3A65333  20.467  12.306   6.860
 4984POPC   C4A65334  20.286  12.507   7.228
 4984POPC   C1B65335  20.566  11.850   6.171
 4984POPC   C2B65336  20.558  11.837   6.633
 4984POPC   C3B65337  20.612  11.775   7.044
 4984POPC   C4B65338  20.338  11.985   7.228
 4985POPC   NC365339  29.277   9.316   5.529
 4985POPC   PO465340  28.874   8.789   5.296
 4985POPC   GL165341  28.872   8.902   5.773
 4985POPC   GL265342  29.198   8.977   5.910
 4985POPC   C1A65343  28.791   8.995   6.230
 4985POPC   D2A65344  28.969   8.792   6.580
 4985POPC   C3A65345  28.966   8.837   7.002
 4985POPC   C4A65346  29.370   8.793   7.153
 4985POPC   C1B65347  29.216   9.325   6.223
 4985POPC   C2B65348  29.052   9.319   6.632
 4985POPC   C3B65349  29.265   9.304   7.006
 4985POPC   C4B65350  29.367   9.613   7.250
 4986POPC   NC365351  29.311  35.936   5.389
 4986POPC   PO465352  29.294  35.223   5.254
 4986POPC   GL165353  29.273  35.304   5.721
 4986POPC   GL265354  29.141  35.631   5.804
 4986POPC   C1A65355  29.195  35.261   6.195
 4986POPC   D2A65356  29.363  35.248   6.616
 4986POPC   C3A65357  29.247  35.320   7.072
 4986POPC   C4A65358  29.466  35.526   7.439
 4986POPC   C1B65359  28.866  35.629   6.186
 4986POPC   C2B65360  28.895  35.488   6.617
 4986POPC   C3B65361  28.946  35.724   7.011
 4986POPC   C4B65362  28.635  35.709   7.293
 4987POPC   NC365363  34.046  26.200   5.364
 4987POPC   PO465364  33.482  25.823   5.483
 4987POPC   GL165365  33.697  26.126   5.740
 4987POPC   GL265366  33.992  25.903   5.787
 4987POPC   C1A65367  33.935  26.299   6.097
 4987POPC   D2A65368  33.906  26.403   6.525
 4987POPC   C3A65369  33.957  26.134   6.888
 4987POPC   C4A65370  33.727  26.196   7.259
 4987POPC   C1B65371  33.679  25.801   6.140
 4987POPC   C2B65372  33.506  25.680   6.572
 4987POPC   C3B65373  33.561  25.781   7.007
 4987POPC   C4B65374  33.937  25.733   7.275
 4988POPC   NC365375  15.232  15.404   5.182
 4988POPC   PO465376  14.712  15.057   5.390
 4988POPC   GL165377  14.985  15.223   5.701
 4988POPC   GL265378  14.995  14.912   5.832
 4988POPC   C1A65379  15.006  15.294   6.162
 4988POPC   D2A65380  15.274  15.533   6.410
 4988POPC   C3A65381  15.283  15.501   6.841
 4988POPC   C4A65382  15.228  15.330   7.213
 4988POPC   C1B65383  15.205  14.808   6.204
 4988POPC   C2B65384  15.301  15.021   6.577
 4988POPC   C3B65385  15.231  14.892   6.978
 4988POPC   C4B65386  15.108  14.624   7.299
 4989POPC   NC365387  27.684  24.701   5.411
 4989POPC   PO465388  27.282  24.202   5.534
 4989POPC   GL165389  27.559  24.424   5.823
 4989POPC   GL265390  27.443  24.761   5.854
 4989POPC   C1A65391  27.726  24.496   6.222
 4989POPC   D2A65392  27.659  24.596   6.626
 4989POPC   C3A65393  27.694  24.303   6.999
 4989POPC   C4A65394  27.915  24.236   7.408
 4989POPC   C1B65395  27.219  24.748   6.261
 4989POPC   C2B65396  27.215  24.834   6.717
 4989POPC   C3B65397  27.518  24.775   7.066
 4989POPC   C4B65398  27.520  24.556   7.429
 4990POPC   NC365399  32.471  15.205   5.256
 4990POPC   PO465400  33.134  15.200   5.418
 4990POPC   GL165401  32.770  15.178   5.694
 4990POPC   GL265402  32.693  14.850   5.794
 4990POPC   C1A65403  32.694  15.349   6.116
 4990POPC   D2A65404  32.846  15.512   6.522
 4990POPC   C3A65405  32.707  15.427   6.947
 4990POPC   C4A65406  32.966  15.285   7.266
 4990POPC   C1B65407  33.013  14.900   6.092
 4990POPC   C2B65408  33.080  14.717   6.493
 4990POPC   C3B65409  33.040  14.918   6.885
 4990POPC   C4B65410  32.805  14.800   7.245
 4991POPC   NC365411  16.486  14.124   5.539
 4991POPC   PO465412  16.965  14.429   5.189
 4991POPC   GL165413  16.833  14.479   5.697
 4991POPC   GL265414  17.015  14.268   5.845
 4991POPC   C1A65415  16.599  14.410   6.168
 4991POPC   D2A65416  16.357  14.322   6.605
 4991POPC   C3A65417  16.574  14.380   7.037
 4991POPC   C4A65418  16.544  14.198   7.474
 4991POPC   C1B65419  17.040  14.134   6.249
 4991POPC   C2B65420  17.032  14.430   6.594
 4991POPC   C3B65421  17.125  14.437   7.028
 4991POPC   C4B65422  17.236  14.249   7.409
 4992POPC   NC365423   8.972  26.023   5.408
 4992POPC   PO465424   9.200  25.421   5.515
 4992POPC   GL165425   9.220  25.748   5.850
 4992POPC   GL265426   9.122  26.110   5.885
 4992POPC   C1A65427   9.073  25.770   6.271
 4992POPC   D2A65428   8.808  25.697   6.639
 4992POPC   C3A65429   8.987  25.943   6.968
 4992POPC   C4A65430   9.241  25.722   7.259
 4992POPC   C1B65431   8.880  26.255   6.256
 4992POPC   C2B65432   8.663  26.196   6.643
 4992POPC   C3B65433   8.577  26.363   7.066
 4992POPC   C4B65434   8.600  26.314   7.543
 4993POPC   NC365435  24.993  38.254   4.967
 4993POPC   PO465436  25.430  38.161   5.463
 4993POPC   GL165437  25.203  38.414   5.757
 4993POPC   GL265438  25.038  38.198   6.007
 4993POPC   C1A65439  25.353  38.616   6.136
 4993POPC   D2A65440  25.373  38.429   6.549
 4993POPC   C3A65441  25.328  38.671   6.895
 4993POPC   C4A65442  25.017  38.735   7.205
 4993POPC   C1B65443  24.896  38.468   6.349
 4993POPC   C2B65444  24.904  38.401   6.805
 4993POPC   C3B65445  25.132  38.234   7.186
 4993POPC   C4B65446  24.918  38.091   7.591
 4994POPC   NC365447  35.013  44.830   5.562
 4994POPC   PO465448  35.649  44.728   5.517
 4994POPC   GL165449  35.445  44.589   5.842
 4994POPC   GL265450  35.491  44.243   5.749
 4994POPC   C1A65451  35.227  44.737   6.208
 4994POPC   D2A65452  35.379  44.883   6.618
 4994POPC   C3A65453  35.200  44.710   7.028
 4994POPC   C4A65454  35.365  44.654   7.462
 4994POPC   C1B65455  35.271  44.226   6.162
 4994POPC   C2B65456  35.343  44.370   6.602
 4994POPC   C3B65457  35.560  44.359   7.006
 4994POPC   C4B65458  35.682  44.248   7.404
 4995POPC   NC365459  30.987  30.274   5.047
 4995POPC   PO465460  30.518  29.846   5.364
 4995POPC   GL165461  30.680  29.815   5.785
 4995POPC   GL265462  30.946  30.062   5.765
 4995POPC   C1A65463  30.673  29.659   6.225
 4995POPC   D2A65464  30.734  29.842   6.627
 4995POPC   C3A65465  30.718  29.669   7.046
 4995POPC   C4A65466  30.356  29.793   7.288
 4995POPC   C1B65467  30.964  30.079   6.216
 4995POPC   C2B65468  30.922  30.328   6.609
 4995POPC   C3B65469  30.819  30.161   7.011
 4995POPC   C4B65470  30.759  30.096   7.431
 4996POPC   NC365471  22.786  11.554   5.314
 4996POPC   PO465472  23.332  11.186   5.641
 4996POPC   GL165473  23.082  11.321   5.929
 4996POPC   GL265474  22.794  11.153   5.787
 4996POPC   C1A65475  23.128  11.143   6.354
 4996POPC   D2A65476  23.185  11.312   6.770
 4996POPC   C3A65477  23.106  11.061   7.117
 4996POPC   C4A65478  23.198  10.933   7.511
 4996POPC   C1B65479  22.653  11.271   6.188
 4996POPC   C2B65480  22.680  11.212   6.608
 4996POPC   C3B65481  22.641  10.953   6.937
 4996POPC   C4B65482  22.622  11.199   7.297
 4997POPC   NC365483  30.168  16.005   5.417
 4997POPC   PO465484  29.545  16.081   5.582
 4997POPC   GL165485  29.650  15.803   5.903
 4997POPC   GL265486  29.997  15.898   5.878
 4997POPC   C1A65487  29.796  15.726   6.311
 4997POPC   D2A65488  30.024  15.954   6.606
 4997POPC   C3A65489  29.849  15.814   7.021
 4997POPC   C4A65490  29.731  15.837   7.463
 4997POPC   C1B65491  30.335  15.738   6.121
 4997POPC   C2B65492  30.523  15.786   6.536
 4997POPC   C3B65493  30.373  15.802   6.956
 4997POPC   C4B65494  30.216  15.930   7.350
 4998POPC   NC365495  37.106   8.213   5.360
 4998POPC   PO465496  36.635   7.952   5.452
 4998POPC   GL165497  36.893   8.168   5.834
 4998POPC   GL265498  37.167   8.450   5.837
 4998POPC   C1A65499  36.990   8.146   6.303
 4998POPC   D2A65500  36.924   7.966   6.734
 4998POPC   C3A65501  36.922   8.168   7.153
 4998POPC   C4A65502  36.720   8.267   7.568
 4998POPC   C1B65503  37.166   8.616   6.303
 4998POPC   C2B65504  37.004   8.506   6.737
 4998POPC   C3B65505  37.090   8.641   7.168
 4998POPC   C4B65506  37.327   8.501   7.535
 4999POPC   NC365507  20.767  44.732   5.129
 4999POPC   PO465508  21.379  44.741   5.423
 4999POPC   GL165509  21.397  44.582   5.839
 4999POPC   GL265510  21.101  44.458   5.859
 4999POPC   C1A65511  21.556  44.709   6.239
 4999POPC   D2A65512  21.745  44.573   6.607
 4999POPC   C3A65513  21.534  44.663   6.985
 4999POPC   C4A65514  21.614  44.885   7.345
 4999POPC   C1B65515  21.047  44.687   6.236
 4999POPC   C2B65516  21.165  44.788   6.621
 4999POPC   C3B65517  21.032  44.706   7.022
 4999POPC   C4B65518  21.191  44.609   7.433
 5000POPC   NC365519  24.348  20.934   5.355
 5000POPC   PO465520  24.816  20.585   5.447
 5000POPC   GL165521  24.431  20.608   5.735
 5000POPC   GL265522  24.302  20.317   5.863
 5000POPC   C1A65523  24.430  20.808   6.164
 5000POPC   D2A65524  24.783  20.702   6.492
 5000POPC   C3A65525  24.699  20.479   6.882
 5000POPC   C4A65526  24.440  20.585   7.216
 5000POPC   C1B65527  24.514  20.316   6.239
 5000POPC   C2B65528  24.284  20.441   6.601
 5000POPC   C3B65529  24.119  20.274   6.997
 5000POPC   C4B65530  24.038  20.394   7.472
 5001POPC   NC365531  41.671  10.954   5.387
 5001POPC   PO465532  41.761  11.591   5.454
 5001POPC   GL165533  41.553  11.295   5.802
 5001POPC   GL265534  41.322  10.974   5.798
 5001POPC   C1A65535  41.403  11.369   6.233
 5001POPC   D2A65536  41.219  11.518   6.636
 5001POPC   C3A65537  41.494  11.589   6.994
 5001POPC   C4A65538  41.634  11.406   7.416
 5001POPC   C1B65539  41.388  10.805   6.242
 5001POPC   C2B65540  41.551  11.039   6.601
 5001POPC   C3B65541  41.695  11.118   7.001
 5001POPC   C4B65542  41.481  10.900   7.297
 5002POPC   NC365543  38.870   3.799   5.810
 5002POPC   PO465544  39.349   3.699   5.360
 5002POPC   GL165545  39.344   3.532   5.775
 5002POPC   GL265546  39.456   3.773   6.009
 5002POPC   C1A65547  39.207   3.213   6.087
 5002POPC   D2A65548  38.980   3.118   6.475
 5002POPC   C3A65549  39.185   3.334   6.807
 5002POPC   C4A65550  39.332   3.561   7.188
 5002POPC   C1B65551  39.211   3.638   6.364
 5002POPC   C2B65552  39.046   3.858   6.680
 5002POPC   C3B65553  39.040   4.140   6.957
 5002POPC   C4B65554  39.043   3.963   7.326
 5003POPC   NC365555   0.383  32.951   5.608
 5003POPC   PO465556   0.802  32.514   5.459
 5003POPC   GL165557   0.577  32.546   5.876
 5003POPC   GL265558   0.218  32.495   5.843
 5003POPC   C1A65559   0.644  32.824   6.245
 5003POPC   D2A65560   0.968  32.881   6.576
 5003POPC   C3A65561   0.775  33.057   6.965
 5003POPC   C4A65562   0.626  32.910   7.373
 5003POPC   C1B65563   0.127  32.722   6.233
 5003POPC   C2B65564   0.264  32.862   6.638
 5003POPC   C3B65565   0.217  32.861   7.067
 5003POPC   C4B65566   0.130  33.035   7.453
 5004POPC   NC365567   6.847  14.836   5.162
 5004POPC   PO465568   6.347  15.269   5.538
 5004POPC   GL165569   6.428  15.396   5.935
 5004POPC   GL265570   6.746  15.223   5.924
 5004POPC   C1A65571   6.428  15.429   6.398
 5004POPC   D2A65572   6.778  15.401   6.693
 5004POPC   C3A65573   6.661  15.225   7.064
 5004POPC   C4A65574   6.892  14.896   7.152
 5004POPC   C1B65575   6.577  14.961   6.240
 5004POPC   C2B65576   6.506  14.941   6.665
 5004POPC   C3B65577   6.420  14.757   7.048
 5004POPC   C4B65578   6.488  14.846   7.493
 5005POPC   NC365579  36.603  22.844   5.471
 5005POPC   PO465580  36.902  23.409   5.331
 5005POPC   GL165581  36.827  23.197   5.761
 5005POPC   GL265582  37.003  22.884   5.818
 5005POPC   C1A65583  36.629  22.970   6.155
 5005POPC   D2A65584  36.563  22.852   6.619
 5005POPC   C3A65585  36.841  22.993   6.984
 5005POPC   C4A65586  36.667  23.204   7.366
 5005POPC   C1B65587  37.184  22.624   6.157
 5005POPC   C2B65588  37.023  22.645   6.588
 5005POPC   C3B65589  37.204  22.602   6.974
 5005POPC   C4B65590  37.272  22.770   7.323
 5006POPC   NC365591   1.428   8.684   5.335
 5006POPC   PO465592   1.136   9.346   5.198
 5006POPC   GL165593   0.996   9.041   5.598
 5006POPC   GL265594   1.285   8.933   5.769
 5006POPC   C1A65595   0.924   9.044   6.108
 5006POPC   D2A65596   1.119   9.311   6.447
 5006POPC   C3A65597   1.090   9.201   6.875
 5006POPC   C4A65598   1.083   9.153   7.318
 5006POPC   C1B65599   1.292   8.705   6.173
 5006POPC   C2B65600   1.118   8.807   6.567
 5006POPC   C3B65601   1.350   8.783   6.977
 5006POPC   C4B65602   1.580   9.025   7.290
 5007POPC   NC365603  33.481  36.295   5.239
 5007POPC   PO465604  33.955  35.811   5.410
 5007POPC   GL165605  33.881  35.953   5.816
 5007POPC   GL265606  33.792  36.278   5.775
 5007POPC   C1A65607  33.653  35.946   6.198
 5007POPC   D2A65608  33.561  36.156   6.566
 5007POPC   C3A65609  33.645  35.956   6.926
 5007POPC   C4A65610  34.008  35.848   7.160
 5007POPC   C1B65611  33.771  36.439   6.180
 5007POPC   C2B65612  33.874  36.551   6.606
 5007POPC   C3B65613  33.620  36.470   6.995
 5007POPC   C4B65614  33.676  36.205   7.345
 5008POPC   NC365615  24.696  25.802   5.140
 5008POPC   PO465616  24.141  26.059   5.362
 5008POPC   GL165617  24.550  26.076   5.589
 5008POPC   GL265618  24.618  26.417   5.681
 5008POPC   C1A65619  24.643  26.038   6.054
 5008POPC   D2A65620  24.462  25.972   6.475
 5008POPC   C3A65621  24.617  25.806   6.870
 5008POPC   C4A65622  24.442  25.947   7.260
 5008POPC   C1B65623  24.571  26.533   6.114
 5008POPC   C2B65624  24.422  26.482   6.535
 5008POPC   C3B65625  24.555  26.328   6.933
 5008POPC   C4B65626  24.672  26.414   7.368
 5009POPC   NC365627   1.545  24.784   5.478
 5009POPC   PO465628   0.823  24.597   5.329
 5009POPC   GL165629   1.129  24.478   5.694
 5009POPC   GL265630   1.269  24.754   5.894
 5009POPC   C1A65631   1.093  24.360   6.160
 5009POPC   D2A65632   1.121  24.519   6.611
 5009POPC   C3A65633   1.178  24.314   7.021
 5009POPC   C4A65634   1.318  24.223   7.442
 5009POPC   C1B65635   1.087  24.888   6.239
 5009POPC   C2B65636   1.180  25.063   6.628
 5009POPC   C3B65637   1.406  24.845   6.930
 5009POPC   C4B65638   1.320  24.736   7.341
 5010POPC   NC365639   4.234  28.014   5.527
 5010POPC   PO465640   4.446  27.476   5.132
 5010POPC   GL165641   4.412  27.526   5.583
 5010POPC   GL265642   4.128  27.386   5.722
 5010POPC   C1A65643   4.554  27.513   6.020
 5010POPC   D2A65644   4.456  27.712   6.426
 5010POPC   C3A65645   4.492  27.478   6.808
 5010POPC   C4A65646   4.476  27.620   7.219
 5010POPC   C1B65647   4.044  27.467   6.149
 5010POPC   C2B65648   4.016  27.430   6.593
 5010POPC   C3B65649   4.031  27.692   6.959
 5010POPC   C4B65650   3.751  27.803   7.271
 5011POPC   NC365651   8.483  40.607   5.589
 5011POPC   PO465652   8.067  41.224   5.503
 5011POPC   GL165653   8.171  40.927   5.854
 5011POPC   GL265654   7.993  40.599   5.786
 5011POPC   C1A65655   8.408  40.979   6.280
 5011POPC   D2A65656   8.529  41.248   6.659
 5011POPC   C3A65657   8.326  41.101   7.049
 5011POPC   C4A65658   8.075  40.725   7.097
 5011POPC   C1B65659   8.162  40.518   6.206
 5011POPC   C2B65660   8.281  40.502   6.641
 5011POPC   C3B65661   8.363  40.276   7.024
 5011POPC   C4B65662   8.265  40.402   7.453
 5012POPC   NC365663  29.914  11.605   5.210
 5012POPC   PO465664  29.438  11.210   5.537
 5012POPC   GL165665  29.748  11.313   5.926
 5012POPC   GL265666  29.886  11.658   6.009
 5012POPC   C1A65667  29.893  11.343   6.393
 5012POPC   D2A65668  29.737  11.459   6.791
 5012POPC   C3A65669  29.775  11.083   7.062
 5012POPC   C4A65670  29.770  11.082   7.511
 5012POPC   C1B65671  30.244  11.743   6.259
 5012POPC   C2B65672  30.427  11.583   6.624
 5012POPC   C3B65673  30.220  11.357   6.941
 5012POPC   C4B65674  29.983  11.491   7.272
 5013POPC   NC365675  29.446  15.638   5.476
 5013POPC   PO465676  29.132  15.005   5.490
 5013POPC   GL165677  29.175  15.307   5.796
 5013POPC   GL265678  29.504  15.237   5.819
 5013POPC   C1A65679  29.255  15.529   6.195
 5013POPC   D2A65680  29.075  15.702   6.592
 5013POPC   C3A65681  29.296  15.530   6.924
 5013POPC   C4A65682  29.171  15.236   7.192
 5013POPC   C1B65683  29.491  14.841   6.059
 5013POPC   C2B65684  29.441  14.757   6.483
 5013POPC   C3B65685  29.172  14.875   6.805
 5013POPC   C4B65686  29.342  14.764   7.173
 5014POPC   NC365687  29.445  22.536   5.430
 5014POPC   PO465688  29.247  23.193   5.376
 5014POPC   GL165689  29.359  22.980   5.707
 5014POPC   GL265690  29.722  23.132   5.708
 5014POPC   C1A65691  29.109  22.843   6.085
 5014POPC   D2A65692  28.940  23.001   6.489
 5014POPC   C3A65693  29.145  22.809   6.857
 5014POPC   C4A65694  29.035  22.735   7.260
 5014POPC   C1B65695  29.626  22.954   6.120
 5014POPC   C2B65696  29.482  22.789   6.483
 5014POPC   C3B65697  29.639  22.907   6.899
 5014POPC   C4B65698  29.452  23.048   7.244
 5015POPC   NC365699  16.153   1.866   5.101
 5015POPC   PO465700  15.747   1.575   5.557
 5015POPC   GL165701  15.991   1.713   5.893
 5015POPC   GL265702  16.185   1.971   5.683
 5015POPC   C1A65703  15.950   1.744   6.347
 5015POPC   D2A65704  15.952   1.765   6.788
 5015POPC   C3A65705  15.774   2.078   7.016
 5015POPC   C4A65706  15.988   1.956   7.361
 5015POPC   C1B65707  16.280   2.078   6.123
 5015POPC   C2B65708  16.193   2.166   6.575
 5015POPC   C3B65709  16.310   2.150   7.022
 5015POPC   C4B65710  16.396   2.233   7.483
 5016POPC   NC365711  30.495  41.116   5.123
 5016POPC   PO465712  30.980  41.497   5.429
 5016POPC   GL165713  30.897  41.617   5.845
 5016POPC   GL265714  30.563  41.808   5.825
 5016POPC   C1A65715  31.034  41.417   6.227
 5016POPC   D2A65716  30.857  41.157   6.536
 5016POPC   C3A65717  30.960  41.258   6.933
 5016POPC   C4A65718  30.859  41.530   7.184
 5016POPC   C1B65719  30.526  41.549   6.233
 5016POPC   C2B65720  30.614  41.591   6.691
 5016POPC   C3B65721  30.583  41.911   7.027
 5016POPC   C4B65722  30.468  42.136   7.400
 5017POPC   NC365723  44.762  41.681   5.585
 5017POPC   PO465724  44.378  41.200   5.302
 5017POPC   GL165725  44.356  41.426   5.739
 5017POPC   GL265726  44.173  41.334   5.987
 5017POPC   C1A65727  44.524  41.611   6.205
 5017POPC   D2A65728  44.798  41.425   6.526
 5017POPC   C3A65729  44.834  41.622   6.918
 5017POPC   C4A65730  44.883  41.397   7.303
 5017POPC   C1B65731  44.254  41.222   6.423
 5017POPC   C2B65732  44.325  41.472   6.771
 5017POPC   C3B65733  44.412  41.528   7.185
 5017POPC   C4B65734  44.247  41.723   7.551
 5018POPC   NC365735  33.964   3.930   5.646
 5018POPC   PO465736  33.535   4.372   5.325
 5018POPC   GL165737  33.611   4.265   5.780
 5018POPC   GL265738  33.945   4.404   5.876
 5018POPC   C1A65739  33.510   4.097   6.222
 5018POPC   D2A65740  33.556   4.056   6.706
 5018POPC   C3A65741  33.556   4.334   7.056
 5018POPC   C4A65742  33.529   4.250   7.497
 5018POPC   C1B65743  34.011   4.186   6.277
 5018POPC   C2B65744  34.058   3.890   6.638
 5018POPC   C3B65745  33.998   4.043   7.058
 5018POPC   C4B65746  34.051   4.426   7.304
 5019POPC   NC365747  32.458  18.227   5.203
 5019POPC   PO465748  32.018  17.898   5.392
 5019POPC   GL165749  32.237  17.985   5.751
 5019POPC   GL265750  32.298  18.330   5.765
 5019POPC   C1A65751  32.237  17.988   6.199
 5019POPC   D2A65752  32.333  18.204   6.555
 5019POPC   C3A65753  32.459  18.126   6.967
 5019POPC   C4A65754  32.329  18.035   7.351
 5019POPC   C1B65755  32.398  18.524   6.166
 5019POPC   C2B65756  32.525  18.654   6.614
 5019POPC   C3B65757  32.186  18.589   6.865
 5019POPC   C4B65758  32.178  18.565   7.278
 5020POPC   NC365759   0.235  38.226   5.448
 5020POPC   PO465760  44.658  37.960   5.289
 5020POPC   GL165761  44.690  37.868   5.752
 5020POPC   GL265762   0.021  37.916   5.835
 5020POPC   C1A65763  44.692  37.844   6.230
 5020POPC   D2A65764  44.544  37.784   6.660
 5020POPC   C3A65765  44.698  37.450   6.935
 5020POPC   C4A65766  44.584  37.486   7.345
 5020POPC   C1B65767   0.197  37.875   6.262
 5020POPC   C2B65768   0.066  37.791   6.693
 5020POPC   C3B65769  44.841  37.912   7.070
 5020POPC   C4B65770  44.930  37.841   7.494
 5021POPC   NC365771  29.220  16.378   5.427
 5021POPC   PO465772  28.964  15.715   5.393
 5021POPC   GL165773  29.095  15.823   5.810
 5021POPC   GL265774  29.155  16.153   5.872
 5021POPC   C1A65775  28.855  15.919   6.193
 5021POPC   D2A65776  28.672  16.089   6.575
 5021POPC   C3A65777  28.855  15.988   6.969
 5021POPC   C4A65778  28.834  15.614   7.196
 5021POPC   C1B65779  29.355  16.042   6.261
 5021POPC   C2B65780  29.501  15.987   6.686
 5021POPC   C3B65781  29.359  15.997   7.104
 5021POPC   C4B65782  29.186  16.324   7.291
 5022POPC   NC365783  36.958  34.141   5.468
 5022POPC   PO465784  36.701  33.500   5.505
 5022POPC   GL165785  36.841  33.807   5.841
 5022POPC   GL265786  37.154  33.886   5.892
 5022POPC   C1A65787  36.906  33.848   6.318
 5022POPC   D2A65788  37.249  33.959   6.596
 5022POPC   C3A65789  37.051  34.043   6.958
 5022POPC   C4A65790  36.640  33.950   7.139
 5022POPC   C1B65791  37.037  33.412   6.061
 5022POPC   C2B65792  37.048  33.284   6.480
 5022POPC   C3B65793  37.217  33.484   6.838
 5022POPC   C4B65794  37.099  33.635   7.249
 5023POPC   NC365795  11.666  25.846   5.480
 5023POPC   PO465796  12.049  26.395   5.477
 5023POPC   GL165797  11.968  26.055   5.835
 5023POPC   GL265798  12.223  25.851   6.073
 5023POPC   C1A65799  11.731  25.873   6.181
 5023POPC   D2A65800  11.948  25.806   6.585
 5023POPC   C3A65801  11.677  25.774   6.956
 5023POPC   C4A65802  11.806  25.836   7.376
 5023POPC   C1B65803  12.089  26.231   6.326
 5023POPC   C2B65804  12.092  26.307   6.771
 5023POPC   C3B65805  12.156  25.952   7.036
 5023POPC   C4B65806  12.531  25.679   7.036
 5024POPC   NC365807  10.307  39.867   5.513
 5024POPC   PO465808  10.982  39.805   5.497
 5024POPC   GL165809  10.719  39.974   5.827
 5024POPC   GL265810  10.755  40.369   5.954
 5024POPC   C1A65811  10.614  39.975   6.223
 5024POPC   D2A65812  10.546  39.747   6.535
 5024POPC   C3A65813  10.750  39.842   6.902
 5024POPC   C4A65814  10.531  39.756   7.254
 5024POPC   C1B65815  10.365  40.421   6.229
 5024POPC   C2B65816  10.292  40.210   6.599
 5024POPC   C3B65817  10.480  40.258   6.996
 5024POPC   C4B65818  10.365  40.302   7.398
 5025POPC   NC365819   7.779  31.288   5.435
 5025POPC   PO465820   7.176  31.141   5.495
 5025POPC   GL165821   7.393  31.481   5.737
 5025POPC   GL265822   7.559  31.250   5.936
 5025POPC   C1A65823   7.712  31.713   6.039
 5025POPC   D2A65824   7.870  31.464   6.409
 5025POPC   C3A65825   7.560  31.497   6.764
 5025POPC   C4A65826   7.429  31.766   7.120
 5025POPC   C1B65827   7.319  31.456   6.259
 5025POPC   C2B65828   7.066  31.354   6.623
 5025POPC   C3B65829   7.138  31.324   7.058
 5025POPC   C4B65830   7.510  31.146   7.222
 5026POPC   NC365831   0.855  23.120   5.392
 5026POPC   PO465832   0.209  22.811   5.453
 5026POPC   GL165833   0.478  22.963   5.746
 5026POPC   GL265834   0.229  23.053   5.949
 5026POPC   C1A65835   0.732  22.982   6.132
 5026POPC   D2A65836   0.705  22.837   6.570
 5026POPC   C3A65837   0.756  23.045   6.997
 5026POPC   C4A65838   0.598  22.849   7.362
 5026POPC   C1B65839   0.249  22.961   6.387
 5026POPC   C2B65840  44.983  23.222   6.634
 5026POPC   C3B65841  44.986  23.425   7.035
 5026POPC   C4B65842   0.227  23.208   7.335
 5027POPC   NC365843  32.664  42.031   5.528
 5027POPC   PO465844  32.181  42.478   5.326
 5027POPC   GL165845  32.143  42.395   5.743
 5027POPC   GL265846  32.459  42.546   5.771
 5027POPC   C1A65847  32.075  42.566   6.153
 5027POPC   D2A65848  32.130  42.723   6.580
 5027POPC   C3A65849  32.097  42.409   6.930
 5027POPC   C4A65850  32.322  42.097   7.227
 5027POPC   C1B65851  32.560  42.427   6.166
 5027POPC   C2B65852  32.659  42.606   6.545
 5027POPC   C3B65853  32.613  42.394   6.882
 5027POPC   C4B65854  32.517  42.553   7.267
 5028POPC   NC365855  43.255  14.712   5.048
 5028POPC   PO465856  43.274  14.313   5.421
 5028POPC   GL165857  43.207  14.162   5.850
 5028POPC   GL265858  43.042  13.893   5.826
 5028POPC   C1A65859  43.281  14.071   6.317
 5028POPC   D2A65860  43.138  14.358   6.669
 5028POPC   C3A65861  43.246  14.351   7.134
 5028POPC   C4A65862  43.186  14.623   7.516
 5028POPC   C1B65863  42.809  13.918   6.210
 5028POPC   C2B65864  42.899  13.894   6.654
 5028POPC   C3B65865  42.800  14.102   7.051
 5028POPC   C4B65866  42.883  14.213   7.487
 5029POPC   NC365867  30.448  44.082   5.610
 5029POPC   PO465868  30.772  43.566   5.326
 5029POPC   GL165869  30.865  43.813   5.704
 5029POPC   GL265870  30.555  43.625   5.820
 5029POPC   C1A65871  30.916  44.127   6.097
 5029POPC   D2A65872  31.040  44.275   6.543
 5029POPC   C3A65873  30.763  44.218   6.930
 5029POPC   C4A65874  30.565  44.266   7.346
 5029POPC   C1B65875  30.819  43.636   6.185
 5029POPC   C2B65876  30.721  43.848   6.562
 5029POPC   C3B65877  30.670  43.724   6.995
 5029POPC   C4B65878  30.353  43.821   7.266
 5030POPC   NC365879   0.522  11.256   5.247
 5030POPC   PO465880   0.593  10.794   5.788
 5030POPC   GL165881   0.592  11.239   5.748
 5030POPC   GL265882   0.255  11.418   5.685
 5030POPC   C1A65883   0.640  11.487   6.097
 5030POPC   D2A65884   0.463  11.514   6.525
 5030POPC   C3A65885   0.562  11.383   6.963
 5030POPC   C4A65886   0.664  11.045   7.245
 5030POPC   C1B65887   0.169  11.223   6.070
 5030POPC   C2B65888   0.214  11.009   6.462
 5030POPC   C3B65889   0.309  10.933   6.892
 5030POPC   C4B65890   0.178  11.173   7.245
 5031POPC   NC365891  24.656  33.759   5.219
 5031POPC   PO465892  25.251  33.863   5.198
 5031POPC   GL165893  25.276  33.911   5.683
 5031POPC   GL265894  25.273  33.584   5.853
 5031POPC   C1A65895  25.383  34.049   6.139
 5031POPC   D2A65896  25.203  34.099   6.563
 5031POPC   C3A65897  25.417  34.118   6.956
 5031POPC   C4A65898  25.234  34.195   7.342
 5031POPC   C1B65899  25.197  33.587   6.307
 5031POPC   C2B65900  25.360  33.638   6.742
 5031POPC   C3B65901  25.260  33.679   7.192
 5031POPC   C4B65902  25.178  33.430   7.578
 5032POPC   NC365903  10.469  26.627   5.108
 5032POPC   PO465904  10.467  27.019   5.612
 5032POPC   GL165905  10.570  26.710   5.814
 5032POPC   GL265906  10.282  26.574   5.811
 5032POPC   C1A65907  10.735  26.635   6.190
 5032POPC   D2A65908  10.569  26.768   6.564
 5032POPC   C3A65909  10.717  26.843   6.983
 5032POPC   C4A65910  10.430  26.952   7.317
 5032POPC   C1B65911  10.297  26.391   6.188
 5032POPC   C2B65912  10.385  26.298   6.618
 5032POPC   C3B65913  10.354  26.505   7.012
 5032POPC   C4B65914  10.590  26.470   7.413
 5033POPC   NC365915  22.739  20.534   5.639
 5033POPC   PO465916  23.057  20.825   5.208
 5033POPC   GL165917  23.117  20.865   5.723
 5033POPC   GL265918  22.827  20.992   5.887
 5033POPC   C1A65919  23.110  20.689   6.220
 5033POPC   D2A65920  22.906  20.563   6.669
 5033POPC   C3A65921  23.078  20.532   7.112
 5033POPC   C4A65922  23.209  20.724   7.505
 5033POPC   C1B65923  22.646  20.901   6.303
 5033POPC   C2B65924  22.684  21.025   6.735
 5033POPC   C3B65925  22.634  20.774   7.119
 5033POPC   C4B65926  22.586  20.322   7.162
 5034POPC   NC365927  30.176  34.312   5.385
 5034POPC   PO465928  29.737  34.765   5.389
 5034POPC   GL165929  29.849  34.645   5.812
 5034POPC   GL265930  30.191  34.613   5.803
 5034POPC   C1A65931  29.974  34.784   6.233
 5034POPC   D2A65932  29.801  34.952   6.599
 5034POPC   C3A65933  29.950  34.708   6.912
 5034POPC   C4A65934  29.747  34.589   7.241
 5034POPC   C1B65935  30.315  34.368   6.175
 5034POPC   C2B65936  30.290  34.499   6.579
 5034POPC   C3B65937  30.396  34.306   6.953
 5034POPC   C4B65938  30.237  34.476   7.312
 5035POPC   NC365939   9.895   9.741   5.260
 5035POPC   PO465940  10.614   9.810   5.386
 5035POPC   GL165941  10.506   9.713   5.793
 5035POPC   GL265942  10.831   9.612   5.888
 5035POPC   C1A65943  10.274   9.955   6.066
 5035POPC   D2A65944  10.386   9.935   6.470
 5035POPC   C3A65945  10.243   9.995   6.857
 5035POPC   C4A65946  10.405   9.731   7.196
 5035POPC   C1B65947  10.677   9.546   6.298
 5035POPC   C2B65948  10.764   9.570   6.727
 5035POPC   C3B65949  10.655   9.313   7.086
 5035POPC   C4B65950  10.785   9.443   7.507
 5036POPC   NC365951  14.608  44.191   5.188
 5036POPC   PO465952  14.320  43.660   5.212
 5036POPC   GL165953  14.415  43.866   5.628
 5036POPC   GL265954  14.121  44.007   5.755
 5036POPC   C1A65955  14.577  43.898   6.092
 5036POPC   D2A65956  14.763  43.666   6.492
 5036POPC   C3A65957  14.633  43.838   6.903
 5036POPC   C4A65958  14.412  43.854   7.321
 5036POPC   C1B65959  14.063  43.735   6.113
 5036POPC   C2B65960  14.264  43.804   6.514
 5036POPC   C3B65961  14.174  44.026   6.882
 5036POPC   C4B65962  13.880  44.031   7.157
 5037POPC   NC365963   2.862  37.049   5.141
 5037POPC   PO465964   2.861  37.682   5.421
 5037POPC   GL165965   2.636  37.596   5.800
 5037POPC   GL265966   2.937  37.737   5.943
 5037POPC   C1A65967   2.672  37.443   6.241
 5037POPC   D2A65968   2.884  37.669   6.549
 5037POPC   C3A65969   2.778  37.627   6.964
 5037POPC   C4A65970   2.574  37.442   7.292
 5037POPC   C1B65971   3.234  37.909   6.256
 5037POPC   C2B65972   3.172  38.060   6.704
 5037POPC   C3B65973   3.182  37.904   7.139
 5037POPC   C4B65974   2.872  37.841   7.482
 5038POPC   NC365975  24.889  36.122   5.390
 5038POPC   PO465976  24.272  35.708   5.451
 5038POPC   GL165977  24.534  35.925   5.744
 5038POPC   GL265978  24.557  36.293   5.737
 5038POPC   C1A65979  24.583  35.950   6.180
 5038POPC   D2A65980  24.419  36.127   6.549
 5038POPC   C3A65981  24.515  35.933   6.949
 5038POPC   C4A65982  24.819  36.026   7.210
 5038POPC   C1B65983  24.603  36.458   6.159
 5038POPC   C2B65984  24.622  36.573   6.590
 5038POPC   C3B65985  24.525  36.455   7.019
 5038POPC   C4B65986  24.711  36.483   7.454
 5039POPC   NC365987  41.119  31.526   5.518
 5039POPC   PO465988  40.680  31.928   5.426
 5039POPC   GL165989  40.694  31.695   5.869
 5039POPC   GL265990  40.935  31.441   5.979
 5039POPC   C1A65991  40.624  31.633   6.346
 5039POPC   D2A65992  40.940  31.452   6.643
 5039POPC   C3A65993  40.964  31.646   7.044
 5039POPC   C4A65994  40.544  31.720   7.229
 5039POPC   C1B65995  40.709  31.151   6.240
 5039POPC   C2B65996  40.661  31.025   6.663
 5039POPC   C3B65997  40.627  31.258   7.015
 5039POPC   C4B65998  40.839  31.318   7.414
 5040POPC   NC365999  15.195  13.118   5.169
 5040POPC   PO466000  14.894  12.747   5.663
 5040POPC   GL166001  15.068  13.038   5.887
 5040POPC   GL266002  15.358  13.061   5.683
 5040POPC   C1A66003  15.059  13.053   6.329
 5040POPC   D2A66004  14.994  13.131   6.744
 5040POPC   C3A66005  14.882  12.759   6.972
 5040POPC   C4A66006  14.952  12.744   7.405
 5040POPC   C1B66007  15.505  12.865   6.110
 5040POPC   C2B66008  15.521  12.986   6.581
 5040POPC   C3B66009  15.423  12.833   7.013
 5040POPC   C4B66010  15.378  13.001   7.463
 5041POPC   NC366011  22.294   2.787   5.468
 5041POPC   PO466012  22.083   3.357   5.389
 5041POPC   GL166013  22.113   3.055   5.836
 5041POPC   GL266014  21.898   2.737   5.867
 5041POPC   C1A66015  22.291   2.822   6.224
 5041POPC   D2A66016  22.532   2.971   6.617
 5041POPC   C3A66017  22.470   2.784   7.021
 5041POPC   C4A66018  22.133   2.941   7.255
 5041POPC   C1B66019  21.598   2.488   6.189
 5041POPC   C2B66020  21.695   2.487   6.642
 5041POPC   C3B66021  22.094   2.471   6.884
 5041POPC   C4B66022  22.232   2.395   7.315
 5042POPC   NC366023  31.858  17.503   5.544
 5042POPC   PO466024  31.208  17.617   5.416
 5042POPC   GL166025  31.373  17.521   5.806
 5042POPC   GL266026  31.126  17.306   5.979
 5042POPC   C1A66027  31.357  17.759   6.186
 5042POPC   D2A66028  31.635  17.809   6.534
 5042POPC   C3A66029  31.572  17.632   6.926
 5042POPC   C4A66030  31.629  17.835   7.283
 5042POPC   C1B66031  30.933  17.491   6.317
 5042POPC   C2B66032  31.123  17.728   6.643
 5042POPC   C3B66033  31.076  17.743   7.052
 5042POPC   C4B66034  30.955  17.343   7.269
 5043POPC   NC366035   0.355  25.707   5.511
 5043POPC   PO466036   0.907  26.070   5.380
 5043POPC   GL166037   0.745  25.958   5.803
 5043POPC   GL266038   0.408  26.099   5.852
 5043POPC   C1A66039   0.540  25.705   6.169
 5043POPC   D2A66040   0.317  25.648   6.596
 5043POPC   C3A66041   0.541  25.751   7.002
 5043POPC   C4A66042   0.740  26.130   7.172
 5043POPC   C1B66043   0.288  26.126   6.314
 5043POPC   C2B66044   0.305  26.151   6.783
 5043POPC   C3B66045   0.203  26.091   7.236
 5043POPC   C4B66046   0.068  26.071   7.692
 5044POPC   NC366047  37.149  37.759   5.497
 5044POPC   PO466048  36.660  38.162   5.337
 5044POPC   GL166049  36.776  38.070   5.763
 5044POPC   GL266050  37.111  38.127   5.826
 5044POPC   C1A66051  36.595  37.913   6.154
 5044POPC   D2A66052  36.706  37.650   6.501
 5044POPC   C3A66053  36.729  37.847   6.901
 5044POPC   C4A66054  36.691  37.619   7.295
 5044POPC   C1B66055  37.106  37.807   6.178
 5044POPC   C2B66056  37.198  37.771   6.647
 5044POPC   C3B66057  37.132  37.571   7.040
 5044POPC   C4B66058  37.186  37.596   7.480
 5045POPC   NC366059  28.465  18.550   5.499
 5045POPC   PO466060  28.341  17.885   5.627
 5045POPC   GL166061  28.490  18.150   5.879
 5045POPC   GL266062  28.232  18.401   5.927
 5045POPC   C1A66063  28.455  18.017   6.280
 5045POPC   D2A66064  28.370  18.061   6.696
 5045POPC   C3A66065  28.041  18.240   6.891
 5045POPC   C4A66066  28.078  18.234   7.326
 5045POPC   C1B66067  28.570  18.570   6.166
 5045POPC   C2B66068  28.614  18.531   6.576
 5045POPC   C3B66069  28.600  18.413   6.981
 5045POPC   C4B66070  28.580  18.554   7.366
 5046POPC   NC366071  16.696  34.120   5.474
 5046POPC   PO466072  17.046  33.514   5.486
 5046POPC   GL166073  16.846  33.761   5.892
 5046POPC   GL266074  16.830  34.150   6.023
 5046POPC   C1A66075  16.745  33.799   6.364
 5046POPC   D2A66076  16.723  34.175   6.647
 5046POPC   C3A66077  16.850  34.104   7.093
 5046POPC   C4A66078  16.652  33.858   7.447
 5046POPC   C1B66079  17.163  34.085   6.307
 5046POPC   C2B66080  17.207  33.722   6.569
 5046POPC   C3B66081  17.012  33.613   6.965
 5046POPC   C4B66082  17.133  33.769   7.398
 5047POPC   NC366083  20.748  15.231   5.582
 5047POPC   PO466084  20.195  14.779   5.565
 5047POPC   GL166085  20.382  15.035   5.882
 5047POPC   GL266086  20.712  14.880   5.956
 5047POPC   C1A66087  20.432  15.236   6.278
 5047POPC   D2A66088  20.605  15.066   6.665
 5047POPC   C3A66089  20.470  15.204   7.070
 5047POPC   C4A66090  20.573  14.893   7.404
 5047POPC   C1B66091  20.942  15.187   6.207
 5047POPC   C2B66092  21.009  15.382   6.603
 5047POPC   C3B66093  20.957  15.232   7.035
 5047POPC   C4B66094  20.853  15.303   7.482
 5048POPC   NC366095  10.811  16.143   5.448
 5048POPC   PO466096  10.208  15.842   5.448
 5048POPC   GL166097  10.505  15.890   5.823
 5048POPC   GL266098  10.730  16.189   5.933
 5048POPC   C1A66099  10.482  15.895   6.287
 5048POPC   D2A66100  10.437  16.147   6.669
 5048POPC   C3A66101  10.559  15.933   7.084
 5048POPC   C4A66102  10.394  16.096   7.487
 5048POPC   C1B66103  10.969  16.078   6.238
 5048POPC   C2B66104  10.890  15.934   6.616
 5048POPC   C3B66105  10.970  16.197   6.953
 5048POPC   C4B66106  10.935  16.133   7.405
 5049POPC   NC366107   1.530  21.069   5.424
 5049POPC   PO466108   0.904  21.493   5.436
 5049POPC   GL166109   1.288  21.533   5.647
 5049POPC   GL266110   1.219  21.209   5.785
 5049POPC   C1A66111   1.459  21.569   6.073
 5049POPC   D2A66112   1.262  21.429   6.475
 5049POPC   C3A66113   1.414  21.454   6.862
 5049POPC   C4A66114   1.221  21.425   7.248
 5049POPC   C1B66115   0.960  21.268   6.101
 5049POPC   C2B66116   0.800  21.193   6.505
 5049POPC   C3B66117   0.919  21.211   6.904
 5049POPC   C4B66118   0.924  20.993   7.306
 5050POPC   NC366119  20.093  38.043   5.511
 5050POPC   PO466120  19.851  37.451   5.476
 5050POPC   GL166121  19.871  37.705   5.854
 5050POPC   GL266122  19.524  37.807   5.867
 5050POPC   C1A66123  19.927  37.540   6.289
 5050POPC   D2A66124  19.603  37.363   6.578
 5050POPC   C3A66125  19.637  37.522   7.009
 5050POPC   C4A66126  20.013  37.703   7.194
 5050POPC   C1B66127  19.670  37.967   6.276
 5050POPC   C2B66128  19.849  37.889   6.682
 5050POPC   C3B66129  19.681  38.036   7.042
 5050POPC   C4B66130  19.508  37.883   7.390
 5051POPC   NC366131  30.725  22.331   5.274
 5051POPC   PO466132  31.198  21.816   5.209
 5051POPC   GL166133  30.999  21.907   5.665
 5051POPC   GL266134  30.797  22.194   5.780
 5051POPC   C1A66135  30.882  21.879   6.145
 5051POPC   D2A66136  30.918  21.929   6.578
 5051POPC   C3A66137  30.931  22.093   7.006
 5051POPC   C4A66138  30.708  22.187   7.396
 5051POPC   C1B66139  30.888  22.423   6.195
 5051POPC   C2B66140  30.752  22.432   6.654
 5051POPC   C3B66141  30.715  22.627   7.092
 5051POPC   C4B66142  30.710  22.658   7.593
 5052POPC   NC366143  11.090  18.715   5.497
 5052POPC   PO466144  11.334  18.089   5.401
 5052POPC   GL166145  11.374  18.354   5.765
 5052POPC   GL266146  11.738  18.248   5.855
 5052POPC   C1A66147  11.235  18.307   6.207
 5052POPC   D2A66148  11.294  18.069   6.582
 5052POPC   C3A66149  11.022  18.194   6.925
 5052POPC   C4A66150  11.211  18.233   7.305
 5052POPC   C1B66151  11.664  18.592   6.121
 5052POPC   C2B66152  11.607  18.530   6.541
 5052POPC   C3B66153  11.544  18.350   6.937
 5052POPC   C4B66154  11.817  18.260   7.240
 5053POPC   NC366155  23.121   4.522   5.220
 5053POPC   PO466156  22.620   4.108   5.467
 5053POPC   GL166157  22.821   4.403   5.811
 5053POPC   GL266158  23.123   4.580   5.752
 5053POPC   C1A66159  22.946   4.331   6.245
 5053POPC   D2A66160  22.762   4.395   6.663
 5053POPC   C3A66161  22.596   4.086   6.986
 5053POPC   C4A66162  22.727   3.898   7.384
 5053POPC   C1B66163  23.350   4.638   6.146
 5053POPC   C2B66164  23.259   4.621   6.585
 5053POPC   C3B66165  23.180   4.396   6.975
 5053POPC   C4B66166  23.369   4.167   7.328
 5054POPC   NC366167  19.471  34.690   5.349
 5054POPC   PO466168  18.733  34.484   5.352
 5054POPC   GL166169  18.850  34.684   5.755
 5054POPC   GL266170  19.211  34.716   5.779
 5054POPC   C1A66171  18.872  34.633   6.206
 5054POPC   D2A66172  18.719  34.802   6.616
 5054POPC   C3A66173  18.969  34.628   6.960
 5054POPC   C4A66174  18.855  34.452   7.343
 5054POPC   C1B66175  19.388  34.858   6.148
 5054POPC   C2B66176  19.231  34.857   6.560
 5054POPC   C3B66177  19.429  34.846   6.981
 5054POPC   C4B66178  19.370  34.664   7.386
 5055POPC   NC366179   3.072  20.513   5.206
 5055POPC   PO466180   2.397  20.388   5.215
 5055POPC   GL166181   2.525  20.548   5.712
 5055POPC   GL266182   2.881  20.477   5.766
 5055POPC   C1A66183   2.563  20.334   6.202
 5055POPC   D2A66184   2.519  20.125   6.680
 5055POPC   C3A66185   2.559  20.385   7.106
 5055POPC   C4A66186   2.595  20.652   7.509
 5055POPC   C1B66187   2.989  20.643   6.193
 5055POPC   C2B66188   2.893  20.493   6.600
 5055POPC   C3B66189   2.886  20.732   6.962
 5055POPC   C4B66190   2.739  21.070   7.204
 5056POPC   NC366191  29.476  32.794   5.373
 5056POPC   PO466192  30.140  32.979   5.466
 5056POPC   GL166193  29.917  32.921   5.871
 5056POPC   GL266194  29.719  33.216   5.960
 5056POPC   C1A66195  30.003  32.936   6.351
 5056POPC   D2A66196  29.800  33.161   6.713
 5056POPC   C3A66197  29.866  33.014   7.144
 5056POPC   C4A66198  29.911  32.665   7.449
 5056POPC   C1B66199  30.181  33.319   6.072
 5056POPC   C2B66200  30.372  33.276   6.483
 5056POPC   C3B66201  30.236  33.325   6.927
 5056POPC   C4B66202  30.379  33.201   7.353
 5057POPC   NC366203  12.555  34.656   5.561
 5057POPC   PO466204  13.018  34.197   5.458
 5057POPC   GL166205  12.938  34.460   5.839
 5057POPC   GL266206  12.967  34.851   5.830
 5057POPC   C1A66207  12.652  34.420   6.201
 5057POPC   D2A66208  12.625  34.145   6.552
 5057POPC   C3A66209  12.634  34.305   6.981
 5057POPC   C4A66210  12.838  34.338   7.405
 5057POPC   C1B66211  12.824  34.909   6.271
 5057POPC   C2B66212  12.723  34.707   6.661
 5057POPC   C3B66213  12.880  34.730   7.113
 5057POPC   C4B66214  12.796  34.814   7.598
 5058POPC   NC366215  31.839  20.948   5.710
 5058POPC   PO466216  32.348  20.668   5.388
 5058POPC   GL166217  32.354  20.474   5.788
 5058POPC   GL266218  32.116  20.219   5.911
 5058POPC   C1A66219  32.320  20.689   6.179
 5058POPC   D2A66220  32.046  20.838   6.515
 5058POPC   C3A66221  32.207  20.855   6.950
 5058POPC   C4A66222  31.909  20.816   7.250
 5058POPC   C1B66223  32.071  20.292   6.380
 5058POPC   C2B66224  32.422  20.491   6.649
 5058POPC   C3B66225  32.578  20.422   7.060
 5058POPC   C4B66226  32.283  20.475   7.362
 5059POPC   NC366227  31.313   2.152   5.377
 5059POPC   PO466228  31.649   1.674   5.088
 5059POPC   GL166229  31.595   1.817   5.646
 5059POPC   GL266230  31.431   2.122   5.854
 5059POPC   C1A66231  31.731   1.889   6.175
 5059POPC   D2A66232  31.694   2.031   6.662
 5059POPC   C3A66233  31.707   2.011   7.156
 5059POPC   C4A66234  31.904   2.078   7.587
 5059POPC   C1B66235  31.540   2.354   6.244
 5059POPC   C2B66236  31.284   2.354   6.624
 5059POPC   C3B66237  31.232   2.260   7.062
 5059POPC   C4B66238  31.105   2.468   7.429
 5060POPC   NC366239  21.432  35.795   5.357
 5060POPC   PO466240  21.109  36.471   5.425
 5060POPC   GL166241  21.333  36.360   5.801
 5060POPC   GL266242  21.470  36.020   5.825
 5060POPC   C1A66243  21.219  36.292   6.228
 5060POPC   D2A66244  21.068  36.001   6.538
 5060POPC   C3A66245  21.174  36.184   6.931
 5060POPC   C4A66246  21.610  36.251   7.097
 5060POPC   C1B66247  21.474  35.812   6.246
 5060POPC   C2B66248  21.552  35.911   6.698
 5060POPC   C3B66249  21.516  35.760   7.134
 5060POPC   C4B66250  21.698  35.972   7.538
 5061POPC   NC366251   1.948  42.000   5.300
 5061POPC   PO466252   1.879  41.320   5.374
 5061POPC   GL166253   2.066  41.586   5.685
 5061POPC   GL266254   1.783  41.784   5.766
 5061POPC   C1A66255   2.083  41.587   6.150
 5061POPC   D2A66256   1.869  41.711   6.558
 5061POPC   C3A66257   2.034  41.671   6.997
 5061POPC   C4A66258   1.820  41.771   7.386
 5061POPC   C1B66259   1.565  41.565   6.129
 5061POPC   C2B66260   1.510  41.319   6.494
 5061POPC   C3B66261   1.703  41.304   6.863
 5061POPC   C4B66262   1.875  41.240   7.274
 5062POPC   NC366263  31.244   0.400   5.412
 5062POPC   PO466264  31.783   0.639   5.090
 5062POPC   GL166265  31.685   0.337   5.602
 5062POPC   GL266266  31.418   0.439   5.897
 5062POPC   C1A66267  31.810   0.158   6.020
 5062POPC   D2A66268  31.621   0.319   6.434
 5062POPC   C3A66269  31.691   0.203   6.858
 5062POPC   C4A66270  31.523   0.382   7.253
 5062POPC   C1B66271  31.139   0.313   6.276
 5062POPC   C2B66272  31.176   0.202   6.760
 5062POPC   C3B66273  31.009   0.456   7.120
 5062POPC   C4B66274  31.065   0.645   7.529
 5063POPC   NC366275  21.501   0.739   5.482
 5063POPC   PO466276  20.937   0.498   5.325
 5063POPC   GL166277  21.158   0.449   5.798
 5063POPC   GL266278  21.286   0.081   5.926
 5063POPC   C1A66279  21.224   0.701   6.178
 5063POPC   D2A66280  21.083   0.696   6.626
 5063POPC   C3A66281  21.412   0.633   6.982
 5063POPC   C4A66282  21.693   0.374   7.256
 5063POPC   C1B66283  21.362   0.198   6.349
 5063POPC   C2B66284  21.480   0.150   6.790
 5063POPC   C3B66285  21.181   0.182   7.106
 5063POPC   C4B66286  21.215   0.165   7.521
 5064POPC   NC366287  30.953  19.381   5.318
 5064POPC   PO466288  30.427  18.964   5.480
 5064POPC   GL166289  30.789  19.117   5.749
 5064POPC   GL266290  30.983  18.811   5.928
 5064POPC   C1A66291  30.893  19.294   6.126
 5064POPC   D2A66292  30.688  19.268   6.530
 5064POPC   C3A66293  30.786  19.422   6.935
 5064POPC   C4A66294  30.609  19.255   7.323
 5064POPC   C1B66295  30.596  18.835   6.139
 5064POPC   C2B66296  30.533  18.778   6.553
 5064POPC   C3B66297  30.692  18.922   6.937
 5064POPC   C4B66298  30.733  18.730   7.321
 5065POPC   NC366299  21.342  12.812   5.406
 5065POPC   PO466300  21.941  12.928   5.591
 5065POPC   GL166301  21.594  12.751   5.846
 5065POPC   GL266302  21.264  12.525   5.816
 5065POPC   C1A66303  21.532  12.739   6.253
 5065POPC   D2A66304  21.398  13.007   6.538
 5065POPC   C3A66305  21.525  12.845   6.894
 5065POPC   C4A66306  21.492  12.833   7.279
 5065POPC   C1B66307  21.065  12.544   6.203
 5065POPC   C2B66308  21.229  12.509   6.643
 5065POPC   C3B66309  21.089  12.583   7.062
 5065POPC   C4B66310  21.223  12.450   7.467
 5066POPC   NC366311   0.188   4.058   5.710
 5066POPC   PO466312   0.475   3.549   5.333
 5066POPC   GL166313   0.500   3.664   5.721
 5066POPC   GL266314   0.185   3.544   5.804
 5066POPC   C1A66315   0.522   3.711   6.154
 5066POPC   D2A66316   0.384   3.566   6.525
 5066POPC   C3A66317   0.736   3.580   6.771
 5066POPC   C4A66318   0.685   3.645   7.203
 5066POPC   C1B66319   0.227   3.243   6.131
 5066POPC   C2B66320   0.050   3.167   6.525
 5066POPC   C3B66321   0.203   3.153   6.935
 5066POPC   C4B66322   0.081   3.097   7.350
 5067POPC   NC366323  32.179  22.749   5.345
 5067POPC   PO466324  32.532  23.253   5.551
 5067POPC   GL166325  32.443  22.960   5.845
 5067POPC   GL266326  32.098  22.977   5.839
 5067POPC   C1A66327  32.376  22.937   6.290
 5067POPC   D2A66328  32.196  23.215   6.593
 5067POPC   C3A66329  32.239  23.044   7.029
 5067POPC   C4A66330  32.472  23.077   7.425
 5067POPC   C1B66331  31.867  22.895   6.242
 5067POPC   C2B66332  31.823  22.879   6.701
 5067POPC   C3B66333  31.798  22.780   7.136
 5067POPC   C4B66334  32.027  22.803   7.518
 5068POPC   NC366335   6.190  22.267   5.577
 5068POPC   PO466336   6.625  22.557   5.178
 5068POPC   GL166337   6.659  22.412   5.703
 5068POPC   GL266338   6.580  22.592   6.014
 5068POPC   C1A66339   6.674  22.094   6.089
 5068POPC   D2A66340   6.847  22.037   6.530
 5068POPC   C3A66341   6.582  21.933   6.883
 5068POPC   C4A66342   6.525  21.996   7.327
 5068POPC   C1B66343   6.970  22.488   6.241
 5068POPC   C2B66344   6.986  22.507   6.683
 5068POPC   C3B66345   6.791  22.395   7.049
 5068POPC   C4B66346   6.827  22.383   7.496
 5069POPC   NC366347  20.811  43.273   5.521
 5069POPC   PO466348  20.373  42.676   5.456
 5069POPC   GL166349  20.493  42.994   5.795
 5069POPC   GL266350  20.860  42.963   5.920
 5069POPC   C1A66351  20.424  43.326   6.141
 5069POPC   D2A66352  20.517  43.190   6.565
 5069POPC   C3A66353  20.312  43.277   6.968
 5069POPC   C4A66354  20.464  43.144   7.372
 5069POPC   C1B66355  20.918  43.299   6.230
 5069POPC   C2B66356  20.929  43.480   6.665
 5069POPC   C3B66357  21.071  43.316   7.015
 5069POPC   C4B66358  20.940  43.297   7.395
 5070POPC   NC366359  37.240  23.039   5.386
 5070POPC   PO466360  37.782  22.467   5.431
 5070POPC   GL166361  37.500  22.761   5.722
 5070POPC   GL266362  37.736  22.927   5.876
 5070POPC   C1A66363  37.354  23.106   6.106
 5070POPC   D2A66364  37.470  22.917   6.517
 5070POPC   C3A66365  37.428  23.073   6.940
 5070POPC   C4A66366  37.643  23.089   7.353
 5070POPC   C1B66367  37.726  22.596   6.188
 5070POPC   C2B66368  37.862  22.600   6.632
 5070POPC   C3B66369  37.778  22.701   7.033
 5070POPC   C4B66370  37.956  22.719   7.449
 5071POPC   NC366371  12.647  44.867   5.262
 5071POPC   PO466372  13.087  44.511   5.602
 5071POPC   GL166373  12.896  44.759   5.873
 5071POPC   GL266374  12.635  44.982   5.764
 5071POPC   C1A66375  12.599  44.617   6.175
 5071POPC   D2A66376  12.452  44.424   6.546
 5071POPC   C3A66377  12.781  44.447   6.837
 5071POPC   C4A66378  12.944  44.583   7.207
 5071POPC   C1B66379  12.634   0.126   6.182
 5071POPC   C2B66380  12.439  44.950   6.562
 5071POPC   C3B66381  12.463  44.812   6.997
 5071POPC   C4B66382  12.563  44.819   7.447
 5072POPC   NC366383  24.177   8.005   5.494
 5072POPC   PO466384  24.783   8.215   5.206
 5072POPC   GL166385  24.669   8.088   5.661
 5072POPC   GL266386  24.601   8.415   5.825
 5072POPC   C1A66387  24.477   8.007   6.115
 5072POPC   D2A66388  24.691   8.079   6.541
 5072POPC   C3A66389  24.506   7.948   6.925
 5072POPC   C4A66390  24.282   7.979   7.294
 5072POPC   C1B66391  24.326   8.475   6.230
 5072POPC   C2B66392  24.199   8.249   6.612
 5072POPC   C3B66393  24.236   8.417   7.030
 5072POPC   C4B66394  24.111   8.632   7.412
 5073POPC   NC366395   8.254  27.807   5.216
 5073POPC   PO466396   8.112  27.160   5.335
 5073POPC   GL166397   8.144  27.366   5.746
 5073POPC   GL266398   8.277  27.731   5.749
 5073POPC   C1A66399   8.120  27.236   6.192
 5073POPC   D2A66400   8.350  27.265   6.570
 5073POPC   C3A66401   8.074  27.250   6.926
 5073POPC   C4A66402   8.255  27.257   7.319
 5073POPC   C1B66403   7.996  27.729   6.135
 5073POPC   C2B66404   8.081  27.714   6.584
 5073POPC   C3B66405   8.347  27.659   6.951
 5073POPC   C4B66406   8.110  27.750   7.303
 5074POPC   NC366407  35.392   3.326   5.375
 5074POPC   PO466408  35.072   2.739   5.208
 5074POPC   GL166409  35.125   2.653   5.661
 5074POPC   GL266410  34.896   2.913   5.744
 5074POPC   C1A66411  35.406   2.446   6.029
 5074POPC   D2A66412  35.587   2.411   6.482
 5074POPC   C3A66413  35.358   2.530   6.897
 5074POPC   C4A66414  35.342   2.745   7.307
 5074POPC   C1B66415  35.134   2.856   6.139
 5074POPC   C2B66416  35.005   2.857   6.570
 5074POPC   C3B66417  35.020   2.970   6.982
 5074POPC   C4B66418  34.907   3.138   7.377
 5075POPC   NC366419  20.096   4.478   5.467
 5075POPC   PO466420  19.668   4.857   5.598
 5075POPC   GL166421  19.777   4.420   5.889
 5075POPC   GL266422  20.113   4.263   5.944
 5075POPC   C1A66423  19.814   4.159   6.332
 5075POPC   D2A66424  19.891   4.355   6.752
 5075POPC   C3A66425  19.892   4.169   7.190
 5075POPC   C4A66426  20.113   4.079   7.593
 5075POPC   C1B66427  20.063   4.602   6.299
 5075POPC   C2B66428  20.247   4.740   6.701
 5075POPC   C3B66429  20.048   4.685   7.107
 5075POPC   C4B66430  20.075   4.627   7.542
 5076POPC   NC366431  33.204  30.483   5.198
 5076POPC   PO466432  33.192  29.881   5.539
 5076POPC   GL166433  33.113  29.841   5.934
 5076POPC   GL266434  32.785  29.982   5.923
 5076POPC   C1A66435  33.036  29.927   6.374
 5076POPC   D2A66436  32.775  29.978   6.760
 5076POPC   C3A66437  33.050  30.019   7.131
 5076POPC   C4A66438  33.075  29.963   7.581
 5076POPC   C1B66439  32.735  29.567   6.151
 5076POPC   C2B66440  32.755  29.401   6.586
 5076POPC   C3B66441  32.835  29.462   7.025
 5076POPC   C4B66442  32.614  29.762   7.246
 5077POPC   NC366443  25.046   6.472   5.299
 5077POPC   PO466444  25.101   7.003   5.650
 5077POPC   GL166445  25.212   6.613   5.777
 5077POPC   GL266446  25.561   6.615   5.805
 5077POPC   C1A66447  25.220   6.495   6.203
 5077POPC   D2A66448  25.071   6.685   6.585
 5077POPC   C3A66449  25.132   6.500   6.997
 5077POPC   C4A66450  25.208   6.644   7.412
 5077POPC   C1B66451  25.716   6.796   6.213
 5077POPC   C2B66452  25.690   6.906   6.679
 5077POPC   C3B66453  25.633   6.601   7.022
 5077POPC   C4B66454  25.477   6.188   7.222
 5078POPC   NC366455  27.042  37.077   5.299
 5078POPC   PO466456  26.446  36.783   5.331
 5078POPC   GL166457  26.752  36.785   5.687
 5078POPC   GL266458  27.116  36.818   5.727
 5078POPC   C1A66459  26.815  36.682   6.133
 5078POPC   D2A66460  26.638  36.584   6.551
 5078POPC   C3A66461  26.494  36.536   6.961
 5078POPC   C4A66462  26.782  36.599   7.281
 5078POPC   C1B66463  27.200  37.011   6.168
 5078POPC   C2B66464  26.883  37.093   6.479
 5078POPC   C3B66465  26.855  36.919   6.899
 5078POPC   C4B66466  27.080  37.047   7.271
 5079POPC   NC366467  16.312  17.383   5.171
 5079POPC   PO466468  15.822  17.810   5.302
 5079POPC   GL166469  15.884  17.595   5.754
 5079POPC   GL266470  15.719  17.265   5.813
 5079POPC   C1A66471  15.874  17.544   6.246
 5079POPC   D2A66472  16.062  17.413   6.657
 5079POPC   C3A66473  15.809  17.598   7.010
 5079POPC   C4A66474  15.906  17.716   7.432
 5079POPC   C1B66475  15.467  17.218   6.209
 5079POPC   C2B66476  15.557  17.322   6.650
 5079POPC   C3B66477  15.580  17.131   7.099
 5079POPC   C4B66478  15.632  17.256   7.521
 5080POPC   NC366479  44.486   2.151   5.392
 5080POPC   PO466480   0.018   1.749   5.475
 5080POPC   GL166481  44.882   1.917   5.865
 5080POPC   GL266482  44.562   2.058   5.877
 5080POPC   C1A66483  44.744   1.812   6.287
 5080POPC   D2A66484  44.773   1.567   6.643
 5080POPC   C3A66485  44.858   1.860   6.962
 5080POPC   C4A66486  44.561   1.918   7.236
 5080POPC   C1B66487  44.697   2.313   6.227
 5080POPC   C2B66488  44.852   2.273   6.645
 5080POPC   C3B66489  44.570   2.371   7.007
 5080POPC   C4B66490  44.514   2.482   7.471
 5081POPC   NC366491   6.046  29.545   5.256
 5081POPC   PO466492   5.573  29.862   5.579
 5081POPC   GL166493   5.906  29.962   5.786
 5081POPC   GL266494   6.037  30.293   5.644
 5081POPC   C1A66495   5.837  29.874   6.246
 5081POPC   D2A66496   5.505  29.844   6.584
 5081POPC   C3A66497   5.654  29.924   7.021
 5081POPC   C4A66498   5.611  29.657   7.412
 5081POPC   C1B66499   6.188  30.229   6.090
 5081POPC   C2B66500   6.124  30.179   6.552
 5081POPC   C3B66501   6.182  30.221   7.000
 5081POPC   C4B66502   6.069  29.895   7.306
 5082POPC   NC366503  30.338  14.310   5.528
 5082POPC   PO466504  29.855  14.712   5.220
 5082POPC   GL166505  29.827  14.605   5.690
 5082POPC   GL266506  29.865  14.242   5.764
 5082POPC   C1A66507  29.939  14.594   6.154
 5082POPC   D2A66508  29.796  14.349   6.528
 5082POPC   C3A66509  29.805  14.553   6.913
 5082POPC   C4A66510  30.213  14.642   7.123
 5082POPC   C1B66511  30.078  14.096   6.153
 5082POPC   C2B66512  30.305  14.077   6.512
 5082POPC   C3B66513  30.165  14.169   6.899
 5082POPC   C4B66514  29.896  14.115   7.176
 5083POPC   NC366515   9.233  29.452   5.480
 5083POPC   PO466516   9.085  28.737   5.376
 5083POPC   GL166517   9.066  29.029   5.724
 5083POPC   GL266518   8.755  28.951   5.778
 5083POPC   C1A66519   8.998  29.312   6.125
 5083POPC   D2A66520   8.728  29.413   6.517
 5083POPC   C3A66521   8.895  29.297   6.935
 5083POPC   C4A66522   9.235  29.053   7.095
 5083POPC   C1B66523   8.940  28.794   6.184
 5083POPC   C2B66524   9.008  28.903   6.631
 5083POPC   C3B66525   8.786  28.796   7.037
 5083POPC   C4B66526   8.799  29.075   7.385
 5084POPC   NC366527   6.664  25.479   5.374
 5084POPC   PO466528   6.378  24.866   5.518
 5084POPC   GL166529   6.630  24.935   5.890
 5084POPC   GL266530   6.740  25.279   5.855
 5084POPC   C1A66531   6.670  25.112   6.333
 5084POPC   D2A66532   6.538  25.063   6.766
 5084POPC   C3A66533   6.802  25.163   7.125
 5084POPC   C4A66534   6.564  25.068   7.501
 5084POPC   C1B66535   7.020  25.493   6.188
 5084POPC   C2B66536   7.191  25.547   6.640
 5084POPC   C3B66537   6.986  25.664   7.064
 5084POPC   C4B66538   6.665  25.552   7.424
 5085POPC   NC366539  21.777  19.003   5.318
 5085POPC   PO466540  22.221  19.321   5.347
 5085POPC   GL166541  22.212  19.134   5.798
 5085POPC   GL266542  21.914  18.949   5.829
 5085POPC   C1A66543  22.255  19.127   6.305
 5085POPC   D2A66544  22.355  19.004   6.779
 5085POPC   C3A66545  22.443  19.314   7.138
 5085POPC   C4A66546  22.407  19.486   7.585
 5085POPC   C1B66547  21.843  18.816   6.256
 5085POPC   C2B66548  21.850  18.958   6.689
 5085POPC   C3B66549  21.939  19.082   7.112
 5085POPC   C4B66550  21.770  18.908   7.505
 5086POPC   NC366551  19.987  39.522   5.542
 5086POPC   PO466552  19.668  38.824   5.445
 5086POPC   GL166553  19.850  39.079   5.775
 5086POPC   GL266554  19.627  39.320   5.827
 5086POPC   C1A66555  20.041  39.239   6.181
 5086POPC   D2A66556  20.263  39.273   6.591
 5086POPC   C3A66557  20.030  39.242   6.982
 5086POPC   C4A66558  19.664  38.991   7.137
 5086POPC   C1B66559  19.602  39.494   6.217
 5086POPC   C2B66560  19.780  39.541   6.603
 5086POPC   C3B66561  19.562  39.457   6.962
 5086POPC   C4B66562  19.762  39.439   7.375
 5087POPC   NC366563  13.313  17.549   5.372
 5087POPC   PO466564  13.997  17.379   5.243
 5087POPC   GL166565  13.756  17.263   5.670
 5087POPC   GL266566  13.530  17.529   5.808
 5087POPC   C1A66567  13.609  17.171   6.138
 5087POPC   D2A66568  13.459  17.272   6.543
 5087POPC   C3A66569  13.798  17.426   6.795
 5087POPC   C4A66570  13.874  17.343   7.214
 5087POPC   C1B66571  13.588  17.752   6.163
 5087POPC   C2B66572  13.659  17.937   6.545
 5087POPC   C3B66573  13.458  17.801   6.892
 5087POPC   C4B66574  13.455  17.665   7.292
 5088POPC   NC366575  10.684  25.661   5.517
 5088POPC   PO466576  10.562  26.307   5.434
 5088POPC   GL166577  10.705  26.211   5.851
 5088POPC   GL266578  10.484  25.975   5.902
 5088POPC   C1A66579  10.752  26.108   6.297
 5088POPC   D2A66580  10.786  25.863   6.668
 5088POPC   C3A66581  10.633  26.086   7.034
 5088POPC   C4A66582  10.510  25.960   7.451
 5088POPC   C1B66583  10.200  25.901   6.252
 5088POPC   C2B66584  10.286  25.821   6.674
 5088POPC   C3B66585  10.162  25.883   7.068
 5088POPC   C4B66586  10.088  25.696   7.467
 5089POPC   NC366587  15.843  32.838   5.383
 5089POPC   PO466588  16.112  33.388   5.616
 5089POPC   GL166589  15.921  33.130   5.900
 5089POPC   GL266590  15.619  32.912   5.842
 5089POPC   C1A66591  16.029  33.286   6.303
 5089POPC   D2A66592  16.042  33.476   6.695
 5089POPC   C3A66593  16.167  33.179   6.996
 5089POPC   C4A66594  16.454  32.956   7.251
 5089POPC   C1B66595  15.642  32.950   6.300
 5089POPC   C2B66596  15.643  33.161   6.698
 5089POPC   C3B66597  15.743  32.893   7.032
 5089POPC   C4B66598  15.730  32.472   7.159
 5090POPC   NC366599  26.415  23.514   4.961
 5090POPC   PO466600  26.011  23.705   5.479
 5090POPC   GL166601  25.970  23.609   5.887
 5090POPC   GL266602  25.856  23.954   6.015
 5090POPC   C1A66603  26.109  23.573   6.304
 5090POPC   D2A66604  26.057  23.900   6.562
 5090POPC   C3A66605  26.026  23.768   6.974
 5090POPC   C4A66606  25.735  24.003   7.182
 5090POPC   C1B66607  26.329  23.969   6.062
 5090POPC   C2B66608  26.529  24.071   6.455
 5090POPC   C3B66609  26.429  24.089   6.883
 5090POPC   C4B66610  26.374  24.019   7.323
 5091POPC   NC366611   6.888  18.938   5.501
 5091POPC   PO466612   6.243  19.165   5.473
 5091POPC   GL166613   6.547  19.171   5.838
 5091POPC   GL266614   6.627  18.850   5.948
 5091POPC   C1A66615   6.831  19.255   6.194
 5091POPC   D2A66616   6.721  19.252   6.645
 5091POPC   C3A66617   6.971  19.271   7.039
 5091POPC   C4A66618   6.989  18.899   7.331
 5091POPC   C1B66619   6.385  19.000   6.313
 5091POPC   C2B66620   6.318  18.840   6.725
 5091POPC   C3B66621   6.520  18.737   7.116
 5091POPC   C4B66622   6.457  18.949   7.494
 5092POPC   NC366623   4.656  20.877   5.244
 5092POPC   PO466624   5.068  20.387   5.545
 5092POPC   GL166625   4.998  20.678   5.878
 5092POPC   GL266626   4.726  20.913   5.827
 5092POPC   C1A66627   5.216  20.780   6.272
 5092POPC   D2A66628   5.176  20.856   6.723
 5092POPC   C3A66629   5.421  20.584   6.977
 5092POPC   C4A66630   5.339  20.353   7.356
 5092POPC   C1B66631   4.576  21.032   6.224
 5092POPC   C2B66632   4.739  21.112   6.624
 5092POPC   C3B66633   4.659  20.930   7.019
 5092POPC   C4B66634   4.951  20.627   7.176
 5093POPC   NC366635  10.955  36.670   5.035
 5093POPC   PO466636  11.370  36.151   5.331
 5093POPC   GL166637  11.550  36.088   5.732
 5093POPC   GL266638  11.246  36.194   5.864
 5093POPC   C1A66639  11.538  36.029   6.211
 5093POPC   D2A66640  11.452  36.303   6.552
 5093POPC   C3A66641  11.530  36.104   6.943
 5093POPC   C4A66642  11.312  35.893   7.268
 5093POPC   C1B66643  11.017  36.215   6.244
 5093POPC   C2B66644  10.952  36.208   6.683
 5093POPC   C3B66645  11.023  36.289   7.122
 5093POPC   C4B66646  11.410  36.394   7.360
 5094POPC   NC366647   0.078  13.200   5.168
 5094POPC   PO466648   0.592  13.473   5.421
 5094POPC   GL166649   0.486  13.401   5.848
 5094POPC   GL266650   0.452  13.755   5.903
 5094POPC   C1A66651   0.384  13.428   6.296
 5094POPC   D2A66652   0.510  13.700   6.635
 5094POPC   C3A66653   0.405  13.505   7.035
 5094POPC   C4A66654   0.424  13.728   7.449
 5094POPC   C1B66655   0.015  13.574   5.998
 5094POPC   C2B66656  44.903  13.533   6.434
 5094POPC   C3B66657   0.033  13.773   6.786
 5094POPC   C4B66658  44.966  13.725   7.196
 5095POPC   NC366659  27.474   6.889   5.321
 5095POPC   PO466660  27.356   6.350   5.422
 5095POPC   GL166661  27.536   6.692   5.790
 5095POPC   GL266662  27.391   7.053   5.790
 5095POPC   C1A66663  27.677   6.860   6.243
 5095POPC   D2A66664  27.664   6.858   6.735
 5095POPC   C3A66665  27.710   6.456   6.903
 5095POPC   C4A66666  27.809   6.332   7.348
 5095POPC   C1B66667  27.183   6.913   6.145
 5095POPC   C2B66668  27.227   7.055   6.538
 5095POPC   C3B66669  27.181   6.893   6.978
 5095POPC   C4B66670  27.442   6.675   7.249
 5096POPC   NC366671   7.860  35.316   5.233
 5096POPC   PO466672   7.218  35.094   5.451
 5096POPC   GL166673   7.500  35.236   5.765
 5096POPC   GL266674   7.680  35.551   5.735
 5096POPC   C1A66675   7.442  35.311   6.202
 5096POPC   D2A66676   7.434  35.006   6.517
 5096POPC   C3A66677   7.473  35.228   6.876
 5096POPC   C4A66678   7.643  35.195   7.281
 5096POPC   C1B66679   7.642  35.777   6.132
 5096POPC   C2B66680   7.612  35.681   6.571
 5096POPC   C3B66681   7.678  35.677   7.014
 5096POPC   C4B66682   7.371  35.679   7.332
 5097POPC   NC366683  33.554  42.592   5.109
 5097POPC   PO466684  33.118  42.163   5.475
 5097POPC   GL166685  32.958  42.443   5.773
 5097POPC   GL266686  32.942  42.167   5.978
 5097POPC   C1A66687  33.031  42.653   6.179
 5097POPC   D2A66688  33.179  42.542   6.589
 5097POPC   C3A66689  33.022  42.694   6.980
 5097POPC   C4A66690  33.008  42.518   7.378
 5097POPC   C1B66691  32.893  42.149   6.431
 5097POPC   C2B66692  32.925  41.932   6.810
 5097POPC   C3B66693  32.848  42.089   7.210
 5097POPC   C4B66694  32.664  41.975   7.600
 5098POPC   NC366695   9.036  42.945   5.431
 5098POPC   PO466696   8.844  43.576   5.589
 5098POPC   GL166697   8.793  43.149   5.860
 5098POPC   GL266698   8.864  42.760   5.887
 5098POPC   C1A66699   8.830  43.127   6.323
 5098POPC   D2A66700   9.023  43.443   6.606
 5098POPC   C3A66701   9.025  43.268   6.996
 5098POPC   C4A66702   8.786  42.974   7.202
 5098POPC   C1B66703   9.008  42.626   6.315
 5098POPC   C2B66704   8.991  42.638   6.785
 5098POPC   C3B66705   9.237  42.746   7.159
 5098POPC   C4B66706   9.410  42.827   7.616
 5099POPC   NC366707   5.038   7.666   4.949
 5099POPC   PO466708   4.603   7.910   5.336
 5099POPC   GL166709   4.610   8.044   5.795
 5099POPC   GL266710   4.838   8.329   5.819
 5099POPC   C1A66711   4.616   8.146   6.258
 5099POPC   D2A66712   4.711   8.185   6.725
 5099POPC   C3A66713   5.066   8.065   7.035
 5099POPC   C4A66714   5.426   8.185   7.344
 5099POPC   C1B66715   4.725   8.648   6.133
 5099POPC   C2B66716   4.682   8.705   6.586
 5099POPC   C3B66717   4.730   8.601   7.042
 5099POPC   C4B66718   4.965   8.403   7.409
 5100POPC   NC366719  36.197   0.836   5.422
 5100POPC   PO466720  36.411   1.445   5.318
 5100POPC   GL166721  36.241   1.420   5.769
 5100POPC   GL266722  36.114   1.083   5.892
 5100POPC   C1A66723  36.020   1.543   6.189
 5100POPC   D2A66724  35.949   1.229   6.530
 5100POPC   C3A66725  36.004   1.089   6.970
 5100POPC   C4A66726  36.042   1.261   7.405
 5100POPC   C1B66727  36.413   1.237   6.236
 5100POPC   C2B66728  36.447   1.224   6.675
 5100POPC   C3B66729  36.627   1.493   6.958
 5100POPC   C4B66730  36.537   1.254   7.280
 5101POPC   NC366731   5.890  24.993   5.479
 5101POPC   PO466732   6.135  25.637   5.442
 5101POPC   GL166733   5.925  25.414   5.775
 5101POPC   GL266734   6.183  25.197   5.871
 5101POPC   C1A66735   5.687  25.406   6.168
 5101POPC   D2A66736   5.545  25.570   6.575
 5101POPC   C3A66737   5.739  25.520   6.984
 5101POPC   C4A66738   5.735  25.163   7.251
 5101POPC   C1B66739   6.167  25.253   6.314
 5101POPC   C2B66740   6.183  25.444   6.721
 5101POPC   C3B66741   6.256  25.365   7.152
 5101POPC   C4B66742   6.150  25.314   7.561
 5102POPC   NC366743  12.951   0.816   5.345
 5102POPC   PO466744  12.589   0.320   5.368
 5102POPC   GL166745  12.830   0.468   5.716
 5102POPC   GL266746  13.126   0.230   5.724
 5102POPC   C1A66747  12.949   0.570   6.134
 5102POPC   D2A66748  13.005   0.413   6.558
 5102POPC   C3A66749  12.830   0.586   6.966
 5102POPC   C4A66750  12.880   0.665   7.443
 5102POPC   C1B66751  13.147   0.083   6.149
 5102POPC   C2B66752  12.955  44.884   6.506
 5102POPC   C3B66753  12.891   0.049   6.908
 5102POPC   C4B66754  13.019   0.099   7.319
 5103POPC   NC366755  30.835  43.098   5.357
 5103POPC   PO466756  30.483  42.570   5.233
 5103POPC   GL166757  30.680  42.811   5.737
 5103POPC   GL266758  30.783  43.161   5.865
 5103POPC   C1A66759  30.873  42.770   6.200
 5103POPC   D2A66760  30.690  42.790   6.637
 5103POPC   C3A66761  30.670  43.008   7.041
 5103POPC   C4A66762  30.448  43.314   7.289
 5103POPC   C1B66763  30.626  43.195   6.317
 5103POPC   C2B66764  30.885  43.347   6.695
 5103POPC   C3B66765  31.009  43.376   7.159
 5103POPC   C4B66766  30.853  43.507   7.532
 5104POPC   NC366767  28.383  19.470   5.386
 5104POPC   PO466768  28.174  18.870   5.663
 5104POPC   GL166769  28.356  19.228   5.827
 5104POPC   GL266770  28.683  19.134   5.646
 5104POPC   C1A66771  28.323  19.470   6.213
 5104POPC   D2A66772  28.101  19.456   6.613
 5104POPC   C3A66773  28.175  19.169   6.970
 5104POPC   C4A66774  28.151  18.720   7.108
 5104POPC   C1B66775  28.754  19.048   6.084
 5104POPC   C2B66776  28.530  19.064   6.498
 5104POPC   C3B66777  28.663  18.942   6.926
 5104POPC   C4B66778  28.523  19.047   7.345
 5105POPC   NC366779  27.258   9.520   5.201
 5105POPC   PO466780  26.632   9.652   5.506
 5105POPC   GL166781  26.794   9.673   5.893
 5105POPC   GL266782  27.140   9.538   5.881
 5105POPC   C1A66783  26.669   9.638   6.320
 5105POPC   D2A66784  26.644   9.475   6.745
 5105POPC   C3A66785  26.555   9.798   7.042
 5105POPC   C4A66786  26.549   9.786   7.488
 5105POPC   C1B66787  27.128   9.870   6.219
 5105POPC   C2B66788  26.970   9.928   6.633
 5105POPC   C3B66789  27.068   9.728   7.018
 5105POPC   C4B66790  26.943  10.033   7.298
 5106POPC   NC366791  42.321  21.486   5.008
 5106POPC   PO466792  42.279  21.230   5.401
 5106POPC   GL166793  42.439  21.450   5.829
 5106POPC   GL266794  42.597  21.800   5.829
 5106POPC   C1A66795  42.566  21.391   6.310
 5106POPC   D2A66796  42.704  21.362   6.783
 5106POPC   C3A66797  42.454  21.447   7.185
 5106POPC   C4A66798  42.276  21.291   7.609
 5106POPC   C1B66799  42.593  21.899   6.310
 5106POPC   C2B66800  42.539  21.855   6.808
 5106POPC   C3B66801  42.348  22.014   7.228
 5106POPC   C4B66802  42.433  21.936   7.658
 5107POPC   NC366803  43.994  43.097   5.454
 5107POPC   PO466804  43.579  43.415   5.088
 5107POPC   GL166805  43.721  43.432   5.675
 5107POPC   GL266806  43.741  43.093   5.888
 5107POPC   C1A66807  43.919  43.449   6.168
 5107POPC   D2A66808  44.177  43.082   6.422
 5107POPC   C3A66809  44.120  42.969   6.868
 5107POPC   C4A66810  43.892  43.292   7.143
 5107POPC   C1B66811  43.558  43.028   6.305
 5107POPC   C2B66812  43.610  43.051   6.767
 5107POPC   C3B66813  43.727  42.818   7.177
 5107POPC   C4B66814  43.508  42.859   7.571
 5108POPC   NC366815   6.230  31.998   5.473
 5108POPC   PO466816   5.553  32.132   5.582
 5108POPC   GL166817   5.680  32.454   5.858
 5108POPC   GL266818   6.029  32.459   5.885
 5108POPC   C1A66819   5.540  32.534   6.229
 5108POPC   D2A66820   5.801  32.431   6.548
 5108POPC   C3A66821   5.659  32.227   6.911
 5108POPC   C4A66822   5.463  32.301   7.280
 5108POPC   C1B66823   5.961  32.089   6.158
 5108POPC   C2B66824   6.059  31.986   6.582
 5108POPC   C3B66825   6.157  32.317   6.903
 5108POPC   C4B66826   5.967  32.446   7.298
 5109POPC   NC366827  25.432  40.936   5.334
 5109POPC   PO466828  24.781  41.216   5.378
 5109POPC   GL166829  25.098  41.074   5.709
 5109POPC   GL266830  25.484  41.142   5.789
 5109POPC   C1A66831  25.264  40.712   5.957
 5109POPC   D2A66832  25.330  40.611   6.376
 5109POPC   C3A66833  25.353  40.545   6.809
 5109POPC   C4A66834  25.414  40.668   7.223
 5109POPC   C1B66835  25.308  41.171   6.205
 5109POPC   C2B66836  25.508  41.027   6.576
 5109POPC   C3B66837  25.482  41.089   6.950
 5109POPC   C4B66838  25.544  41.369   7.282
 5110POPC   NC366839  14.342  34.126   5.228
 5110POPC   PO466840  14.493  34.713   5.450
 5110POPC   GL166841  14.269  34.633   5.818
 5110POPC   GL266842  14.052  34.334   5.800
 5110POPC   C1A66843  14.369  34.729   6.239
 5110POPC   D2A66844  14.120  34.710   6.586
 5110POPC   C3A66845  14.331  34.753   6.937
 5110POPC   C4A66846  14.148  34.701   7.331
 5110POPC   C1B66847  14.353  34.233   6.171
 5110POPC   C2B66848  14.494  34.355   6.613
 5110POPC   C3B66849  14.377  34.254   7.052
 5110POPC   C4B66850  14.405  34.260   7.517
 5111POPC   NC366851  13.034  43.339   5.281
 5111POPC   PO466852  12.578  42.887   5.424
 5111POPC   GL166853  12.806  43.164   5.715
 5111POPC   GL266854  12.867  42.884   5.886
 5111POPC   C1A66855  12.800  43.289   6.173
 5111POPC   D2A66856  12.562  43.239   6.526
 5111POPC   C3A66857  12.782  43.341   6.885
 5111POPC   C4A66858  12.662  43.462   7.277
 5111POPC   C1B66859  12.717  42.787   6.301
 5111POPC   C2B66860  12.665  42.739   6.739
 5111POPC   C3B66861  12.613  42.913   7.127
 5111POPC   C4B66862  12.936  43.049   7.334
 5112POPC   NC366863   1.281   4.724   5.447
 5112POPC   PO466864   1.321   5.351   5.480
 5112POPC   GL166865   1.310   5.087   5.819
 5112POPC   GL266866   0.987   4.918   5.852
 5112POPC   C1A66867   1.336   4.960   6.251
 5112POPC   D2A66868   1.610   4.811   6.584
 5112POPC   C3A66869   1.513   4.937   7.022
 5112POPC   C4A66870   1.477   5.068   7.470
 5112POPC   C1B66871   0.985   5.346   6.096
 5112POPC   C2B66872   1.177   5.388   6.503
 5112POPC   C3B66873   1.088   5.240   6.916
 5112POPC   C4B66874   0.977   5.502   7.262
 5113POPC   NC366875  18.284  15.901   5.310
 5113POPC   PO466876  17.832  16.421   5.123
 5113POPC   GL166877  17.978  16.150   5.626
 5113POPC   GL266878  18.344  16.139   5.745
 5113POPC   C1A66879  18.157  15.758   6.012
 5113POPC   D2A66880  18.177  15.550   6.468
 5113POPC   C3A66881  18.326  15.739   6.864
 5113POPC   C4A66882  18.188  15.845   7.293
 5113POPC   C1B66883  18.211  16.233   6.155
 5113POPC   C2B66884  18.344  16.155   6.569
 5113POPC   C3B66885  18.329  16.234   7.008
 5113POPC   C4B66886  18.319  16.302   7.470
 5114POPC   NC366887  31.087   3.709   5.316
 5114POPC   PO466888  30.537   3.412   5.525
 5114POPC   GL166889  30.905   3.558   5.768
 5114POPC   GL266890  31.047   3.912   5.778
 5114POPC   C1A66891  31.002   3.572   6.200
 5114POPC   D2A66892  30.707   3.513   6.542
 5114POPC   C3A66893  30.820   3.416   6.953
 5114POPC   C4A66894  31.097   3.675   7.129
 5114POPC   C1B66895  30.648   3.928   6.049
 5114POPC   C2B66896  30.607   4.016   6.522
 5114POPC   C3B66897  30.528   3.892   6.971
 5114POPC   C4B66898  30.569   4.129   7.363
 5115POPC   NC366899  40.552  28.990   5.466
 5115POPC   PO466900  40.995  29.520   5.467
 5115POPC   GL166901  40.954  29.241   5.869
 5115POPC   GL266902  40.757  28.899   5.929
 5115POPC   C1A66903  41.078  29.410   6.293
 5115POPC   D2A66904  40.965  29.607   6.713
 5115POPC   C3A66905  40.889  29.469   7.153
 5115POPC   C4A66906  40.745  29.205   7.502
 5115POPC   C1B66907  41.017  28.905   6.278
 5115POPC   C2B66908  41.022  29.067   6.699
 5115POPC   C3B66909  40.789  28.956   7.046
 5115POPC   C4B66910  40.449  28.795   7.280
 5116POPC   NC366911  15.130  14.856   5.343
 5116POPC   PO466912  14.917  14.287   5.521
 5116POPC   GL166913  15.100  14.419   5.869
 5116POPC   GL266914  15.383  14.564   5.736
 5116POPC   C1A66915  15.049  14.315   6.284
 5116POPC   D2A66916  14.985  14.557   6.641
 5116POPC   C3A66917  14.770  14.357   6.950
 5116POPC   C4A66918  14.979  14.131   7.225
 5116POPC   C1B66919  15.585  14.427   6.111
 5116POPC   C2B66920  15.483  14.481   6.536
 5116POPC   C3B66921  15.395  14.398   6.952
 5116POPC   C4B66922  15.650  14.690   7.201
 5117POPC   NC366923  31.191  10.350   5.597
 5117POPC   PO466924  31.086  10.985   5.512
 5117POPC   GL166925  31.328  10.797   5.826
 5117POPC   GL266926  31.619  10.711   5.699
 5117POPC   C1A66927  31.276  10.900   6.268
 5117POPC   D2A66928  31.386  10.646   6.628
 5117POPC   C3A66929  31.398  10.585   7.078
 5117POPC   C4A66930  31.344  10.176   7.277
 5117POPC   C1B66931  31.637  10.558   6.143
 5117POPC   C2B66932  31.825  10.390   6.508
 5117POPC   C3B66933  31.863  10.468   6.932
 5117POPC   C4B66934  31.879  10.733   7.286
 5118POPC   NC366935  10.524   8.344   5.423
 5118POPC   PO466936   9.917   8.296   5.412
 5118POPC   GL166937  10.213   8.384   5.832
 5118POPC   GL266938  10.614   8.274   5.923
 5118POPC   C1A66939  10.267   8.290   6.293
 5118POPC   D2A66940  10.327   8.475   6.708
 5118POPC   C3A66941  10.445   8.219   7.076
 5118POPC   C4A66942  10.383   8.203   7.526
 5118POPC   C1B66943  10.786   8.368   6.362
 5118POPC   C2B66944  10.839   8.473   6.828
 5118POPC   C3B66945  10.830   8.439   7.318
 5118POPC   C4B66946  10.846   8.247   7.763
 5119POPC   NC366947   5.597  23.485   5.064
 5119POPC   PO466948   6.116  23.818   5.335
 5119POPC   GL166949   6.261  23.922   5.783
 5119POPC   GL266950   6.165  23.592   5.883
 5119POPC   C1A66951   6.241  24.028   6.258
 5119POPC   D2A66952   5.898  24.057   6.581
 5119POPC   C3A66953   5.951  23.959   6.977
 5119POPC   C4A66954   5.827  23.736   7.246
 5119POPC   C1B66955   5.948  23.602   6.285
 5119POPC   C2B66956   5.866  23.511   6.719
 5119POPC   C3B66957   6.117  23.373   7.056
 5119POPC   C4B66958   6.076  23.420   7.543
 5120POPC   NC366959  13.066  15.199   5.332
 5120POPC   PO466960  12.363  15.025   5.507
 5120POPC   GL166961  12.728  15.189   5.768
 5120POPC   GL266962  13.045  15.025   5.804
 5120POPC   C1A66963  12.916  15.326   6.198
 5120POPC   D2A66964  12.749  15.423   6.622
 5120POPC   C3A66965  12.719  15.084   6.840
 5120POPC   C4A66966  12.852  15.203   7.219
 5120POPC   C1B66967  13.175  14.862   6.220
 5120POPC   C2B66968  13.079  14.729   6.656
 5120POPC   C3B66969  13.184  14.834   7.101
 5120POPC   C4B66970  13.027  14.848   7.558
 5121POPC   NC366971   0.262  23.952   5.442
 5121POPC   PO466972   0.791  23.582   5.441
 5121POPC   GL166973   0.594  23.451   5.836
 5121POPC   GL266974   0.257  23.556   5.826
 5121POPC   C1A66975   0.483  23.399   6.292
 5121POPC   D2A66976   0.762  23.414   6.653
 5121POPC   C3A66977   0.627  23.613   7.048
 5121POPC   C4A66978   0.678  24.105   7.089
 5121POPC   C1B66979   0.387  23.869   6.157
 5121POPC   C2B66980   0.387  23.811   6.636
 5121POPC   C3B66981   0.211  23.896   7.076
 5121POPC   C4B66982   0.037  24.108   7.456
 5122POPC   NC366983  31.020   9.333   5.375
 5122POPC   PO466984  30.410   9.530   5.412
 5122POPC   GL166985  30.487   9.166   5.706
 5122POPC   GL266986  30.834   9.063   5.780
 5122POPC   C1A66987  30.489   8.888   6.108
 5122POPC   D2A66988  30.568   9.031   6.552
 5122POPC   C3A66989  30.731   8.931   7.002
 5122POPC   C4A66990  30.718   8.697   7.399
 5122POPC   C1B66991  30.988   8.941   6.225
 5122POPC   C2B66992  30.989   8.680   6.634
 5122POPC   C3B66993  31.124   8.608   7.095
 5122POPC   C4B66994  31.186   8.973   7.358
 5123POPC   NC366995  16.187  19.883   5.227
 5123POPC   PO466996  15.581  19.883   5.369
 5123POPC   GL166997  15.577  19.939   5.825
 5123POPC   GL266998  15.444  20.292   5.855
 5123POPC   C1A66999  15.873  19.770   6.196
 5123POPC   D2A67000  16.273  19.846   6.508
 5123POPC   C3A67001  16.204  19.826   6.999
 5123POPC   C4A67002  16.038  19.641   7.420
 5123POPC   C1B67003  15.759  20.263   6.196
 5123POPC   C2B67004  15.828  20.086   6.600
 5123POPC   C3B67005  15.629  20.072   6.975
 5123POPC   C4B67006  15.587  19.855   7.319
 5124POPC   NC367007  24.955  38.003   5.534
 5124POPC   PO467008  24.525  37.348   5.543
 5124POPC   GL167009  24.692  37.640   5.781
 5124POPC   GL267010  24.373  37.723   5.915
 5124POPC   C1A67011  24.835  37.741   6.185
 5124POPC   D2A67012  24.811  37.543   6.614
 5124POPC   C3A67013  24.576  37.704   6.977
 5124POPC   C4A67014  24.569  37.748   7.442
 5124POPC   C1B67015  24.483  37.390   6.244
 5124POPC   C2B67016  24.272  37.264   6.616
 5124POPC   C3B67017  24.246  37.185   7.060
 5124POPC   C4B67018  24.285  37.291   7.497
 5125POPC   NC367019   9.313  13.393   5.677
 5125POPC   PO467020   9.816  13.569   5.334
 5125POPC   GL167021   9.845  13.399   5.757
 5125POPC   GL267022   9.926  13.717   5.848
 5125POPC   C1A67023   9.871  13.379   6.224
 5125POPC   D2A67024   9.933  13.598   6.608
 5125POPC   C3A67025   9.626  13.509   6.916
 5125POPC   C4A67026   9.719  13.375   7.309
 5125POPC   C1B67027   9.838  13.952   6.213
 5125POPC   C2B67028  10.026  14.093   6.591
 5125POPC   C3B67029   9.930  14.058   7.032
 5125POPC   C4B67030   9.611  13.894   7.258
 5126POPC   NC367031  36.399  16.466   5.457
 5126POPC   PO467032  36.263  17.184   5.647
 5126POPC   GL167033  36.256  16.787   5.907
 5126POPC   GL267034  36.231  16.394   5.926
 5126POPC   C1A67035  36.206  16.681   6.371
 5126POPC   D2A67036  36.362  16.634   6.804
 5126POPC   C3A67037  36.351  17.063   6.963
 5126POPC   C4A67038  36.228  17.200   7.358
 5126POPC   C1B67039  35.823  16.395   6.154
 5126POPC   C2B67040  35.686  16.546   6.553
 5126POPC   C3B67041  35.883  16.816   6.835
 5126POPC   C4B67042  36.090  16.726   7.240
 5127POPC   NC367043  34.255  37.134   5.458
 5127POPC   PO467044  33.846  36.600   5.363
 5127POPC   GL167045  33.770  36.782   5.811
 5127POPC   GL267046  34.084  36.785   5.794
 5127POPC   C1A67047  33.666  36.928   6.257
 5127POPC   D2A67048  33.412  36.807   6.633
 5127POPC   C3A67049  33.601  36.972   7.014
 5127POPC   C4A67050  33.552  37.021   7.441
 5127POPC   C1B67051  34.160  36.770   6.206
 5127POPC   C2B67052  34.138  37.014   6.560
 5127POPC   C3B67053  34.084  36.860   6.948
 5127POPC   C4B67054  34.091  37.110   7.274
 5128POPC   NC367055   7.199  34.647   5.571
 5128POPC   PO467056   7.738  34.240   5.447
 5128POPC   GL167057   7.737  34.424   5.835
 5128POPC   GL267058   7.396  34.267   5.842
 5128POPC   C1A67059   7.571  34.471   6.275
 5128POPC   D2A67060   7.405  34.526   6.694
 5128POPC   C3A67061   7.621  34.741   7.020
 5128POPC   C4A67062   7.763  34.498   7.366
 5128POPC   C1B67063   7.028  34.274   6.112
 5128POPC   C2B67064   6.925  34.432   6.507
 5128POPC   C3B67065   7.016  34.269   6.910
 5128POPC   C4B67066   7.270  34.416   7.212
 5129POPC   NC367067  30.738  37.132   5.444
 5129POPC   PO467068  30.540  36.415   5.530
 5129POPC   GL167069  30.634  36.786   5.821
 5129POPC   GL267070  30.361  37.029   5.790
 5129POPC   C1A67071  30.919  36.980   6.167
 5129POPC   D2A67072  30.906  37.181   6.605
 5129POPC   C3A67073  30.868  36.855   6.941
 5129POPC   C4A67074  31.124  36.784   7.286
 5129POPC   C1B67075  30.494  37.274   6.127
 5129POPC   C2B67076  30.404  37.102   6.514
 5129POPC   C3B67077  30.493  37.221   6.918
 5129POPC   C4B67078  30.407  36.981   7.243
 5130POPC   NC367079  28.716  26.065   5.238
 5130POPC   PO467080  29.271  25.762   5.144
 5130POPC   GL167081  29.285  25.925   5.601
 5130POPC   GL267082  28.976  26.088   5.687
 5130POPC   C1A67083  29.333  25.890   6.078
 5130POPC   D2A67084  29.184  26.012   6.532
 5130POPC   C3A67085  29.398  25.914   6.953
 5130POPC   C4A67086  29.245  25.649   7.334
 5130POPC   C1B67087  28.882  26.206   6.121
 5130POPC   C2B67088  28.821  26.388   6.528
 5130POPC   C3B67089  29.049  26.407   6.921
 5130POPC   C4B67090  29.038  26.124   7.260
 5131POPC   NC367091   5.323  21.550   5.565
 5131POPC   PO467092   5.042  21.012   5.445
 5131POPC   GL167093   5.137  21.215   5.894
 5131POPC   GL267094   5.067  21.616   5.981
 5131POPC   C1A67095   5.141  21.278   6.345
 5131POPC   D2A67096   5.098  21.534   6.699
 5131POPC   C3A67097   5.043  21.247   7.031
 5131POPC   C4A67098   5.322  20.984   7.251
 5131POPC   C1B67099   5.301  21.821   6.306
 5131POPC   C2B67100   5.569  21.781   6.671
 5131POPC   C3B67101   5.344  21.922   7.038
 5131POPC   C4B67102   4.992  21.736   7.154
 5132POPC   NC367103   8.673  22.500   5.731
 5132POPC   PO467104   8.980  22.940   5.364
 5132POPC   GL167105   8.933  22.947   5.798
 5132POPC   GL267106   8.647  23.129   5.818
 5132POPC   C1A67107   8.981  22.764   6.232
 5132POPC   D2A67108   9.194  22.914   6.561
 5132POPC   C3A67109   9.023  22.911   6.957
 5132POPC   C4A67110   9.213  22.639   7.222
 5132POPC   C1B67111   8.525  23.018   6.206
 5132POPC   C2B67112   8.578  22.822   6.584
 5132POPC   C3B67113   8.520  22.940   6.996
 5132POPC   C4B67114   8.331  22.828   7.370
 5133POPC   NC367115  28.687  24.339   5.617
 5133POPC   PO467116  28.143  24.677   5.331
 5133POPC   GL167117  28.213  24.572   5.765
 5133POPC   GL267118  28.047  24.800   5.945
 5133POPC   C1A67119  28.224  24.347   6.190
 5133POPC   D2A67120  28.030  24.237   6.591
 5133POPC   C3A67121  28.210  24.339   6.981
 5133POPC   C4A67122  28.430  24.232   7.345
 5133POPC   C1B67123  28.488  24.771   6.180
 5133POPC   C2B67124  28.513  24.574   6.625
 5133POPC   C3B67125  28.604  24.669   7.120
 5133POPC   C4B67126  28.441  24.666   7.600
 5134POPC   NC367127  35.029  20.163   5.265
 5134POPC   PO467128  35.486  19.726   5.322
 5134POPC   GL167129  35.428  19.941   5.695
 5134POPC   GL267130  35.342  20.281   5.668
 5134POPC   C1A67131  35.450  19.954   6.141
 5134POPC   D2A67132  35.309  19.687   6.477
 5134POPC   C3A67133  35.588  19.713   6.811
 5134POPC   C4A67134  35.436  19.753   7.204
 5134POPC   C1B67135  35.111  20.337   6.080
 5134POPC   C2B67136  35.084  20.190   6.533
 5134POPC   C3B67137  35.195  20.278   6.989
 5134POPC   C4B67138  35.356  20.204   7.430
 5135POPC   NC367139  34.715  30.112   5.398
 5135POPC   PO467140  34.260  29.543   5.373
 5135POPC   GL167141  34.458  29.663   5.737
 5135POPC   GL267142  34.425  30.025   5.796
 5135POPC   C1A67143  34.462  29.659   6.177
 5135POPC   D2A67144  34.626  29.791   6.561
 5135POPC   C3A67145  34.431  29.610   6.902
 5135POPC   C4A67146  34.411  29.805   7.273
 5135POPC   C1B67147  34.433  30.179   6.187
 5135POPC   C2B67148  34.460  30.283   6.589
 5135POPC   C3B67149  34.245  30.193   6.934
 5135POPC   C4B67150  34.485  30.299   7.243
 5136POPC   NC367151  12.383  22.581   5.580
 5136POPC   PO467152  11.923  23.092   5.410
 5136POPC   GL167153  12.004  22.993   5.829
 5136POPC   GL267154  11.992  22.655   5.882
 5136POPC   C1A67155  12.119  22.999   6.256
 5136POPC   D2A67156  11.905  23.180   6.623
 5136POPC   C3A67157  11.785  23.059   7.030
 5136POPC   C4A67158  12.189  22.942   7.123
 5136POPC   C1B67159  11.821  22.598   6.301
 5136POPC   C2B67160  11.751  22.685   6.715
 5136POPC   C3B67161  11.856  22.548   7.162
 5136POPC   C4B67162  11.702  22.627   7.592
 5137POPC   NC367163   7.819  22.142   5.346
 5137POPC   PO467164   8.326  22.226   5.691
 5137POPC   GL167165   8.134  21.964   5.939
 5137POPC   GL267166   7.798  21.833   5.844
 5137POPC   C1A67167   8.219  22.112   6.346
 5137POPC   D2A67168   8.352  22.366   6.683
 5137POPC   C3A67169   8.370  22.137   7.026
 5137POPC   C4A67170   8.174  22.359   7.298
 5137POPC   C1B67171   7.769  21.871   6.327
 5137POPC   C2B67172   7.887  21.873   6.770
 5137POPC   C3B67173   7.967  21.881   7.235
 5137POPC   C4B67174   7.883  21.925   7.721
 5138POPC   NC367175  12.917  19.443   5.644
 5138POPC   PO467176  13.211  18.969   5.257
 5138POPC   GL167177  13.152  18.938   5.741
 5138POPC   GL267178  13.246  19.205   5.939
 5138POPC   C1A67179  12.988  18.863   6.203
 5138POPC   D2A67180  12.622  18.899   6.511
 5138POPC   C3A67181  12.670  19.252   6.826
 5138POPC   C4A67182  12.871  19.106   7.202
 5138POPC   C1B67183  13.290  19.274   6.356
 5138POPC   C2B67184  13.190  19.108   6.762
 5138POPC   C3B67185  13.320  19.324   7.114
 5138POPC   C4B67186  13.118  19.428   7.516
 5139POPC   NC367187  32.086  23.399   5.510
 5139POPC   PO467188  31.968  24.020   5.244
 5139POPC   GL167189  32.324  23.816   5.666
 5139POPC   GL267190  32.278  23.458   5.946
 5139POPC   C1A67191  32.422  23.855   6.157
 5139POPC   D2A67192  32.192  23.741   6.496
 5139POPC   C3A67193  32.281  24.011   6.818
 5139POPC   C4A67194  32.111  24.001   7.168
 5139POPC   C1B67195  32.623  23.376   6.206
 5139POPC   C2B67196  32.703  23.628   6.542
 5139POPC   C3B67197  32.487  23.509   6.901
 5139POPC   C4B67198  32.442  23.591   7.301
 5140POPC   NC367199   4.000   2.998   5.378
 5140POPC   PO467200   4.521   2.627   5.418
 5140POPC   GL167201   4.429   2.572   5.841
 5140POPC   GL267202   4.116   2.708   5.787
 5140POPC   C1A67203   4.366   2.495   6.294
 5140POPC   D2A67204   4.525   2.751   6.605
 5140POPC   C3A67205   4.703   2.608   6.990
 5140POPC   C4A67206   4.541   2.750   7.388
 5140POPC   C1B67207   3.885   2.528   6.125
 5140POPC   C2B67208   3.941   2.613   6.577
 5140POPC   C3B67209   4.158   2.692   6.972
 5140POPC   C4B67210   4.047   2.898   7.357
 5141POPC   NC367211   3.686  43.662   5.594
 5141POPC   PO467212   4.008  44.225   5.479
 5141POPC   GL167213   3.862  44.067   5.867
 5141POPC   GL267214   3.513  44.076   5.933
 5141POPC   C1A67215   3.847  43.798   6.250
 5141POPC   D2A67216   3.767  43.945   6.672
 5141POPC   C3A67217   3.755  43.750   7.084
 5141POPC   C4A67218   3.740  43.875   7.543
 5141POPC   C1B67219   3.350  43.934   6.362
 5141POPC   C2B67220   3.304  43.825   6.838
 5141POPC   C3B67221   3.317  43.965   7.275
 5141POPC   C4B67222   2.966  44.041   7.560
 5142POPC   NC367223   3.217   1.186   5.298
 5142POPC   PO467224   3.811   0.968   5.375
 5142POPC   GL167225   3.703   1.155   5.852
 5142POPC   GL267226   3.347   1.216   5.833
 5142POPC   C1A67227   3.574   1.295   6.339
 5142POPC   D2A67228   3.268   1.564   6.662
 5142POPC   C3A67229   3.373   1.644   7.144
 5142POPC   C4A67230   3.785   1.545   7.373
 5142POPC   C1B67231   3.165   0.933   6.166
 5142POPC   C2B67232   3.274   0.963   6.612
 5142POPC   C3B67233   3.525   1.193   6.914
 5142POPC   C4B67234   3.429   1.176   7.324
 5143POPC   NC367235   9.229  35.807   5.668
 5143POPC   PO467236   8.862  36.250   5.401
 5143POPC   GL167237   8.765  36.407   5.825
 5143POPC   GL267238   8.934  36.133   5.909
 5143POPC   C1A67239   8.870  36.440   6.288
 5143POPC   D2A67240   9.197  36.427   6.580
 5143POPC   C3A67241   9.040  36.286   6.950
 5143POPC   C4A67242   8.920  36.215   7.345
 5143POPC   C1B67243   9.140  36.006   6.273
 5143POPC   C2B67244   8.982  35.888   6.626
 5143POPC   C3B67245   9.079  35.740   7.008
 5143POPC   C4B67246   9.043  35.714   7.432
 5144POPC   NC367247  22.955   6.253   5.458
 5144POPC   PO467248  23.007   5.595   5.337
 5144POPC   GL167249  22.857   5.782   5.717
 5144POPC   GL267250  23.088   5.566   5.862
 5144POPC   C1A67251  22.842   5.901   6.171
 5144POPC   D2A67252  22.596   5.960   6.549
 5144POPC   C3A67253  22.785   6.085   6.938
 5144POPC   C4A67254  22.691   5.782   7.205
 5144POPC   C1B67255  23.282   5.645   6.254
 5144POPC   C2B67256  23.171   5.867   6.634
 5144POPC   C3B67257  23.142   5.677   7.023
 5144POPC   C4B67258  23.230   5.240   7.069
 5145POPC   NC367259  44.985   1.297   5.539
 5145POPC   PO467260  44.501   0.898   5.379
 5145POPC   GL167261  44.425   1.183   5.753
 5145POPC   GL267262  44.561   1.525   5.730
 5145POPC   C1A67263  44.261   1.124   6.166
 5145POPC   D2A67264  44.464   1.150   6.568
 5145POPC   C3A67265  44.281   1.058   6.943
 5145POPC   C4A67266  44.508   1.207   7.243
 5145POPC   C1B67267  44.730   1.327   6.146
 5145POPC   C2B67268  44.981   1.126   6.489
 5145POPC   C3B67269  44.938   1.152   6.948
 5145POPC   C4B67270  44.936   1.477   7.295
 5146POPC   NC367271  22.975   0.085   5.386
 5146POPC   PO467272  23.503   0.078   5.698
 5146POPC   GL167273  23.077   0.037   5.892
 5146POPC   GL267274  22.743   0.235   5.881
 5146POPC   C1A67275  23.016   0.062   6.311
 5146POPC   D2A67276  23.036   0.418   6.587
 5146POPC   C3A67277  23.115   0.319   7.002
 5146POPC   C4A67278  22.985  44.950   7.119
 5146POPC   C1B67279  22.597   0.443   6.299
 5146POPC   C2B67280  22.590   0.592   6.761
 5146POPC   C3B67281  22.754   0.626   7.183
 5146POPC   C4B67282  22.648   0.675   7.618
 5147POPC   NC367283   8.020   0.787   5.448
 5147POPC   PO467284   8.225   0.262   5.137
 5147POPC   GL167285   8.244   0.366   5.622
 5147POPC   GL267286   7.934   0.206   5.780
 5147POPC   C1A67287   8.380   0.420   6.073
 5147POPC   D2A67288   8.567   0.448   6.500
 5147POPC   C3A67289   8.379   0.208   6.843
 5147POPC   C4A67290   8.426   0.330   7.258
 5147POPC   C1B67291   7.878   0.373   6.207
 5147POPC   C2B67292   8.025   0.527   6.613
 5147POPC   C3B67293   7.883   0.372   7.029
 5147POPC   C4B67294   7.986   0.466   7.454
 5148POPC   NC367295  19.484   2.653   5.411
 5148POPC   PO467296  18.820   2.932   5.407
 5148POPC   GL167297  19.035   2.601   5.725
 5148POPC   GL267298  18.860   2.246   5.765
 5148POPC   C1A67299  19.280   2.640   6.153
 5148POPC   D2A67300  19.382   2.843   6.568
 5148POPC   C3A67301  19.214   2.774   6.957
 5148POPC   C4A67302  18.861   2.965   7.140
 5148POPC   C1B67303  18.790   2.465   6.166
 5148POPC   C2B67304  18.857   2.707   6.577
 5148POPC   C3B67305  18.814   2.471   6.986
 5148POPC   C4B67306  19.090   2.389   7.293
 5149POPC   NC367307  20.989  29.290   5.398
 5149POPC   PO467308  21.551  29.111   5.030
 5149POPC   GL167309  21.613  29.036   5.547
 5149POPC   GL267310  21.280  28.994   5.731
 5149POPC   C1A67311  21.674  29.155   6.034
 5149POPC   D2A67312  21.438  29.377   6.416
 5149POPC   C3A67313  21.645  29.487   6.835
 5149POPC   C4A67314  21.837  29.309   7.221
 5149POPC   C1B67315  21.305  28.857   6.193
 5149POPC   C2B67316  21.604  28.897   6.541
 5149POPC   C3B67317  21.525  28.992   6.953
 5149POPC   C4B67318  21.130  28.842   7.144
 5150POPC   NC367319  37.383  22.246   5.358
 5150POPC   PO467320  37.665  21.751   5.499
 5150POPC   GL167321  37.695  21.949   5.858
 5150POPC   GL267322  37.540  22.262   5.839
 5150POPC   C1A67323  37.943  21.982   6.191
 5150POPC   D2A67324  37.862  22.101   6.553
 5150POPC   C3A67325  37.922  21.912   6.912
 5150POPC   C4A67326  37.635  21.817   7.230
 5150POPC   C1B67327  37.449  22.176   6.238
 5150POPC   C2B67328  37.431  22.367   6.574
 5150POPC   C3B67329  37.521  22.218   6.933
 5150POPC   C4B67330  37.570  22.341   7.324
 5151POPC   NC367331  14.105  18.109   5.616
 5151POPC   PO467332  14.675  18.317   5.319
 5151POPC   GL167333  14.530  18.321   5.818
 5151POPC   GL267334  14.203  18.490   5.937
 5151POPC   C1A67335  14.450  18.339   6.328
 5151POPC   D2A67336  14.109  18.295   6.622
 5151POPC   C3A67337  14.236  18.343   7.057
 5151POPC   C4A67338  14.657  18.447   7.190
 5151POPC   C1B67339  14.074  18.744   6.323
 5151POPC   C2B67340  14.160  18.817   6.779
 5151POPC   C3B67341  14.148  18.832   7.217
 5151POPC   C4B67342  13.862  18.510   7.373
 5152POPC   NC367343  42.865   3.201   5.334
 5152POPC   PO467344  43.260   3.776   5.213
 5152POPC   GL167345  43.221   3.630   5.666
 5152POPC   GL267346  42.934   3.418   5.771
 5152POPC   C1A67347  43.242   3.520   6.157
 5152POPC   D2A67348  43.250   3.293   6.561
 5152POPC   C3A67349  43.141   3.549   6.933
 5152POPC   C4A67350  43.381   3.749   7.249
 5152POPC   C1B67351  42.864   3.183   6.153
 5152POPC   C2B67352  42.736   3.188   6.585
 5152POPC   C3B67353  42.855   3.133   7.020
 5152POPC   C4B67354  42.609   3.036   7.374
 5153POPC   NC367355  39.077  14.116   5.188
 5153POPC   PO467356  39.616  14.072   5.573
 5153POPC   GL167357  39.279  14.180   5.812
 5153POPC   GL267358  38.944  14.020   5.736
 5153POPC   C1A67359  39.292  14.453   6.177
 5153POPC   D2A67360  39.422  14.693   6.555
 5153POPC   C3A67361  39.401  14.527   7.004
 5153POPC   C4A67362  39.455  14.651   7.468
 5153POPC   C1B67363  38.993  14.023   6.205
 5153POPC   C2B67364  39.162  14.207   6.590
 5153POPC   C3B67365  39.088  14.093   6.990
 5153POPC   C4B67366  39.221  14.201   7.376
 5154POPC   NC367367   8.340  17.768   5.411
 5154POPC   PO467368   8.074  17.109   5.346
 5154POPC   GL167369   8.183  17.353   5.723
 5154POPC   GL267370   7.964  17.634   5.763
 5154POPC   C1A67371   8.169  17.420   6.210
 5154POPC   D2A67372   8.133  17.081   6.547
 5154POPC   C3A67373   8.208  17.171   6.980
 5154POPC   C4A67374   8.266  17.360   7.384
 5154POPC   C1B67375   7.864  17.844   6.171
 5154POPC   C2B67376   8.054  17.813   6.591
 5154POPC   C3B67377   8.119  17.680   7.024
 5154POPC   C4B67378   8.107  17.847   7.490
 5155POPC   NC367379   7.335   9.218   5.127
 5155POPC   PO467380   6.706   8.878   5.299
 5155POPC   GL167381   6.664   8.973   5.787
 5155POPC   GL267382   6.480   9.290   5.906
 5155POPC   C1A67383   6.831   9.072   6.219
 5155POPC   D2A67384   6.668   9.291   6.606
 5155POPC   C3A67385   6.755   9.096   7.022
 5155POPC   C4A67386   6.790   9.055   7.476
 5155POPC   C1B67387   6.331   9.073   6.265
 5155POPC   C2B67388   6.158   9.126   6.658
 5155POPC   C3B67389   6.251   9.057   7.075
 5155POPC   C4B67390   6.379   9.362   7.387
 5156POPC   NC367391  40.641   5.373   5.654
 5156POPC   PO467392  40.662   6.014   5.422
 5156POPC   GL167393  40.761   5.845   5.886
 5156POPC   GL267394  40.897   5.536   6.056
 5156POPC   C1A67395  41.013   5.967   6.276
 5156POPC   D2A67396  41.044   5.737   6.653
 5156POPC   C3A67397  40.987   5.972   7.047
 5156POPC   C4A67398  40.845   6.067   7.484
 5156POPC   C1B67399  40.575   5.627   6.373
 5156POPC   C2B67400  40.539   5.708   6.826
 5156POPC   C3B67401  40.556   5.737   7.256
 5156POPC   C4B67402  40.523   5.678   7.718
 5157POPC   NC367403  36.456  30.124   5.547
 5157POPC   PO467404  36.971  29.825   5.357
 5157POPC   GL167405  36.908  29.987   5.787
 5157POPC   GL267406  36.976  29.636   5.854
 5157POPC   C1A67407  36.672  30.177   6.186
 5157POPC   D2A67408  36.526  30.317   6.635
 5157POPC   C3A67409  36.717  30.101   7.012
 5157POPC   C4A67410  37.171  30.034   7.080
 5157POPC   C1B67411  37.034  29.802   6.275
 5157POPC   C2B67412  36.939  29.743   6.718
 5157POPC   C3B67413  36.885  29.622   7.167
 5157POPC   C4B67414  37.009  29.462   7.569
 5158POPC   NC367415  28.991  23.703   5.546
 5158POPC   PO467416  29.568  23.965   5.446
 5158POPC   GL167417  29.426  23.822   5.822
 5158POPC   GL267418  29.365  23.492   5.797
 5158POPC   C1A67419  29.275  23.878   6.231
 5158POPC   D2A67420  29.270  24.098   6.633
 5158POPC   C3A67421  29.214  23.794   6.964
 5158POPC   C4A67422  29.295  23.590   7.367
 5158POPC   C1B67423  29.221  23.343   6.171
 5158POPC   C2B67424  29.155  23.468   6.584
 5158POPC   C3B67425  29.057  23.290   6.990
 5158POPC   C4B67426  28.977  23.202   7.421
 5159POPC   NC367427  22.203  40.481   5.359
 5159POPC   PO467428  22.332  41.125   5.267
 5159POPC   GL167429  22.494  40.884   5.678
 5159POPC   GL267430  22.405  40.516   5.813
 5159POPC   C1A67431  22.384  40.884   6.157
 5159POPC   D2A67432  22.013  40.914   6.450
 5159POPC   C3A67433  22.115  40.828   6.879
 5159POPC   C4A67434  22.159  41.122   7.217
 5159POPC   C1B67435  22.048  40.481   6.140
 5159POPC   C2B67436  21.991  40.416   6.570
 5159POPC   C3B67437  21.853  40.385   7.020
 5159POPC   C4B67438  22.014  40.633   7.347
 5160POPC   NC367439  30.344   0.401   5.670
 5160POPC   PO467440  30.845   0.163   5.350
 5160POPC   GL167441  30.844   0.288   5.812
 5160POPC   GL267442  30.685   0.016   5.964
 5160POPC   C1A67443  30.636   0.437   6.244
 5160POPC   D2A67444  30.768   0.501   6.654
 5160POPC   C3A67445  30.481   0.547   6.997
 5160POPC   C4A67446  30.580   0.570   7.435
 5160POPC   C1B67447  30.445  44.976   6.343
 5160POPC   C2B67448  30.576   0.046   6.776
 5160POPC   C3B67449  30.618   0.106   7.196
 5160POPC   C4B67450  30.375   0.116   7.596
 5161POPC   NC367451   2.471  28.455   5.382
 5161POPC   PO467452   1.803  28.322   5.303
 5161POPC   GL167453   2.053  28.418   5.678
 5161POPC   GL267454   2.266  28.122   5.750
 5161POPC   C1A67455   2.212  28.468   6.117
 5161POPC   D2A67456   2.251  28.203   6.510
 5161POPC   C3A67457   2.220  28.443   6.893
 5161POPC   C4A67458   1.880  28.482   7.173
 5161POPC   C1B67459   1.864  28.099   6.042
 5161POPC   C2B67460   1.760  28.047   6.470
 5161POPC   C3B67461   1.589  28.180   6.837
 5161POPC   C4B67462   1.583  28.054   7.236
 5162POPC   NC367463  42.629   9.744   5.343
 5162POPC   PO467464  41.940   9.800   5.371
 5162POPC   GL167465  42.208   9.617   5.744
 5162POPC   GL267466  42.570   9.548   5.798
 5162POPC   C1A67467  42.301   9.733   6.177
 5162POPC   D2A67468  42.320   9.930   6.541
 5162POPC   C3A67469  42.103   9.702   6.832
 5162POPC   C4A67470  42.257   9.746   7.208
 5162POPC   C1B67471  42.617   9.313   6.183
 5162POPC   C2B67472  42.381   9.310   6.561
 5162POPC   C3B67473  42.491   9.349   6.959
 5162POPC   C4B67474  42.683   9.502   7.331
 5163POPC   NC367475  22.524   5.365   5.609
 5163POPC   PO467476  22.771   4.809   5.337
 5163POPC   GL167477  22.799   4.989   5.799
 5163POPC   GL267478  23.125   5.053   5.925
 5163POPC   C1A67479  22.810   5.333   6.200
 5163POPC   D2A67480  23.015   5.368   6.612
 5163POPC   C3A67481  22.731   5.331   6.984
 5163POPC   C4A67482  22.503   5.058   7.247
 5163POPC   C1B67483  22.891   4.844   6.297
 5163POPC   C2B67484  22.860   4.886   6.767
 5163POPC   C3B67485  22.974   4.813   7.197
 5163POPC   C4B67486  23.257   4.707   7.547
 5164POPC   NC367487  17.617   2.942   5.286
 5164POPC   PO467488  17.339   2.365   5.186
 5164POPC   GL167489  17.428   2.481   5.704
 5164POPC   GL267490  17.679   2.744   5.832
 5164POPC   C1A67491  17.527   2.404   6.197
 5164POPC   D2A67492  17.533   2.542   6.658
 5164POPC   C3A67493  17.371   2.619   7.073
 5164POPC   C4A67494  17.495   3.007   7.326
 5164POPC   C1B67495  17.470   2.902   6.256
 5164POPC   C2B67496  17.186   2.915   6.656
 5164POPC   C3B67497  17.060   3.079   7.079
 5164POPC   C4B67498  17.090   3.276   7.506
 5165POPC   NC367499  34.886  17.355   5.464
 5165POPC   PO467500  34.351  17.745   5.402
 5165POPC   GL167501  34.412  17.508   5.764
 5165POPC   GL267502  34.752  17.563   5.912
 5165POPC   C1A67503  34.344  17.611   6.182
 5165POPC   D2A67504  34.650  17.584   6.473
 5165POPC   C3A67505  34.474  17.586   6.820
 5165POPC   C4A67506  34.440  17.425   7.247
 5165POPC   C1B67507  34.922  17.231   6.197
 5165POPC   C2B67508  34.977  17.241   6.661
 5165POPC   C3B67509  34.908  17.498   7.046
 5165POPC   C4B67510  34.860  17.505   7.519
 5166POPC   NC367511   0.928  30.587   5.489
 5166POPC   PO467512   1.378  31.033   5.496
 5166POPC   GL167513   1.181  30.872   5.890
 5166POPC   GL267514   1.123  30.493   5.943
 5166POPC   C1A67515   1.318  30.790   6.331
 5166POPC   D2A67516   1.276  30.636   6.756
 5166POPC   C3A67517   1.323  30.906   7.118
 5166POPC   C4A67518   0.982  30.966   7.421
 5166POPC   C1B67519   1.423  30.295   6.186
 5166POPC   C2B67520   1.477  30.156   6.581
 5166POPC   C3B67521   1.432  30.218   7.001
 5166POPC   C4B67522   1.610  30.490   7.205
 5167POPC   NC367523  15.553  12.659   5.442
 5167POPC   PO467524  15.927  13.198   5.244
 5167POPC   GL167525  15.884  13.032   5.663
 5167POPC   GL267526  16.015  12.671   5.662
 5167POPC   C1A67527  15.946  13.137   6.110
 5167POPC   D2A67528  16.048  12.966   6.525
 5167POPC   C3A67529  15.893  13.139   6.924
 5167POPC   C4A67530  15.851  12.923   7.310
 5167POPC   C1B67531  15.968  12.614   6.106
 5167POPC   C2B67532  15.758  12.536   6.497
 5167POPC   C3B67533  15.897  12.604   6.910
 5167POPC   C4B67534  15.866  12.419   7.318
 5168POPC   NC367535  26.309  12.545   5.617
 5168POPC   PO467536  26.167  11.945   5.357
 5168POPC   GL167537  25.934  11.992   5.742
 5168POPC   GL267538  25.965  12.294   5.894
 5168POPC   C1A67539  25.991  11.860   6.193
 5168POPC   D2A67540  26.252  11.749   6.557
 5168POPC   C3A67541  26.143  11.853   6.987
 5168POPC   C4A67542  26.194  11.796   7.453
 5168POPC   C1B67543  25.705  12.294   6.237
 5168POPC   C2B67544  25.860  12.173   6.634
 5168POPC   C3B67545  26.122  12.363   6.962
 5168POPC   C4B67546  26.016  12.301   7.390
 5169POPC   NC367547   2.884  32.633   5.232
 5169POPC   PO467548   2.508  32.085   5.160
 5169POPC   GL167549   2.689  32.278   5.576
 5169POPC   GL267550   2.990  32.526   5.729
 5169POPC   C1A67551   2.733  32.215   6.048
 5169POPC   D2A67552   2.991  32.100   6.435
 5169POPC   C3A67553   2.784  32.210   6.835
 5169POPC   C4A67554   2.665  32.182   7.262
 5169POPC   C1B67555   3.176  32.508   6.164
 5169POPC   C2B67556   3.079  32.604   6.616
 5169POPC   C3B67557   3.238  32.425   7.008
 5169POPC   C4B67558   3.114  32.424   7.441
 5170POPC   NC367559  39.719   9.827   5.399
 5170POPC   PO467560  40.312   9.480   5.380
 5170POPC   GL167561  40.116   9.574   5.777
 5170POPC   GL267562  39.806   9.782   5.915
 5170POPC   C1A67563  40.231   9.628   6.192
 5170POPC   D2A67564  39.984   9.733   6.534
 5170POPC   C3A67565  40.145   9.602   6.911
 5170POPC   C4A67566  40.054   9.857   7.231
 5170POPC   C1B67567  39.737  10.099   6.259
 5170POPC   C2B67568  39.592  10.299   6.640
 5170POPC   C3B67569  39.768  10.244   7.069
 5170POPC   C4B67570  39.665  10.111   7.501
 5171POPC   NC367571  24.663  18.312   5.501
 5171POPC   PO467572  24.222  17.887   5.507
 5171POPC   GL167573  24.339  18.130   5.866
 5171POPC   GL267574  24.302  18.511   5.811
 5171POPC   C1A67575  24.447  18.017   6.295
 5171POPC   D2A67576  24.393  17.813   6.704
 5171POPC   C3A67577  24.578  18.097   6.978
 5171POPC   C4A67578  24.711  18.516   7.074
 5171POPC   C1B67579  24.528  18.550   6.216
 5171POPC   C2B67580  24.400  18.615   6.677
 5171POPC   C3B67581  24.203  18.500   7.109
 5171POPC   C4B67582  24.090  18.483   7.562
 5172POPC   NC367583  34.832  23.931   5.453
 5172POPC   PO467584  34.177  23.500   5.346
 5172POPC   GL167585  34.240  23.507   5.799
 5172POPC   GL267586  34.430  23.797   5.771
 5172POPC   C1A67587  34.471  23.414   6.215
 5172POPC   D2A67588  34.368  23.441   6.682
 5172POPC   C3A67589  34.663  23.605   7.007
 5172POPC   C4A67590  34.544  23.776   7.392
 5172POPC   C1B67591  34.644  23.923   6.140
 5172POPC   C2B67592  34.762  23.856   6.573
 5172POPC   C3B67593  34.645  24.110   6.964
 5172POPC   C4B67594  34.874  24.155   7.352
 5173POPC   NC367595  30.788  11.697   5.271
 5173POPC   PO467596  30.416  12.207   5.512
 5173POPC   GL167597  30.468  12.014   5.887
 5173POPC   GL267598  30.802  11.920   5.848
 5173POPC   C1A67599  30.563  12.194   6.288
 5173POPC   D2A67600  30.802  12.173   6.657
 5173POPC   C3A67601  30.634  11.917   6.974
 5173POPC   C4A67602  30.420  12.242   7.134
 5173POPC   C1B67603  30.757  11.739   6.265
 5173POPC   C2B67604  31.003  11.692   6.601
 5173POPC   C3B67605  31.137  11.924   6.939
 5173POPC   C4B67606  31.024  11.720   7.276
 5174POPC   NC367607   4.763   3.063   5.423
 5174POPC   PO467608   4.220   3.415   5.382
 5174POPC   GL167609   4.128   3.258   5.803
 5174POPC   GL267610   4.452   3.086   5.886
 5174POPC   C1A67611   4.131   3.457   6.226
 5174POPC   D2A67612   4.391   3.689   6.531
 5174POPC   C3A67613   4.317   3.592   6.951
 5174POPC   C4A67614   4.014   3.344   7.120
 5174POPC   C1B67615   4.167   2.958   6.239
 5174POPC   C2B67616   4.146   3.116   6.670
 5174POPC   C3B67617   4.468   3.103   7.004
 5174POPC   C4B67618   4.768   3.418   7.174
 5175POPC   NC367619  10.695   0.840   5.392
 5175POPC   PO467620  10.372   1.437   5.388
 5175POPC   GL167621  10.596   1.295   5.822
 5175POPC   GL267622  10.498   1.001   5.852
 5175POPC   C1A67623  10.705   1.013   6.293
 5175POPC   D2A67624  10.607   0.791   6.678
 5175POPC   C3A67625  10.915   0.980   6.940
 5175POPC   C4A67626  11.016   1.227   7.271
 5175POPC   C1B67627  10.289   1.268   6.220
 5175POPC   C2B67628  10.358   1.252   6.681
 5175POPC   C3B67629  10.467   1.187   7.098
 5175POPC   C4B67630  10.527   0.766   7.185
 5176POPC   NC367631  22.678  34.490   5.179
 5176POPC   PO467632  22.814  35.051   5.497
 5176POPC   GL167633  22.940  34.882   5.871
 5176POPC   GL267634  22.849  34.518   5.883
 5176POPC   C1A67635  22.940  34.851   6.294
 5176POPC   D2A67636  22.859  34.650   6.677
 5176POPC   C3A67637  22.984  34.840   7.042
 5176POPC   C4A67638  22.795  34.591   7.312
 5176POPC   C1B67639  22.930  34.335   6.282
 5176POPC   C2B67640  22.660  34.186   6.626
 5176POPC   C3B67641  22.750  34.132   7.073
 5176POPC   C4B67642  23.092  34.176   7.416
 5177POPC   NC367643  18.097  44.060   5.543
 5177POPC   PO467644  18.764  43.668   5.544
 5177POPC   GL167645  18.440  43.727   5.823
 5177POPC   GL267646  18.503  44.062   5.917
 5177POPC   C1A67647  18.283  43.725   6.252
 5177POPC   D2A67648  18.042  43.794   6.612
 5177POPC   C3A67649  18.243  43.750   7.022
 5177POPC   C4A67650  18.091  43.589   7.397
 5177POPC   C1B67651  18.630  44.152   6.343
 5177POPC   C2B67652  18.440  44.151   6.750
 5177POPC   C3B67653  18.406  44.215   7.213
 5177POPC   C4B67654  18.224  44.065   7.592
 5178POPC   NC367655  24.841   7.306   5.416
 5178POPC   PO467656  24.182   7.537   5.567
 5178POPC   GL167657  24.579   7.551   5.784
 5178POPC   GL267658  24.646   7.176   5.873
 5178POPC   C1A67659  24.737   7.589   6.197
 5178POPC   D2A67660  24.568   7.565   6.573
 5178POPC   C3A67661  24.668   7.454   6.995
 5178POPC   C4A67662  24.475   7.518   7.382
 5178POPC   C1B67663  24.434   7.133   6.275
 5178POPC   C2B67664  24.346   7.131   6.732
 5178POPC   C3B67665  24.348   7.065   7.182
 5178POPC   C4B67666  24.197   7.189   7.617
 5179POPC   NC367667  36.339  25.456   5.550
 5179POPC   PO467668  35.826  25.009   5.410
 5179POPC   GL167669  35.899  25.092   5.856
 5179POPC   GL267670  36.260  25.126   5.939
 5179POPC   C1A67671  35.935  25.436   6.205
 5179POPC   D2A67672  35.985  25.654   6.625
 5179POPC   C3A67673  35.744  25.428   6.942
 5179POPC   C4A67674  35.899  25.291   7.353
 5179POPC   C1B67675  36.145  24.924   6.296
 5179POPC   C2B67676  36.024  25.117   6.658
 5179POPC   C3B67677  36.245  25.324   6.986
 5179POPC   C4B67678  36.424  25.177   7.373
 5180POPC   NC367679  43.442  13.880   5.479
 5180POPC   PO467680  43.214  13.319   5.344
 5180POPC   GL167681  43.311  13.451   5.819
 5180POPC   GL267682  43.532  13.737   5.971
 5180POPC   C1A67683  43.187  13.549   6.292
 5180POPC   D2A67684  43.349  13.611   6.739
 5180POPC   C3A67685  43.030  13.638   7.103
 5180POPC   C4A67686  42.711  13.729   7.458
 5180POPC   C1B67687  43.652  13.337   6.206
 5180POPC   C2B67688  43.578  13.144   6.615
 5180POPC   C3B67689  43.639  13.301   7.061
 5180POPC   C4B67690  43.337  13.359   7.405
 5181POPC   NC367691   9.984  12.186   5.535
 5181POPC   PO467692   9.278  12.042   5.504
 5181POPC   GL167693   9.599  12.000   5.866
 5181POPC   GL267694   9.954  11.888   5.940
 5181POPC   C1A67695   9.609  11.879   6.311
 5181POPC   D2A67696   9.529  12.123   6.679
 5181POPC   C3A67697   9.499  11.958   7.068
 5181POPC   C4A67698   9.789  11.640   7.196
 5181POPC   C1B67699  10.144  11.802   6.337
 5181POPC   C2B67700   9.954  11.834   6.753
 5181POPC   C3B67701   9.940  12.195   7.055
 5181POPC   C4B67702  10.139  12.626   7.075
 5182POPC   NC367703   9.783  15.632   5.388
 5182POPC   PO467704   9.325  16.149   5.501
 5182POPC   GL167705   9.582  15.900   5.804
 5182POPC   GL267706   9.936  15.691   5.846
 5182POPC   C1A67707   9.486  15.941   6.232
 5182POPC   D2A67708   9.242  15.964   6.595
 5182POPC   C3A67709   9.546  16.026   6.916
 5182POPC   C4A67710   9.743  16.196   7.266
 5182POPC   C1B67711   9.989  15.955   6.152
 5182POPC   C2B67712   9.930  16.031   6.571
 5182POPC   C3B67713  10.064  15.929   6.987
 5182POPC   C4B67714  10.002  15.766   7.421
 5183POPC   NC367715   4.629  22.266   5.634
 5183POPC   PO467716   4.156  21.920   5.325
 5183POPC   GL167717   4.244  21.922   5.793
 5183POPC   GL267718   4.586  21.907   5.979
 5183POPC   C1A67719   4.131  21.865   6.235
 5183POPC   D2A67720   4.330  21.970   6.642
 5183POPC   C3A67721   4.179  22.150   7.012
 5183POPC   C4A67722   4.140  22.028   7.454
 5183POPC   C1B67723   4.445  22.262   6.248
 5183POPC   C2B67724   4.553  22.525   6.567
 5183POPC   C3B67725   4.433  22.628   6.979
 5183POPC   C4B67726   4.464  22.408   7.355
 5184POPC   NC367727  34.376  26.764   5.318
 5184POPC   PO467728  34.615  26.264   5.520
 5184POPC   GL167729  34.740  26.593   5.765
 5184POPC   GL267730  34.836  26.914   5.627
 5184POPC   C1A67731  34.512  26.766   6.120
 5184POPC   D2A67732  34.228  26.809   6.468
 5184POPC   C3A67733  34.452  26.811   6.834
 5184POPC   C4A67734  34.507  26.578   7.212
 5184POPC   C1B67735  34.879  27.118   6.062
 5184POPC   C2B67736  34.595  27.218   6.412
 5184POPC   C3B67737  34.768  27.237   6.838
 5184POPC   C4B67738  34.652  27.058   7.239
 5185POPC   NC367739  31.640  38.859   5.474
 5185POPC   PO467740  31.136  39.248   5.367
 5185POPC   GL167741  31.463  39.248   5.760
 5185POPC   GL267742  31.741  39.039   5.926
 5185POPC   C1A67743  31.349  39.219   6.215
 5185POPC   D2A67744  31.181  39.452   6.585
 5185POPC   C3A67745  31.530  39.491   6.860
 5185POPC   C4A67746  31.451  39.153   7.138
 5185POPC   C1B67747  31.777  38.933   6.353
 5185POPC   C2B67748  31.815  39.005   6.789
 5185POPC   C3B67749  31.904  38.928   7.226
 5185POPC   C4B67750  31.671  38.840   7.631
 5186POPC   NC367751  37.300  15.020   5.579
 5186POPC   PO467752  36.553  15.187   5.456
 5186POPC   GL167753  36.543  15.225   5.878
 5186POPC   GL267754  36.878  15.064   5.857
 5186POPC   C1A67755  36.779  15.423   6.218
 5186POPC   D2A67756  37.162  15.389   6.423
 5186POPC   C3A67757  37.116  15.401   6.858
 5186POPC   C4A67758  36.992  15.222   7.277
 5186POPC   C1B67759  36.757  14.878   6.223
 5186POPC   C2B67760  36.858  15.010   6.620
 5186POPC   C3B67761  37.014  14.822   6.969
 5186POPC   C4B67762  36.829  14.751   7.375
 5187POPC   NC367763  10.122   1.816   5.253
 5187POPC   PO467764   9.473   1.566   5.570
 5187POPC   GL167765   9.740   1.673   5.876
 5187POPC   GL267766  10.076   1.668   5.749
 5187POPC   C1A67767   9.640   1.804   6.316
 5187POPC   D2A67768   9.870   2.033   6.649
 5187POPC   C3A67769   9.676   2.055   7.051
 5187POPC   C4A67770   9.360   2.358   7.182
 5187POPC   C1B67771  10.151   1.761   6.189
 5187POPC   C2B67772  10.275   1.737   6.619
 5187POPC   C3B67773  10.124   1.743   7.042
 5187POPC   C4B67774   9.784   1.680   7.385
 5188POPC   NC367775  30.104  36.544   5.388
 5188POPC   PO467776  29.571  36.830   5.510
 5188POPC   GL167777  29.874  36.860   5.783
 5188POPC   GL267778  29.847  37.211   5.839
 5188POPC   C1A67779  30.035  36.905   6.193
 5188POPC   D2A67780  29.824  36.948   6.561
 5188POPC   C3A67781  30.057  36.854   6.890
 5188POPC   C4A67782  29.936  36.726   7.280
 5188POPC   C1B67783  29.555  37.207   6.209
 5188POPC   C2B67784  29.537  37.359   6.688
 5188POPC   C3B67785  29.635  37.107   7.078
 5188POPC   C4B67786  29.785  37.103   7.555
 5189POPC   NC367787  43.529  10.631   5.385
 5189POPC   PO467788  42.879  10.186   5.360
 5189POPC   GL167789  43.007  10.495   5.702
 5189POPC   GL267790  43.260  10.356   5.838
 5189POPC   C1A67791  43.087  10.664   6.175
 5189POPC   D2A67792  43.210  10.476   6.592
 5189POPC   C3A67793  43.145  10.757   6.925
 5189POPC   C4A67794  43.366  10.876   7.280
 5189POPC   C1B67795  43.227  10.132   6.209
 5189POPC   C2B67796  43.203   9.924   6.611
 5189POPC   C3B67797  43.259  10.133   7.004
 5189POPC   C4B67798  43.112  10.411   7.306
 5190POPC   NC367799  21.253  11.153   5.207
 5190POPC   PO467800  21.597  11.464   5.687
 5190POPC   GL167801  21.433  11.076   5.794
 5190POPC   GL267802  21.064  11.090   5.751
 5190POPC   C1A67803  21.353  11.023   6.228
 5190POPC   D2A67804  21.364  11.289   6.597
 5190POPC   C3A67805  21.262  11.127   7.008
 5190POPC   C4A67806  21.380  11.407   7.372
 5190POPC   C1B67807  21.095  11.455   6.105
 5190POPC   C2B67808  21.021  11.662   6.516
 5190POPC   C3B67809  21.097  11.610   6.962
 5190POPC   C4B67810  20.884  11.388   7.327
 5191POPC   NC367811   6.653  13.880   5.386
 5191POPC   PO467812   6.601  13.295   5.700
 5191POPC   GL167813   6.434  13.688   5.820
 5191POPC   GL267814   6.707  13.856   5.899
 5191POPC   C1A67815   6.262  13.958   6.159
 5191POPC   D2A67816   6.330  14.059   6.587
 5191POPC   C3A67817   6.273  13.777   6.930
 5191POPC   C4A67818   6.512  13.443   7.129
 5191POPC   C1B67819   6.749  13.558   6.273
 5191POPC   C2B67820   6.889  13.313   6.641
 5191POPC   C3B67821   6.998  13.556   6.989
 5191POPC   C4B67822   6.750  13.911   7.138
 5192POPC   NC367823   9.766  20.054   5.269
 5192POPC   PO467824   9.973  19.302   5.429
 5192POPC   GL167825   9.841  19.615   5.772
 5192POPC   GL267826   9.741  19.968   5.758
 5192POPC   C1A67827   9.852  19.778   6.233
 5192POPC   D2A67828   9.593  19.744   6.637
 5192POPC   C3A67829   9.777  19.689   7.057
 5192POPC   C4A67830   9.599  19.913   7.391
 5192POPC   C1B67831   9.644  20.240   6.094
 5192POPC   C2B67832   9.770  20.297   6.519
 5192POPC   C3B67833   9.619  20.180   6.933
 5192POPC   C4B67834   9.699  20.400   7.295
 5193POPC   NC367835  44.037  44.868   5.595
 5193POPC   PO467836  44.058  44.272   5.273
 5193POPC   GL167837  43.821  44.378   5.743
 5193POPC   GL267838  43.621  44.678   5.822
 5193POPC   C1A67839  43.942  44.560   6.235
 5193POPC   D2A67840  44.219  44.797   6.551
 5193POPC   C3A67841  44.046  44.741   6.992
 5193POPC   C4A67842  43.747  44.413   7.155
 5193POPC   C1B67843  43.638  44.974   6.200
 5193POPC   C2B67844  43.699  44.966   6.647
 5193POPC   C3B67845  43.504  44.835   7.022
 5193POPC   C4B67846  43.589  44.883   7.457
 5194POPC   NC367847   9.235  36.514   5.404
 5194POPC   PO467848   9.267  37.164   5.412
 5194POPC   GL167849   9.135  36.905   5.732
 5194POPC   GL267850   8.796  36.886   5.637
 5194POPC   C1A67851   9.239  36.732   6.129
 5194POPC   D2A67852   9.111  36.929   6.540
 5194POPC   C3A67853   9.208  36.775   6.985
 5194POPC   C4A67854   9.275  37.008   7.413
 5194POPC   C1B67855   8.721  36.893   6.111
 5194POPC   C2B67856   8.593  36.754   6.573
 5194POPC   C3B67857   8.614  36.573   7.017
 5194POPC   C4B67858   8.843  36.756   7.357
 5195POPC   NC367859  31.734  28.160   5.077
 5195POPC   PO467860  31.475  28.587   5.432
 5195POPC   GL167861  31.704  28.468   5.779
 5195POPC   GL267862  31.673  28.108   5.710
 5195POPC   C1A67863  31.584  28.551   6.199
 5195POPC   D2A67864  31.239  28.594   6.470
 5195POPC   C3A67865  31.389  28.610   6.856
 5195POPC   C4A67866  31.753  28.439   6.952
 5195POPC   C1B67867  31.728  28.060   6.165
 5195POPC   C2B67868  31.528  28.166   6.582
 5195POPC   C3B67869  31.579  27.986   7.030
 5195POPC   C4B67870  31.630  27.779   7.482
 5196POPC   NC367871  17.147  42.404   5.367
 5196POPC   PO467872  17.829  42.135   5.306
 5196POPC   GL167873  17.667  42.302   5.689
 5196POPC   GL267874  17.333  42.169   5.759
 5196POPC   C1A67875  17.555  42.533   6.085
 5196POPC   D2A67876  17.777  42.629   6.488
 5196POPC   C3A67877  17.500  42.612   6.852
 5196POPC   C4A67878  17.766  42.531   7.191
 5196POPC   C1B67879  17.531  42.002   6.093
 5196POPC   C2B67880  17.472  42.199   6.484
 5196POPC   C3B67881  17.696  42.154   6.840
 5196POPC   C4B67882  17.584  42.057   7.230
 5197POPC   NC367883  42.929  31.033   5.409
 5197POPC   PO467884  42.794  30.371   5.327
 5197POPC   GL167885  43.006  30.570   5.683
 5197POPC   GL267886  43.192  30.272   5.762
 5197POPC   C1A67887  43.022  30.835   6.085
 5197POPC   D2A67888  42.855  30.812   6.530
 5197POPC   C3A67889  43.175  30.867   6.835
 5197POPC   C4A67890  43.240  30.815   7.247
 5197POPC   C1B67891  43.109  30.336   6.181
 5197POPC   C2B67892  43.265  30.445   6.562
 5197POPC   C3B67893  43.233  30.381   6.988
 5197POPC   C4B67894  43.484  30.387   7.344
 5198POPC   NC367895  36.096  35.646   5.468
 5198POPC   PO467896  36.176  35.004   5.246
 5198POPC   GL167897  36.249  35.166   5.709
 5198POPC   GL267898  36.051  35.421   5.950
 5198POPC   C1A67899  36.460  35.210   6.133
 5198POPC   D2A67900  36.600  35.225   6.549
 5198POPC   C3A67901  36.295  35.263   6.858
 5198POPC   C4A67902  36.429  35.350   7.246
 5198POPC   C1B67903  35.681  35.326   6.219
 5198POPC   C2B67904  35.569  35.464   6.627
 5198POPC   C3B67905  35.681  35.433   7.061
 5198POPC   C4B67906  35.955  35.282   7.378
 5199POPC   NC367907  36.337  41.010   5.407
 5199POPC   PO467908  35.713  40.644   5.518
 5199POPC   GL167909  36.067  40.777   5.759
 5199POPC   GL267910  36.301  40.505   5.741
 5199POPC   C1A67911  36.343  40.868   6.129
 5199POPC   D2A67912  36.217  40.954   6.576
 5199POPC   C3A67913  36.445  41.018   6.978
 5199POPC   C4A67914  36.137  41.103   7.324
 5199POPC   C1B67915  36.060  40.434   6.134
 5199POPC   C2B67916  36.074  40.456   6.593
 5199POPC   C3B67917  36.049  40.704   6.988
 5199POPC   C4B67918  35.920  40.597   7.398
 5200POPC   NC367919  17.324  10.905   5.263
 5200POPC   PO467920  17.408  10.332   5.569
 5200POPC   GL167921  17.447  10.666   5.806
 5200POPC   GL267922  17.175  10.885   5.792
 5200POPC   C1A67923  17.672  10.610   6.204
 5200POPC   D2A67924  17.955  10.546   6.562
 5200POPC   C3A67925  17.806  10.634   6.986
 5200POPC   C4A67926  17.648  10.246   7.185
 5200POPC   C1B67927  17.140  10.688   6.228
 5200POPC   C2B67928  17.311  10.485   6.599
 5200POPC   C3B67929  17.287  10.574   7.032
 5200POPC   C4B67930  17.059  10.432   7.403
 5201POPC   NC367931  27.664  22.417   5.418
 5201POPC   PO467932  27.467  21.738   5.403
 5201POPC   GL167933  27.502  22.030   5.735
 5201POPC   GL267934  27.805  21.997   5.877
 5201POPC   C1A67935  27.429  22.184   6.161
 5201POPC   D2A67936  27.587  22.081   6.580
 5201POPC   C3A67937  27.357  21.908   6.919
 5201POPC   C4A67938  27.614  22.001   7.268
 5201POPC   C1B67939  27.933  22.250   6.172
 5201POPC   C2B67940  28.027  22.340   6.569
 5201POPC   C3B67941  27.809  22.441   6.924
 5201POPC   C4B67942  27.963  22.368   7.309
 5202POPC   NC367943  21.448  28.687   5.175
 5202POPC   PO467944  21.148  28.473   5.687
 5202POPC   GL167945  21.532  28.520   5.813
 5202POPC   GL267946  21.474  28.198   6.033
 5202POPC   C1A67947  21.756  28.565   6.183
 5202POPC   D2A67948  21.684  28.344   6.568
 5202POPC   C3A67949  21.380  28.504   6.843
 5202POPC   C4A67950  21.366  28.404   7.294
 5202POPC   C1B67951  21.736  27.938   6.259
 5202POPC   C2B67952  21.763  27.833   6.676
 5202POPC   C3B67953  21.518  28.000   7.008
 5202POPC   C4B67954  21.630  28.001   7.448
 5203POPC   NC367955  13.710  42.623   5.453
 5203POPC   PO467956  13.156  42.070   5.405
 5203POPC   GL167957  13.376  42.023   5.876
 5203POPC   GL267958  13.595  42.334   5.857
 5203POPC   C1A67959  13.791  41.990   6.153
 5203POPC   D2A67960  13.976  41.890   6.552
 5203POPC   C3A67961  13.790  42.111   6.951
 5203POPC   C4A67962  13.386  42.127   7.203
 5203POPC   C1B67963  13.514  42.401   6.310
 5203POPC   C2B67964  13.552  42.609   6.733
 5203POPC   C3B67965  13.627  42.584   7.165
 5203POPC   C4B67966  13.637  42.656   7.607
 5204POPC   NC367967   2.530   9.809   5.389
 5204POPC   PO467968   3.112   9.589   5.370
 5204POPC   GL167969   2.963   9.598   5.805
 5204POPC   GL267970   2.854   9.954   5.808
 5204POPC   C1A67971   2.952   9.761   6.262
 5204POPC   D2A67972   2.764  10.068   6.546
 5204POPC   C3A67973   2.955   9.976   6.923
 5204POPC   C4A67974   3.148   9.624   7.102
 5204POPC   C1B67975   2.498   9.734   6.045
 5204POPC   C2B67976   2.475   9.656   6.501
 5204POPC   C3B67977   2.570   9.653   6.946
 5204POPC   C4B67978   2.616   9.547   7.385
 5205POPC   NC367979   1.125   6.935   5.501
 5205POPC   PO467980   1.475   7.448   5.425
 5205POPC   GL167981   1.447   7.220   5.811
 5205POPC   GL267982   1.097   7.308   5.880
 5205POPC   C1A67983   1.419   7.184   6.254
 5205POPC   D2A67984   1.125   7.325   6.504
 5205POPC   C3A67985   1.333   7.404   6.867
 5205POPC   C4A67986   1.351   7.275   7.268
 5205POPC   C1B67987   1.337   7.676   6.100
 5205POPC   C2B67988   1.235   7.826   6.537
 5205POPC   C3B67989   0.857   7.672   6.788
 5205POPC   C4B67990   0.718   7.619   7.231
 5206POPC   NC367991  33.174   4.545   5.077
 5206POPC   PO467992  32.796   3.922   5.224
 5206POPC   GL167993  32.734   3.986   5.692
 5206POPC   GL267994  32.600   4.325   5.664
 5206POPC   C1A67995  32.995   4.155   6.075
 5206POPC   D2A67996  33.177   4.415   6.448
 5206POPC   C3A67997  33.058   4.303   6.884
 5206POPC   C4A67998  33.140   4.067   7.250
 5206POPC   C1B67999  32.538   4.405   6.105
 5206POPC   C2B68000  32.673   4.384   6.527
 5206POPC   C3B68001  32.633   4.615   6.931
 5206POPC   C4B68002  32.717   4.378   7.312
 5207POPC   NC368003  10.472   2.708   5.331
 5207POPC   PO468004  11.036   2.576   5.582
 5207POPC   GL168005  10.704   2.614   5.791
 5207POPC   GL268006  10.725   2.945   5.745
 5207POPC   C1A68007  10.572   2.668   6.206
 5207POPC   D2A68008  10.714   2.501   6.580
 5207POPC   C3A68009  10.559   2.719   6.956
 5207POPC   C4A68010  10.773   2.510   7.264
 5207POPC   C1B68011  10.811   3.111   6.140
 5207POPC   C2B68012  10.688   3.159   6.594
 5207POPC   C3B68013  10.868   3.182   6.998
 5207POPC   C4B68014  10.732   3.035   7.391
 5208POPC   NC368015  17.800  37.708   5.451
 5208POPC   PO468016  17.140  37.851   5.402
 5208POPC   GL168017  17.331  37.686   5.802
 5208POPC   GL268018  17.674  37.565   5.920
 5208POPC   C1A68019  17.223  37.487   6.198
 5208POPC   D2A68020  17.338  37.375   6.617
 5208POPC   C3A68021  17.451  37.713   6.909
 5208POPC   C4A68022  17.334  37.570   7.299
 5208POPC   C1B68023  17.707  37.645   6.360
 5208POPC   C2B68024  17.843  37.441   6.712
 5208POPC   C3B68025  17.707  37.285   7.109
 5208POPC   C4B68026  17.704  37.441   7.603
 5209POPC   NC368027  34.323  43.383   5.448
 5209POPC   PO468028  33.739  42.903   5.431
 5209POPC   GL168029  33.682  43.145   5.844
 5209POPC   GL268030  33.680  43.555   5.856
 5209POPC   C1A68031  33.556  42.950   6.266
 5209POPC   D2A68032  33.469  42.921   6.735
 5209POPC   C3A68033  33.763  42.966   7.021
 5209POPC   C4A68034  34.134  42.933   7.232
 5209POPC   C1B68035  33.920  43.454   6.207
 5209POPC   C2B68036  33.828  43.268   6.600
 5209POPC   C3B68037  33.999  43.397   7.011
 5209POPC   C4B68038  33.726  43.523   7.316
 5210POPC   NC368039  13.233  31.185   5.443
 5210POPC   PO468040  12.786  31.789   5.355
 5210POPC   GL168041  12.728  31.817   5.821
 5210POPC   GL268042  12.515  31.525   5.875
 5210POPC   C1A68043  12.714  31.715   6.300
 5210POPC   D2A68044  12.522  31.547   6.707
 5210POPC   C3A68045  12.848  31.598   7.067
 5210POPC   C4A68046  12.887  31.400   7.469
 5210POPC   C1B68047  12.345  31.310   6.230
 5210POPC   C2B68048  12.417  31.036   6.554
 5210POPC   C3B68049  12.498  31.099   6.992
 5210POPC   C4B68050  12.565  31.005   7.413
 5211POPC   NC368051   8.439  43.745   5.486
 5211POPC   PO468052   7.953  44.088   5.246
 5211POPC   GL168053   7.976  43.987   5.692
 5211POPC   GL268054   7.794  43.663   5.705
 5211POPC   C1A68055   8.205  44.008   6.135
 5211POPC   D2A68056   8.333  44.140   6.585
 5211POPC   C3A68057   8.416  43.979   7.011
 5211POPC   C4A68058   8.324  43.574   7.159
 5211POPC   C1B68059   7.719  43.858   6.114
 5211POPC   C2B68060   7.798  44.092   6.489
 5211POPC   C3B68061   7.935  43.868   6.861
 5211POPC   C4B68062   7.661  43.680   7.151
 5212POPC   NC368063  40.911   8.177   5.243
 5212POPC   PO468064  40.202   8.231   5.194
 5212POPC   GL168065  40.474   8.479   5.561
 5212POPC   GL268066  40.802   8.332   5.702
 5212POPC   C1A68067  40.567   8.548   6.054
 5212POPC   D2A68068  40.926   8.583   6.375
 5212POPC   C3A68069  40.902   8.556   6.830
 5212POPC   C4A68070  41.057   8.466   7.270
 5212POPC   C1B68071  40.824   8.127   6.138
 5212POPC   C2B68072  40.690   8.125   6.591
 5212POPC   C3B68073  40.937   8.046   6.963
 5212POPC   C4B68074  40.872   7.989   7.381
 5213POPC   NC368075  30.662  33.894   5.213
 5213POPC   PO468076  31.264  34.091   5.457
 5213POPC   GL168077  30.896  33.944   5.716
 5213POPC   GL268078  30.508  33.918   5.731
 5213POPC   C1A68079  30.849  33.945   6.163
 5213POPC   D2A68080  30.693  34.174   6.529
 5213POPC   C3A68081  30.814  33.999   6.910
 5213POPC   C4A68082  30.663  33.986   7.329
 5213POPC   C1B68083  30.346  33.840   6.186
 5213POPC   C2B68084  30.416  33.762   6.650
 5213POPC   C3B68085  30.252  33.826   7.070
 5213POPC   C4B68086  30.211  33.656   7.482
 5214POPC   NC368087   4.556  11.485   5.421
 5214POPC   PO468088   3.961  11.126   5.428
 5214POPC   GL168089   4.073  10.995   5.828
 5214POPC   GL268090   4.328  11.271   5.877
 5214POPC   C1A68091   4.024  11.099   6.265
 5214POPC   D2A68092   4.291  11.342   6.549
 5214POPC   C3A68093   4.253  11.170   6.957
 5214POPC   C4A68094   4.325  11.032   7.388
 5214POPC   C1B68095   4.409  11.682   6.105
 5214POPC   C2B68096   4.561  11.822   6.519
 5214POPC   C3B68097   4.501  11.712   6.931
 5214POPC   C4B68098   4.343  11.537   7.291
 5215POPC   NC368099  13.974  40.162   5.621
 5215POPC   PO468100  14.557  39.845   5.411
 5215POPC   GL168101  14.414  39.844   5.801
 5215POPC   GL268102  14.466  40.197   5.796
 5215POPC   C1A68103  14.304  39.952   6.212
 5215POPC   D2A68104  14.381  40.219   6.527
 5215POPC   C3A68105  14.322  39.982   6.886
 5215POPC   C4A68106  14.186  39.813   7.283
 5215POPC   C1B68107  14.748  40.251   6.139
 5215POPC   C2B68108  14.877  40.362   6.538
 5215POPC   C3B68109  14.645  40.448   6.913
 5215POPC   C4B68110  14.493  40.218   7.298
 5216POPC   NC368111   0.591  40.438   5.442
 5216POPC   PO468112   0.345  40.947   5.277
 5216POPC   GL168113   0.496  40.872   5.705
 5216POPC   GL268114   0.309  40.598   5.831
 5216POPC   C1A68115   0.612  40.949   6.151
 5216POPC   D2A68116   0.425  41.111   6.547
 5216POPC   C3A68117   0.567  40.976   6.945
 5216POPC   C4A68118   0.176  40.943   7.185
 5216POPC   C1B68119   0.430  40.445   6.224
 5216POPC   C2B68120   0.587  40.613   6.578
 5216POPC   C3B68121   0.465  40.476   6.970
 5216POPC   C4B68122   0.614  40.611   7.317
 5217POPC   NC368123  28.323  16.809   5.385
 5217POPC   PO468124  28.939  17.173   5.500
 5217POPC   GL168125  28.622  17.031   5.800
 5217POPC   GL268126  28.379  16.734   5.881
 5217POPC   C1A68127  28.735  16.907   6.214
 5217POPC   D2A68128  28.642  16.612   6.537
 5217POPC   C3A68129  28.454  16.830   6.837
 5217POPC   C4A68130  28.462  16.900   7.236
 5217POPC   C1B68131  28.208  16.784   6.303
 5217POPC   C2B68132  28.233  17.183   6.524
 5217POPC   C3B68133  28.119  17.242   6.929
 5217POPC   C4B68134  27.953  17.009   7.264
 5218POPC   NC368135  31.090  34.493   5.599
 5218POPC   PO468136  31.748  34.430   5.415
 5218POPC   GL168137  31.602  34.670   5.763
 5218POPC   GL268138  31.887  34.889   5.935
 5218POPC   C1A68139  31.433  34.669   6.189
 5218POPC   D2A68140  31.657  34.673   6.567
 5218POPC   C3A68141  31.526  34.884   6.916
 5218POPC   C4A68142  31.350  34.550   7.168
 5218POPC   C1B68143  31.906  34.464   6.119
 5218POPC   C2B68144  31.743  34.153   6.408
 5218POPC   C3B68145  31.631  34.222   6.833
 5218POPC   C4B68146  31.573  34.092   7.251
 5219POPC   NC368147  16.246   1.494   5.509
 5219POPC   PO468148  16.544   2.037   5.290
 5219POPC   GL168149  16.737   1.836   5.699
 5219POPC   GL268150  16.532   1.649   5.887
 5219POPC   C1A68151  16.784   1.994   6.175
 5219POPC   D2A68152  16.964   1.856   6.609
 5219POPC   C3A68153  16.787   1.984   7.015
 5219POPC   C4A68154  16.809   2.384   7.223
 5219POPC   C1B68155  16.447   1.615   6.285
 5219POPC   C2B68156  16.463   1.744   6.692
 5219POPC   C3B68157  16.366   1.627   7.101
 5219POPC   C4B68158  16.621   1.387   7.365
 5220POPC   NC368159  33.409  16.850   5.441
 5220POPC   PO468160  33.944  16.542   5.180
 5220POPC   GL168161  33.899  16.675   5.657
 5220POPC   GL268162  33.614  16.517   5.796
 5220POPC   C1A68163  33.903  16.806   6.130
 5220POPC   D2A68164  34.063  16.858   6.576
 5220POPC   C3A68165  33.849  16.901   6.975
 5220POPC   C4A68166  33.485  17.085   7.149
 5220POPC   C1B68167  33.427  16.621   6.197
 5220POPC   C2B68168  33.595  16.606   6.627
 5220POPC   C3B68169  33.570  16.499   7.090
 5220POPC   C4B68170  33.313  16.647   7.367
 5221POPC   NC368171  25.692  12.100   5.280
 5221POPC   PO468172  24.996  12.346   5.353
 5221POPC   GL168173  25.070  12.127   5.755
 5221POPC   GL268174  25.431  12.132   5.822
 5221POPC   C1A68175  25.129  11.772   6.052
 5221POPC   D2A68176  25.494  11.755   6.335
 5221POPC   C3A68177  25.406  11.944   6.728
 5221POPC   C4A68178  25.205  12.027   7.103
 5221POPC   C1B68179  25.203  12.237   6.245
 5221POPC   C2B68180  25.348  12.450   6.638
 5221POPC   C3B68181  25.591  12.365   7.042
 5221POPC   C4B68182  25.471  12.259   7.476
 5222POPC   NC368183   2.564  19.262   5.456
 5222POPC   PO468184   3.045  18.768   5.531
 5222POPC   GL168185   2.683  18.862   5.830
 5222POPC   GL268186   2.711  19.217   5.927
 5222POPC   C1A68187   2.431  18.943   6.248
 5222POPC   D2A68188   2.622  19.081   6.670
 5222POPC   C3A68189   2.652  18.871   7.062
 5222POPC   C4A68190   2.612  18.916   7.509
 5222POPC   C1B68191   2.933  19.193   6.291
 5222POPC   C2B68192   3.048  19.460   6.651
 5222POPC   C3B68193   3.122  19.399   7.087
 5222POPC   C4B68194   3.078  19.043   7.372
 5223POPC   NC368195  27.920  22.969   5.152
 5223POPC   PO468196  27.299  22.719   5.314
 5223POPC   GL168197  27.585  22.879   5.670
 5223POPC   GL268198  27.607  22.596   5.891
 5223POPC   C1A68199  27.692  23.068   6.099
 5223POPC   D2A68200  27.607  22.982   6.557
 5223POPC   C3A68201  27.675  23.181   6.990
 5223POPC   C4A68202  27.921  23.359   7.350
 5223POPC   C1B68203  27.305  22.698   6.176
 5223POPC   C2B68204  27.355  22.546   6.556
 5223POPC   C3B68205  27.301  22.419   6.928
 5223POPC   C4B68206  27.459  22.513   7.330
 5224POPC   NC368207   0.261  17.815   4.975
 5224POPC   PO468208   0.739  17.526   5.280
 5224POPC   GL168209   0.815  17.442   5.741
 5224POPC   GL268210   0.566  17.180   5.845
 5224POPC   C1A68211   0.730  17.599   6.208
 5224POPC   D2A68212   0.649  17.471   6.676
 5224POPC   C3A68213   0.579  17.721   7.068
 5224POPC   C4A68214   0.222  17.722   7.352
 5224POPC   C1B68215   0.902  17.125   6.142
 5224POPC   C2B68216   0.880  16.985   6.588
 5224POPC   C3B68217   0.796  17.142   7.040
 5224POPC   C4B68218   0.382  17.248   7.201
 5225POPC   NC368219  39.358   4.718   5.717
 5225POPC   PO468220  39.098   5.354   5.477
 5225POPC   GL168221  39.261   5.206   5.811
 5225POPC   GL268222  38.963   5.019   5.891
 5225POPC   C1A68223  39.538   5.293   6.165
 5225POPC   D2A68224  39.573   5.033   6.536
 5225POPC   C3A68225  39.292   4.997   6.854
 5225POPC   C4A68226  39.492   4.978   7.252
 5225POPC   C1B68227  39.099   4.988   6.313
 5225POPC   C2B68228  38.855   4.834   6.632
 5225POPC   C3B68229  38.876   4.622   6.977
 5225POPC   C4B68230  39.005   4.912   7.262
 5226POPC   NC368231  20.765   5.180   5.223
 5226POPC   PO468232  20.487   4.640   5.293
 5226POPC   GL168233  20.600   4.927   5.659
 5226POPC   GL268234  20.871   4.850   5.891
 5226POPC   C1A68235  20.505   5.150   6.076
 5226POPC   D2A68236  20.390   5.213   6.519
 5226POPC   C3A68237  20.499   5.146   6.964
 5226POPC   C4A68238  20.250   5.091   7.349
 5226POPC   C1B68239  21.034   5.132   6.224
 5226POPC   C2B68240  20.909   5.195   6.663
 5226POPC   C3B68241  21.043   5.128   7.112
 5226POPC   C4B68242  21.140   5.503   7.393
 5227POPC   NC368243   4.009  34.128   5.344
 5227POPC   PO468244   4.246  34.738   5.289
 5227POPC   GL168245   4.131  34.702   5.742
 5227POPC   GL268246   4.292  34.394   5.824
 5227POPC   C1A68247   4.025  34.659   6.186
 5227POPC   D2A68248   4.218  34.488   6.548
 5227POPC   C3A68249   4.287  34.619   6.952
 5227POPC   C4A68250   4.030  34.760   7.237
 5227POPC   C1B68251   4.445  34.171   6.231
 5227POPC   C2B68252   4.606  34.178   6.692
 5227POPC   C3B68253   4.539  34.210   7.170
 5227POPC   C4B68254   4.463  34.172   7.639
 5228POPC   NC368255  38.699  37.428   5.641
 5228POPC   PO468256  38.323  37.945   5.477
 5228POPC   GL168257  38.333  37.713   5.880
 5228POPC   GL268258  37.997  37.625   5.912
 5228POPC   C1A68259  38.604  37.569   6.259
 5228POPC   D2A68260  38.683  37.747   6.672
 5228POPC   C3A68261  38.338  37.794   6.946
 5228POPC   C4A68262  38.440  37.757   7.370
 5228POPC   C1B68263  38.115  37.642   6.365
 5228POPC   C2B68264  38.163  37.367   6.731
 5228POPC   C3B68265  38.108  37.372   7.191
 5228POPC   C4B68266  38.167  37.427   7.651
 5229POPC   NC368267  35.691  30.326   5.347
 5229POPC   PO468268  35.165  29.827   5.410
 5229POPC   GL168269  35.274  29.927   5.821
 5229POPC   GL268270  34.931  29.799   5.895
 5229POPC   C1A68271  35.594  29.827   6.157
 5229POPC   D2A68272  35.776  29.856   6.592
 5229POPC   C3A68273  35.521  29.909   6.978
 5229POPC   C4A68274  35.621  30.068   7.380
 5229POPC   C1B68275  35.078  29.865   6.305
 5229POPC   C2B68276  35.059  29.994   6.724
 5229POPC   C3B68277  34.894  29.831   7.087
 5229POPC   C4B68278  35.164  29.859   7.428
 5230POPC   NC368279  17.842  16.803   5.367
 5230POPC   PO468280  18.327  16.367   5.279
 5230POPC   GL168281  18.196  16.619   5.714
 5230POPC   GL268282  18.503  16.612   5.916
 5230POPC   C1A68283  18.066  16.703   6.213
 5230POPC   D2A68284  17.953  16.469   6.657
 5230POPC   C3A68285  18.021  16.614   7.137
 5230POPC   C4A68286  18.190  16.799   7.541
 5230POPC   C1B68287  18.555  16.587   6.372
 5230POPC   C2B68288  18.400  16.696   6.780
 5230POPC   C3B68289  18.571  16.657   7.210
 5230POPC   C4B68290  18.675  16.678   7.673
 5231POPC   NC368291  11.685  22.696   5.448
 5231POPC   PO468292  11.153  23.143   5.559
 5231POPC   GL168293  11.513  23.113   5.825
 5231POPC   GL268294  11.494  22.754   5.918
 5231POPC   C1A68295  11.536  23.090   6.283
 5231POPC   D2A68296  11.156  23.173   6.528
 5231POPC   C3A68297  11.269  23.158   6.947
 5231POPC   C4A68298  11.048  23.166   7.303
 5231POPC   C1B68299  11.263  22.632   6.303
 5231POPC   C2B68300  11.201  22.696   6.745
 5231POPC   C3B68301  11.367  22.705   7.179
 5231POPC   C4B68302  11.194  22.534   7.576
 5232POPC   NC368303  14.066  35.067   5.426
 5232POPC   PO468304  14.554  35.539   5.290
 5232POPC   GL168305  14.598  35.298   5.704
 5232POPC   GL268306  14.302  35.143   5.852
 5232POPC   C1A68307  14.671  35.159   6.174
 5232POPC   D2A68308  14.405  35.137   6.556
 5232POPC   C3A68309  14.644  35.201   6.921
 5232POPC   C4A68310  14.596  35.388   7.336
 5232POPC   C1B68311  13.991  35.051   6.178
 5232POPC   C2B68312  13.776  35.105   6.557
 5232POPC   C3B68313  13.842  34.986   6.944
 5232POPC   C4B68314  14.175  35.188   7.130
 5233POPC   NC368315  16.165  11.856   5.467
 5233POPC   PO468316  15.706  12.233   5.388
 5233POPC   GL168317  15.921  12.160   5.821
 5233POPC   GL268318  16.300  12.074   5.903
 5233POPC   C1A68319  15.991  12.132   6.283
 5233POPC   D2A68320  16.222  11.962   6.619
 5233POPC   C3A68321  15.943  11.960   6.983
 5233POPC   C4A68322  15.955  11.950   7.455
 5233POPC   C1B68323  16.135  11.668   6.122
 5233POPC   C2B68324  15.988  11.499   6.524
 5233POPC   C3B68325  16.204  11.485   6.918
 5233POPC   C4B68326  16.280  11.604   7.336
 5234POPC   NC368327  31.723   3.063   5.319
 5234POPC   PO468328  31.688   2.404   5.452
 5234POPC   GL168329  31.638   2.701   5.822
 5234POPC   GL268330  31.328   2.887   5.828
 5234POPC   C1A68331  31.814   2.820   6.241
 5234POPC   D2A68332  31.964   2.532   6.607
 5234POPC   C3A68333  31.685   2.479   6.937
 5234POPC   C4A68334  31.418   2.770   7.142
 5234POPC   C1B68335  31.266   2.781   6.294
 5234POPC   C2B68336  31.112   2.839   6.730
 5234POPC   C3B68337  30.937   2.905   7.153
 5234POPC   C4B68338  31.049   2.934   7.624
 5235POPC   NC368339   8.628  15.216   5.337
 5235POPC   PO468340   9.274  15.488   5.400
 5235POPC   GL168341   9.017  15.255   5.703
 5235POPC   GL268342   8.708  15.411   5.818
 5235POPC   C1A68343   9.002  15.012   6.116
 5235POPC   D2A68344   8.828  14.745   6.497
 5235POPC   C3A68345   8.930  14.918   6.932
 5235POPC   C4A68346   9.254  15.170   7.148
 5235POPC   C1B68347   8.685  15.423   6.272
 5235POPC   C2B68348   8.702  15.523   6.730
 5235POPC   C3B68349   8.753  15.384   7.174
 5235POPC   C4B68350   8.659  15.340   7.627
 5236POPC   NC368351  36.566  39.259   5.420
 5236POPC   PO468352  37.267  39.159   5.551
 5236POPC   GL168353  37.014  39.382   5.843
 5236POPC   GL268354  36.678  39.550   5.834
 5236POPC   C1A68355  36.868  39.334   6.270
 5236POPC   D2A68356  36.922  39.059   6.600
 5236POPC   C3A68357  37.013  39.288   6.922
 5236POPC   C4A68358  36.972  39.179   7.305
 5236POPC   C1B68359  36.425  39.557   6.216
 5236POPC   C2B68360  36.552  39.588   6.673
 5236POPC   C3B68361  36.500  39.422   7.100
 5236POPC   C4B68362  36.602  39.462   7.547
 5237POPC   NC368363   9.145  18.127   5.424
 5237POPC   PO468364   8.799  18.701   5.514
 5237POPC   GL168365   8.768  18.439   5.902
 5237POPC   GL268366   8.776  18.084   5.804
 5237POPC   C1A68367   8.653  18.195   6.299
 5237POPC   D2A68368   8.854  17.952   6.636
 5237POPC   C3A68369   9.096  18.177   6.950
 5237POPC   C4A68370   8.840  18.373   7.257
 5237POPC   C1B68371   9.109  18.042   6.130
 5237POPC   C2B68372   9.381  18.004   6.493
 5237POPC   C3B68373   9.514  17.877   6.917
 5237POPC   C4B68374   9.378  17.939   7.370
 5238POPC   NC368375  24.061   2.624   4.916
 5238POPC   PO468376  23.580   2.816   5.253
 5238POPC   GL168377  23.537   2.766   5.759
 5238POPC   GL268378  23.856   2.648   5.896
 5238POPC   C1A68379  23.340   2.755   6.220
 5238POPC   D2A68380  23.305   2.524   6.641
 5238POPC   C3A68381  23.372   2.726   7.061
 5238POPC   C4A68382  23.707   2.858   7.370
 5238POPC   C1B68383  23.802   2.604   6.367
 5238POPC   C2B68384  23.815   2.579   6.833
 5238POPC   C3B68385  23.834   2.361   7.239
 5238POPC   C4B68386  23.901   2.420   7.699
 5239POPC   NC368387  13.813  13.033   5.394
 5239POPC   PO468388  13.432  12.559   5.760
 5239POPC   GL168389  13.560  12.927   5.915
 5239POPC   GL268390  13.887  12.820   5.846
 5239POPC   C1A68391  13.497  13.034   6.364
 5239POPC   D2A68392  13.210  13.088   6.718
 5239POPC   C3A68393  13.300  12.775   7.024
 5239POPC   C4A68394  13.555  12.731   7.391
 5239POPC   C1B68395  13.995  13.035   6.212
 5239POPC   C2B68396  13.977  12.972   6.618
 5239POPC   C3B68397  13.826  12.948   7.001
 5239POPC   C4B68398  14.109  13.049   7.255
 5240POPC   NC368399  41.281   2.564   5.284
 5240POPC   PO468400  40.653   2.787   5.385
 5240POPC   GL168401  40.881   2.810   5.724
 5240POPC   GL268402  41.010   2.473   5.707
 5240POPC   C1A68403  40.780   2.830   6.156
 5240POPC   D2A68404  40.931   2.942   6.559
 5240POPC   C3A68405  40.606   2.774   6.839
 5240POPC   C4A68406  40.702   2.734   7.224
 5240POPC   C1B68407  40.978   2.344   6.123
 5240POPC   C2B68408  40.844   2.448   6.521
 5240POPC   C3B68409  41.049   2.513   6.909
 5240POPC   C4B68410  41.145   2.184   7.183
 5241POPC   NC368411  11.919  27.869   5.268
 5241POPC   PO468412  11.810  27.266   5.244
 5241POPC   GL168413  11.872  27.550   5.659
 5241POPC   GL268414  12.184  27.748   5.690
 5241POPC   C1A68415  11.794  27.611   6.121
 5241POPC   D2A68416  11.984  27.467   6.529
 5241POPC   C3A68417  11.954  27.677   6.929
 5241POPC   C4A68418  11.930  27.776   7.359
 5241POPC   C1B68419  12.261  27.905   6.125
 5241POPC   C2B68420  12.259  27.915   6.588
 5241POPC   C3B68421  12.379  27.910   7.073
 5241POPC   C4B68422  12.370  27.965   7.542
 5242POPC   NC368423  39.460  20.092   5.174
 5242POPC   PO468424  39.309  19.607   5.479
 5242POPC   GL168425  39.248  19.769   5.926
 5242POPC   GL268426  39.145  20.107   5.936
 5242POPC   C1A68427  39.029  19.808   6.354
 5242POPC   D2A68428  38.999  19.734   6.815
 5242POPC   C3A68429  39.287  19.774   7.151
 5242POPC   C4A68430  39.270  20.057   7.509
 5242POPC   C1B68431  39.384  20.186   6.305
 5242POPC   C2B68432  39.305  20.186   6.755
 5242POPC   C3B68433  39.561  20.253   7.138
 5242POPC   C4B68434  39.735  20.258   7.588
 5243POPC   NC368435  30.237  43.692   5.289
 5243POPC   PO468436  29.599  43.389   5.129
 5243POPC   GL168437  29.688  43.570   5.665
 5243POPC   GL268438  29.837  43.879   5.823
 5243POPC   C1A68439  29.875  43.506   6.142
 5243POPC   D2A68440  29.764  43.827   6.515
 5243POPC   C3A68441  29.938  43.791   6.934
 5243POPC   C4A68442  29.869  43.744   7.376
 5243POPC   C1B68443  30.152  43.973   6.199
 5243POPC   C2B68444  30.259  44.114   6.666
 5243POPC   C3B68445  30.105  44.249   7.095
 5243POPC   C4B68446  30.055  44.178   7.553
 5244POPC   NC368447  31.845  24.366   5.588
 5244POPC   PO468448  31.293  24.610   5.266
 5244POPC   GL168449  31.401  24.630   5.711
 5244POPC   GL268450  31.281  24.320   5.832
 5244POPC   C1A68451  31.367  24.743   6.166
 5244POPC   D2A68452  31.233  24.697   6.611
 5244POPC   C3A68453  31.546  24.598   6.914
 5244POPC   C4A68454  31.662  24.298   7.207
 5244POPC   C1B68455  31.082  24.329   6.250
 5244POPC   C2B68456  30.924  24.258   6.668
 5244POPC   C3B68457  31.134  24.335   7.061
 5244POPC   C4B68458  31.215  24.404   7.515
 5245POPC   NC368459  30.438  23.797   5.603
 5245POPC   PO468460  31.042  23.642   5.261
 5245POPC   GL168461  30.903  23.631   5.722
 5245POPC   GL268462  30.667  23.344   5.773
 5245POPC   C1A68463  30.810  23.885   6.135
 5245POPC   D2A68464  30.542  23.899   6.516
 5245POPC   C3A68465  30.707  23.640   6.825
 5245POPC   C4A68466  30.836  23.796   7.201
 5245POPC   C1B68467  30.519  23.420   6.214
 5245POPC   C2B68468  30.134  23.578   6.451
 5245POPC   C3B68469  30.122  23.792   6.827
 5245POPC   C4B68470  30.312  23.597   7.145
 5246POPC   NC368471  28.585  30.579   5.435
 5246POPC   PO468472  28.071  30.389   5.574
 5246POPC   GL168473  28.369  30.575   5.915
 5246POPC   GL268474  28.687  30.414   5.932
 5246POPC   C1A68475  28.494  30.807   6.326
 5246POPC   D2A68476  28.361  31.010   6.739
 5246POPC   C3A68477  28.258  30.755   7.101
 5246POPC   C4A68478  28.358  30.901   7.495
 5246POPC   C1B68479  28.727  30.363   6.396
 5246POPC   C2B68480  28.656  30.587   6.797
 5246POPC   C3B68481  28.709  30.579   7.252
 5246POPC   C4B68482  28.405  30.421   7.569
 5247POPC   NC368483   6.517  23.873   5.106
 5247POPC   PO468484   6.778  23.355   5.364
 5247POPC   GL168485   6.690  23.605   5.745
 5247POPC   GL268486   6.754  23.960   5.648
 5247POPC   C1A68487   6.543  23.599   6.198
 5247POPC   D2A68488   6.367  23.386   6.572
 5247POPC   C3A68489   6.645  23.394   6.923
 5247POPC   C4A68490   6.889  23.520   7.291
 5247POPC   C1B68491   6.749  24.058   6.128
 5247POPC   C2B68492   6.683  23.924   6.572
 5247POPC   C3B68493   6.737  23.941   7.014
 5247POPC   C4B68494   6.382  23.781   7.208
 5248POPC   NC368495  21.360  34.923   5.370
 5248POPC   PO468496  21.112  35.511   5.146
 5248POPC   GL168497  21.254  35.320   5.619
 5248POPC   GL268498  21.563  35.415   5.774
 5248POPC   C1A68499  21.226  35.237   6.109
 5248POPC   D2A68500  21.095  35.097   6.539
 5248POPC   C3A68501  21.184  35.346   6.901
 5248POPC   C4A68502  21.057  35.295   7.342
 5248POPC   C1B68503  21.635  34.958   5.994
 5248POPC   C2B68504  21.611  34.935   6.473
 5248POPC   C3B68505  21.717  35.216   6.830
 5248POPC   C4B68506  21.557  35.261   7.260
 5249POPC   NC368507   1.636  14.223   5.420
 5249POPC   PO468508   2.142  14.636   5.351
 5249POPC   GL168509   1.950  14.510   5.759
 5249POPC   GL268510   1.903  14.143   5.845
 5249POPC   C1A68511   2.076  14.488   6.208
 5249POPC   D2A68512   2.142  14.185   6.536
 5249POPC   C3A68513   2.014  14.342   6.950
 5249POPC   C4A68514   2.018  14.218   7.381
 5249POPC   C1B68515   1.674  13.887   6.164
 5249POPC   C2B68516   1.843  13.754   6.572
 5249POPC   C3B68517   1.719  13.900   6.971
 5249POPC   C4B68518   1.524  14.103   7.308
 5250POPC   NC368519  41.538   1.597   5.294
 5250POPC   PO468520  41.248   2.119   5.375
 5250POPC   GL168521  41.473   1.957   5.757
 5250POPC   GL268522  41.770   1.706   5.730
 5250POPC   C1A68523  41.447   2.107   6.207
 5250POPC   D2A68524  41.250   2.126   6.617
 5250POPC   C3A68525  41.458   1.883   6.927
 5250POPC   C4A68526  41.734   2.061   7.221
 5250POPC   C1B68527  41.883   1.821   6.130
 5250POPC   C2B68528  41.874   1.888   6.565
 5250POPC   C3B68529  41.948   1.696   6.949
 5250POPC   C4B68530  41.962   1.623   7.374
 5251POPC   NC368531  33.932  23.109   5.316
 5251POPC   PO468532  33.709  22.554   5.382
 5251POPC   GL168533  33.894  22.752   5.753
 5251POPC   GL268534  33.877  23.099   5.827
 5251POPC   C1A68535  33.855  22.747   6.214
 5251POPC   D2A68536  34.055  22.534   6.575
 5251POPC   C3A68537  33.849  22.711   6.935
 5251POPC   C4A68538  33.597  22.667   7.278
 5251POPC   C1B68539  33.952  23.295   6.225
 5251POPC   C2B68540  33.854  23.262   6.678
 5251POPC   C3B68541  34.001  23.358   7.115
 5251POPC   C4B68542  33.756  23.292   7.529
 5252POPC   NC368543  26.496  36.339   5.515
 5252POPC   PO468544  27.169  36.384   5.375
 5252POPC   GL168545  27.091  36.071   5.727
 5252POPC   GL268546  26.753  35.979   5.790
 5252POPC   C1A68547  27.076  35.856   6.168
 5252POPC   D2A68548  27.101  36.127   6.531
 5252POPC   C3A68549  27.086  36.243   6.966
 5252POPC   C4A68550  27.119  36.098   7.392
 5252POPC   C1B68551  26.692  36.190   6.218
 5252POPC   C2B68552  26.600  36.104   6.697
 5252POPC   C3B68553  26.632  36.121   7.201
 5252POPC   C4B68554  26.412  36.372   7.562
 5253POPC   NC368555  21.587  40.084   5.438
 5253POPC   PO468556  21.177  39.599   5.541
 5253POPC   GL168557  21.310  39.918   5.855
 5253POPC   GL268558  21.110  40.225   5.811
 5253POPC   C1A68559  21.482  40.074   6.261
 5253POPC   D2A68560  21.695  40.034   6.679
 5253POPC   C3A68561  21.585  39.774   7.020
 5253POPC   C4A68562  21.203  39.712   7.213
 5253POPC   C1B68563  21.006  40.365   6.249
 5253POPC   C2B68564  21.020  40.338   6.696
 5253POPC   C3B68565  21.279  40.391   7.032
 5253POPC   C4B68566  21.459  40.165   7.345
 5254POPC   NC368567  35.164  15.667   5.443
 5254POPC   PO468568  35.295  16.216   5.569
 5254POPC   GL168569  35.373  16.018   5.947
 5254POPC   GL268570  35.388  15.678   5.932
 5254POPC   C1A68571  35.366  16.198   6.333
 5254POPC   D2A68572  35.406  16.123   6.756
 5254POPC   C3A68573  35.630  16.379   7.044
 5254POPC   C4A68574  35.316  16.479   7.294
 5254POPC   C1B68575  35.357  15.673   6.394
 5254POPC   C2B68576  35.567  15.651   6.813
 5254POPC   C3B68577  35.317  15.810   7.176
 5254POPC   C4B68578  35.096  15.640   7.571
 5255POPC   NC368579  29.274   8.694   5.057
 5255POPC   PO468580  29.324   8.035   5.235
 5255POPC   GL168581  29.124   8.123   5.620
 5255POPC   GL268582  28.999   7.786   5.681
 5255POPC   C1A68583  29.030   8.363   6.017
 5255POPC   D2A68584  28.808   8.339   6.427
 5255POPC   C3A68585  28.979   8.316   6.848
 5255POPC   C4A68586  28.848   8.355   7.272
 5255POPC   C1B68587  29.281   7.878   6.048
 5255POPC   C2B68588  29.298   8.131   6.425
 5255POPC   C3B68589  29.448   8.085   6.849
 5255POPC   C4B68590  29.210   7.989   7.246
 5256POPC   NC368591  19.296  38.476   5.487
 5256POPC   PO468592  18.607  38.724   5.389
 5256POPC   GL168593  18.815  38.438   5.779
 5256POPC   GL268594  19.175  38.385   5.956
 5256POPC   C1A68595  18.752  38.245   6.220
 5256POPC   D2A68596  18.842  38.019   6.626
 5256POPC   C3A68597  18.825  38.224   7.044
 5256POPC   C4A68598  18.841  38.581   7.321
 5256POPC   C1B68599  19.051  38.690   6.278
 5256POPC   C2B68600  18.991  38.610   6.721
 5256POPC   C3B68601  19.268  38.545   7.068
 5256POPC   C4B68602  19.333  38.764   7.446
 5257POPC   NC368603  44.991   3.421   5.341
 5257POPC   PO468604  44.265   3.302   5.300
 5257POPC   GL168605  44.554   3.351   5.653
 5257POPC   GL268606  44.296   3.466   5.842
 5257POPC   C1A68607  44.756   3.439   6.078
 5257POPC   D2A68608  44.824   3.638   6.485
 5257POPC   C3A68609  44.735   3.420   6.898
 5257POPC   C4A68610  44.820   3.597   7.292
 5257POPC   C1B68611  44.310   3.606   6.258
 5257POPC   C2B68612  44.356   3.733   6.683
 5257POPC   C3B68613  44.199   3.463   6.945
 5257POPC   C4B68614  44.328   3.327   7.339
 5258POPC   NC368615   5.971  35.023   5.680
 5258POPC   PO468616   5.501  35.454   5.466
 5258POPC   GL168617   5.734  35.453   5.857
 5258POPC   GL268618   6.102  35.456   5.887
 5258POPC   C1A68619   5.833  35.291   6.279
 5258POPC   D2A68620   6.152  35.170   6.575
 5258POPC   C3A68621   6.047  35.270   7.004
 5258POPC   C4A68622   6.261  35.165   7.407
 5258POPC   C1B68623   6.226  35.647   6.257
 5258POPC   C2B68624   6.414  35.602   6.660
 5258POPC   C3B68625   6.212  35.764   6.995
 5258POPC   C4B68626   6.107  35.641   7.360
 5259POPC   NC368627  13.338  22.386   5.355
 5259POPC   PO468628  13.770  21.873   5.344
 5259POPC   GL168629  13.626  22.099   5.718
 5259POPC   GL268630  13.271  22.010   5.736
 5259POPC   C1A68631  13.753  22.315   6.127
 5259POPC   D2A68632  13.714  22.136   6.521
 5259POPC   C3A68633  13.749  22.332   6.894
 5259POPC   C4A68634  13.725  22.089   7.233
 5259POPC   C1B68635  13.305  22.057   6.165
 5259POPC   C2B68636  13.212  22.228   6.536
 5259POPC   C3B68637  13.324  22.059   6.880
 5259POPC   C4B68638  13.253  22.240   7.236
 5260POPC   NC368639  28.860  38.447   5.444
 5260POPC   PO468640  28.310  38.776   5.438
 5260POPC   GL168641  28.505  38.569   5.806
 5260POPC   GL268642  28.474  38.243   5.772
 5260POPC   C1A68643  28.312  38.571   6.237
 5260POPC   D2A68644  28.291  38.362   6.652
 5260POPC   C3A68645  28.481  38.505   7.060
 5260POPC   C4A68646  28.274  38.530   7.471
 5260POPC   C1B68647  28.264  38.036   6.141
 5260POPC   C2B68648  28.315  37.846   6.555
 5260POPC   C3B68649  28.177  37.949   6.974
 5260POPC   C4B68650  28.431  38.028   7.322
 5261POPC   NC368651  19.845  35.285   5.386
 5261POPC   PO468652  19.555  35.916   5.447
 5261POPC   GL168653  19.704  35.581   5.787
 5261POPC   GL268654  20.082  35.445   5.801
 5261POPC   C1A68655  19.623  35.310   6.170
 5261POPC   D2A68656  19.698  35.042   6.533
 5261POPC   C3A68657  19.661  35.285   6.912
 5261POPC   C4A68658  19.723  35.218   7.332
 5261POPC   C1B68659  20.201  35.276   6.197
 5261POPC   C2B68660  20.090  35.340   6.626
 5261POPC   C3B68661  20.170  35.343   7.075
 5261POPC   C4B68662  20.186  35.075   7.473
 5262POPC   NC368663  38.854   3.362   5.397
 5262POPC   PO468664  39.183   2.715   5.327
 5262POPC   GL168665  39.255   2.798   5.748
 5262POPC   GL268666  39.522   3.044   5.719
 5262POPC   C1A68667  39.001   2.721   6.134
 5262POPC   D2A68668  38.796   2.634   6.564
 5262POPC   C3A68669  39.074   2.820   6.908
 5262POPC   C4A68670  39.104   3.105   7.283
 5262POPC   C1B68671  39.565   2.862   6.151
 5262POPC   C2B68672  39.419   2.844   6.543
 5262POPC   C3B68673  39.563   3.008   6.932
 5262POPC   C4B68674  39.634   2.882   7.329
 5263POPC   NC368675  20.922   8.394   5.255
 5263POPC   PO468676  20.276   8.492   5.452
 5263POPC   GL168677  20.626   8.318   5.706
 5263POPC   GL268678  20.913   8.519   5.751
 5263POPC   C1A68679  20.867   8.100   6.045
 5263POPC   D2A68680  20.994   8.267   6.470
 5263POPC   C3A68681  20.787   8.147   6.873
 5263POPC   C4A68682  20.803   8.173   7.339
 5263POPC   C1B68683  20.688   8.573   6.166
 5263POPC   C2B68684  20.546   8.552   6.603
 5263POPC   C3B68685  20.662   8.604   7.059
 5263POPC   C4B68686  20.456   8.517   7.494
 5264POPC   NC368687  31.945   0.917   5.430
 5264POPC   PO468688  32.135   1.512   5.510
 5264POPC   GL168689  32.147   1.127   5.860
 5264POPC   GL268690  32.470   0.941   6.009
 5264POPC   C1A68691  32.089   1.125   6.271
 5264POPC   D2A68692  32.214   1.042   6.640
 5264POPC   C3A68693  31.960   1.204   6.941
 5264POPC   C4A68694  32.212   1.150   7.240
 5264POPC   C1B68695  32.581   1.330   6.240
 5264POPC   C2B68696  32.433   1.525   6.578
 5264POPC   C3B68697  32.579   1.294   6.905
 5264POPC   C4B68698  32.731   1.095   7.246
 5265POPC   NC368699  15.505  32.235   5.408
 5265POPC   PO468700  16.065  32.416   5.386
 5265POPC   GL168701  15.917  32.499   5.773
 5265POPC   GL268702  16.244  32.446   5.892
 5265POPC   C1A68703  15.752  32.456   6.194
 5265POPC   D2A68704  15.829  32.410   6.655
 5265POPC   C3A68705  15.750  32.020   6.919
 5265POPC   C4A68706  15.705  31.971   7.369
 5265POPC   C1B68707  16.190  32.784   6.178
 5265POPC   C2B68708  16.081  32.871   6.596
 5265POPC   C3B68709  16.185  32.652   6.953
 5265POPC   C4B68710  16.198  32.239   7.101
 5266POPC   NC368711   6.290  20.252   5.524
 5266POPC   PO468712   6.589  20.871   5.531
 5266POPC   GL168713   6.703  20.805   5.890
 5266POPC   GL268714   6.637  20.449   5.854
 5266POPC   C1A68715   6.526  20.728   6.265
 5266POPC   D2A68716   6.695  20.832   6.616
 5266POPC   C3A68717   6.473  20.618   6.961
 5266POPC   C4A68718   6.634  20.648   7.372
 5266POPC   C1B68719   6.450  20.234   6.175
 5266POPC   C2B68720   6.224  20.383   6.536
 5266POPC   C3B68721   6.190  20.132   6.900
 5266POPC   C4B68722   6.304  20.239   7.320
 5267POPC   NC368723  35.299  40.421   5.426
 5267POPC   PO468724  35.581  39.825   5.545
 5267POPC   GL168725  35.398  39.958   5.892
 5267POPC   GL268726  35.493  40.307   5.883
 5267POPC   C1A68727  35.323  39.771   6.309
 5267POPC   D2A68728  35.244  39.969   6.712
 5267POPC   C3A68729  35.165  39.750   7.096
 5267POPC   C4A68730  35.358  39.852   7.526
 5267POPC   C1B68731  35.615  40.209   6.305
 5267POPC   C2B68732  35.746  40.060   6.694
 5267POPC   C3B68733  35.638  39.972   7.121
 5267POPC   C4B68734  35.803  40.104   7.525
 5268POPC   NC368735   7.942  33.083   5.472
 5268POPC   PO468736   7.369  32.701   5.344
 5268POPC   GL168737   7.571  32.849   5.751
 5268POPC   GL268738   7.489  33.205   5.851
 5268POPC   C1A68739   7.622  32.878   6.222
 5268POPC   D2A68740   7.453  33.187   6.578
 5268POPC   C3A68741   7.248  33.114   6.994
 5268POPC   C4A68742   7.302  32.797   7.369
 5268POPC   C1B68743   7.716  33.440   6.181
 5268POPC   C2B68744   7.670  33.653   6.600
 5268POPC   C3B68745   7.593  33.536   7.030
 5268POPC   C4B68746   7.671  33.156   7.291
 5269POPC   NC368747  12.166   2.894   5.351
 5269POPC   PO468748  12.017   2.410   5.683
 5269POPC   GL168749  12.229   2.592   5.950
 5269POPC   GL268750  12.184   2.943   5.897
 5269POPC   C1A68751  12.199   2.629   6.367
 5269POPC   D2A68752  12.050   2.874   6.709
 5269POPC   C3A68753  12.140   2.645   7.054
 5269POPC   C4A68754  12.505   2.406   7.113
 5269POPC   C1B68755  12.301   3.170   6.289
 5269POPC   C2B68756  12.415   3.240   6.735
 5269POPC   C3B68757  12.190   3.179   7.127
 5269POPC   C4B68758  11.978   2.966   7.444
 5270POPC   NC368759  37.209  32.731   5.486
 5270POPC   PO468760  37.524  32.095   5.414
 5270POPC   GL168761  37.685  32.211   5.793
 5270POPC   GL268762  37.329  32.330   5.844
 5270POPC   C1A68763  37.880  32.013   6.168
 5270POPC   D2A68764  38.042  31.986   6.609
 5270POPC   C3A68765  37.720  32.199   6.908
 5270POPC   C4A68766  37.661  32.259   7.329
 5270POPC   C1B68767  37.550  32.581   6.150
 5270POPC   C2B68768  37.444  32.410   6.536
 5270POPC   C3B68769  37.286  32.521   6.936
 5270POPC   C4B68770  37.470  32.718   7.274
 5271POPC   NC368771  24.354   6.438   5.323
 5271POPC   PO468772  24.795   6.856   5.167
 5271POPC   GL168773  24.704   6.684   5.633
 5271POPC   GL268774  24.374   6.700   5.769
 5271POPC   C1A68775  24.751   6.722   6.122
 5271POPC   D2A68776  24.556   6.705   6.540
 5271POPC   C3A68777  24.714   6.795   6.947
 5271POPC   C4A68778  24.721   6.522   7.305
 5271POPC   C1B68779  24.294   6.464   6.151
 5271POPC   C2B68780  24.251   6.299   6.589
 5271POPC   C3B68781  24.298   6.441   7.014
 5271POPC   C4B68782  23.934   6.471   7.294
 5272POPC   NC368783  21.659   3.146   5.488
 5272POPC   PO468784  21.581   2.503   5.522
 5272POPC   GL168785  21.390   2.792   5.822
 5272POPC   GL268786  21.007   2.785   5.763
 5272POPC   C1A68787  21.575   2.996   6.244
 5272POPC   D2A68788  21.598   3.258   6.656
 5272POPC   C3A68789  21.659   3.087   7.080
 5272POPC   C4A68790  21.734   2.651   7.201
 5272POPC   C1B68791  21.074   2.988   6.151
 5272POPC   C2B68792  21.194   2.763   6.495
 5272POPC   C3B68793  21.318   2.762   6.889
 5272POPC   C4B68794  21.202   2.830   7.293
 5273POPC   NC368795  21.488  30.124   5.633
 5273POPC   PO468796  21.421  29.516   5.519
 5273POPC   GL168797  21.420  29.605   5.929
 5273POPC   GL268798  21.752  29.727   5.937
 5273POPC   C1A68799  21.140  29.784   6.237
 5273POPC   D2A68800  21.163  30.075   6.574
 5273POPC   C3A68801  21.220  29.780   6.896
 5273POPC   C4A68802  21.206  29.372   7.123
 5273POPC   C1B68803  21.601  30.012   6.286
 5273POPC   C2B68804  21.646  30.029   6.738
 5273POPC   C3B68805  21.600  30.027   7.167
 5273POPC   C4B68806  21.798  29.865   7.535
 5274POPC   NC368807  19.918  30.544   5.504
 5274POPC   PO468808  19.984  31.124   5.412
 5274POPC   GL168809  20.125  30.944   5.859
 5274POPC   GL268810  20.111  30.577   5.994
 5274POPC   C1A68811  20.141  30.955   6.334
 5274POPC   D2A68812  20.024  30.606   6.606
 5274POPC   C3A68813  20.137  30.642   7.047
 5274POPC   C4A68814  19.870  30.897   7.262
 5274POPC   C1B68815  19.711  30.612   6.184
 5274POPC   C2B68816  19.519  30.460   6.578
 5274POPC   C3B68817  19.648  30.479   7.023
 5274POPC   C4B68818  19.873  30.393   7.428
 5275POPC   NC368819  18.493  34.880   5.443
 5275POPC   PO468820  18.635  35.527   5.405
 5275POPC   GL168821  18.502  35.295   5.777
 5275POPC   GL268822  18.179  35.469   5.826
 5275POPC   C1A68823  18.489  34.993   6.134
 5275POPC   D2A68824  18.578  35.272   6.483
 5275POPC   C3A68825  18.505  35.285   6.927
 5275POPC   C4A68826  18.728  35.351   7.309
 5275POPC   C1B68827  18.108  35.308   6.235
 5275POPC   C2B68828  18.107  35.445   6.647
 5275POPC   C3B68829  17.999  35.324   7.059
 5275POPC   C4B68830  18.275  35.148   7.415
 5276POPC   NC368831   9.860  20.988   5.612
 5276POPC   PO468832   9.728  20.599   5.122
 5276POPC   GL168833   9.871  20.494   5.679
 5276POPC   GL268834   9.641  20.739   5.986
 5276POPC   C1A68835  10.081  20.659   6.137
 5276POPC   D2A68836   9.847  20.874   6.481
 5276POPC   C3A68837   9.891  20.685   6.898
 5276POPC   C4A68838   9.802  20.884   7.299
 5276POPC   C1B68839   9.402  20.646   6.335
 5276POPC   C2B68840   9.387  20.583   6.741
 5276POPC   C3B68841   9.365  20.753   7.112
 5276POPC   C4B68842   9.400  20.714   7.583
 5277POPC   NC368843  11.072   9.813   5.479
 5277POPC   PO468844  11.761   9.955   5.427
 5277POPC   GL168845  11.456   9.941   5.792
 5277POPC   GL268846  11.382   9.601   5.858
 5277POPC   C1A68847  11.323  10.124   6.196
 5277POPC   D2A68848  11.176   9.933   6.570
 5277POPC   C3A68849  11.350   9.882   6.972
 5277POPC   C4A68850  11.072   9.900   7.315
 5277POPC   C1B68851  11.200   9.517   6.238
 5277POPC   C2B68852  11.294   9.452   6.651
 5277POPC   C3B68853  11.150   9.419   7.075
 5277POPC   C4B68854  11.303   9.469   7.477
 5278POPC   NC368855   0.229  10.677   5.543
 5278POPC   PO468856  44.708  10.295   5.493
 5278POPC   GL168857  44.572  10.495   5.835
 5278POPC   GL268858  44.496  10.817   5.701
 5278POPC   C1A68859  44.516  10.430   6.260
 5278POPC   D2A68860  44.711  10.214   6.576
 5278POPC   C3A68861  44.576  10.477   6.853
 5278POPC   C4A68862  44.611  10.569   7.268
 5278POPC   C1B68863  44.729  10.944   6.090
 5278POPC   C2B68864  44.733  10.837   6.531
 5278POPC   C3B68865  44.807  10.959   6.958
 5278POPC   C4B68866  44.685  11.049   7.392
 5279POPC   NC368867   9.144  38.880   5.505
 5279POPC   PO468868   8.624  39.351   5.530
 5279POPC   GL168869   8.697  39.298   5.943
 5279POPC   GL268870   9.015  39.130   6.014
 5279POPC   C1A68871   8.670  39.208   6.371
 5279POPC   D2A68872   9.039  39.033   6.574
 5279POPC   C3A68873   9.175  39.246   6.940
 5279POPC   C4A68874   8.849  39.357   7.219
 5279POPC   C1B68875   9.134  39.482   6.324
 5279POPC   C2B68876   9.498  39.585   6.617
 5279POPC   C3B68877   9.642  39.486   7.043
 5279POPC   C4B68878   9.387  39.411   7.406
 5280POPC   NC368879   1.475   0.248   5.244
 5280POPC   PO468880   2.067   0.632   5.380
 5280POPC   GL168881   1.845   0.459   5.771
 5280POPC   GL268882   2.156   0.348   5.868
 5280POPC   C1A68883   1.841   0.243   6.229
 5280POPC   D2A68884   1.710   0.343   6.634
 5280POPC   C3A68885   1.929   0.208   6.989
 5280POPC   C4A68886   1.762   0.176   7.375
 5280POPC   C1B68887   2.256   0.570   6.245
 5280POPC   C2B68888   2.143   0.689   6.676
 5280POPC   C3B68889   2.283   0.606   7.091
 5280POPC   C4B68890   2.254   0.288   7.430
 5281POPC   NC368891  15.604  39.431   5.539
 5281POPC   PO468892  16.127  39.830   5.303
 5281POPC   GL168893  15.871  39.850   5.715
 5281POPC   GL268894  15.818  40.160   5.860
 5281POPC   C1A68895  15.764  39.752   6.158
 5281POPC   D2A68896  15.981  39.753   6.566
 5281POPC   C3A68897  15.819  39.763   6.987
 5281POPC   C4A68898  15.745  39.882   7.430
 5281POPC   C1B68899  15.762  40.275   6.288
 5281POPC   C2B68900  15.677  40.206   6.726
 5281POPC   C3B68901  15.789  40.301   7.149
 5281POPC   C4B68902  16.151  40.404   7.432
 5282POPC   NC368903  23.438   9.945   5.518
 5282POPC   PO468904  23.925   9.552   5.409
 5282POPC   GL168905  23.746   9.629   5.809
 5282POPC   GL268906  23.462   9.472   5.899
 5282POPC   C1A68907  23.740   9.827   6.225
 5282POPC   D2A68908  23.650   9.669   6.644
 5282POPC   C3A68909  23.744  10.011   6.870
 5282POPC   C4A68910  23.831  10.203   7.218
 5282POPC   C1B68911  23.667   9.315   6.252
 5282POPC   C2B68912  23.977   9.257   6.571
 5282POPC   C3B68913  24.020   9.438   6.963
 5282POPC   C4B68914  23.691   9.648   7.218
 5283POPC   NC368915  14.634  13.924   5.357
 5283POPC   PO468916  14.167  13.398   5.441
 5283POPC   GL168917  14.262  13.667   5.794
 5283POPC   GL268918  14.602  13.773   5.842
 5283POPC   C1A68919  14.219  13.516   6.231
 5283POPC   D2A68920  14.394  13.499   6.656
 5283POPC   C3A68921  14.145  13.518   7.044
 5283POPC   C4A68922  14.166  13.500   7.501
 5283POPC   C1B68923  14.435  13.976   6.206
 5283POPC   C2B68924  14.359  14.067   6.630
 5283POPC   C3B68925  14.510  13.912   7.014
 5283POPC   C4B68926  14.246  13.975   7.330
 5284POPC   NC368927  17.176  31.423   5.383
 5284POPC   PO468928  17.526  30.844   5.482
 5284POPC   GL168929  17.555  30.768   5.894
 5284POPC   GL268930  17.497  31.098   5.967
 5284POPC   C1A68931  17.727  30.828   6.330
 5284POPC   D2A68932  17.907  31.179   6.605
 5284POPC   C3A68933  17.750  31.077   7.030
 5284POPC   C4A68934  17.560  30.695   7.170
 5284POPC   C1B68935  17.210  30.813   6.260
 5284POPC   C2B68936  17.279  30.620   6.681
 5284POPC   C3B68937  17.071  30.633   7.122
 5284POPC   C4B68938  17.195  30.707   7.595
 5285POPC   NC368939  34.002  38.800   5.446
 5285POPC   PO468940  33.484  38.334   5.264
 5285POPC   GL168941  33.583  38.517   5.712
 5285POPC   GL268942  33.909  38.416   5.807
 5285POPC   C1A68943  33.550  38.447   6.190
 5285POPC   D2A68944  33.599  38.178   6.557
 5285POPC   C3A68945  33.828  38.436   6.826
 5285POPC   C4A68946  33.767  38.524   7.230
 5285POPC   C1B68947  33.963  38.722   6.124
 5285POPC   C2B68948  33.810  38.878   6.508
 5285POPC   C3B68949  34.020  38.895   6.883
 5285POPC   C4B68950  34.145  38.843   7.281
 5286POPC   NC368951  44.251  39.960   5.405
 5286POPC   PO468952  43.717  39.662   5.375
 5286POPC   GL168953  43.828  39.901   5.744
 5286POPC   GL268954  44.103  39.723   5.830
 5286POPC   C1A68955  43.909  40.095   6.160
 5286POPC   D2A68956  43.997  40.219   6.605
 5286POPC   C3A68957  43.687  40.086   6.907
 5286POPC   C4A68958  43.767  39.990   7.330
 5286POPC   C1B68959  44.250  39.670   6.219
 5286POPC   C2B68960  44.350  39.812   6.623
 5286POPC   C3B68961  44.155  39.861   7.009
 5286POPC   C4B68962  44.185  39.601   7.374
 5287POPC   NC368963  14.763  21.070   5.423
 5287POPC   PO468964  14.301  21.474   5.548
 5287POPC   GL168965  14.263  21.250   5.877
 5287POPC   GL268966  14.605  21.138   5.926
 5287POPC   C1A68967  14.273  21.463   6.257
 5287POPC   D2A68968  14.493  21.400   6.625
 5287POPC   C3A68969  14.441  21.605   7.015
 5287POPC   C4A68970  14.275  21.248   7.225
 5287POPC   C1B68971  14.833  21.399   6.228
 5287POPC   C2B68972  15.010  21.298   6.636
 5287POPC   C3B68973  14.779  21.204   7.006
 5287POPC   C4B68974  14.736  21.387   7.396
 5288POPC   NC368975  14.114  40.947   5.416
 5288POPC   PO468976  14.709  40.737   5.304
 5288POPC   GL168977  14.572  40.693   5.735
 5288POPC   GL268978  14.189  40.633   5.842
 5288POPC   C1A68979  14.761  40.770   6.146
 5288POPC   D2A68980  14.532  40.764   6.513
 5288POPC   C3A68981  14.491  40.976   6.900
 5288POPC   C4A68982  14.513  40.767   7.284
 5288POPC   C1B68983  14.082  40.590   6.318
 5288POPC   C2B68984  14.156  40.569   6.806
 5288POPC   C3B68985  14.013  40.794   7.158
 5288POPC   C4B68986  14.085  40.666   7.566
 5289POPC   NC368987   4.475  21.605   5.162
 5289POPC   PO468988   4.066  21.203   5.550
 5289POPC   GL168989   4.232  21.416   5.925
 5289POPC   GL268990   4.601  21.412   5.883
 5289POPC   C1A68991   4.257  21.411   6.389
 5289POPC   D2A68992   4.244  21.100   6.665
 5289POPC   C3A68993   4.272  21.268   7.056
 5289POPC   C4A68994   3.999  21.621   7.101
 5289POPC   C1B68995   4.719  21.561   6.329
 5289POPC   C2B68996   4.593  21.573   6.776
 5289POPC   C3B68997   4.492  21.746   7.162
 5289POPC   C4B68998   4.685  21.396   7.364
 5290POPC   NC368999  24.926  19.198   5.518
 5290POPC   PO469000  25.532  18.930   5.359
 5290POPC   GL169001  25.370  19.045   5.743
 5290POPC   GL269002  25.162  18.764   5.746
 5290POPC   C1A69003  25.444  19.106   6.181
 5290POPC   D2A69004  25.193  19.107   6.561
 5290POPC   C3A69005  25.298  19.248   6.969
 5290POPC   C4A69006  25.500  19.078   7.301
 5290POPC   C1B69007  24.983  18.880   6.145
 5290POPC   C2B69008  24.915  18.675   6.561
 5290POPC   C3B69009  25.110  18.777   6.942
 5290POPC   C4B69010  25.004  18.878   7.354
 5291POPC   NC369011  40.829  10.578   5.423
 5291POPC   PO469012  41.078  10.055   5.433
 5291POPC   GL169013  40.945  10.271   5.823
 5291POPC   GL269014  40.586  10.409   5.848
 5291POPC   C1A69015  40.959  10.425   6.268
 5291POPC   D2A69016  40.900  10.205   6.662
 5291POPC   C3A69017  40.825  10.398   7.063
 5291POPC   C4A69018  40.969  10.790   7.194
 5291POPC   C1B69019  40.500  10.677   6.217
 5291POPC   C2B69020  40.638  10.664   6.641
 5291POPC   C3B69021  40.504  10.880   6.988
 5291POPC   C4B69022  40.384  10.733   7.344
 5292POPC   NC369023  33.578  44.173   5.323
 5292POPC   PO469024  34.030  43.745   5.527
 5292POPC   GL169025  34.033  43.946   5.921
 5292POPC   GL269026  33.755  44.131   5.822
 5292POPC   C1A69027  33.969  43.961   6.338
 5292POPC   D2A69028  33.719  43.758   6.632
 5292POPC   C3A69029  33.893  43.896   6.999
 5292POPC   C4A69030  34.085  43.851   7.411
 5292POPC   C1B69031  33.503  44.069   6.210
 5292POPC   C2B69032  33.606  44.249   6.631
 5292POPC   C3B69033  33.391  44.064   6.969
 5292POPC   C4B69034  33.307  43.753   7.231
 5293POPC   NC369035  38.421  44.363   5.392
 5293POPC   PO469036  38.646  44.993   5.634
 5293POPC   GL169037  38.333  44.704   5.862
 5293POPC   GL269038  38.146  44.371   5.814
 5293POPC   C1A69039  38.286  44.567   6.289
 5293POPC   D2A69040  38.428  44.482   6.693
 5293POPC   C3A69041  38.416  44.813   6.961
 5293POPC   C4A69042  38.446   0.015   7.315
 5293POPC   C1B69043  38.203  44.085   6.161
 5293POPC   C2B69044  38.330  44.007   6.563
 5293POPC   C3B69045  38.203  44.139   6.987
 5293POPC   C4B69046  38.095  44.292   7.397
 5294POPC   NC369047  29.301  12.263   5.205
 5294POPC   PO469048  28.737  11.980   5.165
 5294POPC   GL169049  29.098  11.999   5.576
 5294POPC   GL269050  29.180  12.323   5.689
 5294POPC   C1A69051  29.102  11.970   6.086
 5294POPC   D2A69052  29.139  11.904   6.542
 5294POPC   C3A69053  28.867  12.045   6.871
 5294POPC   C4A69054  29.224  11.947   7.146
 5294POPC   C1B69055  29.262  12.449   6.078
 5294POPC   C2B69056  29.008  12.383   6.442
 5294POPC   C3B69057  29.202  12.403   6.839
 5294POPC   C4B69058  29.519  12.572   7.049
 5295POPC   NC369059  30.010  39.566   5.330
 5295POPC   PO469060  30.216  38.909   5.170
 5295POPC   GL169061  30.018  39.149   5.641
 5295POPC   GL269062  29.832  39.482   5.795
 5295POPC   C1A69063  29.898  39.086   6.092
 5295POPC   D2A69064  30.111  39.148   6.492
 5295POPC   C3A69065  29.968  39.039   6.896
 5295POPC   C4A69066  29.998  39.236   7.300
 5295POPC   C1B69067  29.509  39.446   6.118
 5295POPC   C2B69068  29.573  39.277   6.556
 5295POPC   C3B69069  29.648  39.419   6.984
 5295POPC   C4B69070  29.646  39.682   7.314
 5296POPC   NC369071   2.360  40.845   5.455
 5296POPC   PO469072   3.073  40.691   5.375
 5296POPC   GL169073   2.777  40.723   5.750
 5296POPC   GL269074   2.431  40.570   5.883
 5296POPC   C1A69075   2.720  40.926   6.155
 5296POPC   D2A69076   2.489  40.971   6.508
 5296POPC   C3A69077   2.488  40.660   6.858
 5296POPC   C4A69078   2.694  40.679   7.225
 5296POPC   C1B69079   2.753  40.425   6.173
 5296POPC   C2B69080   2.891  40.599   6.553
 5296POPC   C3B69081   2.954  40.352   6.895
 5296POPC   C4B69082   2.718  40.081   7.115
 5297POPC   NC369083   6.088  24.274   5.434
 5297POPC   PO469084   5.577  24.656   5.418
 5297POPC   GL169085   5.753  24.506   5.778
 5297POPC   GL269086   6.057  24.663   5.843
 5297POPC   C1A69087   5.826  24.386   6.206
 5297POPC   D2A69088   5.678  24.554   6.610
 5297POPC   C3A69089   5.885  24.463   7.003
 5297POPC   C4A69090   5.749  24.237   7.384
 5297POPC   C1B69091   5.795  24.903   6.152
 5297POPC   C2B69092   5.764  25.079   6.596
 5297POPC   C3B69093   6.053  24.945   6.924
 5297POPC   C4B69094   6.126  24.817   7.369
 5298POPC   NC369095  31.546  37.111   5.330
 5298POPC   PO469096  31.014  36.735   5.405
 5298POPC   GL169097  31.345  36.817   5.755
 5298POPC   GL269098  31.681  37.025   5.803
 5298POPC   C1A69099  31.487  36.769   6.226
 5298POPC   D2A69100  31.308  36.702   6.658
 5298POPC   C3A69101  31.562  36.651   7.057
 5298POPC   C4A69102  31.911  36.627   7.368
 5298POPC   C1B69103  31.357  37.246   6.052
 5298POPC   C2B69104  31.399  37.237   6.503
 5298POPC   C3B69105  31.353  37.124   6.938
 5298POPC   C4B69106  31.649  37.105   7.277
 5299POPC   NC369107   1.811   7.116   5.460
 5299POPC   PO469108   2.020   7.736   5.351
 5299POPC   GL169109   1.879   7.581   5.761
 5299POPC   GL269110   2.196   7.736   5.857
 5299POPC   C1A69111   1.886   7.380   6.206
 5299POPC   D2A69112   1.799   7.127   6.625
 5299POPC   C3A69113   1.852   7.292   7.072
 5299POPC   C4A69114   1.709   7.683   7.279
 5299POPC   C1B69115   2.334   7.648   6.269
 5299POPC   C2B69116   2.155   7.560   6.679
 5299POPC   C3B69117   2.265   7.647   7.098
 5299POPC   C4B69118   2.242   7.948   7.410
 5300POPC   NC369119   6.038  35.670   5.422
 5300POPC   PO469120   6.030  36.294   5.337
 5300POPC   GL169121   6.247  36.156   5.746
 5300POPC   GL269122   5.964  35.946   5.855
 5300POPC   C1A69123   6.208  36.177   6.249
 5300POPC   D2A69124   5.964  36.148   6.709
 5300POPC   C3A69125   6.128  36.234   7.178
 5300POPC   C4A69126   5.882  36.401   7.599
 5300POPC   C1B69127   5.747  35.805   6.235
 5300POPC   C2B69128   5.866  35.640   6.639
 5300POPC   C3B69129   5.670  35.762   6.989
 5300POPC   C4B69130   5.737  35.975   7.341
 5301POPC   NC369131   7.764  24.626   5.249
 5301POPC   PO469132   7.175  24.271   5.424
 5301POPC   GL169133   7.331  24.552   5.720
 5301POPC   GL269134   7.653  24.451   5.737
 5301POPC   C1A69135   7.320  24.377   6.139
 5301POPC   D2A69136   7.084  24.244   6.514
 5301POPC   C3A69137   7.244  24.353   6.913
 5301POPC   C4A69138   7.254  24.759   7.126
 5301POPC   C1B69139   7.791  24.187   6.102
 5301POPC   C2B69140   7.573  24.073   6.482
 5301POPC   C3B69141   7.433  23.841   6.831
 5301POPC   C4B69142   7.219  23.932   7.214
 5302POPC   NC369143  32.926  37.938   5.492
 5302POPC   PO469144  33.394  37.492   5.397
 5302POPC   GL169145  33.068  37.540   5.795
 5302POPC   GL269146  32.914  37.869   5.981
 5302POPC   C1A69147  32.801  37.437   6.172
 5302POPC   D2A69148  32.985  37.590   6.524
 5302POPC   C3A69149  32.825  37.491   6.920
 5302POPC   C4A69150  32.948  37.711   7.266
 5302POPC   C1B69151  32.817  38.061   6.361
 5302POPC   C2B69152  32.960  38.026   6.778
 5302POPC   C3B69153  33.325  37.797   6.884
 5302POPC   C4B69154  33.435  37.812   7.290
 5303POPC   NC369155  31.924  33.998   5.519
 5303POPC   PO469156  32.600  33.929   5.571
 5303POPC   GL169157  32.383  33.723   5.861
 5303POPC   GL269158  32.092  33.544   5.751
 5303POPC   C1A69159  32.395  33.633   6.273
 5303POPC   D2A69160  32.152  33.735   6.621
 5303POPC   C3A69161  32.313  33.549   6.982
 5303POPC   C4A69162  32.317  33.753   7.367
 5303POPC   C1B69163  31.890  33.671   6.153
 5303POPC   C2B69164  31.637  33.657   6.546
 5303POPC   C3B69165  31.779  33.687   6.990
 5303POPC   C4B69166  31.932  33.431   7.329
 5304POPC   NC369167  39.329  41.595   5.249
 5304POPC   PO469168  38.774  41.256   5.286
 5304POPC   GL169169  38.950  41.446   5.657
 5304POPC   GL269170  39.254  41.473   5.768
 5304POPC   C1A69171  38.912  41.472   6.123
 5304POPC   D2A69172  38.997  41.709   6.510
 5304POPC   C3A69173  39.065  41.512   6.903
 5304POPC   C4A69174  38.842  41.297   7.242
 5304POPC   C1B69175  39.416  41.525   6.186
 5304POPC   C2B69176  39.518  41.383   6.607
 5304POPC   C3B69177  39.578  41.576   7.000
 5304POPC   C4B69178  39.321  41.618   7.341
 5305POPC   NC369179  27.906  41.138   5.384
 5305POPC   PO469180  28.564  41.110   5.353
 5305POPC   GL169181  28.406  40.834   5.710
 5305POPC   GL269182  28.170  40.521   5.706
 5305POPC   C1A69183  28.489  40.813   6.151
 5305POPC   D2A69184  28.653  40.964   6.515
 5305POPC   C3A69185  28.589  40.841   6.927
 5305POPC   C4A69186  28.466  41.127   7.249
 5305POPC   C1B69187  28.064  40.537   6.161
 5305POPC   C2B69188  28.094  40.830   6.529
 5305POPC   C3B69189  28.063  40.898   6.971
 5305POPC   C4B69190  28.269  40.644   7.289
 5306POPC   NC369191  12.299   6.246   5.521
 5306POPC   PO469192  11.967   5.725   5.253
 5306POPC   GL169193  11.914   5.788   5.717
 5306POPC   GL269194  11.940   6.131   5.871
 5306POPC   C1A69195  12.026   5.579   6.142
 5306POPC   D2A69196  11.899   5.644   6.598
 5306POPC   C3A69197  12.082   5.642   7.038
 5306POPC   C4A69198  11.896   5.642   7.469
 5306POPC   C1B69199  12.092   6.063   6.305
 5306POPC   C2B69200  12.253   6.011   6.726
 5306POPC   C3B69201  12.137   6.163   7.124
 5306POPC   C4B69202  11.854   6.183   7.482
 5307POPC   NC369203  20.346  42.178   5.573
 5307POPC   PO469204  19.651  42.099   5.527
 5307POPC   GL169205  19.696  42.399   5.864
 5307POPC   GL269206  20.054  42.513   5.847
 5307POPC   C1A69207  19.551  42.385   6.299
 5307POPC   D2A69208  19.753  42.152   6.621
 5307POPC   C3A69209  19.532  42.165   6.981
 5307POPC   C4A69210  19.700  42.099   7.370
 5307POPC   C1B69211  20.077  42.391   6.250
 5307POPC   C2B69212  20.134  42.532   6.651
 5307POPC   C3B69213  19.971  42.434   7.039
 5307POPC   C4B69214  19.585  42.604   7.200
 5308POPC   NC369215  31.765  13.268   5.132
 5308POPC   PO469216  31.278  13.640   5.358
 5308POPC   GL169217  31.276  13.650   5.800
 5308POPC   GL269218  31.333  13.319   5.815
 5308POPC   C1A69219  31.524  13.640   6.186
 5308POPC   D2A69220  31.797  13.685   6.555
 5308POPC   C3A69221  31.588  13.600   6.933
 5308POPC   C4A69222  31.508  13.820   7.300
 5308POPC   C1B69223  31.608  13.127   6.135
 5308POPC   C2B69224  31.496  13.265   6.538
 5308POPC   C3B69225  31.186  13.251   6.862
 5308POPC   C4B69226  31.198  13.436   7.232
 5309POPC   NC369227  41.682   0.661   5.061
 5309POPC   PO469228  41.328   0.227   5.425
 5309POPC   GL169229  41.582   0.271   5.792
 5309POPC   GL269230  41.715  44.985   5.829
 5309POPC   C1A69231  41.775   0.483   6.155
 5309POPC   D2A69232  41.892   0.399   6.595
 5309POPC   C3A69233  41.646   0.481   6.976
 5309POPC   C4A69234  41.480   0.881   7.149
 5309POPC   C1B69235  41.484   0.064   6.247
 5309POPC   C2B69236  41.456   0.069   6.680
 5309POPC   C3B69237  41.363   0.029   7.099
 5309POPC   C4B69238  41.509   0.282   7.438
 5310POPC   NC369239   3.537  14.984   5.348
 5310POPC   PO469240   3.299  15.500   5.695
 5310POPC   GL169241   3.385  15.042   5.860
 5310POPC   GL269242   3.753  14.894   5.870
 5310POPC   C1A69243   3.476  14.918   6.298
 5310POPC   D2A69244   3.742  14.904   6.665
 5310POPC   C3A69245   3.515  15.022   7.047
 5310POPC   C4A69246   3.278  14.788   7.380
 5310POPC   C1B69247   3.969  15.143   6.256
 5310POPC   C2B69248   3.906  15.414   6.622
 5310POPC   C3B69249   4.001  15.215   7.012
 5310POPC   C4B69250   3.819  15.215   7.421
 5311POPC   NC369251  32.684  28.358   5.317
 5311POPC   PO469252  33.350  28.328   5.396
 5311POPC   GL169253  33.177  28.347   5.792
 5311POPC   GL269254  32.885  28.490   5.753
 5311POPC   C1A69255  33.172  28.658   6.117
 5311POPC   D2A69256  33.014  28.613   6.509
 5311POPC   C3A69257  33.158  28.337   6.814
 5311POPC   C4A69258  33.194  28.626   7.181
 5311POPC   C1B69259  32.646  28.614   6.120
 5311POPC   C2B69260  32.551  28.379   6.487
 5311POPC   C3B69261  32.690  28.428   6.927
 5311POPC   C4B69262  32.495  28.168   7.215
 5312POPC   NC369263  10.729   3.813   5.320
 5312POPC   PO469264  10.411   3.167   5.423
 5312POPC   GL169265  10.595   3.430   5.776
 5312POPC   GL269266  10.494   3.720   5.786
 5312POPC   C1A69267  10.580   3.547   6.263
 5312POPC   D2A69268  10.386   3.640   6.686
 5312POPC   C3A69269  10.441   3.437   7.078
 5312POPC   C4A69270  10.721   3.547   7.386
 5312POPC   C1B69271  10.476   4.031   6.159
 5312POPC   C2B69272  10.692   4.033   6.570
 5312POPC   C3B69273  10.748   3.890   7.003
 5312POPC   C4B69274  10.849   4.074   7.433
 5313POPC   NC369275   4.805  25.547   5.381
 5313POPC   PO469276   5.462  25.247   5.485
 5313POPC   GL169277   5.174  25.436   5.744
 5313POPC   GL269278   4.927  25.186   5.790
 5313POPC   C1A69279   5.160  25.399   6.200
 5313POPC   D2A69280   5.206  25.153   6.582
 5313POPC   C3A69281   5.148  25.458   6.928
 5313POPC   C4A69282   5.315  25.490   7.327
 5313POPC   C1B69283   4.708  25.078   6.189
 5313POPC   C2B69284   4.718  24.932   6.648
 5313POPC   C3B69285   4.970  24.986   7.024
 5313POPC   C4B69286   4.840  25.220   7.371
 5314POPC   NC369287   6.994  13.285   5.466
 5314POPC   PO469288   6.597  12.667   5.446
 5314POPC   GL169289   6.674  12.819   5.856
 5314POPC   GL269290   7.002  12.858   5.756
 5314POPC   C1A69291   6.502  12.893   6.285
 5314POPC   D2A69292   6.168  12.803   6.624
 5314POPC   C3A69293   6.402  12.908   7.005
 5314POPC   C4A69294   6.745  13.028   7.296
 5314POPC   C1B69295   7.016  13.077   6.164
 5314POPC   C2B69296   6.982  12.813   6.520
 5314POPC   C3B69297   6.892  12.695   6.922
 5314POPC   C4B69298   7.052  12.512   7.317
 5315POPC   NC369299  14.561  19.461   5.439
 5315POPC   PO469300  14.211  20.048   5.632
 5315POPC   GL169301  14.427  19.754   5.828
 5315POPC   GL269302  14.147  19.518   5.772
 5315POPC   C1A69303  14.683  19.807   6.177
 5315POPC   D2A69304  14.856  19.900   6.585
 5315POPC   C3A69305  14.492  19.965   6.861
 5315POPC   C4A69306  14.401  20.010   7.320
 5315POPC   C1B69307  14.105  19.718   6.217
 5315POPC   C2B69308  14.014  19.825   6.647
 5315POPC   C3B69309  14.106  19.688   7.071
 5315POPC   C4B69310  14.103  19.693   7.544
 5316POPC   NC369311  11.639  21.876   5.616
 5316POPC   PO469312  11.251  21.268   5.472
 5316POPC   GL169313  11.373  21.247   5.894
 5316POPC   GL269314  11.682  21.445   5.909
 5316POPC   C1A69315  11.497  21.245   6.333
 5316POPC   D2A69316  11.587  21.502   6.696
 5316POPC   C3A69317  11.507  21.265   7.064
 5316POPC   C4A69318  11.138  21.183   7.239
 5316POPC   C1B69319  11.412  21.723   6.207
 5316POPC   C2B69320  11.215  21.885   6.600
 5316POPC   C3B69321  11.202  21.718   7.012
 5316POPC   C4B69322  11.245  21.748   7.465
 5317POPC   NC369323  36.869  28.743   5.463
 5317POPC   PO469324  36.772  28.072   5.412
 5317POPC   GL169325  36.918  28.301   5.762
 5317POPC   GL269326  36.580  28.284   5.866
 5317POPC   C1A69327  37.055  28.597   6.102
 5317POPC   D2A69328  37.191  28.513   6.501
 5317POPC   C3A69329  37.019  28.711   6.873
 5317POPC   C4A69330  37.021  28.640   7.294
 5317POPC   C1B69331  36.718  28.249   6.263
 5317POPC   C2B69332  36.728  28.365   6.642
 5317POPC   C3B69333  36.883  28.229   7.005
 5317POPC   C4B69334  36.690  28.260   7.403
 5318POPC   NC369335  29.381  43.217   5.494
 5318POPC   PO469336  29.095  42.632   5.544
 5318POPC   GL169337  29.101  42.908   5.929
 5318POPC   GL269338  29.039  43.282   5.887
 5318POPC   C1A69339  29.009  43.125   6.357
 5318POPC   D2A69340  28.803  43.287   6.678
 5318POPC   C3A69341  28.765  42.909   6.840
 5318POPC   C4A69342  28.968  42.871   7.211
 5318POPC   C1B69343  29.446  43.229   6.137
 5318POPC   C2B69344  29.500  43.195   6.586
 5318POPC   C3B69345  29.244  43.270   6.966
 5318POPC   C4B69346  29.455  43.386   7.336
 5319POPC   NC369347  36.786  13.574   5.303
 5319POPC   PO469348  37.373  13.536   5.655
 5319POPC   GL169349  37.001  13.744   5.850
 5319POPC   GL269350  37.152  13.980   6.094
 5319POPC   C1A69351  36.674  13.827   6.199
 5319POPC   D2A69352  36.799  13.711   6.622
 5319POPC   C3A69353  36.947  13.774   7.035
 5319POPC   C4A69354  36.643  13.635   7.356
 5319POPC   C1B69355  37.185  13.535   6.330
 5319POPC   C2B69356  37.241  13.255   6.723
 5319POPC   C3B69357  37.267  13.250   7.163
 5319POPC   C4B69358  37.145  13.556   7.452
 5320POPC   NC369359  22.057   7.142   5.253
 5320POPC   PO469360  21.785   6.560   5.259
 5320POPC   GL169361  22.117   6.616   5.627
 5320POPC   GL269362  22.474   6.459   5.682
 5320POPC   C1A69363  22.064   6.581   6.099
 5320POPC   D2A69364  21.894   6.784   6.493
 5320POPC   C3A69365  21.909   6.583   6.925
 5320POPC   C4A69366  21.882   6.259   7.254
 5320POPC   C1B69367  22.572   6.752   6.027
 5320POPC   C2B69368  22.531   6.817   6.464
 5320POPC   C3B69369  22.613   6.629   6.894
 5320POPC   C4B69370  22.318   6.612   7.264
 5321POPC   NC369371  30.210  15.027   5.270
 5321POPC   PO469372  29.931  15.603   5.437
 5321POPC   GL169373  29.994  15.385   5.835
 5321POPC   GL269374  30.115  15.029   5.822
 5321POPC   C1A69375  29.812  15.213   6.222
 5321POPC   D2A69376  29.921  14.943   6.547
 5321POPC   C3A69377  29.673  15.066   6.885
 5321POPC   C4A69378  29.820  14.929   7.256
 5321POPC   C1B69379  30.320  15.213   6.216
 5321POPC   C2B69380  30.168  15.418   6.621
 5321POPC   C3B69381  30.111  15.354   7.089
 5321POPC   C4B69382  30.089  15.455   7.556
 5322POPC   NC369383  41.145  12.862   5.364
 5322POPC   PO469384  40.498  12.705   5.455
 5322POPC   GL169385  40.735  12.803   5.814
 5322POPC   GL269386  41.004  13.077   5.804
 5322POPC   C1A69387  40.549  12.827   6.240
 5322POPC   D2A69388  40.397  12.882   6.656
 5322POPC   C3A69389  40.594  12.823   7.037
 5322POPC   C4A69390  40.403  12.457   7.140
 5322POPC   C1B69391  41.063  12.871   6.204
 5322POPC   C2B69392  40.924  12.911   6.625
 5322POPC   C3B69393  41.118  12.883   7.023
 5322POPC   C4B69394  41.078  12.934   7.446
 5323POPC   NC369395  27.593  36.508   5.503
 5323POPC   PO469396  27.447  37.194   5.481
 5323POPC   GL169397  27.746  36.943   5.733
 5323POPC   GL269398  27.547  36.736   5.954
 5323POPC   C1A69399  27.965  36.905   6.125
 5323POPC   D2A69400  27.656  36.865   6.482
 5323POPC   C3A69401  27.793  36.997   6.885
 5323POPC   C4A69402  27.614  36.981   7.288
 5323POPC   C1B69403  27.288  36.491   6.208
 5323POPC   C2B69404  27.149  36.643   6.579
 5323POPC   C3B69405  27.330  36.703   6.972
 5323POPC   C4B69406  27.265  36.610   7.421
 5324POPC   NC369407  28.899  37.308   5.590
 5324POPC   PO469408  28.867  37.988   5.478
 5324POPC   GL169409  29.108  37.788   5.839
 5324POPC   GL269410  29.159  37.481   5.975
 5324POPC   C1A69411  29.119  37.943   6.237
 5324POPC   D2A69412  28.829  37.829   6.532
 5324POPC   C3A69413  29.116  37.784   6.815
 5324POPC   C4A69414  29.303  37.849   7.147
 5324POPC   C1B69415  29.145  37.456   6.390
 5324POPC   C2B69416  29.002  37.300   6.748
 5324POPC   C3B69417  29.188  37.352   7.114
 5324POPC   C4B69418  29.261  37.216   7.495
 5325POPC   NC369419  38.131  33.033   5.433
 5325POPC   PO469420  38.237  33.656   5.624
 5325POPC   GL169421  38.260  33.209   5.902
 5325POPC   GL269422  38.419  32.851   5.888
 5325POPC   C1A69423  38.078  32.909   6.250
 5325POPC   D2A69424  38.224  32.818   6.713
 5325POPC   C3A69425  38.179  33.145   7.065
 5325POPC   C4A69426  37.939  33.469   7.340
 5325POPC   C1B69427  38.593  32.858   6.341
 5325POPC   C2B69428  38.660  33.025   6.795
 5325POPC   C3B69429  38.536  32.741   7.163
 5325POPC   C4B69430  38.666  32.641   7.616
 5326POPC   NC369431  12.101  15.071   5.108
 5326POPC   PO469432  11.918  15.473   5.659
 5326POPC   GL169433  12.196  15.246   5.946
 5326POPC   GL269434  12.171  14.891   5.978
 5326POPC   C1A69435  12.381  15.226   6.317
 5326POPC   D2A69436  12.097  15.022   6.574
 5326POPC   C3A69437  12.252  14.902   6.936
 5326POPC   C4A69438  12.337  15.183   7.227
 5326POPC   C1B69439  11.731  14.926   6.183
 5326POPC   C2B69440  11.560  15.015   6.597
 5326POPC   C3B69441  11.789  15.159   6.968
 5326POPC   C4B69442  11.876  14.856   7.280
 5327POPC   NC369443  10.551  28.741   5.375
 5327POPC   PO469444  10.474  29.405   5.352
 5327POPC   GL169445  10.630  29.130   5.714
 5327POPC   GL269446  10.315  29.023   5.811
 5327POPC   C1A69447  10.681  28.890   6.159
 5327POPC   D2A69448  10.562  28.874   6.648
 5327POPC   C3A69449  10.779  29.088   7.016
 5327POPC   C4A69450  10.965  28.784   7.292
 5327POPC   C1B69451  10.203  28.979   6.263
 5327POPC   C2B69452  10.100  29.120   6.671
 5327POPC   C3B69453  10.280  29.201   7.076
 5327POPC   C4B69454  10.463  29.459   7.420
 5328POPC   NC369455  23.754  42.674   5.466
 5328POPC   PO469456  23.454  43.334   5.489
 5328POPC   GL169457  23.542  43.153   5.901
 5328POPC   GL269458  23.812  42.927   5.891
 5328POPC   C1A69459  23.764  43.201   6.320
 5328POPC   D2A69460  23.945  43.212   6.698
 5328POPC   C3A69461  23.717  43.179   7.064
 5328POPC   C4A69462  23.830  43.456   7.413
 5328POPC   C1B69463  23.563  42.743   6.226
 5328POPC   C2B69464  23.561  42.849   6.668
 5328POPC   C3B69465  23.444  42.630   7.026
 5328POPC   C4B69466  23.556  42.640   7.451
 5329POPC   NC369467  32.551  25.068   5.492
 5329POPC   PO469468  33.242  25.125   5.162
 5329POPC   GL169469  33.034  25.243   5.593
 5329POPC   GL269470  32.956  24.953   5.790
 5329POPC   C1A69471  33.171  25.310   6.073
 5329POPC   D2A69472  33.240  25.045   6.476
 5329POPC   C3A69473  33.286  25.232   6.887
 5329POPC   C4A69474  32.986  25.215   7.232
 5329POPC   C1B69475  32.771  25.026   6.226
 5329POPC   C2B69476  32.728  25.072   6.688
 5329POPC   C3B69477  32.564  24.916   7.086
 5329POPC   C4B69478  32.594  25.027   7.544
 5330POPC   NC369479  36.228  12.223   5.245
 5330POPC   PO469480  35.698  12.098   5.703
 5330POPC   GL169481  35.955  12.470   5.843
 5330POPC   GL269482  36.292  12.364   5.757
 5330POPC   C1A69483  36.116  12.566   6.288
 5330POPC   D2A69484  36.307  12.347   6.671
 5330POPC   C3A69485  36.126  12.254   7.096
 5330POPC   C4A69486  35.787  12.239   7.406
 5330POPC   C1B69487  36.484  12.183   6.141
 5330POPC   C2B69488  36.653  11.997   6.533
 5330POPC   C3B69489  36.478  11.892   6.942
 5330POPC   C4B69490  36.392  11.864   7.385
 5331POPC   NC369491  27.490  16.267   5.394
 5331POPC   PO469492  27.866  16.745   5.503
 5331POPC   GL169493  27.544  16.598   5.842
 5331POPC   GL269494  27.374  16.262   5.912
 5331POPC   C1A69495  27.561  16.746   6.292
 5331POPC   D2A69496  27.798  16.928   6.625
 5331POPC   C3A69497  27.968  16.671   6.906
 5331POPC   C4A69498  27.652  16.588   7.221
 5331POPC   C1B69499  27.294  16.316   6.357
 5331POPC   C2B69500  27.255  16.633   6.708
 5331POPC   C3B69501  27.162  16.668   7.172
 5331POPC   C4B69502  27.306  16.552   7.604
 5332POPC   NC369503  28.893  26.757   5.653
 5332POPC   PO469504  29.441  27.078   5.454
 5332POPC   GL169505  29.343  26.820   5.859
 5332POPC   GL269506  29.325  26.458   5.739
 5332POPC   C1A69507  29.075  26.807   6.278
 5332POPC   D2A69508  28.817  26.869   6.659
 5332POPC   C3A69509  29.000  26.953   7.021
 5332POPC   C4A69510  29.428  26.867   7.188
 5332POPC   C1B69511  29.367  26.382   6.173
 5332POPC   C2B69512  29.404  26.521   6.570
 5332POPC   C3B69513  29.583  26.395   6.940
 5332POPC   C4B69514  29.481  26.367   7.347
 5333POPC   NC369515  17.385  32.000   5.453
 5333POPC   PO469516  17.414  32.604   5.400
 5333POPC   GL169517  17.599  32.351   5.767
 5333POPC   GL269518  17.886  32.519   5.887
 5333POPC   C1A69519  17.608  32.037   6.137
 5333POPC   D2A69520  17.430  32.133   6.559
 5333POPC   C3A69521  17.629  32.026   6.940
 5333POPC   C4A69522  17.523  32.317   7.237
 5333POPC   C1B69523  17.740  32.507   6.290
 5333POPC   C2B69524  17.913  32.311   6.629
 5333POPC   C3B69525  17.957  32.490   7.043
 5333POPC   C4B69526  17.946  32.375   7.504
 5334POPC   NC369527  16.080  23.092   5.262
 5334POPC   PO469528  15.611  23.092   5.726
 5334POPC   GL169529  15.958  22.916   5.882
 5334POPC   GL269530  16.288  22.923   5.749
 5334POPC   C1A69531  15.992  22.854   6.309
 5334POPC   D2A69532  16.110  23.094   6.678
 5334POPC   C3A69533  16.008  22.986   7.083
 5334POPC   C4A69534  15.878  22.861   7.480
 5334POPC   C1B69535  16.412  22.655   6.084
 5334POPC   C2B69536  16.399  22.646   6.530
 5334POPC   C3B69537  16.422  22.734   6.961
 5334POPC   C4B69538  16.148  22.495   7.260
 5335POPC   NC369539  44.565  12.722   5.414
 5335POPC   PO469540   0.298  12.897   5.436
 5335POPC   GL169541  44.983  12.806   5.715
 5335POPC   GL269542   0.099  13.061   5.931
 5335POPC   C1A69543  44.711  12.734   6.092
 5335POPC   D2A69544  44.425  12.671   6.452
 5335POPC   C3A69545  44.626  12.568   6.869
 5335POPC   C4A69546  44.713  12.789   7.244
 5335POPC   C1B69547   0.049  13.010   6.382
 5335POPC   C2B69548   0.013  12.988   6.846
 5335POPC   C3B69549   0.182  13.057   7.277
 5335POPC   C4B69550  44.976  13.052   7.711
 5336POPC   NC369551  32.231  25.637   5.432
 5336POPC   PO469552  32.145  25.005   5.244
 5336POPC   GL169553  32.149  25.225   5.754
 5336POPC   GL269554  32.151  25.571   5.931
 5336POPC   C1A69555  32.253  25.121   6.230
 5336POPC   D2A69556  32.197  25.112   6.724
 5336POPC   C3A69557  31.991  25.486   6.943
 5336POPC   C4A69558  31.926  25.574   7.437
 5336POPC   C1B69559  32.422  25.628   6.320
 5336POPC   C2B69560  32.535  25.743   6.752
 5336POPC   C3B69561  32.502  25.437   7.077
 5336POPC   C4B69562  32.182  25.171   7.287
 5337POPC   NC369563  22.595  43.498   5.541
 5337POPC   PO469564  22.710  42.825   5.277
 5337POPC   GL169565  22.713  43.025   5.696
 5337POPC   GL269566  23.014  43.285   5.792
 5337POPC   C1A69567  22.841  42.902   6.096
 5337POPC   D2A69568  23.139  43.004   6.412
 5337POPC   C3A69569  23.030  42.931   6.845
 5337POPC   C4A69570  23.140  42.961   7.269
 5337POPC   C1B69571  22.891  43.417   6.231
 5337POPC   C2B69572  22.800  43.436   6.684
 5337POPC   C3B69573  22.941  43.394   7.104
 5337POPC   C4B69574  22.959  43.357   7.563
 5338POPC   NC369575  26.451  25.778   5.601
 5338POPC   PO469576  26.917  26.191   5.205
 5338POPC   GL169577  26.878  26.114   5.680
 5338POPC   GL269578  27.184  25.899   5.789
 5338POPC   C1A69579  26.762  26.072   6.141
 5338POPC   D2A69580  26.512  26.060   6.546
 5338POPC   C3A69581  26.758  26.049   6.955
 5338POPC   C4A69582  27.115  26.130   7.243
 5338POPC   C1B69583  27.114  25.684   6.176
 5338POPC   C2B69584  26.826  25.672   6.509
 5338POPC   C3B69585  26.616  25.542   6.860
 5338POPC   C4B69586  26.914  25.590   7.160
 5339POPC   NC369587   0.882  14.417   5.407
 5339POPC   PO469588   1.511  14.662   5.306
 5339POPC   GL169589   1.411  14.557   5.764
 5339POPC   GL269590   1.088  14.381   5.947
 5339POPC   C1A69591   1.564  14.384   6.149
 5339POPC   D2A69592   1.603  14.227   6.563
 5339POPC   C3A69593   1.281  14.440   6.769
 5339POPC   C4A69594   1.199  14.499   7.195
 5339POPC   C1B69595   1.142  14.074   6.329
 5339POPC   C2B69596   0.953  14.025   6.791
 5339POPC   C3B69597   0.985  14.041   7.283
 5339POPC   C4B69598   0.740  14.068   7.732
 5340POPC   NC369599  38.258  11.550   5.510
 5340POPC   PO469600  38.806  11.108   5.378
 5340POPC   GL169601  38.734  11.306   5.750
 5340POPC   GL269602  38.657  11.032   5.948
 5340POPC   C1A69603  38.840  11.514   6.154
 5340POPC   D2A69604  38.817  11.647   6.590
 5340POPC   C3A69605  38.686  11.351   6.869
 5340POPC   C4A69606  38.597  11.170   7.232
 5340POPC   C1B69607  38.534  11.164   6.359
 5340POPC   C2B69608  38.316  11.011   6.696
 5340POPC   C3B69609  38.092  11.133   7.045
 5340POPC   C4B69610  38.180  10.976   7.418
 5341POPC   NC369611   5.315  43.548   5.564
 5341POPC   PO469612   5.280  42.802   5.586
 5341POPC   GL169613   5.212  43.104   5.904
 5341POPC   GL269614   4.900  43.247   5.809
 5341POPC   C1A69615   5.034  43.168   6.331
 5341POPC   D2A69616   4.974  43.022   6.766
 5341POPC   C3A69617   5.190  43.236   7.117
 5341POPC   C4A69618   4.863  43.073   7.348
 5341POPC   C1B69619   4.830  43.579   6.118
 5341POPC   C2B69620   4.740  43.724   6.509
 5341POPC   C3B69621   4.851  43.533   6.866
 5341POPC   C4B69622   4.901  43.643   7.262
 5342POPC   NC369623  37.176  41.759   5.177
 5342POPC   PO469624  36.701  41.325   5.421
 5342POPC   GL169625  36.978  41.442   5.725
 5342POPC   GL269626  36.968  41.805   5.636
 5342POPC   C1A69627  36.920  41.485   6.179
 5342POPC   D2A69628  37.056  41.456   6.616
 5342POPC   C3A69629  36.804  41.410   6.979
 5342POPC   C4A69630  37.031  41.351   7.309
 5342POPC   C1B69631  36.851  41.976   6.025
 5342POPC   C2B69632  37.024  41.957   6.432
 5342POPC   C3B69633  37.134  41.893   6.856
 5342POPC   C4B69634  37.010  41.848   7.241
 5343POPC   NC369635  35.472   2.512   5.323
 5343POPC   PO469636  35.324   1.786   5.373
 5343POPC   GL169637  35.294   1.743   5.814
 5343POPC   GL269638  35.161   2.080   5.794
 5343POPC   C1A69639  35.422   1.893   6.270
 5343POPC   D2A69640  35.304   2.038   6.718
 5343POPC   C3A69641  35.586   2.062   7.103
 5343POPC   C4A69642  35.762   1.688   7.298
 5343POPC   C1B69643  34.933   1.959   6.116
 5343POPC   C2B69644  34.827   1.936   6.505
 5343POPC   C3B69645  34.832   1.818   6.896
 5343POPC   C4B69646  35.095   1.972   7.193
 5344POPC   NC369647   5.015  17.131   5.167
 5344POPC   PO469648   5.232  16.500   5.494
 5344POPC   GL169649   5.096  16.676   5.894
 5344POPC   GL269650   4.980  16.370   6.060
 5344POPC   C1A69651   4.878  17.003   6.183
 5344POPC   D2A69652   4.727  17.147   6.620
 5344POPC   C3A69653   4.908  16.816   6.922
 5344POPC   C4A69654   5.038  16.605   7.306
 5344POPC   C1B69655   5.354  16.402   6.318
 5344POPC   C2B69656   5.347  16.503   6.765
 5344POPC   C3B69657   5.489  16.424   7.169
 5344POPC   C4B69658   5.375  16.312   7.600
 5345POPC   NC369659  11.981   5.303   5.420
 5345POPC   PO469660  11.951   4.670   5.425
 5345POPC   GL169661  12.011   4.901   5.813
 5345POPC   GL269662  11.667   4.904   5.896
 5345POPC   C1A69663  12.107   5.069   6.253
 5345POPC   D2A69664  12.277   5.297   6.644
 5345POPC   C3A69665  12.141   5.131   7.055
 5345POPC   C4A69666  12.277   4.970   7.449
 5345POPC   C1B69667  11.723   4.736   6.321
 5345POPC   C2B69668  11.759   4.852   6.771
 5345POPC   C3B69669  11.789   4.753   7.208
 5345POPC   C4B69670  11.602   4.640   7.610
 5346POPC   NC369671  12.378  17.275   5.396
 5346POPC   PO469672  12.015  17.987   5.366
 5346POPC   GL169673  12.163  17.677   5.666
 5346POPC   GL269674  12.506  17.737   5.586
 5346POPC   C1A69675  12.095  17.432   6.085
 5346POPC   D2A69676  11.892  17.568   6.475
 5346POPC   C3A69677  12.105  17.488   6.892
 5346POPC   C4A69678  11.989  17.317   7.314
 5346POPC   C1B69679  12.533  17.671   6.056
 5346POPC   C2B69680  12.340  17.817   6.493
 5346POPC   C3B69681  12.259  17.971   6.936
 5346POPC   C4B69682  12.347  17.685   7.302
 5347POPC   NC369683  32.075   0.233   5.343
 5347POPC   PO469684  32.486   0.835   5.523
 5347POPC   GL169685  32.346   0.483   5.745
 5347POPC   GL269686  32.053   0.607   5.809
 5347POPC   C1A69687  32.287   0.272   6.151
 5347POPC   D2A69688  32.052   0.038   6.465
 5347POPC   C3A69689  32.186   0.102   6.879
 5347POPC   C4A69690  32.019   0.234   7.260
 5347POPC   C1B69691  31.925   0.651   6.193
 5347POPC   C2B69692  32.067   0.535   6.608
 5347POPC   C3B69693  31.918   0.678   7.015
 5347POPC   C4B69694  31.991   0.747   7.444
 5348POPC   NC369695  15.265  13.985   5.662
 5348POPC   PO469696  14.948  13.482   5.335
 5348POPC   GL169697  15.045  13.522   5.751
 5348POPC   GL269698  15.384  13.532   5.846
 5348POPC   C1A69699  14.923  13.538   6.201
 5348POPC   D2A69700  14.808  13.798   6.578
 5348POPC   C3A69701  14.990  13.671   6.988
 5348POPC   C4A69702  15.386  13.830   7.189
 5348POPC   C1B69703  15.444  13.363   6.221
 5348POPC   C2B69704  15.344  13.486   6.632
 5348POPC   C3B69705  15.393  13.335   7.040
 5348POPC   C4B69706  15.691  13.398   7.349
 5349POPC   NC369707   0.454  21.645   5.323
 5349POPC   PO469708   0.316  21.056   5.313
 5349POPC   GL169709   0.419  21.290   5.718
 5349POPC   GL269710   0.143  21.190   5.895
 5349POPC   C1A69711   0.520  21.538   6.132
 5349POPC   D2A69712   0.808  21.711   6.497
 5349POPC   C3A69713   0.659  21.675   6.947
 5349POPC   C4A69714   0.588  21.388   7.285
 5349POPC   C1B69715   0.164  21.233   6.333
 5349POPC   C2B69716   0.344  21.372   6.695
 5349POPC   C3B69717   0.128  21.483   7.075
 5349POPC   C4B69718  44.766  21.279   7.297
 5350POPC   NC369719  44.671  32.345   5.381
 5350POPC   PO469720  44.753  31.738   5.597
 5350POPC   GL169721  44.746  32.059   5.858
 5350POPC   GL269722  44.411  32.139   5.809
 5350POPC   C1A69723  44.703  32.067   6.296
 5350POPC   D2A69724  44.643  31.873   6.698
 5350POPC   C3A69725  44.678  32.175   7.013
 5350POPC   C4A69726  44.824  32.133   7.404
 5350POPC   C1B69727  44.293  32.358   6.178
 5350POPC   C2B69728  44.453  32.377   6.601
 5350POPC   C3B69729  44.231  32.438   6.967
 5350POPC   C4B69730  44.265  32.211   7.330
 5351POPC   NC369731  33.830  40.401   5.634
 5351POPC   PO469732  33.736  39.714   5.525
 5351POPC   GL169733  33.639  39.971   5.894
 5351POPC   GL269734  33.417  40.284   5.937
 5351POPC   C1A69735  33.914  40.092   6.234
 5351POPC   D2A69736  33.855  40.168   6.652
 5351POPC   C3A69737  33.882  39.812   6.897
 5351POPC   C4A69738  34.004  39.805   7.283
 5351POPC   C1B69739  33.394  40.072   6.350
 5351POPC   C2B69740  33.412  39.965   6.793
 5351POPC   C3B69741  33.545  40.072   7.219
 5351POPC   C4B69742  33.522  40.364   7.593
 5352POPC   NC369743  34.042  20.208   5.110
 5352POPC   PO469744  33.813  19.597   5.416
 5352POPC   GL169745  33.911  19.785   5.806
 5352POPC   GL269746  34.022  20.077   5.667
 5352POPC   C1A69747  33.754  19.813   6.227
 5352POPC   D2A69748  33.688  19.622   6.619
 5352POPC   C3A69749  33.828  19.910   6.918
 5352POPC   C4A69750  34.095  19.825   7.235
 5352POPC   C1B69751  34.103  20.173   6.134
 5352POPC   C2B69752  33.948  20.244   6.556
 5352POPC   C3B69753  34.152  20.292   7.007
 5352POPC   C4B69754  34.064  20.281   7.496
 5353POPC   NC369755   9.558  40.178   5.422
 5353POPC   PO469756   9.924  39.642   5.391
 5353POPC   GL169757   9.842  39.927   5.755
 5353POPC   GL269758  10.072  40.224   5.836
 5353POPC   C1A69759   9.633  40.095   6.140
 5353POPC   D2A69760   9.758  40.250   6.549
 5353POPC   C3A69761   9.692  39.991   6.906
 5353POPC   C4A69762   9.525  39.943   7.308
 5353POPC   C1B69763  10.125  39.916   6.162
 5353POPC   C2B69764   9.982  39.775   6.515
 5353POPC   C3B69765  10.179  39.804   6.887
 5353POPC   C4B69766  10.048  39.879   7.274
 5354POPC   NC369767   7.190  10.153   5.448
 5354POPC   PO469768   7.423   9.565   5.415
 5354POPC   GL169769   7.427   9.860   5.800
 5354POPC   GL269770   7.133  10.022   5.939
 5354POPC   C1A69771   7.552   9.910   6.250
 5354POPC   D2A69772   7.517   9.715   6.671
 5354POPC   C3A69773   7.524   9.845   7.124
 5354POPC   C4A69774   7.335   9.828   7.569
 5354POPC   C1B69775   7.080   9.988   6.403
 5354POPC   C2B69776   7.184  10.115   6.820
 5354POPC   C3B69777   6.895  10.004   7.200
 5354POPC   C4B69778   6.829   9.954   7.675
 5355POPC   NC369779  12.403  39.197   5.554
 5355POPC   PO469780  11.767  39.190   5.425
 5355POPC   GL169781  11.880  39.213   5.817
 5355POPC   GL269782  12.067  38.906   5.824
 5355POPC   C1A69783  11.670  39.264   6.216
 5355POPC   D2A69784  11.920  39.471   6.506
 5355POPC   C3A69785  12.136  39.295   6.850
 5355POPC   C4A69786  11.995  39.294   7.238
 5355POPC   C1B69787  12.120  39.029   6.258
 5355POPC   C2B69788  11.850  38.953   6.623
 5355POPC   C3B69789  11.695  38.915   7.059
 5355POPC   C4B69790  11.799  38.947   7.547
 5356POPC   NC369791  36.907  25.403   5.288
 5356POPC   PO469792  36.422  25.000   5.476
 5356POPC   GL169793  36.747  25.194   5.756
 5356POPC   GL269794  37.112  25.295   5.739
 5356POPC   C1A69795  36.703  25.244   6.200
 5356POPC   D2A69796  36.542  25.151   6.601
 5356POPC   C3A69797  36.749  25.274   6.985
 5356POPC   C4A69798  36.918  25.038   7.297
 5356POPC   C1B69799  37.188  25.389   6.177
 5356POPC   C2B69800  37.090  25.306   6.613
 5356POPC   C3B69801  37.274  25.345   7.059
 5356POPC   C4B69802  37.256  25.362   7.516
 5357POPC   NC369803  19.374  29.896   4.971
 5357POPC   PO469804  19.831  30.141   5.308
 5357POPC   GL169805  19.939  30.117   5.788
 5357POPC   GL269806  19.904  29.769   5.859
 5357POPC   C1A69807  19.794  30.104   6.251
 5357POPC   D2A69808  19.985  29.927   6.646
 5357POPC   C3A69809  19.877  29.998   7.082
 5357POPC   C4A69810  20.011  29.883   7.518
 5357POPC   C1B69811  19.945  29.573   6.278
 5357POPC   C2B69812  19.866  29.412   6.715
 5357POPC   C3B69813  19.759  29.497   7.152
 5357POPC   C4B69814  19.606  29.546   7.582
 5358POPC   NC369815  37.432  24.790   5.098
 5358POPC   PO469816  37.376  24.290   5.342
 5358POPC   GL169817  37.720  24.273   5.657
 5358POPC   GL269818  37.510  24.134   5.891
 5358POPC   C1A69819  37.906  24.419   6.061
 5358POPC   D2A69820  37.786  24.631   6.450
 5358POPC   C3A69821  37.833  24.418   6.836
 5358POPC   C4A69822  37.783  24.492   7.275
 5358POPC   C1B69823  37.405  24.394   6.213
 5358POPC   C2B69824  37.347  24.308   6.628
 5358POPC   C3B69825  37.416  24.203   7.037
 5358POPC   C4B69826  37.313  24.345   7.436
 5359POPC   NC369827  41.598   2.199   5.062
 5359POPC   PO469828  41.699   2.869   5.314
 5359POPC   GL169829  41.406   2.943   5.631
 5359POPC   GL269830  41.711   3.039   5.808
 5359POPC   C1A69831  41.284   2.843   6.047
 5359POPC   D2A69832  41.323   2.612   6.409
 5359POPC   C3A69833  41.426   2.823   6.775
 5359POPC   C4A69834  41.541   2.506   7.092
 5359POPC   C1B69835  41.746   3.295   6.177
 5359POPC   C2B69836  41.598   3.312   6.587
 5359POPC   C3B69837  41.707   3.265   7.000
 5359POPC   C4B69838  41.586   2.976   7.231
 5360POPC   NC369839  36.514  23.686   5.153
 5360POPC   PO469840  36.826  24.031   5.664
 5360POPC   GL169841  37.045  23.666   5.777
 5360POPC   GL269842  37.375  23.613   5.919
 5360POPC   C1A69843  36.938  23.495   6.181
 5360POPC   D2A69844  36.676  23.714   6.498
 5360POPC   C3A69845  36.769  23.510   6.896
 5360POPC   C4A69846  36.828  23.675   7.296
 5360POPC   C1B69847  37.280  23.880   6.267
 5360POPC   C2B69848  37.150  23.833   6.660
 5360POPC   C3B69849  37.252  23.693   7.015
 5360POPC   C4B69850  37.324  23.844   7.384
 5361POPC   NC369851   0.675  29.679   5.436
 5361POPC   PO469852   0.212  30.098   5.327
 5361POPC   GL169853   0.439  30.073   5.695
 5361POPC   GL269854   0.354  29.780   5.824
 5361POPC   C1A69855   0.312  30.167   6.136
 5361POPC   D2A69856   0.501  30.130   6.525
 5361POPC   C3A69857   0.298  30.083   6.897
 5361POPC   C4A69858   0.476  30.184   7.260
 5361POPC   C1B69859   0.464  29.663   6.230
 5361POPC   C2B69860   0.430  29.640   6.670
 5361POPC   C3B69861   0.684  29.767   7.034
 5361POPC   C4B69862   0.722  29.595   7.446
 5362POPC   NC369863  38.390   7.233   5.403
 5362POPC   PO469864  38.666   7.800   5.491
 5362POPC   GL169865  38.645   7.495   5.795
 5362POPC   GL269866  38.304   7.407   5.883
 5362POPC   C1A69867  38.742   7.430   6.232
 5362POPC   D2A69868  38.637   7.348   6.656
 5362POPC   C3A69869  38.502   7.649   6.960
 5362POPC   C4A69870  38.621   7.522   7.361
 5362POPC   C1B69871  38.336   7.112   6.244
 5362POPC   C2B69872  38.232   7.050   6.671
 5362POPC   C3B69873  38.322   7.174   7.099
 5362POPC   C4B69874  38.120   7.348   7.460
 5363POPC   NC369875  10.795  21.377   5.285
 5363POPC   PO469876  10.261  21.207   5.637
 5363POPC   GL169877  10.538  21.185   5.986
 5363POPC   GL269878  10.819  21.270   5.797
 5363POPC   C1A69879  10.497  21.375   6.388
 5363POPC   D2A69880  10.247  21.693   6.612
 5363POPC   C3A69881  10.270  21.517   7.018
 5363POPC   C4A69882  10.281  21.049   7.101
 5363POPC   C1B69883  10.961  21.497   6.143
 5363POPC   C2B69884  11.064  21.408   6.562
 5363POPC   C3B69885  10.778  21.397   6.891
 5363POPC   C4B69886  10.797  21.568   7.277
 5364POPC   NC369887  44.473  34.146   5.083
 5364POPC   PO469888  44.936  33.714   5.313
 5364POPC   GL169889  44.938  33.632   5.787
 5364POPC   GL269890  44.971  33.953   5.962
 5364POPC   C1A69891  44.683  33.595   6.189
 5364POPC   D2A69892  44.713  33.529   6.645
 5364POPC   C3A69893  44.506  33.548   7.086
 5364POPC   C4A69894  44.522  33.624   7.563
 5364POPC   C1B69895   0.063  33.873   6.419
 5364POPC   C2B69896  44.757  34.015   6.775
 5364POPC   C3B69897  44.719  33.978   7.226
 5364POPC   C4B69898   0.002  34.023   7.583
 5365POPC   NC369899  44.955  20.786   5.208
 5365POPC   PO469900  44.561  20.375   5.506
 5365POPC   GL169901  44.579  20.663   5.798
 5365POPC   GL269902  44.902  20.760   5.733
 5365POPC   C1A69903  44.664  20.534   6.226
 5365POPC   D2A69904  44.961  20.347   6.577
 5365POPC   C3A69905  44.721  20.329   6.990
 5365POPC   C4A69906  44.359  20.534   7.185
 5365POPC   C1B69907   0.102  20.745   6.158
 5365POPC   C2B69908  44.941  20.854   6.574
 5365POPC   C3B69909   0.039  20.713   6.980
 5365POPC   C4B69910  44.791  20.720   7.356
 5366POPC   NC369911  30.155  12.561   5.374
 5366POPC   PO469912  29.812  13.213   5.547
 5366POPC   GL169913  29.926  12.868   5.735
 5366POPC   GL269914  29.642  12.753   5.915
 5366POPC   C1A69915  30.131  12.786   6.131
 5366POPC   D2A69916  29.881  12.675   6.490
 5366POPC   C3A69917  29.984  12.736   6.911
 5366POPC   C4A69918  29.973  12.452   7.255
 5366POPC   C1B69919  29.702  13.110   6.202
 5366POPC   C2B69920  29.912  13.207   6.575
 5366POPC   C3B69921  29.857  13.248   6.983
 5366POPC   C4B69922  29.949  13.046   7.339
 5367POPC   NC369923  15.484  24.114   5.419
 5367POPC   PO469924  14.943  23.771   5.420
 5367POPC   GL169925  15.055  23.668   5.890
 5367POPC   GL269926  15.274  23.380   5.979
 5367POPC   C1A69927  14.953  23.603   6.369
 5367POPC   D2A69928  15.196  23.290   6.636
 5367POPC   C3A69929  15.243  23.385   7.066
 5367POPC   C4A69930  15.029  23.733   7.262
 5367POPC   C1B69931  15.446  23.670   6.283
 5367POPC   C2B69932  15.344  23.782   6.740
 5367POPC   C3B69933  15.541  23.821   7.167
 5367POPC   C4B69934  15.563  24.091   7.551
 5368POPC   NC369935  37.682  31.665   5.415
 5368POPC   PO469936  37.871  31.080   5.519
 5368POPC   GL169937  37.680  31.407   5.850
 5368POPC   GL269938  37.474  31.751   5.883
 5368POPC   C1A69939  37.506  31.357   6.245
 5368POPC   D2A69940  37.714  31.194   6.605
 5368POPC   C3A69941  37.622  31.338   7.011
 5368POPC   C4A69942  37.980  31.567   7.141
 5368POPC   C1B69943  37.422  31.870   6.334
 5368POPC   C2B69944  37.628  31.741   6.733
 5368POPC   C3B69945  37.507  31.784   7.217
 5368POPC   C4B69946  37.375  31.974   7.681
 5369POPC   NC369947   5.394  32.558   5.468
 5369POPC   PO469948   4.890  32.167   5.322
 5369POPC   GL169949   5.066  32.123   5.763
 5369POPC   GL269950   5.149  32.451   5.897
 5369POPC   C1A69951   5.046  32.120   6.246
 5369POPC   D2A69952   5.259  32.321   6.606
 5369POPC   C3A69953   5.163  32.054   6.957
 5369POPC   C4A69954   5.010  32.093   7.393
 5369POPC   C1B69955   5.038  32.686   6.279
 5369POPC   C2B69956   4.989  32.747   6.736
 5369POPC   C3B69957   4.967  32.514   7.095
 5369POPC   C4B69958   5.100  32.560   7.522
 5370POPC   NC369959  41.574  13.617   5.450
 5370POPC   PO469960  41.226  14.087   5.545
 5370POPC   GL169961  41.389  13.765   5.913
 5370POPC   GL269962  41.418  13.375   5.906
 5370POPC   C1A69963  41.672  13.619   6.282
 5370POPC   D2A69964  41.899  13.616   6.690
 5370POPC   C3A69965  41.724  13.467   7.092
 5370POPC   C4A69966  41.532  13.719   7.437
 5370POPC   C1B69967  41.257  13.326   6.339
 5370POPC   C2B69968  41.389  13.233   6.766
 5370POPC   C3B69969  41.233  13.362   7.202
 5370POPC   C4B69970  41.333  13.310   7.661
 5371POPC   NC369971  23.163  42.827   5.453
 5371POPC   PO469972  23.661  42.325   5.194
 5371POPC   GL169973  23.751  42.186   5.724
 5371POPC   GL269974  23.970  42.411   5.840
 5371POPC   C1A69975  23.592  42.222   6.160
 5371POPC   D2A69976  23.743  42.357   6.561
 5371POPC   C3A69977  23.894  42.053   6.845
 5371POPC   C4A69978  23.721  42.204   7.200
 5371POPC   C1B69979  24.048  42.577   6.203
 5371POPC   C2B69980  24.083  42.740   6.606
 5371POPC   C3B69981  23.950  42.674   7.024
 5371POPC   C4B69982  24.007  42.934   7.395
 5372POPC   NC369983  37.938   2.978   5.512
 5372POPC   PO469984  37.373   2.574   5.484
 5372POPC   GL169985  37.607   2.694   5.859
 5372POPC   GL269986  37.965   2.605   5.869
 5372POPC   C1A69987  37.639   2.647   6.326
 5372POPC   D2A69988  37.677   2.402   6.699
 5372POPC   C3A69989  37.694   2.608   7.090
 5372POPC   C4A69990  37.594   3.016   7.212
 5372POPC   C1B69991  38.016   2.948   6.185
 5372POPC   C2B69992  37.858   3.033   6.620
 5372POPC   C3B69993  38.072   3.002   7.016
 5372POPC   C4B69994  38.023   2.847   7.443
 5373POPC   NC369995   9.813   1.309   5.356
 5373POPC   PO469996   9.783   0.632   5.452
 5373POPC   GL169997   9.680   1.000   5.737
 5373POPC   GL269998  10.014   1.165   5.799
 5373POPC   C1A69999   9.640   1.259   6.134
 5373POPC   D2A70000   9.884   1.386   6.509
 5373POPC   C3A70001   9.642   1.596   6.810
 5373POPC   C4A70002   9.426   1.411   7.129
 5373POPC   C1B70003   9.969   0.863   6.143
 5373POPC   C2B70004  10.113   0.737   6.523
 5373POPC   C3B70005  10.069   0.880   6.934
 5373POPC   C4B70006   9.943   1.270   7.075
 5374POPC   NC370007  16.550  33.501   5.491
 5374POPC   PO470008  16.687  32.789   5.384
 5374POPC   GL170009  16.651  32.777   5.835
 5374POPC   GL270010  16.469  33.098   5.884
 5374POPC   C1A70011  16.783  32.818   6.296
 5374POPC   D2A70012  16.602  32.954   6.716
 5374POPC   C3A70013  16.888  33.085   7.047
 5374POPC   C4A70014  16.931  32.861   7.450
 5374POPC   C1B70015  16.575  33.296   6.289
 5374POPC   C2B70016  16.564  33.467   6.715
 5374POPC   C3B70017  16.552  33.458   7.163
 5374POPC   C4B70018  16.400  33.449   7.593
 5375POPC   NC370019   8.729  40.369   5.096
 5375POPC   PO470020   8.818  40.923   5.493
 5375POPC   GL170021   9.161  40.625   5.672
 5375POPC   GL270022   8.904  40.532   5.883
 5375POPC   C1A70023   9.343  40.553   6.132
 5375POPC   D2A70024   9.335  40.780   6.548
 5375POPC   C3A70025   9.218  40.607   6.963
 5375POPC   C4A70026   9.160  40.779   7.382
 5375POPC   C1B70027   8.861  40.704   6.301
 5375POPC   C2B70028   8.737  40.761   6.746
 5375POPC   C3B70029   8.661  40.667   7.196
 5375POPC   C4B70030   8.757  40.585   7.649
 5376POPC   NC370031  11.129  36.967   5.610
 5376POPC   PO470032  11.569  37.116   5.158
 5376POPC   GL170033  11.681  36.943   5.596
 5376POPC   GL270034  11.539  36.610   5.702
 5376POPC   C1A70035  11.650  36.975   6.076
 5376POPC   D2A70036  11.330  37.054   6.427
 5376POPC   C3A70037  11.400  37.088   6.874
 5376POPC   C4A70038  11.651  36.788   7.106
 5376POPC   C1B70039  11.284  36.623   6.124
 5376POPC   C2B70040  10.962  36.695   6.439
 5376POPC   C3B70041  11.147  36.664   6.804
 5376POPC   C4B70042  11.116  36.778   7.198
 5377POPC   NC370043  34.318  33.923   5.299
 5377POPC   PO470044  34.961  33.626   5.409
 5377POPC   GL170045  34.824  33.847   5.805
 5377POPC   GL270046  34.472  33.952   5.816
 5377POPC   C1A70047  34.730  33.779   6.277
 5377POPC   D2A70048  34.859  33.814   6.733
 5377POPC   C3A70049  34.646  33.965   7.092
 5377POPC   C4A70050  34.651  33.963   7.562
 5377POPC   C1B70051  34.335  34.147   6.219
 5377POPC   C2B70052  34.173  33.958   6.611
 5377POPC   C3B70053  34.165  34.058   7.060
 5377POPC   C4B70054  34.222  33.687   7.320
 5378POPC   NC370055  13.770  20.971   5.366
 5378POPC   PO470056  13.490  20.339   5.419
 5378POPC   GL170057  13.531  20.555   5.789
 5378POPC   GL270058  13.874  20.445   5.842
 5378POPC   C1A70059  13.344  20.699   6.187
 5378POPC   D2A70060  13.403  20.555   6.618
 5378POPC   C3A70061  13.524  20.788   7.007
 5378POPC   C4A70062  13.919  20.898   7.230
 5378POPC   C1B70063  13.988  20.240   6.227
 5378POPC   C2B70064  13.884  20.332   6.635
 5378POPC   C3B70065  14.031  20.213   7.013
 5378POPC   C4B70066  14.212  20.482   7.307
 5379POPC   NC370067  40.677   6.466   5.317
 5379POPC   PO470068  40.510   7.000   5.488
 5379POPC   GL170069  40.642   6.738   5.833
 5379POPC   GL270070  40.712   6.361   5.835
 5379POPC   C1A70071  40.642   6.642   6.274
 5379POPC   D2A70072  40.946   6.569   6.593
 5379POPC   C3A70073  40.775   6.741   6.996
 5379POPC   C4A70074  40.945   7.011   7.327
 5379POPC   C1B70075  40.538   6.144   6.217
 5379POPC   C2B70076  40.626   6.173   6.652
 5379POPC   C3B70077  40.554   6.276   7.094
 5379POPC   C4B70078  40.626   6.534   7.492
 5380POPC   NC370079  32.955   1.814   5.260
 5380POPC   PO470080  33.509   2.001   5.534
 5380POPC   GL170081  33.298   1.878   5.866
 5380POPC   GL270082  32.949   1.935   5.771
 5380POPC   C1A70083  33.282   2.080   6.247
 5380POPC   D2A70084  33.213   1.911   6.618
 5380POPC   C3A70085  33.290   2.148   6.982
 5380POPC   C4A70086  33.108   1.969   7.325
 5380POPC   C1B70087  32.861   1.799   6.194
 5380POPC   C2B70088  32.691   1.962   6.584
 5380POPC   C3B70089  32.648   1.788   6.988
 5380POPC   C4B70090  32.504   1.552   7.341
 5381POPC   NC370091  31.431  21.414   5.138
 5381POPC   PO470092  31.726  20.840   5.270
 5381POPC   GL170093  31.485  21.262   5.608
 5381POPC   GL270094  31.458  21.638   5.621
 5381POPC   C1A70095  31.641  21.424   6.071
 5381POPC   D2A70096  31.745  21.285   6.520
 5381POPC   C3A70097  31.617  21.445   6.926
 5381POPC   C4A70098  31.438  21.194   7.255
 5381POPC   C1B70099  31.166  21.504   5.964
 5381POPC   C2B70100  31.268  21.564   6.424
 5381POPC   C3B70101  31.121  21.558   6.852
 5381POPC   C4B70102  31.204  21.703   7.233
 5382POPC   NC370103  22.291  28.190   5.381
 5382POPC   PO470104  21.661  28.299   5.312
 5382POPC   GL170105  21.935  28.211   5.761
 5382POPC   GL270106  22.211  28.486   5.806
 5382POPC   C1A70107  22.132  28.217   6.228
 5382POPC   D2A70108  22.231  28.058   6.645
 5382POPC   C3A70109  21.980  28.216   6.976
 5382POPC   C4A70110  21.792  28.583   7.101
 5382POPC   C1B70111  22.521  28.514   6.159
 5382POPC   C2B70112  22.657  28.351   6.545
 5382POPC   C3B70113  22.434  28.463   6.920
 5382POPC   C4B70114  22.236  28.509   7.340
 5383POPC   NC370115   9.395  16.604   5.442
 5383POPC   PO470116   9.870  16.969   5.328
 5383POPC   GL170117   9.966  16.674   5.688
 5383POPC   GL270118   9.956  16.273   5.688
 5383POPC   C1A70119  10.041  16.831   6.114
 5383POPC   D2A70120   9.767  16.936   6.470
 5383POPC   C3A70121   9.991  16.963   6.845
 5383POPC   C4A70122   9.786  17.038   7.243
 5383POPC   C1B70123   9.731  16.394   6.087
 5383POPC   C2B70124   9.563  16.393   6.513
 5383POPC   C3B70125   9.667  16.561   6.901
 5383POPC   C4B70126   9.424  16.628   7.248
 5384POPC   NC370127   0.637  41.346   5.433
 5384POPC   PO470128   0.194  41.719   5.775
 5384POPC   GL170129   0.654  41.655   5.867
 5384POPC   GL270130   0.819  42.000   5.841
 5384POPC   C1A70131   0.655  41.497   6.304
 5384POPC   D2A70132   0.317  41.633   6.627
 5384POPC   C3A70133   0.330  41.421   7.025
 5384POPC   C4A70134   0.731  41.353   7.246
 5384POPC   C1B70135   0.591  42.004   6.231
 5384POPC   C2B70136   0.740  41.961   6.636
 5384POPC   C3B70137   0.577  41.867   7.042
 5384POPC   C4B70138   0.162  41.882   7.223
 5385POPC   NC370139   3.013  35.528   5.443
 5385POPC   PO470140   2.442  35.797   5.693
 5385POPC   GL170141   2.739  35.633   5.921
 5385POPC   GL270142   2.680  35.360   5.843
 5385POPC   C1A70143   2.830  35.539   6.339
 5385POPC   D2A70144   2.592  35.692   6.679
 5385POPC   C3A70145   2.833  35.618   7.036
 5385POPC   C4A70146   2.881  35.263   7.287
 5385POPC   C1B70147   2.543  35.129   6.224
 5385POPC   C2B70148   2.659  35.124   6.689
 5385POPC   C3B70149   2.413  35.269   7.071
 5385POPC   C4B70150   2.297  35.187   7.524
 5386POPC   NC370151  24.088  42.214   5.367
 5386POPC   PO470152  24.783  42.084   5.266
 5386POPC   GL170153  24.627  41.985   5.726
 5386POPC   GL270154  24.257  41.988   5.793
 5386POPC   C1A70155  24.569  42.219   6.136
 5386POPC   D2A70156  24.535  42.650   6.329
 5386POPC   C3A70157  24.583  42.629   6.785
 5386POPC   C4A70158  24.408  42.623   7.244
 5386POPC   C1B70159  24.074  42.046   6.217
 5386POPC   C2B70160  24.268  42.270   6.559
 5386POPC   C3B70161  24.407  42.189   6.958
 5386POPC   C4B70162  24.222  42.010   7.263
 5387POPC   NC370163  29.073  21.607   5.505
 5387POPC   PO470164  28.989  22.347   5.356
 5387POPC   GL170165  29.138  22.104   5.705
 5387POPC   GL270166  28.833  21.964   5.795
 5387POPC   C1A70167  29.146  22.157   6.172
 5387POPC   D2A70168  29.002  22.478   6.467
 5387POPC   C3A70169  28.870  22.369   6.885
 5387POPC   C4A70170  29.155  22.235   7.205
 5387POPC   C1B70171  28.727  21.822   6.212
 5387POPC   C2B70172  28.941  21.927   6.603
 5387POPC   C3B70173  28.839  21.882   7.050
 5387POPC   C4B70174  28.854  21.992   7.537
 5388POPC   NC370175  22.633  31.035   5.351
 5388POPC   PO470176  22.235  30.494   5.473
 5388POPC   GL170177  22.031  30.695   5.885
 5388POPC   GL270178  21.945  31.061   5.869
 5388POPC   C1A70179  22.083  30.852   6.328
 5388POPC   D2A70180  22.216  31.073   6.726
 5388POPC   C3A70181  22.368  30.795   7.072
 5388POPC   C4A70182  22.402  30.500   7.438
 5388POPC   C1B70183  21.682  31.153   6.216
 5388POPC   C2B70184  21.700  30.953   6.655
 5388POPC   C3B70185  21.841  30.959   7.091
 5388POPC   C4B70186  22.044  30.873   7.474
 5389POPC   NC370187  31.736  28.965   5.508
 5389POPC   PO470188  31.068  29.150   5.548
 5389POPC   GL170189  31.365  29.051   5.864
 5389POPC   GL270190  31.626  29.329   5.862
 5389POPC   C1A70191  31.424  29.051   6.308
 5389POPC   D2A70192  31.495  29.084   6.742
 5389POPC   C3A70193  31.218  29.082   7.100
 5389POPC   C4A70194  31.198  29.500   7.284
 5389POPC   C1B70195  31.762  29.433   6.296
 5389POPC   C2B70196  31.834  29.459   6.756
 5389POPC   C3B70197  31.672  29.348   7.166
 5389POPC   C4B70198  31.642  29.431   7.613
 5390POPC   NC370199  20.845  42.583   5.342
 5390POPC   PO470200  20.759  42.007   5.661
 5390POPC   GL170201  20.650  42.199   6.011
 5390POPC   GL270202  20.605  42.504   5.879
 5390POPC   C1A70203  20.530  42.227   6.434
 5390POPC   D2A70204  20.337  42.091   6.810
 5390POPC   C3A70205  20.599  42.320   7.065
 5390POPC   C4A70206  21.030  42.372   7.124
 5390POPC   C1B70207  20.586  42.725   6.277
 5390POPC   C2B70208  20.614  42.704   6.722
 5390POPC   C3B70209  20.371  42.761   7.061
 5390POPC   C4B70210  20.414  42.641   7.489
 5391POPC   NC370211  10.756   7.335   5.256
 5391POPC   PO470212  10.874   8.006   5.412
 5391POPC   GL170213  10.930   7.768   5.806
 5391POPC   GL270214  10.833   7.408   5.781
 5391POPC   C1A70215  10.714   7.816   6.226
 5391POPC   D2A70216  10.565   7.987   6.631
 5391POPC   C3A70217  10.505   7.699   6.980
 5391POPC   C4A70218  10.470   7.453   7.381
 5391POPC   C1B70219  10.632   7.301   6.215
 5391POPC   C2B70220  10.629   7.133   6.658
 5391POPC   C3B70221  10.681   7.068   7.102
 5391POPC   C4B70222  10.688   6.976   7.527
 5392POPC   NC370223  17.762   2.225   5.422
 5392POPC   PO470224  18.447   2.054   5.459
 5392POPC   GL170225  18.482   1.888   5.869
 5392POPC   GL270226  18.137   1.842   5.875
 5392POPC   C1A70227  18.373   2.109   6.267
 5392POPC   D2A70228  18.511   2.269   6.642
 5392POPC   C3A70229  18.355   2.193   7.061
 5392POPC   C4A70230  18.533   2.270   7.490
 5392POPC   C1B70231  18.218   1.621   6.286
 5392POPC   C2B70232  18.256   1.500   6.708
 5392POPC   C3B70233  18.335   1.678   7.080
 5392POPC   C4B70234  18.111   1.895   7.413
 5393POPC   NC370235  11.600   6.047   5.324
 5393POPC   PO470236  11.044   5.834   5.435
 5393POPC   GL170237  11.397   5.870   5.770
 5393POPC   GL270238  11.448   6.221   5.818
 5393POPC   C1A70239  11.618   5.883   6.205
 5393POPC   D2A70240  11.684   6.106   6.642
 5393POPC   C3A70241  11.624   5.898   7.085
 5393POPC   C4A70242  11.448   5.892   7.543
 5393POPC   C1B70243  11.209   6.178   6.232
 5393POPC   C2B70244  11.148   6.152   6.710
 5393POPC   C3B70245  11.131   6.098   7.177
 5393POPC   C4B70246  10.981   6.168   7.617
 5394POPC   NC370247  12.069  39.069   5.104
 5394POPC   PO470248  12.117  38.516   5.473
 5394POPC   GL170249  12.065  38.398   5.899
 5394POPC   GL270250  12.423  38.271   5.902
 5394POPC   C1A70251  12.088  38.520   6.301
 5394POPC   D2A70252  12.341  38.700   6.598
 5394POPC   C3A70253  12.194  38.758   7.003
 5394POPC   C4A70254  12.449  38.677   7.351
 5394POPC   C1B70255  12.309  38.062   6.280
 5394POPC   C2B70256  12.175  38.183   6.713
 5394POPC   C3B70257  12.233  38.235   7.192
 5394POPC   C4B70258  12.395  38.264   7.649
 5395POPC   NC370259  12.020  16.559   5.463
 5395POPC   PO470260  11.913  17.274   5.439
 5395POPC   GL170261  12.052  16.967   5.797
 5395POPC   GL270262  12.269  16.646   5.917
 5395POPC   C1A70263  11.942  16.857   6.228
 5395POPC   D2A70264  12.058  17.089   6.586
 5395POPC   C3A70265  11.999  16.935   7.005
 5395POPC   C4A70266  11.879  16.846   7.444
 5395POPC   C1B70267  12.430  16.773   6.371
 5395POPC   C2B70268  12.433  16.745   6.835
 5395POPC   C3B70269  12.262  16.559   7.255
 5395POPC   C4B70270  12.226  16.547   7.733
 5396POPC   NC370271  19.001  12.821   5.301
 5396POPC   PO470272  18.542  12.467   5.605
 5396POPC   GL170273  18.888  12.706   5.793
 5396POPC   GL270274  19.277  12.694   5.740
 5396POPC   C1A70275  18.991  12.786   6.210
 5396POPC   D2A70276  18.943  13.097   6.500
 5396POPC   C3A70277  18.924  12.887   6.878
 5396POPC   C4A70278  19.142  12.968   7.223
 5396POPC   C1B70279  19.404  12.490   6.129
 5396POPC   C2B70280  19.232  12.384   6.529
 5396POPC   C3B70281  19.303  12.534   6.950
 5396POPC   C4B70282  19.115  12.471   7.341
 5397POPC   NC370283  38.685  41.711   5.315
 5397POPC   PO470284  38.191  41.351   5.492
 5397POPC   GL170285  38.418  41.553   5.799
 5397POPC   GL270286  38.623  41.798   5.804
 5397POPC   C1A70287  38.420  41.506   6.213
 5397POPC   D2A70288  38.224  41.554   6.566
 5397POPC   C3A70289  38.526  41.530   6.883
 5397POPC   C4A70290  38.356  41.487   7.268
 5397POPC   C1B70291  38.701  41.956   6.170
 5397POPC   C2B70292  38.540  41.966   6.574
 5397POPC   C3B70293  38.770  42.001   6.928
 5397POPC   C4B70294  38.858  41.810   7.289
 5398POPC   NC370295  31.397   1.384   5.328
 5398POPC   PO470296  31.488   0.787   5.521
 5398POPC   GL170297  31.649   0.987   5.855
 5398POPC   GL270298  31.691   1.321   5.746
 5398POPC   C1A70299  31.590   1.143   6.261
 5398POPC   D2A70300  31.718   0.908   6.592
 5398POPC   C3A70301  31.437   0.656   6.805
 5398POPC   C4A70302  31.356   0.870   7.170
 5398POPC   C1B70303  31.387   1.544   6.022
 5398POPC   C2B70304  31.411   1.621   6.484
 5398POPC   C3B70305  31.576   1.563   6.919
 5398POPC   C4B70306  31.386   1.603   7.328
 5399POPC   NC370307   8.419  36.340   5.441
 5399POPC   PO470308   7.937  35.869   5.425
 5399POPC   GL170309   8.047  36.099   5.797
 5399POPC   GL270310   8.394  36.017   5.852
 5399POPC   C1A70311   8.031  36.087   6.258
 5399POPC   D2A70312   7.875  36.095   6.715
 5399POPC   C3A70313   8.178  36.224   7.038
 5399POPC   C4A70314   8.060  36.218   7.493
 5399POPC   C1B70315   8.572  36.020   6.255
 5399POPC   C2B70316   8.583  36.217   6.643
 5399POPC   C3B70317   8.624  35.990   6.989
 5399POPC   C4B70318   8.488  35.944   7.383
 5400POPC   NC370319  19.570   0.350   5.393
 5400POPC   PO470320  19.999   0.843   5.350
 5400POPC   GL170321  19.798   0.658   5.730
 5400POPC   GL270322  19.845   0.301   5.850
 5400POPC   C1A70323  19.559   0.772   6.087
 5400POPC   D2A70324  19.505   0.823   6.538
 5400POPC   C3A70325  19.693   0.700   6.945
 5400POPC   C4A70326  19.542   0.686   7.381
 5400POPC   C1B70327  19.912   0.438   6.298
 5400POPC   C2B70328  19.731   0.272   6.699
 5400POPC   C3B70329  19.803   0.259   7.188
 5400POPC   C4B70330  19.890   0.079   7.632
 5401POPC   NC370331  29.358  24.646   5.372
 5401POPC   PO470332  29.082  24.142   5.522
 5401POPC   GL170333  29.108  24.263   5.921
 5401POPC   GL270334  29.203  24.613   5.927
 5401POPC   C1A70335  28.906  24.396   6.292
 5401POPC   D2A70336  29.011  24.557   6.677
 5401POPC   C3A70337  28.993  24.275   7.014
 5401POPC   C4A70338  29.311  24.126   7.321
 5401POPC   C1B70339  29.071  24.903   6.270
 5401POPC   C2B70340  29.228  25.005   6.704
 5401POPC   C3B70341  29.123  24.762   7.130
 5401POPC   C4B70342  28.901  24.883   7.526
 5402POPC   NC370343   2.014  41.044   5.013
 5402POPC   PO470344   1.582  40.658   5.345
 5402POPC   GL170345   1.878  40.631   5.661
 5402POPC   GL270346   1.893  40.957   5.740
 5402POPC   C1A70347   1.936  40.552   6.091
 5402POPC   D2A70348   2.136  40.616   6.481
 5402POPC   C3A70349   1.983  40.518   6.899
 5402POPC   C4A70350   1.965  40.736   7.281
 5402POPC   C1B70351   2.159  41.044   6.088
 5402POPC   C2B70352   2.036  41.197   6.482
 5402POPC   C3B70353   2.129  41.029   6.873
 5402POPC   C4B70354   2.366  41.077   7.232
 5403POPC   NC370355   3.553  17.985   5.410
 5403POPC   PO470356   3.904  18.570   5.442
 5403POPC   GL170357   3.654  18.415   5.772
 5403POPC   GL270358   3.315  18.368   5.712
 5403POPC   C1A70359   3.624  18.485   6.206
 5403POPC   D2A70360   3.705  18.149   6.503
 5403POPC   C3A70361   3.624  18.238   6.916
 5403POPC   C4A70362   3.771  18.312   7.302
 5403POPC   C1B70363   3.245  18.168   6.112
 5403POPC   C2B70364   3.206  18.258   6.575
 5403POPC   C3B70365   3.157  18.083   7.023
 5403POPC   C4B70366   3.281  18.209   7.449
 5404POPC   NC370367  37.854  37.882   5.458
 5404POPC   PO470368  37.440  37.402   5.515
 5404POPC   GL170369  37.478  37.603   5.909
 5404POPC   GL270370  37.570  37.920   5.881
 5404POPC   C1A70371  37.615  37.744   6.362
 5404POPC   D2A70372  37.784  37.712   6.818
 5404POPC   C3A70373  37.608  37.491   7.186
 5404POPC   C4A70374  37.650  37.429   7.650
 5404POPC   C1B70375  37.926  38.091   6.136
 5404POPC   C2B70376  38.026  38.101   6.574
 5404POPC   C3B70377  37.975  38.136   7.033
 5404POPC   C4B70378  37.934  37.834   7.371
 5405POPC   NC370379  21.801  44.792   5.599
 5405POPC   PO470380  22.531  44.949   5.501
 5405POPC   GL170381  22.306  44.723   5.817
 5405POPC   GL270382  22.237  44.375   5.785
 5405POPC   C1A70383  22.080  44.719   6.204
 5405POPC   D2A70384  22.219  44.761   6.615
 5405POPC   C3A70385  21.969  44.940   6.932
 5405POPC   C4A70386  22.151  44.889   7.299
 5405POPC   C1B70387  22.002  44.240   6.184
 5405POPC   C2B70388  22.135  44.229   6.591
 5405POPC   C3B70389  22.115  44.421   6.980
 5405POPC   C4B70390  21.839  44.398   7.290
 5406W        W70391  23.377  17.641  10.695
 5407W        W70392  30.642  13.653  13.472
 5408W        W70393  22.379  34.104  11.493
 5409W        W70394  44.593  22.224  14.822
 5410W        W70395  31.063  39.555   0.792
 5411W        W70396  37.009  43.773  11.212
 5412W        W70397  10.789  39.819  12.614
 5413W        W70398  28.509  16.680  12.979
 5414W        W70399   1.955  21.560  10.700
 5415W        W70400  36.487  20.932  10.104
 5416W        W70401   7.138  42.961   4.313
 5417W        W70402  26.613  39.089  11.560
 5418W        W70403  41.410  37.396  13.151
 5419W        W70404  12.298  19.159   2.114
 5420W        W70405   1.421  40.528   4.338
 5421W        W70406  43.789   6.055  11.111
 5422W        W70407  43.328  32.058   3.411
 5423W        W70408  43.480  15.807   1.311
 5424W        W70409  10.687  11.714  14.277
 5425W        W70410   6.942  31.999  11.599
 5426W        W70411  21.603  26.838  12.904
 5427W        W70412  23.780   9.111   1.341
 5428W        W70413  22.698  32.320  14.300
 5429W        W70414  20.136   1.249   0.330
 5430W        W70415  18.097  44.552   4.201
 5431W        W70416  32.648   2.288   0.990
 5432W        W70417  43.071  15.580  14.389
 5433W        W70418  36.207  40.678  13.857
 5434W        W70419   5.428   6.662   0.813
 5435W        W70420   5.324  26.084  10.698
 5436W        W70421  24.332  15.640  13.918
 5437W        W70422   9.486  41.417   2.804
 5438W        W70423  23.730  35.894   3.635
 5439W        W70424   1.949  34.129   2.684
 5440W        W70425  11.663   5.024  11.694
 5441W        W70426  30.388   6.821   1.866
 5442W        W70427  42.093  11.368   2.750
 5443W        W70428   0.428  30.448  10.529
 5444W        W70429   8.386  30.196  12.557
 5445W        W70430   5.438  30.257  11.647
 5446W        W70431  11.636  39.658  14.938
 5447W        W70432  14.679  14.097  14.421
 5448W        W70433   4.624   3.357   0.037
 5449W        W70434  26.860  24.331   3.088
 5450W        W70435  35.071   0.965  13.338
 5451W        W70436  24.821   5.601  12.076
 5452W        W70437  16.141  16.354  11.505
 5453W        W70438  28.469  37.820  11.863
 5454W        W70439  26.254  35.708  14.948
 5455W        W70440  41.798  39.822   0.917
 5456W        W70441  32.819  36.560   4.650
 5457W        W70442   0.192   7.956   3.757
 5458W        W70443  44.317  42.204  14.465
 5459W        W70444  33.205   4.320   1.700
 5460W        W70445  20.728  43.712   3.240
 5461W        W70446  16.522  41.357  13.007
 5462W        W70447  19.415  37.343  12.690
 5463W        W70448  33.913  22.837   3.539
 5464W        W70449  24.225  29.910   1.928
 5465W        W70450  38.404  31.679   2.332
 5466W        W70451  26.508  34.793  10.480
 5467W        W70452  21.494  42.788   4.688
 5468W        W70453  14.868  34.188   0.012
 5469W        W70454  18.017  12.294  13.930
 5470W        W70455  40.008  17.289  12.352
 5471W        W70456  20.772  35.856   2.257
 5472W        W70457  14.736  40.845  14.773
 5473W        W70458  12.297  15.103  14.336
 5474W        W70459  38.943  17.285  14.853
 5475W        W70460   7.606   9.087   3.449
 5476W        W70461   6.152   9.388  13.938
 5477W        W70462  12.987  44.653  14.425
 5478W        W70463  38.113  16.145  12.944
 5479W        W70464  28.960  26.974   3.607
 5480W        W70465  23.440   6.748   3.215
 5481W        W70466  42.357  12.131   0.918
 5482W        W70467   3.264  33.549   1.900
 5483W        W70468   5.689  17.154  14.482
 5484W        W70469  26.262  20.587   3.289
 5485W        W70470  18.440  10.809  11.344
 5486W        W70471   3.781  23.735  11.127
 5487W        W70472  33.603   5.291   1.789
 5488W        W70473  31.100   0.104   4.408
 5489W        W70474   5.017  10.693   4.744
 5490W        W70475  30.062   5.911  13.439
 5491W        W70476  25.066  36.319   3.634
 5492W        W70477  25.444  23.193   0.880
 5493W        W70478   0.829  25.178  10.858
 5494W        W70479  44.242  33.464  12.319
 5495W        W70480  30.561  13.705  12.534
 5496W        W70481  10.569  37.593  10.804
 5497W        W70482  35.880  16.283   1.970
 5498W        W70483  21.678  39.530  14.171
 5499W        W70484  18.601  14.651  11.704
 5500W        W70485  19.188   7.911  14.813
 5501W        W70486  43.544  41.980   4.829
 5502W        W70487   4.890   4.431   3.876
 5503W        W70488  24.225   6.024   3.188
 5504W        W70489  44.396  23.657   2.424
 5505W        W70490   3.311   7.422   2.202
 5506W        W70491  38.559  27.752  13.559
 5507W        W70492  10.761  29.807   3.385
 5508W        W70493   1.050  21.241   3.656
 5509W        W70494  41.500  41.020  12.947
 5510W        W70495  29.938  19.663   2.706
 5511W        W70496  23.506   7.931  14.350
 5512W        W70497  29.977   2.891   3.306
 5513W        W70498  33.156  16.949  14.433
 5514W        W70499  40.651   3.367  14.556
 5515W        W70500  10.296   7.548  14.482
 5516W        W70501  21.201   1.815   3.635
 5517W        W70502  18.194   3.309  13.417
 5518W        W70503   9.171   4.362   3.129
 5519W        W70504   8.661  22.598   0.348
 5520W        W70505  21.874  15.027  12.503
 5521W        W70506   3.196   1.200  12.057
 5522W        W70507  17.838  36.642   1.613
 5523W        W70508   3.213  42.029   1.392
 5524W        W70509  12.321  34.825   1.243
 5525W        W70510  33.445  23.760  10.463
 5526W        W70511   4.123   7.039  12.621
 5527W        W70512  36.881  43.923  12.235
 5528W        W70513  32.575  32.495  11.312
 5529W        W70514  26.927  35.163   3.086
 5530W        W70515  37.548  34.118   2.415
 5531W        W70516   4.167  43.752   3.171
 5532W        W70517  35.667  19.294  14.713
 5533W        W70518  42.765   3.742  14.832
 5534W        W70519  10.678  41.616  13.467
 5535W        W70520  43.782  43.327   0.481
 5536W        W70521  13.394   4.298   1.456
 5537W        W70522  33.425  21.557  12.841
 5538W        W70523  25.521  33.897   1.251
 5539W        W70524  14.360  20.597  11.551
 5540W        W70525  41.467   7.281   2.140
 5541W        W70526  16.988   1.830  13.245
 5542W        W70527  12.308  21.258   1.913
 5543W        W70528   2.399  29.653  12.476
 5544W        W70529   5.696   3.891   3.651
 5545W        W70530   1.289  41.397   2.282
 5546W        W70531   0.006  42.933  13.400
 5547W        W70532   7.736  41.685   0.485
 5548W        W70533  44.237   7.950   4.471
 5549W        W70534  15.672  41.345  10.689
 5550W        W70535  32.221  31.915  10.740
 5551W        W70536  17.852  37.853   2.342
 5552W        W70537   1.461  33.592   1.375
 5553W        W70538  16.066  21.003   3.173
 5554W        W70539  16.321  17.057   1.369
 5555W        W70540   1.924  18.601   1.060
 5556W        W70541  10.512  32.960   2.888
 5557W        W70542  43.611  19.665   3.092
 5558W        W70543   0.327  22.022  10.904
 5559W        W70544  26.743  18.141   4.321
 5560W        W70545  23.091  31.926   1.666
 5561W        W70546  19.199  10.274   4.129
 5562W        W70547  13.855   9.693  13.011
 5563W        W70548  18.366  31.377   0.733
 5564W        W70549  21.914   4.793   3.357
 5565W        W70550  31.082  17.272   4.104
 5566W        W70551  25.834  22.406  11.999
 5567W        W70552  43.262  37.141  13.325
 5568W        W70553  16.670   8.915  14.970
 5569W        W70554  41.309  38.636  10.714
 5570W        W70555  11.012   9.605  13.530
 5571W        W70556   8.370  29.906  14.255
 5572W        W70557  21.519  22.523   3.175
 5573W        W70558  10.840  42.956   2.780
 5574W        W70559  39.417   0.842  12.969
 5575W        W70560  31.692  40.428  12.503
 5576W        W70561   6.845  33.119   4.121
 5577W        W70562  33.055  31.707  14.845
 5578W        W70563   0.356  39.638  14.255
 5579W        W70564  16.687  42.017   3.578
 5580W        W70565  25.058  15.771   0.298
 5581W        W70566  21.472  37.306  10.466
 5582W        W70567  26.547  41.992  13.441
 5583W        W70568  39.203   1.331   3.958
 5584W        W70569  39.769  24.253   4.087
 5585W        W70570  21.791  22.225   2.776
 5586W        W70571   3.248  42.812  13.128
 5587W        W70572  21.081   2.782  10.738
 5588W        W70573  24.505  20.255   2.685
 5589W        W70574   8.284  44.299  14.121
 5590W        W70575   3.942  14.671  10.628
 5591W        W70576   7.853   4.324  11.300
 5592W        W70577  12.387  40.980   3.667
 5593W        W70578  33.465  15.047  14.910
 5594W        W70579   9.237  28.263  11.594
 5595W        W70580  14.573   2.302  14.445
 5596W        W70581  32.153  15.979   3.274
 5597W        W70582  10.339   8.582   0.216
 5598W        W70583  10.824   7.268  12.469
 5599W        W70584  35.896  20.192   2.820
 5600W        W70585  35.381  20.067  14.188
 5601W        W70586  39.944  41.646   3.659
 5602W        W70587  43.807  43.927  11.571
 5603W        W70588  15.827  11.288   0.576
 5604W        W70589  15.348  16.299   0.902
 5605W        W70590  25.192  12.940  10.442
 5606W        W70591  34.487  33.159  13.328
 5607W        W70592  21.706  26.069   1.948
 5608W        W70593  38.849  18.385   4.839
 5609W        W70594  33.016  21.332   3.136
 5610W        W70595  41.212  25.145  14.712
 5611W        W70596  11.962   9.370  13.123
 5612W        W70597  21.680  31.586   0.876
 5613W        W70598  22.790   9.650  10.621
 5614W        W70599  32.708  29.169   1.751
 5615W        W70600  19.704  12.380  10.855
 5616W        W70601  20.197  30.825   0.812
 5617W        W70602  28.235  10.331   0.892
 5618W        W70603  11.288  29.673  12.128
 5619W        W70604  17.957   4.800  10.353
 5620W        W70605  14.655  36.361   2.842
 5621W        W70606   7.429  25.753   0.652
 5622W        W70607   9.820   3.287   1.895
 5623W        W70608  15.000  39.807  11.147
 5624W        W70609  41.479  21.279   1.758
 5625W        W70610  26.943   9.254  13.489
 5626W        W70611  27.855  30.203   4.918
 5627W        W70612  40.655   2.172  11.839
 5628W        W70613   8.150  18.551   4.348
 5629W        W70614  33.366  39.554  11.158
 5630W        W70615  31.745  11.624   3.642
 5631W        W70616  27.936   3.314  13.528
 5632W        W70617  40.031   8.704   4.211
 5633W        W70618  14.638  27.240   2.324
 5634W        W70619  11.658  13.417   3.204
 5635W        W70620  44.234  21.196  11.880
 5636W        W70621   7.913   0.210   0.418
 5637W        W70622  44.698  25.173  12.469
 5638W        W70623  20.510  39.544  14.538
 5639W        W70624  21.138  28.051   4.505
 5640W        W70625  27.030   6.310  14.910
 5641W        W70626  43.368  15.307   2.686
 5642W        W70627  33.659   7.212   0.721
 5643W        W70628   1.798  27.598  13.259
 5644W        W70629  38.924  42.017  10.015
 5645W        W70630  15.782  31.092   1.462
 5646W        W70631  37.861  28.929   0.711
 5647W        W70632  16.516   0.394   4.553
 5648W        W70633  33.193  14.773  14.042
 5649W        W70634   6.326  10.071   5.000
 5650W        W70635   6.807  33.591   1.638
 5651W        W70636   8.871  18.586  12.969
 5652W        W70637  40.987  38.526  13.251
 5653W        W70638  12.144  39.615   2.715
 5654W        W70639  20.590  33.601   4.725
 5655W        W70640  34.111  44.519  13.931
 5656W        W70641  33.923  13.133  11.650
 5657W        W70642  34.996  41.363  13.765
 5658W        W70643  24.614   7.404  11.628
 5659W        W70644  36.961  40.579   3.254
 5660W        W70645   0.973  29.782  13.284
 5661W        W70646   0.761  15.589   4.128
 5662W        W70647   5.789  10.910  14.826
 5663W        W70648  23.549  37.329  13.809
 5664W        W70649  24.123  24.181   3.235
 5665W        W70650   2.806  29.165  13.454
 5666W        W70651  29.137  27.493   4.850
 5667W        W70652  17.828  29.434   1.098
 5668W        W70653  11.699  16.594   0.032
 5669W        W70654  27.110  13.340  14.840
 5670W        W70655  19.474  41.226  11.711
 5671W        W70656  38.272  16.708  11.405
 5672W        W70657  29.685  17.137  14.437
 5673W        W70658   5.700  40.581  11.221
 5674W        W70659   1.763  16.407  11.271
 5675W        W70660  29.679  44.333   0.433
 5676W        W70661  22.392  36.848   3.016
 5677W        W70662  22.206  26.640  14.024
 5678W        W70663  16.207  44.697  13.912
 5679W        W70664  23.491  42.374   4.128
 5680W        W70665   1.456  35.569   0.897
 5681W        W70666   3.521  34.102   0.451
 5682W        W70667  23.200   5.690  11.655
 5683W        W70668  43.842  43.921  14.788
 5684W        W70669  12.274  12.133  14.488
 5685W        W70670   0.239  25.916  11.375
 5686W        W70671  39.422   0.456   1.699
 5687W        W70672  41.598   6.749  14.912
 5688W        W70673  44.365  14.771   1.466
 5689W        W70674   5.411  40.543  12.764
 5690W        W70675  28.245  12.482  14.851
 5691W        W70676   9.263  26.533   0.905
 5692W        W70677  28.410  25.613  10.682
 5693W        W70678  14.760  21.981  11.598
 5694W        W70679   6.355  20.779   1.739
 5695W        W70680  24.227  31.596  11.935
 5696W        W70681   3.402  40.860  12.872
 5697W        W70682  41.458  22.984  10.752
 5698W        W70683  38.385   7.709   1.653
 5699W        W70684  22.824  11.263   2.754
 5700W        W70685  20.177   6.662   3.252
 5701W        W70686   7.404  10.372  12.972
 5702W        W70687  34.133  22.118  12.908
 5703W        W70688  35.107   3.146   4.748
 5704W        W70689  37.459  39.010  11.019
 5705W        W70690  30.974  40.071  10.987
 5706W        W70691  28.574   0.057   3.289
 5707W        W70692  38.393  14.804   4.706
 5708W        W70693   7.128  16.033   0.315
 5709W        W70694  12.797  32.427   2.670
 5710W        W70695   2.442  10.164   1.816
 5711W        W70696  17.504  12.053  11.142
 5712W        W70697  22.965  29.011  13.021
 5713W        W70698   3.718  12.840  14.907
 5714W        W70699  11.050  39.222  11.937
 5715W        W70700   5.771  26.211   4.807
 5716W        W70701  22.324  32.199  13.893
 5717W        W70702  31.038  25.724  13.046
 5718W        W70703  11.442   3.971   2.357
 5719W        W70704  41.989   0.520  10.962
 5720W        W70705  27.131  33.918  12.077
 5721W        W70706  25.665  24.122   4.523
 5722W        W70707  20.483  43.846   4.579
 5723W        W70708  17.780   8.214  14.012
 5724W        W70709  27.893  40.933   3.738
 5725W        W70710  29.057  24.178  14.489
 5726W        W70711   3.474  43.934  11.583
 5727W        W70712  13.678   0.320   3.243
 5728W        W70713  21.787  28.542  12.007
 5729W        W70714  24.758  22.503   2.019
 5730W        W70715  32.442  41.885   3.239
 5731W        W70716  28.662  36.114   4.458
 5732W        W70717   0.908  32.317  12.616
 5733W        W70718  40.723  18.015   2.249
 5734W        W70719  12.421  43.830  12.041
 5735W        W70720  14.622  34.582   1.298
 5736W        W70721  44.473  29.513   4.152
 5737W        W70722  18.773   6.700   2.841
 5738W        W70723  42.359  25.013   1.306
 5739W        W70724   8.402  44.864   3.176
 5740W        W70725  26.929  30.407   3.297
 5741W        W70726  17.196  24.686   5.086
 5742W        W70727  11.142  35.993   3.135
 5743W        W70728   4.322  11.153   2.198
 5744W        W70729  27.529  21.173   4.702
 5745W        W70730  12.426  41.332   0.600
 5746W        W70731  31.878  27.976  14.299
 5747W        W70732  38.312  31.006   2.905
 5748W        W70733  34.009  10.157   0.707
 5749W        W70734  19.125   5.039  12.572
 5750W        W70735  16.564  39.946   1.984
 5751W        W70736  29.413  18.345   2.095
 5752W        W70737   3.548  14.351  11.551
 5753W        W70738  38.853  32.041  11.419
 5754W        W70739  31.402   8.200  10.315
 5755W        W70740   5.316  41.084   3.188
 5756W        W70741  15.204  36.016  13.867
 5757W        W70742   2.430   7.725  12.947
 5758W        W70743  20.582  37.093  10.945
 5759W        W70744  12.492  22.485   3.304
 5760W        W70745   3.691  25.027  14.322
 5761W        W70746  14.361  35.381  10.713
 5762W        W70747   9.805  28.265   2.391
 5763W        W70748  14.337  36.895  12.546
 5764W        W70749  42.498  13.786  13.439
 5765W        W70750   8.681  32.483  12.785
 5766W        W70751  15.189   0.252   3.481
 5767W        W70752  32.174  14.120  11.256
 5768W        W70753   1.434  25.659  13.985
 5769W        W70754   9.690  41.554   1.641
 5770W        W70755  25.404  13.554   4.718
 5771W        W70756  15.670  16.597   3.685
 5772W        W70757   0.720  40.323   2.647
 5773W        W70758  29.497  27.525  12.558
 5774W        W70759   8.258  10.106   2.867
 5775W        W70760  23.737   9.326  14.521
 5776W        W70761  14.864  10.232   2.358
 5777W        W70762  29.801   4.811  10.663
 5778W        W70763  14.147  20.520   1.243
 5779W        W70764   6.878  12.720  11.389
 5780W        W70765  31.067   2.903  10.182
 5781W        W70766   9.439  27.695   2.907
 5782W        W70767   6.757   0.731   1.880
 5783W        W70768  32.100  13.186   1.402
 5784W        W70769  38.149  28.412  10.765
 5785W        W70770  20.516  16.314  14.585
 5786W        W70771  10.380  19.572   3.674
 5787W        W70772  13.132  43.812  10.979
 5788W        W70773  23.463  40.020   4.952
 5789W        W70774  16.230  20.751  11.501
 5790W        W70775   6.992  32.537   3.076
 5791W        W70776  44.473  16.301   3.632
 5792W        W70777   0.959  22.798  14.976
 5793W        W70778  35.513  31.884  13.036
 5794W        W70779  15.037  41.274  13.086
 5795W        W70780  18.495   5.728   2.700
 5796W        W70781  42.084  44.698  13.475
 5797W        W70782  34.877  30.183  14.754
 5798W        W70783  41.465   0.353   1.946
 5799W        W70784  13.052  36.101   1.393
 5800W        W70785   9.893  33.475   3.266
 5801W        W70786  23.534  36.849  11.642
 5802W        W70787  27.204   0.037  14.032
 5803W        W70788   5.891  42.746   4.436
 5804W        W70789   1.694  41.482   1.609
 5805W        W70790   7.166  38.707  12.763
 5806W        W70791  30.629  31.704  12.479
 5807W        W70792  37.841   7.240   3.472
 5808W        W70793  15.295   0.554   0.738
 5809W        W70794   9.026  12.642   1.120
 5810W        W70795   4.909  38.077   1.873
 5811W        W70796  12.842  39.354   2.348
 5812W        W70797  29.733  20.130   3.279
 5813W        W70798  37.180   4.435   2.572
 5814W        W70799  41.069   1.428  13.292
 5815W        W70800  35.063  30.853   3.100
 5816W        W70801  39.444  42.362   3.280
 5817W        W70802  42.252  41.055   3.372
 5818W        W70803  28.503   6.137  10.117
 5819W        W70804  31.179  31.113   2.438
 5820W        W70805  27.697  33.821  13.334
 5821W        W70806  16.384  16.569  11.106
 5822W        W70807   2.396   7.601   1.874
 5823W        W70808  15.380  17.991  10.758
 5824W        W70809   7.621  10.195   5.059
 5825W        W70810  36.962  25.711  13.175
 5826W        W70811  22.351   9.817  14.299
 5827W        W70812   1.221   0.938   1.725
 5828W        W70813  17.454  36.822   1.912
 5829W        W70814  21.990  19.319   0.341
 5830W        W70815  36.145  21.233  14.618
 5831W        W70816  44.068  18.272  10.079
 5832W        W70817   3.782  14.466  14.764
 5833W        W70818   3.038  37.330   0.583
 5834W        W70819  39.224  44.261  14.810
 5835W        W70820   0.782   3.651   2.703
 5836W        W70821  40.497  30.626   0.968
 5837W        W70822  20.122  39.726  14.843
 5838W        W70823   0.506  30.177   2.637
 5839W        W70824  23.181   2.654   1.057
 5840W        W70825  35.044   2.950   3.558
 5841W        W70826   5.252  34.526   0.713
 5842W        W70827   8.798  33.163   2.670
 5843W        W70828   9.352  39.109  12.347
 5844W        W70829  15.995  20.003   0.759
 5845W        W70830  36.970  29.484   2.732
 5846W        W70831  33.142  42.541  11.843
 5847W        W70832  32.441  31.996   2.736
 5848W        W70833  41.717  22.562  14.530
 5849W        W70834  36.407   6.714   2.270
 5850W        W70835  27.091  27.568  12.709
 5851W        W70836  40.803  31.349   3.636
 5852W        W70837  11.833  17.226  12.014
 5853W        W70838  16.715  21.453   1.968
 5854W        W70839  27.474  10.630  11.566
 5855W        W70840  38.834  19.351  12.447
 5856W        W70841   9.254  32.762   3.745
 5857W        W70842  13.610  21.012   0.436
 5858W        W70843   2.055  32.878  14.493
 5859W        W70844  16.765  40.449   3.667
 5860W        W70845   0.856  19.777  14.919
 5861W        W70846  35.582  19.152   4.111
 5862W        W70847   2.951   5.488  12.498
 5863W        W70848  33.650   5.391  11.887
 5864W        W70849   0.425   5.304   4.148
 5865W        W70850  22.578  26.964  10.969
 5866W        W70851  11.396  42.440  12.479
 5867W        W70852  29.291   6.848   0.400
 5868W        W70853  23.678  32.963  12.148
 5869W        W70854  25.233  26.942  14.381
 5870W        W70855  25.239  17.810   2.785
 5871W        W70856  26.097  35.497   3.232
 5872W        W70857   2.450  34.045   2.783
 5873W        W70858  19.027   4.459   3.819
 5874W        W70859  17.574  23.718  12.526
 5875W        W70860   9.139  18.262   4.665
 5876W        W70861  33.874   1.459   1.920
 5877W        W70862  43.342  25.283   0.868
 5878W        W70863  25.055  12.863   3.388
 5879W        W70864  36.600  25.252   1.879
 5880W        W70865  38.061  28.582  13.022
 5881W        W70866  23.047  25.448  14.808
 5882W        W70867  29.325   7.919   4.624
 5883W        W70868   5.490  32.316  11.975
 5884W        W70869  17.248  10.831   0.337
 5885W        W70870   3.337  19.235  12.371
 5886W        W70871   5.014   2.884   4.208
 5887W        W70872   1.907   6.597  13.301
 5888W        W70873  22.298  29.908   2.751
 5889W        W70874  33.279  30.589  13.375
 5890W        W70875   1.732  16.397  13.338
 5891W        W70876  13.222  40.645   4.534
 5892W        W70877  38.570  26.125  14.957
 5893W        W70878  32.219  37.983  12.876
 5894W        W70879  14.410   3.029  11.447
 5895W        W70880  43.571  21.041  13.632
 5896W        W70881  28.482  42.183   1.228
 5897W        W70882  34.205  25.668  12.365
 5898W        W70883  23.754   9.942  14.539
 5899W        W70884  17.003  11.272  10.223
 5900W        W70885  16.736  41.514  13.469
 5901W        W70886   6.289  39.916   2.946
 5902W        W70887  29.587  41.637   2.873
 5903W        W70888  36.623  22.245   3.205
 5904W        W70889  11.508  11.862  13.712
 5905W        W70890  14.287  41.452   3.433
 5906W        W70891  33.579   4.938  14.872
 5907W        W70892  24.995  14.556  14.456
 5908W        W70893  26.706  27.988   4.648
 5909W        W70894  32.496  36.573   3.721
 5910W        W70895   2.295  31.680  12.510
 5911W        W70896  19.597  31.131  12.764
 5912W        W70897   4.506  40.740  11.077
 5913W        W70898  17.821  43.717   3.118
 5914W        W70899  41.518   1.805  10.531
 5915W        W70900   1.854  18.176  14.797
 5916W        W70901  43.521  37.607   1.043
 5917W        W70902   5.834  12.216   1.844
 5918W        W70903  23.879  32.697   2.586
 5919W        W70904  31.977  32.118   2.537
 5920W        W70905   3.742  44.289   0.978
 5921W        W70906  17.595  20.697   3.612
 5922W        W70907  35.478  37.259   0.959
 5923W        W70908  22.459   5.904  12.288
 5924W        W70909  35.557  29.685   4.646
 5925W        W70910  12.091  38.951   1.345
 5926W        W70911  10.342  20.802  11.131
 5927W        W70912  25.635  18.489   1.569
 5928W        W70913  23.612  30.129   0.883
 5929W        W70914  36.544  19.720   1.112
 5930W        W70915  41.643  13.044  12.352
 5931W        W70916  27.006  44.176  14.357
 5932W        W70917  19.085   4.309   0.253
 5933W        W70918  22.267   6.761   2.225
 5934W        W70919  22.068  27.447  11.995
 5935W        W70920   7.909  43.481   3.691
 5936W        W70921  25.905  33.773  12.328
 5937W        W70922  36.363  40.271   0.001
 5938W        W70923  31.575  24.152  11.527
 5939W        W70924  34.759   0.159  12.054
 5940W        W70925  26.186   3.549  11.642
 5941W        W70926  39.427   5.252   2.636
 5942W        W70927   4.341  27.042   3.369
 5943W        W70928  33.344  33.432  10.593
 5944W        W70929  18.083  22.012   1.347
 5945W        W70930  15.387  11.937   4.221
 5946W        W70931   0.947  15.064  14.003
 5947W        W70932  18.130  25.501  12.462
 5948W        W70933  20.037  22.597   0.326
 5949W        W70934  22.597   0.597   1.224
 5950W        W70935  26.029  42.853  12.072
 5951W        W70936  13.399  26.130  10.592
 5952W        W70937  26.063   6.198   3.780
 5953W        W70938  17.608   5.693   0.824
 5954W        W70939  23.757  25.595   1.266
 5955W        W70940  33.329   5.173  14.465
 5956W        W70941  10.769  26.927  13.304
 5957W        W70942   7.992  10.899   3.153
 5958W        W70943   6.337  29.981  10.685
 5959W        W70944  15.033  21.478   1.725
 5960W        W70945   5.176  37.377  13.325
 5961W        W70946  36.469  29.476   2.582
 5962W        W70947  15.576  31.158  14.696
 5963W        W70948  12.309  43.796  10.905
 5964W        W70949   7.669  11.201  11.161
 5965W        W70950  29.702  39.466   0.252
 5966W        W70951  28.096  34.545   0.408
 5967W        W70952   3.825  33.623   3.652
 5968W        W70953  13.261  33.205   0.800
 5969W        W70954   9.801  19.442  14.063
 5970W        W70955  37.066  32.799   0.847
 5971W        W70956   2.361  41.470   2.757
 5972W        W70957  22.869  14.835  14.356
 5973W        W70958  17.070  37.787   1.819
 5974W        W70959  15.720   6.875  14.918
 5975W        W70960  12.591  17.988  13.901
 5976W        W70961   9.317  25.210   0.418
 5977W        W70962  17.836  34.037   4.542
 5978W        W70963  15.776  31.720   3.704
 5979W        W70964  24.180  22.223   2.691
 5980W        W70965  44.727   8.852   1.736
 5981W        W70966  38.883  37.284  14.405
 5982W        W70967  12.565  28.732  11.098
 5983W        W70968  37.853   0.022   1.498
 5984W        W70969  27.670  28.491   1.497
 5985W        W70970  34.516  26.392   4.562
 5986W        W70971  29.082  34.920   0.346
 5987W        W70972  19.718   0.980   0.477
 5988W        W70973   4.989  24.620   3.757
 5989W        W70974  22.387  41.023  13.820
 5990W        W70975  37.549  13.950   4.619
 5991W        W70976  29.452  17.606   3.715
 5992W        W70977  18.604  40.248   4.799
 5993W        W70978  17.074  32.304  14.210
 5994W        W70979  30.234   8.373   3.837
 5995W        W70980  13.872  38.405  11.161
 5996W        W70981  34.596  30.188   3.445
 5997W        W70982   5.745  31.742  11.971
 5998W        W70983   7.967  26.129  13.602
 5999W        W70984   0.694  29.509  12.448
 6000W        W70985  40.999   9.214  13.006
 6001W        W70986   1.035  28.410  10.736
 6002W        W70987  21.549  37.267   0.735
 6003W        W70988  22.567  41.767  11.131
 6004W        W70989  37.759  21.265   0.873
 6005W        W70990  23.941  38.022  14.281
 6006W        W70991  33.814  39.644   3.143
 6007W        W70992  30.824  25.176   0.828
 6008W        W70993  12.649  32.587  11.195
 6009W        W70994  23.123  41.096   0.103
 6010W        W70995  13.133  37.505   3.134
 6011W        W70996  35.262  42.560  12.505
 6012W        W70997   4.991   9.004  11.516
 6013W        W70998  30.681  26.564   0.261
 6014W        W70999  25.688   1.883   0.879
 6015W        W71000  32.978  26.394   1.366
 6016W        W71001  39.343  29.935  11.947
 6017W        W71002   3.548  14.576  12.400
 6018W        W71003  35.581   3.440   1.200
 6019W        W71004  32.025  42.820  14.023
 6020W        W71005  20.532  40.646  11.983
 6021W        W71006  18.407  24.280   3.988
 6022W        W71007  17.678  37.159   1.578
 6023W        W71008  20.513  15.082   0.263
 6024W        W71009  17.577   7.177   2.405
 6025W        W71010  42.715  21.067  14.714
 6026W        W71011  11.380  24.794  13.939
 6027W        W71012  39.023   9.127   2.034
 6028W        W71013  14.729  39.881  11.578
 6029W        W71014  43.366  27.397   3.828
 6030W        W71015  21.681  26.726   4.986
 6031W        W71016  11.732  40.923  11.515
 6032W        W71017  13.693  30.377   2.801
 6033W        W71018  20.204  40.140  11.295
 6034W        W71019   0.229  30.013   3.045
 6035W        W71020  43.134   7.943   1.927
 6036W        W71021   1.394   0.410   1.575
 6037W        W71022  22.675  23.420  14.293
 6038W        W71023   3.539  33.525  12.359
 6039W        W71024  27.048  16.227   2.471
 6040W        W71025  33.464  32.917   3.792
 6041W        W71026  17.709  20.149  14.523
 6042W        W71027  23.939  35.129   3.264
 6043W        W71028   5.701  28.749   1.491
 6044W        W71029  38.948   4.831  12.513
 6045W        W71030  33.517  39.333   0.308
 6046W        W71031  36.470  23.635   1.163
 6047W        W71032  18.666  33.986  12.430
 6048W        W71033  43.880  14.938  11.516
 6049W        W71034  15.633  43.196   4.993
 6050W        W71035  18.793  35.712  14.786
 6051W        W71036   0.876  33.676  13.397
 6052W        W71037  12.764  20.751   3.551
 6053W        W71038  21.126  25.568   0.412
 6054W        W71039  22.653  41.881   2.839
 6055W        W71040  40.560   7.602  13.541
 6056W        W71041  28.412  19.310   4.311
 6057W        W71042  28.103  44.396  10.921
 6058W        W71043  28.098  40.715   0.365
 6059W        W71044   8.781  26.834   4.895
 6060W        W71045  14.793  13.680  14.698
 6061W        W71046   6.281  43.897  11.125
 6062W        W71047   0.477  12.772   2.672
 6063W        W71048  10.231  33.997   0.972
 6064W        W71049  21.037   9.282   2.079
 6065W        W71050   7.766  24.406  11.166
 6066W        W71051  10.819  37.505   4.500
 6067W        W71052  29.094  12.572  11.375
 6068W        W71053  32.646  18.634  12.558
 6069W        W71054   9.424  40.972  12.394
 6070W        W71055  12.364  43.833   2.244
 6071W        W71056  32.502  15.588  13.683
 6072W        W71057  13.196  29.592  11.146
 6073W        W71058  37.443   8.187   4.732
 6074W        W71059  10.804  39.121   2.643
 6075W        W71060   3.686  33.566   2.712
 6076W        W71061  18.735  32.571   1.739
 6077W        W71062  26.245   8.159  12.022
 6078W        W71063   2.373   6.743  11.579
 6079W        W71064   7.302   8.858  10.703
 6080W        W71065  33.128  21.075   3.568
 6081W        W71066  24.554  25.492  12.194
 6082W        W71067  34.450  30.337  14.993
 6083W        W71068  14.655   4.718  10.762
 6084W        W71069  35.846   8.168  14.775
 6085W        W71070   6.975   3.860   4.480
 6086W        W71071  22.524  34.490  12.226
 6087W        W71072  28.566  42.541  10.551
 6088W        W71073  15.072   0.565  14.967
 6089W        W71074  37.519  35.013   5.066
 6090W        W71075  19.269  15.098  11.451
 6091W        W71076  38.669  32.646  14.961
 6092W        W71077  38.840  16.289  14.789
 6093W        W71078  16.742  32.518  10.729
 6094W        W71079   4.872  21.558  14.747
 6095W        W71080  39.917  32.401   1.914
 6096W        W71081  10.453  33.447  12.756
 6097W        W71082   9.517  10.606  13.502
 6098W        W71083  28.758  42.994  12.329
 6099W        W71084  10.660  42.176   4.513
 6100W        W71085  19.308   0.658  11.069
 6101W        W71086  10.798  21.608  11.624
 6102W        W71087  24.126  20.572  10.709
 6103W        W71088  31.200  17.769   3.917
 6104W        W71089  44.192  26.643   5.076
 6105W        W71090  16.038  44.678   3.354
 6106W        W71091  42.070   1.013  10.826
 6107W        W71092  40.687  17.546   9.404
 6108W        W71093  31.499  21.571  14.007
 6109W        W71094  16.243  41.470  12.531
 6110W        W71095  35.295   6.785  13.345
 6111W        W71096   9.887  35.952   2.576
 6112W        W71097  31.039  22.116   1.577
 6113W        W71098  25.935  16.701  14.799
 6114W        W71099  27.057  25.293  13.973
 6115W        W71100   8.582  31.945  10.714
 6116W        W71101  17.797  44.368  11.550
 6117W        W71102  14.224   4.276   3.906
 6118W        W71103  26.268  27.898   3.187
 6119W        W71104  13.638   8.094   2.732
 6120W        W71105  39.827  35.359   1.629
 6121W        W71106   5.206  33.139   0.257
 6122W        W71107  37.288   2.822   0.303
 6123W        W71108  24.114   3.301  13.957
 6124W        W71109   8.952  41.257  13.764
 6125W        W71110  23.076  17.338   2.179
 6126W        W71111   9.932  25.777  11.145
 6127W        W71112  31.355  42.792  10.775
 6128W        W71113  26.091  29.404  14.746
 6129W        W71114  32.833  37.261   2.732
 6130W        W71115   1.381  23.726  14.948
 6131W        W71116   1.027  32.632  13.471
 6132W        W71117  36.559  40.629   0.333
 6133W        W71118  44.934  15.536   3.689
 6134W        W71119  34.044  21.177   2.159
 6135W        W71120  20.546   9.614   3.590
 6136W        W71121  31.407  37.352   3.288
 6137W        W71122  36.910  27.481   1.908
 6138W        W71123  43.377  27.052   4.200
 6139W        W71124  44.048  31.715   1.680
 6140W        W71125  10.820   1.094  11.890
 6141W        W71126  15.326  36.451  11.138
 6142W        W71127  42.955  43.259   1.666
 6143W        W71128  44.331  39.386   0.276
 6144W        W71129  17.624  39.774   2.601
 6145W        W71130  11.304  44.825  10.757
 6146W        W71131  44.369  29.308  12.076
 6147W        W71132  32.116  42.871   4.246
 6148W        W71133   7.250  43.342   1.250
 6149W        W71134  31.661  27.425   3.874
 6150W        W71135   0.109   0.286   1.732
 6151W        W71136  42.616  27.970  14.633
 6152W        W71137  15.296   7.201  13.128
 6153W        W71138  12.792  21.111  12.251
 6154W        W71139  16.149  35.433   2.407
 6155W        W71140  24.527  19.016  12.077
 6156W        W71141   8.673  28.510  14.559
 6157W        W71142  16.641  22.733  12.608
 6158W        W71143  35.143  30.254  14.324
 6159W        W71144  24.268  22.959  14.313
 6160W        W71145   4.927   0.843  12.474
 6161W        W71146  34.182  17.647   1.657
 6162W        W71147  15.715  39.063  11.221
 6163W        W71148  33.090  29.198   3.346
 6164W        W71149   2.258  32.132   4.664
 6165W        W71150  29.712  12.821  14.048
 6166W        W71151  17.682   5.187  11.896
 6167W        W71152  23.744  41.711   0.744
 6168W        W71153  21.682  12.238  12.427
 6169W        W71154  23.661  24.277   2.847
 6170W        W71155  33.009  29.510   4.678
 6171W        W71156  36.718   0.741   1.748
 6172W        W71157  37.841  19.544   3.003
 6173W        W71158   1.987  12.258  13.808
 6174W        W71159  19.100  26.847  13.321
 6175W        W71160  34.414  27.916   3.779
 6176W        W71161  29.743  25.929  11.196
 6177W        W71162  15.314   8.149  14.890
 6178W        W71163  44.501   3.263  11.756
 6179W        W71164   0.439  19.186  10.207
 6180W        W71165  32.931   2.492   0.478
 6181W        W71166  30.113  27.420   3.332
 6182W        W71167  26.365  32.956   0.250
 6183W        W71168  29.158  20.679  12.998
 6184W        W71169  21.505  24.276  14.927
 6185W        W71170   0.847  33.859  14.014
 6186W        W71171  29.696   2.251   2.181
 6187W        W71172  40.503   9.261   2.142
 6188W        W71173  35.937  35.567   1.804
 6189W        W71174  40.626  38.736   3.663
 6190W        W71175  36.844  43.418   1.165
 6191W        W71176  32.387  19.949   3.201
 6192W        W71177  21.887  24.248  10.789
 6193W        W71178   3.191  12.145  12.984
 6194W        W71179  15.345  25.572   4.089
 6195W        W71180  28.976   1.322  13.376
 6196W        W71181  44.253  28.282  12.960
 6197W        W71182  12.306  13.830  12.133
 6198W        W71183  20.291  24.040   0.240
 6199W        W71184  14.923  11.604  11.648
 6200W        W71185  24.798  21.728   0.510
 6201W        W71186  26.796  19.617   0.780
 6202W        W71187  14.175   7.400  12.698
 6203W        W71188   1.282  24.497  12.490
 6204W        W71189  32.556   4.705   4.359
 6205W        W71190   2.476   1.759  11.206
 6206W        W71191   0.772   7.354  14.857
 6207W        W71192   2.381  28.134  12.903
 6208W        W71193  22.626  44.831   1.533
 6209W        W71194  11.656  16.357  14.328
 6210W        W71195  42.981  21.720   3.235
 6211W        W71196  43.189  26.946  11.524
 6212W        W71197  42.934  16.429  11.987
 6213W        W71198  44.281   4.863   0.080
 6214W        W71199   4.402   5.305   9.547
 6215W        W71200  18.996   8.660  13.385
 6216W        W71201   3.262  17.243  14.520
 6217W        W71202   4.431  44.939   3.991
 6218W        W71203  33.551  23.209  12.666
 6219W        W71204   9.175  19.136   2.598
 6220W        W71205  12.105  44.560  13.462
 6221W        W71206   3.916  28.176  14.854
 6222W        W71207   1.505  37.250  12.051
 6223W        W71208   3.321  36.169  14.031
 6224W        W71209  29.256   0.341  10.652
 6225W        W71210  26.428  37.956  14.514
 6226W        W71211  39.898  39.284  13.428
 6227W        W71212  22.035   1.981  12.275
 6228W        W71213  21.849  12.867  11.977
 6229W        W71214  11.280  37.619   4.737
 6230W        W71215   5.473  41.034   1.481
 6231W        W71216  15.290  39.945  13.008
 6232W        W71217   2.738  44.706   4.098
 6233W        W71218   5.602  43.144   1.821
 6234W        W71219  34.539  26.189   0.454
 6235W        W71220  35.016  11.312  11.101
 6236W        W71221  10.215  42.788  11.867
 6237W        W71222  28.120   1.790  13.792
 6238W        W71223  19.630   6.775  11.638
 6239W        W71224  19.178  11.642  14.412
 6240W        W71225  24.712  14.200  10.594
 6241W        W71226   0.745  38.126  12.081
 6242W        W71227   3.578  39.799  14.424
 6243W        W71228  42.055  22.150  12.697
 6244W        W71229   5.989   8.627  13.502
 6245W        W71230  11.607  11.523  14.874
 6246W        W71231  36.050  44.014   3.619
 6247W        W71232   7.909  25.922   0.622
 6248W        W71233  36.042  13.178  11.163
 6249W        W71234  25.196  12.938  11.661
 6250W        W71235  22.973  41.342   4.140
 6251W        W71236  38.605  39.623   0.365
 6252W        W71237  10.716  32.060  10.483
 6253W        W71238   4.928  12.714  10.720
 6254W        W71239  24.954  32.117  13.116
 6255W        W71240  39.501  18.396  10.736
 6256W        W71241  21.639  36.317   0.272
 6257W        W71242  17.504  33.186   2.483
 6258W        W71243  21.265  17.473  14.793
 6259W        W71244  15.902  14.603   2.559
 6260W        W71245  34.429  17.932  11.037
 6261W        W71246  29.462  23.039  10.421
 6262W        W71247  39.002  35.997  12.423
 6263W        W71248  37.246  25.576  11.236
 6264W        W71249   8.653  23.540  11.734
 6265W        W71250  41.547  15.042   2.407
 6266W        W71251   4.359  18.549   1.879
 6267W        W71252  23.185  32.363  13.328
 6268W        W71253   0.804   1.912   3.212
 6269W        W71254  25.521  35.905  14.320
 6270W        W71255  28.666   6.286  11.945
 6271W        W71256  42.802  37.907  11.168
 6272W        W71257  12.150  32.585  14.958
 6273W        W71258  33.613  33.619  10.999
 6274W        W71259  38.940  43.422  10.669
 6275W        W71260  30.854   7.392  14.010
 6276W        W71261   9.673   1.166  11.087
 6277W        W71262  27.438   1.830   2.335
 6278W        W71263  40.596  35.835   0.481
 6279W        W71264  29.113  14.643   1.221
 6280W        W71265  27.442  14.295   1.277
 6281W        W71266  19.111  22.634   2.765
 6282W        W71267  27.124  20.567   3.570
 6283W        W71268  34.838   6.158   3.934
 6284W        W71269  31.532  39.914   4.086
 6285W        W71270  20.264  32.592  14.769
 6286W        W71271  33.580  33.223  14.273
 6287W        W71272  11.642  16.295   2.755
 6288W        W71273  19.047  33.133   2.408
 6289W        W71274  41.423  11.739   4.255
 6290W        W71275  11.914  39.690   2.241
 6291W        W71276   9.162  39.575   3.685
 6292W        W71277  43.859  27.173   0.732
 6293W        W71278  24.089  23.208   4.215
 6294W        W71279  21.864  39.094   4.114
 6295W        W71280  35.537  12.421  11.384
 6296W        W71281  29.564  22.118   3.704
 6297W        W71282  42.345  31.323  10.744
 6298W        W71283  23.018   6.809   4.150
 6299W        W71284   6.983   8.696  11.538
 6300W        W71285  15.895  42.985   4.097
 6301W        W71286  13.025  42.444  12.122
 6302W        W71287  39.875  16.306   1.343
 6303W        W71288  31.958  40.466  12.034
 6304W        W71289  40.001  10.684   0.356
 6305W        W71290   8.321  25.792  11.334
 6306W        W71291  36.022   2.664  14.014
 6307W        W71292  14.375  32.284  12.099
 6308W        W71293  26.664   6.924  14.939
 6309W        W71294  28.008   6.861   3.715
 6310W        W71295  23.555   2.807   1.393
 6311W        W71296  18.566  17.649  10.591
 6312W        W71297  11.733  20.531  13.992
 6313W        W71298  20.845  30.989  11.078
 6314W        W71299  40.595  24.209   5.001
 6315W        W71300  18.680   8.771   3.163
 6316W        W71301  21.573  23.780  14.771
 6317W        W71302  25.434  33.521  12.617
 6318W        W71303  42.447  43.953   2.395
 6319W        W71304   0.856  32.959  11.892
 6320W        W71305   6.412  42.895   0.403
 6321W        W71306  11.201  19.075  13.050
 6322W        W71307  10.936  19.673  11.081
 6323W        W71308  39.769  44.370   2.803
 6324W        W71309  20.260  28.706  14.241
 6325W        W71310  15.179   3.812   4.139
 6326W        W71311  39.546  43.676   2.908
 6327W        W71312   8.931  11.719   4.131
 6328W        W71313  39.696   6.466  11.102
 6329W        W71314  44.979  44.410   4.959
 6330W        W71315  19.851  20.740  12.890
 6331W        W71316  27.269  10.737   3.681
 6332W        W71317  42.064  18.773   3.725
 6333W        W71318  22.117  13.612   1.844
 6334W        W71319   5.478  32.530  11.092
 6335W        W71320  38.132   4.534   0.882
 6336W        W71321  30.091  18.022   4.173
 6337W        W71322   8.002   6.397   2.620
 6338W        W71323  18.380   5.179   3.599
 6339W        W71324   3.315   2.084   4.510
 6340W        W71325  28.895  19.106   2.920
 6341W        W71326  12.753   0.066  12.013
 6342W        W71327  23.161  19.534   0.821
 6343W        W71328  25.628  11.028  10.650
 6344W        W71329   3.845   4.728   4.725
 6345W        W71330  12.311   8.976   4.406
 6346W        W71331  34.350  43.411  11.195
 6347W        W71332  20.843  12.541   0.717
 6348W        W71333  36.071  10.720   3.710
 6349W        W71334  16.802  38.387  10.735
 6350W        W71335  12.874   2.332   0.446
 6351W        W71336  28.208  42.736  11.528
 6352W        W71337  36.503  20.755   0.389
 6353W        W71338  34.389   8.805  10.415
 6354W        W71339  20.813   3.841  13.068
 6355W        W71340   1.744  29.969  10.758
 6356W        W71341   6.236  41.250  11.989
 6357W        W71342  14.656  43.485   0.248
 6358W        W71343  31.127  30.139   1.884
 6359W        W71344   8.822  15.074  12.154
 6360W        W71345  17.209  18.900  12.070
 6361W        W71346  38.500  20.766  11.982
 6362W        W71347  12.615   2.268   3.220
 6363W        W71348  32.471  34.916   1.389
 6364W        W71349   9.884  34.917  12.968
 6365W        W71350   1.526  38.474   1.141
 6366W        W71351  44.358  36.259   3.676
 6367W        W71352  21.946  29.438  11.390
 6368W        W71353   5.858  35.454   2.351
 6369W        W71354  34.158  10.726  14.291
 6370W        W71355  23.772  18.322   1.717
 6371W        W71356  18.317  22.574  11.142
 6372W        W71357  35.654   2.448   0.025
 6373W        W71358   0.704  27.063   2.597
 6374W        W71359  27.438  33.694  14.886
 6375W        W71360  21.544  18.794  11.304
 6376W        W71361  29.460   0.906   4.660
 6377W        W71362  35.176  15.843  14.354
 6378W        W71363  26.582  15.986   2.331
 6379W        W71364   5.901  43.386   4.630
 6380W        W71365  27.329   5.939   4.000
 6381W        W71366  18.102   1.758   3.653
 6382W        W71367  28.998  37.735  11.745
 6383W        W71368  44.621   0.416  10.297
 6384W        W71369  33.428  11.677  12.454
 6385W        W71370  24.547  28.423  11.305
 6386W        W71371   3.372  21.255  10.739
 6387W        W71372  23.935  18.029   1.320
 6388W        W71373  36.679   9.791   4.106
 6389W        W71374   4.447  13.598  10.728
 6390W        W71375  42.025  31.285   2.481
 6391W        W71376  25.278  43.338  11.114
 6392W        W71377  41.234   4.368  11.514
 6393W        W71378  41.343  27.138  12.999
 6394W        W71379  17.038  44.315  10.821
 6395W        W71380  22.600  24.781   2.305
 6396W        W71381  37.796   6.311   1.137
 6397W        W71382  24.694  14.586  14.867
 6398W        W71383  36.131  26.728   0.324
 6399W        W71384  20.642  32.326   0.705
 6400W        W71385  22.669  26.141   1.855
 6401W        W71386  27.550  21.778  11.601
 6402W        W71387  38.380   8.806  13.912
 6403W        W71388  10.795  27.194   4.481
 6404W        W71389   9.617  30.190  13.946
 6405W        W71390   4.891  44.918  14.072
 6406W        W71391   1.279  28.404  12.428
 6407W        W71392   8.157  11.204   3.640
 6408W        W71393   2.480   4.841   0.774
 6409W        W71394  42.907   7.801  13.356
 6410W        W71395   1.378  18.182  12.981
 6411W        W71396   1.717   0.462   3.683
 6412W        W71397   3.148  30.693   2.403
 6413W        W71398  24.916  38.864   3.140
 6414W        W71399   6.107  25.282   1.279
 6415W        W71400   4.179   5.311  14.829
 6416W        W71401  35.181  39.342  11.157
 6417W        W71402  42.912  16.945  12.111
 6418W        W71403   9.483  15.082   0.019
 6419W        W71404  35.231  26.670  14.206
 6420W        W71405  25.870  37.164   2.449
 6421W        W71406  29.234  25.016   5.031
 6422W        W71407  21.037  10.730  11.480
 6423W        W71408   4.264   8.931  14.461
 6424W        W71409  15.839  44.753   2.326
 6425W        W71410   0.832   3.714  10.548
 6426W        W71411  38.830  15.598  13.104
 6427W        W71412  31.943  32.330   2.045
 6428W        W71413   9.945  42.461   1.927
 6429W        W71414  22.111  40.496  12.884
 6430W        W71415  35.894   1.227  12.983
 6431W        W71416   6.637  24.391  12.144
 6432W        W71417   9.710  28.456  14.652
 6433W        W71418  26.890  35.107  10.263
 6434W        W71419   9.652  40.961  14.397
 6435W        W71420  20.625  36.833  14.992
 6436W        W71421  13.594  30.442  11.687
 6437W        W71422  22.480  27.577   4.299
 6438W        W71423   7.907  42.410   4.240
 6439W        W71424  38.302  34.968  13.550
 6440W        W71425  37.305  41.600  11.556
 6441W        W71426  19.649   9.197   5.034
 6442W        W71427   7.679  11.073  11.676
 6443W        W71428  14.050  23.017  11.395
 6444W        W71429  21.193   5.503   0.821
 6445W        W71430  30.376  28.022  12.840
 6446W        W71431  16.715  28.579  12.238
 6447W        W71432  42.982  26.931   3.201
 6448W        W71433  22.421  16.173  11.974
 6449W        W71434  24.932  23.787   0.755
 6450W        W71435   4.671  40.017   0.828
 6451W        W71436   0.239  14.479  11.991
 6452W        W71437  13.371  25.036   2.919
 6453W        W71438  44.414   9.363  14.741
 6454W        W71439  33.084  41.742   1.815
 6455W        W71440  36.442  37.036   4.359
 6456W        W71441  19.638  36.652  10.745
 6457W        W71442  23.496   0.719   1.821
 6458W        W71443  24.250  20.232  12.942
 6459W        W71444   2.112   3.365  13.457
 6460W        W71445  30.403  24.506   3.531
 6461W        W71446  39.345  33.573   0.007
 6462W        W71447  43.353  10.295  13.427
 6463W        W71448  37.002  42.099   0.758
 6464W        W71449  13.450  33.284  12.295
 6465W        W71450  17.593  15.570  11.118
 6466W        W71451  35.157  37.108   4.900
 6467W        W71452  25.108  40.746  12.464
 6468W        W71453  40.711   0.864  13.843
 6469W        W71454  20.246  13.644   3.881
 6470W        W71455  40.152   9.845   1.146
 6471W        W71456  24.126   3.929   3.188
 6472W        W71457   9.130  44.307   0.746
 6473W        W71458  20.603  30.940   4.707
 6474W        W71459  41.269  19.048   0.254
 6475W        W71460   2.816  42.228  14.361
 6476W        W71461  18.945  28.496   5.014
 6477W        W71462   5.476  22.690   1.224
 6478W        W71463   4.560   8.704  13.697
 6479W        W71464  35.868   5.213  11.041
 6480W        W71465  27.377  21.071   1.307
 6481W        W71466   7.647  11.023  12.472
 6482W        W71467  28.658  18.010  13.962
 6483W        W71468  38.556  41.182  12.093
 6484W        W71469  34.707  35.503  11.440
 6485W        W71470  24.149  40.511  12.713
 6486W        W71471  37.004  10.866   2.403
 6487W        W71472  15.733   0.753   5.114
 6488W        W71473  43.367  20.811   1.247
 6489W        W71474  44.497   1.763  12.551
 6490W        W71475  34.574  15.272   2.243
 6491W        W71476  26.955  25.470  11.947
 6492W        W71477   4.724  30.655  11.048
 6493W        W71478  44.555  26.979   0.265
 6494W        W71479  22.948  19.305   1.349
 6495W        W71480  18.063  41.408   1.904
 6496W        W71481   2.820  31.511  12.559
 6497W        W71482  17.752  20.848   0.820
 6498W        W71483  33.381  16.117  14.068
 6499W        W71484  25.146  40.842   1.748
 6500W        W71485  24.433  43.751  11.122
 6501W        W71486   4.197  23.732  13.910
 6502W        W71487  28.787  39.023  10.673
 6503W        W71488   1.706  32.009   1.335
 6504W        W71489  33.660  22.193  11.447
 6505W        W71490  33.021  43.291  13.671
 6506W        W71491  42.897  17.586  12.052
 6507W        W71492  39.024  35.448   2.777
 6508W        W71493  22.376  19.679  10.140
 6509W        W71494  42.080  39.511  13.202
 6510W        W71495  38.390   1.970   2.563
 6511W        W71496  33.470  40.567  12.557
 6512W        W71497  22.202  17.807   4.142
 6513W        W71498  12.311  26.261  11.994
 6514W        W71499  28.014  19.698   4.938
 6515W        W71500  38.982  43.391  12.350
 6516W        W71501  20.648  24.492  11.060
 6517W        W71502  19.872  20.682  11.105
 6518W        W71503  28.395  38.490   3.768
 6519W        W71504   6.642  28.761  14.429
 6520W        W71505  29.563  43.185   2.759
 6521W        W71506  40.746  37.375  12.784
 6522W        W71507  24.721  17.811  10.785
 6523W        W71508  28.108  37.248   2.658
 6524W        W71509  35.539  29.590   1.789
 6525W        W71510  11.880  16.153   2.312
 6526W        W71511  23.422  17.723   3.497
 6527W        W71512  31.472   6.616   0.686
 6528W        W71513   6.550  41.615  12.389
 6529W        W71514  28.097  26.882   2.570
 6530W        W71515  18.729  13.590  11.906
 6531W        W71516  37.737  17.571  13.629
 6532W        W71517  37.012  15.109   4.031
 6533W        W71518  20.923  36.409  14.850
 6534W        W71519  33.130  25.579  11.008
 6535W        W71520   9.306   2.136  14.312
 6536W        W71521  25.334   2.278   0.845
 6537W        W71522   7.292  32.674  10.959
 6538W        W71523  37.802  13.823   1.981
 6539W        W71524  20.154  24.517   2.827
 6540W        W71525  36.898  40.067   3.286
 6541W        W71526  44.848  22.035   0.814
 6542W        W71527  33.713   1.237  13.694
 6543W        W71528  24.277  41.812   0.742
 6544W        W71529   6.409  34.173   0.496
 6545W        W71530   6.924   6.894  13.408
 6546W        W71531  27.627  26.551   2.377
 6547W        W71532  36.862  41.404   3.408
 6548W        W71533  44.993  41.299   0.492
 6549W        W71534  18.326  30.561   3.713
 6550W        W71535  22.086  14.076  13.541
 6551W        W71536  20.577  16.226  13.076
 6552W        W71537  38.390   1.563  10.946
 6553W        W71538  33.663   7.143   3.109
 6554W        W71539  44.380   3.376  12.676
 6555W        W71540   0.498  19.362  12.564
 6556W        W71541  26.911  15.254  10.656
 6557W        W71542  10.832  30.640   3.197
 6558W        W71543  13.604  27.599  14.769
 6559W        W71544   9.234  34.408  11.746
 6560W        W71545   7.282   0.210   0.750
 6561W        W71546  21.938  32.717   5.173
 6562W        W71547  11.177  12.553  12.025
 6563W        W71548   4.765  12.847   5.086
 6564W        W71549  39.515  31.337  13.325
 6565W        W71550  10.204  27.479  10.490
 6566W        W71551  16.170  14.340   4.797
 6567W        W71552  13.305  27.286   4.985
 6568W        W71553   4.278  16.389   2.870
 6569W        W71554  25.109  28.245  13.983
 6570W        W71555  41.025  39.568   4.712
 6571W        W71556  25.861  32.200   3.544
 6572W        W71557  18.561   2.789   0.191
 6573W        W71558  34.441   9.324   4.045
 6574W        W71559  22.178  43.405   0.921
 6575W        W71560  18.326  43.403   1.030
 6576W        W71561  42.886  29.500   0.826
 6577W        W71562  16.943  21.164   1.311
 6578W        W71563   7.068   5.272   3.845
 6579W        W71564   0.386  40.321  13.913
 6580W        W71565   3.496  23.499  11.621
 6581W        W71566  28.184   5.749  10.253
 6582W        W71567  13.805   2.350   2.705
 6583W        W71568  10.137  44.487   3.776
 6584W        W71569  36.123   1.216  14.210
 6585W        W71570  10.208   0.794  13.881
 6586W        W71571  42.552   0.403  13.921
 6587W        W71572  40.503  36.867  14.439
 6588W        W71573  16.281  31.554   0.310
 6589W        W71574  41.386  44.759  14.771
 6590W        W71575  28.140  25.306  11.520
 6591W        W71576  23.799  28.733  13.446
 6592W        W71577  11.281  19.638  14.248
 6593W        W71578  39.055  22.246   1.251
 6594W        W71579  28.677   7.969  12.555
 6595W        W71580  28.053   0.412   2.342
 6596W        W71581  33.576   9.849  14.502
 6597W        W71582  30.523   9.426  11.011
 6598W        W71583  10.793  18.719  12.103
 6599W        W71584  43.923  43.897   3.534
 6600W        W71585   4.536   8.420  11.027
 6601W        W71586  20.201  21.209   2.271
 6602W        W71587  13.297  41.013   3.370
 6603W        W71588   6.389  21.552   1.399
 6604W        W71589  20.220  13.577   4.408
 6605W        W71590  10.090  38.955  11.929
 6606W        W71591   0.346   3.248  14.972
 6607W        W71592   0.932  20.835   4.745
 6608W        W71593  39.429   5.082   4.045
 6609W        W71594  19.716   4.959  11.478
 6610W        W71595  30.997  35.054   3.746
 6611W        W71596   0.471  30.950  14.385
 6612W        W71597   7.733   4.666   1.180
 6613W        W71598  38.295  43.993   2.620
 6614W        W71599   0.968  35.961  10.865
 6615W        W71600  38.632  19.020   2.913
 6616W        W71601   9.758  33.352  11.941
 6617W        W71602  12.810  43.282   4.606
 6618W        W71603  23.020  19.344   0.212
 6619W        W71604   7.217   3.955   2.671
 6620W        W71605  39.128  21.241   4.649
 6621W        W71606  18.009  38.011   3.452
 6622W        W71607  39.977  25.532  13.971
 6623W        W71608   9.023  30.865  12.914
 6624W        W71609   4.638  33.888  11.620
 6625W        W71610  40.251  44.847  13.229
 6626W        W71611  35.781  12.771  10.968
 6627W        W71612   4.424  19.028  14.947
 6628W        W71613  17.425  36.937   3.757
 6629W        W71614   0.997  20.232   0.714
 6630W        W71615  38.805  35.945   1.819
 6631W        W71616  13.215  36.854  10.526
 6632W        W71617   6.189  28.494  14.533
 6633W        W71618   7.306  15.370   0.483
 6634W        W71619   0.653  25.966  11.710
 6635W        W71620  28.954   2.897   3.632
 6636W        W71621  24.439  23.969   1.777
 6637W        W71622  41.451  22.715   2.620
 6638W        W71623  44.399  31.536   3.118
 6639W        W71624  31.687   8.454   2.795
 6640W        W71625   5.395  35.861   4.176
 6641W        W71626   9.577  20.586  13.540
 6642W        W71627  10.802   2.972   1.757
 6643W        W71628  35.815  39.807   2.203
 6644W        W71629  25.587  18.823  14.938
 6645W        W71630   2.162   1.166   5.163
 6646W        W71631  39.365  12.078  14.237
 6647W        W71632  33.083  21.866   3.015
 6648W        W71633  19.720  12.244  10.355
 6649W        W71634  15.244  18.586   2.378
 6650W        W71635   5.383  20.633  13.958
 6651W        W71636  36.614  44.686  14.016
 6652W        W71637   8.053  16.825   3.285
 6653W        W71638  18.985   3.870   0.480
 6654W        W71639  24.638  33.947   1.829
 6655W        W71640  35.952  27.856   2.962
 6656W        W71641   3.879  35.607  11.540
 6657W        W71642  34.307  25.279   3.517
 6658W        W71643  42.550   1.719   1.935
 6659W        W71644   9.233  44.426   4.563
 6660W        W71645  10.543  35.487   1.676
 6661W        W71646  40.791   0.915   3.338
 6662W        W71647   6.689  19.764  14.727
 6663W        W71648  31.950  38.986   1.094
 6664W        W71649  44.902  44.312  10.674
 6665W        W71650  34.464  30.595   2.662
 6666W        W71651  11.334   1.217  14.473
 6667W        W71652   4.296  43.741   2.662
 6668W        W71653  34.111  33.878   2.266
 6669W        W71654  42.843  18.953  13.579
 6670W        W71655   4.747   7.381  13.627
 6671W        W71656  13.527  24.717  10.541
 6672W        W71657  25.895  42.834  13.030
 6673W        W71658  10.198  27.039  11.638
 6674W        W71659  14.896  13.131  12.143
 6675W        W71660   3.162  24.485   1.341
 6676W        W71661  31.951  38.231   3.757
 6677W        W71662  30.060  39.069  14.360
 6678W        W71663  38.353  14.193  12.213
 6679W        W71664  30.625   8.687   3.736
 6680W        W71665  23.095  44.034   1.816
 6681W        W71666  23.718  34.465   4.612
 6682W        W71667  10.954   0.801  11.097
 6683W        W71668  13.077  31.222   1.793
 6684W        W71669   2.014  13.690  10.976
 6685W        W71670  41.004   0.529  11.293
 6686W        W71671  15.025  39.452  11.539
 6687W        W71672   8.224  33.889  11.210
 6688W        W71673  35.617  36.593  11.990
 6689W        W71674  16.350  15.276   3.081
 6690W        W71675   5.368   3.846   3.219
 6691W        W71676  26.579   2.823  13.127
 6692W        W71677  38.365   3.065   4.318
 6693W        W71678  16.581  37.584  13.931
 6694W        W71679  31.406  20.390   4.064
 6695W        W71680   4.303   8.440   0.290
 6696W        W71681  44.229  24.906   2.761
 6697W        W71682  18.746  10.919  12.904
 6698W        W71683  18.679  40.328   0.988
 6699W        W71684   6.906   3.957  10.322
 6700W        W71685  31.814   4.969  11.927
 6701W        W71686  22.381   9.600   3.567
 6702W        W71687  25.020  25.583  12.480
 6703W        W71688   9.344  32.957   0.775
 6704W        W71689  34.998  33.395  11.176
 6705W        W71690  28.380   0.268   4.219
 6706W        W71691  15.287  34.046  10.847
 6707W        W71692   4.634  36.595   2.265
 6708W        W71693   4.772  36.578  13.028
 6709W        W71694  32.027  18.533   4.979
 6710W        W71695  28.481  22.983  10.520
 6711W        W71696   8.675  19.658   2.683
 6712W        W71697  10.284  20.678  12.983
 6713W        W71698  15.266  21.659   3.060
 6714W        W71699  16.772  26.313   2.499
 6715W        W71700  29.478   1.631   0.944
 6716W        W71701  37.444  38.494  10.992
 6717W        W71702  23.678  26.522  13.908
 6718W        W71703  18.111   1.800   0.032
 6719W        W71704  41.539  36.165  14.870
 6720W        W71705  38.922  28.984  12.818
 6721W        W71706  38.950  15.725  13.610
 6722W        W71707   6.299  28.644   9.936
 6723W        W71708  32.837  29.922  13.813
 6724W        W71709   0.765  40.826  13.963
 6725W        W71710  14.858  33.375  11.104
 6726W        W71711  28.126  26.073  13.447
 6727W        W71712  11.152  20.248  10.805
 6728W        W71713  19.701  32.628  14.466
 6729W        W71714   6.113  39.922   4.658
 6730W        W71715  39.517  28.969  10.616
 6731W        W71716  21.136  37.571   4.592
 6732W        W71717  14.839   0.382   1.499
 6733W        W71718  34.519  21.802   1.899
 6734W        W71719  32.657  44.874   3.268
 6735W        W71720  43.377  20.922  12.601
 6736W        W71721  22.758  13.332   1.760
 6737W        W71722  36.811  31.475  12.889
 6738W        W71723  40.309  35.541  13.819
 6739W        W71724  33.883   2.235  13.460
 6740W        W71725  40.434  17.318   2.697
 6741W        W71726  30.547  12.750   0.512
 6742W        W71727  29.962  26.961  11.636
 6743W        W71728  31.870  24.097  10.679
 6744W        W71729  37.098  13.876  13.544
 6745W        W71730  20.027  15.073   1.215
 6746W        W71731  44.498  31.408   2.616
 6747W        W71732  12.730   8.718   1.274
 6748W        W71733   6.710   7.356  12.455
 6749W        W71734  23.195   5.903  14.353
 6750W        W71735  20.176  25.051   4.474
 6751W        W71736  23.758  34.889  13.926
 6752W        W71737   1.902  29.045   2.856
 6753W        W71738  37.049  41.626   2.271
 6754W        W71739   6.478  10.108  12.930
 6755W        W71740  13.115  31.412   2.567
 6756W        W71741  14.918  14.692   3.920
 6757W        W71742  15.858  20.593   5.675
 6758W        W71743  19.307   9.875   1.467
 6759W        W71744  34.173   6.660  12.358
 6760W        W71745  24.550  25.641  12.714
 6761W        W71746  34.495  42.382  12.055
 6762W        W71747  16.271  10.464   2.869
 6763W        W71748  33.928  11.337   0.299
 6764W        W71749  11.210  29.566  14.608
 6765W        W71750  20.985  25.691  11.084
 6766W        W71751  34.887   9.457   0.684
 6767W        W71752   0.183  37.384  14.617
 6768W        W71753  42.776   6.390   4.557
 6769W        W71754  30.619  20.058   4.682
 6770W        W71755  22.574  34.127   4.222
 6771W        W71756  25.995  35.999   3.397
 6772W        W71757  40.783  19.697   2.723
 6773W        W71758  22.992  18.996   1.765
 6774W        W71759  30.648  32.496  11.356
 6775W        W71760  14.333   2.358   1.241
 6776W        W71761   5.888  33.059   0.035
 6777W        W71762   7.006  18.135   2.704
 6778W        W71763   1.955  15.037  12.346
 6779W        W71764   8.287  20.868  12.019
 6780W        W71765  27.457  36.626   2.968
 6781W        W71766   0.275   8.172  11.950
 6782W        W71767  17.476  42.001   2.211
 6783W        W71768  31.609  35.991   1.707
 6784W        W71769  27.517   8.663   3.367
 6785W        W71770  12.120   3.239   0.122
 6786W        W71771  15.508   1.775   0.581
 6787W        W71772  33.066   4.845  14.809
 6788W        W71773  23.569   0.041  11.137
 6789W        W71774   6.849  38.159  13.924
 6790W        W71775  33.696  24.116  11.716
 6791W        W71776  21.330  32.120   3.675
 6792W        W71777   0.768  37.974   1.243
 6793W        W71778  20.995  11.170  12.940
 6794W        W71779  34.131   6.550   0.919
 6795W        W71780  30.353  42.897  14.468
 6796W        W71781  43.463  25.024   3.234
 6797W        W71782  41.946   4.914   3.650
 6798W        W71783  43.670   7.961  14.775
 6799W        W71784  19.063  27.574  13.767
 6800W        W71785  10.488  20.543   3.632
 6801W        W71786  12.326  24.272  13.982
 6802W        W71787  44.215  16.961  10.123
 6803W        W71788   1.024  27.105  11.699
 6804W        W71789  12.248  28.509   4.177
 6805W        W71790  13.777  28.637  13.922
 6806W        W71791  15.950  11.241  11.125
 6807W        W71792   4.815  23.246  13.822
 6808W        W71793  30.446  26.679  13.529
 6809W        W71794   6.263  38.767  12.521
 6810W        W71795  34.261  19.310   4.102
 6811W        W71796  36.919  30.580   0.876
 6812W        W71797  36.038  38.257  11.206
 6813W        W71798  40.813  21.405   1.807
 6814W        W71799  35.027  26.910  11.575
 6815W        W71800   2.171   1.962   4.109
 6816W        W71801   4.263  35.169  10.254
 6817W        W71802  34.203  35.185   3.282
 6818W        W71803   3.057  21.812  11.081
 6819W        W71804  15.628  35.882   3.753
 6820W        W71805  26.505  35.907  13.371
 6821W        W71806  27.279  28.494  11.180
 6822W        W71807   6.273  39.448   0.453
 6823W        W71808   7.426  18.555   3.082
 6824W        W71809  34.580  30.447  13.428
 6825W        W71810  34.060  25.427   4.693
 6826W        W71811  20.599  29.663  10.631
 6827W        W71812   7.542   2.665   4.204
 6828W        W71813   2.404  40.314   0.883
 6829W        W71814  23.820  17.685  10.449
 6830W        W71815  41.840  30.865   1.255
 6831W        W71816   1.581  28.817  12.487
 6832W        W71817  15.693  15.713  14.840
 6833W        W71818   5.823  38.523  13.102
 6834W        W71819   1.404  39.078  14.035
 6835W        W71820  30.685   0.324   4.614
 6836W        W71821  12.895   3.253  11.672
 6837W        W71822  22.423   6.278   2.435
 6838W        W71823  14.692   2.530  10.692
 6839W        W71824   9.364  19.252  12.430
 6840W        W71825  18.708  30.891  12.826
 6841W        W71826  14.764  33.391   0.453
 6842W        W71827  13.798  29.416   2.404
 6843W        W71828  31.539   4.046   4.146
 6844W        W71829  22.530  17.949  11.440
 6845W        W71830   9.523  14.353   4.943
 6846W        W71831   0.446   5.911  10.764
 6847W        W71832  19.237  26.222  12.842
 6848W        W71833  18.190  42.660   3.854
 6849W        W71834  31.613   9.308   2.710
 6850W        W71835  38.881   2.980   1.738
 6851W        W71836  20.367  16.837   4.405
 6852W        W71837  44.884   9.166  11.596
 6853W        W71838  26.248  28.396  11.099
 6854W        W71839   3.351   9.338   2.640
 6855W        W71840   4.862  23.123  13.300
 6856W        W71841  18.594   1.005   2.316
 6857W        W71842  21.282  10.363  13.990
 6858W        W71843  14.150  13.729  14.391
 6859W        W71844  41.413   3.568  14.940
 6860W        W71845  14.322  28.646  13.222
 6861W        W71846  33.182  25.871   1.960
 6862W        W71847  18.627   2.531   2.367
 6863W        W71848  26.804   7.090   4.156
 6864W        W71849   1.813   6.445  14.728
 6865W        W71850  27.566  11.135   0.938
 6866W        W71851  24.452   1.830  12.409
 6867W        W71852  29.037  27.055  11.654
 6868W        W71853  11.894   0.489  14.521
 6869W        W71854  33.689  30.590   2.707
 6870W        W71855  11.534  44.095   3.280
 6871W        W71856   5.881  13.816  10.493
 6872W        W71857  36.069  13.036  14.924
 6873W        W71858  38.324   2.281   0.178
 6874W        W71859  13.615  27.136  12.385
 6875W        W71860  40.240  16.208  13.457
 6876W        W71861  39.148   7.213   1.595
 6877W        W71862  15.277  38.474   4.969
 6878W        W71863  14.143  11.931   2.695
 6879W        W71864  17.623  15.385   2.559
 6880W        W71865  28.889  15.757   1.078
 6881W        W71866  27.703  44.092  11.049
 6882W        W71867  43.690  29.969   3.354
 6883W        W71868  39.085  14.282  14.437
 6884W        W71869  27.980  31.104  14.416
 6885W        W71870  31.025  12.363   4.614
 6886W        W71871   6.896  26.311  10.595
 6887W        W71872  24.119  12.724   3.884
 6888W        W71873  36.323  34.121  10.491
 6889W        W71874  36.790   8.807   4.591
 6890W        W71875  10.217  33.971   4.318
 6891W        W71876  15.581   6.248   2.175
 6892W        W71877  39.363   6.418  14.194
 6893W        W71878  11.659  18.687  14.491
 6894W        W71879  32.962   3.776   0.921
 6895W        W71880  23.899   3.635   0.455
 6896W        W71881  24.550   9.635  10.729
 6897W        W71882  39.230  30.407   1.899
 6898W        W71883  30.486  29.386  11.878
 6899W        W71884   7.196  42.536   4.633
 6900W        W71885   2.706  23.940  11.648
 6901W        W71886  39.870  13.838   3.673
 6902W        W71887  37.990  15.831   1.390
 6903W        W71888   8.355  17.622  14.057
 6904W        W71889  16.190  40.517  11.709
 6905W        W71890  11.248   7.804   1.764
 6906W        W71891  29.841  44.028   2.539
 6907W        W71892  41.484  36.114   2.161
 6908W        W71893  25.836  29.061   0.519
 6909W        W71894  34.537  34.848   4.213
 6910W        W71895  14.709   5.272   0.147
 6911W        W71896   4.259   0.889   4.318
 6912W        W71897   1.571  24.443   2.267
 6913W        W71898  35.974  15.376  10.862
 6914W        W71899  35.162  37.308   3.621
 6915W        W71900  19.014  35.646  13.514
 6916W        W71901  10.420  26.946   1.375
 6917W        W71902   6.347  31.967   4.058
 6918W        W71903  26.036   7.926  12.459
 6919W        W71904  36.150  32.584   3.756
 6920W        W71905  11.140   1.274   4.709
 6921W        W71906  29.969  24.319   3.757
 6922W        W71907  12.650  22.065  12.356
 6923W        W71908  17.538  21.256  13.612
 6924W        W71909  29.613  37.370   2.707
 6925W        W71910  36.023   2.012   4.018
 6926W        W71911   1.752  17.675   3.674
 6927W        W71912   2.884  24.161   0.997
 6928W        W71913  19.675  12.858   4.159
 6929W        W71914  34.785  31.100   0.423
 6930W        W71915  13.057  36.590   4.093
 6931W        W71916  36.358  24.661   3.733
 6932W        W71917  33.682  10.894  12.795
 6933W        W71918   9.902   9.313  13.257
 6934W        W71919  37.433  28.683  11.144
 6935W        W71920  15.151  13.356   3.143
 6936W        W71921  20.260  32.926   4.501
 6937W        W71922  43.548   5.716  13.381
 6938W        W71923  24.482  31.353  13.374
 6939W        W71924  24.021  42.932   1.220
 6940W        W71925  37.452  23.565  12.513
 6941W        W71926  34.498  37.558  10.405
 6942W        W71927   9.005  41.200   0.500
 6943W        W71928  15.512  38.901  13.576
 6944W        W71929  25.102   8.147   4.575
 6945W        W71930  35.925  14.389   3.254
 6946W        W71931  40.587  24.592   4.061
 6947W        W71932   4.379  41.018   2.117
 6948W        W71933  29.463  34.123   3.654
 6949W        W71934  39.977  30.662   4.583
 6950W        W71935  26.031  14.171  13.935
 6951W        W71936  18.263  10.346  14.823
 6952W        W71937  30.638  43.593  13.497
 6953W        W71938  19.886   3.349  14.743
 6954W        W71939  13.214  16.619  10.414
 6955W        W71940  12.155  20.101  10.747
 6956W        W71941  28.823  11.765   1.283
 6957W        W71942  27.672  15.159  11.018
 6958W        W71943  38.450  24.291   4.144
 6959W        W71944   8.877  11.735   3.615
 6960W        W71945  41.822  33.658  10.718
 6961W        W71946  24.976  12.238   0.641
 6962W        W71947  27.587  20.779   3.729
 6963W        W71948  28.345  16.975  11.016
 6964W        W71949  26.407  20.250  13.577
 6965W        W71950  17.082  24.566   2.929
 6966W        W71951  22.780  32.812   2.199
 6967W        W71952  19.033  31.079   2.314
 6968W        W71953  28.359  18.592   0.870
 6969W        W71954   4.851  16.804   3.876
 6970W        W71955  37.012  24.002   1.852
 6971W        W71956  27.095  23.934   4.755
 6972W        W71957  18.356  38.495   1.317
 6973W        W71958   2.719  13.635   4.512
 6974W        W71959   8.004  17.969   2.801
 6975W        W71960  20.147   6.900   1.727
 6976W        W71961  19.120  10.362   2.845
 6977W        W71962  35.035  11.808  10.928
 6978W        W71963  43.430   5.343   0.164
 6979W        W71964  19.711  34.139   3.145
 6980W        W71965  41.489  17.746   0.077
 6981W        W71966   8.494  37.054   0.821
 6982W        W71967  43.521  36.082   3.295
 6983W        W71968  28.023  12.179   1.664
 6984W        W71969  23.452  19.189   1.425
 6985W        W71970  31.235   8.119  11.461
 6986W        W71971  36.314  20.228  12.909
 6987W        W71972  15.094  11.392   1.901
 6988W        W71973  16.391  23.165  11.917
 6989W        W71974  41.323  35.188   2.454
 6990W        W71975  44.008   2.228   0.314
 6991W        W71976  44.754   4.370  12.076
 6992W        W71977   6.665   9.665   9.738
 6993W        W71978  37.321  39.467   1.332
 6994W        W71979  19.143  38.355  14.055
 6995W        W71980  22.735  11.762   2.811
 6996W        W71981  40.861   4.356   0.097
 6997W        W71982  18.157  44.322  11.169
 6998W        W71983  23.149  28.709  12.657
 6999W        W71984   1.884   9.950  11.088
 7000W        W71985   1.966  42.007   1.825
 7001W        W71986  44.421  43.733  13.491
 7002W        W71987  23.236   7.911   1.463
 7003W        W71988  37.850  36.934   5.038
 7004W        W71989  29.421  31.010   3.750
 7005W        W71990  39.439  36.842   1.432
 7006W        W71991  36.960  42.754   4.619
 7007W        W71992  42.052  22.475  11.097
 7008W        W71993   5.762  36.649   1.301
 7009W        W71994  22.143  29.392  13.930
 7010W        W71995  41.268  21.188   2.223
 7011W        W71996  14.723  30.635   1.360
 7012W        W71997  14.369  30.684   4.224
 7013W        W71998  16.184  35.951   4.274
 7014W        W71999   1.828  33.692  14.960
 7015W        W72000  37.794  32.357   4.802
 7016W        W72001  24.075   4.641   4.945
 7017W        W72002  22.593  34.369  10.932
 7018W        W72003  22.273   6.317  12.039
 7019W        W72004  38.306   2.326  13.738
 7020W        W72005  27.013   7.771   3.339
 7021W        W72006  10.323   4.426   0.264
 7022W        W72007   2.648  31.702  11.170
 7023W        W72008  34.629  35.969   1.437
 7024W        W72009   1.527  23.976   4.417
 7025W        W72010  21.289  31.337  11.157
 7026W        W72011   2.973  32.110  12.906
 7027W        W72012  21.706   4.441  13.112
 7028W        W72013   9.290  23.235  13.410
 7029W        W72014  32.087  39.551   4.614
 7030W        W72015  30.068  36.833  13.787
 7031W        W72016  27.609  31.104  12.029
 7032W        W72017  12.677  26.685   3.673
 7033W        W72018  26.691   4.371  12.028
 7034W        W72019  35.275  28.550   4.049
 7035W        W72020  35.493  11.542   0.862
 7036W        W72021   4.458  26.504   1.196
 7037W        W72022  16.268   9.473  10.904
 7038W        W72023  27.997  10.656  13.073
 7039W        W72024  29.640   3.021  10.125
 7040W        W72025   0.388  28.554  12.509
 7041W        W72026  12.773  11.683  13.814
 7042W        W72027  12.908  22.668   1.913
 7043W        W72028  12.868  35.157   2.260
 7044W        W72029  38.628  25.226   9.844
 7045W        W72030  21.128  27.153  11.195
 7046W        W72031  44.483  25.870  11.185
 7047W        W72032  28.744  28.440   4.595
 7048W        W72033  23.988  36.063   0.732
 7049W        W72034   0.932   4.770  10.613
 7050W        W72035  38.567  37.276  13.976
 7051W        W72036  34.455  29.691   4.645
 7052W        W72037  33.097  44.141  11.150
 7053W        W72038  19.476  12.270   4.874
 7054W        W72039  30.512  30.886  12.867
 7055W        W72040   6.737  28.861   3.556
 7056W        W72041  24.184  44.007  11.552
 7057W        W72042  23.627  41.558   1.269
 7058W        W72043  27.497   0.954  13.363
 7059W        W72044  16.448  30.424   2.337
 7060W        W72045  42.151  39.573   0.365
 7061W        W72046   2.810  19.762   0.915
 7062W        W72047  25.349   7.542   3.130
 7063W        W72048  24.069  19.480  10.623
 7064W        W72049  15.144  19.089   2.520
 7065W        W72050  30.675  20.108   3.632
 7066W        W72051  12.772  12.265  10.515
 7067W        W72052  13.715  37.357   0.956
 7068W        W72053   4.783  15.315   0.528
 7069W        W72054  44.190  12.774   1.009
 7070W        W72055  43.846   6.365  13.245
 7071W        W72056  27.101  24.034  13.442
 7072W        W72057  40.428  31.205  14.677
 7073W        W72058   1.895  20.731  11.905
 7074W        W72059  41.379  42.756   2.716
 7075W        W72060  27.138  18.857   3.551
 7076W        W72061  39.332  24.506  10.441
 7077W        W72062  20.793  23.533  11.267
 7078W        W72063   4.291  42.826   2.073
 7079W        W72064  22.720  23.655  13.416
 7080W        W72065  34.803  23.166   0.828
 7081W        W72066  35.913  19.577   0.709
 7082W        W72067  25.690  39.322  14.798
 7083W        W72068  22.034   1.436   1.624
 7084W        W72069   4.303  34.555  13.404
 7085W        W72070  32.993   5.420  13.532
 7086W        W72071  24.794  11.944   3.669
 7087W        W72072  38.986  22.682   3.147
 7088W        W72073   3.317  30.904   0.753
 7089W        W72074  40.381  12.783  12.550
 7090W        W72075  15.646   1.030  13.981
 7091W        W72076  10.904  24.755   2.818
 7092W        W72077   8.266  38.443   4.888
 7093W        W72078   8.073  41.827  11.913
 7094W        W72079  20.870  18.786   2.338
 7095W        W72080  21.451  19.137  13.990
 7096W        W72081  27.726   1.895   1.859
 7097W        W72082   5.483  14.287   4.141
 7098W        W72083  11.153  13.588   3.243
 7099W        W72084  29.989  11.778   2.762
 7100W        W72085   4.151  27.611   2.102
 7101W        W72086  29.322  42.362   0.487
 7102W        W72087   8.870  33.567   2.287
 7103W        W72088   9.563  21.699  12.156
 7104W        W72089  36.177   2.878  10.729
 7105W        W72090  10.016   5.880   4.542
 7106W        W72091   9.353  41.828  10.952
 7107W        W72092   2.294  33.001   2.433
 7108W        W72093   7.566   9.316  10.722
 7109W        W72094  22.227  36.420   4.811
 7110W        W72095  14.188  34.307  10.504
 7111W        W72096  20.251  11.163   4.296
 7112W        W72097  28.373  31.960  11.588
 7113W        W72098  11.669  33.953   0.331
 7114W        W72099  32.759  41.335   1.741
 7115W        W72100  24.770  32.915   2.805
 7116W        W72101   6.462   7.873  13.777
 7117W        W72102  22.868  28.410   1.193
 7118W        W72103  44.550  39.612  14.831
 7119W        W72104  37.554  40.572  13.516
 7120W        W72105  12.110  38.808  11.613
 7121W        W72106   0.304  38.488   1.877
 7122W        W72107  16.157  29.098   4.087
 7123W        W72108  28.149  10.672   3.458
 7124W        W72109  31.898   0.792  13.781
 7125W        W72110   5.414  33.027  14.798
 7126W        W72111   8.192  31.140  12.631
 7127W        W72112  25.166  32.533   1.343
 7128W        W72113  21.660  10.715   3.815
 7129W        W72114   4.884  44.743   3.806
 7130W        W72115  31.940   2.950  11.209
 7131W        W72116  43.189   5.279  14.247
 7132W        W72117  29.496   3.472  13.810
 7133W        W72118   4.428  37.466   2.463
 7134W        W72119  28.417  43.150   1.504
 7135W        W72120   1.912  10.948  11.349
 7136W        W72121   0.749  36.740  11.146
 7137W        W72122  34.017  10.854  13.422
 7138W        W72123  24.877  10.026  14.387
 7139W        W72124  13.572  24.316  11.549
 7140W        W72125   6.391  31.886  11.270
 7141W        W72126  32.983  11.441  12.880
 7142W        W72127  33.548   5.968   0.684
 7143W        W72128  33.360  33.416   3.690
 7144W        W72129  26.665  32.136   5.412
 7145W        W72130  44.334   6.221   1.596
 7146W        W72131  16.443  23.215  12.758
 7147W        W72132  15.880  12.612  14.888
 7148W        W72133  35.326  27.536  12.033
 7149W        W72134  12.181   6.066   2.798
 7150W        W72135  18.134  42.265  11.280
 7151W        W72136   9.833  25.181   4.182
 7152W        W72137  13.152   6.349   2.942
 7153W        W72138   7.353   3.884   3.153
 7154W        W72139   6.066  31.695  14.794
 7155W        W72140  24.654  18.765   4.261
 7156W        W72141  16.308   1.113  11.572
 7157W        W72142  40.897  38.988   1.333
 7158W        W72143  33.013  19.060  14.237
 7159W        W72144   9.390  35.003  10.987
 7160W        W72145  15.206  25.253  14.349
 7161W        W72146  39.246  39.461   1.472
 7162W        W72147  31.397   2.865   3.823
 7163W        W72148  37.767  28.494  13.454
 7164W        W72149  44.756  25.430   4.413
 7165W        W72150  21.681  24.641  10.517
 7166W        W72151  17.079   5.399  14.529
 7167W        W72152  44.253  25.106   0.886
 7168W        W72153  10.568   8.777  11.867
 7169W        W72154   3.873  40.817  12.597
 7170W        W72155  10.299  43.539   4.724
 7171W        W72156  24.418  24.058  12.958
 7172W        W72157   4.285  33.052  12.993
 7173W        W72158  23.727   8.351  13.536
 7174W        W72159  17.881  14.678  11.095
 7175W        W72160   0.758   5.223  12.006
 7176W        W72161  12.239   7.395   3.112
 7177W        W72162  23.581  34.150   0.814
 7178W        W72163   8.839   3.328   2.239
 7179W        W72164   2.968   3.008  12.500
 7180W        W72165  30.613   1.882   0.268
 7181W        W72166  17.163  43.342   0.204
 7182W        W72167  33.844   0.689   1.335
 7183W        W72168  39.864  34.865  13.926
 7184W        W72169   0.831  10.530   2.350
 7185W        W72170  24.437  37.807  11.167
 7186W        W72171  20.029  29.917  12.160
 7187W        W72172  39.374  25.932  14.450
 7188W        W72173  10.060   8.006  13.494
 7189W        W72174  25.742   1.722   1.376
 7190W        W72175  26.968  24.214   1.133
 7191W        W72176   5.382   6.916  14.133
 7192W        W72177  36.055  34.385  13.386
 7193W        W72178   3.382   4.802  10.703
 7194W        W72179  17.044   1.781   3.208
 7195W        W72180  22.706  19.241  12.394
 7196W        W72181  21.916   8.411  13.365
 7197W        W72182   5.237  41.346  13.298
 7198W        W72183  33.857  12.804  13.422
 7199W        W72184  27.986  43.388   0.781
 7200W        W72185  26.869   1.481   0.894
 7201W        W72186  44.788   4.615   0.263
 7202W        W72187   6.460  16.977  12.125
 7203W        W72188   5.502  39.542  14.858
 7204W        W72189   7.467   9.407   2.693
 7205W        W72190  21.157   3.705  13.908
 7206W        W72191  44.483  33.654   0.672
 7207W        W72192   7.877  22.230  12.127
 7208W        W72193  12.628  41.514  12.000
 7209W        W72194  25.077  14.978   0.817
 7210W        W72195   7.887  22.706   1.324
 7211W        W72196  20.638  26.109  12.941
 7212W        W72197  24.849  31.966  12.632
 7213W        W72198   0.215  28.887   0.867
 7214W        W72199  28.864  22.687   4.334
 7215W        W72200  38.911   1.460  10.497
 7216W        W72201   8.164  15.412   1.938
 7217W        W72202   1.297  16.231  12.041
 7218W        W72203  22.422   4.441   4.229
 7219W        W72204  33.706  29.712   1.308
 7220W        W72205  22.973   6.830   1.187
 7221W        W72206  21.986  20.096   3.583
 7222W        W72207  36.842   7.158   0.317
 7223W        W72208  44.291  27.914  11.256
 7224W        W72209  31.997  20.288   3.166
 7225W        W72210  26.681  16.615   0.250
 7226W        W72211  14.770  40.189  10.213
 7227W        W72212  13.926  42.856   1.100
 7228W        W72213  30.913  36.088  12.689
 7229W        W72214  11.845  41.456   2.920
 7230W        W72215  31.618  31.436   1.291
 7231W        W72216  38.306  27.127  12.934
 7232W        W72217  42.124  40.562   0.346
 7233W        W72218  40.298   9.761   2.113
 7234W        W72219   3.181  23.081   4.117
 7235W        W72220  42.029  19.843   3.726
 7236W        W72221  27.762  37.600   2.765
 7237W        W72222  34.326  18.843   2.149
 7238W        W72223  24.440  24.994   4.804
 7239W        W72224  27.996  23.991   2.220
 7240W        W72225  14.226  35.306   2.328
 7241W        W72226  13.236   5.105  14.191
 7242W        W72227  22.575  12.543   1.252
 7243W        W72228  30.966  14.348   0.849
 7244W        W72229  30.568  29.634  12.549
 7245W        W72230   7.749  14.756   1.800
 7246W        W72231  22.928  36.853  12.609
 7247W        W72232  32.078   8.270  13.083
 7248W        W72233   6.355  21.023   1.279
 7249W        W72234  14.929  27.476  13.487
 7250W        W72235  26.393   8.723  13.899
 7251W        W72236  42.378  21.547   3.664
 7252W        W72237  43.187   7.998  10.836
 7253W        W72238  29.918  27.546  13.321
 7254W        W72239  11.728   3.924   1.915
 7255W        W72240  17.022   0.512   1.034
 7256W        W72241   0.870  24.045   2.219
 7257W        W72242  28.693  19.493  11.473
 7258W        W72243  23.130   6.061   2.922
 7259W        W72244   9.851  24.260   2.820
 7260W        W72245  26.950  13.813   3.849
 7261W        W72246  33.976  30.007   3.102
 7262W        W72247  21.663  27.848   2.554
 7263W        W72248  41.332   8.697   1.333
 7264W        W72249  19.742  18.932   2.693
 7265W        W72250   9.105  18.104  12.134
 7266W        W72251  28.451  32.633   4.176
 7267W        W72252  17.065  23.547  12.510
 7268W        W72253   7.631  37.861  11.552
 7269W        W72254  16.071  25.407   4.615
 7270W        W72255  24.113   0.014  13.896
 7271W        W72256   7.269  34.857  12.528
 7272W        W72257  35.880  36.599  13.953
 7273W        W72258   1.705  18.043   4.475
 7274W        W72259  15.655  31.235  11.667
 7275W        W72260  41.996  23.848   3.980
 7276W        W72261   8.674  29.288   1.736
 7277W        W72262   5.920  28.428   0.560
 7278W        W72263  10.777  44.664  12.089
 7279W        W72264  33.509  30.417   4.746
 7280W        W72265  29.199  23.171  14.419
 7281W        W72266  16.626  11.707   3.488
 7282W        W72267  26.292   9.816   2.725
 7283W        W72268   1.884  26.729   4.582
 7284W        W72269   2.953   9.294  13.884
 7285W        W72270   9.943  23.886   0.400
 7286W        W72271   5.012  11.582  13.154
 7287W        W72272   2.866   7.218  13.493
 7288W        W72273  31.619  14.683  14.297
 7289W        W72274  32.382  40.550  13.851
 7290W        W72275  42.441  36.433   2.052
 7291W        W72276  23.588  13.156  12.585
 7292W        W72277  42.865  32.178   3.640
 7293W        W72278  11.464  10.465   2.309
 7294W        W72279  44.936  23.417  14.759
 7295W        W72280   9.401  35.915  11.096
 7296W        W72281  28.748  15.101   3.240
 7297W        W72282   9.869  36.294   2.202
 7298W        W72283  28.118  30.617   0.659
 7299W        W72284  27.069  37.695  11.776
 7300W        W72285  22.493  41.505  13.039
 7301W        W72286  11.063   3.859   0.449
 7302W        W72287  15.663  36.481  14.304
 7303W        W72288  26.160   9.181  12.853
 7304W        W72289   1.229  14.226  14.044
 7305W        W72290  41.127  23.783  10.814
 7306W        W72291   3.504  12.743   3.678
 7307W        W72292  41.224  37.590  13.612
 7308W        W72293  34.331  32.617  12.448
 7309W        W72294  40.896  12.419  10.338
 7310W        W72295  32.899   7.314  13.424
 7311W        W72296  42.833   4.991  13.497
 7312W        W72297  43.328   2.478   2.892
 7313W        W72298  17.039  40.305   3.240
 7314W        W72299  24.819  36.856   4.142
 7315W        W72300  25.634  18.294   1.096
 7316W        W72301   7.709  11.589  11.509
 7317W        W72302  42.492   3.396   4.929
 7318W        W72303  18.130  44.033   4.268
 7319W        W72304  41.654  36.624   4.499
 7320W        W72305   8.432  24.072  11.947
 7321W        W72306  38.576  18.706  13.791
 7322W        W72307   6.359   4.820   0.951
 7323W        W72308  13.806  26.462  14.727
 7324W        W72309  24.631  27.105   2.338
 7325W        W72310  44.984  22.779  11.081
 7326W        W72311   7.282  12.238  12.044
 7327W        W72312  31.659   8.585  13.013
 7328W        W72313  10.870  36.919   0.476
 7329W        W72314  14.494  41.625  14.099
 7330W        W72315  15.308  36.521  10.626
 7331W        W72316  27.292  41.934   2.812
 7332W        W72317  14.459   2.295  11.086
 7333W        W72318  44.030  15.584  14.414
 7334W        W72319   5.187  21.128  11.670
 7335W        W72320  41.545  14.482   5.175
 7336W        W72321  23.951  40.332   3.343
 7337W        W72322  41.447  20.960   2.665
 7338W        W72323   2.090  30.789  13.434
 7339W        W72324  11.627  26.198   1.256
 7340W        W72325  29.141  13.312   3.840
 7341W        W72326  38.644  20.683   1.758
 7342W        W72327  35.500  14.084  14.365
 7343W        W72328   7.751  24.255  13.451
 7344W        W72329  32.434  24.513  10.789
 7345W        W72330  33.910  38.097  12.439
 7346W        W72331  11.118  17.097   2.387
 7347W        W72332  13.047  21.529  10.716
 7348W        W72333  38.921   9.642   0.665
 7349W        W72334  31.623  43.054  11.161
 7350W        W72335  14.347   0.819   3.576
 7351W        W72336  26.419   0.498   2.418
 7352W        W72337  36.063   0.060  11.310
 7353W        W72338  43.532   9.810   4.612
 7354W        W72339  14.104  23.964  11.669
 7355W        W72340   9.280  14.160  13.020
 7356W        W72341   5.407  23.261  11.560
 7357W        W72342  21.637  13.750   0.124
 7358W        W72343  42.726  35.774  13.075
 7359W        W72344  16.676  10.330   4.618
 7360W        W72345  25.195  32.414  14.942
 7361W        W72346  17.964   5.016   9.876
 7362W        W72347  30.027  39.832  10.645
 7363W        W72348  24.558  40.617   1.283
 7364W        W72349  22.134  24.628   2.497
 7365W        W72350  35.457  43.331  13.146
 7366W        W72351  19.942  39.829  12.716
 7367W        W72352  14.388  29.394  13.474
 7368W        W72353  26.718  29.595  10.480
 7369W        W72354  38.487  20.747  14.323
 7370W        W72355  33.648  26.007  12.185
 7371W        W72356  29.078  12.279   4.176
 7372W        W72357  33.139  17.245  10.660
 7373W        W72358  38.871  34.059  14.800
 7374W        W72359  36.961  23.313  12.530
 7375W        W72360  26.457  29.372   3.754
 7376W        W72361  17.153  40.707   1.958
 7377W        W72362  31.629   0.874  14.805
 7378W        W72363   5.176  30.415  13.781
 7379W        W72364  24.092  33.142   2.353
 7380W        W72365   2.421  40.406   3.149
 7381W        W72366  12.793  10.725  14.954
 7382W        W72367  29.259   0.042   2.207
 7383W        W72368  20.861   0.227  11.472
 7384W        W72369  44.343   2.379  13.952
 7385W        W72370  25.825  34.477  10.969
 7386W        W72371  31.530  16.662  14.495
 7387W        W72372  20.160  44.044  11.297
 7388W        W72373  35.288   7.223   1.469
 7389W        W72374  18.140   3.493   2.745
 7390W        W72375   4.472  20.624   3.235
 7391W        W72376  17.176  11.526   4.100
 7392W        W72377  10.343  23.710   2.903
 7393W        W72378  29.306  36.320   4.980
 7394W        W72379  35.478  32.505   4.885
 7395W        W72380  34.890   5.922  10.567
 7396W        W72381   9.699  42.045  10.593
 7397W        W72382   9.839  10.120   0.911
 7398W        W72383   8.304  19.050  13.421
 7399W        W72384  10.815  11.703   2.388
 7400W        W72385   3.269  12.228   1.710
 7401W        W72386  43.179  21.215   5.167
 7402W        W72387  35.960  12.197   3.354
 7403W        W72388  22.682   0.247   4.555
 7404W        W72389  37.955   3.673   4.691
 7405W        W72390   0.478  36.577   1.937
 7406W        W72391  44.743  24.539   4.576
 7407W        W72392   8.271  11.401   3.174
 7408W        W72393  38.474  19.065   1.560
 7409W        W72394   8.083  25.910   3.254
 7410W        W72395  28.645  32.147   4.094
 7411W        W72396   1.733  22.847   4.232
 7412W        W72397   4.432   4.505   0.312
 7413W        W72398  41.019  28.656   0.322
 7414W        W72399  17.082   9.190   0.147
 7415W        W72400   7.851  22.024   1.514
 7416W        W72401  19.316   4.749  11.215
 7417W        W72402   7.177  34.419  12.067
 7418W        W72403  39.369  39.741  10.799
 7419W        W72404  38.966  28.616   3.588
 7420W        W72405  42.433  41.794   3.865
 7421W        W72406  28.958  23.441  13.397
 7422W        W72407  32.766  29.705  12.054
 7423W        W72408   0.134  19.136  14.482
 7424W        W72409   9.792  29.259  11.067
 7425W        W72410  43.359   0.740  12.085
 7426W        W72411  10.152  23.497  11.632
 7427W        W72412  20.792  28.810   0.228
 7428W        W72413   8.945  18.999   3.307
 7429W        W72414  33.105  34.192   3.049
 7430W        W72415  16.867  15.395   2.216
 7431W        W72416  41.738  22.504   0.831
 7432W        W72417  19.216  24.811  14.488
 7433W        W72418  33.881  43.921  14.638
 7434W        W72419  43.808  11.051  12.542
 7435W        W72420  35.775   4.412  11.475
 7436W        W72421  43.530  21.583  11.265
 7437W        W72422  25.413  13.196   0.795
 7438W        W72423  22.548   1.308   4.611
 7439W        W72424  37.800  37.084  13.906
 7440W        W72425   8.492   1.682  11.553
 7441W        W72426   8.464  30.405  14.296
 7442W        W72427   4.833   2.916  14.814
 7443W        W72428  21.919   4.023  10.535
 7444W        W72429  11.247  42.716  14.442
 7445W        W72430  26.031  19.963   1.016
 7446W        W72431   6.890  19.793  11.229
 7447W        W72432  31.615  27.900  14.786
 7448W        W72433  23.653  17.439  11.119
 7449W        W72434  41.565  36.430  11.207
 7450W        W72435  19.248  12.650  10.830
 7451W        W72436  44.364  44.823   1.304
 7452W        W72437  21.446  43.998   4.156
 7453W        W72438  26.723  24.778  13.477
 7454W        W72439  33.594  30.848   5.077
 7455W        W72440  38.074  38.523  10.479
 7456W        W72441  12.644   4.793   1.115
 7457W        W72442  41.098  44.727   1.387
 7458W        W72443  40.929  44.207   0.075
 7459W        W72444  33.519  15.280   1.217
 7460W        W72445  15.321  13.561  10.828
 7461W        W72446   8.397  41.466  10.618
 7462W        W72447  19.828   9.889   2.278
 7463W        W72448  25.603  36.520   0.727
 7464W        W72449  36.445  19.502   4.944
 7465W        W72450  25.830  11.592  14.893
 7466W        W72451  14.473   5.375   5.311
 7467W        W72452  27.168  11.640   0.193
 7468W        W72453   7.232   0.763   4.796
 7469W        W72454  13.949  20.951  13.313
 7470W        W72455  26.368   8.711  12.891
 7471W        W72456  29.477  26.997  10.421
 7472W        W72457   4.196  25.650  13.093
 7473W        W72458  21.520   5.383  11.869
 7474W        W72459  41.031   7.651   1.930
 7475W        W72460  14.356  41.825  11.642
 7476W        W72461  22.099  41.059   1.768
 7477W        W72462  25.701   8.265   3.196
 7478W        W72463   7.928  43.956  14.330
 7479W        W72464  23.533  17.392   4.776
 7480W        W72465  13.709   6.586   0.291
 7481W        W72466  37.758  35.810   1.834
 7482W        W72467  33.979  20.182  13.582
 7483W        W72468  14.620   6.863   0.286
 7484W        W72469  19.807   7.312   3.930
 7485W        W72470  12.357  17.119  11.962
 7486W        W72471  14.772  18.488   0.671
 7487W        W72472  28.638  14.273   3.529
 7488W        W72473  31.068   0.682   0.427
 7489W        W72474  22.629  38.319  13.112
 7490W        W72475  37.990  25.334  11.575
 7491W        W72476  13.409   9.449  14.405
 7492W        W72477  20.534  30.771   3.865
 7493W        W72478   3.894  42.902  10.540
 7494W        W72479  27.438   7.723  10.712
 7495W        W72480  26.381  41.139   2.226
 7496W        W72481  29.563   2.245  11.555
 7497W        W72482  26.076  10.392   3.362
 7498W        W72483  27.120   1.238   2.251
 7499W        W72484   0.376  31.168  14.849
 7500W        W72485  11.237  22.644   3.689
 7501W        W72486  13.859  34.139   1.957
 7502W        W72487  23.974  40.641  11.393
 7503W        W72488  24.578  15.539  14.565
 7504W        W72489  31.236  17.527  14.960
 7505W        W72490  26.100  35.019   2.202
 7506W        W72491  11.093  19.024   1.088
 7507W        W72492  25.170  44.862  11.801
 7508W        W72493  24.156  39.010   0.473
 7509W        W72494   5.410  12.716   1.060
 7510W        W72495  13.668  17.280  10.783
 7511W        W72496  17.664  23.051   2.349
 7512W        W72497  13.664   4.952   1.327
 7513W        W72498  26.903  27.572   4.073
 7514W        W72499  27.438  21.258   1.818
 7515W        W72500  24.316  25.236   0.823
 7516W        W72501  12.130   1.048  14.889
 7517W        W72502  28.418  30.040   2.185
 7518W        W72503  26.889  20.505  13.477
 7519W        W72504  40.530  36.544   2.704
 7520W        W72505  20.769  21.570  12.942
 7521W        W72506  26.731  33.638   1.331
 7522W        W72507  16.176  41.504  10.689
 7523W        W72508  30.375  23.572  11.629
 7524W        W72509   3.675  16.258  10.818
 7525W        W72510  32.964  24.997  13.825
 7526W        W72511  13.723   7.376  13.739
 7527W        W72512  34.302  15.157  13.490
 7528W        W72513  26.915  31.497  13.394
 7529W        W72514   5.173  19.754   2.685
 7530W        W72515  35.170  44.544   3.629
 7531W        W72516  16.065  28.220   3.032
 7532W        W72517   7.869   3.227   1.817
 7533W        W72518   1.071  32.443   2.737
 7534W        W72519   0.234  32.579   0.894
 7535W        W72520  24.485  32.354   1.880
 7536W        W72521  33.596  40.543   4.090
 7537W        W72522  21.391  24.441  14.438
 7538W        W72523  37.341  32.939  11.605
 7539W        W72524  11.850  27.044   1.817
 7540W        W72525  26.492   8.387   0.056
 7541W        W72526  41.685  39.710  14.002
 7542W        W72527  39.275  29.519   2.318
 7543W        W72528  15.707   3.015   1.322
 7544W        W72529   9.450  17.666   2.643
 7545W        W72530  12.262  28.899  12.667
 7546W        W72531  30.161  38.481  11.138
 7547W        W72532  15.183  14.238   3.782
 7548W        W72533  38.366   2.349  11.404
 7549W        W72534  36.898  20.556   2.179
 7550W        W72535  28.465   8.892  10.644
 7551W        W72536  21.807  31.965   1.187
 7552W        W72537   2.458  38.829   4.196
 7553W        W72538  27.593  42.850   0.848
 7554W        W72539  42.759  31.394   4.149
 7555W        W72540  44.505  17.060   4.114
 7556W        W72541   7.305   8.696   0.804
 7557W        W72542  43.946   1.431   1.114
 7558W        W72543  44.214  15.754   2.405
 7559W        W72544  20.516  41.442  11.624
 7560W        W72545  12.098   0.297   2.326
 7561W        W72546   9.747  38.125  12.943
 7562W        W72547   0.082  37.063   4.997
 7563W        W72548  18.463  10.150   0.266
 7564W        W72549  43.419  43.517   0.850
 7565W        W72550  33.522  39.298  13.955
 7566W        W72551  15.277  24.105   0.283
 7567W        W72552  29.467  14.782  14.896
 7568W        W72553  22.016  15.110   4.166
 7569W        W72554  35.085  20.142  10.666
 7570W        W72555  24.063  17.583   3.310
 7571W        W72556   3.871   5.074  11.974
 7572W        W72557  11.286   7.313   3.475
 7573W        W72558  39.076  41.262  12.766
 7574W        W72559  16.665  27.260   2.641
 7575W        W72560  42.539  19.994   3.729
 7576W        W72561  37.883  21.375  14.946
 7577W        W72562  30.562  17.497   2.152
 7578W        W72563   3.064  10.372  12.686
 7579W        W72564   2.373   4.801   3.226
 7580W        W72565   9.595  38.881   1.278
 7581W        W72566   7.610  20.238   3.288
 7582W        W72567  17.622  22.116   2.778
 7583W        W72568  29.489   3.443   4.155
 7584W        W72569   6.187  28.908  12.881
 7585W        W72570  39.239  27.558   1.757
 7586W        W72571  17.907  16.758   4.593
 7587W        W72572   0.976  28.860   2.434
 7588W        W72573  34.832  28.213  11.236
 7589W        W72574  19.527  35.533   1.300
 7590W        W72575  34.830  10.765  13.978
 7591W        W72576  43.197   4.645   1.938
 7592W        W72577  29.767  44.303   1.845
 7593W        W72578  10.127  39.014   1.035
 7594W        W72579   7.822  26.330  10.736
 7595W        W72580  25.027  35.932   2.832
 7596W        W72581  43.175  39.998   4.584
 7597W        W72582  13.712  30.653  13.066
 7598W        W72583   7.584  27.320   0.236
 7599W        W72584  33.427  31.685   0.400
 7600W        W72585   3.601   7.150  12.717
 7601W        W72586  44.049  28.520   4.295
 7602W        W72587   3.204  29.388   2.607
 7603W        W72588  13.814  15.358  12.070
 7604W        W72589   6.811  12.997   4.040
 7605W        W72590  16.282  10.934  12.546
 7606W        W72591  10.784  18.276   3.906
 7607W        W72592  12.021  10.167  13.075
 7608W        W72593  18.736  26.985  11.006
 7609W        W72594  16.028   4.222   3.274
 7610W        W72595  28.069  14.024  10.642
 7611W        W72596  23.592  36.973   0.657
 7612W        W72597  11.347  30.594   3.201
 7613W        W72598  22.180   2.518   3.332
 7614W        W72599  13.569  25.041  13.343
 7615W        W72600  28.900  32.081  12.861
 7616W        W72601  39.042  38.965  12.775
 7617W        W72602   8.297  44.843  14.307
 7618W        W72603  38.129   5.165   4.444
 7619W        W72604  25.073  34.122   4.528
 7620W        W72605   0.114  19.753   1.771
 7621W        W72606  19.372  10.653   1.348
 7622W        W72607  31.890  15.107  11.927
 7623W        W72608  24.451  13.623  14.251
 7624W        W72609  33.612  17.109  10.805
 7625W        W72610  42.661  30.021   0.873
 7626W        W72611  26.423  23.241   3.802
 7627W        W72612  27.199  12.885  13.558
 7628W        W72613  19.652  12.084   1.240
 7629W        W72614  39.876   8.964   0.961
 7630W        W72615  18.534  39.340   4.241
 7631W        W72616  25.644   6.958  13.930
 7632W        W72617  16.568   0.004  13.291
 7633W        W72618  11.226  18.054   0.787
 7634W        W72619  16.945   9.833  11.382
 7635W        W72620  25.963  29.913  10.325
 7636W        W72621  35.840   4.780  14.134
 7637W        W72622  40.420  33.037  13.572
 7638W        W72623  22.820  12.652   3.093
 7639W        W72624  38.784  23.131  12.124
 7640W        W72625  23.373  28.418  13.570
 7641W        W72626  19.921  35.048   1.749
 7642W        W72627  12.338  33.606   0.882
 7643W        W72628   0.074  24.219  13.837
 7644W        W72629   3.242  16.138   0.503
 7645W        W72630  30.926   7.512   1.918
 7646W        W72631  40.881   9.438   3.560
 7647W        W72632  21.081  36.612   2.939
 7648W        W72633  35.793  20.776   3.827
 7649W        W72634  30.009  18.814   0.860
 7650W        W72635   2.271  34.857  13.529
 7651W        W72636  43.357   2.964   1.442
 7652W        W72637  32.616  35.131   3.382
 7653W        W72638   5.103  13.313  13.937
 7654W        W72639  29.445  40.099  14.427
 7655W        W72640  16.797  21.739   2.417
 7656W        W72641  13.730  25.715  11.743
 7657W        W72642  40.235   3.611   1.881
 7658W        W72643  43.865   1.250  12.016
 7659W        W72644  29.439  34.496   2.482
 7660W        W72645  32.518  19.030  14.318
 7661W        W72646  21.678   2.738   2.352
 7662W        W72647  33.571  31.847   4.157
 7663W        W72648  27.650  17.139  13.043
 7664W        W72649  43.934   3.047  11.039
 7665W        W72650  14.503  38.024   4.506
 7666W        W72651  31.018  10.156   3.122
 7667W        W72652   1.868  20.762  12.885
 7668W        W72653  18.065  42.463  11.727
 7669W        W72654  38.055  40.533   4.052
 7670W        W72655  29.684  23.806   4.116
 7671W        W72656  35.343  27.800   0.862
 7672W        W72657  23.149  35.178   1.715
 7673W        W72658  24.148  29.065  11.169
 7674W        W72659  39.451  42.883   0.092
 7675W        W72660  43.270  18.466   2.835
 7676W        W72661  17.104  13.538  14.148
 7677W        W72662  16.296   3.753  13.808
 7678W        W72663  41.920  24.768   2.921
 7679W        W72664   6.690  34.891  12.828
 7680W        W72665  32.909  44.373  10.706
 7681W        W72666  36.500   2.638  11.558
 7682W        W72667  36.978   3.707  11.200
 7683W        W72668  35.867   1.909   3.247
 7684W        W72669  39.728   6.377   2.865
 7685W        W72670  18.200   0.429  13.770
 7686W        W72671  10.162  25.889  14.559
 7687W        W72672  28.671  17.645  11.310
 7688W        W72673  29.101   8.343   3.858
 7689W        W72674  27.640  32.682   3.695
 7690W        W72675  32.861  18.393  12.011
 7691W        W72676  43.796  34.565   2.852
 7692W        W72677  21.750  43.540   2.395
 7693W        W72678  18.881  23.683  10.444
 7694W        W72679  40.431  14.837  11.533
 7695W        W72680  18.593  44.577   2.099
 7696W        W72681  39.743   9.182   3.206
 7697W        W72682  33.886  21.640  14.992
 7698W        W72683  24.251   5.153   1.984
 7699W        W72684  44.399   1.383   3.027
 7700W        W72685  39.063   2.282  13.007
 7701W        W72686  13.245  44.438   0.856
 7702W        W72687  41.782  22.689  11.522
 7703W        W72688  39.960  16.324   0.244
 7704W        W72689  29.965  43.845  10.881
 7705W        W72690   3.691  21.725   0.443
 7706W        W72691  27.094   5.157   0.648
 7707W        W72692  22.683  29.689  13.549
 7708W        W72693  21.111  29.214   1.519
 7709W        W72694  37.344  40.109   1.207
 7710W        W72695  16.734  22.428  14.783
 7711W        W72696   9.455  28.640   0.662
 7712W        W72697  36.579  33.602   4.767
 7713W        W72698  11.645  12.137   1.873
 7714W        W72699  35.938   5.451   2.326
 7715W        W72700  39.889  25.677   2.791
 7716W        W72701  14.498  39.720  11.055
 7717W        W72702  11.444   1.928  13.163
 7718W        W72703  10.556  22.990  13.542
 7719W        W72704   4.058  44.025  12.985
 7720W        W72705   9.335  21.805   0.470
 7721W        W72706  19.358  33.363  14.005
 7722W        W72707  20.006  23.534   0.254
 7723W        W72708  16.538  42.479   3.830
 7724W        W72709   5.207  21.481   0.466
 7725W        W72710   3.191  33.566   2.822
 7726W        W72711  36.127  32.564  13.891
 7727W        W72712   0.690  13.192   0.545
 7728W        W72713  30.983  12.434   0.946
 7729W        W72714   0.310  18.591   2.804
 7730W        W72715   2.994  24.112  11.238
 7731W        W72716  44.302  34.207  14.311
 7732W        W72717  38.591  25.022  12.142
 7733W        W72718  44.321  31.787  14.801
 7734W        W72719   6.773  12.299  12.207
 7735W        W72720  42.463  25.862   0.837
 7736W        W72721  38.779  17.678   1.726
 7737W        W72722   5.543  17.125   1.544
 7738W        W72723  35.130  38.506  14.487
 7739W        W72724   9.198  14.215  14.908
 7740W        W72725  42.503  29.542   2.946
 7741W        W72726   4.672  39.722   5.016
 7742W        W72727  18.912  15.101  11.916
 7743W        W72728  26.428  35.138   3.042
 7744W        W72729  22.249  28.165  12.709
 7745W        W72730  43.952   9.407  14.978
 7746W        W72731  11.670  16.817  14.059
 7747W        W72732  34.868  27.844  13.998
 7748W        W72733  42.598  26.432  12.542
 7749W        W72734  31.442  23.093  12.536
 7750W        W72735  27.207  29.181  12.381
 7751W        W72736  20.966  35.999   2.742
 7752W        W72737  35.109  16.562  14.323
 7753W        W72738   2.297  41.784   3.894
 7754W        W72739  44.008  10.431   0.077
 7755W        W72740  32.356  16.141   2.823
 7756W        W72741  43.494  32.911   3.500
 7757W        W72742  26.903  25.750   3.259
 7758W        W72743  40.987  10.676   1.761
 7759W        W72744   4.692  12.682   0.312
 7760W        W72745  41.565  42.184   3.572
 7761W        W72746   8.735  12.307  11.878
 7762W        W72747  41.104  20.951   3.703
 7763W        W72748   9.789  20.445  12.678
 7764W        W72749  44.162   0.158   5.085
 7765W        W72750   3.310   1.868   2.322
 7766W        W72751   7.667  28.601  14.393
 7767W        W72752  26.116  11.623   1.242
 7768W        W72753  12.000   4.212   3.141
 7769W        W72754  41.982  22.104  13.841
 7770W        W72755  41.417  29.480  13.411
 7771W        W72756   5.748   3.826   2.686
 7772W        W72757  11.897  44.011  10.663
 7773W        W72758  19.651   6.709   1.326
 7774W        W72759  27.214  22.697   2.120
 7775W        W72760  39.989  17.929  11.995
 7776W        W72761   2.327  26.807   1.841
 7777W        W72762  28.114  22.628  11.105
 7778W        W72763  35.524  33.350  12.980
 7779W        W72764  25.927  44.462  14.516
 7780W        W72765  11.417  43.581   3.212
 7781W        W72766  14.775  29.145   1.205
 7782W        W72767  38.635  43.918  11.376
 7783W        W72768  22.021  28.855  10.719
 7784W        W72769   4.689  16.252  13.014
 7785W        W72770  12.358  25.920   4.592
 7786W        W72771  22.367  29.442   3.732
 7787W        W72772  37.782  21.964  14.306
 7788W        W72773  29.937   8.220   3.258
 7789W        W72774  18.601  25.104   3.131
 7790W        W72775  36.031  11.622   2.614
 7791W        W72776  42.350  24.200  12.137
 7792W        W72777  23.089  29.089  10.961
 7793W        W72778  10.686  33.640  11.730
 7794W        W72779  23.021  38.541   3.758
 7795W        W72780  12.214  42.111   4.001
 7796W        W72781  21.033   1.075  14.957
 7797W        W72782  14.650  36.838   0.068
 7798W        W72783  17.069  31.841   1.435
 7799W        W72784  19.936   5.290   2.546
 7800W        W72785  39.937  23.695  12.440
 7801W        W72786  29.057  42.315  10.762
 7802W        W72787  28.020  22.395  12.088
 7803W        W72788   3.482  35.036   3.172
 7804W        W72789  36.364  44.536   1.380
 7805W        W72790  13.792  36.572   2.003
 7806W        W72791   7.874   1.169   1.378
 7807W        W72792  22.119  38.136   4.059
 7808W        W72793  27.413  36.234   2.168
 7809W        W72794  32.159   8.837   3.655
 7810W        W72795  14.678  41.302  12.415
 7811W        W72796  15.798  26.630  12.998
 7812W        W72797  28.218  23.001  11.498
 7813W        W72798  24.940   1.778  12.561
 7814W        W72799  21.476  11.976   3.327
 7815W        W72800  22.854  27.082  13.139
 7816W        W72801   3.288  12.112  11.261
 7817W        W72802  34.857  25.740   2.738
 7818W        W72803  16.352  30.658  14.343
 7819W        W72804  27.240  32.571   2.236
 7820W        W72805  19.638  17.057  12.602
 7821W        W72806  38.846  16.104  13.254
 7822W        W72807  43.278  26.596   0.340
 7823W        W72808  32.320  20.303  12.117
 7824W        W72809  13.627  13.084   2.495
 7825W        W72810   7.738  34.921   2.783
 7826W        W72811   8.847  37.080  14.586
 7827W        W72812  37.401  24.588   3.632
 7828W        W72813  35.182  18.708   2.062
 7829W        W72814  37.623   2.516   2.639
 7830W        W72815   2.944  37.380   2.101
 7831W        W72816  17.988  38.701  11.683
 7832W        W72817  38.613  14.562  14.464
 7833W        W72818  29.861  22.148  11.550
 7834W        W72819  33.791   9.386  14.456
 7835W        W72820  23.566  25.019   3.276
 7836W        W72821  24.794  35.520   3.131
 7837W        W72822   4.789  24.917   1.996
 7838W        W72823  36.556  20.068  11.632
 7839W        W72824  40.996  17.846  12.889
 7840W        W72825  44.453   5.764  12.848
 7841W        W72826  42.987   6.388   0.079
 7842W        W72827  18.991   6.402   0.856
 7843W        W72828  23.237  10.469  12.966
 7844W        W72829  19.303  11.331   3.191
 7845W        W72830   6.119  12.695   1.773
 7846W        W72831  11.887  30.930   2.944
 7847W        W72832  17.685   0.865   4.313
 7848W        W72833   4.274  40.523  12.462
 7849W        W72834  28.509  34.543   3.697
 7850W        W72835  35.037  21.932   3.695
 7851W        W72836  20.038  12.022  11.627
 7852W        W72837  32.046   8.433  12.076
 7853W        W72838  17.264  40.396   0.271
 7854W        W72839  12.833  10.348   1.007
 7855W        W72840   7.005  41.877   2.690
 7856W        W72841   8.814  11.184   2.895
 7857W        W72842  32.399  24.060   3.829
 7858W        W72843  16.592  42.145  14.248
 7859W        W72844  36.354  36.571   4.128
 7860W        W72845  21.986   1.928   1.322
 7861W        W72846  36.509  33.586   4.239
 7862W        W72847  41.853  28.476   9.692
 7863W        W72848  17.599  39.469  12.937
 7864W        W72849  39.214   2.507  12.198
 7865W        W72850  37.775  31.638   0.515
 7866W        W72851   0.053  20.120   3.744
 7867W        W72852   8.268   9.714   5.086
 7868W        W72853  30.050  36.505   0.535
 7869W        W72854  30.885  35.466   2.873
 7870W        W72855  17.766  17.665   0.244
 7871W        W72856  33.997  41.267   4.401
 7872W        W72857  15.514  14.107   4.189
 7873W        W72858  42.537   2.307  12.437
 7874W        W72859   6.785  14.687   2.392
 7875W        W72860   4.152  18.781  12.190
 7876W        W72861  31.637  40.944   0.421
 7877W        W72862  37.146  25.279   2.930
 7878W        W72863   6.373  36.948  14.438
 7879W        W72864  32.657   6.891  12.492
 7880W        W72865  43.960  43.891   2.465
 7881W        W72866  38.630  24.766   2.624
 7882W        W72867   3.464  43.059   0.441
 7883W        W72868  24.014  28.250  12.081
 7884W        W72869  44.025  31.412  14.355
 7885W        W72870  24.514  44.422  12.896
 7886W        W72871   1.501  20.037   3.923
 7887W        W72872  16.077  31.269  12.042
 7888W        W72873  21.895  44.458  14.012
 7889W        W72874  31.879  21.159   0.745
 7890W        W72875  38.816  10.614   0.940
 7891W        W72876   1.464   1.493   2.315
 7892W        W72877   9.387  10.878  13.935
 7893W        W72878  15.678  13.584   0.747
 7894W        W72879  39.364  23.766  14.245
 7895W        W72880  10.249   3.067   0.376
 7896W        W72881  31.196  34.066   3.660
 7897W        W72882  33.024  37.510   2.222
 7898W        W72883  35.884  35.418  11.518
 7899W        W72884   4.413  17.920  14.306
 7900W        W72885  44.552  29.159   0.190
 7901W        W72886  38.938  31.999   1.019
 7902W        W72887  28.027  30.454   3.327
 7903W        W72888   7.734  37.989   0.864
 7904W        W72889  30.846  42.739   1.910
 7905W        W72890  26.737  25.149  11.488
 7906W        W72891   6.517   0.836   2.697
 7907W        W72892   0.767   6.979  13.098
 7908W        W72893  11.770  44.282   0.779
 7909W        W72894   2.233  44.192  11.172
 7910W        W72895  36.046  30.630  14.372
 7911W        W72896  24.213  37.310   4.670
 7912W        W72897  27.126  36.428   4.403
 7913W        W72898  42.480   9.667   4.833
 7914W        W72899  37.863  17.743  12.384
 7915W        W72900  15.151  38.083  11.499
 7916W        W72901  32.742  33.801   2.904
 7917W        W72902  33.864  31.926   2.385
 7918W        W72903  22.645  32.753   1.612
 7919W        W72904  16.676  24.130  12.384
 7920W        W72905  34.828   3.936   4.437
 7921W        W72906  41.043  30.112   0.869
 7922W        W72907   5.450   7.897  14.997
 7923W        W72908   2.380  16.516  14.145
 7924W        W72909   8.813   1.599  13.391
 7925W        W72910  26.366  17.927   0.620
 7926W        W72911  35.642  28.417  14.438
 7927W        W72912  24.942  15.378   3.118
 7928W        W72913  38.636  24.515  14.441
 7929W        W72914  25.020   5.843  11.368
 7930W        W72915  33.935  12.837  14.327
 7931W        W72916  19.975  25.533   4.373
 7932W        W72917  29.019  31.430   4.188
 7933W        W72918  35.029   6.389   1.267
 7934W        W72919  27.188  41.494  10.772
 7935W        W72920   3.339  44.873   4.618
 7936W        W72921  30.092   0.857  11.539
 7937W        W72922  13.831  22.000   0.535
 7938W        W72923  39.783   0.193   4.482
 7939W        W72924  22.098  28.517  11.603
 7940W        W72925  39.604  19.621   1.773
 7941W        W72926   8.296  30.679   4.594
 7942W        W72927  32.354  24.555   3.099
 7943W        W72928   0.643  18.671   3.261
 7944W        W72929  11.102  25.053   3.788
 7945W        W72930   9.269  18.737   0.470
 7946W        W72931  37.900  17.305   1.440
 7947W        W72932   8.811  14.033  12.828
 7948W        W72933   1.837  42.954   3.275
 7949W        W72934  38.409  41.988   2.788
 7950W        W72935  27.787   7.556   4.657
 7951W        W72936   1.811  42.317   0.513
 7952W        W72937  23.008  25.639   3.750
 7953W        W72938   8.350  22.197   4.377
 7954W        W72939  43.245   5.705  13.840
 7955W        W72940   8.927  20.513  10.629
 7956W        W72941  26.823  25.193  12.469
 7957W        W72942   5.136   6.402   5.005
 7958W        W72943  33.508   5.772   2.762
 7959W        W72944  21.875  18.174   1.855
 7960W        W72945  17.446  39.382   1.713
 7961W        W72946  35.188   8.944  10.841
 7962W        W72947   5.088   4.261   2.247
 7963W        W72948  24.658  34.025  13.585
 7964W        W72949   4.257  32.961  10.906
 7965W        W72950   1.868  21.659  14.226
 7966W        W72951   1.123   3.059   4.904
 7967W        W72952  18.344   4.687  11.579
 7968W        W72953  22.632  37.908   4.873
 7969W        W72954  13.774   9.882   0.844
 7970W        W72955  23.974   0.953  12.133
 7971W        W72956  16.556  38.459   1.337
 7972W        W72957  32.290  37.981  14.049
 7973W        W72958   3.389   0.714   5.141
 7974W        W72959  44.646  41.283  14.287
 7975W        W72960   3.531  44.627   4.102
 7976W        W72961   5.702  12.867   4.220
 7977W        W72962   2.689  37.526  14.036
 7978W        W72963  33.247  35.156  12.583
 7979W        W72964   3.392  35.698  11.599
 7980W        W72965  13.279   4.746   1.731
 7981W        W72966  21.807  16.674   3.106
 7982W        W72967  24.685  27.374   2.756
 7983W        W72968  23.152  41.748   1.389
 7984W        W72969   2.289  26.893   0.334
 7985W        W72970  36.792  12.887   2.470
 7986W        W72971  19.053  40.802  11.023
 7987W        W72972  11.843  42.495  14.288
 7988W        W72973  22.278  11.360  13.078
 7989W        W72974  28.671  33.114   1.676
 7990W        W72975   6.824  12.083  13.496
 7991W        W72976  21.250  19.784   3.103
 7992W        W72977  38.467  21.947   3.245
 7993W        W72978  29.078  37.926   2.167
 7994W        W72979  29.003  29.842  10.651
 7995W        W72980  22.983  41.492   0.922
 7996W        W72981  28.191  41.940   1.907
 7997W        W72982  18.302   0.025   0.892
 7998W        W72983  18.172  40.867  10.718
 7999W        W72984  42.060  38.383  13.847
 8000W        W72985  25.421  35.699  11.958
 8001W        W72986  33.884   2.253  14.319
 8002W        W72987   9.448   6.767  12.471
 8003W        W72988   1.835  35.588   4.133
 8004W        W72989  36.474  32.137   4.541
 8005W        W72990   6.928  14.102  12.629
 8006W        W72991  17.691  40.860  10.913
 8007W        W72992  30.003  24.604   3.174
 8008W        W72993   6.551   9.225  12.610
 8009W        W72994   0.854  12.489  11.576
 8010W        W72995  43.521  37.520  12.038
 8011W        W72996   4.650  25.403   3.416
 8012W        W72997  37.624  41.263  10.653
 8013W        W72998  26.150  17.147  14.052
 8014W        W72999   2.705  29.649   1.287
 8015W        W73000  21.139  21.646   3.151
 8016W        W73001  12.572   9.766  13.423
 8017W        W73002  18.274  15.669  12.993
 8018W        W73003  22.546   8.323   3.894
 8019W        W73004  25.550  17.354   2.767
 8020W        W73005   1.752   1.848  11.947
 8021W        W73006  36.555  15.207   1.180
 8022W        W73007  35.179   5.764  13.122
 8023W        W73008  11.102  10.559  10.904
 8024W        W73009  11.406   5.427   5.477
 8025W        W73010  14.042  22.482   2.164
 8026W        W73011  30.584  31.948   4.139
 8027W        W73012   7.417  25.577  10.505
 8028W        W73013  24.856  36.488  11.740
 8029W        W73014  25.693  43.893   3.457
 8030W        W73015  34.629  22.249  14.430
 8031W        W73016  35.308  17.137   4.596
 8032W        W73017  13.717  33.025   4.026
 8033W        W73018  18.065  33.612   3.870
 8034W        W73019   2.638  44.521  11.204
 8035W        W73020  27.891  38.411   0.691
 8036W        W73021  20.263  39.605  11.911
 8037W        W73022  23.618   5.794   2.153
 8038W        W73023  31.465  17.241   4.888
 8039W        W73024  40.627  40.862  12.097
 8040W        W73025  32.623  29.628  14.216
 8041W        W73026  26.026  10.323   3.864
 8042W        W73027  11.652  18.587  13.546
 8043W        W73028  42.873   9.358  13.494
 8044W        W73029  23.226  22.640  11.610
 8045W        W73030  44.874  33.487  11.503
 8046W        W73031  31.243  41.745   2.654
 8047W        W73032  37.216  18.261   1.198
 8048W        W73033  13.042  41.618   4.172
 8049W        W73034  24.222  44.464  12.411
 8050W        W73035  22.680  40.069   2.886
 8051W        W73036   0.372  20.913   0.834
 8052W        W73037  34.504  30.427  14.476
 8053W        W73038  17.567  13.807  10.567
 8054W        W73039   8.811   4.792  10.460
 8055W        W73040  14.724  38.073   1.340
 8056W        W73041  19.145   9.186   2.187
 8057W        W73042  44.865  35.388   0.615
 8058W        W73043  13.197   5.870  11.619
 8059W        W73044  12.249  44.547  14.877
 8060W        W73045   7.337   8.045  10.319
 8061W        W73046  38.870  19.688  10.690
 8062W        W73047  25.198   9.393  11.564
 8063W        W73048  32.104  21.978   1.621
 8064W        W73049  13.221  21.757   4.719
 8065W        W73050  28.048  20.132  13.276
 8066W        W73051  16.238  36.668   1.001
 8067W        W73052  32.150  34.374  13.535
 8068W        W73053  23.716   5.361  13.047
 8069W        W73054   0.553  32.142  14.338
 8070W        W73055  28.418  32.593   0.781
 8071W        W73056  42.673  40.243  11.101
 8072W        W73057  19.233   0.680  11.966
 8073W        W73058  34.833  20.256  13.486
 8074W        W73059  20.806  20.250   0.826
 8075W        W73060  35.220  23.609   3.618
 8076W        W73061  30.498  40.474  13.578
 8077W        W73062  41.568  28.390   4.710
 8078W        W73063  10.682   2.555  12.128
 8079W        W73064  37.677   4.819  12.508
 8080W        W73065  14.152  41.047  11.179
 8081W        W73066  12.676  14.935   4.233
 8082W        W73067  41.460  11.333  14.290
 8083W        W73068   5.258  31.999  14.336
 8084W        W73069  33.694  14.540   0.820
 8085W        W73070  15.467   7.945  14.067
 8086W        W73071  41.234   3.357   0.421
 8087W        W73072  25.116  41.329  10.876
 8088W        W73073  20.040  20.979  12.446
 8089W        W73074  22.691  28.912   4.092
 8090W        W73075  15.450  27.083   2.135
 8091W        W73076  27.669  37.957  13.869
 8092W        W73077  17.540  40.484   0.703
 8093W        W73078  36.423  21.741   3.178
 8094W        W73079   3.355  25.929   4.769
 8095W        W73080  20.031  13.222   4.085
 8096W        W73081  27.039  17.837   2.943
 8097W        W73082  40.272  19.323  14.046
 8098W        W73083  28.207  36.410   3.678
 8099W        W73084  13.645   2.267   3.192
 8100W        W73085  19.804  37.928  12.073
 8101W        W73086  26.178  31.890   3.283
 8102W        W73087  12.075  34.427   1.423
 8103W        W73088   3.939  33.068  14.008
 8104W        W73089  11.675  22.712  14.405
 8105W        W73090  27.082   9.111  11.595
 8106W        W73091  32.847  16.872  13.880
 8107W        W73092  29.221   3.242   4.826
 8108W        W73093   7.710  32.131  10.958
 8109W        W73094  15.417  42.318  13.492
 8110W        W73095  34.439   8.856   2.238
 8111W        W73096  10.344  32.870  11.550
 8112W        W73097  10.441  28.179  13.592
 8113W        W73098  35.978  17.644   1.643
 8114W        W73099  26.145  34.509   3.240
 8115W        W73100  32.635  21.158  11.894
 8116W        W73101  14.662  42.892  13.968
 8117W        W73102  12.589  11.193   0.775
 8118W        W73103  34.615  31.865   0.867
 8119W        W73104  30.197  23.505  14.067
 8120W        W73105  24.951  33.445   2.423
 8121W        W73106  37.065  44.517   2.971
 8122W        W73107  31.607  39.790   2.318
 8123W        W73108   8.205  25.163  14.852
 8124W        W73109  17.203  17.030  12.732
 8125W        W73110  15.064   9.230   4.637
 8126W        W73111  14.662  35.584   2.299
 8127W        W73112  13.227  17.709   4.625
 8128W        W73113  21.814  37.526  10.779
 8129W        W73114  12.229   8.067  12.873
 8130W        W73115  10.826   6.675   1.401
 8131W        W73116  15.576   5.696  13.976
 8132W        W73117   5.132  15.487   2.279
 8133W        W73118  13.196  15.375  13.540
 8134W        W73119  22.332  11.749  11.129
 8135W        W73120  19.264  21.029   3.161
 8136W        W73121  42.520  21.582  11.206
 8137W        W73122  14.190  36.492  13.349
 8138W        W73123  27.230  12.415   1.278
 8139W        W73124  22.939  10.087   4.203
 8140W        W73125   8.854  42.579   4.187
 8141W        W73126  18.695   4.938  12.918
 8142W        W73127   7.455   0.518  13.367
 8143W        W73128  14.284  20.260   4.020
 8144W        W73129   5.183  23.155   0.168
 8145W        W73130  23.718  39.804  13.255
 8146W        W73131  39.018  38.320   1.730
 8147W        W73132  29.437  23.910   1.279
 8148W        W73133  19.196  10.209  11.530
 8149W        W73134   3.401  15.486  12.182
 8150W        W73135   6.195  26.441   0.570
 8151W        W73136  27.018  12.639   1.795
 8152W        W73137  10.886  44.035   1.725
 8153W        W73138  20.521  36.781   3.003
 8154W        W73139  28.597  10.593  12.345
 8155W        W73140  13.377  14.874  13.535
 8156W        W73141   8.748  13.976  14.009
 8157W        W73142   9.921  17.786   0.714
 8158W        W73143   5.136   6.447   1.208
 8159W        W73144  19.669  23.669   1.411
 8160W        W73145  10.968  21.782  12.530
 8161W        W73146  42.179  13.741  13.918
 8162W        W73147  31.134  27.335   0.241
 8163W        W73148   6.831  12.906   3.162
 8164W        W73149  11.858  32.813  10.717
 8165W        W73150  37.936  10.142  14.851
 8166W        W73151   4.014  29.607   3.270
 8167W        W73152  22.183  13.332  10.762
 8168W        W73153  43.860  13.924   2.910
 8169W        W73154  35.424  26.646  12.949
 8170W        W73155  23.575  34.132  11.200
 8171W        W73156  16.987  11.483   1.898
 8172W        W73157  28.374  39.734   4.563
 8173W        W73158  43.899  33.426   1.983
 8174W        W73159  44.515   3.849  13.664
 8175W        W73160  14.327   3.256   0.761
 8176W        W73161   1.104  31.932  12.886
 8177W        W73162  44.031  38.025   4.070
 8178W        W73163   2.484  25.496  12.410
 8179W        W73164   1.489  36.416   1.002
 8180W        W73165  14.462  23.058  13.019
 8181W        W73166  24.025  40.786  11.894
 8182W        W73167  41.244  43.513   3.971
 8183W        W73168  11.952  34.107  14.294
 8184W        W73169  30.998  33.794  14.233
 8185W        W73170   1.951   9.768   0.220
 8186W        W73171   8.730  35.283  10.374
 8187W        W73172   4.734  14.238   2.558
 8188W        W73173  26.968  34.923   0.423
 8189W        W73174   5.846  39.718   4.224
 8190W        W73175   6.468  24.890   1.236
 8191W        W73176   2.410  35.013   4.541
 8192W        W73177   4.986  41.913  14.375
 8193W        W73178  31.112  35.005  10.598
 8194W        W73179  16.218  44.861   4.595
 8195W        W73180  32.366  13.244   1.857
 8196W        W73181  37.928  33.200   4.870
 8197W        W73182  37.614  27.854  11.259
 8198W        W73183  24.893  29.265   0.473
 8199W        W73184   4.220  28.594  13.934
 8200W        W73185  15.648  30.485   3.326
 8201W        W73186  41.722  19.727   2.305
 8202W        W73187   4.350  16.345  11.029
 8203W        W73188  28.575   0.348  13.855
 8204W        W73189   5.997  15.078  14.922
 8205W        W73190  41.937  24.951   1.585
 8206W        W73191  27.151  21.305   2.833
 8207W        W73192  20.626  41.839  14.944
 8208W        W73193  32.574   9.596   1.683
 8209W        W73194  38.543   9.645   4.678
 8210W        W73195   4.143  39.410   0.556
 8211W        W73196  16.740  24.599   4.856
 8212W        W73197  28.643   5.352  14.361
 8213W        W73198  23.764  42.797   1.716
 8214W        W73199  32.367  30.122  13.789
 8215W        W73200  14.085  18.631   0.049
 8216W        W73201  26.113  12.689   4.078
 8217W        W73202  34.820  21.128  12.429
 8218W        W73203  17.692  36.263   1.955
 8219W        W73204   5.547  25.033   1.932
 8220W        W73205  21.591   7.584   3.105
 8221W        W73206  12.588   1.241  13.504
 8222W        W73207  40.842  13.232  10.888
 8223W        W73208  17.197  19.641   1.405
 8224W        W73209  14.823   9.228   3.240
 8225W        W73210   3.740  12.563   4.114
 8226W        W73211   3.818  31.563  10.590
 8227W        W73212  19.306  25.278  13.472
 8228W        W73213  27.045  38.348   4.777
 8229W        W73214   8.334   7.312  12.903
 8230W        W73215  25.227   6.229  14.334
 8231W        W73216  19.852  28.408  13.074
 8232W        W73217  40.094  39.379  12.945
 8233W        W73218   9.198  38.005   0.325
 8234W        W73219  35.420  17.037  11.139
 8235W        W73220  15.540   9.248   9.927
 8236W        W73221   5.458  27.899   1.633
 8237W        W73222  40.781  34.370  14.106
 8238W        W73223  37.409  26.698  12.045
 8239W        W73224  17.164  16.650   2.627
 8240W        W73225  37.390   5.736   3.662
 8241W        W73226  10.765  34.520   2.694
 8242W        W73227  29.089  18.348  11.975
 8243W        W73228  30.622  22.524   3.701
 8244W        W73229  27.645  25.263   1.708
 8245W        W73230  20.652  41.381   3.302
 8246W        W73231  16.539  14.303  12.124
 8247W        W73232  39.896  24.113   0.744
 8248W        W73233  15.952  23.405   1.960
 8249W        W73234  38.249   2.434  10.915
 8250W        W73235  15.349  11.270   1.393
 8251W        W73236  21.694   7.322   0.239
 8252W        W73237  24.130   9.003  11.191
 8253W        W73238  26.449  33.635  14.472
 8254W        W73239  34.105  28.045   2.306
 8255W        W73240  40.837   2.944   1.382
 8256W        W73241  44.258  44.383   2.205
 8257W        W73242   7.677  33.033  14.257
 8258W        W73243  34.270  39.021  10.946
 8259W        W73244  12.830  24.576  12.663
 8260W        W73245  38.740  28.637  12.478
 8261W        W73246  32.668  22.108  11.683
 8262W        W73247  10.117   6.304  12.851
 8263W        W73248  26.757  25.166  12.986
 8264W        W73249  23.508  30.054  12.817
 8265W        W73250  19.636  16.016  11.594
 8266W        W73251  16.280   7.962  14.255
 8267W        W73252  35.945  23.165   3.163
 8268W        W73253  10.778   1.540   2.143
 8269W        W73254  41.876   1.202  12.644
 8270W        W73255  18.469   3.680   3.134
 8271W        W73256  38.583  21.482   1.264
 8272W        W73257   2.310   1.479   3.353
 8273W        W73258   9.447  21.313   4.071
 8274W        W73259  27.037  20.508   1.396
 8275W        W73260  11.900  44.037   3.705
 8276W        W73261  29.341  16.632   4.429
 8277W        W73262  13.075   4.378  11.141
 8278W        W73263   8.470  19.041  11.075
 8279W        W73264   4.949  31.582  13.029
 8280W        W73265  21.955  41.306   3.271
 8281W        W73266  40.953  43.798   4.979
 8282W        W73267  33.973  38.413   2.291
 8283W        W73268  35.458  29.369  11.873
 8284W        W73269  25.146  16.512  11.041
 8285W        W73270  38.829  37.658  10.793
 8286W        W73271  39.777  18.328   2.400
 8287W        W73272  40.581  22.161  13.920
 8288W        W73273   2.903   3.002  11.618
 8289W        W73274  38.318  11.210  14.908
 8290W        W73275  22.727  36.506   1.900
 8291W        W73276  11.155  44.748  12.450
 8292W        W73277  44.342  33.629   2.186
 8293W        W73278  37.158  11.412  10.267
 8294W        W73279   6.539  44.723   2.181
 8295W        W73280  16.696   9.699   2.832
 8296W        W73281  38.123  16.838   1.388
 8297W        W73282  36.915   9.704  11.938
 8298W        W73283  37.047  17.029   4.214
 8299W        W73284  32.065  32.390   1.361
 8300W        W73285  11.222  21.247   3.130
 8301W        W73286   9.242  26.180  11.617
 8302W        W73287   8.726   8.961  11.459
 8303W        W73288   3.318  19.684   0.842
 8304W        W73289  29.932  33.129   2.200
 8305W        W73290  13.149  22.340  14.765
 8306W        W73291  39.838  10.232  11.132
 8307W        W73292  26.594  10.688   0.796
 8308W        W73293   2.504   3.859  13.505
 8309W        W73294  32.178   3.841  11.829
 8310W        W73295  19.644  26.532  14.461
 8311W        W73296  19.027  16.612  13.306
 8312W        W73297   6.854  29.643   1.395
 8313W        W73298   0.376  21.453   4.265
 8314W        W73299  22.082   7.496  10.709
 8315W        W73300   7.785  39.642  13.979
 8316W        W73301   1.207  17.369   0.856
 8317W        W73302  26.331  17.243   3.407
 8318W        W73303   6.226   5.807  12.988
 8319W        W73304   6.453   3.936   3.227
 8320W        W73305  39.373  13.023  13.952
 8321W        W73306  39.614   3.455  11.129
 8322W        W73307  28.060  30.317   1.593
 8323W        W73308  12.129  35.574  10.989
 8324W        W73309   5.257  13.780   3.153
 8325W        W73310  41.092  28.497  12.933
 8326W        W73311  17.813  26.446   1.212
 8327W        W73312  15.101  19.732  14.266
 8328W        W73313   6.906  18.138   4.552
 8329W        W73314  37.066  42.489   3.697
 8330W        W73315   9.437  16.575   0.255
 8331W        W73316  27.048  30.130  12.602
 8332W        W73317  10.927  37.095  13.415
 8333W        W73318  13.182  32.971   4.212
 8334W        W73319  10.193  20.158  14.273
 8335W        W73320  13.247   9.079   1.183
 8336W        W73321  32.371   1.322   3.107
 8337W        W73322  44.023  35.074   4.153
 8338W        W73323  21.530   4.176  13.565
 8339W        W73324  29.721  41.708   4.192
 8340W        W73325  39.374  34.966   5.401
 8341W        W73326  29.391  39.488  12.921
 8342W        W73327   6.472  38.874  13.526
 8343W        W73328  24.584  24.184   1.332
 8344W        W73329  12.321  44.099   4.056
 8345W        W73330  39.927  21.746   3.648
 8346W        W73331  41.969  38.913   4.019
 8347W        W73332  39.341  35.170   3.088
 8348W        W73333  41.270  12.048  13.569
 8349W        W73334  39.809  41.974   3.285
 8350W        W73335  22.067  33.936   2.228
 8351W        W73336  20.501   3.476   2.894
 8352W        W73337  42.220  32.445   1.767
 8353W        W73338  39.378  14.902  12.656
 8354W        W73339  37.494  34.645   2.396
 8355W        W73340  38.504  23.808   2.474
 8356W        W73341   1.241  34.850  10.397
 8357W        W73342   2.896  20.620  11.508
 8358W        W73343   1.516   1.891   2.667
 8359W        W73344  19.377  27.282   4.557
 8360W        W73345  21.392   4.412   0.853
 8361W        W73346  17.530  44.234  10.591
 8362W        W73347  10.346  44.518   4.600
 8363W        W73348  13.529   8.172   1.804
 8364W        W73349   1.629   6.218   1.841
 8365W        W73350  43.967  27.212  13.270
 8366W        W73351  19.195  23.733  14.455
 8367W        W73352  26.498   9.520  13.416
 8368W        W73353  43.818  10.510   2.050
 8369W        W73354  11.182  12.476  11.142
 8370W        W73355  43.285  44.487   3.655
 8371W        W73356  42.141  18.603   3.240
 8372W        W73357  35.282   9.807  13.702
 8373W        W73358  42.516   2.752  12.120
 8374W        W73359  33.087  42.752   3.287
 8375W        W73360  31.658  25.701  11.289
 8376W        W73361  15.815   4.411   2.787
 8377W        W73362  31.925  44.761  12.620
 8378W        W73363   4.322  21.051  13.370
 8379W        W73364  31.916  25.671  12.607
 8380W        W73365  21.765  16.347  14.362
 8381W        W73366  10.358   2.182   1.726
 8382W        W73367  12.734  44.385  12.899
 8383W        W73368  13.266   8.435  11.488
 8384W        W73369  12.815  33.877  12.617
 8385W        W73370   4.817  42.053  13.091
 8386W        W73371  29.489  11.179   0.335
 8387W        W73372   3.971  40.414   4.110
 8388W        W73373  36.054   2.426   2.495
 8389W        W73374  23.690   7.436  14.318
 8390W        W73375  42.858  14.629  13.409
 8391W        W73376   9.336  16.416  14.758
 8392W        W73377   6.391  29.401   1.384
 8393W        W73378  32.489  35.824  10.882
 8394W        W73379  35.811   7.099  12.950
 8395W        W73380  28.681   5.178   4.695
 8396W        W73381  33.571  43.170  12.941
 8397W        W73382   3.759   4.293   4.983
 8398W        W73383  13.575  27.729   1.689
 8399W        W73384  37.771  19.193   3.377
 8400W        W73385  38.810  37.840   1.697
 8401W        W73386  14.183  41.857   4.196
 8402W        W73387  39.949  41.733   0.472
 8403W        W73388  44.887  12.391  10.528
 8404W        W73389  26.756  44.857  13.826
 8405W        W73390   4.768  40.929   0.826
 8406W        W73391   2.139  32.904  11.499
 8407W        W73392   2.795  31.156   3.793
 8408W        W73393  19.247  40.406   3.565
 8409W        W73394  21.214   9.499   1.636
 8410W        W73395   6.812  12.824  10.902
 8411W        W73396  31.186   3.239  13.942
 8412W        W73397  44.243   9.354   4.489
 8413W        W73398  19.832  36.235  13.478
 8414W        W73399  19.932   1.650   0.027
 8415W        W73400  20.999   3.549  11.409
 8416W        W73401   7.191  20.482   1.269
 8417W        W73402  14.560  38.588  13.485
 8418W        W73403  19.795   9.179   0.302
 8419W        W73404  12.662  20.055   3.322
 8420W        W73405  36.824   0.552  13.887
 8421W        W73406  36.628  36.446  11.652
 8422W        W73407  28.098  40.591  12.427
 8423W        W73408  36.084   9.962  10.735
 8424W        W73409   4.403  31.617   0.915
 8425W        W73410  20.993  33.952  11.924
 8426W        W73411  23.130  22.168  10.560
 8427W        W73412  25.014  41.623  13.648
 8428W        W73413  24.062  22.555  11.110
 8429W        W73414  13.684  26.366   4.559
 8430W        W73415  44.993  21.626   4.552
 8431W        W73416  30.396  18.841  11.634
 8432W        W73417   7.430  29.096  12.615
 8433W        W73418  42.487   8.390   2.875
 8434W        W73419   6.681  17.801  14.103
 8435W        W73420   7.361  33.761   3.569
 8436W        W73421   3.104   1.413   0.820
 8437W        W73422  27.560  38.964  10.776
 8438W        W73423   3.114  30.166   0.309
 8439W        W73424  39.712  33.396   2.825
 8440W        W73425  21.501  44.245  10.869
 8441W        W73426  16.220  33.462  11.389
 8442W        W73427  42.012  10.673   3.558
 8443W        W73428  20.710  26.246  11.467
 8444W        W73429  35.027  41.930   4.657
 8445W        W73430  26.111  18.069  12.369
 8446W        W73431  16.277   9.408   2.899
 8447W        W73432  35.115  33.495   0.351
 8448W        W73433  41.985  21.096  11.680
 8449W        W73434  43.825  31.408   4.386
 8450W        W73435  33.932   4.322  14.364
 8451W        W73436  11.591  16.822   4.583
 8452W        W73437  17.119  38.090   2.995
 8453W        W73438  23.492   4.773  11.555
 8454W        W73439   8.004  26.131   2.358
 8455W        W73440  35.719  40.825  14.834
 8456W        W73441  21.699   2.479  12.570
 8457W        W73442  19.324  33.953   3.617
 8458W        W73443  11.905  44.525   2.097
 8459W        W73444  30.157  26.584   1.837
 8460W        W73445  29.437  36.526   4.516
 8461W        W73446  30.150   9.424   4.105
 8462W        W73447  25.091  10.019   1.943
 8463W        W73448   4.613  37.394  10.795
 8464W        W73449  21.827  11.266  13.315
 8465W        W73450  11.197  29.421   2.729
 8466W        W73451  11.558  26.470   3.552
 8467W        W73452  37.824  16.142  12.452
 8468W        W73453  12.197   1.975   3.293
 8469W        W73454  13.565  32.610   1.788
 8470W        W73455  23.972  22.044   4.710
 8471W        W73456   6.232   6.947   2.179
 8472W        W73457  14.714  23.764  12.772
 8473W        W73458   5.699  23.476  13.020
 8474W        W73459  25.057  17.209   0.833
 8475W        W73460  16.332  28.969   0.785
 8476W        W73461  26.635  17.886  13.420
 8477W        W73462  40.982  12.398  14.828
 8478W        W73463   8.413  39.460  12.110
 8479W        W73464  43.843  33.708   3.442
 8480W        W73465  43.867  32.051  14.954
 8481W        W73466  20.608  25.942   0.419
 8482W        W73467  18.266  18.847   1.874
 8483W        W73468  19.157  33.923  14.409
 8484W        W73469   0.542  12.228  14.866
 8485W        W73470  29.629  28.478   0.525
 8486W        W73471  22.213  25.136   2.271
 8487W        W73472  28.100   9.910  13.471
 8488W        W73473  28.000  14.033  12.426
 8489W        W73474   3.239  35.023   2.713
 8490W        W73475  36.984  24.788  12.796
 8491W        W73476   4.032  30.593   2.196
 8492W        W73477  12.807  26.445  12.005
 8493W        W73478  24.770  37.842   4.228
 8494W        W73479  18.701  22.263  12.558
 8495W        W73480  38.849  17.823  10.883
 8496W        W73481   2.051  43.398  13.931
 8497W        W73482   8.936   6.821   3.869
 8498W        W73483  18.533  29.093   2.667
 8499W        W73484  30.431   0.824  13.966
 8500W        W73485   3.026  29.533  14.938
 8501W        W73486  18.357  32.572   4.122
 8502W        W73487  25.267  34.634  14.794
 8503W        W73488  18.268  42.483   0.771
 8504W        W73489  11.162   3.765   4.200
 8505W        W73490  40.378  40.742   3.614
 8506W        W73491  15.686  10.386  12.924
 8507W        W73492  33.871  26.391  12.455
 8508W        W73493  27.585  18.115   3.694
 8509W        W73494   7.793  33.017  14.747
 8510W        W73495  27.502  18.588  14.925
 8511W        W73496   2.975   7.414   1.683
 8512W        W73497  25.038  41.838   2.133
 8513W        W73498  38.488  22.659   4.550
 8514W        W73499  33.601  41.788   2.791
 8515W        W73500  27.740  27.696  13.365
 8516W        W73501  29.809  35.363   4.056
 8517W        W73502   7.449   6.282  11.620
 8518W        W73503  17.764   0.376  12.504
 8519W        W73504  19.252  22.726  12.035
 8520W        W73505  20.832  23.554  14.493
 8521W        W73506  20.257  18.085   1.160
 8522W        W73507  35.892  23.403  11.585
 8523W        W73508  38.031   9.664  11.581
 8524W        W73509  35.007  14.230   1.669
 8525W        W73510   0.194  39.992   2.283
 8526W        W73511  30.037  30.688   2.372
 8527W        W73512  13.639  25.544  13.197
 8528W        W73513  21.007  28.022   3.225
 8529W        W73514  38.421  35.703   3.082
 8530W        W73515  28.404  42.376  11.825
 8531W        W73516  44.345  26.272   2.160
 8532W        W73517  10.598  41.782  10.427
 8533W        W73518  19.157  11.242   2.119
 8534W        W73519  31.055  42.275  13.532
 8535W        W73520  23.072  22.365   2.399
 8536W        W73521  19.498   5.864   4.526
 8537W        W73522  19.342   5.241  11.097
 8538W        W73523  34.618  43.627  13.895
 8539W        W73524  19.130   2.750   4.054
 8540W        W73525   8.892  26.171  11.972
 8541W        W73526   0.522  30.850   3.292
 8542W        W73527   2.852  20.237   3.281
 8543W        W73528  32.946  39.348   3.125
 8544W        W73529  23.345  33.946   2.790
 8545W        W73530  18.278  35.812  10.680
 8546W        W73531  25.581   5.671  11.604
 8547W        W73532  11.763   0.672  14.051
 8548W        W73533  21.161  33.645   2.876
 8549W        W73534  13.289  29.939   2.912
 8550W        W73535  31.714  43.196   1.264
 8551W        W73536  26.827  11.227  11.969
 8552W        W73537  10.859  37.340  11.143
 8553W        W73538  32.950  12.412   2.637
 8554W        W73539  31.776  26.476   4.092
 8555W        W73540  23.806  41.471  10.856
 8556W        W73541  21.052  42.819  14.953
 8557W        W73542  27.993   0.757   3.127
 8558W        W73543   4.934  17.260  11.543
 8559W        W73544  10.269  26.648  14.947
 8560W        W73545   6.806  34.054   0.837
 8561W        W73546  37.837   4.961   0.944
 8562W        W73547  40.560  33.729   9.881
 8563W        W73548   6.313  42.105  14.244
 8564W        W73549  33.367   0.989   1.499
 8565W        W73550   3.268  12.657  14.699
 8566W        W73551  32.027  34.604   3.652
 8567W        W73552  16.334  43.753   3.140
 8568W        W73553  44.849  15.057  12.252
 8569W        W73554  44.080  20.562   2.228
 8570W        W73555  37.613  13.795  11.902
 8571W        W73556  29.069  19.847  10.746
 8572W        W73557  29.898  41.130  13.444
 8573W        W73558  36.382  20.709   2.199
 8574W        W73559  28.450  44.678  13.379
 8575W        W73560  36.402   9.743   2.746
 8576W        W73561  25.618   4.007  14.761
 8577W        W73562  39.181  15.880   4.854
 8578W        W73563   3.467   1.678  12.385
 8579W        W73564  31.613  33.902  13.538
 8580W        W73565  40.288  16.359  14.846
 8581W        W73566  33.324  20.631   3.232
 8582W        W73567  18.866  23.033  12.819
 8583W        W73568  13.625   6.857   4.618
 8584W        W73569  22.942  36.827   4.067
 8585W        W73570  36.031  30.992  13.064
 8586W        W73571  10.791   8.307   2.868
 8587W        W73572  15.151   7.454  11.189
 8588W        W73573  24.188  16.076  11.123
 8589W        W73574  38.342   2.828  14.413
 8590W        W73575  31.997  31.616   3.293
 8591W        W73576  26.171   2.869   0.960
 8592W        W73577  10.917  40.756  12.407
 8593W        W73578  16.809  10.069   9.963
 8594W        W73579  37.651  31.548  14.998
 8595W        W73580  21.517  24.735   1.281
 8596W        W73581   8.176  13.077   2.519
 8597W        W73582  15.420  44.241   1.764
 8598W        W73583  30.184  43.170   1.277
 8599W        W73584  44.850  21.993  14.396
 8600W        W73585  35.980  24.487  13.848
 8601W        W73586  20.609  26.558  13.739
 8602W        W73587  15.030  11.100  11.364
 8603W        W73588  37.594  29.427  13.032
 8604W        W73589  16.281  39.559   3.566
 8605W        W73590  24.458  13.417   1.791
 8606W        W73591  36.509  22.773  12.111
 8607W        W73592   0.557   4.586  10.974
 8608W        W73593  42.931  43.352  11.488
 8609W        W73594   9.619   1.556  14.826
 8610W        W73595  29.145  24.088  10.773
 8611W        W73596  13.603   5.309  14.989
 8612W        W73597  18.563  31.788   2.324
 8613W        W73598   2.258  33.607  12.648
 8614W        W73599  17.252   4.958   2.882
 8615W        W73600  11.070  20.092   4.101
 8616W        W73601  37.255  43.696   2.721
 8617W        W73602  13.997  25.052   2.295
 8618W        W73603  34.715  35.194   3.407
 8619W        W73604  22.530  29.701   2.279
 8620W        W73605  13.567  40.053  14.980
 8621W        W73606  30.598  21.160  10.410
 8622W        W73607   3.389  30.784  10.525
 8623W        W73608  25.744  24.926  11.592
 8624W        W73609  43.516  34.448  10.681
 8625W        W73610  11.002   3.070   0.710
 8626W        W73611  14.633  38.583   1.245
 8627W        W73612   1.266  36.745   4.121
 8628W        W73613  37.620  10.855   4.820
 8629W        W73614  20.979   4.249   1.256
 8630W        W73615  24.503   7.128  14.528
 8631W        W73616  41.009  40.799   2.212
 8632W        W73617  20.303   5.666   4.182
 8633W        W73618  15.769  21.352  14.899
 8634W        W73619   0.357  31.601   2.252
 8635W        W73620  32.334   9.856  11.509
 8636W        W73621  16.662   6.331   4.822
 8637W        W73622  34.876  19.448  14.510
 8638W        W73623  38.651  29.598   4.598
 8639W        W73624   1.456  44.252  14.037
 8640W        W73625  44.800  21.903   3.291
 8641W        W73626   5.133  42.774   0.729
 8642W        W73627  29.458  16.862  13.960
 8643W        W73628  42.069  10.186   2.657
 8644W        W73629  22.303  40.103   1.152
 8645W        W73630  26.072  22.238   2.889
 8646W        W73631  23.152  38.541  14.325
 8647W        W73632  39.000  41.483   0.688
 8648W        W73633   9.804  27.120  14.041
 8649W        W73634  30.675  42.323  11.955
 8650W        W73635  40.569  30.430   2.909
 8651W        W73636  14.263   4.539   4.691
 8652W        W73637  36.501   3.454   4.014
 8653W        W73638   9.272  23.940  11.596
 8654W        W73639  15.560  35.879  12.403
 8655W        W73640  24.916  13.826  12.210
 8656W        W73641  41.341   1.978   2.912
 8657W        W73642  44.284  20.054   2.418
 8658W        W73643  44.286  14.237   4.518
 8659W        W73644  19.128   5.226  14.911
 8660W        W73645  22.942  40.293  10.518
 8661W        W73646  40.080  16.803   0.056
 8662W        W73647  39.508  38.250  11.866
 8663W        W73648  40.066  15.602  13.616
 8664W        W73649  27.131  39.295   1.462
 8665W        W73650   5.384   9.139   1.385
 8666W        W73651  26.232  11.896   2.231
 8667W        W73652   8.064   6.732  12.104
 8668W        W73653  36.327  16.101  12.567
 8669W        W73654  27.447  19.129   3.244
 8670W        W73655  31.908  33.619   2.710
 8671W        W73656  15.806  35.503   4.188
 8672W        W73657  28.488  12.284   1.927
 8673W        W73658  17.188   4.178   3.163
 8674W        W73659  43.331  19.801   1.238
 8675W        W73660  16.064  43.359  13.776
 8676W        W73661   3.163  10.322   3.254
 8677W        W73662  21.624  27.092  13.359
 8678W        W73663  39.020  38.439  11.365
 8679W        W73664   4.251   3.292   4.881
 8680W        W73665  44.339  33.694  14.452
 8681W        W73666   9.902   2.543  10.703
 8682W        W73667  43.780   5.153  13.124
 8683W        W73668  19.761  40.462   1.265
 8684W        W73669  17.701  43.614   4.757
 8685W        W73670   0.273  43.434   2.888
 8686W        W73671   3.015  25.328  11.537
 8687W        W73672  34.534  19.796  14.223
 8688W        W73673   9.609  10.632   4.125
 8689W        W73674  23.169  32.683   3.508
 8690W        W73675  40.913  39.278   2.279
 8691W        W73676  32.373  29.889   3.146
 8692W        W73677  40.959  28.228  10.671
 8693W        W73678  20.245  22.669   3.711
 8694W        W73679  28.752  24.720  13.792
 8695W        W73680  36.942  24.353  10.558
 8696W        W73681  43.993  36.189   4.082
 8697W        W73682  11.663  18.820   4.191
 8698W        W73683  42.349  24.473   1.317
 8699W        W73684  43.102  36.665   2.592
 8700W        W73685  20.145  40.017   3.748
 8701W        W73686   8.998  13.097  10.662
 8702W        W73687   5.678  10.888  12.088
 8703W        W73688  28.583  29.557  14.464
 8704W        W73689  33.641   4.847   5.114
 8705W        W73690  11.638  17.821  14.105
 8706W        W73691   7.440  15.274  11.388
 8707W        W73692  16.894  30.424  11.613
 8708W        W73693   8.261  22.358   0.923
 8709W        W73694  18.488   8.200   0.920
 8710W        W73695  42.480   3.944   3.094
 8711W        W73696  26.203  35.460  14.497
 8712W        W73697   2.345  40.975  10.420
 8713W        W73698  35.045  41.967  14.503
 8714W        W73699  39.627   2.725  13.962
 8715W        W73700  30.322  11.307   2.343
 8716W        W73701   4.419   7.447  12.464
 8717W        W73702  14.582   9.048   2.833
 8718W        W73703  32.560   9.518  13.953
 8719W        W73704  20.292  33.060   0.979
 8720W        W73705  37.062  39.002  12.890
 8721W        W73706  43.060  39.428  13.549
 8722W        W73707   4.405   7.507   1.754
 8723W        W73708  22.723  18.660  10.018
 8724W        W73709   0.886   2.213   1.434
 8725W        W73710  22.112  20.349   1.752
 8726W        W73711  16.754   8.671   2.604
 8727W        W73712  32.100   0.377   1.512
 8728W        W73713  18.340  40.610   3.325
 8729W        W73714   6.372  12.318  13.348
 8730W        W73715  14.843  17.111  11.515
 8731W        W73716  34.823  36.563  12.367
 8732W        W73717  18.954  10.922  11.529
 8733W        W73718  33.525  16.358   1.449
 8734W        W73719   5.207  27.082  11.569
 8735W        W73720   1.377  14.157  11.372
 8736W        W73721  44.101  16.687  10.994
 8737W        W73722  20.779  39.084   0.450
 8738W        W73723  25.749  38.951  12.542
 8739W        W73724  29.467  20.486   2.979
 8740W        W73725  25.143  37.514   2.396
 8741W        W73726  40.226  19.777  12.769
 8742W        W73727  27.033  35.103  13.475
 8743W        W73728   5.255  40.766  10.995
 8744W        W73729   8.037  11.572  11.124
 8745W        W73730  27.535  32.633   3.191
 8746W        W73731   4.935  18.580  12.398
 8747W        W73732   0.792   7.322  11.233
 8748W        W73733  26.621  20.975  12.540
 8749W        W73734  32.542  39.553  13.941
 8750W        W73735   9.822  27.897  12.984
 8751W        W73736   8.326  26.783   3.185
 8752W        W73737  16.205  14.652  11.385
 8753W        W73738  29.116  39.331   4.234
 8754W        W73739  11.668   9.622   2.162
 8755W        W73740  29.894  37.383  11.185
 8756W        W73741  39.460   5.780   4.745
 8757W        W73742   0.434  15.248  13.011
 8758W        W73743  32.426  26.130  14.730
 8759W        W73744  21.497  17.235   2.322
 8760W        W73745  24.581  20.111  11.023
 8761W        W73746  11.222  38.921   2.827
 8762W        W73747   4.733  14.312   0.775
 8763W        W73748  30.299  13.091  11.109
 8764W        W73749  31.071   8.203   2.317
 8765W        W73750   0.049  15.860   2.860
 8766W        W73751   2.501  35.175   3.036
 8767W        W73752   6.224   2.158  12.082
 8768W        W73753  22.715  24.143  12.488
 8769W        W73754  25.932  20.175   3.355
 8770W        W73755  39.392   4.430  10.673
 8771W        W73756   8.393  30.507   3.753
 8772W        W73757  35.561  41.372  10.385
 8773W        W73758  25.993  15.657   4.988
 8774W        W73759   7.123  37.464   1.174
 8775W        W73760  29.900  40.290   3.105
 8776W        W73761  37.379  11.006  10.531
 8777W        W73762  21.999  32.342   0.796
 8778W        W73763  37.982  14.781   3.192
 8779W        W73764  13.796  36.993   4.869
 8780W        W73765  22.451  32.876   4.538
 8781W        W73766  15.120  42.820  14.226
 8782W        W73767  35.491  25.035  13.432
 8783W        W73768   2.341  37.336  11.013
 8784W        W73769  20.505  12.123   1.444
 8785W        W73770  37.333  16.018   0.348
 8786W        W73771  18.344  30.034  13.542
 8787W        W73772   9.915  11.941   1.179
 8788W        W73773  37.373   1.894  12.080
 8789W        W73774  18.590  20.705   0.341
 8790W        W73775  22.772   6.492   0.219
 8791W        W73776  27.030  41.417  12.499
 8792W        W73777   0.546  28.086  14.325
 8793W        W73778   3.717  42.268   0.849
 8794W        W73779  42.808   4.922   2.216
 8795W        W73780  24.619  36.094   3.682
 8796W        W73781  26.983  32.483  12.114
 8797W        W73782   7.865  21.938   2.022
 8798W        W73783  17.964  26.890  11.617
 8799W        W73784  14.839  44.083   3.719
 8800W        W73785   5.254  15.863  11.004
 8801W        W73786   2.358   7.824  14.376
 8802W        W73787  30.037  18.743  14.494
 8803W        W73788  32.229  22.313   0.892
 8804W        W73789  27.942  23.397  13.893
 8805W        W73790  22.791  41.219  14.715
 8806W        W73791  41.471  12.776   2.935
 8807W        W73792  30.956   6.004   3.150
 8808W        W73793  38.030  17.551  13.178
 8809W        W73794   4.382   5.544   0.481
 8810W        W73795  34.477  39.817  12.047
 8811W        W73796  37.153  20.106   2.236
 8812W        W73797  36.612  40.944   3.390
 8813W        W73798  23.196   7.900   3.579
 8814W        W73799  18.575   3.218   2.922
 8815W        W73800  43.410  26.789   2.108
 8816W        W73801  18.097   9.064   1.479
 8817W        W73802  18.541  13.875  13.763
 8818W        W73803  26.269  20.047   2.401
 8819W        W73804  34.135  37.396  11.313
 8820W        W73805  15.112  26.151  14.275
 8821W        W73806  14.177  12.912   4.089
 8822W        W73807  17.866  36.901  12.258
 8823W        W73808  41.509  40.271   3.655
 8824W        W73809   4.894   8.766  13.301
 8825W        W73810  37.276  23.828  12.969
 8826W        W73811  11.145  33.604  11.472
 8827W        W73812  13.408   4.886  11.215
 8828W        W73813   5.507  38.064  11.941
 8829W        W73814  20.350  32.064   1.725
 8830W        W73815  21.162  10.959   4.295
 8831W        W73816  39.267  39.478  13.989
 8832W        W73817  34.362  34.069  13.485
 8833W        W73818  44.079  35.018   2.707
 8834W        W73819   0.242  37.802  10.686
 8835W        W73820  17.162  21.280   2.372
 8836W        W73821   3.092   1.427  12.987
 8837W        W73822  32.846  33.834  11.042
 8838W        W73823   9.468  22.257  10.907
 8839W        W73824  31.750  16.810   2.031
 8840W        W73825  14.365   5.076  11.627
 8841W        W73826   1.802  28.718   0.361
 8842W        W73827   4.567  44.001  13.090
 8843W        W73828  28.168  36.178  12.921
 8844W        W73829  40.753  14.071   2.280
 8845W        W73830  32.493  28.262  14.580
 8846W        W73831  12.326  32.022  10.920
 8847W        W73832  41.543  33.335   0.799
 8848W        W73833  24.778  26.161  11.595
 8849W        W73834   5.220  26.353  14.889
 8850W        W73835  43.992  20.243  13.051
 8851W        W73836  23.059  29.492  10.585
 8852W        W73837  21.666  30.168   2.113
 8853W        W73838  19.082   0.724   3.561
 8854W        W73839   9.351  15.337   0.453
 8855W        W73840  29.511   2.300   4.644
 8856W        W73841  37.464  35.443   2.580
 8857W        W73842   9.671   1.539   1.953
 8858W        W73843  17.714  44.352   0.457
 8859W        W73844  40.539  40.913   4.053
 8860W        W73845  29.463  38.359  12.917
 8861W        W73846  42.722  15.100   0.874
 8862W        W73847   7.768  29.544  13.601
 8863W        W73848   8.476  38.802   0.205
 8864W        W73849   2.831  38.600   3.382
 8865W        W73850  10.065  20.585   1.880
 8866W        W73851  30.035  13.142   1.115
 8867W        W73852  44.757  11.498   3.492
 8868W        W73853  21.434  42.488   0.803
 8869W        W73854  44.650  15.614  11.591
 8870W        W73855  16.185  34.855  12.979
 8871W        W73856  28.928  31.364   3.651
 8872W        W73857  12.373  32.466  13.491
 8873W        W73858   0.199  38.027   3.221
 8874W        W73859  35.511  39.273  14.648
 8875W        W73860  37.784  13.729   0.544
 8876W        W73861   9.369  11.804   3.653
 8877W        W73862   0.869  15.890   2.135
 8878W        W73863  38.614   7.766  10.641
 8879W        W73864  10.565  36.518  12.433
 8880W        W73865  26.683  12.678   2.673
 8881W        W73866  27.714   5.459   1.905
 8882W        W73867  18.325  20.252  11.977
 8883W        W73868  25.508   2.262  13.889
 8884W        W73869  22.263  44.035   3.688
 8885W        W73870  42.825  12.266   1.200
 8886W        W73871  27.067   6.225  13.200
 8887W        W73872  37.217  24.606   4.685
 8888W        W73873  36.313  32.922   0.994
 8889W        W73874  17.861   1.449  11.604
 8890W        W73875   6.793  18.164  13.051
 8891W        W73876   3.579  19.059  11.949
 8892W        W73877  18.906   6.982   3.584
 8893W        W73878  30.399   6.756  10.616
 8894W        W73879   1.489  35.593   2.387
 8895W        W73880   1.398  37.312  14.325
 8896W        W73881  26.642   8.289  12.999
 8897W        W73882  35.929  15.243   4.123
 8898W        W73883   8.068  25.489  11.646
 8899W        W73884  13.653   3.187  10.723
 8900W        W73885  19.778  21.492  14.995
 8901W        W73886  34.179  22.085  12.378
 8902W        W73887   0.046   0.978   3.595
 8903W        W73888  44.736  25.891  14.819
 8904W        W73889  36.546  31.031  13.166
 8905W        W73890  43.066  30.532   4.003
 8906W        W73891   7.753  16.532   3.904
 8907W        W73892  22.545   9.932  14.756
 8908W        W73893  41.470   9.413   0.315
 8909W        W73894  18.099   4.917  14.323
 8910W        W73895  41.778  17.976   2.627
 8911W        W73896  12.087   7.354   1.250
 8912W        W73897   2.363  35.828   2.231
 8913W        W73898  15.228  30.144  13.000
 8914W        W73899  14.650  38.279   3.147
 8915W        W73900  23.124  41.858   4.144
 8916W        W73901  36.365  12.311  14.500
 8917W        W73902  44.299  13.047   0.589
 8918W        W73903  17.626  15.270   4.330
 8919W        W73904  11.430   7.420  10.108
 8920W        W73905   8.505   4.497  11.219
 8921W        W73906  20.787  34.109   0.544
 8922W        W73907  26.743  36.453   3.649
 8923W        W73908  16.803  32.663  14.450
 8924W        W73909  36.471   4.304   4.404
 8925W        W73910   8.401  21.718   3.688
 8926W        W73911  35.778   7.663  10.735
 8927W        W73912  15.686  37.321  14.074
 8928W        W73913  31.272  33.899   0.439
 8929W        W73914  23.185  19.258  12.124
 8930W        W73915   1.888   6.846   1.004
 8931W        W73916  38.021  41.276   2.108
 8932W        W73917   1.720  10.752   2.321
 8933W        W73918   5.059  35.589  11.995
 8934W        W73919  31.616  30.349   3.121
 8935W        W73920  44.617  42.500  14.777
 8936W        W73921  36.222  27.418   4.897
 8937W        W73922  30.447  15.322  13.967
 8938W        W73923   0.961  37.651  11.954
 8939W        W73924  15.251  11.495  10.680
 8940W        W73925   3.137  30.410  14.851
 8941W        W73926  43.843  42.482  12.824
 8942W        W73927  35.664  18.786  14.823
 8943W        W73928  33.131  40.340   4.191
 8944W        W73929  14.810  42.157  12.314
 8945W        W73930  16.212  31.299   0.769
 8946W        W73931  22.997  43.397  12.918
 8947W        W73932  25.048  13.534   2.717
 8948W        W73933   5.610  31.402   3.800
 8949W        W73934  31.340  13.836  12.228
 8950W        W73935   3.831  16.026  12.016
 8951W        W73936  14.128   8.603   1.266
 8952W        W73937  32.413  42.030  13.923
 8953W        W73938  40.679  22.407  13.090
 8954W        W73939  39.327  32.171  11.142
 8955W        W73940   6.204  11.869   3.682
 8956W        W73941  42.740  40.610   2.705
 8957W        W73942  31.502  27.727   1.453
 8958W        W73943  11.561   1.403   1.897
 8959W        W73944  16.776  40.406   0.467
 8960W        W73945  44.935  20.571   1.973
 8961W        W73946  30.501  44.457   0.073
 8962W        W73947  23.986  42.415   1.361
 8963W        W73948  35.913   4.836   4.825
 8964W        W73949  19.177  35.435   0.901
 8965W        W73950   3.550   0.834  14.852
 8966W        W73951  23.330  36.032   3.930
 8967W        W73952   1.496   7.791   1.725
 8968W        W73953  44.389  17.818   4.953
 8969W        W73954   2.631  37.395   3.985
 8970W        W73955  16.609  26.987   0.728
 8971W        W73956  30.525  12.120   4.589
 8972W        W73957   8.202   7.451   2.302
 8973W        W73958   2.333  33.795   2.348
 8974W        W73959  34.041  20.962  11.137
 8975W        W73960  25.270  32.437   3.946
 8976W        W73961   6.138  27.492  10.588
 8977W        W73962  23.299  14.703  12.443
 8978W        W73963  30.389  31.803   5.036
 8979W        W73964  10.846  15.841  10.665
 8980W        W73965  23.383  26.359  14.309
 8981W        W73966  10.109   0.942  12.323
 8982W        W73967  26.161  15.659  11.523
 8983W        W73968   4.845  19.200  13.569
 8984W        W73969   6.502  33.552   5.201
 8985W        W73970  14.794   7.331   4.201
 8986W        W73971  36.935   1.207  11.490
 8987W        W73972  30.116  16.554   2.197
 8988W        W73973  29.697  27.838   1.949
 8989W        W73974   2.323  14.043  11.169
 8990W        W73975  14.218  10.876  11.064
 8991W        W73976   7.857  25.086   0.249
 8992W        W73977  38.278   0.480  12.609
 8993W        W73978  34.982  29.480   1.905
 8994W        W73979  23.772  36.890   4.344
 8995W        W73980  39.110  43.434   0.861
 8996W        W73981  39.933  38.592  14.869
 8997W        W73982  16.443  11.116  10.941
 8998W        W73983  36.511  19.288   3.119
 8999W        W73984  21.767  29.111  11.760
 9000W        W73985  14.344  15.206   4.533
 9001W        W73986   8.314  18.141  14.289
 9002W        W73987  13.280  30.423  14.483
 9003W        W73988  31.472  15.121   2.759
 9004W        W73989  16.997  41.581   3.061
 9005W        W73990  28.534  16.285  13.535
 9006W        W73991  14.031  29.832   2.221
 9007W        W73992  41.010  20.903   1.877
 9008W        W73993  43.102  24.215   2.125
 9009W        W73994  44.841  23.256   0.441
 9010W        W73995  44.130   4.765  13.086
 9011W        W73996  43.366   4.693  12.423
 9012W        W73997   8.723  18.638   2.825
 9013W        W73998  13.601   7.774   4.144
 9014W        W73999  16.293  39.046   1.035
 9015W        W74000  32.482  31.665  13.930
 9016W        W74001  10.375  17.717   3.928
 9017W        W74002  24.453  11.369  14.812
 9018W        W74003   2.023  37.956   4.998
 9019W        W74004  20.919  19.122   0.795
 9020W        W74005  27.979  10.678  11.655
 9021W        W74006  12.614  35.914   3.900
 9022W        W74007   3.909   5.887  11.596
 9023W        W74008   8.367  44.023   4.936
 9024W        W74009  15.641  30.875  12.005
 9025W        W74010  16.206   8.890   3.139
 9026W        W74011  40.332  38.054   1.519
 9027W        W74012  41.043   5.975   0.843
 9028W        W74013  24.233  44.739  13.470
 9029W        W74014  19.292  42.292   4.546
 9030W        W74015  20.702  35.842  13.489
 9031W        W74016  42.917  43.328   4.447
 9032W        W74017  35.402  10.806  14.601
 9033W        W74018  19.207  44.259  11.489
 9034W        W74019  20.986  43.852  12.220
 9035W        W74020  30.671  42.972  12.472
 9036W        W74021  44.673  20.970  14.380
 9037W        W74022  20.326  14.219   0.756
 9038W        W74023  25.147  12.774   1.393
 9039W        W74024  32.102  31.028   1.892
 9040W        W74025  17.156  43.466  10.797
 9041W        W74026  41.998   9.308   3.670
 9042W        W74027  14.381  23.329  11.063
 9043W        W74028  28.628  21.366  14.390
 9044W        W74029  28.445   5.459  12.849
 9045W        W74030   3.752  15.144  14.561
 9046W        W74031  16.894   1.967   4.534
 9047W        W74032  13.855  10.339  11.597
 9048W        W74033   1.300   5.000   4.070
 9049W        W74034   6.428  34.015   2.349
 9050W        W74035   1.523   9.460   3.218
 9051W        W74036   7.985  42.769  14.963
 9052W        W74037   8.287  16.183  13.279
 9053W        W74038  15.559  34.655  14.904
 9054W        W74039   4.849  21.232  12.196
 9055W        W74040  12.011  31.134  13.092
 9056W        W74041  17.550  40.260   3.182
 9057W        W74042  25.582  14.598  12.046
 9058W        W74043  28.499  14.733  14.347
 9059W        W74044  34.938  44.596  11.086
 9060W        W74045  39.065  28.043   1.605
 9061W        W74046  19.560   3.420   2.628
 9062W        W74047   3.311   8.952  14.466
 9063W        W74048  14.170   6.985   1.865
 9064W        W74049  43.033  22.300   5.025
 9065W        W74050  26.455   5.939  10.643
 9066W        W74051  25.240   6.215   3.346
 9067W        W74052  22.016  26.525   2.312
 9068W        W74053   3.632  27.608  14.802
 9069W        W74054  18.267  27.391  11.593
 9070W        W74055  25.138  18.461  11.102
 9071W        W74056  19.743  10.732  10.776
 9072W        W74057   9.612  16.110   4.168
 9073W        W74058  23.583   0.272  12.576
 9074W        W74059  43.384  37.243   2.008
 9075W        W74060  25.259  22.206   1.303
 9076W        W74061  17.506  17.228   0.890
 9077W        W74062  39.280  39.734  13.010
 9078W        W74063  12.885  31.563  12.659
 9079W        W74064   3.449  42.776   2.492
 9080W        W74065   1.832  14.145   0.233
 9081W        W74066  24.520  25.910  11.220
 9082W        W74067  34.026   3.300  10.762
 9083W        W74068  41.496   9.007   1.726
 9084W        W74069  37.686   9.229  11.000
 9085W        W74070  24.497   1.872  14.724
 9086W        W74071  44.429  25.940   5.057
 9087W        W74072  40.533   3.851   1.536
 9088W        W74073  17.779  16.754   3.127
 9089W        W74074  22.512  13.425  12.900
 9090W        W74075  32.221  37.940  11.099
 9091W        W74076  22.078  36.419   3.716
 9092W        W74077  11.248  39.549   3.732
 9093W        W74078  10.918  32.640   3.216
 9094W        W74079  11.777   5.936  12.478
 9095W        W74080  33.003  44.274  11.676
 9096W        W74081  26.758   9.842   3.569
 9097W        W74082  41.470  10.860  14.487
 9098W        W74083   0.215   4.241  11.156
 9099W        W74084  21.698  28.199   2.181
 9100W        W74085  27.114  20.765  11.174
 9101W        W74086  21.747  35.907   0.944
 9102W        W74087  13.448  32.265   4.702
 9103W        W74088  39.910  40.954   2.652
 9104W        W74089  34.000  11.714   3.294
 9105W        W74090  36.649  19.246  13.040
 9106W        W74091  24.226  23.147   0.226
 9107W        W74092  12.240  35.310  13.797
 9108W        W74093  27.569  26.094  13.520
 9109W        W74094  35.670   7.196   4.050
 9110W        W74095  40.949  16.573   3.442
 9111W        W74096  10.402  43.919   3.887
 9112W        W74097  13.333  39.880   2.652
 9113W        W74098   2.815  27.554  14.317
 9114W        W74099  11.186   0.248  11.542
 9115W        W74100  32.485  37.097   3.919
 9116W        W74101  28.676  33.905  13.434
 9117W        W74102  42.552  32.701   3.215
 9118W        W74103  16.598  13.366   3.371
 9119W        W74104  13.737  23.926  11.020
 9120W        W74105  40.715  15.116   0.883
 9121W        W74106  44.379  11.302   3.871
 9122W        W74107  39.040  28.381   3.085
 9123W        W74108   7.260  38.848  12.283
 9124W        W74109   3.473  21.191  12.576
 9125W        W74110  35.919   3.469  13.336
 9126W        W74111  43.248   8.182  13.427
 9127W        W74112  19.807   7.914  12.536
 9128W        W74113  20.565  27.178  12.010
 9129W        W74114  38.796  25.181  11.680
 9130W        W74115  16.883  42.384   2.267
 9131W        W74116  27.726  26.112   1.413
 9132W        W74117  40.534   3.372  12.951
 9133W        W74118   5.398  20.819   1.232
 9134W        W74119  15.172   6.118   1.887
 9135W        W74120   4.480  41.381  10.603
 9136W        W74121  26.837   3.835   5.006
 9137W        W74122  42.160  36.702   4.594
 9138W        W74123   8.744   9.301  12.856
 9139W        W74124  39.967  42.488   3.340
 9140W        W74125   6.803  43.914  10.588
 9141W        W74126   2.666  37.829   0.941
 9142W        W74127  16.701  11.305  13.874
 9143W        W74128  19.897  20.782   0.138
 9144W        W74129  41.468  11.645  10.684
 9145W        W74130  24.452  33.997   3.628
 9146W        W74131   1.817  40.915   0.371
 9147W        W74132   2.885   4.263   0.249
 9148W        W74133  37.120   3.928   1.906
 9149W        W74134  42.325  36.901   2.813
 9150W        W74135  17.600   8.793   2.292
 9151W        W74136   2.554  25.712  14.596
 9152W        W74137   6.755  23.979  12.533
 9153W        W74138   8.929  10.958   4.844
 9154W        W74139   2.625  14.930   0.672
 9155W        W74140  36.056  28.184   3.786
 9156W        W74141  42.736  23.431   1.649
 9157W        W74142  23.516  33.702  12.132
 9158W        W74143  41.580  38.493   1.449
 9159W        W74144  35.202  27.041  12.071
 9160W        W74145  32.979  18.402   2.484
 9161W        W74146   1.807  44.284   4.349
 9162W        W74147  12.879  15.984   1.279
 9163W        W74148  26.489  23.491  13.868
 9164W        W74149  24.539   8.387  11.330
 9165W        W74150  14.829  12.530   0.744
 9166W        W74151   3.782  21.915  11.735
 9167W        W74152   7.651  33.403   4.136
 9168W        W74153  12.134  19.394  13.051
 9169W        W74154  24.739  22.060   3.613
 9170W        W74155  21.606  11.489   3.264
 9171W        W74156  10.849   9.806   4.883
 9172W        W74157  36.792  23.583   2.132
 9173W        W74158  12.108   4.729  10.398
 9174W        W74159  19.699  42.223   0.890
 9175W        W74160  17.762  10.273   2.478
 9176W        W74161  22.213  33.959   1.224
 9177W        W74162  40.888   0.436  13.555
 9178W        W74163  28.898  10.764  13.145
 9179W        W74164  17.733   0.610   1.418
 9180W        W74165   0.786  15.244   2.765
 9181W        W74166  38.270  14.238   0.781
 9182W        W74167   6.329  37.108  14.934
 9183W        W74168  12.827  22.318  14.313
 9184W        W74169  21.930   9.175  13.381
 9185W        W74170   1.172  18.700   3.107
 9186W        W74171   6.754  14.897  12.980
 9187W        W74172   4.428  13.100  12.329
 9188W        W74173   6.076  33.636  12.960
 9189W        W74174   1.719  38.763   2.147
 9190W        W74175  10.448  29.637   0.732
 9191W        W74176  16.303  17.623   0.980
 9192W        W74177  25.228   7.278   1.381
 9193W        W74178  41.545  17.614   2.290
 9194W        W74179  24.545   0.457  11.590
 9195W        W74180   5.171  40.830   1.849
 9196W        W74181  27.212  11.568  12.823
 9197W        W74182  22.488  34.542  13.216
 9198W        W74183  34.736  29.636   1.098
 9199W        W74184  21.917   3.282  10.626
 9200W        W74185  13.032  19.566   4.237
 9201W        W74186   0.668  20.165   0.314
 9202W        W74187  42.420  34.186   4.434
 9203W        W74188  32.156  12.094  11.144
 9204W        W74189  37.804  44.803  11.835
 9205W        W74190   1.805  38.753  13.960
 9206W        W74191  30.622  29.009   2.727
 9207W        W74192  10.027  38.618   1.332
 9208W        W74193   0.828  33.446   4.676
 9209W        W74194   8.130   5.106  13.413
 9210W        W74195  10.104  27.075   1.868
 9211W        W74196  20.217  36.574  12.380
 9212W        W74197  21.138  25.891   2.822
 9213W        W74198  21.746  22.970   3.335
 9214W        W74199  23.764  24.759   3.708
 9215W        W74200   3.785   7.294   5.055
 9216W        W74201  40.061  21.249  14.864
 9217W        W74202   5.938   3.524   0.926
 9218W        W74203  36.989  17.236   3.227
 9219W        W74204  39.811  24.667   1.532
 9220W        W74205  40.430   2.788   1.676
 9221W        W74206   4.028   3.800   3.218
 9222W        W74207   1.389  32.323   3.745
 9223W        W74208  27.639  32.617   4.603
 9224W        W74209  23.711  24.085   0.073
 9225W        W74210  35.515  18.220  10.703
 9226W        W74211  14.043  24.256  11.246
 9227W        W74212  35.895   4.387   2.231
 9228W        W74213  30.723   8.310   4.582
 9229W        W74214  10.881  22.520   0.017
 9230W        W74215  32.104  13.340   4.761
 9231W        W74216  20.246  31.406   3.344
 9232W        W74217  17.294   0.788   4.621
 9233W        W74218  11.213  43.363   3.690
 9234W        W74219  37.343  36.820   0.403
 9235W        W74220  12.337  39.581  12.076
 9236W        W74221   7.834  17.231   1.269
 9237W        W74222  12.317   9.351   1.682
 9238W        W74223  10.741   2.229   4.708
 9239W        W74224   4.029  16.546   4.172
 9240W        W74225   1.431  14.923   4.022
 9241W        W74226  23.731  23.031   0.221
 9242W        W74227  43.561  33.027  11.745
 9243W        W74228  16.970  17.576  12.065
 9244W        W74229  29.386   7.939   3.705
 9245W        W74230   2.906  31.008   0.271
 9246W        W74231  41.039  27.131  12.060
 9247W        W74232   4.172  13.082  14.968
 9248W        W74233   0.807   7.395   4.102
 9249W        W74234  31.454  11.722  11.154
 9250W        W74235   3.598  30.866   2.192
 9251W        W74236  44.310  24.024  13.333
 9252W        W74237  26.978  12.125   3.933
 9253W        W74238  23.169  28.129   0.413
 9254W        W74239  21.138  28.887  10.528
 9255W        W74240  31.433   3.709   1.885
 9256W        W74241  38.643  41.730   1.734
 9257W        W74242  36.095   1.536   2.276
 9258W        W74243  11.485  41.475  12.836
 9259W        W74244   9.944   3.337  10.248
 9260W        W74245  32.963  15.814  13.925
 9261W        W74246   2.898   0.654  13.494
 9262W        W74247  37.613  17.303  11.274
 9263W        W74248  42.739  40.602  10.729
 9264W        W74249  26.747   5.514   3.286
 9265W        W74250   6.360  42.888   2.244
 9266W        W74251  35.019   6.436  14.503
 9267W        W74252  22.696  15.646   1.930
 9268W        W74253   7.483  34.487   0.599
 9269W        W74254  29.989  25.142   3.196
 9270W        W74255   4.173  25.530   2.151
 9271W        W74256   1.197  35.514  11.472
 9272W        W74257  42.701  23.060  11.626
 9273W        W74258  12.236  16.297   3.995
 9274W        W74259  41.472  21.672  10.168
 9275W        W74260   2.899  11.319   3.423
 9276W        W74261   3.204  13.896   2.507
 9277W        W74262   1.860  36.358  11.162
 9278W        W74263   0.041   9.755   4.823
 9279W        W74264  38.561  44.435  10.419
 9280W        W74265  20.734  11.140  14.293
 9281W        W74266  37.375  27.457  14.787
 9282W        W74267  40.308   8.614   9.840
 9283W        W74268   4.819  23.430  10.311
 9284W        W74269  13.974  21.610   2.504
 9285W        W74270   2.829  10.212   4.660
 9286W        W74271   9.627  18.704  14.557
 9287W        W74272  40.492  21.677  13.761
 9288W        W74273   7.949  15.836  12.995
 9289W        W74274  13.596  42.885  10.475
 9290W        W74275  26.065  35.620  13.563
 9291W        W74276  11.876  43.794   4.144
 9292W        W74277  21.621  42.376   4.989
 9293W        W74278  10.813  16.331   0.250
 9294W        W74279   1.205  44.594   3.553
 9295W        W74280   1.831  15.285   1.445
 9296W        W74281  22.465  28.181  10.926
 9297W        W74282  22.899  15.770   4.849
 9298W        W74283  34.129  22.039   3.708
 9299W        W74284  43.509   5.725   1.328
 9300W        W74285  33.150  20.230  13.930
 9301W        W74286  42.902   5.212  13.026
 9302W        W74287  18.854   1.439   3.663
 9303W        W74288  41.259  15.113   0.800
 9304W        W74289  41.589  30.154   1.759
 9305W        W74290  22.288  20.578  12.400
 9306W        W74291  27.619  19.828  14.523
 9307W        W74292   9.678  16.101  13.348
 9308W        W74293  43.868  29.131  11.526
 9309W        W74294  39.823   4.680  10.720
 9310W        W74295  41.478  11.601   4.759
 9311W        W74296  33.629  40.025  14.786
 9312W        W74297  10.106   4.396   2.658
 9313W        W74298  37.406  27.393   1.662
 9314W        W74299  15.660  28.640  14.445
 9315W        W74300  29.109  44.544  11.241
 9316W        W74301  19.751  37.978   3.751
 9317W        W74302   6.738  28.430   4.331
 9318W        W74303  25.549   8.551  11.095
 9319W        W74304  11.147   3.875  14.530
 9320W        W74305  11.535  41.062   3.718
 9321W        W74306  11.267  12.513  13.012
 9322W        W74307  19.742  25.604   1.453
 9323W        W74308  14.178  25.584  12.057
 9324W        W74309  27.129  27.435   4.953
 9325W        W74310  20.020  32.743  11.229
 9326W        W74311  21.236  42.402  11.129
 9327W        W74312   5.411  19.461   3.280
 9328W        W74313   1.748  14.788   1.725
 9329W        W74314   6.736  31.987  12.514
 9330W        W74315  43.449  23.314  14.340
 9331W        W74316   1.929  23.908  10.703
 9332W        W74317   3.242  41.413  11.456
 9333W        W74318  25.733  21.223  11.564
 9334W        W74319  41.422   3.636  12.144
 9335W        W74320  31.539  31.836  12.201
 9336W        W74321  15.965  28.659   2.730
 9337W        W74322  34.284  39.631  13.451
 9338W        W74323  16.269   3.299   2.918
 9339W        W74324  42.334  17.785   9.838
 9340W        W74325  16.864   2.777  11.741
 9341W        W74326  37.811  37.502  10.442
 9342W        W74327  26.129  34.512  11.879
 9343W        W74328  33.330  13.344  13.018
 9344W        W74329  18.862  12.284  14.957
 9345W        W74330  14.596  43.426  11.036
 9346W        W74331   9.340  16.773  14.024
 9347W        W74332   6.037  11.242   0.248
 9348W        W74333   4.970  38.147  13.844
 9349W        W74334  44.251  22.517   4.139
 9350W        W74335   8.104  42.338  13.860
 9351W        W74336  42.159  18.478  11.413
 9352W        W74337  23.499  42.861  12.418
 9353W        W74338  23.934  33.991   1.889
 9354W        W74339  41.715  10.222   0.753
 9355W        W74340  18.536  19.750  12.111
 9356W        W74341  13.687  15.936  12.864
 9357W        W74342  34.480  44.924  12.610
 9358W        W74343  30.565  38.968  14.134
 9359W        W74344   8.630  33.568  14.829
 9360W        W74345  23.366  10.577   1.367
 9361W        W74346   8.260  11.576  14.790
 9362W        W74347  28.567  11.028   0.796
 9363W        W74348   5.997  33.495  14.345
 9364W        W74349  41.845  15.547  13.091
 9365W        W74350  33.029  27.601   0.552
 9366W        W74351  28.038   8.694   0.412
 9367W        W74352  38.634  35.602  12.069
 9368W        W74353  14.046  24.489   4.284
 9369W        W74354  28.527  20.178  12.038
 9370W        W74355  36.987   8.111   4.102
 9371W        W74356  33.094  43.040  10.381
 9372W        W74357  11.745  17.847   4.554
 9373W        W74358  33.570   8.957  14.306
 9374W        W74359   7.931  34.066   2.146
 9375W        W74360   2.920  44.864   0.870
 9376W        W74361  41.444  27.363   3.162
 9377W        W74362  38.905  21.706  13.542
 9378W        W74363  38.212   8.664   2.580
 9379W        W74364  32.898  20.757  11.081
 9380W        W74365  43.374   0.878   1.326
 9381W        W74366  38.766   6.332  11.109
 9382W        W74367  34.992  44.668  13.125
 9383W        W74368  34.414  30.936  14.394
 9384W        W74369   4.553  31.938   5.014
 9385W        W74370  18.983  42.341  11.965
 9386W        W74371  19.069  34.970   0.116
 9387W        W74372  15.509  14.696   4.487
 9388W        W74373   4.909   3.680  13.896
 9389W        W74374  24.393  11.064  11.085
 9390W        W74375  12.789   0.555  14.274
 9391W        W74376  12.341  23.116  10.574
 9392W        W74377  13.813  20.476  14.635
 9393W        W74378  38.497  37.444   2.731
 9394W        W74379  32.038  19.627  12.893
 9395W        W74380  35.994  38.745  14.900
 9396W        W74381  15.415  42.973   3.916
 9397W        W74382  35.666  24.516  13.406
 9398W        W74383  26.221  20.249  12.617
 9399W        W74384  37.605  34.962  10.311
 9400W        W74385  14.339  37.433  10.284
 9401W        W74386   1.510  13.737  11.090
 9402W        W74387  19.079   1.276   1.410
 9403W        W74388  44.315  11.744  12.082
 9404W        W74389  11.552  34.587  13.926
 9405W        W74390  30.121  17.181   4.087
 9406W        W74391  11.128   2.290   0.307
 9407W        W74392  17.575  44.357  11.080
 9408W        W74393   4.486   3.491   0.529
 9409W        W74394  32.445  44.593  12.436
 9410W        W74395   7.377  30.117   0.732
 9411W        W74396  22.314  13.185   0.606
 9412W        W74397  17.897  35.857   3.257
 9413W        W74398  13.108  42.543  11.620
 9414W        W74399   7.283  25.528   3.782
 9415W        W74400  37.418  19.708   4.604
 9416W        W74401  21.155  18.568  12.226
 9417W        W74402  22.546  23.222   3.519
 9418W        W74403  17.312   6.875  12.003
 9419W        W74404  10.944  23.304   4.065
 9420W        W74405   8.199  28.553   2.807
 9421W        W74406  23.684   6.876   2.784
 9422W        W74407  13.715  38.452   1.749
 9423W        W74408  20.037  31.411   2.857
 9424W        W74409  14.796  24.772  12.102
 9425W        W74410  25.122  23.648   3.759
 9426W        W74411  41.790   8.420  11.161
 9427W        W74412  24.318  10.155   0.384
 9428W        W74413   6.145  37.814   0.386
 9429W        W74414  15.626   0.771   1.512
 9430W        W74415  10.819  35.328  13.053
 9431W        W74416  40.357  29.224  14.952
 9432W        W74417  17.175   3.846  12.874
 9433W        W74418   4.189  17.845   0.514
 9434W        W74419  25.511  24.032   3.665
 9435W        W74420   9.595  14.307   1.236
 9436W        W74421   9.320  12.093  12.067
 9437W        W74422  21.839  32.336  11.650
 9438W        W74423  22.998  29.193  12.394
 9439W        W74424  18.016  28.602  10.344
 9440W        W74425  21.521  42.735   2.195
 9441W        W74426   4.175  42.856   4.152
 9442W        W74427  13.609  41.828  13.151
 9443W        W74428  44.507  38.678   3.566
 9444W        W74429  18.247   3.960  11.984
 9445W        W74430   4.750  12.779  12.034
 9446W        W74431  36.380  39.322   3.468
 9447W        W74432   4.364  14.803  13.908
 9448W        W74433  27.034   9.246   0.863
 9449W        W74434   0.841  29.152  11.545
 9450W        W74435  15.785  38.868   2.346
 9451W        W74436  38.935  20.273   2.676
 9452W        W74437  20.517  20.243  13.452
 9453W        W74438  24.297   3.613   2.820
 9454W        W74439  39.871  29.967  10.608
 9455W        W74440   6.236  39.731  12.847
 9456W        W74441  18.551  13.953   2.700
 9457W        W74442  36.190  11.770  12.782
 9458W        W74443  19.755  16.915   3.189
 9459W        W74444  39.703  36.371  10.816
 9460W        W74445  15.228  14.653   1.413
 9461W        W74446  27.901  20.643  13.193
 9462W        W74447   9.511  43.082  12.417
 9463W        W74448   2.831  21.835  11.977
 9464W        W74449  33.148   6.817   5.137
 9465W        W74450   6.315   5.005   1.864
 9466W        W74451  38.397   5.050  14.954
 9467W        W74452  37.917  43.591  12.418
 9468W        W74453  14.271  14.357   4.287
 9469W        W74454   7.255  34.170   0.249
 9470W        W74455  39.307  27.014   3.763
 9471W        W74456   9.206   1.900  13.419
 9472W        W74457  12.224  43.865   4.512
 9473W        W74458  41.610  29.348  12.013
 9474W        W74459  34.284  10.431  12.470
 9475W        W74460   1.567  38.482   2.558
 9476W        W74461  10.338  35.120  12.099
 9477W        W74462  35.414  13.271   4.443
 9478W        W74463  13.789  24.173   2.299
 9479W        W74464   2.304  11.471  14.291
 9480W        W74465  16.299  34.538  14.374
 9481W        W74466  33.877   6.361  10.136
 9482W        W74467  23.260  33.102  12.916
 9483W        W74468   2.754  12.568  12.046
 9484W        W74469  22.248  18.550  14.870
 9485W        W74470   0.346  41.353   3.717
 9486W        W74471   5.227  42.476   3.870
 9487W        W74472  20.003  34.872  14.789
 9488W        W74473  40.088  20.173  10.468
 9489W        W74474  16.763  14.602  14.291
 9490W        W74475  14.214  13.047  12.497
 9491W        W74476   7.696   1.665  14.134
 9492W        W74477   4.715  28.666  14.823
 9493W        W74478  35.502  29.002   4.104
 9494W        W74479  17.197  24.474   3.742
 9495W        W74480  41.748   3.527   3.353
 9496W        W74481  11.108   6.231  11.249
 9497W        W74482  28.051  35.475   2.346
 9498W        W74483   2.100  32.603   4.903
 9499W        W74484   9.780  29.486  10.610
 9500W        W74485   7.207  14.766  13.179
 9501W        W74486  33.160  43.222   1.016
 9502W        W74487  27.757  13.880  11.080
 9503W        W74488  18.049  20.837   0.242
 9504W        W74489  35.903  28.006  10.744
 9505W        W74490  14.057   0.943  10.662
 9506W        W74491  38.197  43.238   0.966
 9507W        W74492  44.716   4.092   0.239
 9508W        W74493  17.653  43.124  11.437
 9509W        W74494   0.475  12.779  12.478
 9510W        W74495  26.949  35.490  13.809
 9511W        W74496  38.451  34.666   3.266
 9512W        W74497  28.573  25.295  14.828
 9513W        W74498  20.497  14.928  10.602
 9514W        W74499   5.298  23.485   4.263
 9515W        W74500  38.086   5.457   0.009
 9516W        W74501  24.940  20.644  14.417
 9517W        W74502  11.253  26.511  10.346
 9518W        W74503   6.828  38.211  11.106
 9519W        W74504  24.152  23.501   2.114
 9520W        W74505  14.628  10.728   1.758
 9521W        W74506  26.423  26.625  10.187
 9522W        W74507  44.257  21.732  11.973
 9523W        W74508  25.463  24.678   0.181
 9524W        W74509   7.362  23.527   4.719
 9525W        W74510  33.408  34.544   2.415
 9526W        W74511  23.566   4.118  13.559
 9527W        W74512  12.295  39.059   0.837
 9528W        W74513  10.867  15.971  13.917
 9529W        W74514  31.493  32.329  14.984
 9530W        W74515   3.881  30.428  13.914
 9531W        W74516  17.382   0.802   5.098
 9532W        W74517  10.398  43.340   4.235
 9533W        W74518  31.127   1.838   4.060
 9534W        W74519  34.422   3.097  10.468
 9535W        W74520  31.538  41.943   0.817
 9536W        W74521  16.350  37.994  14.881
 9537W        W74522   1.296  10.891   2.601
 9538W        W74523  40.037   0.753  14.192
 9539W        W74524  35.576  13.323  12.544
 9540W        W74525  10.187  19.774  13.383
 9541W        W74526  39.714  20.255  14.953
 9542W        W74527  39.063  28.861   2.884
 9543W        W74528  28.193  38.181  11.595
 9544W        W74529  20.292  11.685   4.303
 9545W        W74530  32.016  17.304   3.604
 9546W        W74531  21.199  37.058   4.579
 9547W        W74532  42.466  22.393  14.980
 9548W        W74533  41.320  21.161   5.017
 9549W        W74534  42.793  15.297  14.722
 9550W        W74535  38.094   3.352   1.511
 9551W        W74536  40.048  30.076  11.432
 9552W        W74537  36.433  21.520  10.936
 9553W        W74538   4.145  41.499   2.184
 9554W        W74539   2.850   5.675   2.247
 9555W        W74540  35.251  34.510   2.882
 9556W        W74541   6.311   0.334  11.958
 9557W        W74542   7.201  43.009  10.662
 9558W        W74543  44.002  24.897  11.928
 9559W        W74544  19.720   4.906  13.806
 9560W        W74545  25.718  31.395   1.829
 9561W        W74546  25.949  10.201  12.155
 9562W        W74547   0.954  41.623  14.543
 9563W        W74548  42.970  30.677   2.731
 9564W        W74549   4.897   6.389  14.849
 9565W        W74550  18.112  26.479   2.047
 9566W        W74551   6.094  42.720  13.104
 9567W        W74552  31.340  29.651   1.643
 9568W        W74553  41.461  16.127  14.366
 9569W        W74554  38.702   1.441   3.793
 9570W        W74555  41.460  28.041   0.218
 9571W        W74556  15.187  33.355  12.585
 9572W        W74557  22.642  34.923  14.593
 9573W        W74558  18.109  25.688  13.882
 9574W        W74559  14.166  43.391   1.751
 9575W        W74560  35.842  42.967  12.149
 9576W        W74561  31.166  35.009  13.786
 9577W        W74562  43.870  18.313   3.676
 9578W        W74563  24.035  38.319  13.340
 9579W        W74564   9.712   5.461  11.236
 9580W        W74565   2.837  28.601  13.430
 9581W        W74566   2.330  17.151  12.936
 9582W        W74567  39.830  30.261  11.029
 9583W        W74568  15.962  13.736   4.153
 9584W        W74569  41.868  21.740  10.509
 9585W        W74570  15.394  15.247  11.542
 9586W        W74571  42.527  20.327   0.918
 9587W        W74572  23.930   5.188  12.610
 9588W        W74573  11.750   8.048  13.616
 9589W        W74574  17.547  13.758  13.991
 9590W        W74575  35.397  22.783  12.955
 9591W        W74576  33.563  44.309   2.010
 9592W        W74577  25.857  32.961   0.372
 9593W        W74578  18.752  16.146   1.414
 9594W        W74579  38.115  35.483  13.456
 9595W        W74580  15.805  41.432  11.614
 9596W        W74581  18.536  23.325  11.837
 9597W        W74582  28.089   9.337  10.775
 9598W        W74583  31.944   8.908   0.815
 9599W        W74584  37.895  23.580  10.295
 9600W        W74585  30.940  13.839   2.832
 9601W        W74586  19.119  41.746   1.575
 9602W        W74587  42.421  41.512  13.604
 9603W        W74588  25.927   9.893   3.300
 9604W        W74589  29.121  27.813  11.045
 9605W        W74590  35.556  12.302  10.903
 9606W        W74591  25.018   4.041   3.636
 9607W        W74592  25.682   4.438  12.821
 9608W        W74593  42.306   0.032  14.178
 9609W        W74594  38.131  31.691   1.850
 9610W        W74595  21.918  11.698  14.582
 9611W        W74596  19.317  14.716   2.187
 9612W        W74597  31.518  36.623   5.130
 9613W        W74598   5.931  22.117   2.707
 9614W        W74599  38.602  42.381   2.461
 9615W        W74600  39.474  18.292   0.522
 9616W        W74601   3.426  12.348  13.428
 9617W        W74602  41.316  15.300  11.662
 9618W        W74603  42.656  37.550   3.387
 9619W        W74604  35.378  26.122   1.405
 9620W        W74605  14.816   3.960  13.957
 9621W        W74606  42.378  18.703   4.133
 9622W        W74607  34.111  40.553   2.358
 9623W        W74608  43.309  13.225   1.820
 9624W        W74609  12.510  20.103  12.554
 9625W        W74610   7.637  14.863  12.919
 9626W        W74611  19.180  30.003   2.293
 9627W        W74612  15.726   6.358   0.693
 9628W        W74613  16.539  23.464   0.379
 9629W        W74614  36.457  24.525  14.033
 9630W        W74615  31.121   1.450  10.587
 9631W        W74616  29.551  38.450  14.816
 9632W        W74617   0.871  10.191   0.098
 9633W        W74618  32.356   3.648   4.922
 9634W        W74619  24.248  33.602   1.805
 9635W        W74620  17.581  38.295   4.180
 9636W        W74621  20.702   1.600   3.628
 9637W        W74622  28.480  14.206   1.572
 9638W        W74623  11.398  27.639  11.834
 9639W        W74624  26.223  35.361   2.625
 9640W        W74625   5.206  16.181  11.920
 9641W        W74626  26.596  36.119   9.675
 9642W        W74627  42.841  29.149   4.637
 9643W        W74628  37.035  12.319  14.829
 9644W        W74629  18.708  14.110  11.946
 9645W        W74630  40.702  33.349   3.697
 9646W        W74631   4.953  42.410   1.091
 9647W        W74632   3.318   5.355  14.371
 9648W        W74633  33.855  31.863  12.631
 9649W        W74634  11.053  29.913  14.961
 9650W        W74635   5.500  26.763   2.208
 9651W        W74636  16.231  26.175  10.243
 9652W        W74637  16.116  13.130  13.491
 9653W        W74638  27.358  37.009   4.864
 9654W        W74639   8.655  27.453   3.698
 9655W        W74640  32.038  43.513  11.984
 9656W        W74641  18.027  42.508   3.200
 9657W        W74642  14.145  25.962  11.229
 9658W        W74643  42.537  23.548  11.694
 9659W        W74644  13.206  26.427  12.341
 9660W        W74645  15.815  41.992   1.402
 9661W        W74646   9.165   8.243  13.520
 9662W        W74647  26.268  35.522   4.772
 9663W        W74648  16.141  41.293   4.149
 9664W        W74649   4.958   5.878  14.841
 9665W        W74650  15.220  38.549  14.514
 9666W        W74651   7.090   9.285   4.661
 9667W        W74652  40.227   0.215   4.232
 9668W        W74653   0.058   3.915  12.212
 9669W        W74654  17.510  41.237  12.825
 9670W        W74655  35.215  41.575  12.854
 9671W        W74656  19.686  38.027   4.627
 9672W        W74657  42.427  28.476   1.766
 9673W        W74658  21.139  11.737  13.910
 9674W        W74659  25.732  26.668  11.479
 9675W        W74660  32.531  10.190   4.031
 9676W        W74661   3.386  41.340  14.810
 9677W        W74662  16.106   4.207   4.353
 9678W        W74663  30.864  13.352   2.656
 9679W        W74664  33.343   0.321  10.603
 9680W        W74665  24.581  35.795  10.988
 9681W        W74666   8.470  44.694  11.990
 9682W        W74667  35.442   9.146   0.998
 9683W        W74668  30.602  41.964  14.251
 9684W        W74669   6.864  34.045  12.389
 9685W        W74670  43.089  24.948   4.862
 9686W        W74671  37.608  40.239  10.678
 9687W        W74672   1.171  23.112   2.260
 9688W        W74673  21.015  35.376   4.272
 9689W        W74674  18.163   4.549   0.319
 9690W        W74675  33.884  23.601   4.088
 9691W        W74676  44.679  41.403   1.835
 9692W        W74677  10.635  24.811   4.549
 9693W        W74678  12.984  32.416  11.587
 9694W        W74679  18.344  38.907  13.211
 9695W        W74680  19.385  11.853  13.128
 9696W        W74681  36.533  33.171   2.424
 9697W        W74682  38.354  14.237  14.796
 9698W        W74683  26.194  27.022   2.176
 9699W        W74684   7.753  40.909   0.950
 9700W        W74685  23.215   5.473   2.102
 9701W        W74686  26.443  10.465   1.255
 9702W        W74687   7.224  19.745   1.666
 9703W        W74688  43.054   2.505   1.584
 9704W        W74689   3.752  11.822  11.716
 9705W        W74690  16.367  30.140   1.829
 9706W        W74691  31.199  16.464  12.558
 9707W        W74692   5.902  20.545  12.899
 9708W        W74693  33.202  21.643   2.205
 9709W        W74694  22.204  35.449   4.393
 9710W        W74695   2.779  31.882   1.807
 9711W        W74696  13.258  31.005   2.244
 9712W        W74697   5.794  33.940   3.275
 9713W        W74698  42.085  29.535  11.916
 9714W        W74699  38.155   1.193  13.027
 9715W        W74700  26.186  16.781   0.328
 9716W        W74701  16.912  36.207   4.773
 9717W        W74702  11.672  17.001   0.948
 9718W        W74703  41.914  10.474  13.977
 9719W        W74704  27.086   0.670  12.364
 9720W        W74705   7.507  11.206   4.210
 9721W        W74706  40.773  39.589   2.654
 9722W        W74707   7.703  34.922  14.300
 9723W        W74708  36.828  10.192  12.126
 9724W        W74709   3.445   7.637  14.849
 9725W        W74710  42.766  18.257   0.325
 9726W        W74711   6.454  42.465   1.772
 9727W        W74712  19.107  19.027  13.611
 9728W        W74713  42.203  10.295  12.015
 9729W        W74714  13.187   9.935  11.963
 9730W        W74715  38.209  35.414  14.325
 9731W        W74716  31.428   9.422  14.165
 9732W        W74717  37.567   3.666   1.865
 9733W        W74718  37.636  35.991   2.490
 9734W        W74719   4.842  41.287   0.016
 9735W        W74720   4.626  20.992  11.258
 9736W        W74721  11.372  31.558  14.264
 9737W        W74722  41.960  44.313  14.270
 9738W        W74723   5.831  44.876  14.425
 9739W        W74724   1.004  22.264  14.965
 9740W        W74725  35.561   9.583  14.786
 9741W        W74726  18.147   8.747   3.207
 9742W        W74727  27.424  10.312  14.909
 9743W        W74728  18.526  15.680   3.263
 9744W        W74729  34.515   5.923   2.145
 9745W        W74730   2.744  29.708   0.345
 9746W        W74731  22.641  38.001   0.760
 9747W        W74732   3.734  30.373   4.496
 9748W        W74733   5.892   2.335  14.530
 9749W        W74734  22.174  28.146   2.395
 9750W        W74735  12.568   1.193   1.304
 9751W        W74736   8.371  29.625  10.673
 9752W        W74737  44.907  17.791  14.753
 9753W        W74738  33.934  44.537  13.318
 9754W        W74739  31.843  23.689  11.632
 9755W        W74740  13.782   5.892   1.224
 9756W        W74741   3.362  31.565  13.442
 9757W        W74742  15.785  43.103   3.588
 9758W        W74743   8.191  28.094   3.754
 9759W        W74744   9.202  20.154   3.794
 9760W        W74745  39.817   0.836   0.032
 9761W        W74746  26.707  16.585   3.646
 9762W        W74747  36.083  22.045  11.999
 9763W        W74748   2.208  35.113   2.628
 9764W        W74749  44.409  43.330  10.127
 9765W        W74750  14.428  21.085  13.044
 9766W        W74751   0.550   4.476   1.339
 9767W        W74752  22.755  18.049   2.744
 9768W        W74753   9.689   9.671   3.331
 9769W        W74754  27.659   6.074  11.983
 9770W        W74755   5.759  19.154  12.463
 9771W        W74756   2.619  23.734  12.927
 9772W        W74757  22.183  35.545   3.392
 9773W        W74758  42.569   3.230   1.864
 9774W        W74759  32.963  29.487   3.763
 9775W        W74760  19.460  31.627  13.694
 9776W        W74761   3.902  14.788   5.018
 9777W        W74762  12.864  36.813  14.451
 9778W        W74763  43.474  25.954  14.821
 9779W        W74764  12.432  10.145   1.934
 9780W        W74765  19.120  21.821   4.538
 9781W        W74766  27.999  18.322   2.230
 9782W        W74767  25.710  36.395  14.269
 9783W        W74768  37.562  36.075   3.350
 9784W        W74769  25.934   2.971   3.323
 9785W        W74770   5.551  17.634  14.323
 9786W        W74771  33.968   6.405  13.638
 9787W        W74772  40.782   6.852  14.442
 9788W        W74773   3.909  15.593  14.322
 9789W        W74774  24.377   6.482   1.849
 9790W        W74775  18.710  12.046   1.291
 9791W        W74776  17.311  41.779  13.926
 9792W        W74777  33.513  34.812   1.371
 9793W        W74778  26.290  20.904  11.159
 9794W        W74779  13.330  12.503  11.632
 9795W        W74780   9.577  32.054   3.009
 9796W        W74781   2.347  23.975  12.515
 9797W        W74782  12.271   0.000   4.035
 9798W        W74783   3.845  35.667  10.702
 9799W        W74784   0.636  21.995  11.871
 9800W        W74785  36.040  33.445  12.987
 9801W        W74786  31.088  42.335   3.232
 9802W        W74787  26.309  27.633   4.688
 9803W        W74788   2.016  11.376  13.640
 9804W        W74789  40.463  27.894   2.665
 9805W        W74790   6.728  22.906   3.410
 9806W        W74791  28.721  43.467   2.198
 9807W        W74792  42.810  31.578   1.327
 9808W        W74793  39.872  29.888   2.877
 9809W        W74794  28.504   0.175   0.784
 9810W        W74795  26.210  39.487  14.822
 9811W        W74796   4.420   7.369  11.463
 9812W        W74797  33.673   6.841   2.618
 9813W        W74798  38.528  22.504   0.268
 9814W        W74799  38.782   5.232   2.323
 9815W        W74800  36.534  38.447   4.392
 9816W        W74801  27.506   7.190  11.983
 9817W        W74802  18.261   6.182   1.735
 9818W        W74803  15.091   7.727   4.030
 9819W        W74804  21.686   1.904   4.604
 9820W        W74805  10.427  20.245   3.210
 9821W        W74806   5.955  41.965   0.887
 9822W        W74807  42.516   5.450  11.044
 9823W        W74808  17.700   2.089   3.689
 9824W        W74809   4.285  19.795   1.269
 9825W        W74810  40.273  40.061  11.175
 9826W        W74811  30.661  33.621  14.641
 9827W        W74812  10.689  33.427  14.420
 9828W        W74813  37.202  40.288  12.870
 9829W        W74814   1.780  33.624  12.845
 9830W        W74815   7.099  21.199   0.773
 9831W        W74816  16.716   0.801  11.114
 9832W        W74817  19.542   9.617  12.506
 9833W        W74818  11.170  39.806   4.610
 9834W        W74819  15.134   8.101   2.241
 9835W        W74820   3.226  24.195  14.652
 9836W        W74821  33.621   0.217   1.862
 9837W        W74822  27.982  33.493  13.057
 9838W        W74823   1.033  14.775  12.407
 9839W        W74824  37.011  13.584   0.472
 9840W        W74825  17.701  39.090   0.825
 9841W        W74826  16.230  44.333   4.338
 9842W        W74827  24.713  38.877  13.536
 9843W        W74828   3.951  28.113   2.254
 9844W        W74829   7.183  16.818  12.423
 9845W        W74830  16.002  27.705   2.285
 9846W        W74831   3.557  11.840   1.910
 9847W        W74832  39.475  12.816  13.443
 9848W        W74833  31.767  30.553   0.461
 9849W        W74834   3.990  43.788   2.239
 9850W        W74835  39.029  19.002   3.259
 9851W        W74836  27.583  44.314   2.437
 9852W        W74837  43.397   4.817   1.470
 9853W        W74838  12.678  14.930   5.120
 9854W        W74839   6.950  15.135   2.263
 9855W        W74840  39.536  43.282   1.881
 9856W        W74841   8.278  13.973   4.693
 9857W        W74842  27.611  30.637  14.963
 9858W        W74843  42.804  12.884  12.016
 9859W        W74844  17.191   9.092  11.815
 9860W        W74845  35.626   4.735   0.343
 9861W        W74846  15.526  36.811   3.840
 9862W        W74847  22.134  31.921   2.007
 9863W        W74848  28.210  35.356   4.198
 9864W        W74849  28.855  28.136  11.999
 9865W        W74850   7.952  41.258  10.781
 9866W        W74851  22.565  10.005   2.274
 9867W        W74852  27.618   9.687  11.506
 9868W        W74853   1.983  12.435  14.421
 9869W        W74854  19.359  37.835  13.444
 9870W        W74855  11.726   0.289   0.829
 9871W        W74856   7.319  41.064   1.367
 9872W        W74857  17.779  42.417   0.948
 9873W        W74858   2.174  15.158  14.280
 9874W        W74859  22.129   3.429  14.139
 9875W        W74860  33.885  18.085   0.848
 9876W        W74861  12.414  12.905   3.056
 9877W        W74862  10.972  34.508   4.272
 9878W        W74863  16.676   9.390   3.259
 9879W        W74864   8.187  37.033  10.450
 9880W        W74865  24.928  21.705   3.100
 9881W        W74866  30.689  17.601  13.729
 9882W        W74867   1.453  21.605  10.425
 9883W        W74868   8.863  26.374   1.189
 9884W        W74869  19.088  26.670  10.441
 9885W        W74870   2.097  33.997  10.697
 9886W        W74871  36.607   7.736   4.139
 9887W        W74872  36.093  14.592   0.367
 9888W        W74873  43.277   0.212   4.125
 9889W        W74874  20.230   8.159   0.359
 9890W        W74875  25.327   0.983   3.898
 9891W        W74876   9.650  32.996   3.988
 9892W        W74877   8.693  25.142  10.225
 9893W        W74878  15.322   8.186   4.058
 9894W        W74879  17.468  44.285  12.629
 9895W        W74880  38.326  29.941  13.230
 9896W        W74881  23.656  37.093  13.356
 9897W        W74882  26.574  32.713   3.170
 9898W        W74883  44.273   2.907  12.872
 9899W        W74884  13.138  22.162  11.550
 9900W        W74885  10.851  37.809  11.946
 9901W        W74886  39.048  18.482   3.236
 9902W        W74887  37.016  16.329   1.068
 9903W        W74888   7.835   4.820  12.674
 9904W        W74889  21.511  10.253   4.264
 9905W        W74890  41.731  39.966   1.871
 9906W        W74891   4.630   0.905  12.883
 9907W        W74892  25.740   5.853  12.601
 9908W        W74893  21.988  37.880   2.664
 9909W        W74894  29.957  41.203  12.048
 9910W        W74895   5.422  10.656  12.490
 9911W        W74896  36.953   9.472   5.287
 9912W        W74897  26.209  26.762   4.952
 9913W        W74898  10.171  35.660   3.703
 9914W        W74899  16.693  19.352   9.933
 9915W        W74900  24.811  33.967   0.246
 9916W        W74901   3.875   4.650  13.221
 9917W        W74902  26.210  39.965   0.570
 9918W        W74903  16.093  35.483   1.892
 9919W        W74904  44.933  33.997   4.883
 9920W        W74905  10.075  19.699  10.711
 9921W        W74906  11.766   2.000  14.394
 9922W        W74907  37.328   1.888  14.484
 9923W        W74908  29.098  42.392   2.731
 9924W        W74909  35.375   8.619   0.947
 9925W        W74910   1.325  11.402   2.677
 9926W        W74911  32.428   4.976  10.479
 9927W        W74912  10.166   2.518  11.918
 9928W        W74913  41.508  24.460   0.908
 9929W        W74914   9.986  25.957   2.283
 9930W        W74915  20.339  28.593  12.065
 9931W        W74916  14.781  40.508  10.657
 9932W        W74917   6.301  11.059  10.809
 9933W        W74918  26.956  32.590   2.709
 9934W        W74919  30.360  12.697   2.325
 9935W        W74920  38.439  31.163   2.439
 9936W        W74921  26.272  19.541   0.742
 9937W        W74922   3.471  13.379   4.972
 9938W        W74923  43.455   8.858  10.515
 9939W        W74924   3.866  29.864   2.702
 9940W        W74925   2.809   8.198  13.078
 9941W        W74926   4.377  29.287  13.355
 9942W        W74927  15.153  28.593   1.749
 9943W        W74928  40.378  41.695   2.455
 9944W        W74929  29.002  24.583  10.637
 9945W        W74930  21.575  20.248   4.697
 9946W        W74931   4.296  14.912   1.336
 9947W        W74932  38.225  18.545   3.656
 9948W        W74933  42.123  23.173   3.780
 9949W        W74934  19.458  21.536   9.958
 9950W        W74935  40.281  44.472   0.681
 9951W        W74936  28.088  20.992   0.986
 9952W        W74937  17.743  42.453   1.454
 9953W        W74938  37.415  29.563   0.275
 9954W        W74939  38.949  11.662   2.889
 9955W        W74940   0.813  36.727   2.330
 9956W        W74941  43.947   6.586  14.957
 9957W        W74942  36.151  20.156   1.972
 9958W        W74943   1.029  17.614   3.864
 9959W        W74944  12.091  29.501   2.761
 9960W        W74945  30.844  36.336   4.279
 9961W        W74946  24.555  15.035  14.580
 9962W        W74947   8.811  41.389  10.905
 9963W        W74948  37.562   9.932   4.099
 9964W        W74949  18.902   4.974   1.865
 9965W        W74950   1.283  27.744   3.130
 9966W        W74951  28.067  25.667   1.363
 9967W        W74952  16.110   0.452   2.795
 9968W        W74953   8.705  10.386  12.388
 9969W        W74954  24.928  31.930   0.876
 9970W        W74955  42.826  37.764  14.701
 9971W        W74956   3.291   7.847   0.343
 9972W        W74957  24.623  37.373  14.384
 9973W        W74958  41.866  24.930  12.030
 9974W        W74959  16.768  36.916   4.125
 9975W        W74960  21.757  35.435   0.169
 9976W        W74961  15.176   8.107  12.364
 9977W        W74962  32.841  23.603  11.570
 9978W        W74963  24.096   5.390   2.391
 9979W        W74964  42.795  42.448   4.542
 9980W        W74965   2.771  39.732   2.283
 9981W        W74966  13.018  19.912   3.842
 9982W        W74967   4.237  43.933   0.652
 9983W        W74968  15.136  25.521  14.796
 9984W        W74969  34.622  18.141  12.538
 9985W        W74970  35.217   1.339   0.471
 9986W        W74971   2.691  25.079  11.874
 9987W        W74972  21.737   9.824   0.395
 9988W        W74973  26.451  42.345   1.380
 9989W        W74974   1.165  40.433  14.976
 9990W        W74975  33.172  18.239   3.307
 9991W        W74976  29.894  27.154   0.426
 9992W        W74977  41.101  34.181  12.507
 9993W        W74978   1.091  17.576  13.268
 9994W        W74979  29.178  21.543   1.407
 9995W        W74980  43.226  21.221  10.974
 9996W        W74981  43.494  19.089  12.584
 9997W        W74982  32.008  21.983  12.612
 9998W        W74983  22.766  27.392   2.724
 9999W        W74984  33.677  30.125  11.007
10000W        W74985  23.242  27.142  13.445
10001W        W74986  28.461  24.921   0.235
10002W        W74987  43.779  24.262   3.324
10003W        W74988  26.648   7.145   1.407
10004W        W74989  28.982   3.106  14.951
10005W        W74990  11.836  25.982  12.954
10006W        W74991   2.864  16.159   1.297
10007W        W74992  37.939   4.944  12.989
10008W        W74993  26.806  10.337  11.844
10009W        W74994  10.817  34.127   0.745
10010W        W74995  43.399  44.514  14.971
10011W        W74996  39.915  41.938   1.457
10012W        W74997  22.548  17.270  11.600
10013W        W74998  11.387  39.797  13.379
10014W        W74999  41.890  17.815  14.771
10015W        W75000  27.691  28.502   0.486
10016W        W75001   2.459   4.370   2.719
10017W        W75002  22.892   7.790  11.265
10018W        W75003   7.395  21.079  11.842
10019W        W75004   8.623  23.752  13.088
10020W        W75005  23.225   7.284   4.248
10021W        W75006   6.354   1.751   4.590
10022W        W75007  36.045  43.720   1.004
10023W        W75008  31.066  35.041   4.684
10024W        W75009  21.737  39.379   3.667
10025W        W75010  29.573  13.881   0.849
10026W        W75011  13.582  11.346  14.241
10027W        W75012  13.623  36.948   3.742
10028W        W75013  24.018  23.732   4.197
10029W        W75014  11.979  12.542   0.855
10030W        W75015   1.342  12.061   2.297
10031W        W75016  16.321   8.123   4.135
10032W        W75017  27.430  10.680  13.600
10033W        W75018  22.276  25.691   3.287
10034W        W75019  41.226  29.751  12.962
10035W        W75020  26.736   7.586   4.219
10036W        W75021   3.902  20.449  14.816
10037W        W75022   3.205  13.272  11.614
10038W        W75023   3.286   7.838   3.432
10039W        W75024  26.329  18.046   3.558
10040W        W75025  15.282   7.852   3.554
10041W        W75026  20.276  12.700   4.859
10042W        W75027  21.952  16.144  12.920
10043W        W75028   0.281   4.499   0.367
10044W        W75029   0.548  24.126   4.596
10045W        W75030  40.114  19.125   4.591
10046W        W75031  20.658  36.940   0.907
10047W        W75032  41.388  28.034  11.932
10048W        W75033  11.359  19.654   4.597
10049W        W75034  40.251  44.251  13.424
10050W        W75035  39.549   1.248   3.592
10051W        W75036  34.539   8.725   0.809
10052W        W75037  19.952  21.551   4.578
10053W        W75038  39.799  33.950   4.609
10054W        W75039  44.265  32.389  14.920
10055W        W75040  24.546   3.740  11.117
10056W        W75041  25.483   0.937  11.711
10057W        W75042  42.885  34.597  14.434
10058W        W75043   6.958  44.811  12.072
10059W        W75044  40.467   3.984   1.027
10060W        W75045  27.934  20.783  12.409
10061W        W75046   8.397  33.190   1.771
10062W        W75047   8.337  14.139  14.548
10063W        W75048  16.305   4.701   2.729
10064W        W75049  33.621  12.342  11.048
10065W        W75050   5.288  43.999  11.415
10066W        W75051   2.307  27.530  14.032
10067W        W75052  30.114  39.063   1.255
10068W        W75053  38.425  40.109   0.473
10069W        W75054  12.064  40.985   0.407
10070W        W75055   7.778  23.137  10.653
10071W        W75056  44.198  12.745   4.058
10072W        W75057  13.805  44.421  13.805
10073W        W75058   1.397  37.934   4.751
10074W        W75059  14.843  16.615  13.483
10075W        W75060  40.046  43.984   2.567
10076W        W75061  25.434  21.076  11.951
10077W        W75062  44.812  21.986  10.767
10078W        W75063  35.002  20.166  12.473
10079W        W75064  16.059  28.556   0.971
10080W        W75065  22.045  14.685   4.645
10081W        W75066  33.633  21.520  14.523
10082W        W75067  38.113   6.228   3.952
10083W        W75068  28.039  12.153  12.935
10084W        W75069  34.471   9.389  11.438
10085W        W75070  14.612  27.969   1.359
10086W        W75071   2.515  40.593   2.324
10087W        W75072  18.566  43.856  12.870
10088W        W75073   9.784  29.113   4.813
10089W        W75074  21.236  16.716   2.853
10090W        W75075  24.120   2.270  11.620
10091W        W75076  35.419  32.038   4.613
10092W        W75077  36.262  41.325   4.620
10093W        W75078  17.280  36.055   0.253
10094W        W75079  19.570  25.784  11.494
10095W        W75080  12.624  30.191   4.618
10096W        W75081  24.640   7.201  12.172
10097W        W75082   6.655   3.424  14.567
10098W        W75083  20.048  24.189  14.304
10099W        W75084  44.938  19.526  10.654
10100W        W75085  17.750  32.667  14.446
10101W        W75086  39.520  34.059   2.282
10102W        W75087   6.169  12.929   2.781
10103W        W75088   7.246   5.934   0.485
10104W        W75089  21.095  25.580   0.966
10105W        W75090  20.528  40.218   2.834
10106W        W75091  20.522  25.582  12.878
10107W        W75092  14.579   1.574  12.966
10108W        W75093  10.703  10.607   4.218
10109W        W75094   1.554  34.881   2.981
10110W        W75095  26.030  16.310  12.949
10111W        W75096  38.996  27.240   0.348
10112W        W75097  30.577  38.288  13.591
10113W        W75098  29.946  19.571   1.410
10114W        W75099  44.607  12.176   3.758
10115W        W75100  18.601  16.415   1.863
10116W        W75101  10.814  34.026  11.435
10117W        W75102  44.582  21.329  12.877
10118W        W75103   6.058   2.749   4.148
10119W        W75104  40.303   4.696   3.783
10120W        W75105  34.102   7.854  11.167
10121W        W75106   4.961  40.638   4.084
10122W        W75107  43.463  22.873  11.132
10123W        W75108  33.273  29.957   4.599
10124W        W75109   3.204   7.789  12.320
10125W        W75110  12.097  18.720  14.213
10126W        W75111   3.806  33.289   0.638
10127W        W75112   2.250  43.605  13.374
10128W        W75113  24.979   2.249  13.875
10129W        W75114  29.958  43.715   3.454
10130W        W75115  44.271  40.419   1.375
10131W        W75116  31.390  40.569  13.485
10132W        W75117  36.044  43.983  14.547
10133W        W75118  20.507   6.910   3.664
10134W        W75119  25.452  15.045  13.876
10135W        W75120  29.836  33.031  11.583
10136W        W75121  43.346  29.099  10.629
10137W        W75122  23.143  33.836  11.073
10138W        W75123   5.388  33.980  11.171
10139W        W75124  38.284  13.823   0.491
10140W        W75125  42.705  32.006   1.845
10141W        W75126  26.349  22.637   5.071
10142W        W75127  23.979   9.134  14.932
10143W        W75128  41.306  18.567   4.189
10144W        W75129  29.974  15.864   1.885
10145W        W75130  19.555  42.796  12.998
10146W        W75131   6.682  19.196  12.445
10147W        W75132  18.996   1.309   3.178
10148W        W75133  13.900  42.922  12.879
10149W        W75134  44.215  32.917  14.898
10150W        W75135  15.077   6.318  12.604
10151W        W75136  21.057   6.661  10.649
10152W        W75137  30.726  13.752  14.561
10153W        W75138  15.486  12.181  14.794
10154W        W75139  28.056   7.910   3.959
10155W        W75140   3.379   9.701  11.710
10156W        W75141  43.452   6.531   1.818
10157W        W75142  11.745  21.611   4.072
10158W        W75143  43.038  38.462  11.981
10159W        W75144  38.343  23.651  14.042
10160W        W75145  17.316  30.088  13.450
10161W        W75146  37.469  14.991   2.316
10162W        W75147  19.295  32.583  14.798
10163W        W75148   1.032  29.574   1.788
10164W        W75149  40.306   1.273   0.425
10165W        W75150  13.192  34.456  12.903
10166W        W75151  20.158   1.704  12.998
10167W        W75152  20.814  40.411   1.221
10168W        W75153   6.017   5.937   0.876
10169W        W75154  20.982  40.896   2.327
10170W        W75155  13.398   2.288   4.619
10171W        W75156  16.281  39.979  12.870
10172W        W75157  24.129  15.078   3.642
10173W        W75158   7.824  30.449  14.961
10174W        W75159   7.018  17.687  14.509
10175W        W75160  22.265  42.743  11.918
10176W        W75161  42.012  43.796  14.414
10177W        W75162  34.153  16.275  14.936
10178W        W75163  42.455  43.043  12.552
10179W        W75164  36.501  27.627   3.198
10180W        W75165  27.664  14.318  10.787
10181W        W75166  28.426  14.865   4.584
10182W        W75167  22.502  35.112   3.960
10183W        W75168   5.570   0.493   2.250
10184W        W75169  13.854   2.009  12.180
10185W        W75170   6.391  37.833  12.854
10186W        W75171  20.522  11.347  12.906
10187W        W75172  19.713   2.383  10.872
10188W        W75173  30.619  18.205  11.992
10189W        W75174  29.087  13.564  10.766
10190W        W75175  34.328   9.241   0.036
10191W        W75176   1.934   4.306  14.263
10192W        W75177  18.423   0.943  11.171
10193W        W75178  16.448   8.962  10.947
10194W        W75179  22.955  22.620  13.509
10195W        W75180  10.491   1.329   3.686
10196W        W75181   0.323  35.374   3.036
10197W        W75182  13.165  22.479  12.997
10198W        W75183  40.030  21.229   2.827
10199W        W75184   5.298  33.432   4.975
10200W        W75185  26.992  43.518   1.783
10201W        W75186  43.780  39.268   2.394
10202W        W75187  21.538  15.320   4.115
10203W        W75188  23.514   5.489   3.673
10204W        W75189  43.433  33.578  11.968
10205W        W75190  24.654  33.038  12.140
10206W        W75191  18.271  39.382  10.945
10207W        W75192  10.834   4.739   9.583
10208W        W75193   6.927   2.073  10.392
10209W        W75194  35.094   3.207  14.923
10210W        W75195  22.680  23.122   2.559
10211W        W75196  43.548  13.875   3.595
10212W        W75197  16.678  16.593   4.746
10213W        W75198  23.250  26.729   3.189
10214W        W75199  43.467  25.079  14.953
10215W        W75200   1.989  39.970  10.835
10216W        W75201  20.083  29.358   1.251
10217W        W75202  36.445  36.045   3.267
10218W        W75203   3.589   8.851   5.115
10219W        W75204  30.511  32.907   4.277
10220W        W75205  23.511   8.815   0.339
10221W        W75206  30.892  30.213   2.355
10222W        W75207  40.463  35.380  12.532
10223W        W75208   4.112   6.687   1.136
10224W        W75209  20.206  41.636   4.111
10225W        W75210   7.288   8.747   3.242
10226W        W75211   9.311  35.322  14.747
10227W        W75212  32.927  27.301  12.104
10228W        W75213  25.651  44.384  13.963
10229W        W75214  14.600  44.223  13.557
10230W        W75215  21.126  39.957  13.364
10231W        W75216  10.233   8.203  10.758
10232W        W75217  14.540  15.796   2.352
10233W        W75218  25.535  20.419  11.209
10234W        W75219   6.464  39.223   2.365
10235W        W75220  35.409  41.430  12.367
10236W        W75221  38.859   3.458  12.348
10237W        W75222  29.628   1.775   4.182
10238W        W75223  31.117   1.485   1.383
10239W        W75224  18.849  15.910   0.708
10240W        W75225   6.631   7.890   3.693
10241W        W75226  34.437   6.775  13.177
10242W        W75227   3.002  31.114  14.325
10243W        W75228   3.765  35.041   2.710
10244W        W75229  24.008   6.354   0.014
10245W        W75230   9.638  16.132  12.073
10246W        W75231  32.491  19.720   4.736
10247W        W75232   2.502  24.001   3.662
10248W        W75233  23.781  14.340  12.050
10249W        W75234  27.150  18.106  13.447
10250W        W75235  27.260  14.077  11.071
10251W        W75236  21.138  31.411   4.123
10252W        W75237  27.203   1.868   0.766
10253W        W75238  39.388  24.943   2.788
10254W        W75239  33.928  23.336   2.669
10255W        W75240   6.105  35.583   0.232
10256W        W75241  31.180  28.625   2.388
10257W        W75242  37.863   3.850   1.406
10258W        W75243  10.253   3.300   2.219
10259W        W75244   9.883  20.935   4.106
10260W        W75245  28.572  24.396   0.322
10261W        W75246  31.972  26.288  13.964
10262W        W75247  37.495   8.409   4.230
10263W        W75248   0.003   0.747   2.845
10264W        W75249  10.670  39.810  13.889
10265W        W75250  31.733  30.852  14.775
10266W        W75251  36.525  33.822   3.762
10267W        W75252  19.077  34.422   2.684
10268W        W75253  30.611  16.105   2.664
10269W        W75254  30.674  13.796  14.002
10270W        W75255  27.899  19.452  14.829
10271W        W75256  22.793  37.663   3.178
10272W        W75257  17.196   0.272  14.481
10273W        W75258   3.102  22.024   3.556
10274W        W75259  42.638  36.812  13.788
10275W        W75260  38.585  21.772   3.970
10276W        W75261  29.938   7.616   1.765
10277W        W75262  22.292  25.060   3.819
10278W        W75263   8.851  27.676  12.337
10279W        W75264   9.371  24.532   0.631
10280W        W75265  29.338  24.419  12.036
10281W        W75266   8.253  12.672  10.570
10282W        W75267   5.633  17.346   0.365
10283W        W75268  39.601  29.126  14.127
10284W        W75269   0.283   0.301   1.116
10285W        W75270  16.506  14.104   4.452
10286W        W75271  23.798  13.900   0.881
10287W        W75272  21.347   2.168  11.499
10288W        W75273  42.517   0.962  12.577
10289W        W75274  39.833  32.848  11.901
10290W        W75275   3.334  35.580  12.523
10291W        W75276   6.360  30.856  12.078
10292W        W75277  36.966  20.005  13.561
10293W        W75278  12.774  15.911   2.733
10294W        W75279  28.444  32.913   1.243
10295W        W75280  27.493   7.182   3.849
10296W        W75281  24.584  41.571  13.936
10297W        W75282   7.993  32.606  12.199
10298W        W75283  39.892  27.594   0.868
10299W        W75284  15.155  11.796   0.807
10300W        W75285  30.715  12.243   1.401
10301W        W75286  34.423  21.727   0.947
10302W        W75287  28.939   2.224   1.526
10303W        W75288  39.280  20.597   2.397
10304W        W75289  22.756  22.079  12.606
10305W        W75290  32.567  12.394  12.874
10306W        W75291  25.664  41.794   0.339
10307W        W75292  28.233   5.385   4.532
10308W        W75293   3.935  32.010   1.497
10309W        W75294  36.381  40.604  12.780
10310W        W75295  29.637  28.584  14.451
10311W        W75296  15.654  35.933  14.116
10312W        W75297  40.804  39.894  13.920
10313W        W75298  10.867  40.534  13.307
10314W        W75299  22.928  23.652   0.255
10315W        W75300  22.154  40.581   1.008
10316W        W75301   5.297   0.448  13.359
10317W        W75302  28.505   7.795  12.117
10318W        W75303  44.796  32.033   3.120
10319W        W75304  12.108  17.422  14.774
10320W        W75305  21.667  11.989  12.911
10321W        W75306  41.379   4.355   0.174
10322W        W75307  24.153  42.463   2.975
10323W        W75308  21.486  10.774   0.044
10324W        W75309  40.440  34.868   1.306
10325W        W75310  22.533   5.416  12.100
10326W        W75311  14.203  34.904   1.971
10327W        W75312  43.815  37.063  12.043
10328W        W75313   5.449  19.970   4.014
10329W        W75314  10.327  23.001  11.667
10330W        W75315  36.007  25.610  14.831
10331W        W75316  16.099  43.048   0.765
10332W        W75317  36.947  18.055   2.851
10333W        W75318  10.845  38.842  11.113
10334W        W75319  38.612  37.668   0.286
10335W        W75320   8.581  17.586  10.654
10336W        W75321  39.286  41.361  14.253
10337W        W75322  22.216  18.190  11.088
10338W        W75323  35.022  39.315   3.822
10339W        W75324  43.124  27.441   4.424
10340W        W75325  28.644  24.825   4.147
10341W        W75326  33.593  22.678   4.095
10342W        W75327  29.755  14.862   1.745
10343W        W75328  35.999  10.769   0.431
10344W        W75329  41.411  44.473   1.876
10345W        W75330  25.637  23.041  10.814
10346W        W75331   9.813   7.859  10.806
10347W        W75332   7.369  10.812  11.333
10348W        W75333  27.533  24.041  10.913
10349W        W75334  11.436  33.841  13.412
10350W        W75335  35.135  17.673   3.731
10351W        W75336  34.574  26.095  12.943
10352W        W75337  30.774  33.335  14.181
10353W        W75338  39.017   7.626   2.442
10354W        W75339  15.576  16.585   1.771
10355W        W75340  27.732  39.975  14.213
10356W        W75341  36.276  33.870  13.949
10357W        W75342  39.354   8.600  14.307
10358W        W75343  32.839  36.733   2.868
10359W        W75344   4.767  42.845   3.243
10360W        W75345  20.748  21.043   3.701
10361W        W75346   7.396  23.037   0.262
10362W        W75347  43.864   2.000  14.293
10363W        W75348  44.283  13.586  12.810
10364W        W75349  13.145   7.831   1.966
10365W        W75350  36.124   5.741   4.119
10366W        W75351  44.335  15.020   4.109
10367W        W75352  10.956  43.269  11.386
10368W        W75353  28.198  21.544  12.988
10369W        W75354  20.199  21.592  14.695
10370W        W75355  34.533  30.169   0.470
10371W        W75356  17.186  16.290  13.557
10372W        W75357  27.706  34.617  13.104
10373W        W75358  24.046  26.738  14.798
10374W        W75359  12.196   0.287  10.947
10375W        W75360  15.333  26.453  12.014
10376W        W75361  13.496  18.340   1.214
10377W        W75362  10.636  43.324  13.904
10378W        W75363   6.892  14.128   0.296
10379W        W75364  10.387  25.745  12.870
10380W        W75365  28.038  11.648  11.622
10381W        W75366  11.233  14.084  14.330
10382W        W75367  12.327  20.043  14.339
10383W        W75368   1.754   4.116  10.907
10384W        W75369  37.220  17.618   1.914
10385W        W75370  15.107  19.805   3.592
10386W        W75371   1.508   0.018   1.236
10387W        W75372   3.795   7.786  13.514
10388W        W75373  19.851   8.272   1.970
10389W        W75374  27.922   9.144   2.675
10390W        W75375   8.373  21.725   4.599
10391W        W75376   4.911   0.584  14.865
10392W        W75377   9.577  38.293   2.134
10393W        W75378  34.006  40.077  11.756
10394W        W75379  39.996   2.696  13.078
10395W        W75380  10.479  13.676   3.665
10396W        W75381  23.566  27.953   3.606
10397W        W75382  26.185   7.662   1.913
10398W        W75383  38.367  26.703  12.084
10399W        W75384  23.181  11.114   1.338
10400W        W75385  19.502  21.602  11.266
10401W        W75386  21.849   4.361   2.845
10402W        W75387  32.073   7.413  10.379
10403W        W75388  25.333  43.342  14.125
10404W        W75389  21.615  16.752   4.533
10405W        W75390  42.228  23.284  14.931
10406W        W75391  36.971  36.177  14.604
10407W        W75392  31.656  33.215  14.041
10408W        W75393   8.231  27.213   4.832
10409W        W75394  28.483  23.482  10.651
10410W        W75395   7.588  18.744  10.765
10411W        W75396  17.348  18.612   1.840
10412W        W75397  36.974   1.728   3.697
10413W        W75398  16.429   7.173   1.672
10414W        W75399   7.638  19.585   1.931
10415W        W75400  10.865   6.858   5.076
10416W        W75401  42.330  44.537  12.641
10417W        W75402  12.699   1.630  12.303
10418W        W75403  33.110   7.856  14.986
10419W        W75404  19.726  24.945  11.089
10420W        W75405  36.144  20.423   5.064
10421W        W75406  37.409  44.058  13.835
10422W        W75407  12.343   5.267   4.665
10423W        W75408  14.108  38.764  11.465
10424W        W75409  27.147  16.266  13.996
10425W        W75410  22.725   5.138  12.984
10426W        W75411   2.618  41.373   1.942
10427W        W75412  28.915   8.096   2.318
10428W        W75413  42.239  43.826   4.773
10429W        W75414  30.228  24.411  13.786
10430W        W75415  19.677  34.000  14.340
10431W        W75416   7.494  42.903  14.973
10432W        W75417   3.954  30.001  14.895
10433W        W75418   3.077  17.814  10.689
10434W        W75419  42.761  23.973  14.883
10435W        W75420   9.523  35.125   0.182
10436W        W75421  24.525  23.007  14.782
10437W        W75422  39.894  37.331  12.283
10438W        W75423  31.398   1.462   2.758
10439W        W75424   5.649  17.239   2.067
10440W        W75425  41.394  24.836  11.446
10441W        W75426   8.617  13.665   0.759
10442W        W75427  31.528  21.644   4.271
10443W        W75428   4.993   4.748   5.538
10444W        W75429  34.870  12.190   0.081
10445W        W75430  44.463  17.808  14.300
10446W        W75431  27.529   8.655  11.503
10447W        W75432  15.000  12.311  14.854
10448W        W75433  34.895  29.781  12.967
10449W        W75434  35.670  21.734  11.884
10450W        W75435  23.555   5.825  14.961
10451W        W75436  39.010  30.100  10.998
10452W        W75437  14.803  28.361   5.087
10453W        W75438  34.934  18.842  10.829
10454W        W75439  36.545   4.478  14.910
10455W        W75440  32.221   1.698  12.533
10456W        W75441   2.403  26.953  13.462
10457W        W75442  22.586  33.567  13.785
10458W        W75443  42.858  14.053  14.354
10459W        W75444  15.032  17.247   1.873
10460W        W75445  42.231  27.126   4.854
10461W        W75446  12.574  39.369  14.085
10462W        W75447   5.309  30.537   1.921
10463W        W75448   2.289  16.175   2.132
10464W        W75449  43.828  22.727   1.196
10465W        W75450   9.421  17.705  13.792
10466W        W75451  25.272  28.187   2.280
10467W        W75452  43.049  24.121  13.896
10468W        W75453   5.709  26.075  14.805
10469W        W75454  25.674  39.867   0.469
10470W        W75455  25.700  32.444  13.701
10471W        W75456  12.167  40.431  10.461
10472W        W75457  19.717  32.512   0.670
10473W        W75458  30.561  39.998   3.715
10474W        W75459  35.388  12.171   2.363
10475W        W75460  35.010   0.337   0.633
10476W        W75461   1.807   1.357  10.746
10477W        W75462   8.248  43.806   2.755
10478W        W75463  24.455  20.850  14.323
10479W        W75464  10.410  23.075   2.843
10480W        W75465  39.522   2.035  14.890
10481W        W75466  38.741   8.127   0.606
10482W        W75467  30.586   7.082  12.416
10483W        W75468  14.086   2.916  10.531
10484W        W75469  39.353  14.381   0.719
10485W        W75470  33.015  19.664   2.302
10486W        W75471  18.694  43.039   1.866
10487W        W75472   7.385   5.453  10.592
10488W        W75473   0.899  38.884  11.224
10489W        W75474   9.713  42.773   0.526
10490W        W75475  18.959  35.379   4.751
10491W        W75476  19.925   8.496   2.438
10492W        W75477  16.025  27.557  12.568
10493W        W75478  27.997   2.890   1.017
10494W        W75479  33.882  31.479  14.025
10495W        W75480  15.064  15.130  12.434
10496W        W75481  11.710  13.905  11.913
10497W        W75482  25.160  24.215   4.434
10498W        W75483  43.114  13.090  11.609
10499W        W75484  19.613  20.227  12.468
10500W        W75485   6.900  44.114  11.062
10501W        W75486  25.263   6.822   1.736
10502W        W75487  44.440  27.232  13.044
10503W        W75488  22.154  24.701   0.483
10504W        W75489   8.157   3.163   2.852
10505W        W75490  24.734  44.094   3.220
10506W        W75491  44.349  22.501   2.365
10507W        W75492   3.172   5.309  12.943
10508W        W75493  36.159   3.919  11.569
10509W        W75494   8.138   7.912   4.753
10510W        W75495  17.300  32.965   3.705
10511W        W75496  12.436  22.154   2.823
10512W        W75497   3.268  22.299   1.519
10513W        W75498  33.093  10.883  11.981
10514W        W75499  24.165  37.305   3.257
10515W        W75500  18.741   9.953  11.468
10516W        W75501  36.938  37.054  11.576
10517W        W75502  34.409   4.191  13.367
10518W        W75503   6.749  10.825  12.543
10519W        W75504  23.019  42.994  13.783
10520W        W75505  22.740  30.498   3.345
10521W        W75506  14.364   4.500   1.028
10522W        W75507  16.683  34.676  12.862
10523W        W75508  40.681  12.774   0.840
10524W        W75509   3.829   2.429   3.850
10525W        W75510  26.460  37.047  11.945
10526W        W75511  29.744  29.324   1.444
10527W        W75512  28.532  16.579  10.695
10528W        W75513   0.107  31.536   0.457
10529W        W75514   1.700   5.516   1.352
10530W        W75515  20.918  14.171  10.851
10531W        W75516  29.697   7.310   0.747
10532W        W75517   4.678  12.286   4.805
10533W        W75518  16.830  11.960   2.751
10534W        W75519  10.113  10.132   1.339
10535W        W75520  17.705  34.170  10.786
10536W        W75521  22.084  43.061  11.151
10537W        W75522  23.601  19.620  13.420
10538W        W75523  27.872  11.726   4.076
10539W        W75524  40.073  10.206   1.771
10540W        W75525  17.077  13.207  12.399
10541W        W75526  24.761  23.144  13.410
10542W        W75527  23.118  17.314  12.420
10543W        W75528  30.167  20.748   0.255
10544W        W75529  43.008  29.404   0.313
10545W        W75530  21.080  17.030  12.442
10546W        W75531  17.799  26.491   3.136
10547W        W75532  41.508  38.314   1.962
10548W        W75533  41.442  40.476  12.941
10549W        W75534  22.322  28.957  10.312
10550W        W75535  34.506   7.202  10.587
10551W        W75536  32.519  10.366  11.204
10552W        W75537  14.180  36.020   1.244
10553W        W75538  19.710   2.219   5.000
10554W        W75539  24.481  29.511   0.720
10555W        W75540   1.280   1.689   3.116
10556W        W75541   8.471  25.794  11.984
10557W        W75542   8.201  19.023  12.577
10558W        W75543  18.243  32.846  13.820
10559W        W75544   5.926   2.260  12.651
10560W        W75545  42.248  10.122  13.818
10561W        W75546   4.952   5.329  11.135
10562W        W75547  38.899  42.318  10.738
10563W        W75548  16.916  19.883   5.005
10564W        W75549  18.574  23.616  13.440
10565W        W75550  31.083  28.004   3.642
10566W        W75551  35.077   7.325  13.543
10567W        W75552  20.756  43.477  12.516
10568W        W75553  25.016   7.493   1.807
10569W        W75554  26.681  31.506   1.294
10570W        W75555  12.308  12.779   1.198
10571W        W75556  27.914  16.301  13.583
10572W        W75557  26.466  12.058   3.323
10573W        W75558  33.596  19.566  12.366
10574W        W75559  43.045  36.998  11.080
10575W        W75560  28.299  32.077   3.677
10576W        W75561  29.730   9.219  13.395
10577W        W75562   5.255  17.862  14.800
10578W        W75563  19.248  26.853  14.357
10579W        W75564  37.194  11.810   5.045
10580W        W75565  39.848  11.501  13.211
10581W        W75566   4.916  42.825   0.271
10582W        W75567   5.513  15.263   1.921
10583W        W75568  31.765  40.062   0.811
10584W        W75569  26.124   8.804  14.454
10585W        W75570  39.460  35.382   1.259
10586W        W75571  17.742   0.508  14.593
10587W        W75572  11.230  14.289  11.168
10588W        W75573  32.397  25.657   3.238
10589W        W75574  26.039  17.625  14.876
10590W        W75575  35.298  15.735   1.430
10591W        W75576  13.819  41.385  11.895
10592W        W75577   6.984  33.578   0.768
10593W        W75578  19.087   0.720  14.214
10594W        W75579   5.928  16.448   4.580
10595W        W75580  40.524  12.653  14.968
10596W        W75581   7.395   6.742  10.417
10597W        W75582  11.106  10.201  11.944
10598W        W75583  23.180  17.828  12.465
10599W        W75584   2.516  41.371   3.261
10600W        W75585  33.608  18.220  11.495
10601W        W75586  30.500  44.566  14.162
10602W        W75587  37.571  21.722   2.270
10603W        W75588  40.358   2.066   2.203
10604W        W75589  24.282  20.332   1.624
10605W        W75590  12.349  37.832  10.728
10606W        W75591  26.674  36.075   2.594
10607W        W75592  29.943   2.976  14.917
10608W        W75593  26.939  25.982   1.942
10609W        W75594  29.973  42.899   2.910
10610W        W75595   4.423   8.370  12.366
10611W        W75596  37.390  18.036  12.419
10612W        W75597  11.860  39.818   0.457
10613W        W75598  21.048  41.915  13.409
10614W        W75599  16.483  32.824  14.870
10615W        W75600  37.061  11.233   3.220
10616W        W75601  35.651  23.064  11.882
10617W        W75602   6.569   2.683   4.909
10618W        W75603  31.406  22.218   4.925
10619W        W75604  10.868  24.211  12.005
10620W        W75605  20.759  12.262   3.763
10621W        W75606  31.774  28.524   0.880
10622W        W75607  14.400   1.225  13.733
10623W        W75608   1.336  15.709   4.577
10624W        W75609   5.903  11.579   3.346
10625W        W75610  30.977  25.779   2.273
10626W        W75611  19.711  20.975  12.011
10627W        W75612  38.868   8.538  11.046
10628W        W75613  32.363  18.093   4.713
10629W        W75614   8.870  37.450  10.309
10630W        W75615  13.556  29.730   2.041
10631W        W75616   1.372  21.157  12.639
10632W        W75617   9.365   9.562  12.760
10633W        W75618  28.554  14.286   2.063
10634W        W75619  25.203  20.512   1.941
10635W        W75620  39.401  21.802  11.944
10636W        W75621  41.323  36.613   2.203
10637W        W75622  13.623  21.744   1.576
10638W        W75623  30.397  38.391   0.841
10639W        W75624  41.019  44.945  12.092
10640W        W75625  18.764  21.916  11.584
10641W        W75626  35.827   1.661  14.183
10642W        W75627  29.266  32.951   4.209
10643W        W75628  41.854  24.186   0.630
10644W        W75629  24.302  39.607  11.207
10645W        W75630  19.259  40.289  13.293
10646W        W75631  21.440   1.912  14.061
10647W        W75632  19.002   6.905  10.793
10648W        W75633  23.986   2.257   4.127
10649W        W75634   0.187  27.209   4.202
10650W        W75635   6.294  35.167  11.183
10651W        W75636   8.280  10.173   3.729
10652W        W75637   9.196   3.272   2.591
10653W        W75638  19.394  34.822  13.748
10654W        W75639   5.274  29.755   3.649
10655W        W75640  34.316  38.946   1.168
10656W        W75641  14.351  26.074   1.399
10657W        W75642   0.895  20.951   2.729
10658W        W75643  22.575   4.862   0.576
10659W        W75644  13.204   1.684  14.794
10660W        W75645  16.867   3.666   4.533
10661W        W75646  42.211   3.722  13.551
10662W        W75647  41.890  35.200   2.559
10663W        W75648  10.620  11.390  12.561
10664W        W75649  31.423  16.243  13.723
10665W        W75650  17.301  17.316  10.746
10666W        W75651  16.174  13.048   0.070
10667W        W75652  40.364   2.863   1.160
10668W        W75653  21.307   6.454  11.063
10669W        W75654   4.261  10.398  14.244
10670W        W75655   7.818  34.201  11.876
10671W        W75656  17.998   5.442   3.306
10672W        W75657  19.605  32.649  12.022
10673W        W75658  11.096  20.734   1.919
10674W        W75659   8.077   3.920  14.890
10675W        W75660  19.781  33.204  10.722
10676W        W75661   5.803   4.826   1.442
10677W        W75662   9.767  30.141  14.426
10678W        W75663  17.918   7.893  11.932
10679W        W75664  11.657  33.388  13.556
10680W        W75665  37.851  43.873   4.306
10681W        W75666  20.584   2.818   1.882
10682W        W75667   0.562   8.712   2.826
10683W        W75668  38.337  33.524   4.094
10684W        W75669  41.030   9.081   0.420
10685W        W75670  15.246   8.828   1.725
10686W        W75671  35.893  15.778   3.660
10687W        W75672   0.950  16.353   4.484
10688W        W75673   5.096  36.163   1.858
10689W        W75674  25.576   9.820   1.898
10690W        W75675  42.710   5.809   2.263
10691W        W75676  15.475  30.263  11.704
10692W        W75677  35.316  33.245   0.773
10693W        W75678  37.892  28.625  12.137
10694W        W75679  32.651  35.422   1.370
10695W        W75680  39.198  31.953   4.630
10696W        W75681  24.802  36.758   2.875
10697W        W75682  25.102  10.610  13.715
10698W        W75683  11.825  10.115   2.161
10699W        W75684  40.480  13.085   1.352
10700W        W75685   2.329  25.865   0.453
10701W        W75686   8.498   8.415  10.609
10702W        W75687  31.712  13.951  12.555
10703W        W75688   1.886   9.336  14.779
10704W        W75689  39.293  30.117   1.036
10705W        W75690  37.892  19.319  12.599
10706W        W75691   8.769  33.620  12.986
10707W        W75692  25.111  21.231   3.230
10708W        W75693  32.050  32.866  10.710
10709W        W75694  37.581  18.701  11.680
10710W        W75695  43.508   7.197  13.647
10711W        W75696   1.272  16.790   3.743
10712W        W75697  21.315  11.190  13.372
10713W        W75698  17.013   1.314   0.546
10714W        W75699  40.067  40.997  14.833
10715W        W75700  33.421  42.638  12.537
10716W        W75701  26.941   4.174  12.427
10717W        W75702  15.402   2.308   0.496
10718W        W75703   2.271   4.733   1.871
10719W        W75704  41.963   2.263   0.865
10720W        W75705   5.314  21.979   3.329
10721W        W75706  20.615  41.410   1.189
10722W        W75707  44.551   1.769   0.395
10723W        W75708  10.940  31.432   3.973
10724W        W75709  37.245  37.433   2.770
10725W        W75710   9.982  25.159  14.048
10726W        W75711  43.237  13.652   3.961
10727W        W75712  18.063  17.004  12.832
10728W        W75713   3.243  22.857  14.587
10729W        W75714  37.511  31.459   2.407
10730W        W75715  35.704  24.578  12.045
10731W        W75716   4.748  44.473  10.191
10732W        W75717  12.807  21.334   2.667
10733W        W75718  21.689  21.417  13.891
10734W        W75719   3.834  22.499  13.353
10735W        W75720   0.832  23.176   2.784
10736W        W75721  33.599  21.825   0.753
10737W        W75722  36.064   5.077   3.732
10738W        W75723  10.863  27.277   3.205
10739W        W75724  36.936   6.857  11.875
10740W        W75725  28.742  15.707  10.595
10741W        W75726  43.084  20.542   0.909
10742W        W75727   3.690  18.548   4.176
10743W        W75728  43.456  30.675  11.646
10744W        W75729  33.422  24.115   4.922
10745W        W75730   5.417   9.826   2.581
10746W        W75731   3.060  17.268   1.954
10747W        W75732   4.346  32.902   0.251
10748W        W75733  30.588  42.368   2.861
10749W        W75734  30.011  11.119  14.781
10750W        W75735   0.044  28.168   1.299
10751W        W75736  24.256  35.157  11.888
10752W        W75737  41.651  12.255   4.225
10753W        W75738  30.046   8.401  11.182
10754W        W75739  42.072   0.911   2.864
10755W        W75740  18.135  17.088   2.350
10756W        W75741  16.023  29.478  11.514
10757W        W75742  13.101  36.065  12.869
10758W        W75743  30.115  36.878  12.915
10759W        W75744  19.757   7.281  11.496
10760W        W75745  20.238  33.326   3.673
10761W        W75746  11.401  37.898   2.724
10762W        W75747   3.887   4.476   0.395
10763W        W75748   1.405   7.252   1.776
10764W        W75749  32.157  39.146   3.251
10765W        W75750  15.235  43.014  10.818
10766W        W75751  42.421  38.832   2.819
10767W        W75752  27.913   9.874  11.067
10768W        W75753   2.729  22.050  10.715
10769W        W75754  29.002  43.602  14.016
10770W        W75755  35.578  34.179  13.525
10771W        W75756   5.974  14.249   3.278
10772W        W75757  27.943  40.960  13.837
10773W        W75758  23.275  16.030  12.015
10774W        W75759  43.931  31.533  12.971
10775W        W75760  12.088  25.449   2.685
10776W        W75761  22.046  25.952   4.194
10777W        W75762   1.024   9.082   1.063
10778W        W75763  12.098   0.254  14.069
10779W        W75764  32.773   9.296  12.478
10780W        W75765  11.636  41.375  11.231
10781W        W75766  31.894  20.727   1.402
10782W        W75767  27.170  31.600   9.749
10783W        W75768  23.868  44.439   2.290
10784W        W75769  23.723  27.531  13.920
10785W        W75770   4.716  12.301  12.794
10786W        W75771  43.530   3.668  14.248
10787W        W75772  17.443  13.252   3.159
10788W        W75773  12.332  44.925  11.682
10789W        W75774   5.062  16.012   2.261
10790W        W75775   0.489  34.874  13.146
10791W        W75776  13.172   0.281   3.088
10792W        W75777  15.061  15.705  13.943
10793W        W75778  24.181  33.131   4.532
10794W        W75779  16.190  43.813   3.682
10795W        W75780  18.956  13.878  11.097
10796W        W75781  42.049   3.837  11.535
10797W        W75782  27.489  37.922  11.929
10798W        W75783   8.005  24.595   4.341
10799W        W75784  11.829  43.200  11.724
10800W        W75785  23.137  30.817   3.355
10801W        W75786  40.261  11.749  14.028
10802W        W75787  17.012  14.576  12.378
10803W        W75788  34.192  12.362   3.790
10804W        W75789  16.312  44.915   3.724
10805W        W75790  24.302  31.041   0.861
10806W        W75791  12.710  31.433  10.863
10807W        W75792  36.999   3.427  11.629
10808W        W75793  31.082  35.048   0.361
10809W        W75794  21.021  38.856   4.988
10810W        W75795  41.522  14.275   2.797
10811W        W75796  10.367   3.239  11.157
10812W        W75797  10.420   7.566   4.067
10813W        W75798  29.933   2.765   0.425
10814W        W75799  28.356  36.657  14.032
10815W        W75800   3.248   5.382  13.489
10816W        W75801  38.266  32.876  10.956
10817W        W75802  28.863  24.416   1.260
10818W        W75803  35.564  35.261  11.894
10819W        W75804  10.051  25.286  11.146
10820W        W75805   7.706   2.505  12.159
10821W        W75806  29.109   7.305   2.082
10822W        W75807  18.278  40.334  12.015
10823W        W75808  22.525  30.967   1.717
10824W        W75809   4.125  18.580   4.591
10825W        W75810   4.755  13.203  10.619
10826W        W75811  43.966   5.163   4.146
10827W        W75812  28.081  28.026  10.726
10828W        W75813  28.895  42.464  13.456
10829W        W75814  14.035  29.145  12.602
10830W        W75815  12.808   4.307  10.680
10831W        W75816  14.684  12.680   3.398
10832W        W75817  32.210  21.571   1.923
10833W        W75818  25.495  19.241   4.652
10834W        W75819  10.164  30.417   3.679
10835W        W75820  30.534  31.172   3.227
10836W        W75821   2.211   0.482  10.997
10837W        W75822  21.837   6.035   3.646
10838W        W75823  41.849  22.830   5.118
10839W        W75824  44.310  38.067   0.989
10840W        W75825  36.288  15.479   3.814
10841W        W75826  23.660   0.405   4.274
10842W        W75827  35.155  17.960  14.573
10843W        W75828  30.677  36.990   3.342
10844W        W75829  10.374  27.611  12.397
10845W        W75830   7.352  17.152   1.086
10846W        W75831  44.426  13.312  14.632
10847W        W75832  29.336  21.521  12.654
10848W        W75833  10.661  15.087   0.009
10849W        W75834  35.584  26.616   4.589
10850W        W75835  21.805   3.428   3.740
10851W        W75836  32.922  16.230  13.066
10852W        W75837  25.602   8.630   1.203
10853W        W75838  31.559   4.954   1.439
10854W        W75839  19.672  10.392  12.961
10855W        W75840  37.844   8.133  11.637
10856W        W75841  21.638   5.985   0.390
10857W        W75842  28.655  24.581   3.708
10858W        W75843   7.463  26.981  13.851
10859W        W75844  11.202   4.304  14.197
10860W        W75845  25.601   2.914  13.421
10861W        W75846  32.425   7.832   9.769
10862W        W75847   1.473  22.143  12.582
10863W        W75848  31.411  41.837  11.493
10864W        W75849  15.485  20.731   2.377
10865W        W75850  36.423  35.344   1.827
10866W        W75851  17.227  33.117   1.470
10867W        W75852  28.641  30.934   2.290
10868W        W75853   8.668   9.458  11.470
10869W        W75854  20.457  25.774   2.843
10870W        W75855  27.655  11.783   2.836
10871W        W75856   6.095  10.259   1.954
10872W        W75857   0.283   2.851   3.576
10873W        W75858   1.900  33.190  14.869
10874W        W75859  17.131  19.545   4.623
10875W        W75860  43.348  22.663  12.318
10876W        W75861  23.186   3.211  10.229
10877W        W75862  19.961  12.293   4.689
10878W        W75863  30.988   9.229  12.898
10879W        W75864   0.535  11.871  10.818
10880W        W75865   7.838  32.444   0.447
10881W        W75866  39.350  29.800  10.489
10882W        W75867  14.826  16.542   0.275
10883W        W75868  40.361  21.997  11.957
10884W        W75869  15.856  44.150   0.399
10885W        W75870   5.806  29.662  12.346
10886W        W75871  27.919  23.061   2.454
10887W        W75872  34.402  26.958  14.003
10888W        W75873  25.011  38.017   1.313
10889W        W75874  29.041   2.352   4.856
10890W        W75875   7.966  27.520  11.160
10891W        W75876  27.211  20.056   2.769
10892W        W75877  27.221   2.764   0.136
10893W        W75878   2.498  16.576   3.095
10894W        W75879  22.473  22.587   4.581
10895W        W75880  25.519   3.499   0.692
10896W        W75881  13.834   6.912  11.863
10897W        W75882  36.807  37.394   4.218
10898W        W75883  41.396   9.594  12.433
10899W        W75884  32.093  12.803   1.735
10900W        W75885  44.978  25.245  12.039
10901W        W75886   4.549  16.039   2.217
10902W        W75887  14.632  38.155   2.241
10903W        W75888  26.494  36.800  14.399
10904W        W75889  18.293  35.979  11.167
10905W        W75890  24.210   6.343  10.124
10906W        W75891  13.250  24.055  11.160
10907W        W75892  11.179  18.639   4.159
10908W        W75893  37.176  42.604  14.243
10909W        W75894  11.097  26.294   0.771
10910W        W75895  44.978   9.310   2.751
10911W        W75896  44.219   9.159  12.340
10912W        W75897  16.173   0.920  12.023
10913W        W75898   1.992  13.201   0.024
10914W        W75899   2.205  39.315  14.335
10915W        W75900  32.616  24.136   1.907
10916W        W75901  27.396  44.800  11.615
10917W        W75902  23.509  44.771   1.617
10918W        W75903  32.500  23.704   3.444
10919W        W75904  32.930  43.004  11.845
10920W        W75905   5.893   4.477   2.353
10921W        W75906  37.908  44.261   3.964
10922W        W75907  10.877  13.724   2.267
10923W        W75908  15.815   7.687  12.021
10924W        W75909  31.033  27.495  14.192
10925W        W75910  32.709  17.734   1.780
10926W        W75911  23.216  17.000   1.827
10927W        W75912  22.064  11.282   3.226
10928W        W75913   5.750  17.925  11.513
10929W        W75914  33.811  14.323   0.010
10930W        W75915  15.552  19.721  10.635
10931W        W75916   0.036  11.679  11.516
10932W        W75917  18.841  14.026   4.202
10933W        W75918  33.550   3.495  12.986
10934W        W75919  39.774  28.876  11.054
10935W        W75920  34.898  11.220   0.309
10936W        W75921  40.457  17.561   2.258
10937W        W75922  33.901  42.021   0.243
10938W        W75923   4.101   9.828   2.443
10939W        W75924  27.535  30.397   2.460
10940W        W75925  41.756  35.608   0.604
10941W        W75926  15.856  19.923  14.029
10942W        W75927  40.867  38.853  11.952
10943W        W75928  11.640   2.682   3.087
10944W        W75929  16.880   1.889  11.842
10945W        W75930  13.594  27.470   5.398
10946W        W75931  14.820  13.892   0.709
10947W        W75932   6.404  39.327  14.514
10948W        W75933  28.931   0.780  10.735
10949W        W75934  28.669  34.432  10.549
10950W        W75935  44.294  16.522  12.763
10951W        W75936  36.087   4.234  14.802
10952W        W75937  33.147  37.513  12.576
10953W        W75938  35.985  14.899   1.812
10954W        W75939  30.204  37.901   3.123
10955W        W75940  28.569  22.087  13.886
10956W        W75941  13.232  24.332   2.265
10957W        W75942   3.321  14.344  14.557
10958W        W75943   0.308  35.170   2.165
10959W        W75944  25.824  39.866  14.100
10960W        W75945  11.643  44.572   4.098
10961W        W75946   3.164  30.395   1.690
10962W        W75947   8.103  20.262   3.131
10963W        W75948  12.166  40.751  11.741
10964W        W75949  10.130   8.672  10.990
10965W        W75950  35.914  30.645  14.894
10966W        W75951  44.401  34.478  14.749
10967W        W75952  18.193   2.339  13.237
10968W        W75953  31.022  42.550  13.968
10969W        W75954   5.620  25.697  13.027
10970W        W75955  35.452  26.185   0.817
10971W        W75956  16.178   2.210   4.240
10972W        W75957   1.946  15.623  11.671
10973W        W75958  39.477  29.014   3.630
10974W        W75959  22.745  29.789  11.649
10975W        W75960   8.178  35.511  10.997
10976W        W75961  22.030  25.559   0.803
10977W        W75962  33.612  40.403  11.652
10978W        W75963  40.419   9.622  10.739
10979W        W75964  16.180  14.284   0.452
10980W        W75965  18.587   6.015   2.274
10981W        W75966   3.438  10.863   2.278
10982W        W75967   7.826  33.509  11.523
10983W        W75968  29.961  12.118   0.081
10984W        W75969  36.322   3.559  12.500
10985W        W75970  40.984  24.683   2.878
10986W        W75971   1.248  32.131  13.739
10987W        W75972  39.827  11.099   3.733
10988W        W75973  33.328  14.797  11.918
10989W        W75974  20.092   1.830   1.235
10990W        W75975   0.976  44.478   4.008
10991W        W75976  19.695  30.643   2.901
10992W        W75977   8.196  41.141   3.682
10993W        W75978  30.639  43.364   1.422
10994W        W75979   7.117  27.640   2.343
10995W        W75980  19.709   6.167   1.363
10996W        W75981  41.369  36.984  11.690
10997W        W75982  28.979  27.132   2.641
10998W        W75983  17.196   0.846   0.677
10999W        W75984  19.199  22.630  14.560
11000W        W75985  21.688  18.673   4.920
11001W        W75986  19.814  18.445  14.886
11002W        W75987  25.888   5.183   2.205
11003W        W75988   7.357  11.012  14.666
11004W        W75989   2.388  44.868  13.766
11005W        W75990  20.139  38.007   0.450
11006W        W75991  43.963   3.518  14.008
11007W        W75992   3.755  44.084   1.849
11008W        W75993  11.902  33.550  13.114
11009W        W75994   8.864  16.572   4.579
11010W        W75995   0.039  28.459  13.421
11011W        W75996  43.184  33.871  14.964
11012W        W75997   4.815  39.507   1.670
11013W        W75998  31.550   7.764   1.129
11014W        W75999  37.090  37.602  14.765
11015W        W76000  10.547  17.555  13.952
11016W        W76001  30.211   2.972  10.662
11017W        W76002   3.343  33.610   3.308
11018W        W76003  27.140  41.460  13.864
11019W        W76004  38.837  27.558  14.906
11020W        W76005  23.574  39.322   0.518
11021W        W76006  26.688  44.213   0.950
11022W        W76007  28.499   3.939  14.426
11023W        W76008  10.980  29.906   0.466
11024W        W76009  29.315  36.653  14.535
11025W        W76010  31.438  44.697   1.769
11026W        W76011  29.397  31.264  11.927
11027W        W76012   0.050  14.926  12.770
11028W        W76013   9.713  19.332  10.777
11029W        W76014  14.232   8.712   2.152
11030W        W76015  28.304   1.775   3.088
11031W        W76016  20.739   1.256   4.023
11032W        W76017   1.746  11.627  14.383
11033W        W76018  15.038  40.809  13.316
11034W        W76019  43.492   7.821  11.980
11035W        W76020   5.194   5.430   9.757
11036W        W76021  30.381  39.512   1.273
11037W        W76022   1.498  15.237   3.633
11038W        W76023  39.581  23.607  11.784
11039W        W76024  19.272  17.466   3.597
11040W        W76025  38.870  23.146   1.304
11041W        W76026  33.031  10.307  11.118
11042W        W76027  41.081  21.756  11.576
11043W        W76028   6.988  40.958  13.293
11044W        W76029  23.701  36.341  10.880
11045W        W76030  36.405  41.465  12.449
11046W        W76031  29.459  36.986  10.584
11047W        W76032  23.997  27.608   3.116
11048W        W76033  26.434  19.399   5.405
11049W        W76034  10.441   5.727   1.400
11050W        W76035  10.079  26.218   0.845
11051W        W76036   4.354  15.620   3.956
11052W        W76037   3.984  22.016  12.663
11053W        W76038  30.169  23.768  12.118
11054W        W76039   4.753  33.581  12.511
11055W        W76040  40.429  22.278  10.978
11056W        W76041  11.683  44.364   5.076
11057W        W76042  32.328  29.528  11.845
11058W        W76043  41.145  35.389  14.782
11059W        W76044  38.906  23.620  12.465
11060W        W76045   4.398  17.213  13.844
11061W        W76046  37.857  24.242   2.031
11062W        W76047  33.901  16.694   4.198
11063W        W76048  27.237  34.637  14.354
11064W        W76049   0.457   2.331   3.334
11065W        W76050  10.667  22.041   0.017
11066W        W76051  17.134  40.022   4.576
11067W        W76052  21.215  39.022  14.421
11068W        W76053  36.926   5.318   2.443
11069W        W76054  31.093  32.056   4.300
11070W        W76055  34.078  15.076  12.979
11071W        W76056  30.945   7.397  14.971
11072W        W76057   3.795  41.182  11.638
11073W        W76058  39.038  15.948   4.058
11074W        W76059  18.688   5.928   1.171
11075W        W76060  14.495  34.067   1.376
11076W        W76061  21.920  35.355   1.197
11077W        W76062   7.322  38.801  11.411
11078W        W76063  38.723  39.447   1.233
11079W        W76064  36.479  13.737  12.127
11080W        W76065  17.349  30.667   4.089
11081W        W76066  13.811  29.884   0.170
11082W        W76067   1.262   3.708   1.324
11083W        W76068  31.686  27.931  11.040
11084W        W76069  32.992  33.025  10.673
11085W        W76070  26.545  17.721   2.082
11086W        W76071  41.702  31.045  12.087
11087W        W76072  36.883  35.170  13.146
11088W        W76073  17.599   6.043   0.433
11089W        W76074   6.422  21.957  11.905
11090W        W76075  11.685  43.424  13.880
11091W        W76076  29.877   2.010   0.908
11092W        W76077  22.216  22.315   2.377
11093W        W76078  14.457   3.245   3.293
11094W        W76079   8.275  15.331   0.838
11095W        W76080  44.528  32.671  11.728
11096W        W76081  30.880  13.035   3.577
11097W        W76082  15.216  19.920   1.741
11098W        W76083  23.170  19.786  14.333
11099W        W76084  38.101   1.969  14.080
11100W        W76085  21.215  25.633   3.276
11101W        W76086  34.052   7.179  12.077
11102W        W76087  38.014  14.758   1.343
11103W        W76088   9.734  37.634   0.761
11104W        W76089  26.070  31.558   0.583
11105W        W76090  33.090  15.554   3.220
11106W        W76091  15.357  19.098   0.000
11107W        W76092  12.348  38.627  11.187
11108W        W76093  44.249  41.211  12.994
11109W        W76094  35.451   0.199   0.363
11110W        W76095  35.090  30.390   3.297
11111W        W76096   8.529  16.536   1.336
11112W        W76097   1.511  41.018  11.693
11113W        W76098  26.746  15.934   0.975
11114W        W76099  15.717   1.448   4.117
11115W        W76100   3.999  25.347  11.920
11116W        W76101  36.315  14.335   1.197
11117W        W76102  34.928  32.542   4.112
11118W        W76103  28.525  17.636   4.127
11119W        W76104  26.022  21.608  13.869
11120W        W76105  13.097  30.484  13.513
11121W        W76106  13.111  29.111  11.526
11122W        W76107  27.115  17.613  10.577
11123W        W76108   2.217   2.379  13.827
11124W        W76109  14.272  19.495   1.299
11125W        W76110   1.000  30.842  14.321
11126W        W76111  18.895  30.386   0.485
11127W        W76112   7.301  30.898  13.847
11128W        W76113   5.098  10.324   9.906
11129W        W76114   1.453   8.234   0.957
11130W        W76115  22.848  40.501  12.189
11131W        W76116  41.400   2.908   4.377
11132W        W76117  25.009  35.704  11.240
11133W        W76118  13.615   6.942  13.499
11134W        W76119  32.121  28.546  13.624
11135W        W76120  18.692  36.160   1.265
11136W        W76121   8.438  39.607   2.277
11137W        W76122  10.790   4.549  10.104
11138W        W76123  43.388  28.192   2.314
11139W        W76124   6.861  40.368  10.729
11140W        W76125  18.445   1.592  13.274
11141W        W76126   7.134  30.197   3.677
11142W        W76127  12.923  24.579  14.866
11143W        W76128  34.601  11.534  12.503
11144W        W76129  25.106  17.342   3.522
11145W        W76130   5.911  23.085  13.376
11146W        W76131  17.063  31.925  10.598
11147W        W76132  35.633  18.265   3.278
11148W        W76133  43.751  11.854  13.923
11149W        W76134  19.650  31.915  14.113
11150W        W76135  19.244   4.653   3.406
11151W        W76136  10.333  37.787  12.487
11152W        W76137  16.932  33.928   0.479
11153W        W76138  40.240  38.619  13.929
11154W        W76139  29.555  18.548  12.197
11155W        W76140  20.549  44.210   3.304
11156W        W76141  15.840  32.546  11.195
11157W        W76142  10.435  43.296   1.032
11158W        W76143  34.951   6.208   2.730
11159W        W76144  44.567  34.919   0.017
11160W        W76145  29.539  43.934   4.582
11161W        W76146  31.928   3.394  11.989
11162W        W76147  12.418  19.513   2.811
11163W        W76148  16.348  24.478   3.534
11164W        W76149  38.125  24.128  14.077
11165W        W76150  43.309  14.800   2.918
11166W        W76151  44.744  23.028  13.360
11167W        W76152  39.325  29.973  13.570
11168W        W76153   2.142  23.210   3.347
11169W        W76154  23.129  32.616  14.252
11170W        W76155  30.926  15.903  10.778
11171W        W76156  18.224  39.519  13.667
11172W        W76157   5.176  36.688   4.154
11173W        W76158  44.850  14.594  10.429
11174W        W76159  24.435  15.151   1.439
11175W        W76160  19.566   5.776   0.317
11176W        W76161  22.669  37.539   1.717
11177W        W76162  40.349  29.510  10.706
11178W        W76163  28.632   2.876  10.765
11179W        W76164   9.622  31.555   4.715
11180W        W76165  26.264  43.936   1.188
11181W        W76166  27.146  18.173  14.884
11182W        W76167  35.244  32.501   3.695
11183W        W76168  17.520  10.745   2.488
11184W        W76169  35.359  10.812  14.098
11185W        W76170  23.998  14.773  10.772
11186W        W76171  22.687   0.403  14.257
11187W        W76172  42.532   6.211  14.389
11188W        W76173  13.630  34.926  14.800
11189W        W76174  26.501  35.428   0.774
11190W        W76175   7.854  25.155   2.757
11191W        W76176   2.820   0.477  12.564
11192W        W76177  30.102  44.555  12.574
11193W        W76178  23.496  23.463  10.696
11194W        W76179  29.951  37.325   3.749
11195W        W76180  19.657  35.371  11.071
11196W        W76181  21.743  14.644   0.183
11197W        W76182  27.983  11.194  13.430
11198W        W76183  40.504   6.789  10.901
11199W        W76184   4.530   4.056  13.988
11200W        W76185   8.356  17.368  12.062
11201W        W76186  34.473  19.387   1.410
11202W        W76187   0.513   1.772   2.620
11203W        W76188  20.303  18.012  12.912
11204W        W76189  28.861  28.605   3.731
11205W        W76190   6.834  17.158   0.898
11206W        W76191  10.170  21.012   2.794
11207W        W76192   0.279  14.150  12.386
11208W        W76193   1.181  39.365  12.459
11209W        W76194  43.286  26.704  14.266
11210W        W76195  30.517  34.991   5.305
11211W        W76196  23.717  11.825   4.697
11212W        W76197  20.995  10.733   0.200
11213W        W76198  10.113  39.372  10.704
11214W        W76199  37.478  15.032  11.582
11215W        W76200   7.870  16.174   0.054
11216W        W76201   6.011  39.393  11.970
11217W        W76202  41.379   8.941  14.058
11218W        W76203  37.022  12.682  11.527
11219W        W76204   3.211  37.788   3.242
11220W        W76205  13.368   4.518   3.126
11221W        W76206  22.012  18.616  13.488
11222W        W76207   3.304  30.561   4.752
11223W        W76208  37.386   3.467   2.326
11224W        W76209   1.241  30.499   3.631
11225W        W76210   2.884  38.578   4.313
11226W        W76211  23.443  10.857  11.155
11227W        W76212  12.841  23.000  10.469
11228W        W76213  17.179  30.003   1.498
11229W        W76214  33.488  19.049   0.511
11230W        W76215  44.873   0.889   4.613
11231W        W76216  39.717  24.609  14.999
11232W        W76217   5.360  31.491   3.150
11233W        W76218   7.270  19.811  11.586
11234W        W76219  32.919  35.252   4.498
11235W        W76220  24.487  37.488   1.791
11236W        W76221  17.432   5.947  12.414
11237W        W76222  38.912  19.298   1.469
11238W        W76223   0.502  11.709  12.867
11239W        W76224  33.898  25.913  12.674
11240W        W76225  44.847  43.618  11.432
11241W        W76226  37.837   1.577   1.830
11242W        W76227  18.599  40.816   1.196
11243W        W76228   5.762  22.336  12.298
11244W        W76229  26.257  40.664   2.397
11245W        W76230  20.198  17.450   9.887
11246W        W76231  33.102  25.584  14.508
11247W        W76232  36.119  41.932   1.181
11248W        W76233  26.357   3.199  10.318
11249W        W76234  22.618  19.447   1.862
11250W        W76235  23.216   7.084   2.865
11251W        W76236  31.010   0.358  12.525
11252W        W76237  35.684  39.140   4.264
11253W        W76238  24.715   4.803  13.410
11254W        W76239  43.710  21.994   3.639
11255W        W76240  13.594  18.657  14.742
11256W        W76241  34.854  17.716  12.328
11257W        W76242   6.175  10.186  12.502
11258W        W76243   4.282  11.117  13.373
11259W        W76244  43.882  12.309   2.059
11260W        W76245  43.950   5.087   4.682
11261W        W76246  14.197  22.591  11.650
11262W        W76247  44.870  12.271   0.826
11263W        W76248  32.831  35.988  12.475
11264W        W76249  20.104   9.899  11.807
11265W        W76250  32.407   4.362  13.167
11266W        W76251  28.228   8.534   3.315
11267W        W76252  36.464  13.102   3.306
11268W        W76253  43.890   8.337   1.398
11269W        W76254  31.495  13.604   3.717
11270W        W76255  41.940  44.322   4.772
11271W        W76256  16.247   0.477  13.431
11272W        W76257  43.984  30.954   4.925
11273W        W76258  26.089  11.271  10.692
11274W        W76259  21.674  30.940  12.201
11275W        W76260  21.288  37.956  11.866
11276W        W76261   4.355   1.775  14.400
11277W        W76262  15.242  29.679  11.975
11278W        W76263  10.958  12.194  11.614
11279W        W76264   0.040  32.601   1.782
11280W        W76265  11.423  11.689   3.645
11281W        W76266  39.092  24.339  11.255
11282W        W76267  14.315  14.170   3.737
11283W        W76268  36.792  36.091   2.888
11284W        W76269  38.612  43.434  11.067
11285W        W76270   4.784  13.702   3.382
11286W        W76271  21.062  43.470   0.267
11287W        W76272   0.189   4.838   1.633
11288W        W76273  44.800  43.300   0.074
11289W        W76274  13.220  40.116   4.530
11290W        W76275  27.046   7.062   1.092
11291W        W76276  41.010   3.122   4.679
11292W        W76277  22.261   1.338  14.843
11293W        W76278  35.024  38.917   1.811
11294W        W76279   0.981  11.767  14.999
11295W        W76280  32.442   6.235   1.288
11296W        W76281  21.711  32.860  13.576
11297W        W76282  21.480  37.361   4.260
11298W        W76283  38.862   9.864  11.923
11299W        W76284  41.404  43.322  10.687
11300W        W76285  33.929   2.794  12.577
11301W        W76286  19.686   8.347  12.291
11302W        W76287  26.823   1.349  12.815
11303W        W76288  38.268  14.038   3.049
11304W        W76289  32.654  36.754   2.048
11305W        W76290  37.236  44.494  14.895
11306W        W76291   0.914  38.884  14.033
11307W        W76292  27.654  26.600  14.978
11308W        W76293  39.602   7.057  10.936
11309W        W76294  11.360  40.310  13.346
11310W        W76295  43.862  10.305  11.447
11311W        W76296  24.191  25.484  13.618
11312W        W76297  35.333  17.497  14.440
11313W        W76298  17.433   9.851   5.319
11314W        W76299  18.290  28.099  13.797
11315W        W76300  29.141   9.158   4.854
11316W        W76301  18.814  26.997  12.846
11317W        W76302  34.010  23.037  10.432
11318W        W76303  31.452  43.588  14.276
11319W        W76304  27.217  29.520  11.143
11320W        W76305  17.596  27.096  10.602
11321W        W76306  44.297  35.586   2.865
11322W        W76307   9.843  21.476  11.233
11323W        W76308  24.502  39.772  14.811
11324W        W76309  33.867  37.122   2.805
11325W        W76310   6.306   2.339   2.820
11326W        W76311  40.653  19.799  12.377
11327W        W76312  23.733  42.385  11.240
11328W        W76313   5.829  41.647   3.755
11329W        W76314  23.013   6.603   2.900
11330W        W76315   0.096  41.426  12.435
11331W        W76316  28.791  18.017  13.453
11332W        W76317   2.996  15.799  11.448
11333W        W76318  40.596  14.196   4.920
11334W        W76319   8.568  10.173   0.218
11335W        W76320  29.685  27.872   1.429
11336W        W76321  25.178  38.839  12.804
11337W        W76322  24.660   8.406  11.823
11338W        W76323  25.976  25.093   4.516
11339W        W76324   5.781  37.375  10.118
11340W        W76325  27.985   9.405  13.431
11341W        W76326   8.700  29.989  12.925
11342W        W76327  10.856  25.321   3.388
11343W        W76328  34.432  24.593   2.053
11344W        W76329  26.607  18.954  13.774
11345W        W76330  42.240  16.621  11.380
11346W        W76331  34.293   3.041  11.610
11347W        W76332  12.063  20.031   5.022
11348W        W76333  34.385  30.377  12.120
11349W        W76334  22.650  26.867   0.029
11350W        W76335  16.055  43.381  13.270
11351W        W76336  30.810   2.960  14.287
11352W        W76337  38.281  16.604   5.024
11353W        W76338   7.770   8.768   1.031
11354W        W76339   0.342  15.315   0.473
11355W        W76340  21.211  15.018   3.147
11356W        W76341   1.906   8.990   2.362
11357W        W76342  28.413  43.316  13.140
11358W        W76343  17.418  33.969   0.630
11359W        W76344  31.170  39.194  14.463
11360W        W76345   9.971  12.770   0.682
11361W        W76346  35.537   3.555   4.495
11362W        W76347  35.442  40.753  14.378
11363W        W76348   8.971  12.040   0.335
11364W        W76349  13.770   8.248   3.892
11365W        W76350  42.958  14.291   4.992
11366W        W76351  16.617  27.634  14.389
11367W        W76352   7.435   2.412   4.701
11368W        W76353  25.296  10.086   2.785
11369W        W76354  20.694  17.848  12.114
11370W        W76355  41.559  40.474   3.195
11371W        W76356  23.556  44.538   3.651
11372W        W76357  14.713  37.107  14.633
11373W        W76358  41.871  14.596   3.134
11374W        W76359  13.210  14.842  12.578
11375W        W76360  26.976   4.279  10.720
11376W        W76361  43.583  22.196   1.867
11377W        W76362  33.599  35.911  13.985
11378W        W76363   4.420  24.669  11.553
11379W        W76364   0.854  44.769   1.814
11380W        W76365  34.352  24.046   2.285
11381W        W76366  16.288  22.757  14.870
11382W        W76367  20.790   6.354   0.371
11383W        W76368  11.922  44.961   0.357
11384W        W76369  30.426   5.758  10.756
11385W        W76370   2.596   4.871   2.764
11386W        W76371   1.925  15.157  12.841
11387W        W76372  44.733   3.305   2.227
11388W        W76373  41.010  42.306  12.946
11389W        W76374  10.807  35.329  11.203
11390W        W76375  12.219  29.843   4.725
11391W        W76376  30.315  21.127   0.567
11392W        W76377  16.108  19.058  12.361
11393W        W76378   0.427  40.996   1.222
11394W        W76379  26.027  10.437  13.601
11395W        W76380  30.883  31.539  10.911
11396W        W76381  29.167  43.420  13.401
11397W        W76382  27.204  18.746  11.170
11398W        W76383  39.126   5.856  10.136
11399W        W76384  33.500  30.057  12.451
11400W        W76385   0.361   0.996  10.583
11401W        W76386  23.561   0.669  13.813
11402W        W76387  24.514   2.870   5.005
11403W        W76388  20.256  12.365  12.581
11404W        W76389  40.308  29.096   0.851
11405W        W76390  35.308  43.642   2.305
11406W        W76391   1.264  25.580   3.736
11407W        W76392   6.265  41.049   0.788
11408W        W76393   3.863   0.087   2.010
11409W        W76394   2.329  11.310   0.281
11410W        W76395   9.853  11.878  12.927
11411W        W76396  34.486  34.615   2.258
11412W        W76397  37.316   1.408   0.334
11413W        W76398  37.287  30.094  12.132
11414W        W76399  32.461  32.031   3.896
11415W        W76400  30.021  29.484   3.824
11416W        W76401  37.503  14.512   5.147
11417W        W76402  39.328  16.206  13.435
11418W        W76403  37.965  27.200  13.808
11419W        W76404  11.489  36.358   3.231
11420W        W76405   5.427  31.448  11.088
11421W        W76406  14.795   6.822   3.143
11422W        W76407  13.855  44.275   4.497
11423W        W76408   9.070  43.696   1.333
11424W        W76409  26.919   4.789   4.756
11425W        W76410  37.806   2.911   0.212
11426W        W76411  28.672  33.460  12.602
11427W        W76412  34.845  18.087  13.515
11428W        W76413  42.041  36.503  13.138
11429W        W76414   7.245  40.369   2.128
11430W        W76415  26.944  42.576   2.541
11431W        W76416  36.032  12.246  13.121
11432W        W76417  32.699  37.982   3.143
11433W        W76418  17.062  13.156   0.107
11434W        W76419   2.251  25.015  12.480
11435W        W76420  17.364  43.746  14.446
11436W        W76421  28.780  28.640  12.835
11437W        W76422  43.765   0.015   4.283
11438W        W76423   4.300  38.905  11.901
11439W        W76424   8.244  31.554  10.616
11440W        W76425   4.851  38.579   1.664
11441W        W76426  34.137   1.820   0.472
11442W        W76427  43.167   3.232  11.164
11443W        W76428  30.901  32.029  10.738
11444W        W76429  21.043  28.974   3.644
11445W        W76430   5.778   7.369  12.173
11446W        W76431  35.813  42.168  11.717
11447W        W76432  32.362  43.889  13.982
11448W        W76433  14.142   0.256  13.939
11449W        W76434   0.451  31.090   2.425
11450W        W76435  30.539  42.994   0.431
11451W        W76436  10.136  17.336  14.834
11452W        W76437  31.258   7.415   4.620
11453W        W76438  20.835  15.802  13.942
11454W        W76439  41.381  11.151   2.168
11455W        W76440  40.887   7.383   3.748
11456W        W76441  33.432  38.053  13.362
11457W        W76442  30.447  32.637   1.428
11458W        W76443  41.328  24.222   4.431
11459W        W76444  41.457  42.703   3.588
11460W        W76445  34.830  43.503   2.253
11461W        W76446  35.809   0.018  12.942
11462W        W76447  13.217  14.913   0.315
11463W        W76448  33.919  31.091  14.368
11464W        W76449  21.247  11.265  14.311
11465W        W76450   7.761  41.307   1.805
11466W        W76451   9.223  42.339   1.714
11467W        W76452  20.770  39.976  12.993
11468W        W76453  16.055  25.201  12.163
11469W        W76454  28.276  16.735  14.386
11470W        W76455  14.334  31.737  12.837
11471W        W76456  10.946  38.015   4.556
11472W        W76457  39.718  38.348   3.195
11473W        W76458  27.268  28.907   1.659
11474W        W76459  27.141   7.178   0.593
11475W        W76460   6.116  42.138  10.367
11476W        W76461  27.177   2.291   1.335
11477W        W76462  27.682  30.978  13.455
11478W        W76463   5.967  44.944   1.325
11479W        W76464  25.648  10.372   0.369
11480W        W76465  29.126  14.288   2.716
11481W        W76466  37.855  27.912   3.746
11482W        W76467   6.149  43.501  14.197
11483W        W76468  37.966  39.303  11.506
11484W        W76469  27.609   4.074   4.598
11485W        W76470  20.569  19.150   2.559
11486W        W76471  36.176  11.428   2.122
11487W        W76472  31.032  19.631   4.679
11488W        W76473  22.038   7.367   3.262
11489W        W76474   9.965   0.464   4.580
11490W        W76475  41.988  22.266  14.851
11491W        W76476  15.298  26.455   4.263
11492W        W76477  24.981  30.477  13.893
11493W        W76478   9.301  37.405   3.186
11494W        W76479  43.424  16.314   2.281
11495W        W76480  28.593  40.339  11.057
11496W        W76481   4.247  29.129  11.075
11497W        W76482  27.081  20.222  13.881
11498W        W76483   1.156   7.093  12.354
11499W        W76484  40.481   8.184   4.688
11500W        W76485  34.470  13.354   0.784
11501W        W76486   2.202   8.827  13.780
11502W        W76487  42.067  22.364   5.123
11503W        W76488  26.738  32.214  12.667
11504W        W76489   8.887  39.413   0.365
11505W        W76490  26.391  29.910  13.054
11506W        W76491  12.728  35.843   0.531
11507W        W76492  44.037  40.198   0.987
11508W        W76493  18.018  13.666  13.024
11509W        W76494  44.438  20.186  10.570
11510W        W76495  20.560  43.132   2.391
11511W        W76496   9.341  22.130  14.265
11512W        W76497  14.865  42.106   1.871
11513W        W76498   6.340  37.637  14.915
11514W        W76499   0.913  37.097   4.901
11515W        W76500   8.145  22.621  14.271
11516W        W76501  17.599  29.116  14.288
11517W        W76502  31.904  10.752  12.683
11518W        W76503  12.314  15.614  13.432
11519W        W76504  43.514  33.340   3.164
11520W        W76505  44.959  11.654   0.248
11521W        W76506  41.931  28.144   0.427
11522W        W76507  41.345  29.923  11.523
11523W        W76508  35.302  25.990  12.495
11524W        W76509  21.656  15.694   2.956
11525W        W76510  25.056  27.541   3.437
11526W        W76511  20.755  31.498   1.048
11527W        W76512   2.333  35.444   4.273
11528W        W76513   2.446  21.962   1.791
11529W        W76514  11.618  23.737  10.518
11530W        W76515   4.989  28.050   0.827
11531W        W76516  44.212  21.197   0.332
11532W        W76517  35.607  43.836  14.255
11533W        W76518  37.002   5.679   0.391
11534W        W76519  13.145  36.008   9.852
11535W        W76520  44.425  23.003   3.234
11536W        W76521  37.006  26.691  14.479
11537W        W76522  37.498  21.248  13.240
11538W        W76523  29.502  14.441   3.067
11539W        W76524   2.944  25.086   3.114
11540W        W76525  12.823  27.495   0.701
11541W        W76526  44.772  21.247   1.310
11542W        W76527  40.595   8.470  12.537
11543W        W76528  34.127  21.001   1.168
11544W        W76529  33.348   1.740  11.955
11545W        W76530   6.152   2.288  13.917
11546W        W76531  33.544  17.746  11.693
11547W        W76532   4.388  41.004  12.562
11548W        W76533  31.168  38.432   1.268
11549W        W76534  13.969  24.148  14.801
11550W        W76535  24.301  24.684   3.264
11551W        W76536  15.322  17.314  14.388
11552W        W76537   5.797  18.886   3.983
11553W        W76538   4.721  33.329  12.993
11554W        W76539  35.613   7.296   2.341
11555W        W76540  44.273  11.850  12.604
11556W        W76541  16.485  40.467  12.806
11557W        W76542   9.749  41.947  12.147
11558W        W76543  14.257  31.788  11.041
11559W        W76544  27.653  29.405   4.566
11560W        W76545  21.988  42.759   4.887
11561W        W76546  19.547  37.564  10.817
11562W        W76547  38.439  31.104   4.336
11563W        W76548  19.788  29.435   1.794
11564W        W76549  31.213   3.803   1.119
11565W        W76550   1.782  24.701  11.611
11566W        W76551   2.611  19.103  13.377
11567W        W76552  16.055   9.245  10.505
11568W        W76553   2.722  36.955   2.883
11569W        W76554  39.978  24.704   2.886
11570W        W76555  35.173  41.059   5.130
11571W        W76556  29.378  28.263  11.144
11572W        W76557  41.488  24.062   1.238
11573W        W76558  44.862   6.671   9.661
11574W        W76559   8.386   1.950  11.978
11575W        W76560  25.614  23.695   0.089
11576W        W76561   8.182  24.050   4.378
11577W        W76562   8.850   2.952  14.441
11578W        W76563  35.480  14.282   1.471
11579W        W76564   0.522  32.559   0.427
11580W        W76565  34.089  16.106  11.755
11581W        W76566  39.915  23.674  12.975
11582W        W76567   7.947  22.694   4.144
11583W        W76568  23.320  26.482   1.290
11584W        W76569  10.446   8.238   3.669
11585W        W76570  36.493   6.931   2.769
11586W        W76571  34.874  12.312  14.572
11587W        W76572  10.855  44.032   1.209
11588W        W76573  40.802  16.349   1.862
11589W        W76574  10.582   8.456  13.480
11590W        W76575   9.931   5.673  11.654
11591W        W76576   8.761   8.597  13.534
11592W        W76577  35.139  18.764   2.569
11593W        W76578   7.389   1.314   1.365
11594W        W76579  24.523  39.080  12.498
11595W        W76580  34.668  17.598  10.679
11596W        W76581   7.111  21.070  11.046
11597W        W76582   6.257  43.905   1.944
11598W        W76583  11.209  13.842  12.087
11599W        W76584  10.688  40.537   1.235
11600W        W76585  41.426  14.544   2.361
11601W        W76586  33.309  30.496  12.669
11602W        W76587  23.058  20.037   2.724
11603W        W76588  12.319  25.453  11.617
11604W        W76589   7.046   3.200  14.328
11605W        W76590  39.839   7.860   3.115
11606W        W76591  29.244  44.421  13.120
11607W        W76592  41.556  35.540   3.644
11608W        W76593  15.053  27.999  13.410
11609W        W76594   6.766  30.169  13.030
11610W        W76595  10.122  42.809   0.850
11611W        W76596  44.303  39.040  11.460
11612W        W76597  40.528  37.816  13.492
11613W        W76598  22.957  30.620   5.443
11614W        W76599  26.926  21.720   3.030
11615W        W76600  17.262  29.357   3.487
11616W        W76601  13.557  16.548  14.202
11617W        W76602  29.206  23.186   0.502
11618W        W76603   6.939  14.328  11.606
11619W        W76604  38.816   0.749  11.865
11620W        W76605  44.776  37.882  13.896
11621W        W76606  38.420  34.917  14.094
11622W        W76607  41.189  15.378   2.601
11623W        W76608   4.888   9.163  12.831
11624W        W76609  41.793  41.398   2.423
11625W        W76610  22.559  27.923  14.954
11626W        W76611  15.150  22.241   3.853
11627W        W76612  22.315  39.500   2.304
11628W        W76613  12.291  30.768   3.231
11629W        W76614   4.410   0.409  14.541
11630W        W76615  22.794  36.114   3.419
11631W        W76616  16.683  43.577   1.774
11632W        W76617  25.674  29.405  11.044
11633W        W76618  44.947  36.160  12.057
11634W        W76619  24.117  23.026   2.556
11635W        W76620   1.310  13.595   3.632
11636W        W76621  17.602  35.050  13.301
11637W        W76622  21.659  13.612   2.322
11638W        W76623  19.108  38.139  13.077
11639W        W76624  28.459  32.421  13.492
11640W        W76625   5.805  26.075   1.422
11641W        W76626  23.263  14.113  12.777
11642W        W76627  12.727   3.802  10.555
11643W        W76628  34.427  43.459   3.527
11644W        W76629  13.191  29.976   2.302
11645W        W76630  37.734  31.613  13.882
11646W        W76631  32.568  41.787   0.830
11647W        W76632  32.118  18.129  11.867
11648W        W76633  21.566   0.940  13.725
11649W        W76634  16.664  13.547   2.643
11650W        W76635   9.955  21.286  13.002
11651W        W76636   3.378   9.444  14.319
11652W        W76637   0.094   7.203  14.375
11653W        W76638  29.018  21.135   4.212
11654W        W76639  20.523  42.625   2.252
11655W        W76640  37.851  15.174   0.795
11656W        W76641  19.523   6.466   2.294
11657W        W76642  22.100  10.914   4.066
11658W        W76643   9.661  11.482  12.462
11659W        W76644  13.080  30.585  11.053
11660W        W76645  31.675   5.352  12.691
11661W        W76646  21.692  30.029  12.593
11662W        W76647  29.354  38.011  11.502
11663W        W76648  33.901  19.588   4.550
11664W        W76649  38.230  35.892  13.739
11665W        W76650  39.328  43.666  13.907
11666W        W76651  12.141   4.750  10.944
11667W        W76652  35.588   1.753   2.828
11668W        W76653  22.147  19.454   2.167
11669W        W76654  37.020  12.074  12.131
11670W        W76655   5.168  28.524   2.711
11671W        W76656  27.509   5.213   4.156
11672W        W76657  35.023  43.980   1.940
11673W        W76658  24.540  26.125  12.995
11674W        W76659  23.533   9.780   1.799
11675W        W76660  43.187  28.057  13.751
11676W        W76661  23.021  10.576   4.112
11677W        W76662   9.024  26.344  12.417
11678W        W76663   2.734  26.357  10.939
11679W        W76664  32.786  11.908  12.868
11680W        W76665  29.608   2.835   5.269
11681W        W76666  10.117  26.986   0.438
11682W        W76667  28.139  32.580   3.761
11683W        W76668  27.869  13.250  11.111
11684W        W76669  28.413  11.847   1.640
11685W        W76670  43.456  10.347   3.564
11686W        W76671  14.281  34.414   2.156
11687W        W76672   5.274  38.073   0.035
11688W        W76673  32.901   3.444  13.340
11689W        W76674  19.368  39.214   0.340
11690W        W76675  32.792  14.642  11.915
11691W        W76676  33.144  30.624   1.414
11692W        W76677  17.192  21.076   1.852
11693W        W76678  16.666   7.471   0.371
11694W        W76679   0.299  18.248   4.677
11695W        W76680  35.503  40.595   1.316
11696W        W76681   3.741  12.179   0.637
11697W        W76682  23.934  37.864   0.299
11698W        W76683  36.815   3.855  14.332
11699W        W76684  15.786  27.469   1.865
11700W        W76685  31.933  21.342  10.611
11701W        W76686  43.915  26.006  10.655
11702W        W76687  44.985  18.160  10.497
11703W        W76688  41.960  15.346   1.488
11704W        W76689   5.795  31.143  12.857
11705W        W76690  11.744  38.276   2.786
11706W        W76691  11.221  21.320  11.623
11707W        W76692  18.295  44.501  14.532
11708W        W76693  26.904  44.396  10.985
11709W        W76694  32.404  43.556  12.367
11710W        W76695  32.328  28.262   1.890
11711W        W76696  33.207   9.735  12.956
11712W        W76697  37.067  15.995   1.891
11713W        W76698  19.696  37.879   2.740
11714W        W76699  26.279  29.052  10.307
11715W        W76700  10.492   4.699  11.429
11716W        W76701  32.422  26.182  11.463
11717W        W76702   8.820  36.478  12.298
11718W        W76703  19.682  24.517  11.852
11719W        W76704   0.362  16.320  11.553
11720W        W76705  24.219  27.063   4.644
11721W        W76706  40.641  35.511  14.664
11722W        W76707   5.551  41.819   4.183
11723W        W76708   0.183   1.874  12.957
11724W        W76709  14.314  33.100   2.900
11725W        W76710   3.226   4.540  14.930
11726W        W76711  37.599  37.143  11.036
11727W        W76712  12.133  44.112   1.314
11728W        W76713  35.066   6.288  12.997
11729W        W76714  40.603  43.000   3.608
11730W        W76715  39.027  33.824  12.475
11731W        W76716  27.069  37.410   1.690
11732W        W76717  20.152  17.265  12.468
11733W        W76718  40.756  41.323   4.285
11734W        W76719  28.078  39.906   2.350
11735W        W76720  29.818  18.223   4.540
11736W        W76721  16.317   8.080  10.323
11737W        W76722  23.036  34.818   2.122
11738W        W76723  18.225  42.109   2.674
11739W        W76724   1.790  28.436  11.120
11740W        W76725  10.693  38.784   4.126
11741W        W76726  26.613  12.810  14.382
11742W        W76727  23.779   4.217  14.654
11743W        W76728  11.360  20.010  12.047
11744W        W76729   7.859  39.555   2.845
11745W        W76730  10.643  26.511   2.210
11746W        W76731  32.812  15.785  11.047
11747W        W76732  26.072  15.169   3.784
11748W        W76733  22.564   1.660  12.077
11749W        W76734  14.228  31.864  12.357
11750W        W76735  21.193   6.009  11.981
11751W        W76736  35.544  43.816   1.897
11752W        W76737  39.513  27.571  13.560
11753W        W76738  43.997  41.483   3.138
11754W        W76739  19.994   9.895  13.484
11755W        W76740   4.713  25.587  11.237
11756W        W76741  29.049  31.220   0.366
11757W        W76742   1.757   0.894   0.792
11758W        W76743  16.157  29.270  11.943
11759W        W76744   1.603   5.811  12.967
11760W        W76745  11.684   4.285   3.559
11761W        W76746  23.712  13.802  13.557
11762W        W76747  30.950   5.158  12.771
11763W        W76748  40.201  19.659  11.037
11764W        W76749  21.178   5.358   4.976
11765W        W76750  32.359  42.397  12.962
11766W        W76751  25.786  14.623  13.825
11767W        W76752  33.076  19.583   1.773
11768W        W76753  14.832  13.527   1.135
11769W        W76754  41.909  31.696  11.533
11770W        W76755   1.304  13.588   4.621
11771W        W76756  13.647  26.989   2.181
11772W        W76757  24.093  18.162  14.544
11773W        W76758  32.465   5.650   1.270
11774W        W76759  18.510  16.913   2.680
11775W        W76760  18.054   2.778  13.533
11776W        W76761  16.033   4.770  13.865
11777W        W76762  20.431   9.080  11.435
11778W        W76763  44.216  23.139  10.682
11779W        W76764  32.582   0.507   4.565
11780W        W76765  42.984  25.967   2.088
11781W        W76766   4.685   0.494   3.767
11782W        W76767  27.702  31.894   0.508
11783W        W76768  41.996  30.464   2.295
11784W        W76769  13.644  40.517  10.503
11785W        W76770  13.614  11.407   0.886
11786W        W76771  15.141  39.090   1.246
11787W        W76772  17.857  35.143  11.026
11788W        W76773   2.401  12.415  14.758
11789W        W76774  28.269   2.772  13.897
11790W        W76775  43.466  26.020  13.494
11791W        W76776  34.183  18.713  13.261
11792W        W76777   1.794  21.216  11.965
11793W        W76778  37.973  35.511   2.799
11794W        W76779  17.904  25.764  12.988
11795W        W76780  22.068  41.963   4.567
11796W        W76781  30.101  10.704   4.841
11797W        W76782  29.179   4.882   4.697
11798W        W76783   6.917  36.890  13.225
11799W        W76784  23.961  32.491  12.663
11800W        W76785  22.565  13.610   0.441
11801W        W76786  43.524  36.187  13.079
11802W        W76787  14.362  34.331  13.408
11803W        W76788  17.476  16.830  11.935
11804W        W76789  24.920   9.824  11.594
11805W        W76790  12.746   2.218  12.504
11806W        W76791  24.272  14.197   4.570
11807W        W76792  35.866   6.485   3.216
11808W        W76793   5.288  31.127  11.476
11809W        W76794  13.776   1.723  13.152
11810W        W76795  10.705  19.005   2.301
11811W        W76796  14.923  25.500  12.568
11812W        W76797  24.052  26.178  13.746
11813W        W76798  27.714  19.165   2.801
11814W        W76799  21.808  42.113   1.650
11815W        W76800  32.657  14.798   0.523
11816W        W76801  22.228  14.613  11.088
11817W        W76802  13.492  31.483  13.893
11818W        W76803  14.722  37.425   0.956
11819W        W76804  38.960  32.726  10.722
11820W        W76805  17.830  44.165   3.397
11821W        W76806  39.329  24.146   0.709
11822W        W76807  15.811  17.605  12.021
11823W        W76808  11.755  10.293  14.425
11824W        W76809  19.640  33.628   0.967
11825W        W76810  19.177  33.363   3.300
11826W        W76811  44.762   7.660   2.934
11827W        W76812  20.805  19.754  14.978
11828W        W76813  38.976  36.555  12.955
11829W        W76814  19.392  28.560   1.173
11830W        W76815   4.944  23.631  13.497
11831W        W76816  27.564  25.035  10.638
11832W        W76817   3.616  33.457  13.701
11833W        W76818  43.351  31.509  12.469
11834W        W76819  42.736  40.062  10.596
11835W        W76820  38.647  20.347   3.590
11836W        W76821  35.825  21.241   3.582
11837W        W76822   8.515  36.415   2.378
11838W        W76823  25.366  35.736   0.439
11839W        W76824   9.384  22.517  14.822
11840W        W76825   5.959  36.641  13.413
11841W        W76826  14.516  24.319  14.083
11842W        W76827  15.582   5.140   0.396
11843W        W76828   2.271   0.390  14.710
11844W        W76829  11.680  23.071   0.961
11845W        W76830  36.898  10.213   4.449
11846W        W76831  27.489  21.658  14.521
11847W        W76832  34.657  40.970  10.571
11848W        W76833  24.349  30.841   3.640
11849W        W76834  17.073   3.050  12.115
11850W        W76835   4.069   9.199  10.588
11851W        W76836  42.352  27.143  14.029
11852W        W76837   0.475  33.732  11.893
11853W        W76838  37.302  13.243   3.042
11854W        W76839  12.422   1.902   2.821
11855W        W76840   3.049  22.452   2.840
11856W        W76841  19.152   3.553  11.901
11857W        W76842   1.799  21.692   4.195
11858W        W76843   4.818  18.279   1.948
11859W        W76844   5.961   5.949  12.576
11860W        W76845  29.612   3.832   3.835
11861W        W76846   2.776  33.654   0.212
11862W        W76847  13.192  44.877   4.550
11863W        W76848   0.293   7.658   2.087
11864W        W76849  37.382  30.955  12.690
11865W        W76850   0.649   2.262   2.866
11866W        W76851  34.429  25.974   4.248
11867W        W76852  10.676  13.853  12.972
11868W        W76853   5.382  35.781   2.331
11869W        W76854  29.511  27.218   0.819
11870W        W76855  39.018  17.469   1.290
11871W        W76856  11.126   9.685  11.035
11872W        W76857  40.361   6.368   3.064
11873W        W76858   4.903  37.309   0.697
11874W        W76859  44.727  11.716  12.421
11875W        W76860  24.968  41.793  12.292
11876W        W76861  16.793  29.440  14.055
11877W        W76862  13.977  26.383  12.476
11878W        W76863   9.913  14.107   4.162
11879W        W76864  36.580  36.616  13.439
11880W        W76865  44.339  20.125  14.893
11881W        W76866  28.717  39.361   4.575
11882W        W76867  11.732   6.345  11.251
11883W        W76868  42.314  10.661  10.685
11884W        W76869  32.862  17.301   3.936
11885W        W76870  38.887  27.234   3.975
11886W        W76871  36.838  13.334   4.803
11887W        W76872  40.325  40.050   5.038
11888W        W76873  33.886  32.836  11.716
11889W        W76874   9.242  33.351   4.679
11890W        W76875   6.393  17.990   1.004
11891W        W76876  32.559   8.440  12.943
11892W        W76877  25.179  23.443   1.890
11893W        W76878  28.386  11.477   1.277
11894W        W76879  15.165  41.932  11.470
11895W        W76880   0.492  19.076   4.125
11896W        W76881  40.950   3.951   1.253
11897W        W76882   7.727  26.750   2.886
11898W        W76883   3.494  11.123  13.938
11899W        W76884  40.637  22.243   2.798
11900W        W76885  37.938  38.859  14.479
11901W        W76886  31.417  23.508   4.004
11902W        W76887  43.551  38.790   2.550
11903W        W76888   9.691   6.741   0.878
11904W        W76889  39.322  16.358   2.672
11905W        W76890  14.058  42.764   2.428
11906W        W76891  21.056  37.488  14.908
11907W        W76892  35.973   7.324  13.394
11908W        W76893  26.780   2.896   3.686
11909W        W76894  28.957  40.004   4.061
11910W        W76895  18.158  26.458  13.538
11911W        W76896   0.970  14.690  14.398
11912W        W76897  34.893  37.587   4.527
11913W        W76898  41.470  40.539   2.371
11914W        W76899  43.882   7.165  11.506
11915W        W76900  37.428  40.329   3.273
11916W        W76901  14.252  39.289  10.729
11917W        W76902   1.499  32.095   3.276
11918W        W76903  38.032   7.408   9.763
11919W        W76904  43.471  33.379  10.969
11920W        W76905  30.169  42.284  13.001
11921W        W76906   4.348  25.695   3.095
11922W        W76907   6.296   8.255  11.510
11923W        W76908   9.126  31.183   1.364
11924W        W76909  16.332  31.645   3.231
11925W        W76910  22.780  16.534   5.165
11926W        W76911  28.521  28.036  11.580
11927W        W76912   5.213  21.818   2.483
11928W        W76913  44.790  30.496   4.121
11929W        W76914  38.437  28.979  13.074
11930W        W76915  26.336  33.107   5.434
11931W        W76916  15.320  38.531   3.458
11932W        W76917   6.382   1.715  13.026
11933W        W76918  29.623  35.594   4.870
11934W        W76919  42.201  17.504   4.040
11935W        W76920  25.546  42.602  10.696
11936W        W76921  33.862  20.755  11.607
11937W        W76922  30.451  30.576   0.504
11938W        W76923  39.023  42.276  11.234
11939W        W76924   6.283  30.120   1.187
11940W        W76925  12.437  38.827  12.437
11941W        W76926  28.305  44.038   1.458
11942W        W76927  30.259  32.593  12.893
11943W        W76928  29.044  28.371   4.171
11944W        W76929   5.503  11.824  11.858
11945W        W76930  20.074  39.065   2.227
11946W        W76931  34.035  40.213   3.350
11947W        W76932   1.726   3.177   0.362
11948W        W76933   3.959  36.532   1.370
11949W        W76934  15.686  34.012   4.341
11950W        W76935  40.521  27.477  10.200
11951W        W76936  36.629  27.048   1.905
11952W        W76937  39.184   5.365   1.237
11953W        W76938  32.629   6.679   1.075
11954W        W76939  41.901   7.717   2.153
11955W        W76940  36.337  39.082  14.201
11956W        W76941  19.682  25.159  10.633
11957W        W76942  40.047  41.959   4.703
11958W        W76943   3.870   7.651   1.724
11959W        W76944  32.636  39.995  12.429
11960W        W76945   6.385  21.202   2.654
11961W        W76946  35.632  28.191   4.156
11962W        W76947  16.774  36.109   3.408
11963W        W76948  22.233  32.058   1.461
11964W        W76949  19.987  26.427   3.335
11965W        W76950   9.716  30.866   3.665
11966W        W76951   0.940  29.910  12.641
11967W        W76952  44.752   8.673   3.312
11968W        W76953  21.076  35.588  13.257
11969W        W76954  21.935  42.446  10.599
11970W        W76955  13.404   1.728  12.197
11971W        W76956   1.924  33.725  14.040
11972W        W76957  25.556  16.837   0.805
11973W        W76958  30.146  25.951  14.472
11974W        W76959  19.813  11.177   3.254
11975W        W76960  11.804   8.762   4.514
11976W        W76961   2.675   4.013   0.698
11977W        W76962   0.763  31.971   0.564
11978W        W76963  43.903  11.145   1.231
11979W        W76964  31.168  38.153  11.130
11980W        W76965  19.150  35.654  12.173
11981W        W76966  38.855  31.506   1.195
11982W        W76967  24.687  13.881  11.075
11983W        W76968  33.538   3.522   4.205
11984W        W76969  13.548  36.110   1.286
11985W        W76970  14.218  36.314   2.129
11986W        W76971  13.080   9.136  14.884
11987W        W76972  42.445  42.832   3.356
11988W        W76973   8.338   8.431  12.142
11989W        W76974  29.662  13.053   4.497
11990W        W76975  26.739   0.875   2.730
11991W        W76976  19.322  14.650   0.724
11992W        W76977   5.035  10.611   4.223
11993W        W76978  27.497   7.575  13.075
11994W        W76979  30.450  28.738   1.799
11995W        W76980  34.832  28.847   4.577
11996W        W76981  10.178  44.169   0.697
11997W        W76982   2.164  22.498  11.694
11998W        W76983  31.438   5.732   1.911
11999W        W76984   9.708  21.113   2.603
12000W        W76985   5.121  18.478   2.350
12001W        W76986  24.286  22.242   5.113
12002W        W76987  11.015  38.580   1.090
12003W        W76988  43.039   1.349   1.160
12004W        W76989  34.378   6.188  11.846
12005W        W76990   8.917  24.589   0.911
12006W        W76991  25.450  28.867   3.640
12007W        W76992  22.682  32.079   4.817
12008W        W76993  44.692   3.917  11.843
12009W        W76994  40.017  13.871  14.304
12010W        W76995  30.660  43.208   3.990
12011W        W76996  30.122  34.159   1.006
12012W        W76997  40.601  19.673   1.397
12013W        W76998  11.024  11.283  14.267
12014W        W76999  31.688  15.721  13.515
12015W        W77000   2.326   8.343   0.358
12016W        W77001  29.084  43.425   2.694
12017W        W77002  13.163  18.767  12.485
12018W        W77003  33.891  33.118   0.443
12019W        W77004  28.165  18.823   1.265
12020W        W77005   8.615  40.812  11.996
12021W        W77006  32.733   5.323   2.149
12022W        W77007  20.302  27.628   0.195
12023W        W77008   5.512  40.390   3.206
12024W        W77009  15.480   4.252   1.916
12025W        W77010  27.163  11.811   0.691
12026W        W77011  30.095  31.124  11.030
12027W        W77012  27.590   6.436  11.517
12028W        W77013  30.904  39.992   4.795
12029W        W77014  37.834  35.356   4.256
12030W        W77015  42.844  31.462  10.736
12031W        W77016   1.375  36.297   3.886
12032W        W77017  22.995  37.376   1.318
12033W        W77018   1.434   6.389   0.963
12034W        W77019  31.539  42.992  12.471
12035W        W77020  32.926  28.648   1.686
12036W        W77021  19.678  41.830   1.252
12037W        W77022  42.320   2.494   4.073
12038W        W77023  32.660  39.031   4.332
12039W        W77024   8.428   2.352  13.782
12040W        W77025  13.742  18.540  11.427
12041W        W77026  27.170  19.514  13.395
12042W        W77027  42.023   2.236  14.318
12043W        W77028  30.592  16.761  14.728
12044W        W77029  44.320  30.564   4.837
12045W        W77030  27.285  16.243   0.395
12046W        W77031  44.005  29.071   4.959
12047W        W77032   2.251  40.894   4.124
12048W        W77033  14.828   6.998  13.280
12049W        W77034  14.722  32.633   2.165
12050W        W77035  37.491  13.003   0.146
12051W        W77036   5.795   5.376   2.705
12052W        W77037  10.620  36.077  10.550
12053W        W77038   1.531  26.945  11.736
12054W        W77039  28.291  20.669  12.764
12055W        W77040   1.524  34.261   4.142
12056W        W77041  23.162  12.823   0.523
12057W        W77042  32.774  38.973  14.438
12058W        W77043  16.026   0.899  14.864
12059W        W77044  16.468  22.401  11.152
12060W        W77045  19.339  43.230  11.054
12061W        W77046  42.254  28.101   2.976
12062W        W77047  29.222  25.110  10.684
12063W        W77048  16.032  27.080  12.911
12064W        W77049   5.969  38.316  12.021
12065W        W77050  26.199   5.371   3.143
12066W        W77051   3.431  13.625  11.277
12067W        W77052   9.548   1.034  13.220
12068W        W77053  25.668  16.796   0.266
12069W        W77054  23.049  16.380   0.475
12070W        W77055  29.777   2.741   4.282
12071W        W77056   1.940  43.110  14.361
12072W        W77057  27.085  22.435   4.885
12073W        W77058   1.976  31.591   1.153
12074W        W77059  41.515  41.219   0.944
12075W        W77060   0.518   8.628   2.323
12076W        W77061   0.439  19.027  14.885
12077W        W77062  39.263  38.471   3.688
12078W        W77063   8.787  15.119   3.167
12079W        W77064  20.634  27.278   0.446
12080W        W77065  20.527  29.074   4.977
12081W        W77066  18.653  24.016  12.392
12082W        W77067   3.312  25.730  11.567
12083W        W77068  17.540   6.881   3.059
12084W        W77069   3.003   4.795   1.875
12085W        W77070  40.046  10.720  12.564
12086W        W77071  29.184   5.268   1.760
12087W        W77072  28.301  14.564   0.389
12088W        W77073  29.526  24.965  10.248
12089W        W77074  35.415  37.439   1.943
12090W        W77075  30.018  37.512   2.181
12091W        W77076   7.223  26.137   1.676
12092W        W77077  42.197  12.396  11.018
12093W        W77078  36.985  17.842  11.542
12094W        W77079   3.775   5.456   2.378
12095W        W77080  35.352  31.659   4.198
12096W        W77081  29.426  41.320   1.176
12097W        W77082  40.760  37.989  14.389
12098W        W77083  30.438  16.508   1.415
12099W        W77084  39.107  36.538   3.874
12100W        W77085  38.673   8.671   4.923
12101W        W77086  17.069   1.413  11.174
12102W        W77087  36.837  10.654  11.767
12103W        W77088  42.921   4.129   4.876
12104W        W77089  38.082  35.963   3.427
12105W        W77090  43.630   6.973  11.083
12106W        W77091  22.291  37.340   2.665
12107W        W77092  34.965  33.592  10.719
12108W        W77093  38.099   3.848   2.770
12109W        W77094  25.502  36.877   1.080
12110W        W77095  16.762   0.720   3.981
12111W        W77096  13.649  14.908   1.163
12112W        W77097  37.983  24.464   2.895
12113W        W77098  37.179  30.031   2.985
12114W        W77099  29.605  37.084   0.306
12115W        W77100  25.206  26.670   3.174
12116W        W77101  14.196   2.232   2.361
12117W        W77102  44.035  28.034  12.133
12118W        W77103  24.150  41.731  14.287
12119W        W77104  38.335  15.156   1.900
12120W        W77105  17.083  25.925  12.057
12121W        W77106  39.205  18.551  11.966
12122W        W77107  24.255   4.715  14.547
12123W        W77108   3.285  29.694   0.387
12124W        W77109   1.022   5.454  13.834
12125W        W77110  25.919  44.408   1.395
12126W        W77111  30.707  38.654  12.142
12127W        W77112  19.721  38.385   3.243
12128W        W77113  31.889  31.405  12.253
12129W        W77114  39.313  34.904  14.772
12130W        W77115   2.722  20.819   4.908
12131W        W77116  36.062  35.542  13.073
12132W        W77117  28.763   5.779  12.148
12133W        W77118  29.620  31.803  14.950
12134W        W77119  10.650   5.171  11.587
12135W        W77120  38.190   1.505  14.329
12136W        W77121  15.563   2.394   1.857
12137W        W77122   0.333   5.504  14.407
12138W        W77123   8.688  33.483  12.491
12139W        W77124  39.073  30.005   3.809
12140W        W77125   9.568  27.553   3.564
12141W        W77126  11.943  27.508   4.099
12142W        W77127  27.103   1.503   3.163
12143W        W77128  35.030  20.762   1.251
12144W        W77129  19.064  27.653  13.195
12145W        W77130  28.012  26.915   0.870
12146W        W77131  14.829  42.014   0.320
12147W        W77132  13.568  12.327   0.741
12148W        W77133  38.831  19.809  12.056
12149W        W77134   2.615   5.817  12.147
12150W        W77135  26.209  41.941   1.652
12151W        W77136  29.865  41.641  13.377
12152W        W77137   5.533  10.404   0.863
12153W        W77138  35.527   5.441  11.501
12154W        W77139  37.505  26.007   0.051
12155W        W77140  20.831  12.594   2.181
12156W        W77141   2.722  10.867   1.470
12157W        W77142   8.081  10.207  14.980
12158W        W77143  10.745  34.903  11.513
12159W        W77144  33.941   6.229  12.139
12160W        W77145  15.326  11.666  13.938
12161W        W77146  44.388  31.871   1.293
12162W        W77147  39.935   2.875  13.557
12163W        W77148  37.632  24.182  12.841
12164W        W77149  27.181  33.842   2.703
12165W        W77150   2.452  22.475  10.890
12166W        W77151  11.729  36.784   1.834
12167W        W77152  12.790   6.849   4.956
12168W        W77153  36.911  34.049  12.288
12169W        W77154  43.860   2.845   1.229
12170W        W77155  32.878  34.388  13.036
12171W        W77156  28.934  31.339   0.921
12172W        W77157  17.282  42.497   2.617
12173W        W77158  14.695   7.746   3.227
12174W        W77159   9.829  23.205   1.652
12175W        W77160  40.743   2.358   2.966
12176W        W77161  40.038  25.601   2.163
12177W        W77162  39.963  23.134   0.750
12178W        W77163  42.983  10.090   2.897
12179W        W77164   1.817  26.718   1.745
12180W        W77165  34.713  11.250  14.223
12181W        W77166  29.947   9.394  11.208
12182W        W77167  17.314  35.542   0.015
12183W        W77168  25.902  26.073   1.810
12184W        W77169  37.384  34.665  14.232
12185W        W77170  37.829  24.856  11.700
12186W        W77171  14.172   1.841  10.953
12187W        W77172  18.152  20.421  13.941
12188W        W77173   2.867   1.827   2.033
12189W        W77174   7.217  15.544   4.637
12190W        W77175   7.377  42.430   1.007
12191W        W77176  40.920  43.830   3.304
12192W        W77177  28.865   6.686   2.383
12193W        W77178  37.464   5.449   4.095
12194W        W77179   8.581  42.053   0.937
12195W        W77180   2.426  30.917   4.025
12196W        W77181  31.068  32.016  14.937
12197W        W77182  39.758  21.418  11.993
12198W        W77183   4.253   8.654  11.967
12199W        W77184   0.220   3.925  13.050
12200W        W77185  15.773  16.119  13.523
12201W        W77186   0.733  44.038   1.344
12202W        W77187  32.462  32.507   4.070
12203W        W77188  35.557  12.233  13.338
12204W        W77189   9.156  25.491  14.991
12205W        W77190  19.805  43.451  11.069
12206W        W77191   3.371   4.990   4.986
12207W        W77192  22.304   0.132   0.296
12208W        W77193  37.894  21.712   2.682
12209W        W77194  43.274  33.627  13.846
12210W        W77195   7.672  36.093   2.773
12211W        W77196  18.166   9.306  11.024
12212W        W77197   2.096  25.682   3.424
12213W        W77198   8.898  22.116   2.942
12214W        W77199  27.525  35.462  11.565
12215W        W77200  38.767  32.911   4.682
12216W        W77201  24.774  38.806  14.864
12217W        W77202  29.789  19.182  14.637
12218W        W77203  14.075   9.928   3.769
12219W        W77204  26.093  35.801  13.079
12220W        W77205  14.391  26.950   2.701
12221W        W77206   8.258  41.343   1.571
12222W        W77207  22.445   8.702  11.248
12223W        W77208  36.067  12.683   3.521
12224W        W77209   8.341   5.335   0.315
12225W        W77210   2.786  37.420   1.617
12226W        W77211  23.032  41.051  12.057
12227W        W77212  44.468  37.992   0.493
12228W        W77213  22.071   8.699  12.558
12229W        W77214  17.560  24.504   0.364
12230W        W77215   8.781  22.769   1.208
12231W        W77216  14.958  14.241   0.246
12232W        W77217  28.407  38.396  13.058
12233W        W77218  21.586  31.836  13.418
12234W        W77219  14.077  43.801   4.584
12235W        W77220  16.549  17.301  13.877
12236W        W77221  34.952  30.964   4.408
12237W        W77222  38.557  34.497  14.864
12238W        W77223  11.879  15.798   2.711
12239W        W77224  33.686   6.144   3.161
12240W        W77225   5.621   6.329  10.593
12241W        W77226  20.345  12.230   0.895
12242W        W77227  10.826  41.434   2.645
12243W        W77228  25.024  39.737  11.173
12244W        W77229  22.532  23.280  13.814
12245W        W77230  21.534  38.145  14.110
12246W        W77231  32.142  32.125  11.200
12247W        W77232  26.495  32.220   4.541
12248W        W77233  13.656  30.857   3.280
12249W        W77234   4.403  12.092  12.409
12250W        W77235  17.396  36.495   2.329
12251W        W77236  26.191  34.490  13.534
12252W        W77237  18.180  43.062  11.523
12253W        W77238  33.550  28.422  13.517
12254W        W77239  32.819  18.729   4.028
12255W        W77240  35.715  24.540   2.767
12256W        W77241  12.644  21.957  11.046
12257W        W77242   6.622  21.993   4.139
12258W        W77243  41.858  32.991  10.260
12259W        W77244  35.403   3.203  12.448
12260W        W77245  11.602  41.212  10.226
12261W        W77246  18.772  33.514   0.729
12262W        W77247   2.741  19.078  10.860
12263W        W77248   7.618   8.482  10.230
12264W        W77249   5.793  41.820   4.641
12265W        W77250  39.921  42.090  12.390
12266W        W77251  25.761   0.556  13.289
12267W        W77252  17.340  33.555  12.824
12268W        W77253  14.082  41.344  13.936
12269W        W77254  21.507  29.271   2.332
12270W        W77255  21.076  44.004   1.642
12271W        W77256  22.693  28.409   0.710
12272W        W77257   2.715  26.540  13.304
12273W        W77258  29.078  38.961   0.618
12274W        W77259   1.660  14.131   2.350
12275W        W77260  12.234   9.344   4.050
12276W        W77261  36.186  22.756  13.486
12277W        W77262   1.274  23.968  13.330
12278W        W77263  38.804  30.946   3.578
12279W        W77264   2.234  22.319  12.904
12280W        W77265  35.941  12.752   4.023
12281W        W77266  10.180  26.498   3.289
12282W        W77267  43.455  18.128  12.441
12283W        W77268  36.368  41.392  11.938
12284W        W77269  16.062  18.566  13.885
12285W        W77270   7.389   8.883   1.972
12286W        W77271  25.468   6.447   0.896
12287W        W77272  14.315   2.485   3.640
12288W        W77273  14.815  19.468   5.011
12289W        W77274  24.512   8.794  14.350
12290W        W77275  20.678  44.940   0.224
12291W        W77276   1.270  40.486  10.630
12292W        W77277  31.681  12.111  13.599
12293W        W77278  42.084   7.271  10.359
12294W        W77279  17.729   2.360  12.034
12295W        W77280  22.611   0.718   2.612
12296W        W77281  28.295  21.075  10.186
12297W        W77282  32.000  12.709  12.485
12298W        W77283  30.241  28.095  10.693
12299W        W77284  35.011  42.508  14.488
12300W        W77285  15.072   7.078   1.749
12301W        W77286  15.132  42.572   2.096
12302W        W77287  37.935  35.059  12.434
12303W        W77288  35.934  21.560  11.097
12304W        W77289  38.572   4.933   4.161
12305W        W77290  28.415   2.921   3.687
12306W        W77291  15.129  12.117  10.694
12307W        W77292  10.816  21.566   2.255
12308W        W77293   8.859  35.016  11.690
12309W        W77294  42.224   4.434   0.750
12310W        W77295   6.493  43.237   3.759
12311W        W77296   0.478  41.317   2.770
12312W        W77297   8.828  35.855  11.111
12313W        W77298  10.782  24.260  10.730
12314W        W77299   4.879   5.687  14.361
12315W        W77300   6.387   3.708  13.850
12316W        W77301  21.258   3.312  12.041
12317W        W77302   9.753  36.182   0.281
12318W        W77303   9.062  11.541   0.140
12319W        W77304  42.046  24.494  12.981
12320W        W77305  31.339   2.814   0.447
12321W        W77306   8.328  40.380   2.929
12322W        W77307  19.401  28.626  12.934
12323W        W77308   4.138  33.578   4.183
12324W        W77309  40.616  32.837   9.796
12325W        W77310   0.198  15.556   9.936
12326W        W77311   0.777   7.772  10.737
12327W        W77312  31.808   2.183  14.041
12328W        W77313  42.374  19.295  10.639
12329W        W77314  25.696  11.937   1.281
12330W        W77315  29.173  30.051  10.220
12331W        W77316  32.181   9.227  14.491
12332W        W77317  20.618   7.156  13.117
12333W        W77318  44.280  16.074   1.055
12334W        W77319  40.994   7.262   0.363
12335W        W77320   3.068  26.963   4.706
12336W        W77321  39.885   1.847   2.326
12337W        W77322  34.899  18.563  12.694
12338W        W77323  25.933  23.848   0.467
12339W        W77324  38.522  40.928  10.590
12340W        W77325  23.158  42.847  11.512
12341W        W77326   9.736   7.191  12.514
12342W        W77327  18.654   8.353  14.550
12343W        W77328  34.771  32.134  12.956
12344W        W77329  14.132  18.290   1.947
12345W        W77330  10.868  35.758  12.015
12346W        W77331  28.960  16.388   3.132
12347W        W77332  22.699   7.410   0.408
12348W        W77333  36.855  12.216   3.249
12349W        W77334  40.530  32.359   1.409
12350W        W77335  27.444  27.096  14.863
12351W        W77336  25.749  27.401   4.541
12352W        W77337   1.756  16.052   3.201
12353W        W77338  35.135  32.188  13.908
12354W        W77339  41.015  43.404   4.632
12355W        W77340  40.265  20.557   2.826
12356W        W77341  42.676  24.557  10.319
12357W        W77342   0.782   5.194  14.313
12358W        W77343  35.523  20.784  12.039
12359W        W77344  18.408  29.650   2.733
12360W        W77345  44.450  22.102  12.551
12361W        W77346  16.186  20.736   4.030
12362W        W77347  14.838  27.736   3.596
12363W        W77348   3.498  29.641   4.899
12364W        W77349   3.857  20.408  10.641
12365W        W77350   1.924  13.221   0.797
12366W        W77351   0.379  19.506  14.213
12367W        W77352   3.688  11.784   0.282
12368W        W77353  11.172  34.461   1.416
12369W        W77354  13.169  31.995  13.043
12370W        W77355  34.332  33.958   1.394
12371W        W77356  43.585  15.586  14.186
12372W        W77357  23.549  19.193   3.886
12373W        W77358  18.751   1.333   0.486
12374W        W77359   9.346  44.008   3.816
12375W        W77360  20.636  13.612   4.724
12376W        W77361  25.926   9.523   0.342
12377W        W77362  31.015   8.910   4.003
12378W        W77363  30.611  41.592  11.613
12379W        W77364   2.996  26.003   2.768
12380W        W77365  25.527  34.965  13.032
12381W        W77366   1.184  27.974  13.779
12382W        W77367   6.702  23.488  11.192
12383W        W77368  24.139  13.239  11.900
12384W        W77369  16.205  15.272  13.263
12385W        W77370  19.297   2.349  11.194
12386W        W77371  40.323  10.569   4.887
12387W        W77372  31.808  13.983   1.303
12388W        W77373   2.336   5.914  10.730
12389W        W77374  35.160   2.333   0.803
12390W        W77375  40.748  23.480   4.569
12391W        W77376  40.453  28.375  13.427
12392W        W77377  36.627   6.736  13.881
12393W        W77378  20.765  38.122  12.975
12394W        W77379   7.490  23.355  12.034
12395W        W77380  39.816  16.117  12.477
12396W        W77381  26.109   2.291  14.414
12397W        W77382  18.199  41.509  13.300
12398W        W77383   2.528  37.449  12.011
12399W        W77384   0.582  19.889   0.799
12400W        W77385  11.288  26.544   4.162
12401W        W77386   3.978  44.978  13.846
12402W        W77387  15.258  39.287  11.994
12403W        W77388  20.125  43.014  12.757
12404W        W77389   7.864  38.761  11.689
12405W        W77390  19.308  15.811   4.345
12406W        W77391  23.623  43.728  10.803
12407W        W77392   0.015  38.410  13.998
12408W        W77393  24.950  26.586  11.140
12409W        W77394  10.159  42.407   2.443
12410W        W77395   8.777  35.459  11.418
12411W        W77396  24.920   0.118  14.897
12412W        W77397  38.098   6.370   4.486
12413W        W77398  29.221  11.553   1.534
12414W        W77399   5.815  30.129   4.262
12415W        W77400   4.898  11.831   1.356
12416W        W77401  22.147   1.017  14.457
12417W        W77402  41.773  10.267  12.392
12418W        W77403  20.027   7.219  11.070
12419W        W77404  34.475  41.472  10.476
12420W        W77405  27.496  31.139  11.211
12421W        W77406  42.736   4.168  13.974
12422W        W77407  11.941   7.031   2.832
12423W        W77408  30.500  15.761   4.112
12424W        W77409  14.177  21.678  14.787
12425W        W77410  24.508  40.487  11.957
12426W        W77411  43.878  32.023  11.491
12427W        W77412  31.396  41.262   2.724
12428W        W77413   5.880   2.436   4.514
12429W        W77414  21.813   4.914  12.707
12430W        W77415   4.488   8.968   4.190
12431W        W77416  24.029   6.703   3.580
12432W        W77417  29.838  12.715   1.378
12433W        W77418   1.494  10.147   3.339
12434W        W77419  43.372  35.063   4.256
12435W        W77420  14.061  41.702   4.688
12436W        W77421  27.397   7.325  12.612
12437W        W77422  12.202  15.958  11.206
12438W        W77423  22.958   0.933   4.507
12439W        W77424  36.004  39.541  13.488
12440W        W77425  38.470  34.448  13.490
12441W        W77426  44.035   3.511  11.224
12442W        W77427   2.963  29.989   0.776
12443W        W77428  25.270  41.405   5.156
12444W        W77429  35.511  20.318  12.249
12445W        W77430  32.014  23.281   1.638
12446W        W77431  25.040  27.744  14.969
12447W        W77432  20.913  32.644   2.150
12448W        W77433  31.258  27.254   1.376
12449W        W77434  27.159   7.617  13.503
12450W        W77435  28.380  18.969   1.694
12451W        W77436   0.385  15.194  10.712
12452W        W77437  10.924   1.729   1.130
12453W        W77438  18.861  28.469   1.302
12454W        W77439  43.983  15.271  11.976
12455W        W77440  21.797  12.534   2.514
12456W        W77441  33.102  32.979   1.898
12457W        W77442  21.759  18.431   1.198
12458W        W77443  31.386  24.013   2.745
12459W        W77444  33.060  39.410  14.406
12460W        W77445  24.667  10.526  12.492
12461W        W77446   6.748  18.217  11.684
12462W        W77447  39.282   3.212   4.505
12463W        W77448   0.188   4.225   3.348
12464W        W77449  30.228  36.493   0.051
12465W        W77450  15.207  29.927   1.395
12466W        W77451  26.730  28.189  11.095
12467W        W77452   9.798   5.663   3.177
12468W        W77453  44.273  19.867   4.310
12469W        W77454   4.911  22.564  13.412
12470W        W77455   0.893  34.615  10.695
12471W        W77456  16.785  20.125   4.222
12472W        W77457  40.394  28.082   4.152
12473W        W77458   7.350  20.683   0.761
12474W        W77459  31.897   5.503   1.853
12475W        W77460  17.089  39.331   4.602
12476W        W77461  35.509  24.669   1.427
12477W        W77462  41.240  16.062   3.202
12478W        W77463  30.491   9.855  12.583
12479W        W77464  40.535  26.982   3.078
12480W        W77465  14.945   4.728  11.206
12481W        W77466  37.456   0.390   4.637
12482W        W77467  25.993  22.934   1.877
12483W        W77468  43.576  20.650   0.785
12484W        W77469  24.089  43.832  12.537
12485W        W77470  14.887  25.051  12.965
12486W        W77471  21.732   8.903   3.203
12487W        W77472  26.249   9.969  12.569
12488W        W77473  44.710  41.374   4.415
12489W        W77474  15.792  32.450   1.742
12490W        W77475  42.312  17.339  10.647
12491W        W77476  29.577  39.943   4.661
12492W        W77477   5.784  41.300   1.827
12493W        W77478  42.642  26.008  12.903
12494W        W77479  12.292  32.666  11.670
12495W        W77480   4.467  38.090   3.671
12496W        W77481  12.207  34.979   2.672
12497W        W77482   9.540  33.437   4.241
12498W        W77483  27.614  44.107   1.702
12499W        W77484  31.531  23.933   1.258
12500W        W77485  44.420  35.576   1.901
12501W        W77486  24.080  33.398  11.046
12502W        W77487  19.206  15.267  10.586
12503W        W77488  40.471  27.222   4.462
12504W        W77489  32.500  39.988   1.511
12505W        W77490  21.745  31.308   3.402
12506W        W77491  36.308  29.013  12.639
12507W        W77492  28.626  41.012  14.674
12508W        W77493  10.081   2.338   0.110
12509W        W77494   5.825  26.728   4.784
12510W        W77495   9.313   6.181  12.913
12511W        W77496  29.833   9.409  13.869
12512W        W77497  21.439  35.854   3.406
12513W        W77498   3.974  25.405   4.301
12514W        W77499  35.074  13.673  13.340
12515W        W77500  40.495  42.543  12.939
12516W        W77501  42.783  18.118   1.238
12517W        W77502  28.007  23.986   2.754
12518W        W77503  39.313   7.298   3.815
12519W        W77504   4.354  27.606   4.614
12520W        W77505   4.347  31.178  13.320
12521W        W77506  22.958  26.560  11.852
12522W        W77507  13.608  22.099   0.979
12523W        W77508   0.263  34.099  12.211
12524W        W77509  29.100  23.512   1.477
12525W        W77510  35.520  42.780   1.811
12526W        W77511  41.393  43.767   0.275
12527W        W77512  41.646  23.183   9.749
12528W        W77513  34.753  42.253   2.797
12529W        W77514  26.930  13.208   3.228
12530W        W77515  34.163  36.329  11.583
12531W        W77516   9.420   7.327  11.047
12532W        W77517  19.107  15.779  13.791
12533W        W77518   3.897   7.237  12.181
12534W        W77519  37.509  11.003  11.053
12535W        W77520  40.214  39.847   1.834
12536W        W77521  21.987  21.857   2.356
12537W        W77522   7.620  32.597  14.994
12538W        W77523  42.830  36.363   0.778
12539W        W77524  30.166  17.092   3.578
12540W        W77525  34.464  41.465  13.806
12541W        W77526  31.033  33.152  14.818
12542W        W77527   8.178  31.844  13.805
12543W        W77528  19.169  23.692  11.659
12544W        W77529  25.398  31.039  12.547
12545W        W77530  20.106  12.759   1.651
12546W        W77531  22.576   9.350  11.506
12547W        W77532  26.092  19.049   1.511
12548W        W77533  14.136  11.379   0.845
12549W        W77534  28.398  13.321   3.324
12550W        W77535  14.714   4.854   4.574
12551W        W77536   0.849   5.730  12.490
12552W        W77537  18.256  16.469  11.559
12553W        W77538  21.014  15.561   1.685
12554W        W77539  39.883  28.824   3.886
12555W        W77540  22.441  20.364  14.223
12556W        W77541  10.123  18.076   2.433
12557W        W77542   6.379   3.891  10.798
12558W        W77543  13.810  40.376  11.450
12559W        W77544   7.990  36.523  11.599
12560W        W77545  30.918  37.074  11.681
12561W        W77546  23.204   2.488   1.587
12562W        W77547   8.608  43.406  13.733
12563W        W77548   4.734   4.327   3.380
12564W        W77549  16.274  32.317  14.884
12565W        W77550  42.462  23.157  12.092
12566W        W77551  37.529   4.880   1.858
12567W        W77552   4.006  12.597  12.991
12568W        W77553  31.309  19.224  11.434
12569W        W77554  13.721  15.733  13.369
12570W        W77555  11.598  43.495  12.088
12571W        W77556  41.568   3.279   2.000
12572W        W77557  33.871  11.644   1.932
12573W        W77558   5.697  25.420  14.013
12574W        W77559  28.181  32.477  14.840
12575W        W77560  33.925  28.020   3.354
12576W        W77561  43.535  37.810  12.495
12577W        W77562   2.743  12.454   4.929
12578W        W77563   7.297   4.840  13.819
12579W        W77564  26.134  25.620  11.493
12580W        W77565   9.152  35.448   3.556
12581W        W77566  22.006   6.189  14.995
12582W        W77567   3.430  18.204   3.891
12583W        W77568  13.910  43.729   3.242
12584W        W77569  33.071   6.997   3.770
12585W        W77570   4.821  30.924  11.480
12586W        W77571  21.213  17.094   3.780
12587W        W77572  22.811  20.578  13.115
12588W        W77573  21.228  17.684  14.256
12589W        W77574   1.734  29.189   4.835
12590W        W77575  36.085  41.199  13.917
12591W        W77576  23.656  20.834  13.768
12592W        W77577  43.512   8.816   3.743
12593W        W77578  25.323   5.011  11.205
12594W        W77579   1.220  11.381   3.977
12595W        W77580  32.561  27.183   4.213
12596W        W77581  41.970  32.452   5.580
12597W        W77582  30.199  37.598   2.671
12598W        W77583  27.846  15.717  12.544
12599W        W77584  17.434  38.896  10.671
12600W        W77585  36.883  29.765  11.581
12601W        W77586  44.531   2.291   0.394
12602W        W77587   6.121  21.974  11.492
12603W        W77588   8.340  37.870   1.984
12604W        W77589  10.354  35.742  13.887
12605W        W77590   9.468  32.942   4.484
12606W        W77591  38.805  24.986  12.622
12607W        W77592  14.129  11.368  11.175
12608W        W77593  41.485  32.697   4.725
12609W        W77594  19.094  39.826   4.748
12610W        W77595  25.500  14.359   2.850
12611W        W77596  38.506  21.822  12.837
12612W        W77597  19.020  22.916  13.386
12613W        W77598  39.653   4.868  13.440
12614W        W77599  37.167  17.587  13.318
12615W        W77600  41.834  28.268  10.172
12616W        W77601  11.410   8.585   3.800
12617W        W77602   2.004  25.612  11.688
12618W        W77603  13.223  19.509  12.957
12619W        W77604  29.368   5.870   0.442
12620W        W77605  25.999   0.602  10.664
12621W        W77606  41.736   4.466  10.748
12622W        W77607   5.391  10.248  11.144
12623W        W77608  23.641   9.103   0.782
12624W        W77609  14.222  15.144   1.444
12625W        W77610  42.237  31.373   4.708
12626W        W77611  24.960   0.533  14.377
12627W        W77612  23.818  40.933  14.711
12628W        W77613  28.225  21.434   4.166
12629W        W77614  35.079  38.597   0.935
12630W        W77615  22.275  17.099  10.469
12631W        W77616  25.680  42.789  13.509
12632W        W77617   3.348  25.652  13.880
12633W        W77618   4.283  13.540   0.855
12634W        W77619  26.684   4.259  12.853
12635W        W77620  34.242   0.441   1.112
12636W        W77621  39.411  34.101   4.285
12637W        W77622  28.918  28.176  14.812
12638W        W77623  12.738   8.228  12.193
12639W        W77624   3.432   9.003  11.763
12640W        W77625   2.579   0.246   0.730
12641W        W77626  23.572  29.717   3.310
12642W        W77627  26.033  24.209   0.076
12643W        W77628  27.710  12.750  10.941
12644W        W77629  11.110  35.377  14.420
12645W        W77630  12.678  20.266  13.007
12646W        W77631   0.999   1.891   2.718
12647W        W77632  11.434  43.992  11.700
12648W        W77633  33.279   5.464   4.288
12649W        W77634   4.629   9.599  14.021
12650W        W77635  15.670  25.666  14.792
12651W        W77636   9.851  44.261  11.086
12652W        W77637  17.745  41.529   0.907
12653W        W77638   0.980  39.846  12.470
12654W        W77639   7.355  39.948   1.838
12655W        W77640  24.643   5.479  11.599
12656W        W77641  20.303   5.270   3.329
12657W        W77642  12.210  40.082   0.761
12658W        W77643  25.881  38.444   4.239
12659W        W77644   9.158  31.653   2.275
12660W        W77645  15.736  11.623  14.778
12661W        W77646  32.745  38.154  13.794
12662W        W77647  34.059  23.652  13.405
12663W        W77648   8.640  36.106  13.099
12664W        W77649  39.769  17.277   9.883
12665W        W77650  22.797  26.667   1.864
12666W        W77651  21.987  29.303   4.773
12667W        W77652  22.012  16.694   0.330
12668W        W77653   2.412  40.549  12.637
12669W        W77654  26.598  10.878   4.512
12670W        W77655  24.997  31.940   3.325
12671W        W77656   4.547  29.188  11.936
12672W        W77657  33.897   4.276  10.620
12673W        W77658  18.213  41.670  12.454
12674W        W77659  44.560  37.904  13.419
12675W        W77660  44.487  29.188   1.380
12676W        W77661  42.781  44.988   4.069
12677W        W77662  12.372  28.717   0.241
12678W        W77663  18.251  42.274   1.708
12679W        W77664   6.354  37.095   0.881
12680W        W77665   4.172  23.685  12.069
12681W        W77666   7.670  25.053   1.875
12682W        W77667  31.607  37.549   0.746
12683W        W77668  23.045  38.115  11.975
12684W        W77669  43.942  35.230  12.084
12685W        W77670  38.578  24.225   3.654
12686W        W77671  22.118  30.057   0.637
12687W        W77672   1.273  31.934   2.820
12688W        W77673   9.166   9.271  11.499
12689W        W77674  19.025  23.209   0.342
12690W        W77675  23.507  24.489  13.710
12691W        W77676  14.172   8.279   2.444
12692W        W77677  37.318   3.345   0.334
12693W        W77678  38.949   7.242   0.146
12694W        W77679   2.445  44.093  10.233
12695W        W77680  39.991  36.648   1.437
12696W        W77681   9.895   3.449  11.229
12697W        W77682  37.306  20.296  13.301
12698W        W77683  22.551  23.000   0.834
12699W        W77684  13.360  42.828   4.114
12700W        W77685  13.653  11.895  14.879
12701W        W77686  18.304  39.362   1.320
12702W        W77687  31.520  10.853  13.824
12703W        W77688  39.685  22.763   3.682
12704W        W77689  16.050   7.265   2.081
12705W        W77690  30.539   5.570   1.754
12706W        W77691  10.677  16.270   2.670
12707W        W77692  27.304  27.122  12.474
12708W        W77693  24.587  44.804  13.876
12709W        W77694  32.309   2.251  13.963
12710W        W77695  35.427  10.613  11.681
12711W        W77696  24.602  35.610  12.918
12712W        W77697  23.680   3.400  10.189
12713W        W77698  41.986  15.503   0.999
12714W        W77699  21.654   4.644  14.991
12715W        W77700  44.547   7.844  14.824
12716W        W77701   8.146  24.684   4.861
12717W        W77702  42.004  22.639  13.843
12718W        W77703  44.005  39.375   0.740
12719W        W77704  41.905  10.388  14.942
12720W        W77705  16.356  16.503  12.446
12721W        W77706   1.631  20.772   2.554
12722W        W77707  30.726  40.902   3.303
12723W        W77708   4.829  26.903   5.030
12724W        W77709   2.582  40.638   0.486
12725W        W77710  16.545  44.828   3.265
12726W        W77711  32.362  34.592  14.901
12727W        W77712  10.335  29.669  14.056
12728W        W77713   3.714   8.382   1.106
12729W        W77714  33.402   9.270   1.632
12730W        W77715   3.231   1.460   3.269
12731W        W77716  22.045  16.607  10.397
12732W        W77717   6.781   1.693   3.818
12733W        W77718  14.369   2.793  14.407
12734W        W77719  26.077  19.081  11.640
12735W        W77720   0.790  26.493  10.996
12736W        W77721   7.691   9.435  11.548
12737W        W77722   8.824  32.663  11.866
12738W        W77723   2.404   6.267  11.996
12739W        W77724  35.209   0.396  12.063
12740W        W77725   1.471  44.371   1.918
12741W        W77726  10.398   2.467  13.443
12742W        W77727   3.393  20.198  10.713
12743W        W77728  17.548  42.160  10.470
12744W        W77729  26.688  17.616   3.510
12745W        W77730  21.171  29.365   3.320
12746W        W77731  12.206  21.232   1.400
12747W        W77732  42.420  34.334  14.411
12748W        W77733   3.357   3.786   0.979
12749W        W77734   8.994  34.103  13.481
12750W        W77735  23.546  18.661   9.646
12751W        W77736  26.765  21.612  13.201
12752W        W77737  21.742  21.036   3.430
12753W        W77738  41.026  29.347  13.783
12754W        W77739   4.669  13.720   9.800
12755W        W77740  13.880  19.542  11.049
12756W        W77741  14.585  37.117   2.319
12757W        W77742  14.655  42.951   1.550
12758W        W77743  24.674  18.278  10.987
12759W        W77744  20.059  33.647  12.503
12760W        W77745  11.211  40.854   2.383
12761W        W77746  16.184  15.149  11.519
12762W        W77747   3.216   7.041   0.728
12763W        W77748   0.796  17.766   3.189
12764W        W77749  42.722   2.439  13.275
12765W        W77750   4.949   1.912  11.993
12766W        W77751  15.173  12.830   3.220
12767W        W77752  17.712  28.093  11.527
12768W        W77753  43.418  25.178  12.068
12769W        W77754  42.413  38.607  11.620
12770W        W77755  38.528  26.029  14.018
12771W        W77756  37.863  24.861   3.328
12772W        W77757   0.064  17.808  13.386
12773W        W77758  12.342  12.318   0.473
12774W        W77759  13.050  16.570   0.474
12775W        W77760  20.389   9.608  14.871
12776W        W77761   4.215  10.714   1.911
12777W        W77762  21.337  15.513  13.065
12778W        W77763  42.400   0.079   4.457
12779W        W77764  14.627  27.554   2.743
12780W        W77765  37.882  32.103   0.967
12781W        W77766  24.682  38.477   2.110
12782W        W77767  20.671  25.680   4.954
12783W        W77768   7.814  16.073   0.650
12784W        W77769  28.727   1.805   2.803
12785W        W77770  41.292   5.422  14.399
12786W        W77771   0.598  34.931   0.075
12787W        W77772  44.250  24.102   1.173
12788W        W77773  15.223  19.857  11.057
12789W        W77774   1.949   0.018   3.526
12790W        W77775  24.445   2.501  12.903
12791W        W77776   9.339  36.538  14.564
12792W        W77777  43.896  24.494   1.121
12793W        W77778  15.291  18.509   1.391
12794W        W77779  27.427  13.340   0.250
12795W        W77780  25.101  10.248  13.344
12796W        W77781   6.928  17.988  11.185
12797W        W77782  43.034  25.032  11.076
12798W        W77783  32.583  34.864   0.379
12799W        W77784  17.819  10.074   5.046
12800W        W77785  17.653  31.139  13.498
12801W        W77786  33.515  43.048  14.745
12802W        W77787   8.754  27.872  10.192
12803W        W77788  13.575  20.012  14.746
12804W        W77789  17.209  39.070  14.448
12805W        W77790  13.237  16.990  10.801
12806W        W77791  39.324  16.146  14.591
12807W        W77792   2.389  29.579   3.685
12808W        W77793  21.535  27.926   0.797
12809W        W77794  32.392  43.800  14.914
12810W        W77795  12.500  32.541  14.304
12811W        W77796   0.525  28.745  13.966
12812W        W77797  15.740  22.721  14.018
12813W        W77798  37.386  42.976  10.732
12814W        W77799  39.545  24.493  14.529
12815W        W77800   3.655  33.565  14.759
12816W        W77801   8.922   6.415  10.634
12817W        W77802  30.462  16.811  12.026
12818W        W77803  31.766  26.693   1.436
12819W        W77804   9.572  21.620   2.693
12820W        W77805  11.886  15.577   1.353
12821W        W77806  31.876  39.314   0.655
12822W        W77807  34.253  21.900   4.619
12823W        W77808  27.500  13.420   1.617
12824W        W77809  42.912   6.461   1.391
12825W        W77810  42.366  41.938   2.870
12826W        W77811  38.517   3.149  13.007
12827W        W77812  11.900  30.111   1.677
12828W        W77813  32.002  10.714  13.611
12829W        W77814  41.723  11.130  13.342
12830W        W77815  10.835  18.490   1.248
12831W        W77816   7.070  41.480  10.975
12832W        W77817  32.488  22.040  13.903
12833W        W77818  27.213  25.561   1.754
12834W        W77819  17.251  29.448  14.768
12835W        W77820  24.929  33.775   3.619
12836W        W77821   0.786  42.553   1.469
12837W        W77822  21.797  29.638   0.877
12838W        W77823  25.672  42.812  12.469
12839W        W77824  16.597  13.767   1.119
12840W        W77825  40.910  29.479   4.624
12841W        W77826  17.654  34.686   2.743
12842W        W77827  29.436  22.590   4.635
12843W        W77828  24.080   7.441   2.336
12844W        W77829  21.146  14.951   4.150
12845W        W77830  36.830  12.939  12.391
12846W        W77831  15.748  40.108   4.436
12847W        W77832  31.881  29.639   1.736
12848W        W77833  43.408   4.240   4.227
12849W        W77834   7.622  15.339  14.085
12850W        W77835  25.638   4.019   0.809
12851W        W77836  44.252   4.285  10.783
12852W        W77837  35.968  17.290  12.875
12853W        W77838   0.036  26.514   1.527
12854W        W77839  30.429  34.973   0.793
12855W        W77840  29.994   3.773  14.519
12856W        W77841  43.187  24.424  10.275
12857W        W77842  31.034  24.019  10.054
12858W        W77843  36.221  18.826   9.927
12859W        W77844   4.664   8.337  10.354
12860W        W77845  36.641  37.874  14.863
12861W        W77846  17.565  27.356   2.757
12862W        W77847  36.855   2.457   0.809
12863W        W77848  12.063  17.321  11.579
12864W        W77849   1.519   2.997  10.711
12865W        W77850  35.600  17.589   1.276
12866W        W77851   6.168  26.520  13.898
12867W        W77852  21.992   3.486  13.133
12868W        W77853  34.120   9.787  12.066
12869W        W77854  37.404  20.751   4.692
12870W        W77855  12.199  24.983   1.291
12871W        W77856  29.066  33.330   4.513
12872W        W77857   8.087  28.627   4.570
12873W        W77858  40.895  44.518   1.836
12874W        W77859  26.824  41.925  13.891
12875W        W77860  35.437   5.141   1.672
12876W        W77861  24.059  30.332  11.442
12877W        W77862  35.694   3.009  13.329
12878W        W77863   1.247  13.566   1.331
12879W        W77864  24.387  15.055  13.162
12880W        W77865   5.097  11.446   2.737
12881W        W77866  30.572  32.185   1.651
12882W        W77867  19.739  13.617   1.270
12883W        W77868  14.474  10.313   2.014
12884W        W77869  22.469   8.828  14.454
12885W        W77870   7.634  22.684  12.045
12886W        W77871  41.270  40.181  12.071
12887W        W77872  18.897  24.857   5.004
12888W        W77873   9.273  19.137   0.798
12889W        W77874  28.937  33.640   3.125
12890W        W77875  19.049  13.263  11.461
12891W        W77876   5.917  30.648  12.505
12892W        W77877  36.559   4.014  12.428
12893W        W77878   5.703  22.213   4.194
12894W        W77879  29.123  34.395   0.339
12895W        W77880  27.675  31.144  12.958
12896W        W77881   2.208  27.960  12.422
12897W        W77882  37.834   1.443  13.963
12898W        W77883  37.635   9.644  14.867
12899W        W77884  19.554  22.642  13.943
12900W        W77885   0.707  40.039  12.083
12901W        W77886  32.565  25.496   2.294
12902W        W77887  20.655  40.327  12.388
12903W        W77888  37.599  16.231  12.942
12904W        W77889   8.764  42.249   4.611
12905W        W77890  42.964  33.336  12.957
12906W        W77891  37.364   9.288  13.977
12907W        W77892  41.495   5.158  14.006
12908W        W77893  33.768  38.112   4.115
12909W        W77894  13.740  34.739   1.189
12910W        W77895  33.980  43.829  11.604
12911W        W77896   9.865  19.016   2.310
12912W        W77897  27.149  35.062  12.588
12913W        W77898  27.120  20.655  13.031
12914W        W77899  19.890  10.756  11.706
12915W        W77900  38.428  10.224   3.770
12916W        W77901  19.072  16.009  11.227
12917W        W77902   1.993  42.734   1.225
12918W        W77903   0.307  33.742  11.395
12919W        W77904  43.249  40.264  13.219
12920W        W77905  23.707  38.477  12.568
12921W        W77906  12.587  15.144   1.005
12922W        W77907  18.123   8.806   2.290
12923W        W77908  16.679  40.330  11.543
12924W        W77909   0.932  27.346  10.070
12925W        W77910   1.791  12.100   0.406
12926W        W77911  37.856  41.464   2.555
12927W        W77912  14.633  31.338  12.729
12928W        W77913  36.372   1.177  14.975
12929W        W77914  13.158  12.805   2.263
12930W        W77915   0.898  19.010   2.803
12931W        W77916  16.843  20.380  14.787
12932W        W77917  19.809  12.044  14.753
12933W        W77918  42.011  11.860  10.157
12934W        W77919   9.862  25.706   0.898
12935W        W77920  32.933  20.492  13.524
12936W        W77921  20.661  35.531  13.918
12937W        W77922  16.104  38.426  14.760
12938W        W77923  13.783  31.388  11.620
12939W        W77924  18.334  30.829  12.245
12940W        W77925  11.408  29.947  11.670
12941W        W77926   4.327  34.991   0.743
12942W        W77927  27.817   7.851  10.243
12943W        W77928  33.360  36.387   1.436
12944W        W77929  18.231  17.266   0.887
12945W        W77930  21.692  25.889   2.821
12946W        W77931  33.577  11.435   4.046
12947W        W77932  29.047  14.566   3.382
12948W        W77933   7.436   4.028  14.447
12949W        W77934  11.740  21.568  10.953
12950W        W77935  34.558  31.513   3.184
12951W        W77936  16.374  42.810   4.224
12952W        W77937  24.933  28.572   3.044
12953W        W77938   0.292  29.051  13.557
12954W        W77939   9.927  10.625   3.210
12955W        W77940   3.719  35.576  12.891
12956W        W77941   7.136   7.602   9.689
12957W        W77942  20.496  37.065   4.260
12958W        W77943  27.998  11.359  12.510
12959W        W77944  35.217  29.565   2.890
12960W        W77945   1.649  16.205  10.381
12961W        W77946   5.543  26.912  11.164
12962W        W77947  41.041   6.286   0.425
12963W        W77948   1.835  41.285  10.459
12964W        W77949  11.824  14.254   4.856
12965W        W77950   0.536  21.933   4.210
12966W        W77951  32.711  12.374   1.247
12967W        W77952  21.003  22.295   1.229
12968W        W77953  28.518  35.139   0.183
12969W        W77954  41.632  20.002   2.747
12970W        W77955  24.600  20.936   1.860
12971W        W77956  25.088  36.498  14.828
12972W        W77957  34.719  32.531   1.317
12973W        W77958  25.632  13.676   0.805
12974W        W77959   7.661  43.178   1.935
12975W        W77960  36.648  29.967  11.169
12976W        W77961   4.759  18.076   3.286
12977W        W77962  31.815  25.559   0.808
12978W        W77963  26.261  11.034  14.320
12979W        W77964  41.814  14.537  12.016
12980W        W77965  25.024   3.317  10.733
12981W        W77966   7.396   4.677   0.767
12982W        W77967  29.912  36.938  11.488
12983W        W77968   2.700  12.652   3.173
12984W        W77969   7.870  10.846  10.153
12985W        W77970   8.803  41.407  12.482
12986W        W77971   1.866  39.982  14.512
12987W        W77972  40.798  23.587   9.797
12988W        W77973  40.996   6.371  14.398
12989W        W77974  40.979  38.096   1.924
12990W        W77975  20.350   9.891   2.407
12991W        W77976   7.769  24.015   1.877
12992W        W77977  24.534  10.158  10.752
12993W        W77978   6.464  22.993  13.334
12994W        W77979   0.408  39.812   1.826
12995W        W77980   4.437   3.965   2.319
12996W        W77981  24.278   0.390  10.836
12997W        W77982  20.064  11.153  12.961
12998W        W77983  32.727   4.784  11.711
12999W        W77984  17.788   9.886  13.909
13000W        W77985   0.840  42.820   1.939
13001W        W77986  10.675  18.304  12.809
13002W        W77987  16.249  22.798   3.345
13003W        W77988   0.898  30.573  13.075
13004W        W77989  28.090  27.359  13.563
13005W        W77990  31.461  37.396   3.850
13006W        W77991  11.668   9.761  11.192
13007W        W77992  19.804  10.810  14.282
13008W        W77993   1.875   4.270   4.517
13009W        W77994  20.827  25.270   4.158
13010W        W77995  12.311  36.892  10.740
13011W        W77996  32.635  38.813   0.372
13012W        W77997  25.974   3.886  13.927
13013W        W77998  19.643  34.429  14.057
13014W        W77999  42.909  31.966  14.022
13015W        W78000  27.310   5.842  10.291
13016W        W78001   8.172   6.984  13.943
13017W        W78002  30.621  14.165   2.486
13018W        W78003  24.864  40.822  11.164
13019W        W78004   1.086  24.635  14.852
13020W        W78005  21.595  37.214  14.190
13021W        W78006   4.973  37.456  11.164
13022W        W78007   4.388   1.299  13.456
13023W        W78008  40.033  26.781  12.426
13024W        W78009   0.564  12.085   3.884
13025W        W78010  20.278  19.505   2.255
13026W        W78011  34.000  18.041   1.369
13027W        W78012  30.389  32.021  11.571
13028W        W78013  30.953   2.105  13.104
13029W        W78014  25.933  35.395   3.745
13030W        W78015  14.832  28.617   1.223
13031W        W78016   9.194  27.542  11.975
13032W        W78017  15.061  15.219   1.745
13033W        W78018  27.985  28.475  13.033
13034W        W78019  39.099  42.028  13.453
13035W        W78020  31.821  31.464   1.760
13036W        W78021  42.939  34.396  11.226
13037W        W78022  29.877  44.964   2.936
13038W        W78023   2.900  10.848  10.747
13039W        W78024  39.998  33.792   3.668
13040W        W78025   8.177  29.586  13.288
13041W        W78026  38.561  12.354  11.610
13042W        W78027  16.835  23.529  11.089
13043W        W78028  42.529  44.286  13.040
13044W        W78029  25.128  14.777  13.091
13045W        W78030  42.809  11.787   2.285
13046W        W78031   6.826  42.848  11.628
13047W        W78032   6.389  35.860  13.456
13048W        W78033   4.269  43.556   3.640
13049W        W78034  43.999  44.824   2.411
13050W        W78035  21.039  42.337   1.112
13051W        W78036  25.762  25.108  14.973
13052W        W78037  20.633  42.888  12.589
13053W        W78038   7.161  39.935  10.691
13054W        W78039  32.696   9.192  13.589
13055W        W78040  24.231  17.360   3.756
13056W        W78041  12.770  31.643   4.830
13057W        W78042  28.626  14.050  13.167
13058W        W78043  39.810  15.553  12.415
13059W        W78044  26.554  24.663  13.000
13060W        W78045   6.106  31.037   3.385
13061W        W78046   8.910  12.135   2.912
13062W        W78047  16.060  32.122  10.846
13063W        W78048  23.509  31.373  14.169
13064W        W78049  35.835  20.437  11.872
13065W        W78050  14.625  19.999  12.232
13066W        W78051  12.064   7.248  13.823
13067W        W78052  42.880  40.968  13.775
13068W        W78053   1.103   8.710   4.944
13069W        W78054  30.002  13.255   2.111
13070W        W78055  18.998  23.763   9.840
13071W        W78056   6.462  40.091  11.591
13072W        W78057  17.723  35.816   4.152
13073W        W78058  43.316  20.930   3.031
13074W        W78059  29.984  40.361  13.022
13075W        W78060  41.441  26.679   4.815
13076W        W78061  43.059  39.201  11.591
13077W        W78062  36.815  25.705   1.756
13078W        W78063   1.294  22.238  10.779
13079W        W78064  26.503  27.658   3.735
13080W        W78065  36.001  41.470   0.283
13081W        W78066  38.117  42.130  14.469
13082W        W78067  24.367  16.706  12.101
13083W        W78068   7.971  41.878   3.131
13084W        W78069  17.451  21.679  12.448
13085W        W78070  41.926  12.692   0.314
13086W        W78071   5.930  15.146   4.148
13087W        W78072  32.361  25.313  14.034
13088W        W78073  16.625  22.552  13.500
13089W        W78074  36.918  24.513  11.836
13090W        W78075  38.321  40.978   0.148
13091W        W78076   7.395   9.873   2.922
13092W        W78077  32.981  22.616   4.790
13093W        W78078  14.830  12.600  10.881
13094W        W78079  24.988  19.688  14.105
13095W        W78080  25.527   9.318   0.583
13096W        W78081  16.210  38.021  11.461
13097W        W78082  25.324  44.386  12.399
13098W        W78083  27.830  11.310  12.018
13099W        W78084  12.584  32.032   4.499
13100W        W78085  25.674   9.106   0.127
13101W        W78086   3.419   4.482   4.101
13102W        W78087  25.745   0.803   1.120
13103W        W78088  37.368  21.834  10.264
13104W        W78089  30.413  26.589   3.672
13105W        W78090   2.985  21.580  10.633
13106W        W78091  19.101  19.100  13.072
13107W        W78092  12.355  16.411   3.244
13108W        W78093  29.931   4.198   2.686
13109W        W78094   9.092  21.399  13.089
13110W        W78095   6.288  23.004   3.142
13111W        W78096  39.834  36.506  12.636
13112W        W78097  39.262  38.475  14.004
13113W        W78098  35.496  24.136   3.580
13114W        W78099  27.629  27.249   0.728
13115W        W78100  34.259  38.973  12.063
13116W        W78101  38.397  30.429  10.497
13117W        W78102  35.319   0.394   2.765
13118W        W78103  29.580  39.056   0.565
13119W        W78104  34.085  13.407   1.881
13120W        W78105   8.303  28.665  13.621
13121W        W78106  13.354  38.066  10.699
13122W        W78107  44.332  34.427  12.083
13123W        W78108   1.741  26.376   0.791
13124W        W78109  37.009  25.885   4.732
13125W        W78110  27.538  17.502   2.382
13126W        W78111  25.326  16.177   3.780
13127W        W78112  32.121   0.430  13.004
13128W        W78113  42.829  29.711   3.748
13129W        W78114  23.138   6.015   1.253
13130W        W78115  21.467  23.641   2.491
13131W        W78116  30.509   7.300   1.609
13132W        W78117   5.426  35.841   0.025
13133W        W78118  44.081  37.809  12.485
13134W        W78119  28.308  17.137   4.090
13135W        W78120   6.718  15.534  13.994
13136W        W78121  38.795   7.717   4.222
13137W        W78122   9.110  37.728  10.700
13138W        W78123   5.861  41.131   2.355
13139W        W78124  36.929  32.635   0.006
13140W        W78125  22.257  24.892  12.841
13141W        W78126  29.029  10.299  14.535
13142W        W78127  18.685   6.880  10.391
13143W        W78128  32.339  24.117   2.382
13144W        W78129  29.850  19.159   2.620
13145W        W78130   7.939  31.594  12.550
13146W        W78131  21.345  37.114  13.220
13147W        W78132  15.219  36.281   0.480
13148W        W78133  32.477  12.764  10.685
13149W        W78134  12.235  35.263  14.973
13150W        W78135   0.348  25.352  13.033
13151W        W78136  13.000  34.959   5.132
13152W        W78137  14.158  18.277   3.276
13153W        W78138   2.840   6.635  14.317
13154W        W78139  40.308  11.125   4.696
13155W        W78140  36.979  19.975   1.303
13156W        W78141  18.916  33.649  13.937
13157W        W78142   0.680  23.934  14.428
13158W        W78143   3.234  41.103  10.462
13159W        W78144  12.707  44.448   0.861
13160W        W78145  13.272   3.557   3.189
13161W        W78146  32.396  10.784  13.959
13162W        W78147  31.922   6.267  12.642
13163W        W78148  29.439  23.554  12.434
13164W        W78149  35.027  28.870   3.224
13165W        W78150  10.416  28.604  11.152
13166W        W78151  20.072   1.841  12.062
13167W        W78152  18.756  33.649  11.104
13168W        W78153  24.425  23.871   0.779
13169W        W78154  19.665  36.362   0.345
13170W        W78155   1.744  17.891   1.274
13171W        W78156   4.139  25.126  11.484
13172W        W78157  40.874  23.230  10.136
13173W        W78158  39.539  31.795   2.342
13174W        W78159  38.856   1.521  11.568
13175W        W78160  27.103  27.681   1.223
13176W        W78161   9.961   9.875  14.958
13177W        W78162  42.270  38.128   1.450
13178W        W78163  13.793  41.279   4.878
13179W        W78164  12.231  24.492   1.072
13180W        W78165  17.188  26.726   4.369
13181W        W78166  19.043   6.628  12.659
13182W        W78167  19.199  44.285  12.901
13183W        W78168  29.481   4.313   3.982
13184W        W78169  44.671  30.719   1.875
13185W        W78170  13.600   2.484  13.348
13186W        W78171   6.464  14.670   2.821
13187W        W78172   4.440   9.801   2.072
13188W        W78173  25.695  36.505   4.752
13189W        W78174  16.116  31.699   4.095
13190W        W78175  18.715  22.546  12.125
13191W        W78176   3.217  21.794   0.710
13192W        W78177  30.345  18.113   3.751
13193W        W78178  44.798  44.546   1.246
13194W        W78179  18.342  17.849   1.843
13195W        W78180  43.497   7.876   1.499
13196W        W78181  13.040  31.836  14.043
13197W        W78182   0.987  14.205  11.730
13198W        W78183  20.004   4.728   0.847
13199W        W78184   6.364  29.596  13.443
13200W        W78185  25.841  42.074   3.987
13201W        W78186  18.140  31.131  10.783
13202W        W78187  26.050  16.938   4.361
13203W        W78188   6.927   1.093   1.293
13204W        W78189  35.001  16.862  11.490
13205W        W78190  44.649   5.827  11.182
13206W        W78191  14.787   5.813  13.454
13207W        W78192   5.975  18.928  11.764
13208W        W78193   5.316  39.160  12.745
13209W        W78194   9.542   3.027   2.854
13210W        W78195  30.442  23.074  11.603
13211W        W78196   9.757  25.206   1.787
13212W        W78197  23.620  35.586   4.046
13213W        W78198  15.879   9.158   0.748
13214W        W78199  35.140  40.396  12.974
13215W        W78200   0.544  29.591  14.617
13216W        W78201  22.604   0.667  12.044
13217W        W78202  33.687   6.014   5.170
13218W        W78203  19.225  32.037  13.504
13219W        W78204  34.066  41.827  13.727
13220W        W78205  28.023   0.280  10.618
13221W        W78206  11.878   5.695  10.201
13222W        W78207  32.390   4.710  11.322
13223W        W78208  33.934  27.698  12.498
13224W        W78209  38.243  21.980  12.368
13225W        W78210  22.246  13.064  12.595
13226W        W78211  21.953  12.846   4.161
13227W        W78212   5.399  44.284  10.997
13228W        W78213  12.556  24.051   2.841
13229W        W78214  30.187   1.532   5.544
13230W        W78215  40.196   9.663  13.019
13231W        W78216  25.745   7.364   2.823
13232W        W78217  28.095  41.058   0.768
13233W        W78218  32.002  33.589  11.218
13234W        W78219   7.411  11.762  12.991
13235W        W78220  40.216  23.680  11.072
13236W        W78221  33.475  17.221  11.624
13237W        W78222   5.365  33.852   1.883
13238W        W78223  11.103  25.587   4.476
13239W        W78224  26.643  13.381  10.612
13240W        W78225  14.295  30.458  14.304
13241W        W78226  39.919   0.323   1.744
13242W        W78227  40.437  27.138  10.607
13243W        W78228  12.160  21.244   3.870
13244W        W78229  16.838  20.913  13.980
13245W        W78230  35.418   4.250  13.354
13246W        W78231   7.126  25.983   3.614
13247W        W78232   3.129  41.427   2.067
13248W        W78233  11.687  41.052   2.325
13249W        W78234  15.703  19.342   0.324
13250W        W78235  40.337  12.928   0.479
13251W        W78236  36.941  23.227  14.750
13252W        W78237  15.635  25.626   1.218
13253W        W78238  25.617  38.733  13.035
13254W        W78239  37.623   9.720   4.570
13255W        W78240  22.377  31.110   2.746
13256W        W78241  42.411  20.269   4.147
13257W        W78242   4.628  15.799  13.464
13258W        W78243   1.863   8.399  12.583
13259W        W78244  28.624   5.319   4.196
13260W        W78245  16.037  26.477   0.362
13261W        W78246  24.825  31.547   3.035
13262W        W78247   2.040  42.672   4.101
13263W        W78248   3.638  28.597  14.842
13264W        W78249  24.552  40.017  14.385
13265W        W78250  23.488  43.223  13.842
13266W        W78251   0.343  17.362  10.636
13267W        W78252  44.910   4.335   2.106
13268W        W78253  23.175   0.674   3.601
13269W        W78254  13.755  44.976   2.393
13270W        W78255  28.660  38.413  13.528
13271W        W78256  38.538   7.263   4.252
13272W        W78257  30.475  24.240   2.600
13273W        W78258  23.675  23.743   3.583
13274W        W78259  26.478  29.888   3.788
13275W        W78260  35.389  17.673   0.387
13276W        W78261  24.481  42.889   0.844
13277W        W78262  28.246  19.558  11.161
13278W        W78263  36.392  18.913   1.699
13279W        W78264  17.729  32.360   1.465
13280W        W78265   6.838  17.661  12.589
13281W        W78266  38.988   3.868   5.017
13282W        W78267  22.305  11.348   2.749
13283W        W78268  10.916  24.655   1.851
13284W        W78269  10.140  38.572  12.242
13285W        W78270  26.510  29.155  10.740
13286W        W78271  42.533  31.527  13.580
13287W        W78272  35.884  29.289  12.510
13288W        W78273  44.898   0.340  10.950
13289W        W78274  23.189   5.387  13.767
13290W        W78275  15.653   3.347   4.609
13291W        W78276  21.725   8.849   4.540
13292W        W78277  22.568  43.901   2.430
13293W        W78278   3.218   5.278   4.546
13294W        W78279  14.373   4.032   1.281
13295W        W78280  23.210   8.798   3.562
13296W        W78281  28.953  13.761  14.836
13297W        W78282  31.609  42.330   2.279
13298W        W78283  33.658  13.378  10.209
13299W        W78284   3.647  33.488   4.132
13300W        W78285  39.080  18.165  10.575
13301W        W78286  11.163  37.297  14.286
13302W        W78287  25.919  28.482   4.340
13303W        W78288  23.038  15.260   4.077
13304W        W78289  40.055  32.568  10.674
13305W        W78290  12.306  38.118  14.541
13306W        W78291  13.415  28.063   3.743
13307W        W78292  33.188  28.613   0.361
13308W        W78293   9.133  44.319  13.813
13309W        W78294  42.449  44.863   1.030
13310W        W78295  12.264  13.184  14.834
13311W        W78296  27.212   2.756   1.616
13312W        W78297  21.584  15.547   0.888
13313W        W78298  31.168  29.030   2.733
13314W        W78299   6.370  33.595  11.338
13315W        W78300   2.313  21.283  11.152
13316W        W78301  37.103   1.939  13.338
13317W        W78302  14.980  32.480   0.675
13318W        W78303  18.212  41.269   3.910
13319W        W78304   8.666  31.494   2.086
13320W        W78305  29.317  42.990  14.464
13321W        W78306  14.755  17.318   1.416
13322W        W78307  23.030  42.738  14.272
13323W        W78308  28.171  25.999   0.624
13324W        W78309  17.577  14.120  11.982
13325W        W78310  17.997  41.282  11.097
13326W        W78311  32.979  23.519  14.412
13327W        W78312  27.988   4.213   5.067
13328W        W78313  30.486  40.204   4.530
13329W        W78314  37.955  17.230  12.490
13330W        W78315  21.543  44.433   1.178
13331W        W78316   3.678   6.796  12.343
13332W        W78317  34.528  12.135  11.100
13333W        W78318  17.372  20.818   4.596
13334W        W78319  11.295   1.858   4.155
13335W        W78320  44.451  39.946   1.541
13336W        W78321  43.375  28.457   2.762
13337W        W78322  21.124  16.981  11.422
13338W        W78323  32.898  19.709  10.735
13339W        W78324  18.152  20.458  12.411
13340W        W78325  14.035   4.436  14.493
13341W        W78326  41.237  38.787   2.669
13342W        W78327   2.942  42.343   4.276
13343W        W78328   0.408  25.729   3.368
13344W        W78329  13.433  39.856  13.151
13345W        W78330  36.839   6.553   2.938
13346W        W78331   2.941  30.715   4.059
13347W        W78332  39.868  35.410   0.205
13348W        W78333  18.449  33.968  12.906
13349W        W78334   2.546  42.396  13.667
13350W        W78335   2.248  32.582   0.792
13351W        W78336  40.901   0.904  14.901
13352W        W78337  23.957  10.951  13.694
13353W        W78338   3.521  31.508  11.988
13354W        W78339  43.750  31.802   3.700
13355W        W78340  26.190  19.039   2.826
13356W        W78341  40.976  15.328  12.784
13357W        W78342  42.917  43.787  13.864
13358W        W78343  10.266  15.815   2.271
13359W        W78344  32.451  42.211   3.662
13360W        W78345   3.024  14.680  14.272
13361W        W78346  16.758  37.117  12.370
13362W        W78347  27.443  26.654   3.233
13363W        W78348  41.128  37.554  14.272
13364W        W78349  37.465   2.059  11.552
13365W        W78350   5.976   8.915  14.494
13366W        W78351  40.582   9.879   4.673
13367W        W78352  33.135  14.582   0.549
13368W        W78353  14.664   0.955   0.736
13369W        W78354  21.229   0.913  14.499
13370W        W78355   4.394  38.202   0.968
13371W        W78356  35.365  27.247   0.896
13372W        W78357  35.184   6.786  12.832
13373W        W78358  44.252  13.429   0.927
13374W        W78359  19.006  38.375  13.545
13375W        W78360  29.212  44.990   1.204
13376W        W78361  18.980  33.067   0.986
13377W        W78362   5.241  28.708   1.264
13378W        W78363  29.884  43.031   1.870
13379W        W78364  30.894  32.171  11.696
13380W        W78365  25.461  41.519  14.381
13381W        W78366  23.643   9.357   0.323
13382W        W78367  13.287  42.049   0.724
13383W        W78368  42.381  29.924  12.403
13384W        W78369  36.551  39.059   1.627
13385W        W78370  16.039  10.824  14.823
13386W        W78371   7.819  33.902  14.366
13387W        W78372   7.727  15.731  11.463
13388W        W78373  16.328  29.132   4.941
13389W        W78374  31.386  35.891   2.163
13390W        W78375  30.416  27.411  14.081
13391W        W78376  26.226  44.590  12.145
13392W        W78377  39.060  16.459  12.914
13393W        W78378  13.624   6.428  11.921
13394W        W78379  20.530  25.589   1.015
13395W        W78380   0.036  13.648  12.112
13396W        W78381  24.467  18.781   2.569
13397W        W78382   3.328  24.429  11.533
13398W        W78383   1.811  20.239  11.945
13399W        W78384  26.027  14.519   4.426
13400W        W78385  31.916  17.604  11.234
13401W        W78386   3.739   1.300  12.073
13402W        W78387  33.715   5.826   1.821
13403W        W78388  27.624  13.217  13.513
13404W        W78389  24.218  22.147  14.872
13405W        W78390   9.692  41.350   2.138
13406W        W78391  16.705  16.143  11.230
13407W        W78392  13.219  36.075   0.409
13408W        W78393  36.943   2.321  10.717
13409W        W78394  32.139   7.287   3.545
13410W        W78395   2.190  27.601  11.980
13411W        W78396  19.859  18.190  10.947
13412W        W78397  24.510  29.927  10.704
13413W        W78398   6.290  38.864  11.038
13414W        W78399  35.461   4.986  14.906
13415W        W78400  16.324  37.777   2.676
13416W        W78401  19.257   5.250   4.234
13417W        W78402  10.206   2.206  11.463
13418W        W78403  43.217   5.157   3.194
13419W        W78404  40.032  41.470  13.666
13420W        W78405   6.135  25.442  10.132
13421W        W78406  16.191  10.471   4.526
13422W        W78407  13.235  38.987   4.593
13423W        W78408  40.343  38.045   0.449
13424W        W78409  38.918   1.233  13.286
13425W        W78410  11.975   3.765  12.020
13426W        W78411   0.819  28.622   0.080
13427W        W78412  10.778   8.013   1.622
13428W        W78413   3.300  34.920   3.814
13429W        W78414  43.365  35.022  13.931
13430W        W78415   4.942   6.730  11.478
13431W        W78416  15.517   3.483  13.042
13432W        W78417  40.076   2.240  11.068
13433W        W78418  29.953   9.263  14.404
13434W        W78419  30.693  26.558   2.668
13435W        W78420  44.382  29.473   2.846
13436W        W78421   8.710  11.840  10.982
13437W        W78422  34.565  13.328   4.650
13438W        W78423  11.581  38.606  14.787
13439W        W78424  18.591  41.769  14.279
13440W        W78425  41.055  14.334   5.110
13441W        W78426  29.093  28.980   0.904
13442W        W78427  27.581  24.914   0.121
13443W        W78428  37.423   4.050  12.946
13444W        W78429   2.877  34.488  10.717
13445W        W78430  11.358  35.728  12.194
13446W        W78431  37.686  35.812  10.037
13447W        W78432  22.482  14.620  14.618
13448W        W78433  22.432  12.904  13.072
13449W        W78434  11.148  10.778   2.656
13450W        W78435  25.911   8.680  13.804
13451W        W78436  21.622  25.943  12.467
13452W        W78437  24.917  23.159   3.648
13453W        W78438  27.211  26.021   1.424
13454W        W78439  25.566  22.543   3.655
13455W        W78440  38.586  16.656   5.438
13456W        W78441  41.139   4.771   2.290
13457W        W78442  40.970  26.599  14.709
13458W        W78443  40.344   3.778  14.608
13459W        W78444  22.108  24.949   4.889
13460W        W78445  40.286   2.770  11.270
13461W        W78446  36.871  44.229  13.941
13462W        W78447  36.289  18.234   4.091
13463W        W78448  16.338  18.024  11.170
13464W        W78449  27.103   3.642  10.795
13465W        W78450  25.493  36.961   0.500
13466W        W78451   1.269  44.944   4.240
13467W        W78452  28.990  34.897   4.305
13468W        W78453  16.197  26.954   3.631
13469W        W78454  38.046  41.962   2.408
13470W        W78455   5.845   0.442  12.904
13471W        W78456  25.784  16.666  11.591
13472W        W78457  23.238  34.706  10.644
13473W        W78458  21.264  14.591   0.346
13474W        W78459  24.942   3.700   4.598
13475W        W78460   7.744  16.280  14.549
13476W        W78461  10.338  40.433   4.647
13477W        W78462   4.136  10.287  14.742
13478W        W78463  33.062   3.754   2.852
13479W        W78464  38.612   8.328   2.835
13480W        W78465  19.609   2.185   2.812
13481W        W78466  31.949   5.320  14.481
13482W        W78467  21.403  29.490   0.149
13483W        W78468  36.111   1.035  13.451
13484W        W78469  44.170  42.968  11.085
13485W        W78470  32.659  16.767   0.793
13486W        W78471  37.437  33.391   0.344
13487W        W78472  15.284  29.819   3.656
13488W        W78473  32.682  32.412  13.365
13489W        W78474   7.889  13.285   4.836
13490W        W78475  19.110   3.765   2.396
13491W        W78476  29.660  31.499   3.729
13492W        W78477   3.165  36.610  14.561
13493W        W78478   4.345  26.252  12.538
13494W        W78479  33.974   2.433  12.156
13495W        W78480  42.747  43.874   1.965
13496W        W78481   0.229  22.973  14.653
13497W        W78482  37.568  17.498  11.841
13498W        W78483  25.562   3.049   2.392
13499W        W78484  39.379  31.674  11.028
13500W        W78485  27.456  19.602   2.745
13501W        W78486  15.188  10.827   1.161
13502W        W78487   4.740   8.305  14.035
13503W        W78488  13.245  28.142  10.595
13504W        W78489  22.410  27.562   3.756
13505W        W78490   6.844  35.034  13.671
13506W        W78491  20.029  34.581   1.911
13507W        W78492  40.474  10.244  11.972
13508W        W78493   2.453  42.741   1.489
13509W        W78494  34.333  32.670   3.436
13510W        W78495   3.665   4.523  11.146
13511W        W78496  35.507  31.494  12.539
13512W        W78497  41.566  16.858   0.024
13513W        W78498  42.751  35.853  13.574
13514W        W78499  22.179  37.106  11.043
13515W        W78500  32.880  18.243   0.853
13516W        W78501  34.381  37.360   2.701
13517W        W78502  20.277  38.149  12.078
13518W        W78503  20.216  19.660   4.131
13519W        W78504   7.759  36.946  10.036
13520W        W78505  13.716   4.322  13.932
13521W        W78506   4.255  27.026  13.621
13522W        W78507  30.229  31.562   3.051
13523W        W78508  24.990  12.070   2.631
13524W        W78509  38.281  25.468  13.392
13525W        W78510  13.837  36.431   0.987
13526W        W78511  40.388  26.832   4.117
13527W        W78512   0.787   1.501   4.776
13528W        W78513  30.341  40.890   1.023
13529W        W78514  39.259   6.733  11.986
13530W        W78515  41.063  17.749  14.012
13531W        W78516  22.731  41.739  14.357
13532W        W78517   7.637  43.309  14.578
13533W        W78518  35.336  38.405   1.352
13534W        W78519  38.008  21.329  12.559
13535W        W78520  31.168  36.212  13.174
13536W        W78521  40.579   6.460   1.762
13537W        W78522   7.009  43.202   3.873
13538W        W78523   8.046   3.334  10.655
13539W        W78524   8.480  22.982   2.902
13540W        W78525  21.502  40.018   4.149
13541W        W78526  36.015  22.793  14.793
13542W        W78527   7.888   2.220   1.530
13543W        W78528  12.776  29.159   4.742
13544W        W78529  29.000  29.872   4.193
13545W        W78530  26.092  13.717  12.900
13546W        W78531  40.875  29.555  14.248
13547W        W78532  37.683  33.878   0.378
13548W        W78533  37.794  11.156  13.389
13549W        W78534  35.130  27.684  14.432
13550W        W78535   6.777  27.615  12.132
13551W        W78536  10.947   5.755   0.113
13552W        W78537  22.694  11.691   4.807
13553W        W78538  28.197  42.190  10.682
13554W        W78539   6.638  33.551  10.078
13555W        W78540  30.859  31.367   1.734
13556W        W78541  12.589   9.876   2.352
13557W        W78542   0.889  43.762   2.281
13558W        W78543  27.650  24.130  10.428
13559W        W78544  26.612  13.635   1.868
13560W        W78545  13.034  11.718  10.423
13561W        W78546  27.728   0.620   2.681
13562W        W78547  22.466  44.032   1.407
13563W        W78548  14.576  44.387  10.166
13564W        W78549  43.714  17.538   3.466
13565W        W78550  17.843  13.747  14.428
13566W        W78551  43.371   7.483   4.270
13567W        W78552  32.622  43.928  10.657
13568W        W78553  34.324  25.195  10.649
13569W        W78554  33.590  15.169  13.206
13570W        W78555  13.774  22.563  11.363
13571W        W78556  33.326  24.283   1.233
13572W        W78557  13.412  35.059  10.642
13573W        W78558  30.076  10.397   3.064
13574W        W78559  10.537   8.225   4.682
13575W        W78560   5.447  36.574   1.860
13576W        W78561   7.977  34.422   2.932
13577W        W78562  40.515  28.474   9.969
13578W        W78563  28.598  33.887   1.872
13579W        W78564   6.793  35.319  11.896
13580W        W78565  35.936  23.762  14.742
13581W        W78566  13.524  29.125  12.607
13582W        W78567  44.964  40.902  11.526
13583W        W78568  38.830  37.298   3.623
13584W        W78569  35.090  12.305  13.099
13585W        W78570  25.600  32.235   4.292
13586W        W78571  35.713  22.276   1.044
13587W        W78572  42.614  32.766   4.100
13588W        W78573  24.699  17.832  14.984
13589W        W78574  33.616  17.529   3.722
13590W        W78575  42.502  20.729  10.657
13591W        W78576   2.809  10.530  10.325
13592W        W78577  10.765  37.004  11.533
13593W        W78578  19.819  21.090   1.317
13594W        W78579  15.718  41.660  12.062
13595W        W78580  26.134  36.718   4.697
13596W        W78581  30.975  15.574  14.898
13597W        W78582  20.040  10.371  12.562
13598W        W78583  28.729  24.561   2.180
13599W        W78584  27.105  16.826   1.796
13600W        W78585  26.074  20.467  11.878
13601W        W78586  36.847   2.720   2.166
13602W        W78587  21.327  29.156  12.467
13603W        W78588   2.133  17.309  14.826
13604W        W78589   8.741  34.448   1.221
13605W        W78590  27.119  23.653   2.341
13606W        W78591   8.970   7.179  14.936
13607W        W78592  38.040  26.721  11.575
13608W        W78593  16.360  42.500   2.408
13609W        W78594  14.217  28.662  11.452
13610W        W78595  19.024  22.667  12.508
13611W        W78596   1.390  25.512  10.642
13612W        W78597  31.643  15.564   0.381
13613W        W78598  18.421  15.260  13.876
13614W        W78599  16.756  25.284  12.384
13615W        W78600  17.710  35.027   0.899
13616W        W78601  11.549  26.950  12.624
13617W        W78602  13.825  13.820  14.927
13618W        W78603  26.357  16.034   0.229
13619W        W78604   3.712  23.734  13.796
13620W        W78605   4.183  24.049  14.804
13621W        W78606  10.965  19.514   1.266
13622W        W78607  43.831  33.423  12.644
13623W        W78608  27.039  17.714  12.081
13624W        W78609  16.350  36.485   1.511
13625W        W78610   6.189  21.941   3.333
13626W        W78611   1.788  14.551  10.753
13627W        W78612  44.977  43.718   2.138
13628W        W78613  12.746  15.657   0.367
13629W        W78614   3.404  33.159  12.703
13630W        W78615  29.215  28.416  13.012
13631W        W78616   0.082   8.581   2.609
13632W        W78617  14.019  11.276  11.660
13633W        W78618  16.134   2.703   2.253
13634W        W78619  20.260  42.741  11.883
13635W        W78620  33.984   7.379   1.316
13636W        W78621  43.444  33.334   2.231
13637W        W78622  25.454   2.931   5.082
13638W        W78623  24.101  34.770   4.499
13639W        W78624   4.089  44.411  10.800
13640W        W78625  19.012  10.058  11.041
13641W        W78626  12.210  37.788  11.752
13642W        W78627   6.647  15.418   3.749
13643W        W78628  24.529  10.180   2.396
13644W        W78629  41.913  17.796  13.377
13645W        W78630  27.156  22.953   4.769
13646W        W78631  32.971  27.778   1.276
13647W        W78632  11.767  24.406  11.552
13648W        W78633  10.692  40.521  11.964
13649W        W78634   7.475  25.035  13.016
13650W        W78635  38.267  25.215  14.040
13651W        W78636  23.495  43.876  14.978
13652W        W78637  35.629  32.901   2.036
13653W        W78638  11.687  23.900  11.640
13654W        W78639  10.090  41.828  10.308
13655W        W78640  29.943  17.960  13.136
13656W        W78641  15.027  24.017   1.684
13657W        W78642  13.294  12.036  13.000
13658W        W78643  20.561  37.031  11.459
13659W        W78644  15.106  39.949   3.330
13660W        W78645  43.783  22.713  14.457
13661W        W78646  15.538  20.833   0.381
13662W        W78647  44.339  34.905   5.715
13663W        W78648  19.657  19.735  12.500
13664W        W78649  38.972  41.821   3.676
13665W        W78650   4.897  35.998  12.279
13666W        W78651  24.818  21.744   2.598
13667W        W78652   7.243  40.507  11.582
13668W        W78653  10.784  14.092   0.937
13669W        W78654   2.815   3.962   4.494
13670W        W78655  17.326   1.456  11.637
13671W        W78656   6.717   1.006   0.400
13672W        W78657  12.769  43.993  13.289
13673W        W78658  43.761  32.299  11.937
13674W        W78659  37.598  33.578  13.878
13675W        W78660  11.838  37.639  14.098
13676W        W78661  19.351  16.691  10.676
13677W        W78662  29.608  43.485  14.803
13678W        W78663  39.819   0.498  13.809
13679W        W78664  28.821  31.978   3.649
13680W        W78665   8.567  40.988  10.685
13681W        W78666  31.838   7.611   3.270
13682W        W78667   4.854  37.594  14.800
13683W        W78668  20.961   9.370  10.803
13684W        W78669  28.210  30.588  11.353
13685W        W78670  41.560  10.323  14.315
13686W        W78671  31.610  34.267   4.909
13687W        W78672  19.055  17.938   2.296
13688W        W78673   0.940  12.859   3.720
13689W        W78674   4.279  21.743   1.776
13690W        W78675  11.370  23.138   3.825
13691W        W78676  21.478  31.038   2.616
13692W        W78677   6.335   5.348  13.880
13693W        W78678   3.370  38.926   0.435
13694W        W78679   3.025  13.242  10.647
13695W        W78680  41.910   7.424  11.256
13696W        W78681  39.391  30.025   3.062
13697W        W78682  31.293  19.522  10.609
13698W        W78683  27.951  15.119   4.751
13699W        W78684  30.323  39.319  14.785
13700W        W78685   7.700   0.961   4.594
13701W        W78686  22.205   2.392  14.001
13702W        W78687  32.090  41.251  12.505
13703W        W78688  11.297  13.369   3.750
13704W        W78689  37.957  31.131  10.947
13705W        W78690   8.409  13.798   3.217
13706W        W78691  39.842  33.053   3.299
13707W        W78692  11.713  40.400  14.209
13708W        W78693  26.470   7.638   0.401
13709W        W78694   8.274  32.003   0.720
13710W        W78695  33.086  41.249   3.180
13711W        W78696   8.216  25.130   0.920
13712W        W78697  43.343   0.362  12.426
13713W        W78698  30.935  18.125  10.578
13714W        W78699  11.790  40.802  10.486
13715W        W78700   8.191   7.813  14.970
13716W        W78701  20.824   6.186   4.170
13717W        W78702  34.474   4.352  11.449
13718W        W78703  37.540  26.461  11.014
13719W        W78704  17.594  38.240   3.255
13720W        W78705  42.332  15.613  12.890
13721W        W78706  11.975  20.573  11.609
13722W        W78707  42.945  38.568   1.791
13723W        W78708   5.561  30.491  10.711
13724W        W78709  36.066  19.032  10.372
13725W        W78710  38.590  43.561   4.018
13726W        W78711  14.862   8.205  11.900
13727W        W78712  42.570   8.836   2.637
13728W        W78713  44.920   6.211   2.290
13729W        W78714   9.375  29.512   4.188
13730W        W78715  32.930  33.164   0.019
13731W        W78716   2.506  38.593  14.757
13732W        W78717  31.505   2.536  14.206
13733W        W78718  14.568  43.945  11.224
13734W        W78719  15.525  33.561   0.023
13735W        W78720  35.054   5.894  12.642
13736W        W78721  18.295  39.423   3.517
13737W        W78722  36.446  30.737  14.041
13738W        W78723  36.727  32.456   3.605
13739W        W78724  25.248  18.610   0.312
13740W        W78725  13.472  22.669   4.864
13741W        W78726   4.334  28.628  11.114
13742W        W78727  19.704   3.959  11.248
13743W        W78728  41.105  39.360   1.807
13744W        W78729  25.226  27.524   4.472
13745W        W78730   5.788   8.691   3.209
13746W        W78731   6.205  14.361   9.790
13747W        W78732  30.477   9.924  10.781
13748W        W78733  28.287  24.692  13.584
13749W        W78734   1.591   1.722  14.774
13750W        W78735  28.745  37.987   2.706
13751W        W78736  13.192  18.264  13.507
13752W        W78737  40.441  27.015   1.844
13753W        W78738  25.668   4.367  11.940
13754W        W78739   2.504   2.670  12.524
13755W        W78740   0.286  22.089   3.226
13756W        W78741  15.095  34.440  11.579
13757W        W78742  43.015  19.737  11.569
13758W        W78743   2.301  41.109   2.309
13759W        W78744  30.575   7.298  10.609
13760W        W78745  39.995  35.123   1.193
13761W        W78746  35.318  32.402  12.589
13762W        W78747  33.026   9.804   4.513
13763W        W78748  26.615  35.973   0.664
13764W        W78749  13.666  12.711   0.330
13765W        W78750  25.121  20.458   2.456
13766W        W78751  27.590  44.733   4.239
13767W        W78752  31.694  35.509  12.964
13768W        W78753   2.507  20.556   0.358
13769W        W78754  18.637  17.642   4.083
13770W        W78755  19.262  19.483  13.406
13771W        W78756   7.034  10.815   2.831
13772W        W78757  39.430   4.865   3.584
13773W        W78758  34.056   7.500  14.880
13774W        W78759  12.787  24.104  10.910
13775W        W78760  18.850  13.378  10.982
13776W        W78761  25.151  10.450  14.235
13777W        W78762  35.518  28.722   0.399
13778W        W78763  39.793  36.012   0.859
13779W        W78764  21.527  44.286  13.664
13780W        W78765  11.292  40.059  10.717
13781W        W78766   2.940  25.962   3.624
13782W        W78767  14.658  41.172  11.912
13783W        W78768  10.722  27.219  10.507
13784W        W78769  33.839  12.819   2.539
13785W        W78770  44.038  23.070  12.789
13786W        W78771  16.329  35.405   0.938
13787W        W78772  14.533   7.781  12.806
13788W        W78773   2.491  44.943  12.935
13789W        W78774  18.111  42.439   4.334
13790W        W78775  25.700  40.321   3.823
13791W        W78776  12.203  14.820  13.915
13792W        W78777  39.286   5.904  11.641
13793W        W78778  34.807   1.687   4.172
13794W        W78779  14.596  36.884   0.973
13795W        W78780   2.492   1.673   2.879
13796W        W78781  13.275  27.756   0.561
13797W        W78782   7.475   8.021   4.006
13798W        W78783  13.563  18.109   2.786
13799W        W78784  14.505   4.945   4.100
13800W        W78785  17.718   0.426  11.575
13801W        W78786   8.238  37.448   3.729
13802W        W78787   1.492   3.773   3.112
13803W        W78788  41.623  24.961   0.810
13804W        W78789   4.823  41.091  10.872
13805W        W78790   6.088  29.636  11.871
13806W        W78791  44.445  24.049  11.962
13807W        W78792  29.060  11.164   0.041
13808W        W78793  44.831  31.350   4.777
13809W        W78794   6.411  20.310  13.467
13810W        W78795  35.450  39.037   0.289
13811W        W78796  42.304  29.286   9.825
13812W        W78797  14.894  43.037   1.992
13813W        W78798  21.730   8.696  14.955
13814W        W78799  39.763   8.330  14.449
13815W        W78800  11.309  37.809  13.479
13816W        W78801  25.747  28.568   0.854
13817W        W78802  27.120  38.956  11.699
13818W        W78803   4.850  19.637  14.253
13819W        W78804  20.670   6.457  14.057
13820W        W78805   6.983  19.024   4.601
13821W        W78806   6.128  18.534   4.224
13822W        W78807   1.454  27.050   2.394
13823W        W78808  13.171  37.269  14.752
13824W        W78809   5.916  33.667   3.733
13825W        W78810  30.180  24.135   1.906
13826W        W78811   1.218  10.621   1.372
13827W        W78812  32.014  11.151  13.949
13828W        W78813  42.705  28.917  13.805
13829W        W78814  23.032  27.047  11.669
13830W        W78815  29.075  37.688  11.222
13831W        W78816   8.443  20.283   0.330
13832W        W78817   2.377  15.093   1.964
13833W        W78818  12.390  36.615  14.319
13834W        W78819  21.713  23.221  10.529
13835W        W78820   9.626  31.932  10.565
13836W        W78821   5.438   3.788  11.165
13837W        W78822  10.887  15.600   1.480
13838W        W78823  22.573  30.063  10.893
13839W        W78824   3.889  20.942   4.259
13840W        W78825  12.667  24.166  11.406
13841W        W78826  36.955  30.638  13.614
13842W        W78827   6.747  28.381  11.660
13843W        W78828  13.097   5.841   2.848
13844W        W78829   3.356  27.246   0.057
13845W        W78830  37.091  36.982  11.098
13846W        W78831  29.675  37.172   5.100
13847W        W78832   6.900  27.447   1.534
13848W        W78833  12.129  30.699   0.879
13849W        W78834  44.416   7.119   1.183
13850W        W78835  31.506   2.636  10.581
13851W        W78836  21.736  11.325   1.352
13852W        W78837   1.143  15.207   0.869
13853W        W78838  38.422  43.392  13.653
13854W        W78839   4.217  26.631   2.641
13855W        W78840  15.984   0.988  12.503
13856W        W78841   1.465   2.669   3.893
13857W        W78842  30.636  17.698   0.632
13858W        W78843   6.148   7.378   0.880
13859W        W78844   1.470  19.300   1.647
13860W        W78845   0.102  25.095   0.551
13861W        W78846  18.575  27.844   3.419
13862W        W78847  10.290  39.529   0.289
13863W        W78848  36.529   7.296   3.164
13864W        W78849  35.751  22.896   1.122
13865W        W78850  18.693  16.922   0.961
13866W        W78851  39.994  42.883  10.906
13867W        W78852  11.917  25.085   5.051
13868W        W78853  43.428   6.781   3.585
13869W        W78854  20.022  43.874   4.353
13870W        W78855  37.733  24.469   0.421
13871W        W78856  23.259   6.725   2.478
13872W        W78857  25.809  21.624   2.365
13873W        W78858   7.753  38.800   1.418
13874W        W78859   2.421  35.905   0.378
13875W        W78860  38.917  36.770  14.400
13876W        W78861  25.720  32.577  12.543
13877W        W78862  25.795   7.902   0.967
13878W        W78863  32.370   4.870  14.125
13879W        W78864  22.785  30.480   1.667
13880W        W78865  40.729  41.668  10.743
13881W        W78866  18.721  42.883   1.322
13882W        W78867   9.154   7.719  12.896
13883W        W78868  30.000  13.922   3.656
13884W        W78869   8.276   1.907  14.492
13885W        W78870  14.636   5.818   2.319
13886W        W78871  27.095   5.332  11.179
13887W        W78872  33.195  33.083   3.319
13888W        W78873  40.579  24.900  13.884
13889W        W78874  10.207  10.387   1.782
13890W        W78875  16.229  29.495   1.399
13891W        W78876  15.019  31.665  12.052
13892W        W78877  36.529  43.698   1.937
13893W        W78878  18.696  22.649   3.100
13894W        W78879   7.937   2.383  10.398
13895W        W78880  21.425  18.860   5.700
13896W        W78881   9.704  39.758  13.987
13897W        W78882   0.506  41.738   4.459
13898W        W78883  39.363  19.395   0.143
13899W        W78884  16.254  33.614   3.881
13900W        W78885   5.346   8.392   9.773
13901W        W78886   6.811   1.708  10.793
13902W        W78887   1.292  16.055  12.567
13903W        W78888   5.675  21.942  12.913
13904W        W78889  43.882  42.274   0.327
13905W        W78890   2.102  31.922  12.995
13906W        W78891  44.327  24.929  13.563
13907W        W78892  25.115  38.932   0.458
13908W        W78893   4.217  12.819  14.417
13909W        W78894  13.874   0.584   0.241
13910W        W78895  22.441   0.773  10.797
13911W        W78896  43.866  36.465  13.354
13912W        W78897  17.572  32.010  10.464
13913W        W78898   0.959  36.233   1.820
13914W        W78899  38.096  21.904  13.451
13915W        W78900  21.738  20.172   4.194
13916W        W78901  25.915  38.695   1.208
13917W        W78902  39.593   2.280  14.358
13918W        W78903  38.321  27.131  14.354
13919W        W78904  23.307  40.722  12.347
13920W        W78905  21.561  36.828   4.260
13921W        W78906  11.699  36.416   4.621
13922W        W78907  28.222  16.711  13.437
13923W        W78908   1.675  21.134   0.464
13924W        W78909  19.131  18.831   0.554
13925W        W78910  35.495  43.993  12.553
13926W        W78911  36.957  12.275  10.672
13927W        W78912  44.255  42.563   4.286
13928W        W78913  10.631  21.195  10.396
13929W        W78914   2.396  28.252   1.797
13930W        W78915   3.758  20.133   0.180
13931W        W78916  41.877  19.971  11.634
13932W        W78917  36.759  31.990  10.516
13933W        W78918  33.373  25.008  14.117
13934W        W78919  38.748  15.411   0.838
13935W        W78920  21.208  30.189   2.390
13936W        W78921   0.517  25.024   0.254
13937W        W78922  33.161  40.973  14.884
13938W        W78923  32.365  40.603  11.184
13939W        W78924  28.168  20.327  12.369
13940W        W78925  18.819  37.926  14.776
13941W        W78926  13.641   1.823   4.352
13942W        W78927  10.500   3.410   3.087
13943W        W78928   4.223  44.306   1.828
13944W        W78929  15.650  28.927   1.729
13945W        W78930   9.178  32.587   4.232
13946W        W78931  33.047   4.513  11.095
13947W        W78932  33.383  31.356  10.736
13948W        W78933  15.432  36.924  11.399
13949W        W78934  44.023  14.666   0.071
13950W        W78935  10.335  10.296   0.882
13951W        W78936  11.308   5.795   1.926
13952W        W78937   1.153  37.193  10.193
13953W        W78938  42.582  19.233  11.657
13954W        W78939  31.525  29.556   2.106
13955W        W78940  22.788   6.684   0.728
13956W        W78941  17.103  39.899   0.317
13957W        W78942  11.229  14.329   4.444
13958W        W78943  16.394  19.522  14.793
13959W        W78944  18.751   2.981   3.810
13960W        W78945  29.525  38.473  11.600
13961W        W78946  21.415  12.490   3.321
13962W        W78947  41.542  29.518   3.937
13963W        W78948   8.753  35.877  14.065
13964W        W78949  34.422  12.300  14.815
13965W        W78950  18.080   0.078   4.157
13966W        W78951  23.574  42.303   3.599
13967W        W78952   9.391   9.914   1.027
13968W        W78953  35.391  32.888   1.569
13969W        W78954  21.864  43.170   4.593
13970W        W78955  35.414  43.917   2.768
13971W        W78956   4.741   5.263  12.850
13972W        W78957  19.156  44.948  12.518
13973W        W78958  12.772  27.519  12.067
13974W        W78959  33.277  10.275   4.540
13975W        W78960  12.760  23.503   4.821
13976W        W78961  38.499  34.310  12.973
13977W        W78962   7.045  32.193   2.219
13978W        W78963   5.357  36.401   3.786
13979W        W78964  42.244  44.466  11.169
13980W        W78965  28.537  25.535   1.599
13981W        W78966  30.845  24.606  14.920
13982W        W78967  39.999  14.570  13.526
13983W        W78968  44.458  24.801   5.149
13984W        W78969  32.032  21.674   4.419
13985W        W78970  40.574  15.179  11.907
13986W        W78971  22.066  14.256   1.315
13987W        W78972  21.936   7.865  11.915
13988W        W78973   4.371  11.379  14.276
13989W        W78974  34.338  35.027   4.658
13990W        W78975   4.276  39.519   3.290
13991W        W78976  24.084  42.385   3.517
13992W        W78977  37.712   4.170   1.833
13993W        W78978  23.133  40.986   0.603
13994W        W78979  35.054   6.732   2.834
13995W        W78980  44.896   7.585  10.869
13996W        W78981  40.595  24.047  12.073
13997W        W78982  24.160  27.742  14.905
13998W        W78983  30.088  34.301   3.099
13999W        W78984  41.199  38.073   0.911
14000W        W78985   9.214  28.763  11.620
14001W        W78986  23.236  13.751   3.474
14002W        W78987  42.578  12.482   3.595
14003W        W78988  38.854  35.437   1.911
14004W        W78989   9.398   5.670  12.970
14005W        W78990  10.560  30.375   1.907
14006W        W78991  35.674  10.270   1.594
14007W        W78992  40.798  18.450  13.597
14008W        W78993  10.231  38.434   1.770
14009W        W78994  38.826  18.357  10.978
14010W        W78995  16.820  13.869  14.433
14011W        W78996  35.072  25.594  10.941
14012W        W78997  19.995  21.170   4.922
14013W        W78998  35.894  44.853   1.257
14014W        W78999  42.564  26.602   3.184
14015W        W79000   9.914  31.155  13.445
14016W        W79001  14.199  11.858  14.364
14017W        W79002  40.988  12.558   0.456
14018W        W79003  27.609  15.120  11.951
14019W        W79004  37.457  30.132  13.869
14020W        W79005  16.799   1.457  11.609
14021W        W79006  43.420  23.652  12.536
14022W        W79007  34.061  27.204  12.637
14023W        W79008  23.807  19.569   0.511
14024W        W79009  11.161  21.560   4.756
14025W        W79010  31.141   0.396  13.037
14026W        W79011  35.649  19.648   3.882
14027W        W79012  26.444  24.752   2.354
14028W        W79013   9.341   2.523  13.441
14029W        W79014  12.969  34.031   4.594
14030W        W79015  23.286  20.165   1.862
14031W        W79016  14.123  42.470   4.232
14032W        W79017  39.614  31.601  11.476
14033W        W79018  30.459  43.891   3.324
14034W        W79019  18.866  44.731  13.814
14035W        W79020  37.022   2.816  13.950
14036W        W79021  36.793  43.391  10.533
14037W        W79022  35.682  39.944  13.414
14038W        W79023   8.926   3.978  14.345
14039W        W79024   6.867   0.457  12.704
14040W        W79025  20.876  13.094  14.527
14041W        W79026  13.768  31.033  10.254
14042W        W79027  35.901  34.806   4.499
14043W        W79028  36.885  31.138  11.541
14044W        W79029  33.727  24.592  13.416
14045W        W79030  21.478  14.535  11.583
14046W        W79031  25.713  25.772   2.218
14047W        W79032  11.132  14.253  12.440
14048W        W79033  14.604  29.570   3.615
14049W        W79034  14.747  16.843  11.946
14050W        W79035  32.214  23.624  12.576
14051W        W79036  33.283  30.464   3.605
14052W        W79037   6.488  34.794  11.511
14053W        W79038   4.986  41.300  12.556
14054W        W79039  32.082  10.148   1.400
14055W        W79040   4.780  22.028  14.538
14056W        W79041  28.115   5.008   1.314
14057W        W79042   6.818  35.623   2.423
14058W        W79043  11.745  44.301  10.247
14059W        W79044   7.471  26.974  12.988
14060W        W79045   4.458   1.232   0.529
14061W        W79046  20.595  15.472   2.532
14062W        W79047  28.429  13.914   2.742
14063W        W79048  14.280   8.369  12.535
14064W        W79049   4.352   5.771   4.114
14065W        W79050  40.004  31.140   4.284
14066W        W79051  13.504  37.996  14.526
14067W        W79052  11.708  14.913   1.919
14068W        W79053  25.562  44.296   1.828
14069W        W79054  39.811  16.544   4.930
14070W        W79055  10.738  41.477   4.014
14071W        W79056  39.518   0.897  13.997
14072W        W79057   1.909  30.117  14.809
14073W        W79058  43.906  22.491  10.469
14074W        W79059   1.252  25.297  11.164
14075W        W79060  19.563   9.904   4.509
14076W        W79061  33.597  11.186  14.239
14077W        W79062  43.269  33.091   2.791
14078W        W79063  15.723   3.317  11.424
14079W        W79064  22.285   9.752  10.538
14080W        W79065  38.271  24.185  12.271
14081W        W79066  24.654  26.151   2.260
14082W        W79067  36.468  11.806  13.991
14083W        W79068  17.544  24.246   1.311
14084W        W79069  21.452  15.463  14.465
14085W        W79070  15.537   7.975   0.358
14086W        W79071  26.654  42.435   1.848
14087W        W79072  42.532   8.391  12.960
14088W        W79073  13.229  10.603  13.122
14089W        W79074  36.806  25.308  13.571
14090W        W79075  43.031  31.720  11.163
14091W        W79076  19.145  28.046   3.312
14092W        W79077  14.753  38.564  14.304
14093W        W79078   7.223  20.139   4.518
14094W        W79079  17.615  39.672  11.540
14095W        W79080   1.994  17.782  12.270
14096W        W79081  42.377  34.039  12.928
14097W        W79082  29.698  25.079  13.402
14098W        W79083  42.033   6.921  13.951
14099W        W79084   1.191  32.108  10.300
14100W        W79085   8.332  21.014   0.042
14101W        W79086  20.680  37.119  13.978
14102W        W79087   3.367   4.411  11.824
14103W        W79088  24.364  15.570  13.024
14104W        W79089  34.601   2.947  12.012
14105W        W79090   9.180   7.682   0.017
14106W        W79091  15.103  31.171  10.848
14107W        W79092   6.815   4.543   5.263
14108W        W79093  10.883  15.260   1.910
14109W        W79094  20.911   7.697   0.457
14110W        W79095   0.115  40.490  13.466
14111W        W79096  41.359  20.172  10.988
14112W        W79097  23.033  25.523  12.433
14113W        W79098  29.974   2.298   1.751
14114W        W79099   5.347   0.485  14.477
14115W        W79100   0.182  36.238   3.360
14116W        W79101  33.295   6.590  14.489
14117W        W79102  27.778  44.503   1.980
14118W        W79103  17.674  31.036   2.141
14119W        W79104  41.376  15.443   2.129
14120W        W79105  35.285  38.911   4.027
14121W        W79106  16.609  16.157   2.851
14122W        W79107  37.531  18.348   0.730
14123W        W79108  24.776   6.739  13.564
14124W        W79109  42.311   1.887   1.006
14125W        W79110  15.089  25.712  13.912
14126W        W79111   1.029  30.006   4.580
14127W        W79112  34.667   8.783   3.558
14128W        W79113  37.794  13.268  13.106
14129W        W79114   3.493  32.081   4.146
14130W        W79115  24.253  25.594   0.396
14131W        W79116   3.491  21.707  14.701
14132W        W79117  15.600  20.812   3.248
14133W        W79118   6.867  38.375   1.584
14134W        W79119  26.916  11.755  11.996
14135W        W79120  37.902  39.411  12.644
14136W        W79121  38.996  17.171   1.741
14137W        W79122   5.266  39.021  12.246
14138W        W79123  33.357  13.400  11.929
14139W        W79124   4.389  29.043   2.267
14140W        W79125  40.902  14.949  13.736
14141W        W79126   9.274  43.622   4.673
14142W        W79127  20.040   0.686   2.666
14143W        W79128   2.327  15.814  12.621
14144W        W79129  24.763  32.583   2.272
14145W        W79130  34.574  25.463  10.257
14146W        W79131   5.585   6.207   2.142
14147W        W79132  23.593  12.182   4.309
14148W        W79133   5.343  28.182   1.208
14149W        W79134  18.154  34.152  12.508
14150W        W79135  12.293  27.148  11.963
14151W        W79136  26.893  22.226  11.098
14152W        W79137  43.380   5.742   0.475
14153W        W79138  16.809  16.337   1.300
14154W        W79139  18.163   0.430  10.449
14155W        W79140   5.616  24.215  11.929
14156W        W79141  29.948  37.755  10.404
14157W        W79142  16.848  35.064   4.504
14158W        W79143  34.689  29.497   2.870
14159W        W79144  34.961  26.666  11.121
14160W        W79145  21.206   3.936   2.738
14161W        W79146  44.744  22.526   0.909
14162W        W79147   9.938   5.948   2.254
14163W        W79148  36.775   2.988   1.716
14164W        W79149  19.369   8.411   1.859
14165W        W79150  19.691   3.275  10.640
14166W        W79151  17.301  34.300  13.424
14167W        W79152   0.658   8.980   0.686
14168W        W79153  39.264  34.453  12.572
14169W        W79154  40.090  10.665  13.078
14170W        W79155  13.708  16.093   0.661
14171W        W79156  26.091  19.702   3.219
14172W        W79157  12.744  11.895   2.146
14173W        W79158   2.790  42.809  12.520
14174W        W79159  44.955  22.653  13.047
14175W        W79160   1.991  39.229  13.023
14176W        W79161   7.472   8.595  11.664
14177W        W79162  10.608   0.461  14.639
14178W        W79163  11.001  36.874   0.988
14179W        W79164  19.812   0.425   2.232
14180W        W79165  22.476  22.625  10.423
14181W        W79166  11.673  27.232  13.468
14182W        W79167  33.913   5.719   0.411
14183W        W79168  40.993   1.180  12.506
14184W        W79169   4.305   3.452  13.152
14185W        W79170  10.637  37.534   4.984
14186W        W79171  24.821  26.295   0.282
14187W        W79172  22.253  35.313  13.106
14188W        W79173   6.737  20.435   0.984
14189W        W79174  40.152  21.905   0.506
14190W        W79175  11.946   2.805  12.161
14191W        W79176  24.702   8.365   3.229
14192W        W79177  11.171  24.458   3.170
14193W        W79178  34.629   9.832   4.556
14194W        W79179   6.232   0.402  12.456
14195W        W79180   9.639   7.514  12.916
14196W        W79181  32.148   9.341  12.224
14197W        W79182  32.364  33.081  12.068
14198W        W79183   5.844  12.471   0.078
14199W        W79184  40.395   3.282   2.709
14200W        W79185  37.331  15.347  14.062
14201W        W79186  14.848  29.518  12.835
14202W        W79187  13.303  15.736   2.854
14203W        W79188  15.843  12.815   1.232
14204W        W79189   0.468  31.374  12.436
14205W        W79190  34.995  18.871   1.618
14206W        W79191  38.582  42.572  12.581
14207W        W79192  31.716  33.626   0.356
14208W        W79193  13.089  42.552   0.585
14209W        W79194  36.908  25.426   0.911
14210W        W79195  24.299   4.831   3.583
14211W        W79196  40.555   0.775  11.180
14212W        W79197  23.802  22.979  10.596
14213W        W79198   8.608  27.464  10.762
14214W        W79199  15.544  23.625  10.648
14215W        W79200  20.292   3.778  13.292
14216W        W79201  19.615  36.320   4.591
14217W        W79202  38.281  20.522  13.450
14218W        W79203  30.485  33.894  10.716
14219W        W79204  44.647  34.911   2.682
14220W        W79205  36.868  10.677  14.215
14221W        W79206   8.410  23.404  13.664
14222W        W79207  30.873  38.863   4.277
14223W        W79208  22.149  44.907  10.843
14224W        W79209  42.874  16.819  12.612
14225W        W79210  18.201  13.172  11.445
14226W        W79211  13.661  16.158  12.391
14227W        W79212  17.686  12.678  12.010
14228W        W79213  27.015  28.266  11.578
14229W        W79214  14.231   1.722  11.915
14230W        W79215  20.314  42.453   2.722
14231W        W79216  10.885  10.460   3.751
14232W        W79217  18.803   5.002  12.047
14233W        W79218  44.107  42.406  11.126
14234W        W79219   3.579  26.468   3.369
14235W        W79220  36.426  15.587   2.439
14236W        W79221   0.970  19.736   2.217
14237W        W79222  43.592  11.188  12.992
14238W        W79223  12.708  17.546   0.326
14239W        W79224   2.750  13.741  13.565
14240W        W79225  18.654  40.157  10.361
14241W        W79226  21.249  38.960  10.576
14242W        W79227  19.133  10.587   0.888
14243W        W79228  16.538  23.289   4.083
14244W        W79229   8.349  36.514  12.525
14245W        W79230  12.017  18.168   0.451
14246W        W79231   5.116   1.563   2.675
14247W        W79232  38.221  20.332   0.839
14248W        W79233  22.625  39.570   3.107
14249W        W79234  38.338  39.807   4.042
14250W        W79235  42.876  44.456   1.796
14251W        W79236   8.446  42.814   3.912
14252W        W79237  24.262  18.163  12.076
14253W        W79238  41.944  40.056   1.397
14254W        W79239  25.298  39.070  11.827
14255W        W79240   3.394   3.294   0.882
14256W        W79241  18.906  42.265  13.431
14257W        W79242  31.839  12.837  11.635
14258W        W79243  16.622  16.331  11.701
14259W        W79244  41.443  24.533  13.485
14260W        W79245   9.171  37.204  10.667
14261W        W79246  20.455   9.333  10.866
14262W        W79247  20.093  29.697  11.383
14263W        W79248  23.608  27.441  12.536
14264W        W79249  32.279  37.443  13.530
14265W        W79250   8.072  35.470   1.445
14266W        W79251  44.249   2.247  14.509
14267W        W79252   3.022  36.981   4.668
14268W        W79253  28.192  22.702   0.723
14269W        W79254  25.612  37.121   3.494
14270W        W79255  36.149  16.345  10.854
14271W        W79256  42.557  38.107   3.344
14272W        W79257  27.282   0.409  11.958
14273W        W79258   5.029  32.453   3.413
14274W        W79259  13.041  11.634  11.647
14275W        W79260  29.388   4.399   1.332
14276W        W79261  15.300  17.488  12.555
14277W        W79262   8.354  23.879  13.938
14278W        W79263   8.699  22.105   4.751
14279W        W79264   8.429  40.319  13.810
14280W        W79265  30.672  35.654  12.874
14281W        W79266  25.460  32.925  14.410
14282W        W79267  29.931  18.276  14.305
14283W        W79268   5.013  18.802   0.756
14284W        W79269   0.737  37.392   4.124
14285W        W79270  32.605  19.754   4.172
14286W        W79271   7.778  38.082   4.252
14287W        W79272  43.104  23.484   0.888
14288W        W79273  41.578  30.577  13.292
14289W        W79274  25.899  24.955   0.868
14290W        W79275  22.498   7.180   3.395
14291W        W79276  40.083  37.233   4.035
14292W        W79277  10.222  24.168  13.282
14293W        W79278  44.612  35.458  13.193
14294W        W79279   8.889  24.288  10.700
14295W        W79280  14.537  29.933  14.372
14296W        W79281  26.579  31.565   3.939
14297W        W79282  26.985  26.671   3.735
14298W        W79283  41.483  18.859   2.058
14299W        W79284  26.658  41.460  14.033
14300W        W79285   3.350   2.485   1.296
14301W        W79286  19.304  26.237   0.145
14302W        W79287  11.898  21.664  12.694
14303W        W79288  13.313   6.631  14.509
14304W        W79289  31.203   5.808   2.348
14305W        W79290  28.602   8.661   4.852
14306W        W79291   8.452  43.790  11.771
14307W        W79292  27.698  31.631  13.803
14308W        W79293  20.256  28.606  14.747
14309W        W79294   0.046  19.484   3.108
14310W        W79295  44.976  18.813  14.851
14311W        W79296  39.305  15.129  11.293
14312W        W79297  23.183  13.676  14.932
14313W        W79298  19.300  26.221  11.274
14314W        W79299  38.369  38.961   3.625
14315W        W79300  40.538   2.264  13.247
14316W        W79301  36.463  35.444  11.494
14317W        W79302  24.825  28.035  12.475
14318W        W79303  26.008   3.475  14.721
14319W        W79304  42.942  20.099   0.646
14320W        W79305  12.482  39.081   0.338
14321W        W79306  19.227   4.249  13.906
14322W        W79307  37.165  10.423   2.665
14323W        W79308  32.021  21.509  14.303
14324W        W79309  31.537  43.053  13.392
14325W        W79310  26.124  15.269  10.653
14326W        W79311  12.648  20.480   1.488
14327W        W79312  26.476  35.390  13.298
14328W        W79313  36.471   8.691   5.039
14329W        W79314  40.078   4.643  13.283
14330W        W79315  40.555   3.662   4.152
14331W        W79316  12.030  10.312  13.954
14332W        W79317  10.841  17.325  12.904
14333W        W79318   8.863  17.657  13.567
14334W        W79319   8.221   7.928   5.258
14335W        W79320   8.011  23.016   2.724
14336W        W79321  24.622  37.316  11.218
14337W        W79322  12.684  36.297  11.636
14338W        W79323  43.447  22.535   3.192
14339W        W79324  29.634  35.449   1.440
14340W        W79325  22.506  19.450  13.948
14341W        W79326  23.299   6.154  13.535
14342W        W79327  17.141  13.345  13.312
14343W        W79328  29.552  38.996   3.517
14344W        W79329  12.291  21.029  14.383
14345W        W79330  23.312  40.919  12.829
14346W        W79331   3.235   2.239  11.214
14347W        W79332  28.944  11.255  11.053
14348W        W79333   1.015  29.733   5.040
14349W        W79334  16.335  27.913   0.217
14350W        W79335   4.431  35.860   0.486
14351W        W79336  24.621  25.400   4.490
14352W        W79337  12.086  10.893  11.600
14353W        W79338  41.812  35.851  13.708
14354W        W79339  40.850  23.196   0.217
14355W        W79340  40.844  20.502  13.003
14356W        W79341   8.749  27.322  13.151
14357W        W79342   0.643  40.214  14.840
14358W        W79343  24.925  12.153  13.384
14359W        W79344  19.226  42.261  14.722
14360W        W79345  26.759  10.776   2.708
14361W        W79346  38.333   2.888   1.391
14362W        W79347  16.680  32.672   1.217
14363W        W79348  20.712  13.508   4.162
14364W        W79349  12.104  10.226   4.123
14365W        W79350  33.905  34.663  12.995
14366W        W79351  29.486   8.427   4.612
14367W        W79352  25.633   9.098  13.710
14368W        W79353  36.633  44.013  13.225
14369W        W79354  13.538  11.535  13.447
14370W        W79355  30.451  42.058   0.259
14371W        W79356  11.946  31.961   3.704
14372W        W79357   5.740  39.931  12.023
14373W        W79358  31.944  10.632   2.308
14374W        W79359  39.580   8.944   4.109
14375W        W79360   0.628  26.466  11.891
14376W        W79361  33.639  18.730  11.995
14377W        W79362   9.390  40.285   4.613
14378W        W79363   4.275   6.813  10.169
14379W        W79364  44.777  12.386  14.427
14380W        W79365  20.180   1.182  10.761
14381W        W79366  23.687  13.596  14.937
14382W        W79367  39.890  25.117   2.417
14383W        W79368  30.449  44.178   2.850
14384W        W79369  34.500  40.982   2.312
14385W        W79370  13.536  10.809  10.751
14386W        W79371  42.105   7.747  11.577
14387W        W79372  36.402  12.765   1.167
14388W        W79373  43.279  10.324   4.597
14389W        W79374  10.820  44.304  13.154
14390W        W79375  23.449  33.591   3.503
14391W        W79376  26.012  41.223  11.110
14392W        W79377  32.845  12.377  10.575
14393W        W79378  12.161   6.993  14.595
14394W        W79379  38.498  18.142   1.753
14395W        W79380  10.799  35.412  14.872
14396W        W79381  27.123  41.590   1.033
14397W        W79382   8.258  12.438   3.140
14398W        W79383  39.331  25.989   2.344
14399W        W79384  24.001  22.940  11.425
14400W        W79385  39.430  40.020   3.251
14401W        W79386  33.795  28.078  12.927
14402W        W79387  31.590   8.078  13.121
14403W        W79388  35.815   9.428   0.314
14404W        W79389  31.689  11.260  11.174
14405W        W79390  20.955  38.937  12.039
14406W        W79391  44.669  40.955   0.720
14407W        W79392   0.971  36.761   1.839
14408W        W79393  19.479   5.027   5.145
14409W        W79394  12.304  16.339  14.996
14410W        W79395  32.836  28.368  11.989
14411W        W79396  18.148  31.925   0.015
14412W        W79397  15.698  42.694   4.901
14413W        W79398  18.156  44.471   0.797
14414W        W79399   0.481  31.779   4.200
14415W        W79400  29.981   5.737   3.347
14416W        W79401  25.140  31.923  14.609
14417W        W79402  11.771  23.062  12.357
14418W        W79403   5.241  30.038   2.837
14419W        W79404  15.651  18.540   3.191
14420W        W79405  35.001  24.955   3.810
14421W        W79406   4.408   2.607  13.541
14422W        W79407  26.049  16.832  12.016
14423W        W79408  37.944  12.321  10.793
14424W        W79409  43.122  27.401   0.347
14425W        W79410  34.890   3.227   1.668
14426W        W79411  30.439  41.770   2.311
14427W        W79412  39.024   0.779  11.083
14428W        W79413  16.795  24.163   3.575
14429W        W79414   6.874   3.138   4.841
14430W        W79415  34.301  22.173  13.415
14431W        W79416  14.330   5.007   2.265
14432W        W79417  11.960  38.910  12.845
14433W        W79418   1.112  42.150   1.386
14434W        W79419  28.973  27.049  12.589
14435W        W79420  23.294  36.539  13.872
14436W        W79421  21.685  34.371   3.784
14437W        W79422  41.261  31.403   2.781
14438W        W79423  13.668  17.117   0.867
14439W        W79424  29.827  26.231   2.378
14440W        W79425  38.398  13.128   2.116
14441W        W79426  29.404  23.115  14.955
14442W        W79427  31.059   8.528  11.207
14443W        W79428   2.175  41.903   3.397
14444W        W79429   9.644  27.616  14.295
14445W        W79430   8.865  33.031   4.547
14446W        W79431  13.005  30.395  14.950
14447W        W79432   7.866  13.644  12.493
14448W        W79433  36.055   9.285  12.393
14449W        W79434  37.372  21.816   0.191
14450W        W79435  33.250  44.995  11.209
14451W        W79436  18.756   6.696  14.271
14452W        W79437  31.372  24.148   3.762
14453W        W79438  26.615  44.284   5.080
14454W        W79439   4.429   8.754  14.909
14455W        W79440  17.859  35.922  14.376
14456W        W79441   3.406  42.148   4.463
14457W        W79442   1.256  11.826   1.799
14458W        W79443  16.230  41.475   4.710
14459W        W79444  15.221  28.715   2.273
14460W        W79445   1.362  37.416   1.325
14461W        W79446   0.327  31.874   0.152
14462W        W79447  22.155  23.348   3.229
14463W        W79448   5.291  10.103   0.527
14464W        W79449  37.531   9.870  13.199
14465W        W79450  28.440  44.351  13.822
14466W        W79451  42.835  19.360  14.508
14467W        W79452  24.393   4.253   4.153
14468W        W79453  24.152  20.794   0.501
14469W        W79454  33.058  32.912  10.104
14470W        W79455  21.207  13.859   2.187
14471W        W79456  19.033  42.725  13.031
14472W        W79457  26.925  26.634  10.318
14473W        W79458  18.479  21.160   1.547
14474W        W79459  21.588  30.494  11.982
14475W        W79460  26.621  30.963  14.185
14476W        W79461  39.926  33.913  14.920
14477W        W79462   9.957  17.624   2.620
14478W        W79463  40.213  43.987  14.964
14479W        W79464  21.045  40.421  12.932
14480W        W79465  12.961  41.741   3.657
14481W        W79466  16.825  23.302   1.037
14482W        W79467  33.981  22.579  10.694
14483W        W79468  36.001  15.172  14.561
14484W        W79469  35.852   0.323   4.691
14485W        W79470  38.317  21.290   4.264
14486W        W79471  33.900   7.294   5.702
14487W        W79472  10.024  35.547   1.707
14488W        W79473  33.198  13.627  13.419
14489W        W79474  37.869  17.356   2.288
14490W        W79475  40.043  44.129   5.019
14491W        W79476  38.521   4.427   4.101
14492W        W79477  12.856  26.604  14.383
14493W        W79478  19.228  37.972   2.486
14494W        W79479  34.615  12.224   4.548
14495W        W79480  37.194   8.980  10.910
14496W        W79481  37.669  43.840   1.737
14497W        W79482  21.802  11.851   1.318
14498W        W79483  11.628  15.375  14.010
14499W        W79484   2.773  36.940   1.867
14500W        W79485  35.128  16.746   1.868
14501W        W79486   6.242  25.175   5.124
14502W        W79487  42.914  36.010  14.416
14503W        W79488  28.465  23.255  13.548
14504W        W79489   4.091  22.275   3.524
14505W        W79490  38.867  14.165  12.512
14506W        W79491  23.662   9.122  12.843
14507W        W79492   5.510  31.739   4.223
14508W        W79493  19.295  25.878   3.447
14509W        W79494  33.899   1.870  13.053
14510W        W79495   1.803  38.973   0.402
14511W        W79496  15.818  13.898   0.365
14512W        W79497   7.253  40.932   0.868
14513W        W79498  31.709  30.404   2.305
14514W        W79499  44.062  43.022   0.756
14515W        W79500  12.762  28.162  13.370
14516W        W79501  11.699   1.055   1.193
14517W        W79502   2.022   8.133  12.115
14518W        W79503  44.554  25.658  10.726
14519W        W79504  33.698  31.403  12.179
14520W        W79505  41.055  16.796   1.915
14521W        W79506  25.635   5.901  14.950
14522W        W79507  35.051  24.045   3.855
14523W        W79508  35.128  35.523   1.390
14524W        W79509  35.487  39.938   3.997
14525W        W79510  41.066   4.890  11.587
14526W        W79511  14.177  27.318  14.527
14527W        W79512  36.695  11.880  14.957
14528W        W79513  25.005  34.886  11.015
14529W        W79514  29.005  25.694  13.944
14530W        W79515  36.619  12.662  10.577
14531W        W79516  13.895  25.126  12.933
14532W        W79517  42.307   6.110   4.656
14533W        W79518  14.744  25.922  14.843
14534W        W79519  43.362   7.747   3.832
14535W        W79520  16.110  12.089  10.969
14536W        W79521   1.952  43.782  14.956
14537W        W79522   3.426  43.848   4.445
14538W        W79523  31.551  17.336  10.614
14539W        W79524  36.115  30.732  12.277
14540W        W79525  24.044  37.775   1.732
14541W        W79526   9.092  29.082  10.412
14542W        W79527  29.951  37.143   0.695
14543W        W79528  42.513  10.183   1.722
14544W        W79529  25.201  43.261  12.471
14545W        W79530  22.514  39.990   4.424
14546W        W79531   4.750   6.502  10.507
14547W        W79532  17.076  33.697  11.886
14548W        W79533  31.606  42.464   3.228
14549W        W79534   9.358  10.783   4.572
14550W        W79535   9.095  14.741  14.933
14551W        W79536  17.570  33.448   3.777
14552W        W79537  22.716   6.742  14.789
14553W        W79538  19.702  27.024  14.587
14554W        W79539  35.816  31.867  14.396
14555W        W79540   9.985  19.655  10.205
14556W        W79541  18.756  23.977   4.198
14557W        W79542   5.225  22.000   4.171
14558W        W79543  30.700   4.037  12.245
14559W        W79544  43.584   4.864   2.784
14560W        W79545  39.776  33.578  12.468
14561W        W79546  23.163  17.213  14.314
14562W        W79547  29.855   8.732   2.564
14563W        W79548   2.721  17.865  11.079
14564W        W79549  32.108  19.329   1.377
14565W        W79550  19.250  38.862  11.952
14566W        W79551  17.475  18.224  10.273
14567W        W79552  26.498   6.386  14.958
14568W        W79553   5.045  27.588   1.878
14569W        W79554  20.048  21.714   2.277
14570W        W79555   5.165  10.908  10.536
14571W        W79556  14.222  32.919   3.794
14572W        W79557  37.387  23.622  14.459
14573W        W79558   4.842  39.557   2.723
14574W        W79559  23.796  10.818   4.722
14575W        W79560  23.186  17.496   3.934
14576W        W79561   8.520  20.308  11.427
14577W        W79562  42.426  43.572  11.614
14578W        W79563  20.346   1.765  11.601
14579W        W79564   1.713   3.527   3.934
14580W        W79565  33.080  36.217   4.368
14581W        W79566  42.874  29.709  12.424
14582W        W79567  28.779  26.558  12.510
14583W        W79568  22.117  18.821   0.312
14584W        W79569   6.902  36.279  14.054
14585W        W79570  42.405  18.825   2.837
14586W        W79571  41.949  20.145  10.770
14587W        W79572  34.479  32.582   4.436
14588W        W79573  35.505   6.321   1.497
14589W        W79574  18.219  23.836   4.150
14590W        W79575  12.752  44.391  14.933
14591W        W79576  33.688  37.259  11.510
14592W        W79577  42.954  36.491  14.107
14593W        W79578  44.207  29.205   0.959
14594W        W79579  11.562  40.042  14.565
14595W        W79580   0.449  21.037  13.304
14596W        W79581  35.542  33.810   1.947
14597W        W79582  37.612  44.328  11.761
14598W        W79583  23.028  26.852   2.295
14599W        W79584  32.950  22.988  14.375
14600W        W79585  37.556  31.140  14.013
14601W        W79586   6.206  42.012  10.949
14602W        W79587   4.317  44.556  13.872
14603W        W79588   5.692  29.455   2.223
14604W        W79589  38.528   4.175  11.135
14605W        W79590  43.034  30.088  13.430
14606W        W79591  22.480  29.150  13.036
14607W        W79592  30.118  13.661  13.821
14608W        W79593  36.302  23.483   0.667
14609W        W79594   1.356  38.254  12.353
14610W        W79595   7.404   4.937   3.624
14611W        W79596  43.066  20.809   4.646
14612W        W79597  42.732   1.550  12.581
14613W        W79598  11.533   0.016   1.238
14614W        W79599  29.938   0.393   1.801
14615W        W79600  26.940  31.571  10.690
14616W        W79601  36.285  33.057  13.945
14617W        W79602  22.238  42.396   1.689
14618W        W79603  11.180   6.283  12.260
14619W        W79604   7.110  28.551   4.688
14620W        W79605  23.671  26.617  11.645
14621W        W79606  33.824  15.253   0.809
14622W        W79607  32.730   6.154  12.897
14623W        W79608  23.997  27.112  13.809
14624W        W79609  14.865   0.489  12.401
14625W        W79610   6.353   1.840  10.584
14626W        W79611  23.038  20.567   2.866
14627W        W79612  25.502  31.538   0.427
14628W        W79613  28.487  33.432   2.789
14629W        W79614   7.914  44.529   2.312
14630W        W79615  11.641  28.210   3.362
14631W        W79616  16.994  43.581   0.768
14632W        W79617  11.662   4.207   0.991
14633W        W79618   3.257  26.420   2.943
14634W        W79619  36.012   1.478  14.652
14635W        W79620  39.605  24.332   4.573
14636W        W79621  30.130  40.949   2.410
14637W        W79622  26.230  31.993   2.792
14638W        W79623  36.460  38.401  13.078
14639W        W79624  15.683  30.672   2.839
14640W        W79625  23.556  22.656  11.176
14641W        W79626  13.091  38.744   3.715
14642W        W79627  18.619  40.900  12.050
14643W        W79628  10.419  21.677   1.917
14644W        W79629   5.358  33.900   2.389
14645W        W79630  23.732  36.863  10.764
14646W        W79631  31.243  44.289  11.645
14647W        W79632  14.814   0.755   4.667
14648W        W79633   5.660   4.733   2.826
14649W        W79634  31.502  17.414  11.477
14650W        W79635   7.733  26.562  14.409
14651W        W79636  17.773  42.762   4.605
14652W        W79637  17.582  16.450   1.753
14653W        W79638  23.161  17.273   3.461
14654W        W79639  21.098   5.937   0.495
14655W        W79640  16.884  32.454   0.780
14656W        W79641  38.882   7.691   1.489
14657W        W79642  24.251  16.198  11.956
14658W        W79643  29.640  34.574   1.011
14659W        W79644   6.204  38.785   4.077
14660W        W79645  38.327  33.976  13.755
14661W        W79646  29.215  41.861  12.091
14662W        W79647  42.948  26.885   2.278
14663W        W79648  14.226  37.102  11.210
14664W        W79649   1.497  17.079  13.986
14665W        W79650  32.119  26.576  11.621
14666W        W79651  21.211  24.961   4.701
14667W        W79652  42.485  39.398  11.865
14668W        W79653  39.015  33.674   3.343
14669W        W79654  29.482  14.694  14.381
14670W        W79655   2.184  27.676   0.882
14671W        W79656  37.876   0.299  14.103
14672W        W79657  31.138  40.912   1.382
14673W        W79658  20.236  18.936   0.681
14674W        W79659  35.579  43.293   1.797
14675W        W79660  26.960  26.742   1.239
14676W        W79661  39.442  18.766   0.346
14677W        W79662  26.716   2.261  12.443
14678W        W79663  22.134   6.773  10.657
14679W        W79664  30.329  35.059   1.293
14680W        W79665   1.861  33.181  14.123
14681W        W79666  17.042   9.024   4.486
14682W        W79667  32.027  33.385  12.506
14683W        W79668  28.635  29.661   3.774
14684W        W79669   6.411  30.979   4.684
14685W        W79670   1.888  34.706  14.946
14686W        W79671   0.251   4.786  14.891
14687W        W79672  19.058  35.422  14.386
14688W        W79673  11.778   5.397  10.832
14689W        W79674  26.616  24.834   4.244
14690W        W79675  15.048  21.350   4.927
14691W        W79676   0.388  17.468  11.650
14692W        W79677  41.453  20.233   4.143
14693W        W79678   4.390  19.071  11.458
14694W        W79679  18.010  25.965  13.460
14695W        W79680   5.148   0.746  12.933
14696W        W79681  10.720  22.601   3.797
14697W        W79682  19.191  30.898  12.526
14698W        W79683  28.104  33.425  13.960
14699W        W79684  27.913  36.170   2.911
14700W        W79685  26.662  16.495   2.238
14701W        W79686   3.750  21.544  12.875
14702W        W79687   4.046   5.887  13.094
14703W        W79688   0.238   3.481   2.344
14704W        W79689  28.388  14.901   0.851
14705W        W79690  17.869  33.914  13.882
14706W        W79691  25.949   0.869  14.039
14707W        W79692  36.320  44.709   0.088
14708W        W79693  18.991  13.891  12.737
14709W        W79694  36.088   3.302   2.281
14710W        W79695   1.166  38.845  14.987
14711W        W79696  26.845   1.550  14.368
14712W        W79697  19.602  29.087   3.586
14713W        W79698  31.733  13.934   3.121
14714W        W79699  13.292  39.583   2.229
14715W        W79700  38.739   6.918   4.608
14716W        W79701  14.945  16.284   1.263
14717W        W79702  41.579  23.520   0.309
14718W        W79703  38.586  15.820  14.889
14719W        W79704  28.267  42.808  10.156
14720W        W79705  22.462  36.498   0.955
14721W        W79706  21.763  11.291  14.274
14722W        W79707  21.462  23.008  13.409
14723W        W79708  27.458  35.589   0.726
14724W        W79709  29.592  10.243   0.262
14725W        W79710  21.648  20.545  10.750
14726W        W79711  31.824  34.968   1.167
14727W        W79712  22.131  38.409  12.418
14728W        W79713  42.320   4.452   3.095
14729W        W79714  39.437  35.640  11.720
14730W        W79715  37.642   7.299  11.572
14731W        W79716  29.359  12.456  10.387
14732W        W79717  22.210  39.561   4.499
14733W        W79718  35.222  33.269  12.143
14734W        W79719  35.123  29.703   1.451
14735W        W79720   3.270  42.342   2.125
14736W        W79721  40.447  14.369  12.559
14737W        W79722  22.754   3.809  13.408
14738W        W79723   5.938  34.429   4.178
14739W        W79724  41.358   3.158   3.265
14740W        W79725  13.431  25.080   2.422
14741W        W79726  23.233  36.015  13.073
14742W        W79727  31.922  11.526   2.727
14743W        W79728   1.142  18.257  11.189
14744W        W79729  10.686  41.406  14.859
14745W        W79730  14.610  24.858   2.387
14746W        W79731  10.374  25.536   2.215
14747W        W79732  37.427  25.175   4.307
14748W        W79733  17.841  26.104   1.727
14749W        W79734  27.243  25.375   3.885
14750W        W79735  15.497  23.620   1.885
14751W        W79736  43.616  14.842   1.005
14752W        W79737  39.490  25.056   1.446
14753W        W79738  34.188  36.230  14.361
14754W        W79739  38.841  26.236  11.987
14755W        W79740  36.413  20.701   3.215
14756W        W79741  42.793  39.104   3.598
14757W        W79742  16.288  23.003   0.385
14758W        W79743  36.363  13.718   2.408
14759W        W79744  17.036  17.034  10.330
14760W        W79745  40.331  10.102  10.984
14761W        W79746  28.251  43.036   2.798
14762W        W79747  14.373  37.830   0.097
14763W        W79748  11.410  43.003  11.430
14764W        W79749  18.590  43.491   4.620
14765W        W79750  25.164  13.098   4.614
14766W        W79751  41.741   8.632  14.321
14767W        W79752  24.620   4.737  11.948
14768W        W79753  10.404  11.843  13.852
14769W        W79754  12.612  34.462  14.926
14770W        W79755  14.205  14.036   2.749
14771W        W79756   7.077  19.295  13.839
14772W        W79757  42.029  22.547   0.292
14773W        W79758  14.129  36.841  11.651
14774W        W79759  28.672  23.708   3.236
14775W        W79760  12.410  20.557  10.701
14776W        W79761  35.153  35.137  14.715
14777W        W79762   2.671  36.510   4.024
14778W        W79763  27.903   0.861  13.650
14779W        W79764   6.918   0.511   2.752
14780W        W79765   7.899  35.312  14.907
14781W        W79766  33.500   1.101   4.531
14782W        W79767  29.425  19.066   2.895
14783W        W79768  40.340   4.500   0.921
14784W        W79769  33.422  31.866  12.263
14785W        W79770  24.842  28.653  10.922
14786W        W79771  15.108  21.939   4.834
14787W        W79772  25.180  21.559   0.181
14788W        W79773  25.163  21.173   3.776
14789W        W79774  33.889   6.025  14.995
14790W        W79775   7.446   7.339  11.911
14791W        W79776   0.078  14.776   2.161
14792W        W79777  39.034  39.591   0.678
14793W        W79778  40.902  36.108  13.671
14794W        W79779  23.769   6.218  13.782
14795W        W79780  33.188  14.824   1.922
14796W        W79781  41.106  23.723  12.020
14797W        W79782  41.497  38.958   4.204
14798W        W79783  19.063  10.356   1.662
14799W        W79784  33.984  29.078  10.698
14800W        W79785  15.355   9.145   3.966
14801W        W79786  34.486  26.216   0.977
14802W        W79787  43.217  12.870   5.049
14803W        W79788  40.703   5.076  11.212
14804W        W79789  36.587  31.045   2.177
14805W        W79790  31.088  14.851  10.912
14806W        W79791  35.568  12.631   4.538
14807W        W79792  34.777  38.905   4.142
14808W        W79793  14.709   2.654  11.622
14809W        W79794  11.257  25.006   1.659
14810W        W79795  13.605  11.083   3.664
14811W        W79796  31.598   4.845  10.050
14812W        W79797  15.778   1.076  11.612
14813W        W79798  34.660  29.519  12.469
14814W        W79799  26.014  33.100   9.920
14815W        W79800  44.968  14.189  14.947
14816W        W79801  18.801  40.431  12.033
14817W        W79802   1.462  23.546  10.686
14818W        W79803  12.181  32.873  14.031
14819W        W79804   7.844  34.578   0.963
14820W        W79805  31.041  28.925  11.175
14821W        W79806  30.551  29.453   3.644
14822W        W79807  10.342  18.396  13.525
14823W        W79808  29.548  12.760   2.811
14824W        W79809  20.077  14.384  11.170
14825W        W79810   7.821   3.352  11.414
14826W        W79811  17.075  30.089  12.151
14827W        W79812  27.185  29.792  14.002
14828W        W79813   6.312  13.605  10.727
14829W        W79814   9.178  12.685   3.838
14830W        W79815  33.513  24.650   1.611
14831W        W79816  15.736  44.674  10.792
14832W        W79817  28.557  43.466   2.710
14833W        W79818   5.130  24.477  11.145
14834W        W79819  36.012  22.255  13.364
14835W        W79820   6.943  29.085   1.497
14836W        W79821  16.560  33.547  12.141
14837W        W79822  41.221  11.525   3.772
14838W        W79823  15.685  40.833  10.761
14839W        W79824  20.638  31.439  14.492
14840W        W79825  16.815  30.384   1.961
14841W        W79826  19.787  30.415  11.464
14842W        W79827  10.414  16.349  14.827
14843W        W79828   0.268   7.782   1.582
14844W        W79829  15.630  28.418   1.684
14845W        W79830  20.580   5.324   3.797
14846W        W79831  15.078  15.860   0.822
14847W        W79832  22.093  40.507  14.550
14848W        W79833  36.077  25.568   1.242
14849W        W79834  33.296  37.548  13.401
14850W        W79835  15.723  16.121  11.226
14851W        W79836  27.476  32.164   4.835
14852W        W79837  16.639   0.931   0.529
14853W        W79838  35.668  31.039  11.077
14854W        W79839   7.585  13.747   3.636
14855W        W79840  44.281   8.484   4.418
14856W        W79841   0.063   2.397   4.256
14857W        W79842  42.012  25.124   2.538
14858W        W79843   5.328   4.297  12.021
14859W        W79844  25.284   7.724   4.018
14860W        W79845  15.176  30.477   3.620
14861W        W79846  44.188   6.756  11.576
14862W        W79847  36.446  23.088  11.661
14863W        W79848   5.966  21.518  12.777
14864W        W79849  11.163  20.573  12.687
14865W        W79850  25.715  26.719   3.275
14866W        W79851  36.497  36.686   2.108
14867W        W79852  25.942  15.088  13.988
14868W        W79853   7.418  15.133   3.297
14869W        W79854   0.448  12.250  12.553
14870W        W79855  41.351  11.241  11.580
14871W        W79856  14.418   2.723   4.077
14872W        W79857  27.211  25.133  11.663
14873W        W79858  26.489  42.835  14.742
14874W        W79859   6.692  25.487  12.842
14875W        W79860  14.380   1.666  14.696
14876W        W79861  14.761   3.668   3.234
14877W        W79862  22.027  31.483  13.422
14878W        W79863  31.869  25.259   2.303
14879W        W79864  33.014  23.720   2.776
14880W        W79865  18.320  20.255  10.622
14881W        W79866  21.257  16.207  12.505
14882W        W79867  22.554  17.024   2.728
14883W        W79868   2.011  14.568  12.523
14884W        W79869  31.122   4.158   0.461
14885W        W79870  15.102  15.486  11.910
14886W        W79871  36.410  10.177  12.445
14887W        W79872  22.490  12.249  11.160
14888W        W79873  21.067  34.056   3.153
14889W        W79874  24.516   6.968  11.397
14890W        W79875  37.466  27.000  12.467
14891W        W79876   1.569  24.415  11.224
14892W        W79877  12.292   9.452   4.607
14893W        W79878   1.422   3.566   0.851
14894W        W79879  36.609  29.992   1.880
14895W        W79880  30.988  20.521  13.096
14896W        W79881  29.567  24.147  14.519
14897W        W79882  31.928   9.360   4.261
14898W        W79883  21.781  39.416   4.779
14899W        W79884  40.893  29.397  10.953
14900W        W79885  19.492  17.583  14.998
14901W        W79886   4.883   9.298   1.277
14902W        W79887  14.083  21.228   3.742
14903W        W79888  22.898  26.248  14.469
14904W        W79889   4.918  35.250   4.821
14905W        W79890  16.620  31.418  11.945
14906W        W79891  33.884  29.614  10.791
14907W        W79892   2.925   4.688  10.921
14908W        W79893  27.733  22.454  12.814
14909W        W79894  15.755  11.842   2.622
14910W        W79895  14.820  31.888   2.662
14911W        W79896  35.572  14.859   2.363
14912W        W79897  21.209  40.450  14.023
14913W        W79898  21.127  30.912   0.856
14914W        W79899   4.814  13.878   4.385
14915W        W79900  24.155  11.602   0.951
14916W        W79901   1.914   7.895  13.472
14917W        W79902  11.217  23.779  14.759
14918W        W79903  15.693  41.607   4.040
14919W        W79904  15.076  18.756  14.532
14920W        W79905  29.524  38.517   4.594
14921W        W79906  17.221  14.054   0.966
14922W        W79907   6.729  38.386   0.678
14923W        W79908  35.110  17.780  11.579
14924W        W79909  18.279  20.882  14.100
14925W        W79910   0.299  20.698  12.937
14926W        W79911  23.741  39.396  12.938
14927W        W79912  11.888  30.997  11.195
14928W        W79913  43.656  24.589  12.317
14929W        W79914  36.067  25.970   3.780
14930W        W79915  33.992  36.831  14.954
14931W        W79916  11.234  16.487  11.186
14932W        W79917  16.845  26.685   2.881
14933W        W79918  44.081  24.960   0.410
14934W        W79919  11.031  22.220  11.458
14935W        W79920  17.258  14.310  11.612
14936W        W79921  40.576   1.714  13.878
14937W        W79922  41.087  11.641   1.314
14938W        W79923  14.799  16.116   4.282
14939W        W79924   0.291   6.478   1.311
14940W        W79925  43.751  38.062   1.156
14941W        W79926  31.811  11.665  10.441
14942W        W79927  16.325  19.257   3.391
14943W        W79928   8.834  17.064  14.827
14944W        W79929   7.835  25.797  10.739
14945W        W79930   5.691  17.881   3.739
14946W        W79931  38.879  27.070  14.027
14947W        W79932  33.951  15.278   1.845
14948W        W79933  12.521   0.726  12.492
14949W        W79934  10.921  37.885   3.737
14950W        W79935  36.391  21.972   3.652
14951W        W79936   9.366  13.372   1.248
14952W        W79937  36.662  34.987  10.510
14953W        W79938  20.532  34.853  12.145
14954W        W79939  39.899  43.330  14.451
14955W        W79940  38.289  10.123   2.410
14956W        W79941  40.481   6.900   0.884
14957W        W79942  44.779  26.626  10.185
14958W        W79943   5.382  37.165  11.047
14959W        W79944  39.637  26.742   1.487
14960W        W79945  39.438  40.895   3.449
14961W        W79946  10.302   6.005   4.973
14962W        W79947  30.557  17.154  13.469
14963W        W79948  31.174  44.260  10.027
14964W        W79949  42.154  35.993   3.222
14965W        W79950  22.008  14.787   1.384
14966W        W79951  42.073  25.048  12.933
14967W        W79952  15.301  44.264   4.485
14968W        W79953   3.895  27.678   3.141
14969W        W79954  25.532   9.841   0.354
14970W        W79955  33.670  19.874   4.989
14971W        W79956   9.190  26.635  10.720
14972W        W79957   9.863  34.433   4.114
14973W        W79958  31.268   0.953   4.181
14974W        W79959  25.612  40.593   1.759
14975W        W79960   0.467  38.962   0.653
14976W        W79961   2.932  29.482   0.777
14977W        W79962  29.529  21.330  13.940
14978W        W79963  36.539  11.635  11.005
14979W        W79964  20.895   0.054  14.341
14980W        W79965  41.468  12.125   4.727
14981W        W79966  40.523  44.921  12.237
14982W        W79967  41.983  34.161   0.573
14983W        W79968  10.311  13.297   4.856
14984W        W79969   6.329  18.283   5.127
14985W        W79970  28.710  43.575   1.263
14986W        W79971  11.808  37.873  10.712
14987W        W79972  32.484  22.636  14.966
14988W        W79973  38.035  21.626  12.988
14989W        W79974  10.206  42.270   2.935
14990W        W79975   1.663   0.350  11.717
14991W        W79976  12.792  12.276  14.476
14992W        W79977  29.648   5.892  11.155
14993W        W79978  14.291  10.212   2.479
14994W        W79979  43.503  16.635   3.174
14995W        W79980  34.014  30.576  14.334
14996W        W79981  11.676   2.849  12.579
14997W        W79982  31.936  37.522  11.221
14998W        W79983  13.213  11.431  12.082
14999W        W79984  40.608  24.645  13.429
15000W        W79985  23.260  25.582   1.213
15001W        W79986  40.090   0.313   5.035
15002W        W79987   1.292  41.524  13.879
15003W        W79988  37.426   9.615   2.411
15004W        W79989  12.390   6.695   0.043
15005W        W79990  11.195  18.839  13.511
15006W        W79991  43.272  19.679  11.116
15007W        W79992   4.406  12.053   1.343
15008W        W79993  12.848  21.783  14.350
15009W        W79994   1.067   1.705  14.784
15010W        W79995   5.349  37.793  13.585
15011W        W79996   3.831  29.342   4.618
15012W        W79997  12.858   0.876  13.850
15013W        W79998  41.275  42.092  14.647
15014W        W79999  23.088   3.356   4.278
15015W        W80000  41.955  41.573   1.672
15016W        W80001  35.108  32.770   1.037
15017W        W80002   5.152   4.258  14.813
15018W        W80003  13.789  12.604  13.356
15019W        W80004  22.020   7.375   4.798
15020W        W80005  37.064  36.867  12.435
15021W        W80006  16.808  41.350  11.681
15022W        W80007  20.060  21.486  12.419
15023W        W80008  29.557  30.590  10.575
15024W        W80009  35.947  37.238  10.754
15025W        W80010  21.018  19.300   2.266
15026W        W80011  22.662  23.556   2.269
15027W        W80012  40.549  20.175   1.227
15028W        W80013  37.085  23.115   2.189
15029W        W80014  25.551   6.057   3.736
15030W        W80015   5.597  42.585  11.139
15031W        W80016  26.084  36.223  12.073
15032W        W80017  36.041  31.411   1.906
15033W        W80018  39.769  21.927   4.505
15034W        W80019  36.452   4.322  11.478
15035W        W80020  10.266   2.477   2.727
15036W        W80021  39.836  14.467  10.844
15037W        W80022  35.355   1.788  11.868
15038W        W80023   0.183   7.984  14.235
15039W        W80024  35.718   9.806  10.397
15040W        W80025   2.139  37.837   3.358
15041W        W80026  42.366  31.537  12.100
15042W        W80027  23.118  22.412  11.012
15043W        W80028  42.067  43.316   4.527
15044W        W80029   1.984  35.580   0.969
15045W        W80030  27.945  11.136   3.276
15046W        W80031   7.737  35.566  13.464
15047W        W80032  42.619  13.323  13.236
15048W        W80033   0.642  35.120   0.877
15049W        W80034  17.597  43.551  14.041
15050W        W80035   5.748  30.885  11.534
15051W        W80036  33.113  15.575  14.440
15052W        W80037   5.336  42.849  12.531
15053W        W80038  26.466  37.825  11.367
15054W        W80039  33.017  44.895  13.093
15055W        W80040  43.708  12.304  12.985
15056W        W80041  42.233  34.438   1.910
15057W        W80042  24.314  21.049   2.792
15058W        W80043  37.296  26.505   3.725
15059W        W80044  20.466   9.763   1.114
15060W        W80045  26.886  37.503  14.793
15061W        W80046  33.157  28.850  12.904
15062W        W80047  22.755   8.723  13.548
15063W        W80048  25.638  36.386   1.245
15064W        W80049   0.277  44.564   2.261
15065W        W80050  38.875   8.227  13.390
15066W        W80051  27.632  28.874  11.493
15067W        W80052  31.060  33.849  13.244
15068W        W80053  24.253  26.138  11.596
15069W        W80054  17.745  12.920  11.540
15070W        W80055   0.471   9.644  11.147
15071W        W80056  44.481  20.613  12.621
15072W        W80057  40.905  29.401  13.273
15073W        W80058  25.473  23.727  12.373
15074W        W80059  16.114   2.858   1.021
15075W        W80060  27.898  14.725  12.093
15076W        W80061  39.725  31.785  10.085
15077W        W80062  21.089  32.338  11.134
15078W        W80063   7.987   2.946   4.174
15079W        W80064  40.090  18.797  14.056
15080W        W80065  22.571  40.531   3.080
15081W        W80066  37.551  37.466  13.022
15082W        W80067  30.984  30.944  13.087
15083W        W80068  17.280  43.036   4.272
15084W        W80069   4.973  25.136   4.283
15085W        W80070   2.974  24.029  12.078
15086W        W80071   3.075  14.538   1.157
15087W        W80072  29.038  13.887  13.462
15088W        W80073  38.739   4.167  12.876
15089W        W80074  25.236   0.798   1.039
15090W        W80075  37.761  37.913  12.793
15091W        W80076  42.557   4.857  11.639
15092W        W80077   3.945  37.830   3.715
15093W        W80078  38.707  38.896  11.112
15094W        W80079  34.908  32.915  11.458
15095W        W80080   6.305   7.887  11.131
15096W        W80081   7.389  28.058   3.107
15097W        W80082  15.054  10.103   3.136
15098W        W80083  37.233   9.927   5.360
15099W        W80084  41.245  39.961  14.181
15100W        W80085  34.188  17.880   4.939
15101W        W80086   1.858   9.328  13.840
15102W        W80087  17.542  34.170  10.288
15103W        W80088   3.446  19.424   4.621
15104W        W80089  25.459  10.101  12.999
15105W        W80090  26.738  38.368   2.320
15106W        W80091  42.458   8.685  13.829
15107W        W80092   0.697  32.757   0.880
15108W        W80093  22.697  10.392  11.433
15109W        W80094   4.804  21.940   2.174
15110W        W80095  39.697   4.309  12.548
15111W        W80096  23.026  27.491  11.944
15112W        W80097  42.893  31.914  11.637
15113W        W80098   8.731  22.159   0.928
15114W        W80099   5.705  33.563   2.146
15115W        W80100   7.255  24.762   1.719
15116W        W80101  11.399  31.069   3.383
15117W        W80102  34.561  27.455   1.424
15118W        W80103  27.200  34.602  10.931
15119W        W80104  17.182  30.925   1.996
15120W        W80105  36.580   5.483  12.139
15121W        W80106   4.776   1.681  13.366
15122W        W80107  35.668  13.217   1.466
15123W        W80108  14.804  30.454  14.309
15124W        W80109  27.415   8.283  12.569
15125W        W80110  41.083  36.685   4.454
15126W        W80111  28.690  31.962  13.332
15127W        W80112  15.712  30.394  12.177
15128W        W80113  11.266   4.945   1.010
15129W        W80114  17.542  31.177  11.961
15130W        W80115  42.366   6.726  12.315
15131W        W80116   5.067  33.553  14.195
15132W        W80117  29.983  35.237  14.459
15133W        W80118  25.691  34.080   3.831
15134W        W80119  23.058  12.019  10.642
15135W        W80120  43.446  19.027   0.734
15136W        W80121  24.707  42.413   0.880
15137W        W80122  29.144   3.931  11.124
15138W        W80123  41.019   3.421   4.260
15139W        W80124   7.979  41.824   0.042
15140W        W80125  40.433   6.402   4.511
15141W        W80126  33.999  29.438   2.299
15142W        W80127   8.744  39.276  12.461
15143W        W80128  36.266  13.893   0.925
15144W        W80129   6.975  35.160  13.177
15145W        W80130  21.243  29.362  11.962
15146W        W80131  24.182  16.090   0.898
15147W        W80132  28.458  32.401   1.250
15148W        W80133  40.116  20.224  11.758
15149W        W80134  31.805  39.181  13.539
15150W        W80135  25.231  40.504   2.738
15151W        W80136  34.613  38.525   1.888
15152W        W80137  14.335  42.218  12.588
15153W        W80138  18.645   6.833   1.601
15154W        W80139  34.399  18.593  12.793
15155W        W80140  37.017  32.927   3.656
15156W        W80141  31.428  19.580  13.778
15157W        W80142   2.840  33.418   0.722
15158W        W80143  20.184  27.394  12.850
15159W        W80144  38.142  25.214  14.854
15160W        W80145  43.427  33.922   3.623
15161W        W80146  34.574  32.146   5.073
15162W        W80147  13.555  14.090   4.156
15163W        W80148   3.185  32.355  12.480
15164W        W80149   3.887   5.445  10.649
15165W        W80150  13.991  39.654  10.986
15166W        W80151   8.222   0.260   2.756
15167W        W80152  26.922  27.978  14.400
15168W        W80153  39.039   0.321   2.422
15169W        W80154   4.202  15.162  14.283
15170W        W80155  34.669   3.858   3.897
15171W        W80156  18.907  16.038  12.649
15172W        W80157  34.048  41.935  11.031
15173W        W80158  36.924   9.165   3.242
15174W        W80159  44.502   1.334  13.777
15175W        W80160   5.700  31.988   2.911
15176W        W80161   5.495  42.853   2.696
15177W        W80162   0.453  15.216  14.000
15178W        W80163  32.375  19.199   2.788
15179W        W80164  34.280  23.493  11.597
15180W        W80165  12.483   7.668  14.772
15181W        W80166  29.931  33.064   3.586
15182W        W80167   9.354  13.270   3.084
15183W        W80168  26.237  19.261  12.466
15184W        W80169  31.060  21.223   1.779
15185W        W80170   6.140  32.942   0.500
15186W        W80171  42.531  27.616   0.828
15187W        W80172  39.707  29.058   0.055
15188W        W80173  23.240  19.191  13.523
15189W        W80174  13.318  26.211  11.881
15190W        W80175  20.673  34.375  13.294
15191W        W80176  41.523  43.276  11.177
15192W        W80177  12.641  30.844   0.887
15193W        W80178  42.885   5.290  10.723
15194W        W80179  29.169  22.670  10.657
15195W        W80180  43.624  33.914  11.593
15196W        W80181  38.970   8.398   3.249
15197W        W80182  44.714  24.333   4.112
15198W        W80183   8.434  28.556   3.268
15199W        W80184  41.812  32.743  12.092
15200W        W80185  43.992  41.829  14.284
15201W        W80186  28.553  29.847  13.934
15202W        W80187  39.445  41.928   1.933
15203W        W80188  12.160  37.360  10.937
15204W        W80189   7.402   6.366   0.222
15205W        W80190   1.229   0.936  14.348
15206W        W80191  40.440  27.096  12.489
15207W        W80192   9.335  42.194  14.801
15208W        W80193  32.971  13.578   1.672
15209W        W80194   5.515   2.735   3.299
15210W        W80195  19.072  32.844  11.159
15211W        W80196   6.400  35.006   4.615
15212W        W80197   2.875  34.292   3.587
15213W        W80198  27.491  40.591   2.690
15214W        W80199   4.432  39.845   0.349
15215W        W80200  34.769  27.845  14.979
15216W        W80201  38.423  20.272  11.120
15217W        W80202  13.253  22.339   2.224
15218W        W80203  34.473  12.213   1.309
15219W        W80204  28.484  36.127   0.096
15220W        W80205  20.380  25.934  14.311
15221W        W80206  33.481  39.849  11.870
15222W        W80207  22.889  27.162   3.201
15223W        W80208  28.530  37.370   3.678
15224W        W80209  24.433  27.270   1.405
15225W        W80210  26.540  14.131  13.961
15226W        W80211  31.990  35.367  13.402
15227W        W80212   8.930  36.478   0.322
15228W        W80213   5.391   6.901   1.321
15229W        W80214   3.475  29.716  10.744
15230W        W80215  43.759  15.342   3.051
15231W        W80216  20.609  38.090   2.664
15232W        W80217   1.982  29.419  10.773
15233W        W80218   9.266  30.750   4.803
15234W        W80219  41.874  18.581   1.472
15235W        W80220   9.244  38.134  12.623
15236W        W80221   0.222  25.727  14.800
15237W        W80222   8.391  39.960  12.368
15238W        W80223  38.873  20.305   1.484
15239W        W80224   8.484  29.390  14.037
15240W        W80225   3.217  19.074   3.615
15241W        W80226  26.805  34.314  10.741
15242W        W80227  16.819  23.015   1.939
15243W        W80228  12.384   4.406   2.227
15244W        W80229  38.033  28.553   3.259
15245W        W80230  20.574   2.081   3.731
15246W        W80231  28.403   8.213   2.343
15247W        W80232  16.402   6.310   3.920
15248W        W80233  44.333  21.016  11.353
15249W        W80234  39.882  29.935   3.825
15250W        W80235   4.811  22.691   1.768
15251W        W80236  35.133   4.260   0.792
15252W        W80237   1.792  20.208  11.040
15253W        W80238  17.877  25.786  11.018
15254W        W80239  37.554  30.916   4.137
15255W        W80240  26.267  13.739   2.235
15256W        W80241   0.458  39.301  13.838
15257W        W80242   6.062  36.901   3.654
15258W        W80243  23.685  44.725  13.947
15259W        W80244  13.179  23.272   1.309
15260W        W80245   7.848  37.199   4.521
15261W        W80246   1.975   9.852   1.427
15262W        W80247  29.807  37.148  13.279
15263W        W80248  11.669   3.292  14.063
15264W        W80249  43.514  20.886  10.700
15265W        W80250  12.802   1.342   3.562
15266W        W80251  30.852  43.533  12.992
15267W        W80252  35.374  11.225  13.420
15268W        W80253  29.424   2.185   0.822
15269W        W80254  40.878  17.179   1.626
15270W        W80255  44.788  27.518  13.767
15271W        W80256  25.824  43.481  14.945
15272W        W80257  10.615  18.743   2.734
15273W        W80258  43.200   8.952   4.158
15274W        W80259  22.059  30.472  12.748
15275W        W80260  28.365   7.344  13.312
15276W        W80261  23.606  37.605  13.399
15277W        W80262  19.099  13.156   0.931
15278W        W80263   1.514  36.531  13.796
15279W        W80264  17.834  11.193  12.900
15280W        W80265  43.338   2.736   3.356
15281W        W80266   8.860   7.242  13.545
15282W        W80267  21.429   8.334   0.866
15283W        W80268  44.866   0.514   3.790
15284W        W80269  33.906  35.038  11.275
15285W        W80270   4.414  18.167   2.904
15286W        W80271  42.220  12.184  13.363
15287W        W80272  41.476  37.063   4.284
15288W        W80273   2.829  33.681  11.984
15289W        W80274  43.169  29.708   1.580
15290W        W80275   8.796  22.224  13.055
15291W        W80276  44.733  40.583  14.832
15292W        W80277   4.810  12.193   1.726
15293W        W80278  11.818  36.540   2.316
15294W        W80279  18.005   2.271  11.596
15295W        W80280  13.876  38.089  10.710
15296W        W80281  40.266   6.409   0.952
15297W        W80282  19.644   8.572  11.818
15298W        W80283  22.182  32.503   1.707
15299W        W80284  27.669  29.502   2.751
15300W        W80285  39.599   8.503  11.618
15301W        W80286  15.307  37.617   2.816
15302W        W80287  13.634  33.694  12.959
15303W        W80288  11.147  31.668   2.481
15304W        W80289  37.803   1.922   4.645
15305W        W80290  28.873  27.630  10.612
15306W        W80291  13.920  42.201  14.082
15307W        W80292  14.239   2.215  13.819
15308W        W80293  23.674  40.343  12.536
15309W        W80294   0.282  11.952   0.834
15310W        W80295  37.954   8.664   0.969
15311W        W80296  18.456  44.132   2.399
15312W        W80297  20.136  12.835  13.341
15313W        W80298   6.482  25.560   4.874
15314W        W80299  32.331  43.889   4.041
15315W        W80300  33.407  13.657  10.581
15316W        W80301  26.450  33.250  13.542
15317W        W80302   1.388  34.048  14.075
15318W        W80303  12.441  15.384   1.932
15319W        W80304  25.165  16.594  13.356
15320W        W80305   5.821  11.146  11.169
15321W        W80306  37.597  39.388  11.880
15322W        W80307  37.547   5.207  13.794
15323W        W80308   7.414  15.338   0.987
15324W        W80309  21.507  26.198  10.980
15325W        W80310  22.827  24.962   5.029
15326W        W80311  15.765  40.320   3.596
15327W        W80312  11.734  31.123   0.007
15328W        W80313  20.368  40.080   3.295
15329W        W80314  26.394  30.004  10.655
15330W        W80315  15.750   8.386   0.604
15331W        W80316  25.936  28.075   0.879
15332W        W80317  40.868  32.739  10.234
15333W        W80318  35.511  44.955   3.606
15334W        W80319  11.701  37.431   4.091
15335W        W80320   9.892   0.319   0.655
15336W        W80321  19.574  20.113   3.170
15337W        W80322   2.004  31.425   2.841
15338W        W80323  10.931  44.234   2.282
15339W        W80324  30.030  11.682  12.050
15340W        W80325   4.374  29.889   1.940
15341W        W80326  32.900   0.271  14.669
15342W        W80327  41.806   6.762  13.521
15343W        W80328  34.646  28.030  12.051
15344W        W80329   2.854   3.359  14.559
15345W        W80330  18.035  40.961  13.507
15346W        W80331  24.935   9.142  11.929
15347W        W80332  40.968  28.286  10.127
15348W        W80333  40.003  31.453  13.449
15349W        W80334  43.280  10.346  12.546
15350W        W80335  43.093  31.066   2.396
15351W        W80336  39.559   2.906  12.184
15352W        W80337  26.680   5.258  10.423
15353W        W80338   5.812   0.744   3.871
15354W        W80339  33.052  27.768  10.793
15355W        W80340  26.460  32.597   1.737
15356W        W80341  27.000  33.377   4.114
15357W        W80342  18.442  44.095  12.419
15358W        W80343  34.356  22.119   4.166
15359W        W80344  27.215   2.274  12.494
15360W        W80345  13.335  34.689  14.419
15361W        W80346  22.135  18.293  13.011
15362W        W80347   1.057  30.571  14.775
15363W        W80348  35.300  20.584   0.832
15364W        W80349  17.103  23.729  10.694
15365W        W80350  11.648  11.289   1.932
15366W        W80351  38.045  18.564  13.969
15367W        W80352  10.807  37.144  13.940
15368W        W80353  26.978  20.307   1.890
15369W        W80354  35.679  36.340   4.757
15370W        W80355  29.007  36.391  13.979
15371W        W80356  30.153  20.562  11.511
15372W        W80357   1.763   0.358  13.622
15373W        W80358   4.357   4.429  14.347
15374W        W80359  10.728   4.252  13.015
15375W        W80360  31.404  28.735   1.848
15376W        W80361  15.512   2.845  13.648
15377W        W80362  37.124   1.979  11.100
15378W        W80363  17.010  11.786   2.308
15379W        W80364  17.797   5.723  13.527
15380W        W80365  42.762  11.677  12.995
15381W        W80366  18.082  36.865  11.406
15382W        W80367   2.693  35.002   4.977
15383W        W80368  17.590  17.516   1.852
15384W        W80369  36.549  42.337   0.338
15385W        W80370  12.369  43.293   2.337
15386W        W80371  11.707   3.067  13.515
15387W        W80372  11.170  22.462   1.387
15388W        W80373  21.255  30.905   4.165
15389W        W80374  19.500  35.329  13.500
15390W        W80375  35.148  13.770   4.187
15391W        W80376  20.195   4.398  11.611
15392W        W80377  17.854  12.633   1.380
15393W        W80378  42.868  28.625  11.596
15394W        W80379  43.002  27.080  13.452
15395W        W80380  26.213  25.207   2.226
15396W        W80381   7.733  24.353   4.773
15397W        W80382  18.546   0.503   4.752
15398W        W80383  36.351  33.479  14.771
15399W        W80384  33.882  22.294   0.697
15400W        W80385  39.276  39.510  11.724
15401W        W80386  31.511  33.083   2.415
15402W        W80387  17.116  38.577  11.114
15403W        W80388  10.182  18.234   1.516
15404W        W80389  43.924  30.354   3.036
15405W        W80390  10.769  21.100  12.008
15406W        W80391   6.032  23.094   4.698
15407W        W80392  19.931  15.555   1.415
15408W        W80393  35.083  10.387  14.225
15409W        W80394  14.854  23.597   3.785
15410W        W80395  30.042  22.598  13.888
15411W        W80396  40.017  23.077   3.351
15412W        W80397  34.180  34.899  14.741
15413W        W80398   3.192  28.057   1.283
15414W        W80399  14.308  13.283   0.369
15415W        W80400  38.188  33.962  11.956
15416W        W80401   1.797   4.744  14.484
15417W        W80402  13.667   2.675   0.494
15418W        W80403   1.312  20.242  11.775
15419W        W80404  40.032   5.012   4.598
15420W        W80405   0.577  34.039  14.446
15421W        W80406  24.965  18.066   1.291
15422W        W80407   5.913  15.518  14.662
15423W        W80408   7.263  28.959   4.396
15424W        W80409  43.003  32.434   3.200
15425W        W80410   7.494  41.100  13.259
15426W        W80411  16.533  42.918  11.239
15427W        W80412  12.682  15.796  11.112
15428W        W80413  31.864   0.026   3.919
15429W        W80414  29.450  20.919   2.643
15430W        W80415  28.054  16.938  11.933
15431W        W80416  30.462  35.311   2.080
15432W        W80417  43.460  43.305   1.354
15433W        W80418  44.267  25.113  14.494
15434W        W80419  23.275  12.321  12.299
15435W        W80420   4.389   0.781   0.781
15436W        W80421  19.449  32.103   0.806
15437W        W80422  34.618   0.837  14.430
15438W        W80423  27.892  43.833  14.929
15439W        W80424   5.271  15.738   1.827
15440W        W80425  10.361  23.180   3.709
15441W        W80426  16.080  10.795   4.159
15442W        W80427  37.011  14.194  11.552
15443W        W80428  39.042  43.347   4.560
15444W        W80429  22.142  16.723  14.514
15445W        W80430  42.728   1.320  14.766
15446W        W80431  18.762  20.250   1.807
15447W        W80432  38.575  29.672   1.886
15448W        W80433  13.861  39.096  13.568
15449W        W80434  31.156  10.331  13.337
15450W        W80435  12.629  35.323   0.431
15451W        W80436  10.713  33.579  10.691
15452W        W80437  16.993  40.111  10.247
15453W        W80438  21.177  35.918  14.671
15454W        W80439   9.848  21.750   0.274
15455W        W80440  31.025  14.257  12.869
15456W        W80441   6.298  30.306   1.772
15457W        W80442   2.105  19.047  11.311
15458W        W80443   0.891  36.656   4.538
15459W        W80444  18.481  41.524  13.805
15460W        W80445  18.180   3.669  12.874
15461W        W80446   8.651   2.187  14.732
15462W        W80447  27.048  13.643   4.342
15463W        W80448  41.803  16.277   1.128
15464W        W80449  11.007  39.643   1.768
15465W        W80450  16.722   8.917   3.067
15466W        W80451  44.981  40.119  12.510
15467W        W80452  24.135   8.095   2.514
15468W        W80453  30.087  16.829   1.663
15469W        W80454  39.411   4.905  10.489
15470W        W80455  28.418   7.157   3.846
15471W        W80456  32.703   7.629   4.540
15472W        W80457  23.724   8.327   0.265
15473W        W80458   9.331  43.669  12.024
15474W        W80459  15.765   3.731  11.711
15475W        W80460   6.885  39.074  10.723
15476W        W80461  27.467  21.988  12.915
15477W        W80462  42.494  12.956  14.517
15478W        W80463  19.083  14.866   4.185
15479W        W80464  16.591  43.410  14.462
15480W        W80465  11.407  23.761  13.895
15481W        W80466  21.767  20.308  11.752
15482W        W80467  22.294  25.621   2.437
15483W        W80468  34.630  27.473   2.929
15484W        W80469  26.588  24.672  11.628
15485W        W80470  26.231   7.111  10.795
15486W        W80471  26.619  24.498  12.116
15487W        W80472  31.322  17.606   1.997
15488W        W80473  15.236  31.832   1.304
15489W        W80474  30.731  28.245  10.484
15490W        W80475  23.536   6.777  10.702
15491W        W80476  44.362   4.282   0.826
15492W        W80477  39.423   1.887   2.833
15493W        W80478  10.124  40.217   4.229
15494W        W80479  21.597  22.553  11.656
15495W        W80480  10.181  31.946  10.570
15496W        W80481  38.991  23.767   2.694
15497W        W80482   1.534  27.070  14.985
15498W        W80483   6.044  29.187   4.252
15499W        W80484  37.028  16.765   0.264
15500W        W80485   9.769   0.820   0.750
15501W        W80486   5.601  42.903   0.893
15502W        W80487  21.781   2.915   0.317
15503W        W80488   3.905  13.601   3.126
15504W        W80489  33.971  16.206   0.428
15505W        W80490  33.918   9.354   2.803
15506W        W80491  33.603  35.023  10.853
15507W        W80492  23.263  32.456   5.380
15508W        W80493  16.121  36.460  13.564
15509W        W80494  38.968  44.963   3.824
15510W        W80495   3.578  39.107   1.275
15511W        W80496  42.418  40.596   1.935
15512W        W80497  27.975  28.492   3.247
15513W        W80498  38.400  13.905   4.309
15514W        W80499  38.348   2.520   4.224
15515W        W80500   5.588  23.022  14.835
15516W        W80501  38.664  21.110  14.956
15517W        W80502  34.987  18.157  13.006
15518W        W80503   7.149  16.729   1.657
15519W        W80504  38.295  21.664  11.935
15520W        W80505   7.966  43.934   3.181
15521W        W80506  42.797  12.798   0.730
15522W        W80507  32.047  44.533   0.765
15523W        W80508  24.165  40.538  10.937
15524W        W80509  14.755  39.780   0.733
15525W        W80510  29.110  29.173  12.415
15526W        W80511  32.480  11.723  12.040
15527W        W80512  41.875  14.732   3.619
15528W        W80513  25.148  13.809   1.653
15529W        W80514  20.242  44.368   1.792
15530W        W80515  12.667  35.196  12.908
15531W        W80516  36.626  39.977   0.381
15532W        W80517   8.242  17.665  14.560
15533W        W80518  42.393   3.781   3.684
15534W        W80519  25.016   6.714   0.765
15535W        W80520  40.077  19.599   1.594
15536W        W80521   2.915  30.592  12.213
15537W        W80522  27.201  44.387  12.346
15538W        W80523  12.263  11.228  11.250
15539W        W80524  12.114  25.772  14.132
15540W        W80525  40.773  29.965   2.623
15541W        W80526   0.531  17.147   1.781
15542W        W80527  41.737  22.030   1.918
15543W        W80528  36.333  36.940   3.425
15544W        W80529  34.618  36.139   2.312
15545W        W80530   0.182  32.191  11.931
15546W        W80531  42.479  10.834  12.021
15547W        W80532  18.045  20.473   3.412
15548W        W80533  12.502  15.562  12.459
15549W        W80534  15.219  43.647  12.924
15550W        W80535  11.908  19.637   2.937
15551W        W80536   4.439  13.612   4.087
15552W        W80537  43.355  34.628  11.967
15553W        W80538  10.898  38.959  12.359
15554W        W80539  20.095   8.676   3.734
15555W        W80540  10.175   2.901  13.229
15556W        W80541   4.561  10.679   0.972
15557W        W80542   9.385  43.894  13.961
15558W        W80543  25.531   4.817  14.068
15559W        W80544   6.333  30.582   2.747
15560W        W80545   8.841  27.951  11.612
15561W        W80546  10.089   1.063  13.213
15562W        W80547  17.673   9.451  12.591
15563W        W80548   1.756  42.766   0.755
15564W        W80549  23.444  22.649  13.357
15565W        W80550  13.289  34.588  10.492
15566W        W80551  24.553  13.110  12.359
15567W        W80552  18.014  20.416  10.235
15568W        W80553  28.405  19.646  11.965
15569W        W80554  33.373  25.275   3.231
15570W        W80555  13.142  13.584  10.549
15571W        W80556  19.783  28.534  14.332
15572W        W80557  43.911  20.170   3.630
15573W        W80558  27.779  13.252   3.708
15574W        W80559  42.271   5.617   1.574
15575W        W80560  30.063  20.209  13.525
15576W        W80561  31.602  10.290  13.105
15577W        W80562  28.155  30.476  14.211
15578W        W80563   1.007  17.073  13.150
15579W        W80564  17.571  32.452  12.201
15580W        W80565  22.750  22.826  13.932
15581W        W80566  26.146  22.199  12.679
15582W        W80567  44.014   7.701  10.405
15583W        W80568  29.053  15.199  11.948
15584W        W80569  10.414  41.755   4.307
15585W        W80570  21.828  18.147   4.270
15586W        W80571  31.541  16.719   2.511
15587W        W80572  16.457  40.579  14.296
15588W        W80573  32.225   7.908  13.440
15589W        W80574  44.016  43.891   3.007
15590W        W80575  11.043  26.117  11.956
15591W        W80576  31.482  29.570   3.518
15592W        W80577   2.543  34.379  12.269
15593W        W80578  39.656   6.003  14.265
15594W        W80579  28.475  42.397   4.994
15595W        W80580  22.631  39.562   4.201
15596W        W80581  16.061  37.041  14.672
15597W        W80582  25.308  32.597   0.859
15598W        W80583  36.180  40.152  11.400
15599W        W80584  18.466  33.990  11.949
15600W        W80585  39.783  19.227  13.903
15601W        W80586  30.467  27.114  10.622
15602W        W80587   1.892  29.166   0.157
15603W        W80588   4.740  43.278   3.722
15604W        W80589  25.176  16.800  12.011
15605W        W80590   4.675  27.631  14.123
15606W        W80591  26.286  39.020   1.371
15607W        W80592  42.298  25.580   2.766
15608W        W80593  32.018  18.906  14.298
15609W        W80594  11.210  16.725   2.039
15610W        W80595  19.997  43.000   4.379
15611W        W80596  29.311  39.870  10.359
15612W        W80597  27.749  26.439   2.878
15613W        W80598  32.048  21.178  13.250
15614W        W80599  31.534  27.931  12.586
15615W        W80600  39.277  29.903  13.047
15616W        W80601  18.216  27.595  12.072
15617W        W80602   9.263  36.527  12.603
15618W        W80603  39.998  32.667  14.605
15619W        W80604  23.183   2.388   0.247
15620W        W80605  26.944   5.708  10.635
15621W        W80606  40.842  14.145   3.856
15622W        W80607  10.653  21.706   4.870
15623W        W80608  42.343  18.724  14.696
15624W        W80609  40.506  42.511  10.201
15625W        W80610  43.040  35.019   1.898
15626W        W80611   7.821  35.861  14.887
15627W        W80612  12.418  37.822   2.919
15628W        W80613  25.078   1.251  11.689
15629W        W80614  31.012  23.791   3.751
15630W        W80615   1.286  23.432   2.973
15631W        W80616   7.835  29.894   0.191
15632W        W80617  16.521   1.046  14.044
15633W        W80618   6.465  24.110  13.813
15634W        W80619   6.608   5.471  13.026
15635W        W80620  40.281  38.047  12.853
15636W        W80621  10.566  26.467  13.966
15637W        W80622  33.647  27.570   2.758
15638W        W80623  35.912  42.036   4.116
15639W        W80624  10.649  31.033  14.196
15640W        W80625  28.444  43.209   0.995
15641W        W80626  16.592  24.542   2.220
15642W        W80627  30.775  43.241   2.637
15643W        W80628  26.767  25.553   3.715
15644W        W80629   6.058   9.103   0.725
15645W        W80630  30.335  40.581   3.224
15646W        W80631  42.303   5.916  14.052
15647W        W80632  29.978  28.551   0.924
15648W        W80633  34.966  30.551  11.486
15649W        W80634  14.060  36.291   4.326
15650W        W80635  14.803  36.158  11.766
15651W        W80636  12.645  39.454  13.066
15652W        W80637  16.644  36.138   2.896
15653W        W80638   3.333  33.099   3.186
15654W        W80639  29.465  11.587   0.657
15655W        W80640  10.912  15.310   4.159
15656W        W80641  11.960  17.617   2.180
15657W        W80642   5.149  38.081   3.363
15658W        W80643  38.436  15.035  14.548
15659W        W80644  42.358   9.729   2.730
15660W        W80645   8.086  30.279  13.907
15661W        W80646   8.856  28.269   0.568
15662W        W80647   9.201  30.368   0.458
15663W        W80648   8.905   7.257  11.902
15664W        W80649  37.854  22.626   4.311
15665W        W80650  41.209   3.837   3.662
15666W        W80651  32.945   7.376  12.462
15667W        W80652  29.062  38.899   2.359
15668W        W80653  12.376  14.269   2.722
15669W        W80654  40.314  16.202  11.663
15670W        W80655  28.978  41.906   0.507
15671W        W80656  35.633   0.295  11.145
15672W        W80657   8.745  24.425   0.447
15673W        W80658  25.542   8.324   1.827
15674W        W80659  20.146   7.074   0.711
15675W        W80660  11.793  37.862   1.840
15676W        W80661  20.237  12.312  14.694
15677W        W80662  10.229  13.207   2.828
15678W        W80663   7.183  28.192   0.251
15679W        W80664  37.797  21.728   3.188
15680W        W80665  19.221  11.196  11.175
15681W        W80666  38.018  29.565  13.415
15682W        W80667  35.531  26.012   1.892
15683W        W80668  29.318  10.361  11.074
15684W        W80669  36.607  33.775  12.596
15685W        W80670  12.937  22.251   3.064
15686W        W80671  23.584  33.331  11.795
15687W        W80672  12.270  14.215   1.738
15688W        W80673  13.727   8.231   1.315
15689W        W80674   2.298  39.297  13.415
15690W        W80675  39.352   3.480   0.929
15691W        W80676   4.301  26.830  13.160
15692W        W80677  39.787  13.340  10.735
15693W        W80678   0.418   7.654  11.090
15694W        W80679  38.538  44.551  13.377
15695W        W80680  36.444  12.756  12.679
15696W        W80681  30.857  15.353   1.919
15697W        W80682   3.874  28.679  13.407
15698W        W80683  27.512   0.420  14.201
15699W        W80684   1.294  30.500   4.511
15700W        W80685   8.307  22.366   2.307
15701W        W80686  18.008  44.381  14.956
15702W        W80687  17.089  27.148   2.941
15703W        W80688   1.292  12.601  13.315
15704W        W80689   8.436  43.588   3.633
15705W        W80690  43.456  13.078  14.993
15706W        W80691   6.891  41.303   1.066
15707W        W80692   9.812  39.961   4.542
15708W        W80693  29.454  13.732  13.103
15709W        W80694  14.866   9.207   4.152
15710W        W80695  18.401  18.990  14.757
15711W        W80696   8.964  21.115   4.132
15712W        W80697   7.613  19.794   0.165
15713W        W80698  28.629   1.414   3.220
15714W        W80699  36.803   3.154   4.832
15715W        W80700   5.247  30.238   2.348
15716W        W80701   9.242  15.354  12.394
15717W        W80702   5.161  34.054  13.452
15718W        W80703  17.425  17.897  11.928
15719W        W80704  18.084   7.204  13.833
15720W        W80705   5.046  24.265   5.094
15721W        W80706  43.004  29.966   1.990
15722W        W80707  36.605  38.595   1.831
15723W        W80708  34.198   9.494  14.108
15724W        W80709  40.090   5.485   1.865
15725W        W80710  19.360   7.912  14.316
15726W        W80711   0.771   5.987   1.919
15727W        W80712  20.956  39.500  14.788
15728W        W80713  34.903  39.532  13.986
15729W        W80714   5.726  19.975  10.676
15730W        W80715   0.538  32.058  10.620
15731W        W80716  42.029  37.668   1.329
15732W        W80717  33.451  17.659  13.087
15733W        W80718  42.958  34.351   1.454
15734W        W80719  23.474  11.754  14.362
15735W        W80720  25.077  31.714  10.325
15736W        W80721   3.492  27.169  12.982
15737W        W80722  41.499  34.064   3.666
15738W        W80723   5.414   4.622  12.517
15739W        W80724  29.622  33.078  14.762
15740W        W80725  39.111  11.791   3.715
15741W        W80726  34.988  15.396  13.014
15742W        W80727  34.052  18.570   1.412
15743W        W80728  37.079   2.226   3.396
15744W        W80729  24.566   3.083  10.823
15745W        W80730   9.242  36.174  13.438
15746W        W80731   3.631  39.786  11.129
15747W        W80732   5.287  34.399   1.220
15748W        W80733  34.966   1.368  12.901
15749W        W80734  42.811   6.905   2.307
15750W        W80735   6.429  30.589  12.536
15751W        W80736  41.744   6.603  11.704
15752W        W80737  11.767  15.820   0.419
15753W        W80738  37.809   9.775   1.601
15754W        W80739   9.378  25.060  12.954
15755W        W80740   6.279  19.597  12.538
15756W        W80741   5.888  25.082  14.983
15757W        W80742   9.963   0.499  12.084
15758W        W80743  10.113  16.326  13.552
15759W        W80744   7.802  27.728   3.140
15760W        W80745  16.092  33.491  11.885
15761W        W80746   0.394   7.093   4.188
15762W        W80747  35.447  42.500  14.777
15763W        W80748  36.512  15.261   4.248
15764W        W80749  42.597  42.426  13.948
15765W        W80750  43.397  34.264   0.207
15766W        W80751  21.970  11.840   3.112
15767W        W80752  27.828  41.046  11.074
15768W        W80753   1.321  12.856  12.084
15769W        W80754   8.217   3.451   3.287
15770W        W80755  16.153  11.132   0.941
15771W        W80756  25.974   0.962   1.951
15772W        W80757  40.362  40.952   1.402
15773W        W80758   6.168   5.218  12.918
15774W        W80759  14.984   1.068  14.903
15775W        W80760  42.779  36.841   2.189
15776W        W80761  38.533  43.129  11.907
15777W        W80762  33.906  31.912   3.620
15778W        W80763  30.090  29.621  13.487
15779W        W80764  24.875  41.797  12.800
15780W        W80765   3.905   7.923  14.852
15781W        W80766   8.626  18.041  13.885
15782W        W80767  36.039  37.563   1.243
15783W        W80768  35.140   8.067   2.152
15784W        W80769  27.372  16.624  12.441
15785W        W80770  38.325  25.705  14.798
15786W        W80771  30.400  42.999   1.738
15787W        W80772  17.267  15.594   2.871
15788W        W80773  25.740  31.626   3.387
15789W        W80774  11.238  12.100   4.551
15790W        W80775  39.894  31.095  11.462
15791W        W80776  38.525  24.979   1.375
15792W        W80777  18.111  35.805   0.699
15793W        W80778  28.349  35.989   0.575
15794W        W80779  30.455   7.044  11.043
15795W        W80780  17.629  24.477  14.792
15796W        W80781   3.806  21.299   3.686
15797W        W80782  41.465  36.991  10.524
15798W        W80783   3.035  38.338   2.213
15799W        W80784  24.672   2.518  13.556
15800W        W80785  27.450  16.209  11.534
15801W        W80786  11.161  23.480   3.051
15802W        W80787   7.607  31.951   3.150
15803W        W80788  37.521  22.224  13.863
15804W        W80789  34.533  12.397   0.826
15805W        W80790   6.235  14.680  12.515
15806W        W80791   2.964  20.003  10.498
15807W        W80792  28.334  23.075  11.001
15808W        W80793   8.308  11.096   2.763
15809W        W80794  35.001   5.113   0.918
15810W        W80795   1.836   7.015   3.483
15811W        W80796  25.130   2.956   2.641
15812W        W80797  19.783  12.932  10.153
15813W        W80798   9.933  27.621  14.763
15814W        W80799  42.194  12.386  12.545
15815W        W80800  11.243  27.744  10.986
15816W        W80801  13.744  19.004  14.370
15817W        W80802  14.722  21.376  11.137
15818W        W80803  35.283   3.402  14.041
15819W        W80804   9.624   2.510   1.346
15820W        W80805  24.335   1.284   3.687
15821W        W80806   2.290  39.551  13.855
15822W        W80807  29.019  11.699   2.903
15823W        W80808  34.631  28.670   0.453
15824W        W80809  32.507  39.037  13.991
15825W        W80810  10.698  20.800   4.453
15826W        W80811   8.601  27.554   3.159
15827W        W80812  17.588   6.834   5.390
15828W        W80813  44.809   6.817  14.195
15829W        W80814  34.753   0.754   4.129
15830W        W80815   2.693  33.885   0.914
15831W        W80816  31.525  13.696  11.763
15832W        W80817  14.533  35.962   5.006
15833W        W80818  35.059   1.428   1.001
15834W        W80819  37.619  17.302   4.882
15835W        W80820   2.775   0.689   1.189
15836W        W80821   6.255  44.998  10.065
15837W        W80822  43.733  19.020   1.343
15838W        W80823  18.665  31.572   2.765
15839W        W80824  13.851  41.530  13.491
15840W        W80825  25.960  38.452  11.832
15841W        W80826   7.095  13.898   3.944
15842W        W80827  25.955   6.406   4.896
15843W        W80828  24.187   6.680   0.870
15844W        W80829  11.311   7.712  13.565
15845W        W80830   6.171  14.626  10.687
15846W        W80831   6.896  22.956   0.349
15847W        W80832  37.708  12.439   1.773
15848W        W80833  10.676  26.688  10.443
15849W        W80834  19.771  43.141   4.804
15850W        W80835   3.808  25.457   4.778
15851W        W80836  34.992  11.733   0.266
15852W        W80837   1.060  26.989   1.632
15853W        W80838   3.875  30.345   0.744
15854W        W80839  36.933  18.956   3.260
15855W        W80840  14.864  20.792   4.185
15856W        W80841  29.558  36.159  14.396
15857W        W80842  41.830  28.283   3.223
15858W        W80843  17.031   3.562  12.068
15859W        W80844  26.092   0.285  11.617
15860W        W80845  19.281   0.717  12.870
15861W        W80846  16.835  11.400   1.391
15862W        W80847   6.027  13.447   3.564
15863W        W80848  31.589   9.425   3.239
15864W        W80849   7.286  39.522  13.438
15865W        W80850   7.427  29.038  10.896
15866W        W80851  10.705  39.004   3.135
15867W        W80852  13.505  34.647  11.516
15868W        W80853   8.235   3.259  13.266
15869W        W80854   9.784  21.557  10.738
15870W        W80855  36.464  19.477   4.437
15871W        W80856   9.596  26.768   2.899
15872W        W80857  17.625  29.327   3.091
15873W        W80858  28.161  18.474  12.027
15874W        W80859   9.758  18.515   2.346
15875W        W80860   4.369  17.611   0.082
15876W        W80861  11.251  35.588  10.450
15877W        W80862  26.071   4.720   2.287
15878W        W80863  26.653  11.888   0.916
15879W        W80864  12.882   4.247   1.304
15880W        W80865  10.612  39.023   1.287
15881W        W80866  36.331  40.486  10.998
15882W        W80867  28.436  35.929   1.403
15883W        W80868  30.708  12.808  10.937
15884W        W80869  40.088   7.425   4.227
15885W        W80870  25.892   2.968  10.470
15886W        W80871  21.376  29.745   3.597
15887W        W80872  29.712   1.283   2.451
15888W        W80873   4.944  26.700  14.297
15889W        W80874  23.660   7.576   4.477
15890W        W80875  23.997  25.424  14.502
15891W        W80876  17.384  38.845  14.891
15892W        W80877  20.000  12.705   2.844
15893W        W80878  16.704   2.897  14.342
15894W        W80879  13.514  19.657   3.906
15895W        W80880  37.408   4.866  12.948
15896W        W80881  26.664   6.834  12.124
15897W        W80882  34.030   8.096   4.001
15898W        W80883  14.332  22.143   0.458
15899W        W80884  42.902  38.270   1.376
15900W        W80885   1.300  28.230  11.163
15901W        W80886   2.827  28.628  12.343
15902W        W80887   0.456  27.010  13.061
15903W        W80888  35.023  19.671   5.100
15904W        W80889  36.478  22.509   1.866
15905W        W80890   6.672  12.904  10.424
15906W        W80891  38.575  17.120  13.597
15907W        W80892  17.038  12.246  13.730
15908W        W80893   2.947  27.476  12.384
15909W        W80894  26.780  23.219   1.389
15910W        W80895  30.986  32.584   4.485
15911W        W80896  26.030  28.945   9.871
15912W        W80897  14.587   8.267   0.549
15913W        W80898  28.576  35.915   3.128
15914W        W80899  20.320  27.141  14.905
15915W        W80900  34.668  44.733   1.045
15916W        W80901   4.966  43.856  12.187
15917W        W80902   7.404  29.159   1.173
15918W        W80903  10.878  43.353  14.346
15919W        W80904  11.263  33.231   3.194
15920W        W80905  32.765  42.859  12.801
15921W        W80906  42.880   0.203   1.187
15922W        W80907  29.378  34.603  13.768
15923W        W80908  33.422  44.950  11.694
15924W        W80909   3.259  28.168   0.258
15925W        W80910  38.059  13.041  12.410
15926W        W80911  35.781   1.236   0.420
15927W        W80912  41.496  15.106  14.354
15928W        W80913   1.659   6.926   2.564
15929W        W80914  11.023  18.801   1.896
15930W        W80915  29.093  20.227  14.383
15931W        W80916  37.281  43.741   4.121
15932W        W80917  33.666  36.904   4.352
15933W        W80918  15.568  42.416   0.485
15934W        W80919   0.411  24.658  12.671
15935W        W80920   2.002  20.710   0.273
15936W        W80921  39.815  22.695   2.781
15937W        W80922  33.055  41.383  10.927
15938W        W80923   4.162  28.630  14.778
15939W        W80924  34.629  38.916  13.012
15940W        W80925  22.244   5.927  10.960
15941W        W80926  38.668   7.326   1.812
15942W        W80927  22.534   7.375   3.897
15943W        W80928  22.940  27.003  13.824
15944W        W80929  22.108   0.058   1.692
15945W        W80930  44.355   2.768  11.015
15946W        W80931  28.971  23.040   2.376
15947W        W80932  29.046  11.885   0.798
15948W        W80933  22.920  30.791   4.947
15949W        W80934   5.381  15.947  12.330
15950W        W80935  18.316  29.399  13.112
15951W        W80936  10.738   7.739  13.841
15952W        W80937  11.154   3.407  10.651
15953W        W80938  10.744  21.518   3.831
15954W        W80939   1.063  18.651   2.287
15955W        W80940  17.016  43.427  11.761
15956W        W80941   9.837  19.252   1.856
15957W        W80942   8.375  21.676  12.614
15958W        W80943   0.937   0.446  13.451
15959W        W80944   1.233  36.413   1.436
15960W        W80945   3.521  34.647   2.463
15961W        W80946  32.900   9.631  13.359
15962W        W80947   2.805  23.427   2.730
15963W        W80948   9.647  12.701   4.087
15964W        W80949  35.621   6.012   3.289
15965W        W80950   4.466  17.174  11.691
15966W        W80951  43.298  11.558  14.879
15967W        W80952  30.506  10.109   0.876
15968W        W80953   1.788   5.369   2.357
15969W        W80954  24.175  24.499  14.816
15970W        W80955  41.208  23.444  11.207
15971W        W80956  32.584   6.134  14.815
15972W        W80957  12.180   7.118  11.564
15973W        W80958  26.513   0.988  13.015
15974W        W80959  38.534  12.853  12.533
15975W        W80960   1.926  36.085   1.346
15976W        W80961  38.330  15.120  14.015
15977W        W80962  22.266  22.205   3.648
15978W        W80963  14.065  21.031   1.358
15979W        W80964   8.847  33.650  14.370
15980W        W80965   0.101  16.705   2.834
15981W        W80966  20.650  34.344  14.932
15982W        W80967  22.520   8.176  11.242
15983W        W80968  34.924  42.298  10.788
15984W        W80969  33.989  17.211  14.647
15985W        W80970   1.481  15.469  11.544
15986W        W80971  30.702   3.898   1.195
15987W        W80972  13.235   1.090  10.764
15988W        W80973  21.772  12.081   3.755
15989W        W80974  22.649   1.707  12.962
15990W        W80975  42.115   6.706  10.873
15991W        W80976   9.738  23.270  10.642
15992W        W80977  39.069  17.867   2.148
15993W        W80978   4.360  44.502  11.584
15994W        W80979  10.324   9.103   0.218
15995W        W80980  24.542   5.682   3.423
15996W        W80981  38.061  22.318   3.961
15997W        W80982  38.475  41.802  12.881
15998W        W80983  12.648  23.218   1.096
15999W        W80984  26.311  29.920  11.239
16000W        W80985  21.841  44.998  13.898
16001W        W80986   4.662   2.144   3.068
16002W        W80987   8.813  25.000  13.566
16003W        W80988  11.316   8.185  11.598
16004W        W80989  18.060  13.599  12.509
16005W        W80990  34.509  32.925  14.278
16006W        W80991   7.662  29.007   4.716
16007W        W80992  18.056  33.414  14.032
16008W        W80993   9.827  13.077  14.911
16009W        W80994   9.428  39.642   2.423
16010W        W80995  11.775  29.944   0.757
16011W        W80996  34.265  10.374  10.627
16012W        W80997  15.133  25.481   2.792
16013W        W80998  11.849   9.095   1.181
16014W        W80999  34.817  39.130   1.243
16015W        W81000   7.697   2.468   3.401
16016W        W81001   8.581  18.573   0.652
16017W        W81002   3.945  28.042   0.745
16018W        W81003  10.963  35.155   3.502
16019W        W81004  20.513   0.885   2.602
16020W        W81005   8.601  21.501   2.673
16021W        W81006  12.763  30.352   0.917
16022W        W81007  10.229  19.505  12.492
16023W        W81008   5.318  42.835  13.489
16024W        W81009   1.334   7.022  10.575
16025W        W81010  29.864  18.859  14.013
16026W        W81011  37.794  41.559  13.377
16027W        W81012   0.521  27.467  10.886
16028W        W81013  32.385   5.883   3.590
16029W        W81014   6.476  17.043  14.002
16030W        W81015   5.907  39.631   2.243
16031W        W81016  36.886  26.444   0.859
16032W        W81017  39.127  10.777  10.894
16033W        W81018  27.546  24.020   3.688
16034W        W81019   3.795   6.159   3.379
16035W        W81020  35.111  35.956  13.917
16036W        W81021  32.132   6.880  13.415
16037W        W81022   9.959  41.224   3.191
16038W        W81023  25.433  13.753  12.117
16039W        W81024  11.866  23.002   1.888
16040W        W81025  43.048  32.085  10.805
16041W        W81026   1.348  32.263  11.560
16042W        W81027  17.182  17.082   1.320
16043W        W81028  12.947  20.673   1.872
16044W        W81029   4.710  23.125  12.814
16045W        W81030  32.796  38.282   2.698
16046W        W81031  10.584   6.529  14.982
16047W        W81032  26.044  42.612  13.876
16048W        W81033  22.471  19.193   3.137
16049W        W81034  44.029   3.796  10.677
16050W        W81035  13.595  42.892   1.493
16051W        W81036  41.360  37.296   3.111
16052W        W81037  40.507  32.313   0.332
16053W        W81038   3.813  16.278   1.683
16054W        W81039   9.839   1.990  14.363
16055W        W81040  36.070   1.447   4.050
16056W        W81041   2.475  21.476   1.915
16057W        W81042  18.809  14.031  13.337
16058W        W81043  24.138  40.928  13.783
16059W        W81044   4.497  23.750  11.678
16060W        W81045  31.948   9.885  12.479
16061W        W81046  40.876  33.254  10.239
16062W        W81047  33.534  43.048  10.656
16063W        W81048  16.246  13.584   3.728
16064W        W81049  31.809  41.573  10.286
16065W        W81050  38.414   9.147  10.783
16066W        W81051  39.150  36.068  12.925
16067W        W81052  26.412  16.739  13.842
16068W        W81053  29.752  12.019   2.324
16069W        W81054  11.853  14.716   3.953
16070W        W81055  31.190  40.685  12.493
16071W        W81056  29.895   0.885   2.127
16072W        W81057  39.855   9.757   4.290
16073W        W81058   8.276  38.093  12.913
16074W        W81059  10.719  44.222  10.034
16075W        W81060  26.470   0.997   0.307
16076W        W81061   2.981  30.141   1.275
16077W        W81062  19.129  30.010  13.060
16078W        W81063  28.569   0.177  13.328
16079W        W81064  18.165   2.141  12.244
16080W        W81065  16.272  34.938   3.678
16081W        W81066  35.564  12.106   4.554
16082W        W81067  38.094  29.107  12.260
16083W        W81068   0.494  34.682   0.619
16084W        W81069   5.038  32.666  12.486
16085W        W81070  26.258   9.081   3.388
16086W        W81071  38.764  29.653   2.375
16087W        W81072  28.040  38.646  11.383
16088W        W81073  20.164  30.884  12.057
16089W        W81074  36.012  23.136   2.630
16090W        W81075  32.518  35.978  13.774
16091W        W81076   7.178   2.688   2.283
16092W        W81077   1.303   1.775  11.195
16093W        W81078  44.489  27.934  13.582
16094W        W81079  32.112  14.316   0.476
16095W        W81080  13.410   1.998  14.395
16096W        W81081  44.265  19.035   4.567
16097W        W81082  42.353  17.566  12.666
16098W        W81083  13.427  22.571   3.629
16099W        W81084  28.700  39.552  10.592
16100W        W81085  37.323   7.887   0.353
16101W        W81086  33.647  21.460  11.909
16102W        W81087  15.220  21.318   0.803
16103W        W81088   2.066  28.863  12.311
16104W        W81089   4.498  31.392  11.011
16105W        W81090  15.155  19.713  13.743
16106W        W81091  30.218   2.762   1.781
16107W        W81092   4.823  21.091  13.555
16108W        W81093  18.192  36.852  14.885
16109W        W81094  22.471  34.612   3.243
16110W        W81095  41.872  25.252  12.448
16111W        W81096  34.382  31.608  11.168
16112W        W81097  27.536  35.933   2.656
16113W        W81098   7.131  23.192   3.230
16114W        W81099  24.658   0.847   2.836
16115W        W81100  35.386  43.998  13.707
16116W        W81101  34.996  34.315   2.189
16117W        W81102  39.657  42.835   3.108
16118W        W81103  22.439   2.171   1.294
16119W        W81104  13.681  25.767   4.024
16120W        W81105  43.995  40.469  12.006
16121W        W81106  37.049  30.619   3.158
16122W        W81107   6.396  21.201  12.939
16123W        W81108  36.484  20.208   1.304
16124W        W81109   7.084   6.325  14.291
16125W        W81110  43.335  16.090   3.280
16126W        W81111  29.110  40.364   4.427
16127W        W81112  35.204  24.040   1.888
16128W        W81113   7.700   0.785   5.061
16129W        W81114  44.973  24.053   2.425
16130W        W81115  25.995  40.343  11.954
16131W        W81116   6.004  19.698  12.964
16132W        W81117  17.220  44.344   1.721
16133W        W81118   5.768  19.276  11.468
16134W        W81119  39.145  21.349  11.937
16135W        W81120  14.344  16.747  14.412
16136W        W81121   8.769   6.145  14.558
16137W        W81122  27.539  25.773   4.073
16138W        W81123  23.263  26.337  13.105
16139W        W81124  22.651  37.758   1.234
16140W        W81125  19.173  21.905  13.790
16141W        W81126  29.595  31.819  10.210
16142W        W81127  38.549  16.493  12.871
16143W        W81128  26.208  10.833  11.129
16144W        W81129   0.246  34.363   4.040
16145W        W81130  16.624  39.086   4.640
16146W        W81131  10.790  20.556  10.967
16147W        W81132   4.310  44.782  10.529
16148W        W81133  40.040   4.223  12.993
16149W        W81134  43.002   5.388   2.290
16150W        W81135  25.789  37.488  11.877
16151W        W81136  36.283  37.009  11.936
16152W        W81137   2.790  29.976   4.595
16153W        W81138   3.019  17.624  11.436
16154W        W81139   8.378  20.578  12.438
16155W        W81140  39.167  43.962  14.368
16156W        W81141   4.735  19.764   3.864
16157W        W81142  27.089  12.047  12.927
16158W        W81143  23.479  24.380  12.882
16159W        W81144  35.368  23.737  13.862
16160W        W81145  29.540   8.468  11.306
16161W        W81146  30.466   8.820   1.719
16162W        W81147  28.865   1.236  10.153
16163W        W81148  24.174  39.981  13.481
16164W        W81149  17.371  22.660   2.192
16165W        W81150  26.088   8.849  11.566
16166W        W81151  34.068  37.771   3.770
16167W        W81152   7.640  36.877  12.103
16168W        W81153   1.651  35.844   3.679
16169W        W81154   4.141  12.681   0.321
16170W        W81155   4.949   4.389   1.761
16171W        W81156  30.115   7.761   4.139
16172W        W81157   3.890  39.422   1.554
16173W        W81158   3.857  13.723  10.523
16174W        W81159  43.034   7.374   2.390
16175W        W81160  29.234  25.644  14.388
16176W        W81161  42.709   9.673   3.096
16177W        W81162  28.281  40.971  14.258
16178W        W81163  26.532  20.562   2.710
16179W        W81164  14.383  38.963  12.030
16180W        W81165  36.064  39.125   1.380
16181W        W81166  12.850  38.999  11.993
16182W        W81167  23.401  12.698  11.906
16183W        W81168  23.641  24.994   4.148
16184W        W81169  19.595  18.074  11.831
16185W        W81170   4.298  35.601  13.452
16186W        W81171   4.933  19.591   3.132
16187W        W81172  41.822  16.613  11.657
16188W        W81173  10.645   9.716  13.128
16189W        W81174  34.915  11.898   3.784
16190W        W81175  19.694   8.299  11.379
16191W        W81176  43.375  34.220  12.964
16192W        W81177   7.651  30.031   1.549
16193W        W81178   9.128  38.356   1.130
16194W        W81179  31.856  34.598  12.000
16195W        W81180  35.948   0.383  14.076
16196W        W81181   3.789  10.154   4.868
16197W        W81182  27.782  14.395  12.988
16198W        W81183  15.528  31.926   3.297
16199W        W81184  31.044   1.333   3.934
16200W        W81185  32.086  17.779   1.350
16201W        W81186  33.696  31.557   1.529
16202W        W81187  30.139   0.915   1.676
16203W        W81188   5.175  17.461  11.972
16204W        W81189  25.831   7.130  13.479
16205W        W81190  22.556  10.430   9.901
16206W        W81191  43.020  23.067   1.867
16207W        W81192  16.777  36.819   0.272
16208W        W81193  37.803   4.228   4.546
16209W        W81194  43.216  22.942  11.576
16210W        W81195  29.010   6.972   3.796
16211W        W81196   1.112  21.685   1.653
16212W        W81197  20.243  30.463   1.182
16213W        W81198  22.325   1.849   1.710
16214W        W81199  26.640  12.899   3.848
16215W        W81200  11.404  28.468   2.882
16216W        W81201  22.084   3.968  11.339
16217W        W81202  15.285  10.688  11.596
16218W        W81203  13.173  15.945   2.408
16219W        W81204  39.625  19.729  13.943
16220W        W81205  34.359   0.727  14.947
16221W        W81206  11.769  29.567   4.597
16222W        W81207  42.934  18.199  13.089
16223W        W81208   4.174   8.383  12.828
16224W        W81209  16.613  15.360   3.523
16225W        W81210  41.698  22.631  12.894
16226W        W81211  40.095  34.924   0.309
16227W        W81212  41.092   2.375  12.593
16228W        W81213  20.052  32.814   1.386
16229W        W81214   0.415  11.266  11.721
16230W        W81215   6.888   3.177   2.816
16231W        W81216  18.736  17.723  11.583
16232W        W81217  12.919  17.276   1.318
16233W        W81218  35.033  43.814   4.686
16234W        W81219  34.599  12.938   3.350
16235W        W81220  34.372  18.186  11.959
16236W        W81221  25.935  14.801   4.882
16237W        W81222  26.375  38.848   1.835
16238W        W81223   1.422  35.507  14.904
16239W        W81224   4.785  37.873  14.341
16240W        W81225  35.104  11.195  13.861
16241W        W81226  20.475  13.159   3.823
16242W        W81227  21.952   1.046   0.173
16243W        W81228  40.313  21.713   0.056
16244W        W81229   0.705  40.542   1.823
16245W        W81230   0.044  29.646   2.056
16246W        W81231  16.734  26.114  13.735
16247W        W81232  39.576  17.940  13.720
16248W        W81233  29.408  14.359  13.752
16249W        W81234  15.691   4.732   1.774
16250W        W81235  13.313  14.268  10.190
16251W        W81236   1.303   6.670   2.835
16252W        W81237  38.640  23.608  12.016
16253W        W81238  28.536  19.360   2.615
16254W        W81239  35.364   9.331  11.159
16255W        W81240  17.200   3.964  13.808
16256W        W81241  10.694  19.669  11.546
16257W        W81242  28.479  14.644   3.232
16258W        W81243  21.609  26.693   4.032
16259W        W81244  38.473  21.998  11.586
16260W        W81245   2.811  37.990  13.256
16261W        W81246   6.020  21.841  10.987
16262W        W81247  18.465  17.997  12.638
16263W        W81248  25.986  39.375  14.341
16264W        W81249  30.100  36.058  14.415
16265W        W81250  38.962  15.685   2.702
16266W        W81251   6.840  33.400   0.294
16267W        W81252  17.826  22.594   2.564
16268W        W81253   4.022   9.259   1.438
16269W        W81254  19.097  31.410  14.592
16270W        W81255  31.034  27.095  13.848
16271W        W81256  26.638   3.265  11.624
16272W        W81257   6.945  33.118  12.849
16273W        W81258   9.720  14.684   4.053
16274W        W81259  23.766  37.469   2.450
16275W        W81260   0.016  42.448   3.252
16276W        W81261   8.810  35.424  14.846
16277W        W81262  13.074  35.055   3.570
16278W        W81263  13.184  18.717   1.830
16279W        W81264  22.727  15.745   9.682
16280W        W81265   0.303   0.530   0.644
16281W        W81266   2.812  39.027   1.005
16282W        W81267  18.552  11.144   4.545
16283W        W81268   6.211  18.027  13.827
16284W        W81269  38.400  32.140   0.028
16285W        W81270  13.670   0.901  11.027
16286W        W81271   9.748  10.133   1.720
16287W        W81272  25.949   0.434  12.453
16288W        W81273  40.565  40.798  10.538
16289W        W81274  25.061  18.157  13.787
16290W        W81275  37.567  23.785   4.613
16291W        W81276   2.049  26.743  13.846
16292W        W81277  40.015  20.968  12.017
16293W        W81278  31.599  41.355  11.636
16294W        W81279  27.469  22.104   2.336
16295W        W81280  36.339   3.176   3.133
16296W        W81281   4.737  26.069   3.036
16297W        W81282  26.501   4.442   0.978
16298W        W81283  21.019  40.063   2.738
16299W        W81284  39.193   1.280  11.245
16300W        W81285  36.919  11.419  10.718
16301W        W81286   3.019  35.306   2.308
16302W        W81287   5.923  40.958   4.276
16303W        W81288  36.970  38.853   2.430
16304W        W81289  24.390   3.809   0.398
16305W        W81290  26.172  32.058  12.007
16306W        W81291  25.269   5.161  12.892
16307W        W81292   0.845  25.729   1.449
16308W        W81293  33.581  34.277   1.496
16309W        W81294  44.221  13.758  14.774
16310W        W81295  25.709  26.165  14.446
16311W        W81296  18.049  31.176   1.809
16312W        W81297   2.160  17.785   0.943
16313W        W81298  42.555   0.098   3.613
16314W        W81299   5.708  43.239  12.537
16315W        W81300  29.081  15.658   1.969
16316W        W81301  11.396  26.052  12.305
16317W        W81302   4.004  33.767  12.415
16318W        W81303  12.123  16.776  13.750
16319W        W81304  21.817  18.094   0.793
16320W        W81305  18.662  28.302  13.449
16321W        W81306   5.230  37.077   1.849
16322W        W81307   3.846  19.707  13.553
16323W        W81308  20.783   7.351   3.468
16324W        W81309  14.962  16.824  14.797
16325W        W81310  12.396  28.399  12.579
16326W        W81311  24.889  27.117  11.094
16327W        W81312  13.670  31.778   2.431
16328W        W81313  40.590  17.612  13.112
16329W        W81314  29.613   7.738   2.704
16330W        W81315  13.763  21.351   2.909
16331W        W81316  33.889  14.843   3.082
16332W        W81317  26.053   3.349   0.696
16333W        W81318   3.468  12.763   1.189
16334W        W81319  24.163  43.844   2.786
16335W        W81320  23.968  17.731  11.401
16336W        W81321   1.259  12.482   4.860
16337W        W81322  24.502  26.296  12.016
16338W        W81323  39.551   3.951   0.882
16339W        W81324   3.532  17.896  13.855
16340W        W81325  12.902  10.880  13.428
16341W        W81326   7.678   1.568  12.349
16342W        W81327   1.019  30.073   0.005
16343W        W81328   7.421   6.473   2.661
16344W        W81329  33.100   2.777   0.034
16345W        W81330  28.648  14.743  10.584
16346W        W81331   3.725  28.183  13.450
16347W        W81332  31.551   2.690  11.454
16348W        W81333  35.113  24.694  10.862
16349W        W81334  36.874  35.694  14.813
16350W        W81335  31.501  27.161  12.985
16351W        W81336  16.151  37.301  10.464
16352W        W81337   1.403  35.390  13.373
16353W        W81338  35.859  26.156  14.898
16354W        W81339  35.457  20.788   3.149
16355W        W81340  26.697   9.837   2.373
16356W        W81341   0.834  38.535   0.427
16357W        W81342  25.669  10.728  12.392
16358W        W81343  35.889   8.524   1.995
16359W        W81344  21.289   1.422  14.477
16360W        W81345  43.203  41.354  13.570
16361W        W81346  24.196  15.574   0.785
16362W        W81347  44.304   5.218   2.391
16363W        W81348  27.357  17.827   1.437
16364W        W81349  43.805  29.822  13.892
16365W        W81350  18.418  36.420  12.468
16366W        W81351  15.835  43.743   3.318
16367W        W81352   0.526  42.490   3.252
16368W        W81353  39.817  31.509   1.577
16369W        W81354  20.559  43.102  12.118
16370W        W81355  41.043  18.349   0.975
16371W        W81356  30.952  38.315  12.417
16372W        W81357   6.003   7.846  11.572
16373W        W81358   8.191   3.173   3.743
16374W        W81359  17.032   8.562  13.026
16375W        W81360  44.352  40.067   0.546
16376W        W81361  44.784  30.372  13.644
16377W        W81362  34.368  36.619   1.306
16378W        W81363  10.499  27.659  13.939
16379W        W81364  37.965  29.617   4.106
16380W        W81365  15.057  19.221  14.315
16381W        W81366  25.505  40.172  12.967
16382W        W81367  32.399  17.172   4.889
16383W        W81368  15.328  10.852   3.159
16384W        W81369  21.657  16.715  13.759
16385W        W81370  34.289  27.999  13.049
16386W        W81371   9.211  39.528   2.873
16387W        W81372  20.712  35.902   3.909
16388W        W81373  20.780  10.903   2.927
16389W        W81374   8.293  23.779   2.265
16390W        W81375   2.272  26.073  14.385
16391W        W81376  42.208  44.284  12.211
16392W        W81377  33.990  43.791  11.091
16393W        W81378  20.557   5.012  14.980
16394W        W81379  12.789  28.010  10.841
16395W        W81380   8.822   1.658   4.236
16396W        W81381  19.318   7.956   1.557
16397W        W81382  12.332   1.829   4.129
16398W        W81383  10.402  31.923  12.851
16399W        W81384  11.746  43.549   3.641
16400W        W81385  44.148  41.360  14.431
16401W        W81386  26.429  21.012   3.570
16402W        W81387  10.383   8.688  10.535
16403W        W81388   2.964  36.957   3.875
16404W        W81389   7.272   9.004  13.017
16405W        W81390  19.115  33.245  12.424
16406W        W81391  39.042  25.097   3.194
16407W        W81392   1.744   2.141  13.967
16408W        W81393  10.625   7.307   9.732
16409W        W81394  44.162  11.992   2.333
16410W        W81395   2.594  21.986   3.680
16411W        W81396  12.400  18.067  12.516
16412W        W81397   4.125  25.073   0.253
16413W        W81398  41.100  44.332   4.181
16414W        W81399  14.340  29.451  14.317
16415W        W81400   1.999  19.537  14.387
16416W        W81401  17.580  17.172  13.157
16417W        W81402  31.518  31.276  10.637
16418W        W81403  11.099  22.981   4.723
16419W        W81404   8.278   7.866   0.486
16420W        W81405  32.010  20.009   1.902
16421W        W81406  25.252  17.477  13.209
16422W        W81407  25.749  43.010   3.250
16423W        W81408  11.391  13.755   1.455
16424W        W81409  24.107  37.947   2.659
16425W        W81410  29.044  28.517   3.266
16426W        W81411   5.904  16.685  14.382
16427W        W81412  21.353  26.514  14.302
16428W        W81413   6.869  11.862  11.460
16429W        W81414  43.146  23.901  10.250
16430W        W81415  42.372  31.718   4.325
16431W        W81416  21.606  40.096   0.331
16432W        W81417  41.887  12.393   1.133
16433W        W81418  36.841  39.565   3.172
16434W        W81419  32.522  24.093   2.903
16435W        W81420  38.033  28.393   3.748
16436W        W81421  42.903  40.558   3.649
16437W        W81422   8.578  20.690  13.009
16438W        W81423  39.434   7.352  14.193
16439W        W81424  32.158  39.131   4.266
16440W        W81425  10.236  16.782   4.986
16441W        W81426  28.218  36.853   3.317
16442W        W81427  41.741  34.208   0.125
16443W        W81428   0.778  19.306   1.481
16444W        W81429  40.940  25.271  13.515
16445W        W81430  25.271  11.820  14.071
16446W        W81431  19.751  13.235  12.546
16447W        W81432   5.710  22.049   1.195
16448W        W81433  31.397  31.367   0.844
16449W        W81434   8.295  30.971   2.633
16450W        W81435   4.469  34.212   2.814
16451W        W81436   2.788  10.339  10.803
16452W        W81437  30.720   4.221   0.773
16453W        W81438  17.201  11.674  14.539
16454W        W81439  39.134  35.583  12.139
16455W        W81440  37.758  24.291   4.721
16456W        W81441  38.428  22.768  12.061
16457W        W81442  44.002   8.902  11.223
16458W        W81443  16.897   4.209  14.991
16459W        W81444   9.701  32.451   2.709
16460W        W81445  13.932  21.923  12.577
16461W        W81446   4.321  36.891   4.289
16462W        W81447   5.473  10.715   4.466
16463W        W81448  15.143  35.676  13.462
16464W        W81449  41.285   3.576   1.137
16465W        W81450  30.110  27.687  11.933
16466W        W81451   8.339  26.966  14.508
16467W        W81452   7.146   4.947  12.941
16468W        W81453  18.492  40.236   2.974
16469W        W81454  15.820  16.157   3.306
16470W        W81455  32.325  33.027   0.801
16471W        W81456   8.175  31.907  11.021
16472W        W81457   8.295  31.933  13.311
16473W        W81458  16.712  38.192  11.204
16474W        W81459   6.411  27.213  10.211
16475W        W81460  28.089  33.421   0.344
16476W        W81461   9.161  26.608   0.079
16477W        W81462  37.121  29.059  11.002
16478W        W81463   8.557  15.236   1.262
16479W        W81464   9.596  13.275  13.467
16480W        W81465  31.700  38.868  11.179
16481W        W81466  41.597  26.083  12.186
16482W        W81467  15.283  14.400  13.801
16483W        W81468   0.687  12.726  10.787
16484W        W81469   5.202  13.587   4.607
16485W        W81470  36.069   0.721  13.045
16486W        W81471  38.791  11.670   1.429
16487W        W81472  23.057   0.285   0.816
16488W        W81473   2.743  28.026   1.005
16489W        W81474   5.680  19.459   0.538
16490W        W81475  23.016  43.302   1.274
16491W        W81476   3.290  28.483   4.564
16492W        W81477  12.028  36.266  13.961
16493W        W81478  12.433  19.057  14.408
16494W        W81479  35.881   0.421   0.536
16495W        W81480  17.296  29.890   2.777
16496W        W81481  25.134   1.479   2.213
16497W        W81482  42.212  29.826  10.679
16498W        W81483  17.453  24.898   2.502
16499W        W81484  35.352  18.996  11.109
16500W        W81485  10.121  12.800   3.556
16501W        W81486  14.836  13.857  11.539
16502W        W81487  33.222  37.259  11.713
16503W        W81488   1.355   4.937   3.195
16504W        W81489  26.905  33.794   5.027
16505W        W81490  42.504  33.116   2.309
16506W        W81491  37.589  14.846  12.578
16507W        W81492  42.018   2.212   3.730
16508W        W81493  11.837  33.734   0.903
16509W        W81494   2.297  14.690  13.918
16510W        W81495  43.661   9.411   2.851
16511W        W81496  18.616  40.009  12.683
16512W        W81497   5.433  40.972  11.487
16513W        W81498  44.250  43.179  11.601
16514W        W81499  14.873  19.177  14.823
16515W        W81500  20.648   6.693   1.907
16516W        W81501  32.726  13.222  10.019
16517W        W81502   9.737   1.424  12.894
16518W        W81503   9.950  15.882   0.026
16519W        W81504  20.876  35.051   5.150
16520W        W81505  25.570  34.395   0.465
16521W        W81506  38.467   4.636   4.576
16522W        W81507  27.946  29.445   3.199
16523W        W81508  41.829  40.893  12.534
16524W        W81509  10.165  43.061   4.606
16525W        W81510  17.161  40.835   0.539
16526W        W81511  35.986  31.068  11.932
16527W        W81512   7.116  13.704   3.459
16528W        W81513   8.219  24.255  11.501
16529W        W81514  12.812  28.019   4.887
16530W        W81515  35.333  21.817   3.275
16531W        W81516   0.767  13.346   1.484
16532W        W81517  32.196   6.697   1.371
16533W        W81518   4.632  21.328   0.926
16534W        W81519  29.046  11.747   4.727
16535W        W81520   0.321   7.171  12.020
16536W        W81521   6.525  14.171   4.041
16537W        W81522   7.976  39.413   4.155
16538W        W81523  13.144   3.093  10.640
16539W        W81524  25.555  25.876   3.593
16540W        W81525  22.988   9.621  14.763
16541W        W81526  10.838  24.426  11.548
16542W        W81527  31.123  25.113   5.177
16543W        W81528   1.373  28.764  11.170
16544W        W81529  10.879  27.998  11.884
16545W        W81530  20.307   6.426   3.717
16546W        W81531  24.023  38.653  12.944
16547W        W81532   2.373  22.446  14.851
16548W        W81533  21.536  44.481   0.334
16549W        W81534  12.133  19.593   3.914
16550W        W81535  21.276   1.979  10.246
16551W        W81536  30.938  38.749  14.446
16552W        W81537  18.764  34.816   2.471
16553W        W81538   5.709  17.587   2.444
16554W        W81539   4.905   3.076  10.756
16555W        W81540  42.844  42.736   2.655
16556W        W81541  17.036  38.776  13.074
16557W        W81542  14.232  26.641   3.448
16558W        W81543   9.693   3.571   3.662
16559W        W81544  41.895   0.861  11.821
16560W        W81545   5.809  34.081   2.214
16561W        W81546   1.428   3.255   3.105
16562W        W81547  19.594   1.987  14.825
16563W        W81548  39.426   8.451   0.242
16564W        W81549  24.967  39.630   3.727
16565W        W81550  30.548  19.691  11.088
16566W        W81551  40.348  34.977   0.789
16567W        W81552   4.450  24.150  13.838
16568W        W81553  18.545  16.570  13.552
16569W        W81554  42.209  36.896   1.334
16570W        W81555  32.839  39.922   4.211
16571W        W81556   2.428   5.746   4.171
16572W        W81557  36.338  18.006   1.555
16573W        W81558  25.574  29.656   4.115
16574W        W81559  14.147  12.196  13.457
16575W        W81560  26.585  17.676   4.542
16576W        W81561   2.480  43.217  12.577
16577W        W81562   4.729  41.409   2.564
16578W        W81563  38.388  40.667  12.560
16579W        W81564  41.668  34.842   3.343
16580W        W81565  12.749  43.767  11.630
16581W        W81566  41.304   2.449   4.168
16582W        W81567  22.564  43.432  13.835
16583W        W81568  14.665  36.573  13.535
16584W        W81569  39.650   0.713   2.811
16585W        W81570  16.091  10.150  12.621
16586W        W81571   1.288  43.440  12.794
16587W        W81572  21.192  22.356  12.968
16588W        W81573  33.104  21.768   0.874
16589W        W81574  11.839  20.228   1.399
16590W        W81575  42.784  11.643   3.628
16591W        W81576  11.207   0.231  13.430
16592W        W81577  31.154  31.463  14.023
16593W        W81578   3.914  38.751   0.296
16594W        W81579  24.582  24.011  12.030
16595W        W81580  21.979  29.866   5.471
16596W        W81581  40.011  20.848  14.108
16597W        W81582  26.256  12.679   3.594
16598W        W81583   3.230  25.525   5.098
16599W        W81584  17.507  31.442  13.088
16600W        W81585  17.077  18.027   2.269
16601W        W81586  15.567  23.021   5.179
16602W        W81587  40.483   6.958  11.944
16603W        W81588  27.380  43.677   2.949
16604W        W81589  44.549  17.499   3.775
16605W        W81590   2.313  33.920  14.968
16606W        W81591  39.466  11.269   0.815
16607W        W81592  25.704  22.195  10.432
16608W        W81593  22.247  33.516   1.941
16609W        W81594   8.844  25.581   0.881
16610W        W81595  31.499  35.883   1.209
16611W        W81596  31.081  29.733  13.315
16612W        W81597   8.707  19.048  13.116
16613W        W81598  13.699  26.130   3.632
16614W        W81599  31.607  35.421   1.416
16615W        W81600  36.569   0.517   2.232
16616W        W81601  38.814  34.003  11.018
16617W        W81602   7.203  37.210   0.705
16618W        W81603  14.328  37.899   3.300
16619W        W81604  26.841  35.295  12.940
16620W        W81605  22.542  35.253  11.914
16621W        W81606  41.529   0.832  12.187
16622W        W81607  40.803  38.589  12.374
16623W        W81608   5.334  18.194  11.660
16624W        W81609  23.657  14.417   1.745
16625W        W81610  37.620  25.568   0.397
16626W        W81611  41.153  26.007   2.611
16627W        W81612  13.864   3.667  11.535
16628W        W81613  34.735   6.605  11.135
16629W        W81614  12.185  35.340  12.906
16630W        W81615  26.050   9.488  12.451
16631W        W81616   8.556   7.329   2.726
16632W        W81617  27.229   6.308   4.360
16633W        W81618  26.535  10.363  12.884
16634W        W81619  11.285   9.614   3.662
16635W        W81620   0.354  44.796   0.208
16636W        W81621  30.617   9.322  11.499
16637W        W81622  30.088  40.854  14.488
16638W        W81623  22.926   6.352   3.323
16639W        W81624  31.818  15.628   4.131
16640W        W81625   1.763   1.780  10.452
16641W        W81626  27.052  19.853  11.002
16642W        W81627  20.995  31.051  14.340
16643W        W81628  30.409  17.615   4.072
16644W        W81629   5.346  37.931   0.531
16645W        W81630  34.400  38.284  12.437
16646W        W81631  35.122  20.022   4.272
16647W        W81632  38.253  21.106  14.657
16648W        W81633  41.469  15.501   4.573
16649W        W81634  37.073  29.583   1.729
16650W        W81635  25.490  27.853   3.628
16651W        W81636  42.243  38.347  12.498
16652W        W81637  28.899   8.925  11.821
16653W        W81638  24.953  33.423  14.316
16654W        W81639  14.549  11.072  12.563
16655W        W81640  28.970  14.365   1.693
16656W        W81641  22.691  21.904  14.756
16657W        W81642   8.469   5.564  12.935
16658W        W81643   8.632  37.361  10.751
16659W        W81644  20.538  12.238  11.505
16660W        W81645  37.844  41.398   3.060
16661W        W81646  20.225  34.065   3.129
16662W        W81647  23.502   1.432   1.211
16663W        W81648  13.610  38.943  13.110
16664W        W81649  12.510  24.506   4.557
16665W        W81650  26.271  41.876  12.993
16666W        W81651  16.276  23.672   3.093
16667W        W81652  39.511  23.689   2.693
16668W        W81653  10.232  44.571  12.912
16669W        W81654  12.567  27.540   5.323
16670W        W81655   9.777  19.908  13.816
16671W        W81656  38.122  35.015   2.834
16672W        W81657  39.018  10.211  13.843
16673W        W81658  20.623  14.994  12.545
16674W        W81659   9.066  43.414  12.409
16675W        W81660  12.142  32.464   3.151
16676W        W81661   4.390  35.130  13.929
16677W        W81662  28.060   7.374   3.148
16678W        W81663  39.952   9.694   3.321
16679W        W81664  21.406  42.920   3.155
16680W        W81665   1.230  16.560  13.372
16681W        W81666   0.051  44.028  14.029
16682W        W81667  19.850  44.861   1.388
16683W        W81668  37.061   1.457  13.563
16684W        W81669   7.408   2.276  10.258
16685W        W81670  44.032   0.944  11.611
16686W        W81671  40.262  18.278  12.950
16687W        W81672   3.560  40.352   3.147
16688W        W81673  36.111   3.476  14.787
16689W        W81674  32.104  36.450   4.025
16690W        W81675  21.728  38.150  13.608
16691W        W81676  42.011  22.169  11.509
16692W        W81677  10.174  31.891  14.409
16693W        W81678  42.937  19.865  14.578
16694W        W81679  28.215   4.403  14.496
16695W        W81680  31.542  33.104   1.895
16696W        W81681  24.073  34.884  12.989
16697W        W81682  37.375  31.529   4.258
16698W        W81683   7.324  32.482   3.887
16699W        W81684  12.799  27.020  10.691
16700W        W81685  37.917  34.956   0.389
16701W        W81686  34.009  22.648   1.915
16702W        W81687  38.024   3.403   3.037
16703W        W81688  29.926  39.341  13.902
16704W        W81689  35.287  16.256   4.335
16705W        W81690  35.446  36.922  11.606
16706W        W81691  20.366  39.516   1.566
16707W        W81692   7.590  12.272  13.972
16708W        W81693  12.041  39.945  14.776
16709W        W81694  24.095   1.199  10.227
16710W        W81695  29.254  34.911  14.823
16711W        W81696  39.272   9.383   3.011
16712W        W81697  23.758  36.843  12.927
16713W        W81698  26.740  35.360  11.076
16714W        W81699  31.846  34.860  13.513
16715W        W81700  44.402   5.318   3.877
16716W        W81701  20.143  31.607   1.885
16717W        W81702  17.355   0.257   1.368
16718W        W81703  33.809  30.867  13.922
16719W        W81704   0.998  33.792   2.135
16720W        W81705   2.183  19.041   1.472
16721W        W81706  39.414   0.484  13.404
16722W        W81707  41.359  42.149   4.460
16723W        W81708  19.591  18.390   3.677
16724W        W81709  37.441  34.978   4.545
16725W        W81710  29.704  24.192   4.528
16726W        W81711  39.858  12.589  12.490
16727W        W81712  19.721  16.169   1.325
16728W        W81713  41.489   3.388   4.550
16729W        W81714   5.112  24.388   3.304
16730W        W81715   9.972  35.341   0.315
16731W        W81716  19.188  42.017   1.124
16732W        W81717  36.930   2.948  13.421
16733W        W81718  39.392  29.948   2.567
16734W        W81719  24.005  17.245  12.907
16735W        W81720  44.287   1.605  13.405
16736W        W81721  21.060  36.497  13.827
16737W        W81722  10.961  37.440   0.473
16738W        W81723  44.607  34.141   2.904
16739W        W81724  43.228  14.182   0.390
16740W        W81725  10.055  14.279   1.486
16741W        W81726  23.914  20.004  13.234
16742W        W81727  39.949   6.887  11.273
16743W        W81728  21.649   5.808  12.105
16744W        W81729  41.569  10.702   2.314
16745W        W81730  29.986   7.705   3.339
16746W        W81731  38.355  19.687   0.345
16747W        W81732  44.848  34.146  13.845
16748W        W81733  42.731   1.637   1.445
16749W        W81734  23.236  34.010   0.407
16750W        W81735  29.425   9.961   4.570
16751W        W81736  34.541  33.531   1.169
16752W        W81737  20.101  34.159  12.598
16753W        W81738  12.680  28.032  12.363
16754W        W81739  31.241  29.486   4.541
16755W        W81740  39.466  32.884   3.619
16756W        W81741  44.576  19.210   2.888
16757W        W81742   5.401  33.160  13.600
16758W        W81743  34.784  29.015  11.618
16759W        W81744  35.092   8.969  13.367
16760W        W81745   8.975   7.161   1.898
16761W        W81746  21.305   9.676   0.748
16762W        W81747  40.808   2.320   4.186
16763W        W81748  31.246  33.919  12.235
16764W        W81749  35.166  27.165   1.832
16765W        W81750  18.080  43.288  11.974
16766W        W81751  21.564  32.514  12.636
16767W        W81752  21.741  29.101  14.975
16768W        W81753  39.510   0.952  12.037
16769W        W81754  18.726   4.297   4.478
16770W        W81755  25.693  44.121  10.900
16771W        W81756  36.139  42.268   0.738
16772W        W81757  24.964  38.022   0.474
16773W        W81758   5.360   4.317  11.141
16774W        W81759   3.476  36.266  14.823
16775W        W81760  32.870  18.638   2.044
16776W        W81761   3.362  24.281   2.195
16777W        W81762  33.066  34.674   0.269
16778W        W81763  34.956   7.490   0.464
16779W        W81764  24.984  25.099   4.707
16780W        W81765   1.988   4.780   0.959
16781W        W81766   5.878  34.047   2.716
16782W        W81767   1.198   0.016  10.726
16783W        W81768  42.373  12.108  14.885
16784W        W81769  22.077   6.058   1.732
16785W        W81770  21.834  10.774   0.447
16786W        W81771  20.262  13.708   0.789
16787W        W81772   8.731  40.761   3.082
16788W        W81773  19.209   4.965   3.798
16789W        W81774  20.063   2.219  12.998
16790W        W81775  34.347   0.386  12.885
16791W        W81776  28.062  10.306   3.835
16792W        W81777  37.480  35.273   0.324
16793W        W81778   1.494  35.527  11.870
16794W        W81779  34.481  11.882   0.903
16795W        W81780  21.064  14.587  13.462
16796W        W81781  35.916  37.095  12.935
16797W        W81782   0.355  24.829  13.157
16798W        W81783  25.726  24.757  12.075
16799W        W81784  16.032  11.428   2.810
16800W        W81785  40.112  10.676  14.381
16801W        W81786  42.591   2.417  14.952
16802W        W81787  11.384  23.588   4.113
16803W        W81788  10.513   7.395   0.799
16804W        W81789  25.621  18.901  11.513
16805W        W81790   7.888  17.582  13.788
16806W        W81791  11.783  39.863   0.960
16807W        W81792   7.584  28.695   0.972
16808W        W81793  30.040   2.344  11.719
16809W        W81794  31.197  26.831   9.927
16810W        W81795  19.181  36.590  13.057
16811W        W81796  29.818   4.737  14.977
16812W        W81797  17.354  14.768   1.353
16813W        W81798  37.985  22.402  13.345
16814W        W81799   8.870  27.914   0.181
16815W        W81800  22.240  25.424   1.252
16816W        W81801  34.601  27.173  11.495
16817W        W81802  24.499  32.875   0.979
16818W        W81803  20.705  17.308  12.203
16819W        W81804  13.852  37.498  13.903
16820W        W81805  11.690  14.293  11.405
16821W        W81806  25.592  33.403  14.893
16822W        W81807  19.488  27.488   3.747
16823W        W81808  20.549  38.135   4.158
16824W        W81809   2.750   0.501   1.674
16825W        W81810  27.262  25.920  11.128
16826W        W81811   5.744  41.437  13.318
16827W        W81812   0.666  24.670  13.543
16828W        W81813  18.343  27.370  10.228
16829W        W81814  17.799  14.711  14.934
16830W        W81815   3.900  38.742  12.160
16831W        W81816  16.138  33.022  11.140
16832W        W81817  29.334   9.197  13.703
16833W        W81818   5.804  31.198  13.842
16834W        W81819  32.854  18.092   3.711
16835W        W81820  18.209   4.875  12.519
16836W        W81821  15.895  15.239  12.827
16837W        W81822  44.491  29.538  13.422
16838W        W81823   3.070  44.277   4.951
16839W        W81824   9.781  27.201   4.624
16840W        W81825  37.044  41.027   3.015
16841W        W81826  43.987  30.080  12.162
16842W        W81827  27.358  28.995   4.516
16843W        W81828  28.098  35.127   3.737
16844W        W81829  28.007  12.635   2.608
16845W        W81830  20.540  20.984   0.499
16846W        W81831   2.578  17.017   1.844
16847W        W81832  31.138  19.714   0.707
16848W        W81833  31.275  23.257   0.301
16849W        W81834  41.795  32.015  14.451
16850W        W81835   5.840   9.711  11.406
16851W        W81836  13.951  36.366  14.866
16852W        W81837   5.893   3.216   2.681
16853W        W81838   6.586   7.350  14.344
16854W        W81839  43.918  23.570   2.227
16855W        W81840  24.934   2.241   2.945
16856W        W81841  37.505   6.210  12.967
16857W        W81842   4.838  10.688   3.256
16858W        W81843  12.950  32.154   4.984
16859W        W81844  12.107   2.527   3.370
16860W        W81845  40.987   5.221  13.940
16861W        W81846  43.634  17.160  12.912
16862W        W81847  21.589   2.467   0.474
16863W        W81848  19.503  37.552  12.248
16864W        W81849  40.394  20.659   4.507
16865W        W81850  13.406  10.949   1.172
16866W        W81851  30.263  25.108  11.496
16867W        W81852   6.230  40.072   4.200
16868W        W81853  44.282  36.260   4.532
16869W        W81854  43.979  19.729   3.901
16870W        W81855   7.433  39.823   0.393
16871W        W81856  10.586  35.381  11.657
16872W        W81857  27.857   0.790  14.153
16873W        W81858   0.923  39.822   0.875
16874W        W81859  34.368  19.679  10.527
16875W        W81860  41.897  42.725   2.614
16876W        W81861  35.387  34.691  14.576
16877W        W81862  34.068  42.375  13.130
16878W        W81863  11.836  29.222  10.308
16879W        W81864   2.596  30.188   0.467
16880W        W81865   3.404  37.458   5.180
16881W        W81866  37.490  38.470  13.222
16882W        W81867  33.692  22.182   3.948
16883W        W81868  24.639  10.391  13.572
16884W        W81869  15.089   8.215  14.395
16885W        W81870  33.576  19.961  13.791
16886W        W81871  27.656  44.314  13.180
16887W        W81872  22.032  21.015  13.767
16888W        W81873   4.507   3.462   2.244
16889W        W81874  14.268  42.000   0.865
16890W        W81875  41.862  17.187  13.929
16891W        W81876  35.881   2.278  12.860
16892W        W81877  44.251  35.989   0.880
16893W        W81878  28.184  11.829   3.624
16894W        W81879  40.444  10.951  11.223
16895W        W81880  11.641  13.915  10.444
16896W        W81881   6.318  43.135  12.886
16897W        W81882  39.394   2.964  13.569
16898W        W81883  38.029  33.116   1.032
16899W        W81884  36.065  15.386   3.354
16900W        W81885  36.648   5.237  11.639
16901W        W81886  32.915  42.832  13.465
16902W        W81887  25.897  26.518   2.779
16903W        W81888  17.032   1.041   4.282
16904W        W81889  17.811  35.848  10.390
16905W        W81890  28.862  31.616   3.029
16906W        W81891   0.114   1.973   1.038
16907W        W81892  16.675  35.034  14.734
16908W        W81893  29.980  40.629  12.109
16909W        W81894  14.621  10.246   4.591
16910W        W81895  28.943  27.547   2.929
16911W        W81896  40.828  32.857   2.832
16912W        W81897  22.117  37.344   4.549
16913W        W81898  21.183  13.589  13.248
16914W        W81899  33.637  17.563   4.659
16915W        W81900  25.925  30.869  12.517
16916W        W81901   4.199  44.902  13.337
16917W        W81902   8.354  30.991  11.731
16918W        W81903   9.238  21.024   1.692
16919W        W81904   3.941  34.846   2.254
16920W        W81905  28.165  34.283   0.879
16921W        W81906  22.075  28.255  14.880
16922W        W81907  44.841  26.592   0.432
16923W        W81908  20.633   9.168   3.340
16924W        W81909  16.373   2.301   2.812
16925W        W81910  39.570  37.197  14.749
16926W        W81911  20.752   7.503   5.113
16927W        W81912   4.039   9.893   4.141
16928W        W81913  23.421  24.574   1.749
16929W        W81914  32.381  21.524  13.908
16930W        W81915  32.647  31.895  13.450
16931W        W81916  25.647  34.852   0.783
16932W        W81917  34.074  20.790   2.509
16933W        W81918  18.210  22.974  14.446
16934W        W81919  18.737  18.229  13.019
16935W        W81920  37.305  13.399  11.955
16936W        W81921  40.507  34.430   0.456
16937W        W81922  20.085  16.816   0.767
16938W        W81923  40.267  26.403  13.844
16939W        W81924  33.615   6.426   0.906
16940W        W81925  39.056  32.469  11.628
16941W        W81926  35.735  35.114  13.755
16942W        W81927  36.451  18.266  11.870
16943W        W81928  22.858  13.256  14.797
16944W        W81929  18.786  24.196   1.672
16945W        W81930  28.895  31.536  13.083
16946W        W81931  11.121  33.562   1.426
16947W        W81932  42.720   6.110   4.994
16948W        W81933   9.534  28.711   4.534
16949W        W81934  30.466  35.576  11.004
16950W        W81935  21.137  24.579  14.026
16951W        W81936  43.298  30.498  10.703
16952W        W81937  33.499   1.430   0.020
16953W        W81938  40.720  32.842   4.402
16954W        W81939   0.301   0.192  12.218
16955W        W81940  31.476  31.608  13.580
16956W        W81941  13.695  14.682  11.678
16957W        W81942   7.644  20.771   3.254
16958W        W81943  15.296  41.549   4.400
16959W        W81944  12.186   6.910   3.283
16960W        W81945  23.989  31.554  12.384
16961W        W81946  40.338  44.446  12.345
16962W        W81947  22.665   4.658  12.078
16963W        W81948  28.479  29.017  10.648
16964W        W81949  36.345  37.849  11.458
16965W        W81950  25.097  19.561  12.577
16966W        W81951   6.370   0.423  10.967
16967W        W81952  44.065  37.778  13.364
16968W        W81953  17.058  35.076   3.241
16969W        W81954  36.533  39.001   2.148
16970W        W81955  34.660   2.333   0.721
16971W        W81956  39.632   2.187   3.750
16972W        W81957   3.430  40.795  14.369
16973W        W81958  27.191   7.947  13.896
16974W        W81959  35.719  42.782   0.621
16975W        W81960  33.408  40.276  12.123
16976W        W81961   8.871  41.042   0.973
16977W        W81962  19.288  29.873  10.959
16978W        W81963  39.460  44.491  11.003
16979W        W81964  43.541  41.757  14.536
16980W        W81965  11.203  27.180   0.468
16981W        W81966  27.482   5.868  13.911
16982W        W81967  29.996  40.770   2.872
16983W        W81968  17.540  28.044   3.238
16984W        W81969   4.235  23.215   0.534
16985W        W81970  29.596  42.101  13.393
16986W        W81971   1.808  22.466   3.325
16987W        W81972  10.006  18.773   1.769
16988W        W81973  36.143  39.767   4.551
16989W        W81974  32.863  35.808   4.114
16990W        W81975  33.861   2.251  11.683
16991W        W81976   0.731  35.593  11.688
16992W        W81977  12.597  31.367   1.808
16993W        W81978  26.222  20.004  14.942
16994W        W81979  19.811  30.431  12.030
16995W        W81980  31.929  14.396   2.284
16996W        W81981  44.869   3.639   2.727
16997W        W81982  20.253  27.521   3.247
16998W        W81983  36.631  41.325   1.096
16999W        W81984   3.896   9.677   4.596
17000W        W81985  25.235  42.341  14.333
17001W        W81986  27.904  37.086   0.763
17002W        W81987   5.434  41.986   2.847
17003W        W81988  31.098  18.515   1.434
17004W        W81989  17.343  38.626  13.462
17005W        W81990   8.690  36.154   3.762
17006W        W81991  19.634  18.035   1.789
17007W        W81992  32.010  23.739   1.332
17008W        W81993  34.076  17.213   2.914
17009W        W81994  12.561  26.526   2.420
17010W        W81995   1.419   0.496  13.267
17011W        W81996  40.849  13.755   9.782
17012W        W81997  10.833  23.065   0.824
17013W        W81998  19.351   5.462   3.768
17014W        W81999  44.762  29.632   3.760
17015W        W82000  23.768   7.502  11.154
17016W        W82001  43.182  32.191  14.393
17017W        W82002   2.346  33.461  12.181
17018W        W82003   2.487  38.383  12.942
17019W        W82004  30.033  34.656  13.392
17020W        W82005   2.075  43.873   4.610
17021W        W82006  25.901  20.815  14.304
17022W        W82007  21.597  28.867  14.524
17023W        W82008   9.316  24.229  12.085
17024W        W82009  25.596  28.650  14.835
17025W        W82010   6.000  23.574   3.763
17026W        W82011  23.563  39.330   1.934
17027W        W82012   2.323  25.953  12.558
17028W        W82013  30.294  33.629   3.846
17029W        W82014  25.161  15.061  10.979
17030W        W82015  14.458  31.898   3.562
17031W        W82016  29.112  41.456  13.802
17032W        W82017  14.676  33.422   1.782
17033W        W82018   9.270  24.115   4.890
17034W        W82019  31.178  26.375   2.611
17035W        W82020  38.628   5.140   4.627
17036W        W82021  20.099   0.015   1.817
17037W        W82022  30.605  22.931   4.351
17038W        W82023  32.971  23.197   0.756
17039W        W82024  10.097  11.377   3.579
17040W        W82025  31.925  41.852   3.087
17041W        W82026  15.087   9.326   1.758
17042W        W82027  17.491  15.063  11.106
17043W        W82028   0.345  27.485   1.441
17044W        W82029  19.226   8.398  14.556
17045W        W82030  18.074  15.033   4.227
17046W        W82031   4.686  29.444   2.356
17047W        W82032  21.771  18.636   4.084
17048W        W82033  21.704  25.581   4.218
17049W        W82034  42.583   9.491  11.884
17050W        W82035  33.117  12.408  11.008
17051W        W82036  25.048  14.045   2.668
17052W        W82037  39.459  41.578   0.455
17053W        W82038  25.604  40.095   2.778
17054W        W82039   3.540  34.956  10.783
17055W        W82040  32.020   8.247  10.972
17056W        W82041  42.377   5.591  13.661
17057W        W82042  22.907  35.982  12.597
17058W        W82043  18.558   2.204   2.794
17059W        W82044  31.970  40.492   3.602
17060W        W82045  34.613  30.268  12.945
17061W        W82046  11.626   6.483   2.249
17062W        W82047  42.876  13.562   1.926
17063W        W82048  20.328  25.122   1.117
17064W        W82049   2.779   9.755   2.777
17065W        W82050  32.921  35.301   2.641
17066W        W82051   0.423  42.259   4.510
17067W        W82052  35.935   3.953   0.619
17068W        W82053  32.891  20.669   5.030
17069W        W82054  24.144  25.410   2.875
17070W        W82055  23.187  35.170  11.106
17071W        W82056   8.173  26.624  14.031
17072W        W82057   0.502   4.244  11.625
17073W        W82058  41.453  43.686  14.395
17074W        W82059  27.026  10.953  12.400
17075W        W82060  33.721  36.380  12.846
17076W        W82061  34.730  14.097  10.061
17077W        W82062  10.403  27.057   3.548
17078W        W82063  44.286  38.919  14.567
17079W        W82064  28.419  16.078  12.674
17080W        W82065  34.025  13.794  14.231
17081W        W82066  30.781  34.904   3.261
17082W        W82067   5.364  30.908   3.918
17083W        W82068  21.867  12.186  14.379
17084W        W82069   0.758   5.012  11.143
17085W        W82070  35.530  43.644  11.656
17086W        W82071  39.963   3.855   0.263
17087W        W82072   2.295  26.462  11.219
17088W        W82073  44.049  30.280   2.480
17089W        W82074  30.421   9.851   0.440
17090W        W82075  34.046  26.155   2.675
17091W        W82076   0.269  32.136   0.628
17092W        W82077  39.994   1.743  10.358
17093W        W82078  14.248  10.585   4.204
17094W        W82079  28.268  15.857  13.458
17095W        W82080  43.921  26.118  14.507
17096W        W82081  20.307  33.425  12.098
17097W        W82082   3.472  33.684  10.958
17098W        W82083  40.883  35.364   3.165
17099W        W82084  13.912  43.251  14.834
17100W        W82085   3.784   3.815   2.750
17101W        W82086  42.752  44.815  13.982
17102W        W82087  10.214  13.593  12.910
17103W        W82088   1.063  38.520  11.993
17104W        W82089  37.263  18.301   4.347
17105W        W82090  43.452  12.130   3.227
17106W        W82091   2.858  21.297  11.965
17107W        W82092  33.377  23.610  12.991
17108W        W82093  38.014  30.252   0.437
17109W        W82094   8.704  15.719   1.395
17110W        W82095   9.402  27.573  13.837
17111W        W82096   8.435  36.589  13.993
17112W        W82097  41.064  33.610   0.270
17113W        W82098  18.178  30.368   0.877
17114W        W82099  17.551   9.127  12.213
17115W        W82100  17.672   0.578  10.627
17116W        W82101   5.443  38.539   1.371
17117W        W82102  17.411  25.367  14.336
17118W        W82103  19.548  15.189  12.888
17119W        W82104  37.786   6.289  13.380
17120W        W82105  32.222  19.814   2.355
17121W        W82106   4.395  30.765   1.435
17122W        W82107   3.834   6.122   4.558
17123W        W82108  19.923  34.537   3.958
17124W        W82109   9.798  42.854  12.914
17125W        W82110  32.570  13.734  13.936
17126W        W82111  37.021   0.781   4.159
17127W        W82112  31.506  33.985  11.013
17128W        W82113  25.439   1.805  12.636
17129W        W82114   8.009  34.905  11.099
17130W        W82115  41.450  40.731   1.869
17131W        W82116  22.666   4.954  12.492
17132W        W82117  21.287  27.375   2.196
17133W        W82118   1.822  10.726   0.792
17134W        W82119  17.261  37.087  11.615
17135W        W82120  19.040  39.764  13.420
17136W        W82121  22.985   4.570   2.485
17137W        W82122  39.348  26.711  10.108
17138W        W82123  29.334  15.778  12.550
17139W        W82124  20.390  22.180   5.003
17140W        W82125  15.654  28.442  13.161
17141W        W82126   3.172   2.431  12.097
17142W        W82127  43.421  30.575   2.241
17143W        W82128  27.949  11.169  14.788
17144W        W82129  27.687  26.740  10.721
17145W        W82130  44.198  44.339  14.040
17146W        W82131  35.483   8.693  14.264
17147W        W82132   7.907   8.048  10.260
17148W        W82133   1.897  36.906   4.749
17149W        W82134   3.376  26.867  13.900
17150W        W82135  23.097   3.035   3.381
17151W        W82136  21.879  40.994  13.827
17152W        W82137  26.989  24.557   0.310
17153W        W82138  43.182  39.930  13.683
17154W        W82139  43.382  31.430   2.767
17155W        W82140  35.864   8.343  14.294
17156W        W82141  33.071  13.318   4.733
17157W        W82142  28.772  28.570   0.142
17158W        W82143  34.846  12.372  14.070
17159W        W82144  39.522  14.862  13.550
17160W        W82145   7.143  38.666  14.783
17161W        W82146  21.591  39.923   4.660
17162W        W82147   4.477  28.379   1.622
17163W        W82148   8.106  44.123  10.872
17164W        W82149  19.291   1.483  14.947
17165W        W82150  42.892  12.033   2.732
17166W        W82151  22.867  24.631  14.772
17167W        W82152  39.498  33.575  12.908
17168W        W82153  31.164  37.544  11.682
17169W        W82154   0.372  24.471   0.175
17170W        W82155  36.158   6.492  13.988
17171W        W82156  13.375  28.623   0.267
17172W        W82157  36.939  26.002  14.195
17173W        W82158  44.390   4.776  13.574
17174W        W82159  18.220  26.079   2.351
17175W        W82160  22.893  22.373  13.034
17176W        W82161  26.814  18.117   3.310
17177W        W82162  20.314  19.539   1.387
17178W        W82163  32.075  20.534  10.965
17179W        W82164  40.642  21.129   4.492
17180W        W82165  27.220  26.647   5.114
17181W        W82166  30.828  23.201  10.642
17182W        W82167  14.941  18.412  13.534
17183W        W82168  20.872  22.024  12.725
17184W        W82169  32.037  42.998  11.988
17185W        W82170   2.710  15.537   4.541
17186W        W82171  36.627   8.720   1.288
17187W        W82172  12.440  37.501   0.273
17188W        W82173  12.238  13.176  11.402
17189W        W82174  39.497  28.600   1.357
17190W        W82175  31.548   7.105   0.790
17191W        W82176  37.061  32.595   1.848
17192W        W82177  17.223  32.039  11.834
17193W        W82178  44.272  30.929  13.775
17194W        W82179  43.319  36.548   3.171
17195W        W82180  38.132   8.758   0.065
17196W        W82181   5.736  10.102   2.294
17197W        W82182   7.192  24.295  14.834
17198W        W82183  16.748  26.348   5.157
17199W        W82184  22.529   7.857   4.110
17200W        W82185   3.670   4.365   9.901
17201W        W82186  27.346  21.472   3.283
17202W        W82187  10.748  24.273  14.344
17203W        W82188  34.952  20.105   2.426
17204W        W82189   1.426  30.452  10.636
17205W        W82190  12.002  39.181   4.223
17206W        W82191  34.115  12.923   1.700
17207W        W82192  33.112   4.367  13.921
17208W        W82193  17.155   7.222   0.454
17209W        W82194  22.925  34.703  13.539
17210W        W82195  38.953  10.083   0.950
17211W        W82196  19.286  29.364  10.858
17212W        W82197  38.134  18.511  14.973
17213W        W82198  34.558   9.072   1.274
17214W        W82199  30.212  10.381   1.314
17215W        W82200  36.783  37.557   2.627
17216W        W82201   3.346   6.554   0.613
17217W        W82202  32.675  24.626  14.385
17218W        W82203  38.987  27.563  11.394
17219W        W82204   4.723   9.239  13.313
17220W        W82205  15.961   7.361  14.836
17221W        W82206   8.328  32.422  13.162
17222W        W82207  22.489  20.107  12.244
17223W        W82208  17.354  27.432  12.077
17224W        W82209  40.639  35.281  13.497
17225W        W82210  37.308  43.050  14.941
17226W        W82211  11.075  10.457  14.187
17227W        W82212  35.186  20.651  12.506
17228W        W82213  18.867   7.807   1.816
17229W        W82214  22.100  33.157   0.436
17230W        W82215  10.423  21.227   4.130
17231W        W82216  31.069  38.184   0.818
17232W        W82217  25.481   5.869  11.126
17233W        W82218   4.926   8.761  14.640
17234W        W82219  27.739  37.456  11.912
17235W        W82220   4.252  14.316   5.120
17236W        W82221  34.632  12.414  11.510
17237W        W82222  21.651  17.324  12.071
17238W        W82223  22.590   2.823  12.462
17239W        W82224  36.874  24.139   0.033
17240W        W82225  24.734  29.885   3.524
17241W        W82226  12.239  15.901  14.720
17242W        W82227  24.485   8.500  12.344
17243W        W82228  44.973   0.718   1.013
17244W        W82229  11.288   8.138   4.028
17245W        W82230  14.765  20.283   4.224
17246W        W82231   1.184  44.164   2.279
17247W        W82232  10.350  33.372  14.029
17248W        W82233  24.667  41.510   0.937
17249W        W82234   0.053  34.863  10.686
17250W        W82235  28.308  41.298   1.206
17251W        W82236   0.799  34.319  11.114
17252W        W82237  10.553  26.537   0.436
17253W        W82238  33.623  20.106   2.103
17254W        W82239  24.673  16.185   2.363
17255W        W82240  36.997  20.642  11.120
17256W        W82241  14.283  15.674   1.841
17257W        W82242  34.651  21.537  12.098
17258W        W82243  35.618  40.808   3.332
17259W        W82244  42.806  17.081   2.623
17260W        W82245   4.745   3.324   4.525
17261W        W82246  37.587  29.891  14.510
17262W        W82247  21.972   7.874   4.671
17263W        W82248   5.872  24.743  14.569
17264W        W82249   1.784  19.268  10.931
17265W        W82250  26.140   5.879   1.675
17266W        W82251  21.806  18.236  14.799
17267W        W82252  35.333  14.625   4.364
17268W        W82253  30.033   5.911  14.856
17269W        W82254   8.977  25.262  14.125
17270W        W82255  23.660  32.532   1.378
17271W        W82256  32.306  24.550   1.228
17272W        W82257  21.655  15.287   3.271
17273W        W82258  17.183  37.921  12.043
17274W        W82259   2.017  43.374   0.305
17275W        W82260  11.186  38.703  11.966
17276W        W82261  10.363  41.439  12.636
17277W        W82262  22.954  22.648   2.807
17278W        W82263  10.765  13.085   0.893
17279W        W82264  39.559  24.951  11.976
17280W        W82265  25.746  31.250  12.854
17281W        W82266  32.311  31.171  11.995
17282W        W82267  13.610  12.289   3.807
17283W        W82268  42.393  24.096   4.864
17284W        W82269  23.705  29.153   4.134
17285W        W82270  17.818   9.059  13.502
17286W        W82271  14.233   6.455  14.281
17287W        W82272  27.475  20.110   0.313
17288W        W82273  13.504   5.678   3.817
17289W        W82274   4.419  31.879  14.421
17290W        W82275  44.950  25.309  10.670
17291W        W82276  36.065  29.408  12.994
17292W        W82277  37.704  11.089  14.667
17293W        W82278  18.190   9.775  10.802
17294W        W82279  14.884  27.109   0.768
17295W        W82280  21.522  23.457  11.644
17296W        W82281  40.819  26.781  10.627
17297W        W82282   1.872  43.520  12.621
17298W        W82283  32.675  19.641  13.672
17299W        W82284  28.453  13.852  14.876
17300W        W82285   7.689  10.562  13.380
17301W        W82286  33.136  33.972   2.598
17302W        W82287  10.135  43.135   3.284
17303W        W82288   6.193   0.885  10.751
17304W        W82289  21.559   1.655  12.888
17305W        W82290   2.945  33.954   4.008
17306W        W82291  35.009   5.460  12.344
17307W        W82292  20.814   7.615  14.305
17308W        W82293  41.606  30.587  11.904
17309W        W82294   2.937  35.302   3.713
17310W        W82295  40.024   0.178  11.569
17311W        W82296  17.340  22.178   1.842
17312W        W82297  31.610  39.846   2.846
17313W        W82298  24.947   7.410  13.136
17314W        W82299  41.465  42.997   3.163
17315W        W82300  35.575  38.598  13.456
17316W        W82301  16.336   4.828  13.428
17317W        W82302  35.557  19.876   0.920
17318W        W82303  10.587  34.815   3.503
17319W        W82304   9.702  44.440   2.683
17320W        W82305  18.817  29.933  11.143
17321W        W82306  39.749  37.070   4.443
17322W        W82307  26.679  31.376  11.111
17323W        W82308  15.055   1.429  11.121
17324W        W82309  40.114  31.425  12.464
17325W        W82310  43.007  26.943  10.813
17326W        W82311   8.307  26.389  12.915
17327W        W82312  34.376  19.345  14.466
17328W        W82313   6.210  38.921  12.002
17329W        W82314   8.494  35.513  13.807
17330W        W82315  29.137  31.594  11.664
17331W        W82316  16.576  38.432  11.633
17332W        W82317  29.546  25.746   2.368
17333W        W82318  17.149  17.540   2.123
17334W        W82319  30.302  28.147  11.200
17335W        W82320  33.601  37.440   3.159
17336W        W82321  30.586   3.207   4.656
17337W        W82322  40.579  36.523  14.835
17338W        W82323  32.712  10.366  14.704
17339W        W82324   1.368  18.079   4.885
17340W        W82325  44.058   0.433  11.643
17341W        W82326  18.607  11.061   1.413
17342W        W82327   5.960  44.082   3.886
17343W        W82328  27.898  44.853  11.616
17344W        W82329  33.189  37.474   0.538
17345W        W82330   4.406  10.268   0.717
17346W        W82331  43.622  17.804   5.427
17347W        W82332   6.577  27.656  10.796
17348W        W82333  40.092  24.607   3.882
17349W        W82334   7.813  27.692  13.245
17350W        W82335  43.450  18.133   1.887
17351W        W82336  43.753  28.210   3.313
17352W        W82337  20.644  26.089   4.606
17353W        W82338  11.177   8.152  10.776
17354W        W82339  28.469   9.209   2.600
17355W        W82340  33.364  37.284  13.841
17356W        W82341   9.860  44.898   2.899
17357W        W82342  42.938  33.077   1.040
17358W        W82343   3.311  44.479  10.481
17359W        W82344  36.969  42.147  12.796
17360W        W82345  33.814  15.624   4.796
17361W        W82346   1.459  15.127  11.131
17362W        W82347  13.762   2.672  10.869
17363W        W82348  14.539  37.622  14.625
17364W        W82349   9.803  32.676   4.757
17365W        W82350  38.513   2.013  13.366
17366W        W82351  15.833  24.685  11.143
17367W        W82352  32.208   2.927  14.869
17368W        W82353  40.975  42.822  12.280
17369W        W82354  32.527  42.816   2.442
17370W        W82355  39.338   1.391  14.216
17371W        W82356  31.849  28.262  12.852
17372W        W82357  17.228  18.537  12.473
17373W        W82358  27.580  19.446   1.846
17374W        W82359  13.801   5.747   5.190
17375W        W82360  12.066  26.953  12.490
17376W        W82361  20.233  43.542   3.175
17377W        W82362  11.826  43.272   3.120
17378W        W82363   1.148   8.153   1.881
17379W        W82364  34.850  38.076  11.605
17380W        W82365  16.596  28.602  11.706
17381W        W82366  27.639  23.144   4.759
17382W        W82367  20.318  44.527  12.107
17383W        W82368  43.980  13.265   3.216
17384W        W82369  16.318  21.306   4.118
17385W        W82370  12.040  38.515   3.235
17386W        W82371   7.814   1.468   3.659
17387W        W82372   1.516  41.498   3.163
17388W        W82373  37.900   8.947  13.011
17389W        W82374  34.436  29.395   3.703
17390W        W82375  42.891  40.311   3.116
17391W        W82376  23.705  15.371   3.700
17392W        W82377  12.075  36.012  10.707
17393W        W82378  25.116   9.820  14.889
17394W        W82379  29.586  23.944   3.612
17395W        W82380   3.267   0.722   0.272
17396W        W82381  26.210  44.424   4.345
17397W        W82382   5.651   1.490   4.218
17398W        W82383   8.219  43.409   1.300
17399W        W82384  26.158  42.081   3.579
17400W        W82385  33.439   6.772   4.696
17401W        W82386  30.466  13.416   4.234
17402W        W82387  35.195  24.032  12.565
17403W        W82388  10.613  13.308  13.792
17404W        W82389  33.423  30.307   4.218
17405W        W82390   7.296  39.517   0.831
17406W        W82391  16.300   4.744   0.857
17407W        W82392  15.327   0.987  11.857
17408W        W82393   9.792  16.661  12.385
17409W        W82394  38.833  26.722   3.675
17410W        W82395  10.753  38.813   3.618
17411W        W82396  10.681  22.958   4.425
17412W        W82397  14.530  27.174  12.501
17413W        W82398  29.449   1.297  10.987
17414W        W82399  30.689   9.634   1.123
17415W        W82400  20.690  34.814  13.555
17416W        W82401  25.972  12.856  13.828
17417W        W82402  17.656   6.803  10.357
17418W        W82403  17.234  41.080  12.428
17419W        W82404  34.865   9.188   2.726
17420W        W82405   2.342   0.549   4.368
17421W        W82406  30.707  37.573  10.768
17422W        W82407  19.823  28.950  14.891
17423W        W82408  25.442  33.353  13.547
17424W        W82409  13.326  10.468   0.798
17425W        W82410  24.007  31.121  12.067
17426W        W82411   9.850   2.681   3.098
17427W        W82412  36.161  23.623  14.288
17428W        W82413   7.642  35.685   4.529
17429W        W82414  24.324  29.214  12.238
17430W        W82415   1.664  43.053   2.693
17431W        W82416  12.190  37.818  14.953
17432W        W82417  31.604   4.770   4.581
17433W        W82418  22.192   3.975   2.669
17434W        W82419  18.257   2.589  14.819
17435W        W82420   2.824  13.236  14.296
17436W        W82421  28.305   4.274   1.617
17437W        W82422  26.638  36.292   1.540
17438W        W82423  30.081  31.883   1.792
17439W        W82424   5.837  42.970   2.258
17440W        W82425   7.812  19.772  10.778
17441W        W82426   3.179  28.964   1.626
17442W        W82427  16.906  31.142  13.808
17443W        W82428  18.573  29.013  12.838
17444W        W82429   9.233  41.404  12.203
17445W        W82430  22.933  12.667  12.135
17446W        W82431  20.453  11.192  11.276
17447W        W82432  17.109  31.371  11.521
17448W        W82433  25.263  25.225  14.975
17449W        W82434   6.173  25.542  14.802
17450W        W82435  28.000  35.616   0.480
17451W        W82436  19.159  34.990   4.066
17452W        W82437  35.635   6.655  14.839
17453W        W82438  12.885  14.284   4.634
17454W        W82439  26.563  11.829   3.822
17455W        W82440  13.700   3.949  11.917
17456W        W82441  16.587  12.708   1.864
17457W        W82442  27.451  18.729   2.878
17458W        W82443  22.403  20.446   2.167
17459W        W82444  21.896  40.829   2.630
17460W        W82445  32.133  21.674  13.464
17461W        W82446   0.896   5.208  13.382
17462W        W82447  42.351  12.360   0.361
17463W        W82448   6.472  32.977   2.770
17464W        W82449  22.486  27.067  14.049
17465W        W82450  19.438   5.179   1.758
17466W        W82451   5.293  42.323  14.473
17467W        W82452  34.816  15.754  11.579
17468W        W82453  11.501  11.324  10.508
17469W        W82454  39.819  17.635   1.742
17470W        W82455   2.185  20.339  14.408
17471W        W82456  44.442   4.336  13.025
17472W        W82457   1.474  12.222  13.654
17473W        W82458  34.662  44.590  13.868
17474W        W82459  17.038  38.856  13.991
17475W        W82460  26.678  27.575   0.729
17476W        W82461   8.889  16.780   2.699
17477W        W82462  38.415   9.910   4.196
17478W        W82463   4.449   1.945  12.099
17479W        W82464   4.885  30.609   2.211
17480W        W82465  33.623  11.704   0.552
17481W        W82466   9.450   4.675  13.215
17482W        W82467  24.705   1.316  12.433
17483W        W82468  18.369  30.520   1.357
17484W        W82469  16.847  42.493   0.041
17485W        W82470  18.784   9.247   3.617
17486W        W82471  41.330  38.442   4.078
17487W        W82472  35.980  35.376   3.699
17488W        W82473  20.769  14.660   0.477
17489W        W82474  24.988  22.802  14.957
17490W        W82475  25.827  32.103  12.411
17491W        W82476  28.765  23.991  14.891
17492W        W82477  13.308  39.071  14.311
17493W        W82478  19.633   9.116  11.722
17494W        W82479  20.051  26.792   4.178
17495W        W82480  27.795   1.244  14.856
17496W        W82481  14.584   9.126  11.505
17497W        W82482  29.706  14.859  10.686
17498W        W82483  30.964  10.187   4.180
17499W        W82484  11.386   2.258  13.561
17500W        W82485  33.561  12.841   1.346
17501W        W82486  14.865  25.401   4.113
17502W        W82487  27.097  13.014   2.782
17503W        W82488  15.986  33.965   2.214
17504W        W82489   8.833  30.524   1.500
17505W        W82490  39.463  15.398   0.450
17506W        W82491  29.183  36.924   0.050
17507W        W82492  20.185  29.909   0.498
17508W        W82493  37.911  34.760   4.642
17509W        W82494  42.009  15.711  10.667
17510W        W82495  14.781  17.522  12.439
17511W        W82496   1.566  39.888   1.411
17512W        W82497  20.392   4.456   3.753
17513W        W82498   0.790  15.139   3.281
17514W        W82499  27.561  34.205  12.118
17515W        W82500  14.840  40.683  13.801
17516W        W82501  14.400  38.757  12.541
17517W        W82502  15.920   1.871   3.928
17518W        W82503  27.579  23.618   0.684
17519W        W82504  38.484  42.178   4.503
17520W        W82505  14.741  12.644  11.612
17521W        W82506   1.840  15.271   0.508
17522W        W82507  30.170   2.921   4.554
17523W        W82508  18.130  13.189  10.539
17524W        W82509  26.624   7.841   3.673
17525W        W82510  13.260   3.034   3.154
17526W        W82511   1.245  26.410   0.937
17527W        W82512  12.813  34.315  11.686
17528W        W82513  41.305  40.442  11.517
17529W        W82514  37.264  11.884   3.226
17530W        W82515   5.845   5.439  12.533
17531W        W82516  22.760   0.004  13.909
17532W        W82517  34.262  15.939  13.123
17533W        W82518  14.362   4.716  14.892
17534W        W82519  43.021  16.518   3.333
17535W        W82520  23.341   2.204   2.617
17536W        W82521  34.567  11.363   0.944
17537W        W82522  33.461  40.044  12.595
17538W        W82523  39.283  14.122  12.174
17539W        W82524   7.125  13.692   4.437
17540W        W82525   8.789  16.519   4.036
17541W        W82526   0.333  10.644   4.592
17542W        W82527   9.139  35.653  14.309
17543W        W82528  35.119  13.706  11.823
17544W        W82529  29.189  25.733   3.508
17545W        W82530  33.451  38.818   0.284
17546W        W82531   5.488  13.352   4.189
17547W        W82532  31.011   5.225  14.781
17548W        W82533  31.194   5.756  10.627
17549W        W82534   6.305  29.479  10.535
17550W        W82535  19.391  34.104  12.937
17551W        W82536  10.337  41.981  12.897
17552W        W82537  38.442   7.273  14.266
17553W        W82538  40.058   5.992  11.061
17554W        W82539  40.968  10.895  10.842
17555W        W82540   7.687  33.780   3.144
17556W        W82541  33.154   3.944   0.263
17557W        W82542  24.031   2.779  11.554
17558W        W82543  44.433  36.295  11.569
17559W        W82544  22.271  11.240  14.105
17560W        W82545   8.344  30.036   4.180
17561W        W82546  28.057  41.582   0.798
17562W        W82547  37.626   3.877  13.386
17563W        W82548  10.918  14.331   1.824
17564W        W82549  42.784  38.834   0.463
17565W        W82550  30.745  33.883   3.790
17566W        W82551  25.736   6.501   4.008
17567W        W82552  16.832  32.691  12.906
17568W        W82553  18.551  38.512  14.909
17569W        W82554  30.413  44.745   2.926
17570W        W82555   1.669  10.699  13.963
17571W        W82556  17.517  13.117   0.393
17572W        W82557  27.474  38.400   1.038
17573W        W82558  14.361  24.627  10.737
17574W        W82559  28.561  42.898   1.953
17575W        W82560  22.552  12.317   0.753
17576W        W82561  13.906  20.078  11.758
17577W        W82562  11.944  10.657   0.138
17578W        W82563  42.282  44.891   2.819
17579W        W82564  33.346  42.132  12.450
17580W        W82565   8.446  23.109  11.920
17581W        W82566  44.346  10.670  10.742
17582W        W82567  39.927  29.421   0.943
17583W        W82568  17.634   3.123   4.557
17584W        W82569   3.468  23.675   0.227
17585W        W82570   4.158  21.258   2.019
17586W        W82571  16.790  34.739   0.374
17587W        W82572  21.944  16.208   1.371
17588W        W82573  28.932  11.635  14.018
17589W        W82574   4.414  11.261  12.906
17590W        W82575  43.088  16.691   2.431
17591W        W82576  18.054  39.600  14.957
17592W        W82577  22.905  31.077   2.105
17593W        W82578  18.298  36.479   2.448
17594W        W82579   7.137   4.431   3.431
17595W        W82580  44.298  20.391   4.455
17596W        W82581  14.353  19.876   0.324
17597W        W82582   1.339  28.437   4.205
17598W        W82583  13.375   2.247  12.914
17599W        W82584  42.858  38.501   0.058
17600W        W82585  24.503  14.104  13.461
17601W        W82586  30.525  31.940  11.068
17602W        W82587  16.125  31.798  14.885
17603W        W82588  41.879  18.216  12.031
17604W        W82589  24.220  38.679  10.302
17605W        W82590  22.075  26.172  12.599
17606W        W82591  10.371  13.776   1.325
17607W        W82592  35.545  23.214   4.151
17608W        W82593  12.397  17.808   3.168
17609W        W82594  13.854  12.648  12.508
17610W        W82595  10.416  29.062   2.120
17611W        W82596  42.461  37.350   0.463
17612W        W82597  36.947  23.661   4.319
17613W        W82598   8.290  35.643  14.795
17614W        W82599  21.315  41.220  12.052
17615W        W82600  27.758  26.097   3.277
17616W        W82601  12.822  24.482   1.897
17617W        W82602  26.692   2.763  14.996
17618W        W82603  33.484  13.946  14.936
17619W        W82604   2.608  29.052   0.941
17620W        W82605  25.592  19.018   1.701
17621W        W82606  15.606   3.709   0.287
17622W        W82607  29.667  11.707  10.222
17623W        W82608  29.965  42.035  12.573
17624W        W82609  15.681   1.349   4.626
17625W        W82610   0.413  37.645   0.988
17626W        W82611  18.993  35.029  10.633
17627W        W82612   8.649  33.681  13.497
17628W        W82613   3.477   5.203  12.500
17629W        W82614  16.222  22.955  12.362
17630W        W82615  16.556  27.335   1.241
17631W        W82616  40.479   0.967   4.652
17632W        W82617  22.920  36.406  12.917
17633W        W82618   7.145  26.472   3.768
17634W        W82619  30.687  39.729  14.033
17635W        W82620  14.592  13.570  11.180
17636W        W82621  35.557  28.303  13.413
17637W        W82622  26.625  41.032   4.630
17638W        W82623   8.666  26.609   3.563
17639W        W82624   6.091  43.227  13.340
17640W        W82625  14.060   5.784  10.118
17641W        W82626  44.873  39.305   2.427
17642W        W82627   6.951  35.045   3.647
17643W        W82628  43.540  36.430   1.256
17644W        W82629   4.429  16.270   3.344
17645W        W82630  23.726  29.098   1.894
17646W        W82631  43.768  24.161  11.072
17647W        W82632  37.204  39.067  10.140
17648W        W82633  37.261  29.516   2.233
17649W        W82634   8.022  35.324   4.651
17650W        W82635  13.163   5.623  12.096
17651W        W82636  14.071  18.250   2.782
17652W        W82637   0.074  20.556   2.491
17653W        W82638  32.065  17.880  13.350
17654W        W82639  12.661  25.596  10.570
17655W        W82640  44.825  30.704   3.070
17656W        W82641  20.200   1.282  14.782
17657W        W82642  39.253   0.798  11.603
17658W        W82643  31.885  36.824   1.402
17659W        W82644  42.561  17.768   1.665
17660W        W82645  14.788  30.077  14.806
17661W        W82646  27.540   7.164   2.361
17662W        W82647  15.738  18.575  13.090
17663W        W82648   4.169   8.826  12.527
17664W        W82649  19.478  27.979  13.034
17665W        W82650  19.117  14.422   0.302
17666W        W82651  20.728   7.628   5.618
17667W        W82652  18.699  40.616   0.035
17668W        W82653  22.833  29.186  13.574
17669W        W82654  39.581  29.150   4.680
17670W        W82655  41.396  27.892  11.437
17671W        W82656   0.286   5.107   4.691
17672W        W82657  23.464  28.973  12.352
17673W        W82658  16.279  26.192   4.940
17674W        W82659   8.737   0.354   0.863
17675W        W82660   2.904  33.519  10.655
17676W        W82661  12.891  18.502   2.214
17677W        W82662  21.117  26.561   1.979
17678W        W82663  17.352  29.075  13.390
17679W        W82664   6.978  15.983  13.983
17680W        W82665   4.370  39.547  13.592
17681W        W82666  31.112  31.369   1.289
17682W        W82667  31.419   2.722  12.380
17683W        W82668  35.192  29.102  13.483
17684W        W82669  11.156  15.977  11.065
17685W        W82670  35.555  32.361  12.108
17686W        W82671  22.178   5.329  12.963
17687W        W82672  21.568  22.529  14.325
17688W        W82673  16.159   1.482   4.761
17689W        W82674   1.254  39.695  12.880
17690W        W82675  33.938  44.419  14.437
17691W        W82676  32.122  38.800  12.547
17692W        W82677  21.225  18.207   9.967
17693W        W82678  42.031  15.141   2.279
17694W        W82679   5.613  20.812   4.311
17695W        W82680  26.211  26.516  11.522
17696W        W82681  23.618   4.716  13.901
17697W        W82682  36.061  20.661   1.747
17698W        W82683  20.781   1.430  14.625
17699W        W82684  12.195  28.541  11.442
17700W        W82685  32.013  22.322  10.622
17701W        W82686  24.272  36.949   4.268
17702W        W82687   3.406  38.742   0.936
17703W        W82688   5.285  36.808  12.881
17704W        W82689  15.923  21.545   3.796
17705W        W82690   3.572   6.798   1.891
17706W        W82691   5.813  22.733  11.127
17707W        W82692   3.195  11.233  14.847
17708W        W82693   3.418  41.991  11.715
17709W        W82694   1.613  31.463  11.059
17710W        W82695  42.522  17.728   2.196
17711W        W82696  39.839  21.630  12.567
17712W        W82697   0.452  20.706   4.948
17713W        W82698   8.641   2.670  14.892
17714W        W82699  12.165  13.103  14.331
17715W        W82700   9.867  43.749   0.871
17716W        W82701  18.714  10.622  10.570
17717W        W82702   4.759  11.463   1.017
17718W        W82703  42.555   0.762   3.694
17719W        W82704  35.453  22.690   0.153
17720W        W82705  19.404   9.811  14.381
17721W        W82706  42.805  39.943  13.337
17722W        W82707  24.036  44.347   2.761
17723W        W82708   1.087   5.987   4.971
17724W        W82709  31.061   2.420  10.426
17725W        W82710  39.382  27.310   0.892
17726W        W82711  24.747  26.967  13.336
17727W        W82712  34.147  11.386  10.744
17728W        W82713  40.577  40.473   1.356
17729W        W82714  42.802   7.259  11.066
17730W        W82715  28.078  18.006  12.883
17731W        W82716  17.407  14.605  12.018
17732W        W82717  44.807  19.221   3.900
17733W        W82718  17.843  31.042  14.891
17734W        W82719  33.470  14.153   2.654
17735W        W82720   1.754  27.365  11.153
17736W        W82721  15.116   1.883  11.832
17737W        W82722   1.197  17.992  10.714
17738W        W82723  28.775  44.496  11.629
17739W        W82724  39.248  30.680  11.611
17740W        W82725  40.770   0.039   2.607
17741W        W82726   7.857  26.898   3.394
17742W        W82727  36.849  15.843  11.526
17743W        W82728  31.650  19.090   2.267
17744W        W82729   6.998   4.186  12.625
17745W        W82730  13.694   0.429  10.806
17746W        W82731  14.325   1.406  14.213
17747W        W82732   1.000  13.604   2.355
17748W        W82733   2.738  18.896   3.751
17749W        W82734  28.463  40.369  14.210
17750W        W82735  36.546  33.900   1.229
17751W        W82736  26.779  37.288   0.799
17752W        W82737  13.989  20.578  12.498
17753W        W82738  36.041  28.486  13.791
17754W        W82739  44.038  17.141  14.427
17755W        W82740   7.267  15.863   4.233
17756W        W82741   0.498  15.419   1.362
17757W        W82742  41.901  43.004   0.539
17758W        W82743   3.770   7.350  10.670
17759W        W82744  15.785   3.499  12.586
17760W        W82745   8.818  23.504   3.413
17761W        W82746  22.624  26.358  14.938
17762W        W82747  30.497  36.359   1.392
17763W        W82748  21.129  17.558  12.321
17764W        W82749  24.132  42.832  11.464
17765W        W82750  11.287  18.364  14.887
17766W        W82751  25.689  30.006  11.657
17767W        W82752  14.049  24.286   2.766
17768W        W82753  28.478  20.197   0.018
17769W        W82754  28.947  34.655  11.350
17770W        W82755  31.714  31.521  14.587
17771W        W82756  30.422   5.645   3.608
17772W        W82757  38.792  30.874   2.722
17773W        W82758  37.425  10.089  14.949
17774W        W82759  35.864  28.957  13.939
17775W        W82760  11.398  27.471  13.817
17776W        W82761   8.919   9.227   2.861
17777W        W82762   1.028  40.817   2.768
17778W        W82763  28.392  38.832  13.344
17779W        W82764  19.009  36.516  10.906
17780W        W82765  25.541  22.451   0.752
17781W        W82766   4.236   4.331   4.748
17782W        W82767  27.904  36.367  14.006
17783W        W82768  41.852  17.825   3.853
17784W        W82769  42.986  44.023   3.266
17785W        W82770   4.176   4.878  14.547
17786W        W82771   3.624  12.569  13.844
17787W        W82772  24.503  10.384  12.003
17788W        W82773  39.329   3.472   4.052
17789W        W82774  22.202  41.397   1.373
17790W        W82775   5.387  12.657  12.963
17791W        W82776  11.810   0.281  12.130
17792W        W82777  31.407  14.221   1.631
17793W        W82778  44.404  16.531   3.162
17794W        W82779  16.191  22.205   2.130
17795W        W82780  44.319  30.554   4.340
17796W        W82781  38.451  40.507  11.163
17797W        W82782  17.586  18.842   1.342
17798W        W82783  27.690  27.709   4.322
17799W        W82784   7.384  16.213  14.910
17800W        W82785  26.016  37.850   0.424
17801W        W82786  29.639  34.219  14.257
17802W        W82787   4.620  16.682  14.811
17803W        W82788  25.529  37.218  11.005
17804W        W82789  42.780  44.582  13.395
17805W        W82790  27.202  30.522   0.269
17806W        W82791  22.109  13.710  14.870
17807W        W82792  25.026  14.550   2.731
17808W        W82793  32.989  38.099   2.069
17809W        W82794  38.618  32.608   1.859
17810W        W82795   6.205   5.197   0.500
17811W        W82796  40.375  14.208   4.073
17812W        W82797  36.406   7.429  14.511
17813W        W82798  42.478  43.520  14.873
17814W        W82799   6.769   1.772  14.293
17815W        W82800   6.346  22.518  14.456
17816W        W82801  10.280  19.288   2.184
17817W        W82802  39.565  21.330   3.679
17818W        W82803  20.327  41.764  10.781
17819W        W82804  41.340   4.179  13.778
17820W        W82805   9.117  36.983  12.849
17821W        W82806  20.725  44.296   4.632
17822W        W82807   3.135  40.897  14.884
17823W        W82808   9.712  13.723  12.887
17824W        W82809  34.756  42.541  12.519
17825W        W82810   9.382  35.332   2.681
17826W        W82811   5.802  44.388  13.996
17827W        W82812  44.997  16.326   1.208
17828W        W82813  24.787   1.449  14.895
17829W        W82814  16.266  26.921   2.782
17830W        W82815  22.489   3.346  12.426
17831W        W82816  29.134  11.215   2.758
17832W        W82817   6.480  40.942  13.327
17833W        W82818  23.221  43.808   4.171
17834W        W82819  38.515   6.827  12.535
17835W        W82820  24.848  31.013  13.982
17836W        W82821  22.722   9.855   1.073
17837W        W82822  36.886   8.356  13.411
17838W        W82823  41.191  39.473  14.034
17839W        W82824  39.943  28.336  13.569
17840W        W82825   2.197  15.348  10.803
17841W        W82826  12.796   4.246  13.814
17842W        W82827  24.120  34.775  11.581
17843W        W82828  43.178   3.994  12.211
17844W        W82829  19.288  18.247  12.936
17845W        W82830  10.265  26.670   9.866
17846W        W82831  44.468  27.218   3.137
17847W        W82832  33.044  35.403   1.010
17848W        W82833  36.500  24.455  14.571
17849W        W82834  39.776  19.610  12.554
17850W        W82835  16.618   7.425  11.955
17851W        W82836  41.441  21.159   4.109
17852W        W82837  42.954  16.058   1.285
17853W        W82838  17.810  38.873   2.131
17854W        W82839  43.909  41.206  11.460
17855W        W82840  16.229  17.710   2.389
17856W        W82841   8.793  41.125  14.650
17857W        W82842  16.728  41.295   0.755
17858W        W82843  14.180  21.298  14.428
17859W        W82844  27.090   0.396   3.148
17860W        W82845  23.199   5.737  11.146
17861W        W82846  38.834  18.996  14.244
17862W        W82847  15.901  21.651   0.283
17863W        W82848   0.036  36.555  14.025
17864W        W82849  43.126  39.621   1.852
17865W        W82850  12.312  31.564  11.187
17866W        W82851   6.889  38.524  11.567
17867W        W82852   2.468  29.119  12.518
17868W        W82853  11.522  13.041   4.071
17869W        W82854  19.222  23.812   3.587
17870W        W82855   6.370  11.861  11.250
17871W        W82856  17.164  22.184  14.577
17872W        W82857  22.492  10.512  10.926
17873W        W82858   3.893  26.253   2.460
17874W        W82859  32.466  16.482  12.483
17875W        W82860  20.592   1.368   4.508
17876W        W82861   8.317  18.409   3.136
17877W        W82862  35.367  39.527  13.570
17878W        W82863  19.809  36.775  14.471
17879W        W82864  32.918  35.192   0.144
17880W        W82865  13.498  35.108  13.077
17881W        W82866  27.966  14.013  14.815
17882W        W82867  28.972  32.538  14.440
17883W        W82868   7.423  34.882  10.809
17884W        W82869  11.256  20.032   3.593
17885W        W82870  13.681  18.638  10.385
17886W        W82871   0.434  29.124   4.592
17887W        W82872  36.026   4.443  10.698
17888W        W82873   3.321  36.013  13.483
17889W        W82874   8.635  38.506   3.634
17890W        W82875  30.414  15.251  14.857
17891W        W82876   4.371  29.626   0.939
17892W        W82877   3.910  38.049  10.504
17893W        W82878  32.522  36.994  13.362
17894W        W82879  22.700  17.798   4.039
17895W        W82880  24.041   2.780   4.110
17896W        W82881  41.439  34.762  10.976
17897W        W82882  35.829  39.577  14.382
17898W        W82883   7.598  19.183  13.848
17899W        W82884   2.329  40.567   4.940
17900W        W82885  27.907  34.464   1.286
17901W        W82886  44.755   4.856  11.206
17902W        W82887   1.898  35.327   4.596
17903W        W82888  36.886  42.402  13.251
17904W        W82889  22.988  11.737  13.508
17905W        W82890  28.524  20.136   2.224
17906W        W82891  17.295  41.597   2.600
17907W        W82892  40.255  27.037  11.513
17908W        W82893  37.532  15.035  14.445
17909W        W82894  26.083  32.906   3.156
17910W        W82895  22.946  14.012   3.815
17911W        W82896   6.413   3.803  14.780
17912W        W82897  11.609  37.446  11.615
17913W        W82898  36.093  13.223   1.874
17914W        W82899  20.591  44.280  14.445
17915W        W82900  13.633   6.885  13.003
17916W        W82901  43.473   4.239   4.758
17917W        W82902  22.745  17.134   5.255
17918W        W82903  18.683  39.933   1.781
17919W        W82904  36.513  10.262  14.815
17920W        W82905  27.042   3.413   4.768
17921W        W82906  20.643  13.980  14.921
17922W        W82907  25.248  22.679   2.019
17923W        W82908  22.117  32.480  14.865
17924W        W82909  27.668  34.169  10.853
17925W        W82910   7.413  41.441   0.959
17926W        W82911   4.308  29.187  13.921
17927W        W82912   8.317  39.731   3.768
17928W        W82913  36.031   7.815   5.291
17929W        W82914  29.722  38.805  13.121
17930W        W82915  34.211  23.789  12.475
17931W        W82916  12.650  44.572   4.091
17932W        W82917  31.997  23.550  13.601
17933W        W82918  32.903   1.520   1.344
17934W        W82919   1.327  32.577   3.213
17935W        W82920  21.590  36.284   1.274
17936W        W82921  36.110  19.621   3.121
17937W        W82922  13.633  22.200  12.221
17938W        W82923  31.493   1.712   3.221
17939W        W82924  33.106  27.651  13.376
17940W        W82925  36.380  13.591  11.133
17941W        W82926   7.164  17.250   0.516
17942W        W82927  19.809  22.057  13.294
17943W        W82928  26.268   9.899   3.705
17944W        W82929  35.780  24.418  11.487
17945W        W82930  15.821  20.839  14.934
17946W        W82931   3.125  12.611  11.208
17947W        W82932  18.489   5.698   3.571
17948W        W82933   7.735  31.084   3.389
17949W        W82934  35.123  17.549   1.459
17950W        W82935  35.960  44.852   2.214
17951W        W82936  31.684  25.842  14.024
17952W        W82937  21.352  39.797   3.008
17953W        W82938  25.520  41.486  12.930
17954W        W82939  34.180  37.600  14.513
17955W        W82940  20.099  18.964  11.410
17956W        W82941   7.320  36.412   3.613
17957W        W82942  19.221   6.679  14.039
17958W        W82943   4.576  18.551  12.043
17959W        W82944   9.708  15.461  14.762
17960W        W82945  29.863  14.385   3.483
17961W        W82946  31.086  11.336  12.879
17962W        W82947  11.211  23.249  14.780
17963W        W82948  29.169  15.695   2.497
17964W        W82949   9.779   2.141   4.856
17965W        W82950   8.480   1.773   0.413
17966W        W82951  22.475  14.380  11.492
17967W        W82952   5.342   1.949  10.686
17968W        W82953  23.254  22.172  13.395
17969W        W82954  20.966  21.071  12.535
17970W        W82955  13.881  39.822  12.313
17971W        W82956  38.225  11.046  14.432
17972W        W82957  16.794  44.176  14.006
17973W        W82958  35.563  15.241  14.243
17974W        W82959  13.173  27.636  14.028
17975W        W82960  25.996  37.645  13.321
17976W        W82961  26.041  23.402   0.733
17977W        W82962  38.614  23.552   4.579
17978W        W82963  41.131  42.949  14.888
17979W        W82964   4.357  22.268  14.031
17980W        W82965   2.290  44.697  12.479
17981W        W82966  17.813  19.245  12.619
17982W        W82967  18.528   1.880   0.973
17983W        W82968  28.697  14.832   3.671
17984W        W82969  34.318  42.890   2.483
17985W        W82970  39.368  15.765   1.409
17986W        W82971  30.040  20.164  13.022
17987W        W82972  33.558  15.827   0.381
17988W        W82973  25.904  41.569  11.468
17989W        W82974  38.809  31.717   3.185
17990W        W82975  10.899  39.714   0.833
17991W        W82976  31.374  42.430   0.676
17992W        W82977  28.766  20.721   4.027
17993W        W82978   4.083  28.085   4.623
17994W        W82979  10.709  13.713  10.624
17995W        W82980  28.559  42.245  13.794
17996W        W82981   8.903  20.569  12.594
17997W        W82982  22.676   5.967   0.150
17998W        W82983   9.447  44.804   4.304
17999W        W82984  17.344  34.252  11.143
18000W        W82985  11.567   5.392   4.149
18001W        W82986  18.976  26.687   0.684
18002W        W82987  32.832  15.635   4.822
18003W        W82988   9.371   4.771  13.729
18004W        W82989  34.343  10.719  13.801
18005W        W82990  11.716  26.574   4.528
18006W        W82991  21.128   8.278   1.271
18007W        W82992  22.843  41.070  12.997
18008W        W82993  18.579  26.127   4.194
18009W        W82994  32.281   8.282  14.528
18010W        W82995   8.858  30.592  14.586
18011W        W82996   3.644  20.001  14.694
18012W        W82997  42.799   5.431   1.487
18013W        W82998  34.396   4.387  11.947
18014W        W82999  26.514   2.487   0.839
18015W        W83000  24.045  25.700   3.820
18016W        W83001   6.415   2.611   1.217
18017W        W83002  11.808   3.055   2.209
18018W        W83003   4.178  36.366   3.097
18019W        W83004  40.078  22.230  13.865
18020W        W83005  32.231  40.105   0.631
18021W        W83006  13.104  22.730   1.398
18022W        W83007  37.618  44.303  10.583
18023W        W83008  36.157   3.214  12.126
18024W        W83009  30.185   4.219   1.777
18025W        W83010  23.223  24.412  10.636
18026W        W83011  28.689  10.982  11.414
18027W        W83012  14.146   4.776   1.400
18028W        W83013  24.880   5.174   0.270
18029W        W83014  41.680  29.355   5.344
18030W        W83015  22.600  16.351   4.288
18031W        W83016   6.414  37.018   1.865
18032W        W83017  22.371   7.745  11.484
18033W        W83018  21.784  27.327  11.470
18034W        W83019  40.882  11.050  11.499
18035W        W83020  19.226   6.285  12.310
18036W        W83021  26.944  16.281  14.459
18037W        W83022  38.049  44.873  14.955
18038W        W83023  31.324   0.883   5.049
18039W        W83024   5.776  36.623  11.513
18040W        W83025  38.060  17.579   3.604
18041W        W83026  31.523   3.195  11.498
18042W        W83027   3.221  38.272   3.398
18043W        W83028   3.914   6.859  14.778
18044W        W83029  28.123  18.737  12.479
18045W        W83030  29.812   1.843   4.914
18046W        W83031  11.943  36.404  14.493
18047W        W83032  15.086  15.177   2.671
18048W        W83033  44.210   8.423  14.258
18049W        W83034  26.525  15.639   4.685
18050W        W83035  41.446   1.054  14.457
18051W        W83036  21.871  25.172  11.079
18052W        W83037   5.607   1.444  12.054
18053W        W83038  30.202  14.291   0.396
18054W        W83039  13.725  25.271   0.456
18055W        W83040  20.487   8.675  14.448
18056W        W83041   5.325  13.323   1.885
18057W        W83042  35.604   0.499  12.881
18058W        W83043   3.595  15.531   2.725
18059W        W83044  11.384  20.757   0.260
18060W        W83045  30.510   4.373   1.370
18061W        W83046  36.077   4.171  11.125
18062W        W83047  16.623  26.794   2.429
18063W        W83048   6.773  34.962   1.211
18064W        W83049  14.046  35.984  13.085
18065W        W83050  20.154  36.855  10.709
18066W        W83051  44.036  37.994   0.182
18067W        W83052   5.181   4.518   4.550
18068W        W83053  11.777  22.149   4.546
18069W        W83054   5.719  12.527   1.444
18070W        W83055  10.411  38.360   4.056
18071W        W83056   0.304  32.813   3.337
18072W        W83057  35.365   0.982  13.778
18073W        W83058  30.440   3.374   4.202
18074W        W83059  23.698  22.193  14.974
18075W        W83060  34.034  15.600   0.425
18076W        W83061   2.120  13.704  10.471
18077W        W83062  21.650   2.923  13.785
18078W        W83063  39.284  18.820  14.447
18079W        W83064   0.261   4.825  13.919
18080W        W83065  19.784  14.239  12.568
18081W        W83066  33.631   5.504   2.254
18082W        W83067  32.926   5.457   0.369
18083W        W83068  38.981  14.298   3.569
18084W        W83069  23.023  37.984   1.533
18085W        W83070  40.741   7.237  12.580
18086W        W83071  42.483  41.278   4.754
18087W        W83072  29.395   5.687  13.616
18088W        W83073  27.202  43.376   0.272
18089W        W83074   6.626  24.901  14.270
18090W        W83075   0.469   4.993   1.238
18091W        W83076  14.466   5.734  13.030
18092W        W83077  34.804  39.532  11.423
18093W        W83078   6.653  11.090   1.889
18094W        W83079  12.876  35.446  14.977
18095W        W83080   9.748  42.996  11.914
18096W        W83081   4.905  28.670   1.676
18097W        W83082   7.847  19.583  12.943
18098W        W83083  40.754  30.615   1.919
18099W        W83084  21.464   2.399   4.477
18100W        W83085  36.315   2.915   1.919
18101W        W83086   9.227  14.777   4.294
18102W        W83087   8.728  18.608  11.610
18103W        W83088   6.400  30.976  10.914
18104W        W83089   0.099  14.825   4.270
18105W        W83090  27.103   9.634  11.647
18106W        W83091  10.692  16.724  12.888
18107W        W83092  33.694   9.118  13.464
18108W        W83093   1.303  38.914   3.747
18109W        W83094  14.174   4.181  11.958
18110W        W83095  28.047  20.531  11.018
18111W        W83096  23.382  15.908   2.927
18112W        W83097  39.320  37.806   2.350
18113W        W83098  29.675  25.592  13.532
18114W        W83099  27.660   7.782  12.631
18115W        W83100   8.686  12.794   0.725
18116W        W83101   9.385  44.533   2.280
18117W        W83102  44.584  10.612   2.313
18118W        W83103  36.480  34.793  12.682
18119W        W83104  41.759  25.265  14.773
18120W        W83105   2.459   8.264   2.870
18121W        W83106  32.031  31.113   3.259
18122W        W83107   5.216  42.849   1.228
18123W        W83108  15.408  37.527  12.120
18124W        W83109   4.129   4.510  14.903
18125W        W83110  10.252  39.017  13.806
18126W        W83111  43.388  14.761   1.450
18127W        W83112  37.989  31.375   2.217
18128W        W83113  43.457   2.099   0.900
18129W        W83114  14.573  16.659  13.944
18130W        W83115   2.848   6.510   4.600
18131W        W83116  22.244  25.973   2.813
18132W        W83117  43.907   9.368  11.428
18133W        W83118  39.432  27.164  11.492
18134W        W83119  18.763  14.152  14.435
18135W        W83120  42.037   4.183   0.319
18136W        W83121  21.933  27.914   1.802
18137W        W83122  25.005  31.266   2.645
18138W        W83123  12.672  26.962   0.313
18139W        W83124   4.353  32.800  10.434
18140W        W83125  26.701  11.568   3.161
18141W        W83126  31.997  30.352  14.071
18142W        W83127  20.307  37.533   0.361
18143W        W83128  42.255  40.570  11.279
18144W        W83129  35.391  30.189   2.462
18145W        W83130   3.228  23.933   2.756
18146W        W83131  16.861  17.734  10.713
18147W        W83132   9.822   4.900  12.862
18148W        W83133  15.785  15.501   4.539
18149W        W83134   2.178  30.356   0.779
18150W        W83135   9.759   3.494  11.735
18151W        W83136   5.800  40.022  12.935
18152W        W83137  41.844  22.773  13.361
18153W        W83138  40.445  13.851  12.503
18154W        W83139  38.360  30.748  12.073
18155W        W83140  39.882  42.846   1.869
18156W        W83141  21.700  43.520   0.766
18157W        W83142  35.049   6.140   0.820
18158W        W83143  36.476  34.220  11.967
18159W        W83144   5.912  23.334  12.529
18160W        W83145  43.426  16.324   1.327
18161W        W83146  36.303  27.544   0.793
18162W        W83147  42.348   5.377   0.501
18163W        W83148  41.560  14.686   4.292
18164W        W83149  16.228   2.631   0.531
18165W        W83150  22.424   1.614   1.246
18166W        W83151  44.340  11.402   4.404
18167W        W83152  18.895  38.373   2.605
18168W        W83153  30.973  15.276   4.555
18169W        W83154  14.212  39.500  12.112
18170W        W83155  43.148  23.077   4.468
18171W        W83156  13.773  27.415   3.253
18172W        W83157  40.208  10.654   1.537
18173W        W83158  10.337  36.675  14.358
18174W        W83159  29.134  11.424   1.026
18175W        W83160  33.612  43.290   4.596
18176W        W83161  23.733  12.192   3.286
18177W        W83162  24.791  44.936   3.256
18178W        W83163  38.721  23.187  14.106
18179W        W83164  14.107   6.776  11.098
18180W        W83165  14.777   2.886   0.463
18181W        W83166  31.794  23.087   4.567
18182W        W83167  29.178   2.074   0.303
18183W        W83168   5.840  40.822   4.887
18184W        W83169  14.063  42.241  11.679
18185W        W83170  21.580  31.522   2.411
18186W        W83171  16.430  29.382   4.444
18187W        W83172  27.616  22.588   2.401
18188W        W83173  34.969  25.009   1.544
18189W        W83174  39.904  32.360   2.797
18190W        W83175  26.765  14.704  13.294
18191W        W83176  14.442   6.945   4.208
18192W        W83177  28.368   6.003   0.365
18193W        W83178  41.013  25.579  12.548
18194W        W83179   5.779  30.156  10.363
18195W        W83180  16.491  19.257  14.295
18196W        W83181   4.855  17.324   4.181
18197W        W83182  17.172   4.077   4.605
18198W        W83183   3.913  42.664   4.576
18199W        W83184  26.135   6.361  14.533
18200W        W83185  38.150  32.548  14.833
18201W        W83186  10.910  27.935  14.962
18202W        W83187   9.196  13.268  12.529
18203W        W83188  40.504  33.959  10.762
18204W        W83189  16.559  14.194   1.402
18205W        W83190  12.699  39.796  13.587
18206W        W83191  19.992  40.416  12.899
18207W        W83192  14.083  37.435  13.072
18208W        W83193   6.466   9.703   3.172
18209W        W83194  10.866  32.297  11.988
18210W        W83195  18.243  24.134  11.965
18211W        W83196   7.093   8.757   4.889
18212W        W83197   6.323   3.689   2.283
18213W        W83198  42.307  14.250   2.285
18214W        W83199  15.096  28.934  13.603
18215W        W83200  23.115  18.754   2.220
18216W        W83201   4.753   7.354   2.684
18217W        W83202   8.507   5.138   1.796
18218W        W83203  38.006   5.200  11.548
18219W        W83204  17.819  37.211   2.089
18220W        W83205   6.126   4.491  12.460
18221W        W83206  16.550  22.268   3.760
18222W        W83207  33.774  44.196  12.313
18223W        W83208   8.108   9.283  13.909
18224W        W83209  32.476  16.640   4.089
18225W        W83210  43.490  40.500   0.260
18226W        W83211  39.531  39.528   0.450
18227W        W83212  15.022   5.840  14.361
18228W        W83213   1.207  40.995  12.111
18229W        W83214  22.278  16.368   5.161
18230W        W83215  37.814  19.646   0.389
18231W        W83216   5.167  17.612   0.272
18232W        W83217  32.376  26.033  11.952
18233W        W83218   0.984  21.655  13.247
18234W        W83219   6.631  44.669  11.594
18235W        W83220  11.785   1.172   3.235
18236W        W83221  37.140  22.588  13.887
18237W        W83222  20.113  25.223  11.244
18238W        W83223   9.466  12.229  12.993
18239W        W83224   0.985   8.877  12.625
18240W        W83225  12.843  28.244  12.842
18241W        W83226  21.484  39.845   0.804
18242W        W83227  32.883  34.030  12.529
18243W        W83228  29.125  22.282  14.029
18244W        W83229  19.142  23.832   1.770
18245W        W83230  40.450  33.901  14.578
18246W        W83231   3.695   7.696   1.205
18247W        W83232  21.608  28.129  11.472
18248W        W83233  14.102   9.636   4.174
18249W        W83234   5.154  22.956   4.332
18250W        W83235  35.633  21.594   2.899
18251W        W83236  17.861   4.733   1.780
18252W        W83237  35.008  15.731  10.812
18253W        W83238  44.379  31.508  11.263
18254W        W83239  37.667  23.461   1.612
18255W        W83240  22.510  22.423   1.470
18256W        W83241  33.878  19.870   0.438
18257W        W83242   1.723  37.517  13.967
18258W        W83243  43.331  19.593   2.651
18259W        W83244  30.620  11.181   1.491
18260W        W83245  26.156  29.057  12.307
18261W        W83246  43.563  26.598  10.670
18262W        W83247  38.295  42.393   4.090
18263W        W83248  34.892  11.780  14.240
18264W        W83249  40.968  16.073   3.639
18265W        W83250  35.963  18.713   4.723
18266W        W83251   0.749  14.043   2.214
18267W        W83252  41.498   9.287  12.839
18268W        W83253  21.571   9.768  11.648
18269W        W83254  41.535  36.532  13.488
18270W        W83255  44.782  29.176   3.206
18271W        W83256  17.275  20.690   5.594
18272W        W83257  25.962  39.335   3.691
18273W        W83258  34.942  40.562  12.512
18274W        W83259   7.136  31.388  13.894
18275W        W83260  26.095  18.557   1.339
18276W        W83261  11.602  12.778   4.495
18277W        W83262   2.241  39.817   0.665
18278W        W83263  34.330  36.765  14.439
18279W        W83264  27.214  20.524  12.033
18280W        W83265  29.662  13.062   3.667
18281W        W83266  33.253  41.124   0.851
18282W        W83267  34.316  41.835   3.580
18283W        W83268  37.765  17.062  12.067
18284W        W83269  30.659  42.281   1.388
18285W        W83270   2.331  37.529  14.759
18286W        W83271  15.594   2.518  12.791
18287W        W83272  12.730  18.244  14.895
18288W        W83273   5.329  31.575   2.177
18289W        W83274   1.868  32.395  14.536
18290W        W83275   9.708  32.517   4.249
18291W        W83276   1.557  32.290   2.582
18292W        W83277  40.285  24.752  12.638
18293W        W83278  20.010  43.911  12.795
18294W        W83279  30.822  18.091   4.674
18295W        W83280  35.419  16.433   2.211
18296W        W83281  23.610  23.667  12.111
18297W        W83282   3.235  29.152   4.103
18298W        W83283   2.424  36.924   3.301
18299W        W83284  15.287  32.172   0.254
18300W        W83285  11.494   1.062  12.606
18301W        W83286  23.229   6.519   0.452
18302W        W83287   1.792   8.171  14.500
18303W        W83288  28.385  43.427   4.322
18304W        W83289  18.070  34.044  11.619
18305W        W83290  21.208  33.147  12.159
18306W        W83291  44.744  44.413  11.149
18307W        W83292   7.412  20.257   0.427
18308W        W83293  23.997  28.045  14.057
18309W        W83294  25.562   0.334   3.033
18310W        W83295  42.053  27.917   1.315
18311W        W83296  15.235  44.428  13.373
18312W        W83297  39.546   9.548  12.614
18313W        W83298  22.603   6.790  10.433
18314W        W83299  41.219  28.996   2.632
18315W        W83300  43.487   3.443  13.787
18316W        W83301  32.473   1.428   1.844
18317W        W83302  13.093   0.937   0.545
18318W        W83303   6.359  16.058   0.293
18319W        W83304  27.063  40.794   4.420
18320W        W83305   5.458  25.581  10.694
18321W        W83306  10.752  16.295  11.198
18322W        W83307  36.976  10.928   1.252
18323W        W83308  11.312   6.769   4.199
18324W        W83309  25.963   9.207   4.465
18325W        W83310  27.161   1.622  13.103
18326W        W83311  13.681   0.508   2.255
18327W        W83312   1.327  42.559  14.844
18328W        W83313  29.820  22.938  12.027
18329W        W83314  15.175  11.581  12.092
18330W        W83315  20.229  32.177  12.457
18331W        W83316  40.251  26.563   3.269
18332W        W83317  10.837  21.978  11.028
18333W        W83318  12.387  42.117   2.633
18334W        W83319   3.472  12.061  13.872
18335W        W83320   6.343  29.419   3.435
18336W        W83321  10.667  25.733   4.249
18337W        W83322  21.498  44.432  13.179
18338W        W83323   6.495  19.496  13.013
18339W        W83324  40.340  23.482   3.730
18340W        W83325  22.530  11.697   1.855
18341W        W83326  42.019   1.522  13.528
18342W        W83327  11.485   0.569  12.481
18343W        W83328   2.331   0.478   1.379
18344W        W83329  14.512   6.759   2.262
18345W        W83330  39.357  18.101   0.061
18346W        W83331   8.287   9.363  13.420
18347W        W83332   8.482  37.355   0.382
18348W        W83333   3.529  26.359  13.940
18349W        W83334  26.503   6.168   1.297
18350W        W83335   2.304  27.992   2.781
18351W        W83336  25.028   4.996  14.200
18352W        W83337   1.419  39.588   4.309
18353W        W83338  16.139  22.530  10.420
18354W        W83339  22.087  32.284  12.939
18355W        W83340  23.880  40.300  10.563
18356W        W83341  21.468  35.796   1.371
18357W        W83342  13.247  35.965  14.734
18358W        W83343   5.506  29.566  13.875
18359W        W83344  20.100   4.992   5.375
18360W        W83345   8.433  37.637   4.156
18361W        W83346   0.407  24.620   1.196
18362W        W83347   8.741  27.442   0.364
18363W        W83348  42.485   1.232   2.987
18364W        W83349  31.277  11.192  13.501
18365W        W83350  29.363   7.304   1.186
18366W        W83351  44.445  32.368   1.225
18367W        W83352  33.375  13.118  10.567
18368W        W83353  30.113  34.520   4.793
18369W        W83354  42.926  20.094   1.145
18370W        W83355   8.798  25.238   2.725
18371W        W83356  28.433  17.203  13.465
18372W        W83357  11.452  38.101  11.131
18373W        W83358  31.110  34.680   1.623
18374W        W83359  39.280  21.221   4.128
18375W        W83360  44.864  21.755  12.993
18376W        W83361   7.292  33.904  12.132
18377W        W83362  25.513  35.581   4.333
18378W        W83363  38.949  30.506   4.628
18379W        W83364  25.523  42.893  11.993
18380W        W83365  40.976  19.129  14.851
18381W        W83366  10.220  20.847  11.977
18382W        W83367  26.851  42.427   4.024
18383W        W83368   1.240  23.590   4.205
18384W        W83369  29.521   9.457   4.587
18385W        W83370  44.441  22.202   2.775
18386W        W83371  12.878   6.130   4.591
18387W        W83372   4.722  22.110   1.338
18388W        W83373  19.551  30.447  13.172
18389W        W83374  40.779  12.116  11.455
18390W        W83375   2.679  23.989  13.365
18391W        W83376  31.142  37.921   4.035
18392W        W83377  35.531  33.650  14.355
18393W        W83378  38.829  11.376  14.452
18394W        W83379  27.017  10.305   3.748
18395W        W83380   4.910   9.755  12.536
18396W        W83381  30.804  19.837   5.108
18397W        W83382  41.001   6.468  13.413
18398W        W83383  35.499   3.747  13.186
18399W        W83384  11.612   9.340  14.110
18400W        W83385  19.055   3.922   4.666
18401W        W83386  18.784   7.174   3.061
18402W        W83387  19.378  35.059   1.883
18403W        W83388  32.053   6.298   2.588
18404W        W83389  42.629  33.974  12.471
18405W        W83390   5.779  11.611  12.643
18406W        W83391  40.063   7.538  13.384
18407W        W83392  32.179  38.494  12.135
18408W        W83393  16.331  37.075   0.124
18409W        W83394  30.268  23.602  11.124
18410W        W83395  24.120   5.888  12.430
18411W        W83396   5.950  32.735  11.167
18412W        W83397  15.617   4.295   4.573
18413W        W83398  15.030   8.791  13.856
18414W        W83399  24.688  29.413  13.432
18415W        W83400   8.261   3.420  14.941
18416W        W83401  41.817   3.459  12.439
18417W        W83402  19.445  15.556  11.598
18418W        W83403  16.183  22.481   1.262
18419W        W83404  16.061  12.598   3.574
18420W        W83405  44.168  32.445  11.416
18421W        W83406  19.162   4.736   0.013
18422W        W83407  14.810  37.977  14.867
18423W        W83408  39.919  29.114   0.509
18424W        W83409   2.409   0.543  13.339
18425W        W83410  36.360  26.185   3.376
18426W        W83411  25.953  40.814   3.175
18427W        W83412   4.181  16.146   0.395
18428W        W83413  21.065  40.836   3.238
18429W        W83414  44.375  25.174   3.675
18430W        W83415  32.544  38.341  10.935
18431W        W83416  40.683  10.752   1.355
18432W        W83417   5.932  41.453   0.787
18433W        W83418   5.423  22.111   2.840
18434W        W83419  42.849  38.231   9.864
18435W        W83420   3.950  33.181   3.877
18436W        W83421   6.371  32.430   2.785
18437W        W83422  30.661  14.664  11.138
18438W        W83423  19.529  20.298  11.068
18439W        W83424  26.448   2.916   2.407
18440W        W83425  15.856  42.807   3.133
18441W        W83426  15.605  30.574  14.752
18442W        W83427   2.263  25.983   2.213
18443W        W83428   2.373  25.135   1.068
18444W        W83429  39.605  30.746   4.961
18445W        W83430   5.958   7.350   4.517
18446W        W83431  10.305   5.735   3.148
18447W        W83432   3.933  29.351   1.004
18448W        W83433  30.574  22.073   4.191
18449W        W83434  28.574   4.166   2.396
18450W        W83435  35.216  34.454   3.807
18451W        W83436  30.709  28.162  11.511
18452W        W83437  33.038  25.418   4.658
18453W        W83438  15.179  33.234   0.204
18454W        W83439  44.758  12.278   1.369
18455W        W83440  29.246  42.660  14.919
18456W        W83441  22.147  32.864  14.372
18457W        W83442  38.509  27.139  14.836
18458W        W83443  30.015  26.363   4.778
18459W        W83444  15.909  36.429   4.063
18460W        W83445  32.564   5.263   4.169
18461W        W83446  11.793  24.610  11.060
18462W        W83447  18.195   7.840   4.259
18463W        W83448  26.683  30.758   1.341
18464W        W83449  23.135  14.574  14.774
18465W        W83450  35.407  10.183   4.580
18466W        W83451  31.371  15.875   2.238
18467W        W83452  28.239   4.854  11.083
18468W        W83453  24.628  22.172  14.095
18469W        W83454  31.015  25.700   3.313
18470W        W83455  16.048  25.996  14.544
18471W        W83456  15.211  33.206  10.716
18472W        W83457   7.096  12.336   1.378
18473W        W83458  41.252   2.491  13.940
18474W        W83459   4.287  16.760   1.114
18475W        W83460  37.456  17.278   2.843
18476W        W83461  33.151   1.262   2.917
18477W        W83462  12.755  15.364  12.898
18478W        W83463  21.096   9.330  13.887
18479W        W83464  30.968  28.062   1.794
18480W        W83465   9.070  39.551  10.757
18481W        W83466  12.572   8.422  12.636
18482W        W83467  21.571  43.342   3.399
18483W        W83468  10.709  32.038  14.044
18484W        W83469  11.357  34.847   4.282
18485W        W83470   5.259  17.889  11.056
18486W        W83471  35.191  12.186  10.581
18487W        W83472   2.186   1.394  10.405
18488W        W83473  19.728  26.139   0.449
18489W        W83474  25.526  32.436   1.720
18490W        W83475  39.925  32.506  10.175
18491W        W83476   2.784  41.860   3.560
18492W        W83477  35.529   4.948   4.497
18493W        W83478  26.687   3.780   3.674
18494W        W83479   4.574  21.796  13.868
18495W        W83480  32.519  38.569  11.381
18496W        W83481  21.583  35.468   2.637
18497W        W83482  33.819  16.323  14.534
18498W        W83483  26.075  32.969   1.263
18499W        W83484  35.246   7.326  11.667
18500W        W83485   4.406  25.997   1.234
18501W        W83486   2.650   9.755   0.729
18502W        W83487  25.144  15.512   4.069
18503W        W83488  12.668  24.624  11.693
18504W        W83489  13.327  10.329  10.847
18505W        W83490  35.425  18.694   3.892
18506W        W83491  29.108  40.408  11.038
18507W        W83492  42.289  13.864   2.840
18508W        W83493   5.804  20.003   4.665
18509W        W83494  34.015   4.493   1.227
18510W        W83495  20.523  12.641   4.029
18511W        W83496  39.454  29.957   2.045
18512W        W83497  28.495  39.079   1.775
18513W        W83498  10.288  26.188  13.662
18514W        W83499  37.926  38.676   2.292
18515W        W83500  24.517  29.575  14.716
18516W        W83501  25.723  11.843   2.192
18517W        W83502  37.486  18.057   1.601
18518W        W83503   3.197  30.571  13.135
18519W        W83504   3.717  36.084  12.918
18520W        W83505  35.491  18.795   3.376
18521W        W83506  16.846  19.654   2.846
18522W        W83507  22.892  34.873   4.202
18523W        W83508  42.023  38.493  12.023
18524W        W83509  15.380  26.019  11.241
18525W        W83510  38.107   8.677  13.469
18526W        W83511  24.311  22.906  10.460
18527W        W83512   5.177  30.676   3.486
18528W        W83513  15.276  33.104  11.211
18529W        W83514  27.034  43.427  13.373
18530W        W83515  34.788   4.712   3.806
18531W        W83516  18.198  20.182  12.848
18532W        W83517  10.295  31.018   4.881
18533W        W83518   0.076  34.839   3.981
18534W        W83519  39.071   6.895   3.591
18535W        W83520  26.900  34.873  12.164
18536W        W83521  32.637  19.270   0.635
18537W        W83522  14.360  25.535  14.409
18538W        W83523  13.460  43.751  13.446
18539W        W83524   5.496   0.704  13.840
18540W        W83525  34.880  13.746   2.439
18541W        W83526  10.502   8.433   1.452
18542W        W83527  36.056  34.663  12.395
18543W        W83528  30.438  10.793  12.357
18544W        W83529  32.107  41.465   4.098
18545W        W83530   0.353  43.827  13.477
18546W        W83531   8.686  20.383   0.777
18547W        W83532   4.808  32.084  10.291
18548W        W83533  43.903  18.673  13.045
18549W        W83534  42.041  25.076  13.821
18550W        W83535  37.337   9.575  12.245
18551W        W83536  38.434  13.868  12.615
18552W        W83537  36.876   8.277  11.577
18553W        W83538  11.747  19.256  11.509
18554W        W83539  26.670   0.063   1.630
18555W        W83540   0.039  13.758   4.403
18556W        W83541  14.516   8.233   3.268
18557W        W83542  44.707   2.204  14.300
18558W        W83543  16.539   4.403   3.168
18559W        W83544  27.752  33.642   3.676
18560W        W83545  22.787  15.450  10.361
18561W        W83546  10.317  21.956  14.361
18562W        W83547  31.555  43.284  10.710
18563W        W83548   3.990   8.380  11.039
18564W        W83549   9.308  39.910  10.469
18565W        W83550   0.287   1.998  13.855
18566W        W83551  43.875   1.328   4.299
18567W        W83552  42.415  12.394  14.457
18568W        W83553  11.488  32.423  14.497
18569W        W83554  16.392  31.398  10.705
18570W        W83555   6.943  39.952   3.655
18571W        W83556   9.285  39.978  10.975
18572W        W83557  28.675  38.065  11.458
18573W        W83558  40.007  40.334   0.526
18574W        W83559   6.924   1.228   3.593
18575W        W83560   8.495  33.276  14.450
18576W        W83561  32.150  24.635  14.398
18577W        W83562  34.359  43.313   2.191
18578W        W83563   1.900  11.582   0.480
18579W        W83564  32.498  18.178   2.695
18580W        W83565  44.407  27.371   1.384
18581W        W83566  16.548  10.368   0.529
18582W        W83567  15.845  41.086   1.303
18583W        W83568  24.201  29.135  13.462
18584W        W83569  26.152   9.920  13.522
18585W        W83570  25.536  19.696  12.788
18586W        W83571  27.579  39.908   0.099
18587W        W83572  38.579  28.835  11.554
18588W        W83573  12.753  34.809   0.329
18589W        W83574  22.054   8.276   1.984
18590W        W83575  23.943  43.997  14.149
18591W        W83576  29.616  32.499   2.737
18592W        W83577  26.075  28.999   0.974
18593W        W83578  15.123  17.789  14.597
18594W        W83579  10.801  16.466   1.284
18595W        W83580  43.817  36.375   3.030
18596W        W83581  43.521  16.255  13.262
18597W        W83582   3.875  28.539   0.896
18598W        W83583  28.364  18.025  11.487
18599W        W83584  31.206  31.096  11.033
18600W        W83585  44.427  11.689   1.619
18601W        W83586  36.049  21.212   1.739
18602W        W83587  44.449  30.481  14.035
18603W        W83588  29.108   5.151   4.268
18604W        W83589  30.191  37.429  10.757
18605W        W83590  19.088  21.480  12.454
18606W        W83591  19.746  27.456  10.206
18607W        W83592  28.988  25.842   2.283
18608W        W83593  22.139  37.883  12.441
18609W        W83594  44.254  19.175   2.466
18610W        W83595  35.570  15.854  11.465
18611W        W83596   2.920  19.557  10.758
18612W        W83597  17.636  25.656   1.993
18613W        W83598  19.286   0.933  12.391
18614W        W83599   2.910  33.049  12.819
18615W        W83600  38.726  35.401  11.176
18616W        W83601  32.580   3.432   3.545
18617W        W83602   7.742   6.442   1.176
18618W        W83603  19.779  13.151  11.909
18619W        W83604  20.562  30.512   2.005
18620W        W83605  34.915   6.358  12.481
18621W        W83606  16.215  40.358   4.514
18622W        W83607  15.001  22.847   2.409
18623W        W83608  21.268  17.647  11.846
18624W        W83609   2.594  38.456   3.807
18625W        W83610  13.271   8.418   3.685
18626W        W83611  42.487  30.123  10.319
18627W        W83612  37.408  33.372  13.400
18628W        W83613  38.085  20.008  10.268
18629W        W83614  27.629  28.084  12.620
18630W        W83615  42.465  22.996   4.156
18631W        W83616   0.290  36.120  13.923
18632W        W83617  35.902  40.682   2.495
18633W        W83618  32.110  19.172   3.926
18634W        W83619  27.881  38.798  13.367
18635W        W83620  42.789  13.377   3.195
18636W        W83621   8.338  38.585  13.088
18637W        W83622  38.290  28.060   3.219
18638W        W83623  13.794   8.894   3.170
18639W        W83624  30.717   9.336   2.769
18640W        W83625  13.235  11.008  12.795
18641W        W83626  38.941  18.798  10.021
18642W        W83627   3.726   8.195  14.423
18643W        W83628  25.943   9.921   2.280
18644W        W83629  29.062  24.045   3.904
18645W        W83630  42.942  15.053  14.297
18646W        W83631   7.953  17.059  14.906
18647W        W83632  36.290  14.353  12.863
18648W        W83633  27.391  15.171   1.810
18649W        W83634  36.891  14.267  14.767
18650W        W83635  37.725  18.256   1.199
18651W        W83636   4.116  22.510   1.001
18652W        W83637  32.808  13.011  12.544
18653W        W83638  19.153  22.305   3.783
18654W        W83639   7.862   8.924   4.304
18655W        W83640  10.435  37.094   2.682
18656W        W83641  40.075  10.441  11.575
18657W        W83642  43.518  34.538   2.421
18658W        W83643   4.964  20.233  12.429
18659W        W83644  37.138   0.248  13.570
18660W        W83645  26.286  13.725  14.811
18661W        W83646  18.129   7.810  14.956
18662W        W83647  42.838  12.392  14.765
18663W        W83648   9.818  33.049   1.009
18664W        W83649  35.033  10.825   5.250
18665W        W83650  36.529   0.674   4.994
18666W        W83651  35.987  32.122  11.613
18667W        W83652  30.921   3.263   1.613
18668W        W83653  22.722   0.738   3.189
18669W        W83654  44.740  29.984   4.124
18670W        W83655  19.712  17.557  12.529
18671W        W83656   2.918  10.843  12.344
18672W        W83657  14.770   8.907   1.890
18673W        W83658  29.561  35.630  14.330
18674W        W83659  35.443  13.681   2.859
18675W        W83660  38.020  26.387  11.170
18676W        W83661   3.605  39.082   3.357
18677W        W83662  19.852  13.206  13.934
18678W        W83663   5.934  25.479   4.155
18679W        W83664  42.558   9.686  13.761
18680W        W83665  10.797  36.287  11.963
18681W        W83666  11.612  28.883   3.805
18682W        W83667  18.297   5.912  12.110
18683W        W83668  23.595  14.315  13.611
18684W        W83669  44.421  44.366   4.485
18685W        W83670  33.511  43.525   3.305
18686W        W83671  37.914  35.413  11.574
18687W        W83672   7.749  17.416  10.503
18688W        W83673  10.347   0.404  10.929
18689W        W83674   2.382  38.318   4.237
18690W        W83675  44.339  26.455  12.523
18691W        W83676  10.764  39.200  11.507
18692W        W83677  15.558  20.123   0.994
18693W        W83678  29.024  40.350   3.143
18694W        W83679  18.279  30.929   5.033
18695W        W83680   3.032  27.742   3.253
18696W        W83681  22.385   2.190  11.247
18697W        W83682  16.738  36.558   0.721
18698W        W83683  42.248  22.107   0.432
18699W        W83684  37.966  41.881  13.014
18700W        W83685  13.602   0.988   0.412
18701W        W83686   8.654  41.476  13.387
18702W        W83687  37.044  16.550  13.174
18703W        W83688   1.855   7.439   2.617
18704W        W83689   4.645  24.601   3.362
18705W        W83690  28.865  32.072  14.233
18706W        W83691  23.144  19.529   1.783
18707W        W83692  29.956  14.400  10.690
18708W        W83693  15.916  16.221  12.560
18709W        W83694   6.766  19.734   4.242
18710W        W83695  24.258   3.787  14.116
18711W        W83696  20.207   7.576   4.151
18712W        W83697   7.816  12.688  11.572
18713W        W83698  11.658  12.783  12.804
18714W        W83699  40.386   2.015   0.852
18715W        W83700  11.179  42.798   0.887
18716W        W83701   7.895  15.175   1.133
18717W        W83702  33.128  27.470   5.078
18718W        W83703  29.476  23.731   1.794
18719W        W83704  42.052  37.417   2.238
18720W        W83705  40.513  28.160  10.414
18721W        W83706  38.759   4.245   0.129
18722W        W83707  39.305  31.126  12.628
18723W        W83708   1.366  24.441  14.414
18724W        W83709  26.654  24.573   1.700
18725W        W83710  19.703  29.669  10.714
18726W        W83711  31.924  18.641   3.268
18727W        W83712   1.638  21.135   4.512
18728W        W83713  30.569  24.671   0.370
18729W        W83714   0.919  20.551  10.482
18730W        W83715  35.921  34.024   0.658
18731W        W83716  14.254   2.784  11.017
18732W        W83717  13.513  30.231   1.101
18733W        W83718  11.309  19.616   4.090
18734W        W83719  10.884  31.847  13.072
18735W        W83720   7.315  20.078  12.647
18736W        W83721  42.829  18.785  12.502
18737W        W83722  23.943  15.274   1.372
18738W        W83723  37.316  34.185   3.287
18739W        W83724   4.581  28.180  11.148
18740W        W83725  15.600   0.177  10.744
18741W        W83726   3.963  34.082   2.675
18742W        W83727  29.459   7.314   0.216
18743W        W83728  32.463  28.700  11.927
18744W        W83729  12.611  36.660  12.998
18745W        W83730  42.795  20.597   0.499
18746W        W83731  15.608  31.489   1.959
18747W        W83732  13.819  37.118  14.228
18748W        W83733  43.010  15.108  10.900
18749W        W83734   9.911  33.134  10.660
18750W        W83735  12.957   7.787   3.723
18751W        W83736  19.667   8.306  12.868
18752W        W83737  11.258  24.076  10.663
18753W        W83738   9.462  31.426  14.357
18754W        W83739   2.588  25.023   1.537
18755W        W83740  21.726  39.940   1.268
18756W        W83741  33.578  10.251   0.337
18757W        W83742   4.835  32.634  10.385
18758W        W83743  33.624  20.974   1.268
18759W        W83744   1.430  28.864   4.500
18760W        W83745  32.459  39.687  12.039
18761W        W83746  35.525   1.294   1.740
18762W        W83747  26.964  34.436   3.708
18763W        W83748  24.293  17.281  13.399
18764W        W83749   5.815  21.573  14.859
18765W        W83750  13.809  21.305   1.827
18766W        W83751  43.925  24.502   0.608
18767W        W83752   5.709  28.554   4.097
18768W        W83753  30.023  37.534   4.246
18769W        W83754   2.203   7.096   1.835
18770W        W83755  25.618  24.226  12.323
18771W        W83756   5.054  41.556   4.100
18772W        W83757   2.052  34.949   3.147
18773W        W83758   4.813  15.856   4.108
18774W        W83759  21.212  42.927  10.316
18775W        W83760  39.846   7.877  13.025
18776W        W83761  40.381  22.141   3.860
18777W        W83762  44.694  35.634   9.847
18778W        W83763  22.248   8.207  12.122
18779W        W83764  21.215  37.646   1.131
18780W        W83765  17.787  33.860   1.210
18781W        W83766   9.470   9.726   2.850
18782W        W83767  19.145  12.848   1.350
18783W        W83768   2.290  25.791  13.082
18784W        W83769  29.045   1.852   0.740
18785W        W83770  23.705  10.973   1.300
18786W        W83771  35.352  35.043  12.499
18787W        W83772  13.648  12.049  13.425
18788W        W83773  24.103  11.629  10.437
18789W        W83774  11.516  29.278   5.015
18790W        W83775  28.007  34.453  12.025
18791W        W83776  42.464  15.813   2.799
18792W        W83777  20.318  33.002  14.447
18793W        W83778  16.321  44.862  10.631
18794W        W83779   4.372  14.123   4.652
18795W        W83780  14.613  31.909   2.177
18796W        W83781  11.460  38.040   0.559
18797W        W83782  10.350  43.693   0.605
18798W        W83783  18.633   5.504  12.066
18799W        W83784   3.547  43.513   3.544
18800W        W83785   0.353  27.194   0.404
18801W        W83786  15.897  21.187   0.488
18802W        W83787  14.904  37.472   1.824
18803W        W83788  19.564  34.204  10.745
18804W        W83789  44.338  35.377  11.764
18805W        W83790   6.013   6.559   4.578
18806W        W83791  28.748   4.360   0.196
18807W        W83792   2.155   4.856  10.344
18808W        W83793   9.211  34.630  14.389
18809W        W83794  23.643  18.700   4.015
18810W        W83795  28.039  10.760  14.484
18811W        W83796  24.454  17.772  14.509
18812W        W83797   1.839   3.800   1.702
18813W        W83798   0.924  15.578  14.815
18814W        W83799  20.545  30.983   2.235
18815W        W83800  13.694   3.870  10.194
18816W        W83801  38.193  39.923   2.235
18817W        W83802  31.833   3.864   2.173
18818W        W83803  41.804  39.830   4.195
18819W        W83804   0.935  27.009   4.693
18820W        W83805  43.298  25.350   3.639
18821W        W83806  13.124  22.292  12.481
18822W        W83807  42.661   5.578   4.085
18823W        W83808  30.139  38.103  13.382
18824W        W83809  40.509  36.565   4.526
18825W        W83810  16.092   9.680   3.780
18826W        W83811  18.296  27.535   0.523
18827W        W83812  29.627  44.428  14.000
18828W        W83813  12.871  35.489   0.884
18829W        W83814  38.941  20.245  11.123
18830W        W83815  34.573   1.945  12.456
18831W        W83816  21.779  39.603   3.196
18832W        W83817  43.459  38.829   3.982
18833W        W83818   7.948  27.222   4.396
18834W        W83819  25.501   4.791   3.124
18835W        W83820  26.718   8.083   4.130
18836W        W83821  11.667  22.104  12.567
18837W        W83822  39.551   6.195  13.381
18838W        W83823  14.688  33.581  12.064
18839W        W83824  28.689  15.242  14.346
18840W        W83825  12.294  23.209  13.969
18841W        W83826   1.419   0.876   3.779
18842W        W83827  34.284  25.520  12.864
18843W        W83828  24.449  13.593  12.108
18844W        W83829  34.148  38.271   3.612
18845W        W83830  42.945  33.682   2.856
18846W        W83831   4.059   6.525   3.151
18847W        W83832   5.699  24.600   0.053
18848W        W83833  23.068  10.849   2.212
18849W        W83834  17.308  39.559  13.509
18850W        W83835  38.568   8.188   1.647
18851W        W83836  18.587   7.412  11.512
18852W        W83837  44.540  11.055  12.943
18853W        W83838  10.272  32.375  12.632
18854W        W83839  19.050  39.854   2.735
18855W        W83840   5.698  10.726   1.211
18856W        W83841  40.758   9.697   4.020
18857W        W83842   6.682  12.770   4.478
18858W        W83843  42.349  27.554  14.907
18859W        W83844  34.447  43.919  10.846
18860W        W83845  17.570  19.354   9.796
18861W        W83846  35.513   7.709   3.230
18862W        W83847   3.303  38.819   4.124
18863W        W83848  19.814  37.438   1.250
18864W        W83849   7.356   0.711  11.595
18865W        W83850  21.522  26.950   4.468
18866W        W83851   4.331   4.706   0.790
18867W        W83852  25.077  25.649   2.800
18868W        W83853  39.876   9.731  14.010
18869W        W83854   8.343   9.591   2.902
18870W        W83855  41.359  26.976  14.994
18871W        W83856  33.655   6.379  12.995
18872W        W83857  42.849  39.020  10.481
18873W        W83858  12.412  22.797   1.854
18874W        W83859  16.278  33.183  13.384
18875W        W83860  26.015  35.823   2.816
18876W        W83861  11.835   9.265   4.405
18877W        W83862  27.936  37.185   3.663
18878W        W83863  36.494  19.597   2.148
18879W        W83864  12.262  29.051   2.566
18880W        W83865  17.671  10.016  10.479
18881W        W83866  42.304  10.369  13.375
18882W        W83867  16.781   0.457  13.472
18883W        W83868   6.322  39.809  14.722
18884W        W83869  39.906   5.754   0.036
18885W        W83870  21.191  24.552  10.759
18886W        W83871   5.983  24.651   1.097
18887W        W83872  20.637  14.011   4.398
18888W        W83873  25.525  36.062  12.394
18889W        W83874  29.066   0.291  13.424
18890W        W83875  11.269  25.550  14.567
18891W        W83876  13.107  29.054  12.318
18892W        W83877   2.185  13.552   4.507
18893W        W83878  27.341   8.864  10.356
18894W        W83879  43.216  43.003   2.381
18895W        W83880  10.470   7.622  11.582
18896W        W83881  23.092  42.001   4.638
18897W        W83882  22.654  18.973   1.108
18898W        W83883  15.851   1.413   3.093
18899W        W83884  37.622  10.737  11.509
18900W        W83885  31.144  29.860  12.490
18901W        W83886  27.249  31.644  10.266
18902W        W83887  27.203  25.441  13.100
18903W        W83888  11.692  34.065  14.803
18904W        W83889  12.164   5.247  11.149
18905W        W83890  26.227  31.136  13.877
18906W        W83891  27.561  28.596  12.773
18907W        W83892  44.910  23.760   0.690
18908W        W83893  26.923   0.871   9.808
18909W        W83894   8.273  39.751  13.787
18910W        W83895  10.834  11.607  12.125
18911W        W83896  33.095  21.251  13.726
18912W        W83897   6.437   0.304  10.476
18913W        W83898  26.675   0.205   0.813
18914W        W83899   2.750  12.906   0.923
18915W        W83900   2.472  10.460   2.424
18916W        W83901  33.219  28.641  14.832
18917W        W83902  37.953  43.197   3.818
18918W        W83903  11.158   8.650  12.502
18919W        W83904  10.635   6.238  11.595
18920W        W83905   9.273  36.007   2.316
18921W        W83906  13.283   5.130   4.816
18922W        W83907  37.366  10.799   0.450
18923W        W83908   7.391  33.761  12.620
18924W        W83909  13.285   5.584  14.495
18925W        W83910  16.305  14.839  13.542
18926W        W83911  31.691  15.452   2.250
18927W        W83912  43.263  41.682  11.576
18928W        W83913  23.051  23.693  10.784
18929W        W83914   5.701  10.283  14.245
18930W        W83915  16.966  28.991   3.679
18931W        W83916  15.582  14.350  14.610
18932W        W83917  23.628   4.743  12.046
18933W        W83918   5.827   4.806   3.341
18934W        W83919  34.144  31.169  14.817
18935W        W83920  37.366  23.050   1.755
18936W        W83921  37.807  42.318  11.458
18937W        W83922  28.674   4.021   1.312
18938W        W83923  18.681  10.724  12.368
18939W        W83924   4.651   6.279  11.384
18940W        W83925  29.890  36.586   3.126
18941W        W83926   8.372  11.401   1.950
18942W        W83927  42.497  29.331   3.748
18943W        W83928  38.785  17.744   4.337
18944W        W83929   6.638  29.961   4.777
18945W        W83930  23.495   2.854  10.909
18946W        W83931  32.956  28.205   1.966
18947W        W83932  17.828  30.860  13.885
18948W        W83933  11.816  17.594   3.610
18949W        W83934  14.175   9.864   2.828
18950W        W83935  20.472  10.248  10.588
18951W        W83936  18.754  10.214  14.815
18952W        W83937  40.270  26.634  11.920
18953W        W83938  43.941  12.118   1.055
18954W        W83939   0.500  18.999   9.734
18955W        W83940  14.525  20.235  13.954
18956W        W83941  24.429  29.850  13.498
18957W        W83942  27.809  42.811  13.296
18958W        W83943  33.882   7.555  10.712
18959W        W83944  39.906  18.815  13.073
18960W        W83945  37.531  33.901   4.657
18961W        W83946  15.119  10.876   1.717
18962W        W83947  11.176  33.524  10.958
18963W        W83948  40.493   3.904  12.936
18964W        W83949   0.732  26.073   4.364
18965W        W83950  13.118  32.903  14.025
18966W        W83951  41.876  22.533  12.429
18967W        W83952   0.673  43.480  14.482
18968W        W83953  38.702  44.659  12.888
18969W        W83954  18.497  32.625  12.578
18970W        W83955  16.327  29.629  12.642
18971W        W83956  18.606  25.038   0.323
18972W        W83957   6.454  29.768  14.368
18973W        W83958   2.335   9.712  11.524
18974W        W83959   4.608  29.690  11.955
18975W        W83960  33.538   6.865  13.653
18976W        W83961  39.321  16.406  10.745
18977W        W83962  37.600  42.613  11.067
18978W        W83963  11.619  25.595   4.492
18979W        W83964  25.045  15.058  11.475
18980W        W83965  10.609  41.474  11.689
18981W        W83966  42.355   9.243   2.420
18982W        W83967  29.967  21.782   4.652
18983W        W83968  15.608  33.438  11.670
18984W        W83969   3.225  41.368  13.443
18985W        W83970   7.985  38.307   2.648
18986W        W83971  24.865   7.250  13.633
18987W        W83972  32.782  27.841  12.090
18988W        W83973  15.312  12.305   0.711
18989W        W83974  39.608  40.333   0.126
18990W        W83975  29.464  34.068  13.780
18991W        W83976  44.942  26.809  14.471
18992W        W83977  29.513  30.858  10.126
18993W        W83978  11.105  21.183   0.513
18994W        W83979  23.999  37.795   1.217
18995W        W83980  22.494  42.522  13.060
18996W        W83981  18.640  20.078  13.122
18997W        W83982  26.157  16.183   4.149
18998W        W83983  27.488  40.053   4.934
18999W        W83984  27.675   7.116   4.352
19000W        W83985  22.164   4.821  14.267
19001W        W83986  37.011  23.664   1.439
19002W        W83987   0.762   9.718  14.383
19003W        W83988   9.041  31.877  10.116
19004W        W83989  28.209  43.626   0.354
19005W        W83990   0.003  36.730  12.213
19006W        W83991  20.329   7.762  14.381
19007W        W83992  26.450   3.196  14.797
19008W        W83993   1.964  14.819   1.254
19009W        W83994  24.430  14.815   2.781
19010W        W83995  35.593   8.294   2.364
19011W        W83996  41.927   7.611   2.896
19012W        W83997  39.770   5.215  12.555
19013W        W83998  30.189  22.155  14.104
19014W        W83999  30.371  43.896  13.837
19015W        W84000   4.387  31.758   1.421
19016W        W84001   6.236  10.721   2.775
19017W        W84002  20.765  36.229  12.082
19018W        W84003  24.475  37.752  14.894
19019W        W84004  16.063  39.858   4.772
19020W        W84005   2.888  36.295   0.648
19021W        W84006  37.141  34.650   3.103
19022W        W84007  26.008  44.291   2.379
19023W        W84008  35.963  35.578  13.971
19024W        W84009  38.090  41.711   0.307
19025W        W84010  38.584  41.408  13.970
19026W        W84011  15.386  26.501   0.959
19027W        W84012  10.114  12.298   0.848
19028W        W84013   2.280  24.988   3.850
19029W        W84014   8.102  29.555   2.412
19030W        W84015  42.179  12.509   2.443
19031W        W84016  21.753  31.136  14.788
19032W        W84017  26.552  34.227   3.344
19033W        W84018  20.062  28.786  11.088
19034W        W84019  16.553  33.154   0.327
19035W        W84020  44.706  10.665   1.774
19036W        W84021  35.845  37.366  13.427
19037W        W84022  39.561  40.108  13.365
19038W        W84023  39.509   7.662  12.082
19039W        W84024  44.137  42.010   1.268
19040W        W84025   5.359  23.575   0.393
19041W        W84026  13.324  41.477  14.370
19042W        W84027  44.876  29.896  13.442
19043W        W84028  40.190  42.493  10.629
19044W        W84029  16.737  26.138   3.086
19045W        W84030  22.494   3.651   2.973
19046W        W84031  29.316  18.113  14.340
19047W        W84032   0.465   6.882   1.612
19048W        W84033  10.564  18.266  12.073
19049W        W84034  36.004  13.124   0.437
19050W        W84035  44.544  43.382   2.279
19051W        W84036  32.869  34.613  10.731
19052W        W84037  33.417   9.204  14.790
19053W        W84038  41.287   2.755   1.145
19054W        W84039   6.431  30.252   0.311
19055W        W84040   2.194  12.153  12.014
19056W        W84041  38.930  32.903  13.391
19057W        W84042  22.792  29.535  11.032
19058W        W84043  16.265  25.056   4.289
19059W        W84044  13.848  40.091  10.756
19060W        W84045  39.292  36.665   3.384
19061W        W84046  41.992  21.563  10.044
19062W        W84047  35.010  35.106   4.220
19063W        W84048  20.713  32.217   4.317
19064W        W84049  23.047   9.665   2.907
19065W        W84050   0.857  43.690  13.610
19066W        W84051   5.437   9.849  10.566
19067W        W84052   4.934  23.474   2.335
19068W        W84053  15.642  37.757   3.834
19069W        W84054  19.136  19.432  14.027
19070W        W84055  36.965  33.452   4.458
19071W        W84056   4.324  16.509   4.590
19072W        W84057  31.357  29.773  12.036
19073W        W84058   4.705  38.332   3.286
19074W        W84059  26.338  44.789   5.158
19075W        W84060   6.574   1.323   4.796
19076W        W84061  40.697  41.848   0.294
19077W        W84062  33.396  21.778   4.028
19078W        W84063  40.529   7.634  10.403
19079W        W84064  30.851   4.814  10.594
19080W        W84065  13.422  22.317  10.824
19081W        W84066  37.312  15.576  13.007
19082W        W84067  33.448   4.855  12.843
19083W        W84068  21.791  18.792  14.873
19084W        W84069  25.038   8.504   1.679
19085W        W84070  37.098   0.240   4.263
19086W        W84071  19.742  39.963   1.988
19087W        W84072  23.438  32.338   1.798
19088W        W84073  16.100  32.070  14.444
19089W        W84074  42.892  39.323   1.294
19090W        W84075  27.989  37.105  10.756
19091W        W84076  16.776   2.311  13.528
19092W        W84077   1.985   7.684  11.618
19093W        W84078   4.230  32.808   3.691
19094W        W84079  17.997  23.445   3.626
19095W        W84080  36.169  37.430  12.213
19096W        W84081   0.206  43.934   1.729
19097W        W84082  15.654  23.913  12.223
19098W        W84083   2.807   4.631  14.285
19099W        W84084  43.454  39.832   1.424
19100W        W84085  38.349  16.573   2.366
19101W        W84086  41.515  27.568   3.637
19102W        W84087  14.814  43.968  11.719
19103W        W84088  38.959  26.634  11.585
19104W        W84089  32.865  33.843   4.503
19105W        W84090  39.347  19.887   0.383
19106W        W84091  23.672  20.091   3.500
19107W        W84092   4.814  42.888  12.570
19108W        W84093  14.699   6.296   2.032
19109W        W84094  21.188   1.722  10.702
19110W        W84095  41.717   3.199   4.105
19111W        W84096  38.898  14.682  12.611
19112W        W84097  29.432  30.159   2.272
19113W        W84098  38.012  31.587  11.646
19114W        W84099  29.690  31.937  13.308
19115W        W84100   4.168   5.108   2.333
19116W        W84101   4.311  10.606   1.417
19117W        W84102  32.412  31.153  13.952
19118W        W84103  19.575  37.928  11.463
19119W        W84104   3.538  42.287  12.533
19120W        W84105  19.216   5.950   2.823
19121W        W84106  20.834   9.683   2.681
19122W        W84107  26.057   4.378   0.228
19123W        W84108  14.837   2.407   1.317
19124W        W84109  28.404  12.291  10.841
19125W        W84110  28.049   2.159  13.380
19126W        W84111  26.674  42.279  12.175
19127W        W84112  15.008   9.406   2.757
19128W        W84113  43.850  43.828  10.651
19129W        W84114  25.618  11.621  11.518
19130W        W84115  16.849  41.793  13.005
19131W        W84116  35.526   5.488  14.809
19132W        W84117   5.207   7.239   2.396
19133W        W84118  36.218  36.437  11.358
19134W        W84119   6.844  27.102   4.797
19135W        W84120  10.938  31.104   2.615
19136W        W84121  41.997  37.888  12.514
19137W        W84122   6.258  43.685   1.451
19138W        W84123  30.964  32.616  12.003
19139W        W84124  12.346  26.457   1.101
19140W        W84125   9.311  42.252   1.169
19141W        W84126  42.623  29.256  13.323
19142W        W84127  12.771   2.876  11.258
19143W        W84128  33.201   1.678   1.738
19144W        W84129   2.186   1.206   0.892
19145W        W84130  22.555  10.776   3.391
19146W        W84131  40.078  21.233   3.693
19147W        W84132  14.341   8.242  13.036
19148W        W84133   2.919  15.784   0.306
19149W        W84134   3.951  11.148   0.413
19150W        W84135  23.063  11.695   3.683
19151W        W84136  42.927   2.932   2.470
19152W        W84137  31.173   2.337  11.426
19153W        W84138  44.044  33.921   1.860
19154W        W84139  32.006  17.143  12.145
19155W        W84140   4.238  33.900   3.781
19156W        W84141  17.050  43.382  14.170
19157W        W84142  36.843  13.707   2.204
19158W        W84143   3.997   0.397  11.132
19159W        W84144   2.887  33.201  11.071
19160W        W84145  28.072   7.466  11.197
19161W        W84146  31.384   8.916  11.088
19162W        W84147  22.249   5.762   3.486
19163W        W84148  18.814   2.331   3.234
19164W        W84149   9.280  12.612  10.742
19165W        W84150  32.067   7.100   4.375
19166W        W84151  42.228  16.121   4.463
19167W        W84152  40.256  12.639  11.929
19168W        W84153  14.137   6.976   4.644
19169W        W84154  11.712   4.989  12.592
19170W        W84155  20.100   0.211   0.264
19171W        W84156  10.190  27.542   4.692
19172W        W84157  25.067  16.363   3.338
19173W        W84158  24.328  17.142   0.282
19174W        W84159  13.249  20.964  12.072
19175W        W84160  38.559  36.415   1.794
19176W        W84161  24.864  41.864  14.996
19177W        W84162   5.033  41.088   4.373
19178W        W84163  26.989  37.916   1.413
19179W        W84164   3.864   1.951  12.605
19180W        W84165  43.558  12.338   3.682
19181W        W84166  44.019  15.354  13.919
19182W        W84167  42.715  36.070  12.654
19183W        W84168   4.922   1.284  11.666
19184W        W84169  22.622  44.073   2.924
19185W        W84170  22.733   9.172   4.303
19186W        W84171  38.996  24.160  14.304
19187W        W84172  14.992  16.026   0.300
19188W        W84173  29.989  14.635   2.175
19189W        W84174  22.621  19.048  14.301
19190W        W84175  15.200   1.814  13.296
19191W        W84176  35.903  11.646  14.215
19192W        W84177  13.658  38.818  12.519
19193W        W84178  14.532   3.889   0.244
19194W        W84179   2.909  40.842  14.388
19195W        W84180  37.743  29.248  11.810
19196W        W84181  13.586  36.574   4.152
19197W        W84182  37.022   4.192   3.591
19198W        W84183   7.722  43.390   1.452
19199W        W84184  36.827   9.824  14.461
19200W        W84185  31.227  12.455   2.306
19201W        W84186  11.314  19.820  12.923
19202W        W84187  15.747  25.995   2.332
19203W        W84188  16.257  37.667  11.879
19204W        W84189  40.494  38.010   4.261
19205W        W84190  25.684   5.402  11.142
19206W        W84191  24.732  20.169  13.090
19207W        W84192  29.178  21.818   1.920
19208W        W84193  42.724  40.552  11.503
19209W        W84194   2.460  43.494  14.252
19210W        W84195  39.252  34.577   2.269
19211W        W84196  38.117  44.277  13.399
19212W        W84197  31.527   6.996   2.685
19213W        W84198  34.554  24.546   0.031
19214W        W84199  14.364  12.975  14.740
19215W        W84200  17.673  24.519  11.031
19216W        W84201   9.939  27.533  11.214
19217W        W84202  27.257   1.284  14.628
19218W        W84203   4.289  34.323  14.413
19219W        W84204  15.907  32.156   0.845
19220W        W84205  12.329  17.552   0.687
19221W        W84206  34.839  18.039   9.855
19222W        W84207  24.622  43.357   1.761
19223W        W84208  19.809  20.272   0.244
19224W        W84209  25.834  38.461  11.340
19225W        W84210  19.001  29.469   4.094
19226W        W84211   3.204  37.111  12.857
19227W        W84212  30.598  13.295  13.840
19228W        W84213   6.965   6.679   2.872
19229W        W84214   2.155   5.227   0.739
19230W        W84215  10.463  25.580  10.370
19231W        W84216   3.487  38.032   2.382
19232W        W84217  29.754  17.050  13.086
19233W        W84218  23.816  39.918   0.798
19234W        W84219  16.441  20.107  14.524
19235W        W84220  18.051  15.395  11.917
19236W        W84221  28.677  41.202  13.985
19237W        W84222   0.681  29.626  11.364
19238W        W84223  44.818  30.345   2.247
19239W        W84224   3.742  42.211  14.376
19240W        W84225  11.386   1.269   0.346
19241W        W84226  35.418  35.401   2.760
19242W        W84227  20.547  23.107   3.591
19243W        W84228  14.161  17.775   1.691
19244W        W84229  19.731  21.979   3.139
19245W        W84230  27.172  34.709   0.862
19246W        W84231  20.282  27.570   0.695
19247W        W84232  41.881  41.398  12.876
19248W        W84233  26.999  38.026   2.870
19249W        W84234  44.333  31.967   0.274
19250W        W84235  27.522  14.356  13.910
19251W        W84236   1.753   2.255   0.040
19252W        W84237  18.182  10.237   4.733
19253W        W84238  23.438  39.988   4.378
19254W        W84239  10.840  27.890  13.377
19255W        W84240  40.444  31.701  13.358
19256W        W84241  25.507  10.827  14.409
19257W        W84242  15.092  40.480   4.312
19258W        W84243   2.458  16.372   1.039
19259W        W84244   7.144  12.747   0.408
19260W        W84245  33.353   9.764   1.924
19261W        W84246  18.373  26.180  12.380
19262W        W84247  16.730  39.740  12.540
19263W        W84248  11.359  34.680   0.233
19264W        W84249  40.790  35.014  14.785
19265W        W84250   4.688  27.234  11.488
19266W        W84251   4.945  41.896   2.667
19267W        W84252  16.209  38.394  11.114
19268W        W84253  12.327  18.714   3.228
19269W        W84254   3.717  37.096  13.035
19270W        W84255   5.758  37.897  14.232
19271W        W84256  23.196  28.517   0.768
19272W        W84257  13.287  33.361  13.840
19273W        W84258  19.729   9.677   1.266
19274W        W84259  41.541  22.115  10.652
19275W        W84260  26.488  15.402  14.188
19276W        W84261  21.154  37.836  14.382
19277W        W84262  24.739  34.606  14.859
19278W        W84263  19.154   3.476  13.738
19279W        W84264  40.457  17.036   1.342
19280W        W84265  29.571  29.554  13.436
19281W        W84266  39.553   1.491  12.027
19282W        W84267  10.544  42.274   0.336
19283W        W84268  13.359  37.534   4.122
19284W        W84269  34.295   4.368  12.469
19285W        W84270   4.976   1.785   2.224
19286W        W84271   0.619  14.749   2.780
19287W        W84272  14.429  37.498  11.943
19288W        W84273  39.531  37.953   2.925
19289W        W84274  10.242  29.145  12.061
19290W        W84275  31.148  28.642   3.283
19291W        W84276   8.571  37.833  12.559
19292W        W84277   2.911  21.196   1.945
19293W        W84278  29.583  33.666   4.650
19294W        W84279  33.564  21.089   3.288
19295W        W84280  24.593  42.310   1.670
19296W        W84281   6.904  28.891   2.652
19297W        W84282  10.865  10.303   1.037
19298W        W84283  26.664  19.572  10.306
19299W        W84284  25.552  28.484   4.685
19300W        W84285  10.570   0.126  12.254
19301W        W84286  34.176   1.332  14.423
19302W        W84287  36.918   1.321  12.889
19303W        W84288   0.416  33.605  12.790
19304W        W84289   6.075   0.455   2.158
19305W        W84290  12.566  35.455  14.576
19306W        W84291  30.642  36.138  13.108
19307W        W84292  12.667   6.356  11.109
19308W        W84293   0.010  18.681  13.612
19309W        W84294   7.589  25.123   3.653
19310W        W84295  39.008   7.425  12.086
19311W        W84296  35.497  37.886  14.999
19312W        W84297  33.355  39.036   0.791
19313W        W84298  24.005  39.924   2.691
19314W        W84299   3.651  40.459   4.566
19315W        W84300  29.585   2.354   2.695
19316W        W84301  20.341  36.081   2.433
19317W        W84302  25.975  40.793  14.861
19318W        W84303  29.442   5.402  12.643
19319W        W84304  36.048   4.301   3.162
19320W        W84305   5.144  21.634  12.396
19321W        W84306  42.304  13.170   3.172
19322W        W84307  25.890  26.529   4.577
19323W        W84308  38.072   3.754   1.868
19324W        W84309  13.717  32.076  13.228
19325W        W84310   5.214  30.705  11.778
19326W        W84311   3.065  26.009  11.177
19327W        W84312  36.526  13.863   0.464
19328W        W84313  10.249   0.048   2.558
19329W        W84314  18.375  32.160  12.405
19330W        W84315  38.193  26.300   2.773
19331W        W84316  13.673  10.839  12.575
19332W        W84317   1.486  12.391  14.582
19333W        W84318  32.886  30.873   3.719
19334W        W84319  25.840  40.092   0.904
19335W        W84320  39.960  33.852  13.941
19336W        W84321   6.756  32.490  11.616
19337W        W84322   3.166   6.475   4.133
19338W        W84323  28.368  20.238  14.009
19339W        W84324  43.115  19.759   9.947
19340W        W84325  31.413   8.251   1.267
19341W        W84326  36.350  43.482   1.424
19342W        W84327   9.641  11.301   2.369
19343W        W84328  41.030  25.210  12.982
19344W        W84329   0.312   5.868  12.532
19345W        W84330  25.305  17.319   4.925
19346W        W84331  25.488  14.197  13.861
19347W        W84332  18.363  13.637   1.236
19348W        W84333  34.908  19.971   0.440
19349W        W84334  25.489  26.403   3.654
19350W        W84335  31.564  14.679  13.313
19351W        W84336   7.100  17.986   3.765
19352W        W84337  18.324  41.511   4.709
19353W        W84338  26.575  27.624  10.292
19354W        W84339  12.253  37.327   0.718
19355W        W84340  29.095  42.328  12.926
19356W        W84341   9.761  26.684  14.853
19357W        W84342  22.876   0.330  10.849
19358W        W84343  29.524  37.180   1.856
19359W        W84344  17.803  17.134  12.193
19360W        W84345  13.830   9.195  11.889
19361W        W84346  21.958  21.048  12.435
19362W        W84347  29.478   9.205   1.289
19363W        W84348  18.094  23.794   2.182
19364W        W84349  30.929   0.556   4.219
19365W        W84350  22.346  44.550   4.591
19366W        W84351  21.646  26.597   3.163
19367W        W84352   5.437   0.032   4.146
19368W        W84353  42.400   6.986   4.167
19369W        W84354   5.837   0.233   1.754
19370W        W84355  10.183  24.732  13.750
19371W        W84356  22.528  30.011  13.917
19372W        W84357  38.262   9.394  12.938
19373W        W84358  14.798  20.027  10.805
19374W        W84359  41.823   4.345  13.936
19375W        W84360  26.864   5.437  12.142
19376W        W84361  40.281  21.532  12.823
19377W        W84362  28.606  38.447   4.780
19378W        W84363   7.281  28.438   1.695
19379W        W84364  16.274  41.025   0.502
19380W        W84365  38.708  35.327  14.268
19381W        W84366   4.906  26.910   4.537
19382W        W84367  31.671  16.083   0.235
19383W        W84368   4.852  28.334   1.268
19384W        W84369  36.888  21.831   0.032
19385W        W84370  14.828  42.994   9.900
19386W        W84371  32.510  26.649  11.267
19387W        W84372   6.373  29.575  14.863
19388W        W84373  28.104  40.446   1.505
19389W        W84374   0.959  39.892  11.662
19390W        W84375  18.691  37.061   1.769
19391W        W84376  24.241  11.234   3.358
19392W        W84377  32.964  28.958   2.368
19393W        W84378   6.739  18.973   1.425
19394W        W84379  26.874   3.561   1.841
19395W        W84380   6.778   4.149   4.891
19396W        W84381   8.641  11.990   4.456
19397W        W84382  24.016   1.835  13.995
19398W        W84383  35.820  15.836  11.902
19399W        W84384  22.302  37.339  11.589
19400W        W84385  12.643  43.958   1.117
19401W        W84386  20.830   6.752  11.100
19402W        W84387  33.025   0.846   4.587
19403W        W84388  44.922  39.307   1.455
19404W        W84389  26.240  43.929   5.039
19405W        W84390  18.983  26.923  11.572
19406W        W84391  39.892  31.832   2.742
19407W        W84392  17.693   8.785  14.766
19408W        W84393  40.564  36.538  10.449
19409W        W84394  16.502   8.668  13.754
19410W        W84395  20.802  17.664   0.552
19411W        W84396  38.955  23.010   2.229
19412W        W84397  29.272  37.345  12.006
19413W        W84398   6.888   9.520   2.799
19414W        W84399  25.960  18.554   0.822
19415W        W84400   6.175   1.008   4.694
19416W        W84401  17.444  24.132  12.859
19417W        W84402   6.503  33.428  14.301
19418W        W84403  35.929  33.024  11.730
19419W        W84404   4.651  27.236   0.314
19420W        W84405   8.592  30.305  13.798
19421W        W84406  11.719   6.688   3.156
19422W        W84407  15.951   7.731  13.943
19423W        W84408  18.665  42.924  12.481
19424W        W84409  36.490  14.821  11.477
19425W        W84410  29.262   8.762   0.306
19426W        W84411  29.488   3.868  14.466
19427W        W84412  15.735  16.683   0.198
19428W        W84413  41.551  19.743   4.916
19429W        W84414  26.949  25.116   4.632
19430W        W84415  24.581  44.323   3.791
19431W        W84416  18.785  24.467   4.296
19432W        W84417  22.289  22.100   1.859
19433W        W84418  25.565   8.250  14.882
19434W        W84419  35.354  41.550   1.440
19435W        W84420   0.798  24.348   4.133
19436W        W84421  17.693   3.302  14.933
19437W        W84422  20.706  33.462   2.706
19438W        W84423  38.509  13.562   3.032
19439W        W84424  17.977  42.876  10.694
19440W        W84425  21.498  20.686  14.447
19441W        W84426  37.847   5.982  11.964
19442W        W84427  36.216  12.061  14.953
19443W        W84428  12.650  13.873   4.159
19444W        W84429  39.013   2.521   0.885
19445W        W84430  16.172  34.825  14.800
19446W        W84431  25.278  41.798   1.208
19447W        W84432   9.851  17.450   4.610
19448W        W84433  20.192  31.618   4.861
19449W        W84434   1.796   2.169  14.519
19450W        W84435  18.501  14.681  12.603
19451W        W84436  40.059  12.613   1.407
19452W        W84437  14.753  43.040  14.493
19453W        W84438   5.246  30.808  12.952
19454W        W84439  11.728   5.845   2.821
19455W        W84440  43.986   3.610  14.535
19456W        W84441  26.506   4.683  13.771
19457W        W84442  35.662  34.914  11.509
19458W        W84443  38.805   7.346  10.380
19459W        W84444  40.901  38.959  14.380
19460W        W84445  16.528  32.841   0.745
19461W        W84446  17.317  28.487   2.217
19462W        W84447   5.922  17.272   0.774
19463W        W84448  16.855  28.743   0.428
19464W        W84449  39.834   4.241   3.155
19465W        W84450  15.929  32.980   9.993
19466W        W84451   2.833  37.026  13.397
19467W        W84452  42.401  30.806  10.625
19468W        W84453  11.659  12.125   3.924
19469W        W84454  24.601  18.522   2.136
19470W        W84455   0.820  41.823  10.659
19471W        W84456  37.512  17.292   4.373
19472W        W84457  31.548   9.136  11.918
19473W        W84458   4.231  17.723   2.738
19474W        W84459  11.280  35.582  14.896
19475W        W84460  19.252   9.197   2.694
19476W        W84461  10.219  33.716   1.859
19477W        W84462  42.708  19.677  12.450
19478W        W84463  32.684   5.244  12.828
19479W        W84464  26.572  37.110  14.932
19480W        W84465  43.241  15.363  12.586
19481W        W84466   7.912   2.493  12.639
19482W        W84467  24.425   6.187   1.425
19483W        W84468  43.355   0.652  11.133
19484W        W84469  41.534  41.785  11.048
19485W        W84470  35.494  13.336   0.739
19486W        W84471   9.960  11.334   0.391
19487W        W84472   0.933  18.340   1.857
19488W        W84473  20.790  42.808  14.493
19489W        W84474  29.314  44.512  10.753
19490W        W84475   9.234   9.197  13.551
19491W        W84476  12.050  14.706   4.776
19492W        W84477  32.693  21.246   1.382
19493W        W84478  33.649  18.757   1.167
19494W        W84479  34.286  36.917   1.761
19495W        W84480  16.656  23.113  10.876
19496W        W84481  14.269  34.804  14.469
19497W        W84482  20.902   8.785   4.121
19498W        W84483   7.519  40.118   4.581
19499W        W84484  33.552  19.324  13.095
19500W        W84485  41.696  34.084   2.330
19501W        W84486  34.577  34.912  12.069
19502W        W84487  10.946  18.657  10.651
19503W        W84488  44.274  25.742  12.013
19504W        W84489  44.795  16.169   3.237
19505W        W84490  36.738  29.640  13.304
19506W        W84491  39.468  28.087  13.575
19507W        W84492  36.961  32.405  10.745
19508W        W84493  19.316  25.978  12.393
19509W        W84494  32.029  21.121   2.713
19510W        W84495  10.166   1.678   1.744
19511W        W84496  17.549  24.604  10.537
19512W        W84497  20.349  39.835   1.987
19513W        W84498  13.290  25.936  14.975
19514W        W84499  39.280  42.992   2.249
19515W        W84500  35.625  22.231   3.248
19516W        W84501   7.333  15.813   0.743
19517W        W84502  10.151  27.578   0.721
19518W        W84503  42.083   4.335   4.336
19519W        W84504  17.261  21.668   0.260
19520W        W84505  36.650  36.832   3.809
19521W        W84506  12.942  43.885  12.793
19522W        W84507   7.504  11.836  14.265
19523W        W84508  44.228  36.447  10.067
19524W        W84509   1.882  22.360  13.799
19525W        W84510  40.293  16.005   1.195
19526W        W84511   6.701  10.852   4.084
19527W        W84512  23.186  25.924   2.105
19528W        W84513   2.032  37.920  13.874
19529W        W84514  22.674  11.196  14.425
19530W        W84515  31.939  30.742  11.258
19531W        W84516   9.418  11.768   1.220
19532W        W84517   4.598   4.420   2.132
19533W        W84518  27.597  43.778   0.822
19534W        W84519   1.067  36.945   2.771
19535W        W84520  13.021   6.151   1.426
19536W        W84521  31.143   6.268   3.553
19537W        W84522   3.405   3.257  12.392
19538W        W84523  13.660  43.723   4.121
19539W        W84524  29.142  25.028   0.682
19540W        W84525  20.125  16.180  11.536
19541W        W84526  31.925   7.302  12.502
19542W        W84527  22.177  27.726  12.415
19543W        W84528  29.599   4.197  11.804
19544W        W84529  42.920  16.863  14.981
19545W        W84530  43.377  41.204  11.679
19546W        W84531   9.252  18.724  11.579
19547W        W84532   7.125  24.191   3.656
19548W        W84533  34.468  13.031   4.238
19549W        W84534  17.384  17.652   4.579
19550W        W84535  20.450   5.064   1.789
19551W        W84536  28.528  33.831  14.654
19552W        W84537  11.251   9.119  13.533
19553W        W84538  30.131  43.315  10.903
19554W        W84539  20.099  36.443  14.202
19555W        W84540   5.686  12.650   4.696
19556W        W84541  12.975  42.532   3.166
19557W        W84542   8.740  25.517  12.766
19558W        W84543  29.925   1.467  13.555
19559W        W84544  33.191   6.769   2.809
19560W        W84545  23.152  15.224   3.569
19561W        W84546  10.344  20.029   2.739
19562W        W84547  24.237  32.025   2.768
19563W        W84548  10.171  19.183   4.831
19564W        W84549   6.097  42.063   3.014
19565W        W84550  20.124  25.716   0.447
19566W        W84551  19.847  31.388   1.357
19567W        W84552  37.962  38.995  10.683
19568W        W84553   1.015   9.788  12.510
19569W        W84554  18.069  28.599  12.465
19570W        W84555  31.098  14.765   4.551
19571W        W84556  35.367   5.860   2.725
19572W        W84557   7.078   7.715  11.629
19573W        W84558  38.576  44.454  12.436
19574W        W84559  44.751  35.668  11.966
19575W        W84560  40.840  24.696  14.319
19576W        W84561  44.871   1.633   3.012
19577W        W84562  18.097   4.447  11.994
19578W        W84563   7.398  33.866  10.732
19579W        W84564  22.036  38.593   1.235
19580W        W84565  14.977  11.359   2.791
19581W        W84566  38.851  34.030  13.771
19582W        W84567  12.445   1.247  12.562
19583W        W84568  30.271  33.063   9.623
19584W        W84569  23.697  35.485   1.728
19585W        W84570  18.614  13.110  11.751
19586W        W84571  15.993  25.150   1.152
19587W        W84572  16.214   9.797  14.555
19588W        W84573  30.166   4.948   2.217
19589W        W84574  26.917   2.310   2.558
19590W        W84575  15.161  34.825  11.924
19591W        W84576  15.394   3.981  11.429
19592W        W84577  40.245  10.278  12.424
19593W        W84578  25.230   8.848  14.940
19594W        W84579   5.036  22.495   4.070
19595W        W84580  22.054  21.838   3.263
19596W        W84581  13.830   0.651   0.761
19597W        W84582  32.459  33.892   3.339
19598W        W84583  18.534  22.986   0.257
19599W        W84584  30.595   4.046  11.232
19600W        W84585  25.406  43.844  13.963
19601W        W84586  22.796   4.311  14.387
19602W        W84587  36.577   6.308  11.362
19603W        W84588  44.423   0.808  13.849
19604W        W84589  20.255  40.470  13.345
19605W        W84590  15.316  14.283  13.318
19606W        W84591   6.631   3.523   5.391
19607W        W84592  27.704  36.919   3.297
19608W        W84593   4.632  27.692   0.008
19609W        W84594  37.429  23.025  12.517
19610W        W84595  11.219  11.578   4.627
19611W        W84596  43.249   3.785   4.693
19612W        W84597  18.000  37.492  13.823
19613W        W84598  43.566  43.369   2.247
19614W        W84599  26.941  31.583  12.104
19615W        W84600  21.517  32.675  11.133
19616W        W84601  44.509   0.714  11.590
19617W        W84602  32.602  43.343   2.587
19618W        W84603  20.046   8.601  13.081
19619W        W84604   6.984  29.113  11.875
19620W        W84605  31.939  39.000   1.806
19621W        W84606  15.896  24.467   1.854
19622W        W84607  44.748  37.166  12.354
19623W        W84608  14.763  30.897  11.689
19624W        W84609  41.382  10.096  10.739
19625W        W84610  17.167  34.905  14.492
19626W        W84611  37.892  25.947  14.465
19627W        W84612  26.111  24.451   0.924
19628W        W84613  44.044  38.073  11.185
19629W        W84614  38.858  25.701   1.788
19630W        W84615  44.501   8.410  13.806
19631W        W84616  30.065   1.943   1.374
19632W        W84617  44.731  21.652  12.498
19633W        W84618  16.963   3.383  13.023
19634W        W84619   6.714  12.348   2.298
19635W        W84620  16.163  29.258  11.077
19636W        W84621  11.864  11.696  13.035
19637W        W84622  18.563  39.064   3.809
19638W        W84623  31.161  27.641   0.663
19639W        W84624  41.808  18.589  12.535
19640W        W84625  24.716  36.418  12.303
19641W        W84626  11.393  11.697   1.780
19642W        W84627  31.034  28.570  13.059
19643W        W84628  22.662   9.686   0.180
19644W        W84629  21.656  38.547  12.581
19645W        W84630   0.770  27.330   5.079
19646W        W84631  31.411  28.962  12.508
19647W        W84632  21.369  25.241  11.154
19648W        W84633   9.926  26.215  14.040
19649W        W84634   3.549  13.309  10.618
19650W        W84635  18.946  41.717   4.496
19651W        W84636  12.820  29.032  14.926
19652W        W84637  20.528  11.766  13.232
19653W        W84638  22.576  42.909  14.937
19654W        W84639  15.197  34.320  14.468
19655W        W84640  21.315   8.255   4.940
19656W        W84641  43.457   0.157  11.237
19657W        W84642  43.979  28.150   5.464
19658W        W84643  14.968  40.310   1.628
19659W        W84644  35.442  38.402   4.720
19660W        W84645  29.312  32.489  13.513
19661W        W84646  28.987  34.670   3.388
19662W        W84647  29.585  40.866  12.965
19663W        W84648  32.169  10.240   0.399
19664W        W84649  37.945  33.005   0.025
19665W        W84650   7.228  19.431   3.986
19666W        W84651   4.449  37.867   0.026
19667W        W84652  36.622  40.211  14.541
19668W        W84653  23.152  39.350  14.688
19669W        W84654  15.104   8.905   2.690
19670W        W84655  15.164  35.851   4.195
19671W        W84656   7.102  30.734   4.146
19672W        W84657  21.076  23.994  13.884
19673W        W84658  23.284  43.913   3.674
19674W        W84659  25.365  21.313   4.298
19675W        W84660  19.788  16.432  10.720
19676W        W84661  20.245  26.022  12.559
19677W        W84662  42.150   8.209  10.833
19678W        W84663  41.461   5.969   2.635
19679W        W84664  41.519  44.896   2.186
19680W        W84665  37.909   9.889  13.920
19681W        W84666  38.985  28.533   0.700
19682W        W84667  11.791   6.213  10.275
19683W        W84668   3.330  17.281  13.046
19684W        W84669   2.216  29.935  12.916
19685W        W84670   0.960  31.091  11.677
19686W        W84671  18.737  36.478  13.312
19687W        W84672  18.799   1.235  10.965
19688W        W84673  27.975  20.239   4.938
19689W        W84674  41.199  43.754  13.894
19690W        W84675  28.179  38.416  12.091
19691W        W84676  19.928   9.915  12.280
19692W        W84677  39.363  39.021   3.257
19693W        W84678  24.141  15.842  12.590
19694W        W84679  32.560   1.493  11.547
19695W        W84680  22.093  23.755   1.889
19696W        W84681   7.289  41.396   3.732
19697W        W84682   1.298  25.013  10.733
19698W        W84683   5.067  20.702  14.392
19699W        W84684  25.446  19.559  13.823
19700W        W84685   9.003  17.947   3.403
19701W        W84686  23.236  21.241   3.869
19702W        W84687  28.529   6.962  10.793
19703W        W84688   3.018  32.927   3.538
19704W        W84689  40.295   1.813  13.440
19705W        W84690   0.379  35.842  12.047
19706W        W84691  28.500  10.183  12.668
19707W        W84692  25.576  10.099  14.895
19708W        W84693  27.331  28.914   3.635
19709W        W84694  31.420  25.240   4.648
19710W        W84695  16.372   8.237   0.007
19711W        W84696  28.945  42.113   4.360
19712W        W84697  11.930  18.362  11.532
19713W        W84698  13.777   7.095   0.497
19714W        W84699  41.773  22.592  10.679
19715W        W84700  38.966  41.527  10.261
19716W        W84701   2.309   7.316  14.538
19717W        W84702  18.707  24.389  11.107
19718W        W84703  20.699  34.817  14.697
19719W        W84704  37.423  43.966  14.853
19720W        W84705  43.742  22.901  10.700
19721W        W84706  39.739  35.873   5.652
19722W        W84707   1.855  12.172   3.674
19723W        W84708  20.486   4.775   4.179
19724W        W84709   6.818  16.726  12.815
19725W        W84710  39.403   6.234  12.042
19726W        W84711   5.843   8.990   2.306
19727W        W84712   8.805  43.879   1.754
19728W        W84713   8.486  36.693  11.924
19729W        W84714  35.568   1.263   4.052
19730W        W84715  29.205  20.757   0.416
19731W        W84716  20.028  32.302   1.402
19732W        W84717  19.959  32.110   0.926
19733W        W84718   3.101  43.661   2.171
19734W        W84719  44.283   3.906   3.844
19735W        W84720  30.937  11.594   3.568
19736W        W84721  21.614   7.724  14.885
19737W        W84722  36.043  36.393  14.446
19738W        W84723  21.525  15.520  11.649
19739W        W84724  29.986  33.893  11.038
19740W        W84725  22.639   9.599   2.600
19741W        W84726   5.729  42.431   4.810
19742W        W84727  35.271  38.132   2.193
19743W        W84728  29.468  21.809  10.992
19744W        W84729   4.985  26.861   0.221
19745W        W84730   3.494  29.349   1.770
19746W        W84731   6.745  15.641  11.745
19747W        W84732  36.111   6.951   3.157
19748W        W84733  32.332  28.355   9.824
19749W        W84734   6.662  36.795  11.809
19750W        W84735   3.525  38.143   3.850
19751W        W84736   7.720  33.861   1.290
19752W        W84737  26.534  11.226   0.912
19753W        W84738   5.123   3.782   0.330
19754W        W84739  34.942  39.899  11.738
19755W        W84740  22.033  26.451  12.176
19756W        W84741  39.309  41.957  12.610
19757W        W84742  38.418   2.650   2.629
19758W        W84743  40.302  32.471  12.027
19759W        W84744  12.729   9.238   1.303
19760W        W84745  29.205  23.618   4.145
19761W        W84746  26.344  23.035   0.967
19762W        W84747  36.383  25.871  11.243
19763W        W84748  42.470  16.681  12.314
19764W        W84749  42.120  16.290  13.658
19765W        W84750  15.508  10.065   4.961
19766W        W84751  24.659  24.753   3.782
19767W        W84752  21.237  34.974   2.047
19768W        W84753   7.625  43.547  13.452
19769W        W84754  32.363   4.363  10.553
19770W        W84755   9.694  24.951  14.491
19771W        W84756  22.871  43.651   2.780
19772W        W84757   0.311  31.955  11.061
19773W        W84758  29.878  31.390   1.757
19774W        W84759   6.255  27.401  12.940
19775W        W84760  31.068  16.787  14.265
19776W        W84761  36.065  38.365   4.182
19777W        W84762  38.068   4.141  14.649
19778W        W84763  31.852  18.479  11.556
19779W        W84764  14.314  16.661   0.383
19780W        W84765   0.247  33.473  10.960
19781W        W84766  43.865  31.176  11.180
19782W        W84767  14.696  25.029  10.774
19783W        W84768  41.023  43.412   0.192
19784W        W84769   1.145  37.550   5.014
19785W        W84770  41.037  17.584   2.351
19786W        W84771  42.924  43.738   1.483
19787W        W84772  27.154   1.327   0.491
19788W        W84773  30.090  40.354   1.730
19789W        W84774  20.739  43.373  10.713
19790W        W84775   7.414  23.502  10.744
19791W        W84776  21.289  28.495  14.341
19792W        W84777  18.079   2.922   0.337
19793W        W84778   4.564  12.963  14.059
19794W        W84779  18.642  38.472  13.944
19795W        W84780  36.096  16.798   0.908
19796W        W84781   5.223  18.637   1.870
19797W        W84782  19.309  16.843  11.476
19798W        W84783  18.377  18.086   4.035
19799W        W84784  37.817   2.251  10.755
19800W        W84785  33.495  15.262  12.205
19801W        W84786  38.953  13.270   2.722
19802W        W84787  17.579   5.362   2.946
19803W        W84788   1.271   7.573  10.821
19804W        W84789   9.829  28.643   4.115
19805W        W84790  39.520   8.633   1.690
19806W        W84791  29.447   1.765  11.736
19807W        W84792  33.409  44.500  10.938
19808W        W84793  43.464   5.024   3.675
19809W        W84794  28.503  20.561   3.596
19810W        W84795  30.183  41.568  12.401
19811W        W84796  39.799  27.078   4.025
19812W        W84797   1.382  11.105   1.200
19813W        W84798  10.666   6.353   0.819
19814W        W84799  41.961   2.881   1.458
19815W        W84800  36.342  34.373  13.857
19816W        W84801   7.059  31.940  14.596
19817W        W84802  32.894  23.010   0.283
19818W        W84803  25.201   3.840   1.027
19819W        W84804   7.053  10.324   4.973
19820W        W84805  21.785   8.644   2.247
19821W        W84806   8.295   6.989   3.103
19822W        W84807  16.281  32.868  13.963
19823W        W84808  12.932  20.887  11.433
19824W        W84809  20.895  13.178   4.575
19825W        W84810  41.471  33.049   1.789
19826W        W84811  11.763  35.342   3.323
19827W        W84812  30.960  40.447   4.550
19828W        W84813   4.774  30.224   1.857
19829W        W84814   5.636  27.557   0.222
19830W        W84815  32.326  32.893   3.173
19831W        W84816   5.954  28.759  11.894
19832W        W84817  41.520  14.322  14.082
19833W        W84818  35.940  27.090   0.013
19834W        W84819  19.623  34.930  12.721
19835W        W84820  23.620  24.939   0.479
19836W        W84821  42.314  15.246   2.713
19837W        W84822  16.439  19.662   1.890
19838W        W84823  18.255  18.696   0.776
19839W        W84824   6.083  15.618   2.695
19840W        W84825  42.752  12.555   1.628
19841W        W84826   6.238  16.104  10.676
19842W        W84827  25.972   4.485  11.540
19843W        W84828  23.491  40.749   2.620
19844W        W84829  22.056  24.189  13.852
19845W        W84830  18.652  40.625  13.878
19846W        W84831  11.125  19.788   1.705
19847W        W84832  16.620  38.419  14.753
19848W        W84833  23.617  43.577  13.446
19849W        W84834  36.419  24.449  11.352
19850W        W84835  18.979  44.241  13.810
19851W        W84836  37.981  20.307  14.876
19852W        W84837   2.304  39.461   3.132
19853W        W84838  25.452  34.547  12.744
19854W        W84839  21.611  25.717  10.713
19855W        W84840  44.712  39.473   4.065
19856W        W84841  18.825   0.813   3.123
19857W        W84842  38.927  10.309   3.213
19858W        W84843  10.350  38.972  10.447
19859W        W84844  25.310  11.677  14.987
19860W        W84845  43.808   2.719   0.290
19861W        W84846  31.090  12.046   2.632
19862W        W84847  20.263  41.884  11.699
19863W        W84848  32.006   1.551   1.233
19864W        W84849   1.570   7.700   2.242
19865W        W84850   7.324  35.670  11.167
19866W        W84851  13.693  40.961  13.780
19867W        W84852   1.326  19.616   2.961
19868W        W84853  28.465   3.876   4.275
19869W        W84854  34.415  44.472   1.433
19870W        W84855  28.720  18.959  13.871
19871W        W84856  34.448  30.196  10.681
19872W        W84857  44.074  10.761   3.753
19873W        W84858  29.689  15.740   3.205
19874W        W84859  11.214   2.818  12.370
19875W        W84860  43.700   4.027  14.679
19876W        W84861  41.790  14.565  11.107
19877W        W84862   8.239   1.400   0.125
19878W        W84863   2.508  37.321  10.200
19879W        W84864   9.553  11.965  12.508
19880W        W84865   6.684   2.788  14.053
19881W        W84866  23.738  38.474   2.205
19882W        W84867  30.408  10.342   2.638
19883W        W84868   1.971  43.024  12.588
19884W        W84869   8.132  11.318  11.629
19885W        W84870  23.363   0.707   0.925
19886W        W84871  29.995  29.937   3.041
19887W        W84872  22.129  26.478   5.123
19888W        W84873  43.582  25.046   5.693
19889W        W84874  35.961   7.739   1.772
19890W        W84875  35.227  12.003   5.192
19891W        W84876   2.253   9.801   4.294
19892W        W84877  38.414  39.936  10.429
19893W        W84878  15.358  44.281   0.422
19894W        W84879  30.725   0.163   1.272
19895W        W84880  24.247  13.094   4.705
19896W        W84881  39.632  20.010   3.362
19897W        W84882   5.768  41.287   4.642
19898W        W84883  44.455  23.849   2.895
19899W        W84884  14.570   5.355   4.788
19900W        W84885  38.000  36.352  14.510
19901W        W84886  41.955  20.581   0.961
19902W        W84887  19.443  10.256  10.843
19903W        W84888  36.548   2.777  14.898
19904W        W84889  14.530  26.995   1.798
19905W        W84890   2.231  11.798   4.955
19906W        W84891   8.401  13.179   1.460
19907W        W84892   0.800   7.601  14.353
19908W        W84893  39.904  10.299   1.281
19909W        W84894  15.783  25.513   3.127
19910W        W84895   6.917  13.232   4.501
19911W        W84896  36.673  36.605  11.147
19912W        W84897  12.327   7.926   4.495
19913W        W84898  39.441  44.528  13.384
19914W        W84899  26.572  37.879   2.251
19915W        W84900   9.388  43.182   1.626
19916W        W84901  31.145   1.097  12.035
19917W        W84902   1.045  13.304   2.800
19918W        W84903  33.421  44.424  14.416
19919W        W84904   9.203  43.637  12.914
19920W        W84905   4.361  33.478  11.603
19921W        W84906   7.270  35.398  11.641
19922W        W84907  21.396  23.865   4.316
19923W        W84908  28.684  31.623  10.268
19924W        W84909  41.865   7.923  11.160
19925W        W84910  38.069  41.392  14.884
19926W        W84911  27.492  43.407   5.403
19927W        W84912  42.431   0.760  13.552
19928W        W84913  16.514  23.134   2.399
19929W        W84914  31.376  21.226   2.330
19930W        W84915  35.896  32.861  14.288
19931W        W84916   4.307  32.004  12.697
19932W        W84917   0.557  26.998  14.980
19933W        W84918  35.559  36.464   1.739
19934W        W84919  23.101  17.666   4.595
19935W        W84920   3.814  13.602   1.793
19936W        W84921  38.251  22.126   1.003
19937W        W84922  11.679  12.455  12.042
19938W        W84923  39.108  18.066   4.053
19939W        W84924  15.263   5.238   2.347
19940W        W84925  15.106  10.353   1.339
19941W        W84926  16.272  38.863  14.016
19942W        W84927  42.932  26.538  13.532
19943W        W84928  13.831  39.912   3.746
19944W        W84929  15.929  29.303   0.755
19945W        W84930  33.474  31.820  10.529
19946W        W84931  30.687   8.037   1.123
19947W        W84932  42.538  35.376  13.443
19948W        W84933   1.987  34.295   4.454
19949W        W84934  13.177  36.624   0.396
19950W        W84935   7.868  39.664  11.597
19951W        W84936  36.390  31.746   3.295
19952W        W84937   6.786  41.242   3.836
19953W        W84938  16.799  38.782  12.513
19954W        W84939  12.417  31.958   3.997
19955W        W84940   2.465  43.047  13.442
19956W        W84941  11.818  33.579  11.619
19957W        W84942  13.248  30.437  13.012
19958W        W84943  19.648   3.163  11.563
19959W        W84944  39.110  38.286  12.197
19960W        W84945   2.813  40.339  10.548
19961W        W84946  39.352  14.688  11.579
19962W        W84947  12.927  10.231   0.003
19963W        W84948   6.113  21.978  14.978
19964W        W84949  10.171   5.415   3.625
19965W        W84950  11.596  28.875  12.965
19966W        W84951  24.961   6.185   2.896
19967W        W84952  13.518  11.837   2.668
19968W        W84953  36.863  40.168  11.559
19969W        W84954   9.211  19.772  12.436
19970W        W84955   2.791   3.530   2.716
19971W        W84956  15.650   0.050   1.003
19972W        W84957   0.391  30.080   2.135
19973W        W84958   4.001  18.803   3.644
19974W        W84959  22.512  27.729  12.015
19975W        W84960  30.849  14.565  12.491
19976W        W84961  18.178  41.722   3.630
19977W        W84962   4.128  23.536   1.292
19978W        W84963  25.115  44.086   2.845
19979W        W84964   7.819   5.150  13.965
19980W        W84965   1.431  17.284  12.931
19981W        W84966   4.851   6.343   2.839
19982W        W84967  32.687  26.351  12.204
19983W        W84968  17.552  30.420  13.845
19984W        W84969  36.626   3.381  12.889
19985W        W84970  25.902  41.522   1.830
19986W        W84971  12.059   3.546  11.545
19987W        W84972   0.410  13.364  14.501
19988W        W84973   4.556  14.688  14.459
19989W        W84974  22.150  18.590   1.661
19990W        W84975  12.370  43.041   4.195
19991W        W84976  14.041  18.712  12.658
19992W        W84977  36.812  10.775   3.252
19993W        W84978  38.641  10.690  10.967
19994W        W84979  24.360   3.093   2.859
19995W        W84980  36.060  28.989   2.455
19996W        W84981  31.605  20.218   1.286
19997W        W84982  44.731  27.572   9.676
19998W        W84983  14.428  34.842  13.410
19999W        W84984   2.474  41.917   1.992
20000W        W84985  18.037  23.547  12.588
20001W        W84986  40.004   9.332  12.426
20002W        W84987   3.201  33.537  14.009
20003W        W84988  31.600  11.579  11.625
20004W        W84989  35.784  41.844  13.930
20005W        W84990  11.468  17.131   1.439
20006W        W84991  28.429   2.198   0.001
20007W        W84992   7.064  44.695   3.790
20008W        W84993  13.855   3.646   0.750
20009W        W84994  19.038  28.707  12.574
20010W        W84995  28.189  43.967  11.195
20011W        W84996  32.625   3.196   3.103
20012W        W84997  35.013  31.912  13.398
20013W        W84998  36.765  31.873   1.665
20014W        W84999  20.430  39.879  12.569
20015W        W85000   8.429   1.924   2.267
20016W        W85001  23.626  16.564  10.685
20017W        W85002  25.127   1.815   2.646
20018W        W85003  36.172  14.301   4.696
20019W        W85004  13.596  38.257   4.843
20020W        W85005   6.692  17.102   4.428
20021W        W85006  26.472  41.850  14.316
20022W        W85007  17.569   0.487  12.958
20023W        W85008  16.865  21.959   1.938
20024W        W85009  41.406  42.409   4.013
20025W        W85010  40.277   8.496  10.795
20026W        W85011   1.751   7.244   0.686
20027W        W85012  17.719  41.352  13.276
20028W        W85013   4.223   5.392   1.877
20029W        W85014  17.998  22.743   0.219
20030W        W85015  37.540  13.643  12.385
20031W        W85016  35.102  35.061  12.045
20032W        W85017  34.142  22.730   0.498
20033W        W85018   3.515  34.302   4.373
20034W        W85019   4.863  36.879  14.374
20035W        W85020  21.118  24.260  13.272
20036W        W85021  29.374  25.048   0.211
20037W        W85022  38.951  41.446  11.773
20038W        W85023   8.529   6.476  10.986
20039W        W85024  18.214  40.243   1.225
20040W        W85025  27.012  29.657   1.689
20041W        W85026  41.787   7.850   0.293
20042W        W85027   9.151  35.316  12.572
20043W        W85028  31.576  38.254  13.535
20044W        W85029  41.851   3.413  11.745
20045W        W85030  13.546   8.245  14.279
20046W        W85031  23.229  41.289   2.356
20047W        W85032  25.202  31.271   0.830
20048W        W85033  22.006  20.008  13.444
20049W        W85034  21.596  18.656   3.132
20050W        W85035  35.047  27.500  10.737
20051W        W85036  31.044  12.689  10.538
20052W        W85037  43.355  15.907  11.143
20053W        W85038  24.650  24.236   3.644
20054W        W85039  22.133  35.796   1.442
20055W        W85040  28.593  25.596  12.169
20056W        W85041  44.531  38.903   0.386
20057W        W85042  31.397  43.619  11.102
20058W        W85043  18.124   7.633  12.369
20059W        W85044  22.122  36.523  12.664
20060W        W85045  36.100  21.964  12.913
20061W        W85046  16.755  41.255  12.559
20062W        W85047  12.221  15.495  10.984
20063W        W85048   2.378  10.900  12.587
20064W        W85049  36.979  43.210   0.317
20065W        W85050  27.073  15.996   4.299
20066W        W85051  32.640  41.997   1.409
20067W        W85052  13.250  13.717   1.240
20068W        W85053  15.069  39.689  14.007
20069W        W85054  22.618  27.017  14.549
20070W        W85055  26.134  11.511  12.395
20071W        W85056  19.351  18.939  12.634
20072W        W85057  22.058  24.912  12.006
20073W        W85058  44.712   4.221   3.067
20074W        W85059  30.042   6.766  10.990
20075W        W85060  25.248  25.969   0.288
20076W        W85061  39.870  42.859  14.201
20077W        W85062  28.392   7.667   0.558
20078W        W85063  41.562   4.357   2.499
20079W        W85064  30.973  35.806   4.275
20080W        W85065  40.392  17.299   1.805
20081W        W85066  17.688  10.396   4.610
20082W        W85067  40.495  36.357   0.697
20083W        W85068   8.739  35.104   2.849
20084W        W85069  43.203  22.525   4.171
20085W        W85070   5.946  25.585   1.697
20086W        W85071  15.052  23.216   4.231
20087W        W85072   0.214  43.486   4.104
20088W        W85073  33.964  41.829   3.172
20089W        W85074  10.243  38.838   3.901
20090W        W85075  19.717   2.892  10.998
20091W        W85076  42.519  19.702  11.976
20092W        W85077  38.352  43.893  13.847
20093W        W85078   1.915  27.203  14.049
20094W        W85079  29.580  25.743   2.885
20095W        W85080  37.552  25.543   9.544
20096W        W85081   1.402   8.977   2.676
20097W        W85082  35.436  11.692   4.836
20098W        W85083   4.399   8.841   4.685
20099W        W85084  26.313  30.122   2.758
20100W        W85085  17.371   8.130  11.527
20101W        W85086   2.425  25.780  11.988
20102W        W85087  14.431   0.433  14.322
20103W        W85088  12.619  10.271   1.474
20104W        W85089  44.966  32.815  13.327
20105W        W85090  40.420  30.952   4.547
20106W        W85091  14.883  17.793   2.204
20107W        W85092  41.854  32.481  12.982
20108W        W85093  10.258   9.240   3.590
20109W        W85094  25.056  20.318  12.408
20110W        W85095  36.961  21.216   1.804
20111W        W85096  37.229  11.318  14.585
20112W        W85097  14.845   0.513   0.993
20113W        W85098   7.336  20.158  14.929
20114W        W85099  31.573  24.496  10.522
20115W        W85100   0.348   3.712  11.237
20116W        W85101  25.491  12.669   4.638
20117W        W85102  29.480  20.090  10.927
20118W        W85103  41.386   2.331   1.842
20119W        W85104  28.566  29.524  13.532
20120W        W85105   5.386   8.221   0.495
20121W        W85106  42.185  29.173   5.487
20122W        W85107  44.462  24.188   2.513
20123W        W85108  35.915  31.527   3.273
20124W        W85109  34.004  26.758   4.246
20125W        W85110  12.152  13.639  11.200
20126W        W85111  26.976  10.611  11.460
20127W        W85112  33.813   9.331   1.249
20128W        W85113  34.461  17.660   0.318
20129W        W85114  37.896   3.271   2.041
20130W        W85115  30.539  15.988  10.406
20131W        W85116  32.897   4.212  13.015
20132W        W85117  31.085  36.637  11.480
20133W        W85118   9.346  40.818  14.792
20134W        W85119  42.522  21.275   1.813
20135W        W85120  44.358  33.278  12.804
20136W        W85121  12.663  27.623  12.662
20137W        W85122  12.156  24.021  14.405
20138W        W85123  28.201  37.935  14.803
20139W        W85124  17.652   8.968  12.864
20140W        W85125  30.510   9.324   0.280
20141W        W85126  44.173  12.041  13.078
20142W        W85127   5.311  40.396   2.134
20143W        W85128  30.091  28.590   2.422
20144W        W85129  23.620  41.287   0.028
20145W        W85130   7.796  17.109   0.765
20146W        W85131  37.026  18.180  14.285
20147W        W85132  37.079  17.768  10.662
20148W        W85133  23.707  39.995   1.292
20149W        W85134   2.891  23.140  11.973
20150W        W85135   9.733  10.346  11.543
20151W        W85136  11.585  28.587   4.707
20152W        W85137  14.079  10.797   4.721
20153W        W85138  11.341  16.109  11.528
20154W        W85139   2.784  29.834  11.952
20155W        W85140   0.443  22.569   0.273
20156W        W85141  28.943   1.820   3.688
20157W        W85142   2.900  43.969  12.490
20158W        W85143   5.807  44.904  12.932
20159W        W85144   4.907  34.078   1.012
20160W        W85145  39.758  40.594   1.733
20161W        W85146  23.119  42.053   0.031
20162W        W85147  25.649   1.758  14.976
20163W        W85148  27.940  13.085   3.238
20164W        W85149   1.271  27.246   2.822
20165W        W85150  30.864  19.018  12.198
20166W        W85151  21.544  41.725   1.888
20167W        W85152  31.391  18.673   2.419
20168W        W85153   4.721  13.217   0.767
20169W        W85154  25.568  26.253   2.290
20170W        W85155  14.119  31.632  10.549
20171W        W85156  17.196  35.065   0.523
20172W        W85157   2.324   7.179   3.281
20173W        W85158  18.616   7.328   4.470
20174W        W85159  38.749   8.294  11.898
20175W        W85160  36.872  12.558  12.009
20176W        W85161  26.230  32.616  14.852
20177W        W85162  42.493  21.709   4.590
20178W        W85163   7.458   8.447   3.636
20179W        W85164  22.648  27.875  12.534
20180W        W85165   2.735  29.932   2.318
20181W        W85166  15.633  43.651  13.243
20182W        W85167  43.995  32.997   4.763
20183W        W85168  19.035  39.226   4.057
20184W        W85169   6.895   3.875   0.498
20185W        W85170  25.476  38.432   2.675
20186W        W85171  21.630  14.660   0.690
20187W        W85172  13.869  38.958   2.434
20188W        W85173  26.986  11.726   4.577
20189W        W85174  37.615  36.949  14.821
20190W        W85175  41.021   9.620  11.173
20191W        W85176  27.111  10.786  11.917
20192W        W85177   9.799  14.690  12.466
20193W        W85178  27.552   5.195   0.907
20194W        W85179  41.683  31.706  12.570
20195W        W85180  15.320  14.622  10.637
20196W        W85181  26.214  38.049  12.373
20197W        W85182  17.027  40.489   4.105
20198W        W85183  26.802  29.540   0.383
20199W        W85184  42.478   4.937  12.894
20200W        W85185  11.658   0.930   4.093
20201W        W85186   6.460  17.134   1.243
20202W        W85187  28.643  34.472  13.483
20203W        W85188   8.233   7.564  11.580
20204W        W85189  43.866  39.778   2.355
20205W        W85190  41.803   5.741  10.654
20206W        W85191   7.426  19.573  13.547
20207W        W85192  44.952   7.761   2.461
20208W        W85193  10.629   1.267   3.144
20209W        W85194  13.748   6.038   3.537
20210W        W85195  28.958  26.881  11.172
20211W        W85196  23.289  14.061   0.839
20212W        W85197  12.673  23.998  14.277
20213W        W85198   6.633  30.181   2.341
20214W        W85199  44.001  33.526  13.104
20215W        W85200  19.587  21.236  12.451
20216W        W85201  25.009  11.068   3.576
20217W        W85202   4.289  42.804  11.372
20218W        W85203  40.351  17.221  14.869
20219W        W85204   7.208   2.364  12.196
20220W        W85205  35.149  17.382   4.164
20221W        W85206   7.109  10.638  10.882
20222W        W85207   6.665  15.763   3.366
20223W        W85208  33.399  42.942  12.086
20224W        W85209   3.764  24.124   3.421
20225W        W85210  44.212  33.364   3.510
20226W        W85211  41.948  18.794  14.384
20227W        W85212  16.493  17.527  11.064
20228W        W85213  41.393   8.153   1.458
20229W        W85214  13.384  22.539   3.112
20230W        W85215  26.608  36.983  11.463
20231W        W85216  33.110  17.084   2.475
20232W        W85217  21.065  22.327   4.006
20233W        W85218  25.426   9.777   3.186
20234W        W85219  37.245  26.038  13.757
20235W        W85220  28.169  15.037  12.439
20236W        W85221  33.774   5.412   4.151
20237W        W85222   5.369   6.516   4.531
20238W        W85223   0.285  18.145   3.546
20239W        W85224  31.026  17.293   2.363
20240W        W85225  27.281  34.596  12.768
20241W        W85226  44.380  44.919  13.398
20242W        W85227   8.208  40.575   1.384
20243W        W85228  36.096   5.886  10.755
20244W        W85229   1.947  19.695   0.334
20245W        W85230   0.374  23.872  13.548
20246W        W85231  21.050   2.746   2.150
20247W        W85232   0.861  22.633  12.600
20248W        W85233  29.950  34.370  14.665
20249W        W85234   5.728  13.718  11.871
20250W        W85235   7.835  42.930   3.013
20251W        W85236  24.965  43.802   4.160
20252W        W85237  30.186  12.837  14.318
20253W        W85238  10.473  39.523  13.502
20254W        W85239   8.221  26.900   0.878
20255W        W85240  21.478  43.833  11.217
20256W        W85241  16.354  25.210  14.500
20257W        W85242  12.889  33.573  14.987
20258W        W85243  36.990  43.646  13.472
20259W        W85244   7.955  24.774   0.637
20260W        W85245  25.000  21.457   2.188
20261W        W85246  37.119   2.666   2.603
20262W        W85247  28.846  23.045   1.480
20263W        W85248   3.780   1.986   5.155
20264W        W85249  24.539   5.948   4.411
20265W        W85250  24.874  33.119   0.589
20266W        W85251   9.905  11.392  11.520
20267W        W85252  17.747  22.596   3.059
20268W        W85253  22.100  15.147  10.999
20269W        W85254  43.277  21.332  12.263
20270W        W85255  34.878  33.344   2.384
20271W        W85256  27.193  28.616   4.213
20272W        W85257  33.929  13.812  11.915
20273W        W85258  19.753  31.417  14.064
20274W        W85259  16.294  24.894   2.756
20275W        W85260  14.793  13.590  11.966
20276W        W85261   1.324  15.333   0.405
20277W        W85262  12.730   7.325   4.779
20278W        W85263  41.069  41.635  13.376
20279W        W85264  43.868  15.523   1.571
20280W        W85265  22.842  16.643   1.778
20281W        W85266  23.087  40.425   4.942
20282W        W85267  19.751  38.562  10.790
20283W        W85268  36.383  41.124  14.333
20284W        W85269   3.928   8.473  13.719
20285W        W85270  17.292  10.270  13.191
20286W        W85271  12.829  24.316  13.846
20287W        W85272  30.606  44.182   3.777
20288W        W85273  34.783  14.806  12.335
20289W        W85274  39.091   1.268  13.782
20290W        W85275  22.703  42.577   0.343
20291W        W85276   3.441   8.321  11.034
20292W        W85277  37.790   8.170   0.990
20293W        W85278   8.112  10.324   2.395
20294W        W85279  23.614  25.072   0.985
20295W        W85280  38.542  31.569  13.463
20296W        W85281  36.295  23.216  13.742
20297W        W85282  19.044   8.911   1.325
20298W        W85283  42.909  19.335  11.245
20299W        W85284   2.698  27.605  11.956
20300W        W85285  36.036  31.681  12.555
20301W        W85286   0.597  18.230  14.423
20302W        W85287   3.320  25.544   2.847
20303W        W85288  21.128  33.929   1.660
20304W        W85289  23.613  34.870   2.816
20305W        W85290   5.754  11.965  14.839
20306W        W85291  28.654  32.478   3.694
20307W        W85292  31.977  33.954   4.698
20308W        W85293  44.647  37.814   3.889
20309W        W85294  30.851  18.541  12.345
20310W        W85295  31.795  36.502  14.926
20311W        W85296  33.093  32.538   4.528
20312W        W85297  31.502  42.037  13.426
20313W        W85298   2.475   4.492   3.660
20314W        W85299  43.001   3.808  10.847
20315W        W85300  31.637   3.191  12.401
20316W        W85301  16.787  15.899   2.176
20317W        W85302  44.425  38.614   2.770
20318W        W85303  27.456  15.113   3.204
20319W        W85304  12.066  25.515   4.780
20320W        W85305  35.371  35.554  10.706
20321W        W85306  30.075  26.021   1.986
20322W        W85307  30.200  19.726   4.037
20323W        W85308  17.710  38.141  12.832
20324W        W85309  26.368   4.865  14.238
20325W        W85310  34.435  35.500   2.656
20326W        W85311  29.977  28.564   1.859
20327W        W85312  28.189  16.434  11.973
20328W        W85313  35.916  34.706  14.550
20329W        W85314   1.374  29.473  13.221
20330W        W85315  19.397  10.854   2.912
20331W        W85316  28.148  27.148   3.483
20332W        W85317  21.660  35.603  13.863
20333W        W85318  44.440  28.504  11.463
20334W        W85319  23.107  19.714  13.380
20335W        W85320   4.623  34.713   2.816
20336W        W85321  11.589  16.892  12.550
20337W        W85322  27.642  10.721   3.322
20338W        W85323  12.695  15.741   2.243
20339W        W85324  20.489  35.031  10.793
20340W        W85325  29.412  40.252   1.253
20341W        W85326  20.530   5.340   0.398
20342W        W85327  12.156   2.342   2.893
20343W        W85328  34.897  33.180  14.041
20344W        W85329   0.952  39.397  11.532
20345W        W85330  28.360  17.438   0.488
20346W        W85331  34.472  29.175   3.212
20347W        W85332  43.104  36.494  12.039
20348W        W85333  35.376  11.671   5.554
20349W        W85334  21.173  30.395   0.848
20350W        W85335  39.148   8.286   0.881
20351W        W85336   0.675  32.067  12.015
20352W        W85337  11.537  39.387  10.692
20353W        W85338  41.917   6.995   4.657
20354W        W85339  23.232  35.836   4.384
20355W        W85340  28.040   8.037  11.103
20356W        W85341   3.398  12.789  11.631
20357W        W85342  33.472  10.759   4.511
20358W        W85343   2.279  11.624  10.754
20359W        W85344   2.323  29.949   0.085
20360W        W85345  31.048  11.124   3.026
20361W        W85346  36.495  27.593  11.894
20362W        W85347  32.146   8.741  12.861
20363W        W85348  40.798   3.455   1.323
20364W        W85349   6.743  41.107   0.227
20365W        W85350  34.952  19.595   3.696
20366W        W85351  39.828  25.540   0.803
20367W        W85352  24.011   1.654  10.475
20368W        W85353  16.389  41.328   2.781
20369W        W85354   1.739  12.757   4.152
20370W        W85355  17.161  10.887   3.483
20371W        W85356   6.219  43.519  12.549
20372W        W85357  24.921  23.948  13.071
20373W        W85358  44.488  36.578   1.894
20374W        W85359  32.799   0.363   3.324
20375W        W85360   7.015   7.477  12.876
20376W        W85361   8.826  36.367   4.237
20377W        W85362  20.724  23.678   2.747
20378W        W85363  41.019  42.905   4.692
20379W        W85364  40.278   3.931  10.641
20380W        W85365  44.975   1.988   0.560
20381W        W85366   2.335  11.922  13.990
20382W        W85367   9.317  39.039   3.783
20383W        W85368   9.174   1.269  11.177
20384W        W85369  21.664  38.368  12.096
20385W        W85370  36.053  38.329  12.125
20386W        W85371  35.974  12.186  11.512
20387W        W85372  40.408  39.348  13.354
20388W        W85373   2.941  24.068  14.223
20389W        W85374  12.845  14.563  11.565
20390W        W85375  18.684  11.418  13.798
20391W        W85376  41.067   4.415   0.582
20392W        W85377   4.149  17.201  12.087
20393W        W85378  17.611  44.089  14.044
20394W        W85379  43.974  37.393   2.359
20395W        W85380  41.289  40.417  14.463
20396W        W85381  27.530  40.985   4.594
20397W        W85382  34.186  14.057   0.238
20398W        W85383  19.749  19.244  12.620
20399W        W85384   4.971   9.802  14.387
20400W        W85385  11.666  18.063   5.000
20401W        W85386  43.088  14.780  13.838
20402W        W85387  15.446   8.181  11.460
20403W        W85388  24.539  18.188   3.317
20404W        W85389  29.651  11.275   2.791
20405W        W85390   8.078  32.461   0.924
20406W        W85391  38.857   2.965   0.334
20407W        W85392  19.798   1.581   3.625
20408W        W85393   5.572  21.225   3.833
20409W        W85394   2.736  36.875  14.275
20410W        W85395  27.588  31.943   5.307
20411W        W85396  26.571  29.576  14.931
20412W        W85397  26.028  19.472   1.194
20413W        W85398   1.725   3.878   4.969
20414W        W85399   3.410  44.494   2.357
20415W        W85400   9.350  24.506  12.916
20416W        W85401  21.013  40.879   0.384
20417W        W85402  43.293  42.886   2.872
20418W        W85403  20.976  25.060   0.413
20419W        W85404  33.146   0.002   0.050
20420W        W85405  39.383   6.348   1.131
20421W        W85406   8.268  17.502   3.545
20422W        W85407  26.157   1.243   1.357
20423W        W85408  29.989  39.562  11.106
20424W        W85409   7.290   3.295  10.585
20425W        W85410  15.266  23.559   0.992
20426W        W85411  37.878   7.301  12.500
20427W        W85412   1.024  40.933  10.920
20428W        W85413  28.391   0.745  10.796
20429W        W85414  42.000  11.898   2.663
20430W        W85415  44.893   3.464  11.002
20431W        W85416   3.459  17.547  13.467
20432W        W85417  15.084   8.539  11.563
20433W        W85418  35.561   4.368  13.873
20434W        W85419  34.787   7.286  12.685
20435W        W85420  25.331  22.119  11.857
20436W        W85421  10.646  41.318  13.049
20437W        W85422  16.702  20.948   1.754
20438W        W85423  37.862  26.082  12.312
20439W        W85424  19.198   6.988   2.746
20440W        W85425   0.263  23.162  14.153
20441W        W85426  28.880  29.073   1.352
20442W        W85427  31.019  21.082   3.417
20443W        W85428   7.224  13.219  11.973
20444W        W85429  35.442  12.404   0.768
20445W        W85430  32.571  22.206   2.358
20446W        W85431  36.618  11.428  10.282
20447W        W85432  36.534  24.373   4.150
20448W        W85433   1.143  18.741  13.787
20449W        W85434   3.987  15.728  11.620
20450W        W85435  24.497  12.594   0.242
20451W        W85436  42.191   3.239   2.827
20452W        W85437  43.274   5.971   0.010
20453W        W85438   6.910  21.603  14.104
20454W        W85439  28.101  19.301   0.411
20455W        W85440  44.841  18.117   9.505
20456W        W85441  29.411   4.216   3.461
20457W        W85442   3.258   8.694  11.405
20458W        W85443  40.121  22.708   1.031
20459W        W85444   0.467  44.330   5.095
20460W        W85445  16.720   1.916   1.270
20461W        W85446  20.236  35.725  13.697
20462W        W85447  11.651  31.329  11.592
20463W        W85448  39.472  25.537  12.391
20464W        W85449  27.014  42.454  12.514
20465W        W85450  14.157   4.023  12.545
20466W        W85451  26.352  28.080   5.037
20467W        W85452  13.572   4.080  14.368
20468W        W85453  12.164  44.242   4.848
20469W        W85454   4.351   5.250   5.169
20470W        W85455  34.925  10.306   1.251
20471W        W85456  22.325  15.020   0.981
20472W        W85457  40.830  28.148   2.394
20473W        W85458  10.956  31.865   3.703
20474W        W85459  21.621  35.936   4.866
20475W        W85460  25.043   7.607   2.715
20476W        W85461  23.837  29.198  12.069
20477W        W85462  36.685  44.965   4.420
20478W        W85463  19.263  40.697   4.440
20479W        W85464  36.552   4.833  11.342
20480W        W85465  33.954  39.893   1.907
20481W        W85466  44.203   1.360  11.070
20482W        W85467  35.109  22.792  12.517
20483W        W85468  19.146  28.970   0.395
20484W        W85469  30.492   0.807   4.615
20485W        W85470  41.706  23.243  13.563
20486W        W85471  40.958  41.109  13.388
20487W        W85472   2.277  42.663  11.167
20488W        W85473   9.904  16.762   1.157
20489W        W85474  23.429  31.823   2.542
20490W        W85475  10.423  23.777   0.146
20491W        W85476   2.042  11.675  14.971
20492W        W85477  24.362  34.785   4.070
20493W        W85478   5.761  43.612  14.536
20494W        W85479  37.922   9.997  10.271
20495W        W85480  21.130   7.171  12.345
20496W        W85481   3.914  28.634  11.433
20497W        W85482  39.251  34.791   3.611
20498W        W85483  35.570   1.226  14.299
20499W        W85484  31.171  13.588  14.021
20500W        W85485  43.736  24.917   0.877
20501W        W85486   9.276  12.201   1.904
20502W        W85487  25.731  29.357   9.706
20503W        W85488  40.651  34.558   0.950
20504W        W85489   2.468  24.107   2.268
20505W        W85490  40.112  10.725   3.519
20506W        W85491  40.064  18.819  14.937
20507W        W85492  26.700  30.335  12.941
20508W        W85493  35.228  16.815   3.610
20509W        W85494   8.161   7.930  13.022
20510W        W85495  11.098  17.038  12.517
20511W        W85496  39.055  13.695  12.434
20512W        W85497   1.863  16.002   0.857
20513W        W85498  10.986  28.038  11.373
20514W        W85499  38.056   4.174   2.242
20515W        W85500  39.986  13.024  13.398
20516W        W85501  14.726  18.462   4.577
20517W        W85502   8.112  36.947  13.820
20518W        W85503  20.617  37.376  13.451
20519W        W85504  30.931   0.810  11.673
20520W        W85505  39.377  17.176  10.193
20521W        W85506   9.120   1.467   0.999
20522W        W85507  15.410  31.539  10.623
20523W        W85508  37.879  41.548   4.981
20524W        W85509  43.959  37.418  12.938
20525W        W85510  29.928  35.036   0.976
20526W        W85511   3.285   0.667  12.782
20527W        W85512  19.465  10.407  12.065
20528W        W85513  13.996  41.888  12.361
20529W        W85514   2.573  28.757  10.178
20530W        W85515  31.106  33.861   1.832
20531W        W85516   2.503  29.268  13.933
20532W        W85517  15.513  16.764  11.468
20533W        W85518   6.185  39.651  11.544
20534W        W85519   1.728  36.896   0.918
20535W        W85520  32.102  30.274   4.487
20536W        W85521  35.929  10.780  11.934
20537W        W85522  30.408  40.395   1.315
20538W        W85523  13.084  29.134   1.480
20539W        W85524  12.548  21.622  13.961
20540W        W85525   0.883  26.059   4.865
20541W        W85526  34.881   5.131  13.953
20542W        W85527   6.961   7.927   4.118
20543W        W85528  14.530  43.979   2.727
20544W        W85529  11.142   1.271   2.416
20545W        W85530   3.910  11.289   3.799
20546W        W85531  40.863  26.914  13.911
20547W        W85532  38.076  33.371   1.653
20548W        W85533  30.474  22.533   0.338
20549W        W85534  39.793  39.395  11.551
20550W        W85535   1.561  33.542   3.190
20551W        W85536  41.911  10.270   3.870
20552W        W85537   9.248  35.983  13.911
20553W        W85538  28.158  23.182   3.775
20554W        W85539  43.361   1.486   0.319
20555W        W85540  21.265  19.791   0.345
20556W        W85541   3.643  38.841  11.117
20557W        W85542  44.405  19.902  13.966
20558W        W85543   2.411   6.587   1.793
20559W        W85544  30.045  15.736   3.793
20560W        W85545  33.740  42.502   1.903
20561W        W85546  17.253  29.093  12.508
20562W        W85547   6.396  17.927   4.216
20563W        W85548  10.454  20.224  13.319
20564W        W85549  44.315  29.666   1.234
20565W        W85550   3.371  42.809   5.403
20566W        W85551   5.218  20.743   4.664
20567W        W85552  27.042  24.689  10.639
20568W        W85553  21.085  34.001   4.216
20569W        W85554  34.611  10.651  12.049
20570W        W85555  26.563  28.168  11.911
20571W        W85556  22.488  33.901   4.697
20572W        W85557  20.746  25.035  12.951
20573W        W85558  21.013  22.667  13.338
20574W        W85559  13.737  14.577  12.545
20575W        W85560   0.419  16.238   3.649
20576W        W85561  10.629  20.557   4.888
20577W        W85562  13.695  41.113  13.256
20578W        W85563  25.127  20.023  12.813
20579W        W85564  13.097  22.618   4.069
20580W        W85565   7.052  39.980  13.454
20581W        W85566   6.563  25.761   0.308
20582W        W85567  23.213  16.536   0.000
20583W        W85568  14.862  42.868  13.460
20584W        W85569  35.435  33.403  13.869
20585W        W85570  37.911  33.164  13.407
20586W        W85571  13.217  36.359   4.514
20587W        W85572  27.135  24.171  10.599
20588W        W85573  44.263  30.496  13.497
20589W        W85574  13.943  27.117   5.578
20590W        W85575  32.896  26.643   0.324
20591W        W85576  37.496  23.042  11.661
20592W        W85577  41.905  39.485   3.828
20593W        W85578  38.852  36.813  11.224
20594W        W85579  19.972   7.252   2.397
20595W        W85580  21.195  13.098  13.075
20596W        W85581  13.069  40.654  14.505
20597W        W85582   4.977  32.368  11.999
20598W        W85583  13.396  26.980   3.698
20599W        W85584  10.388  25.038   3.327
20600W        W85585  26.165  25.718  12.181
20601W        W85586   7.110  42.863   0.937
20602W        W85587  16.550  37.704  11.275
20603W        W85588  43.989   2.850  11.495
20604W        W85589  18.694   3.395   4.804
20605W        W85590  36.853  15.816   0.439
20606W        W85591  13.493  23.256  12.146
20607W        W85592  31.219  39.364  10.554
20608W        W85593  27.705  11.096  11.580
20609W        W85594   6.549   0.733   1.389
20610W        W85595  22.568  39.812  11.397
20611W        W85596  24.415   7.930  11.136
20612W        W85597   9.889  39.430   4.428
20613W        W85598  16.483  28.483  14.805
20614W        W85599  11.305  11.038  11.036
20615W        W85600  11.392  37.826   3.261
20616W        W85601  22.461  41.310   3.241
20617W        W85602  43.014  19.278  13.154
20618W        W85603  38.740  44.298   2.322
20619W        W85604  44.970  11.073   2.064
20620W        W85605  26.672   2.876  14.462
20621W        W85606  28.971   4.767  14.312
20622W        W85607  11.459  44.103   4.150
20623W        W85608  19.654   6.727   2.748
20624W        W85609  44.430  30.273  11.370
20625W        W85610   9.250  12.235   1.345
20626W        W85611  31.557  20.774  11.646
20627W        W85612  12.140  23.485  14.412
20628W        W85613  34.180   5.818  12.951
20629W        W85614  42.292  27.369  12.470
20630W        W85615   2.813  12.782  10.787
20631W        W85616  42.076  31.148   3.020
20632W        W85617  12.886  19.729  12.636
20633W        W85618  17.547  37.966   1.456
20634W        W85619  37.864  31.073  13.431
20635W        W85620   1.440  21.661   2.585
20636W        W85621  43.770   1.006  11.155
20637W        W85622  26.740  21.773   1.316
20638W        W85623   6.040   0.181  13.315
20639W        W85624  43.327  14.716  12.136
20640W        W85625  14.281   4.047   2.631
20641W        W85626  16.974  26.352   4.686
20642W        W85627   5.965  39.086   3.159
20643W        W85628   6.779  35.265  14.797
20644W        W85629  28.707   6.772   1.471
20645W        W85630  14.899  34.691  12.348
20646W        W85631  34.018  19.540  12.985
20647W        W85632  31.153  15.763  13.513
20648W        W85633   3.246   3.640   4.348
20649W        W85634  22.312  12.751   3.207
20650W        W85635  38.476  13.781  14.978
20651W        W85636  18.700  27.242  11.896
20652W        W85637  26.569   7.996   1.778
20653W        W85638  18.773  40.139  13.152
20654W        W85639  41.351  13.710  11.215
20655W        W85640   1.412  30.113  12.495
20656W        W85641   5.212  22.128  11.232
20657W        W85642  42.905  27.483   1.281
20658W        W85643  33.998  39.051  13.882
20659W        W85644  33.949  38.562  11.703
20660W        W85645  22.503  31.106  11.672
20661W        W85646  29.722  44.343  14.503
20662W        W85647  10.296   6.170  10.229
20663W        W85648  12.135  40.000  13.744
20664W        W85649  30.827  34.584   2.849
20665W        W85650  39.556  41.534   1.317
20666W        W85651  17.113  13.840   4.477
20667W        W85652   9.445   5.218  10.005
20668W        W85653   0.166  12.807  10.877
20669W        W85654   8.561  19.542   5.028
20670W        W85655  36.112  19.113  14.483
20671W        W85656  14.854  35.042   4.779
20672W        W85657  43.318   2.498  13.089
20673W        W85658  22.622  15.304  14.421
20674W        W85659  13.516  24.757  12.875
20675W        W85660  15.586   4.231  14.431
20676W        W85661   3.933  31.235  12.344
20677W        W85662   8.408  35.595   0.764
20678W        W85663  25.811  34.422   2.862
20679W        W85664  40.709  22.518   3.696
20680W        W85665  12.457  29.893  13.365
20681W        W85666  36.825  16.672   4.872
20682W        W85667  23.095  44.589  14.073
20683W        W85668   2.173  34.025   3.640
20684W        W85669   5.351  26.623   3.287
20685W        W85670  41.789  18.117  11.531
20686W        W85671  15.307  25.756   3.193
20687W        W85672  38.539  14.789  10.982
20688W        W85673  21.728  33.537  14.213
20689W        W85674  32.396  25.011   0.517
20690W        W85675  11.606  32.057  12.607
20691W        W85676  39.246  11.705  13.871
20692W        W85677  39.697   3.345   4.858
20693W        W85678   8.833   3.523   1.764
20694W        W85679  17.658  12.220   4.250
20695W        W85680  17.571  34.363  13.854
20696W        W85681   0.330  30.069  14.347
20697W        W85682  16.335  35.108   4.534
20698W        W85683  22.259  41.289   2.248
20699W        W85684  20.480  11.362   3.856
20700W        W85685  16.607  19.216   2.655
20701W        W85686  14.716  17.080  13.702
20702W        W85687  22.073  43.267   4.117
20703W        W85688  23.723   2.091  10.386
20704W        W85689   9.310  12.822  13.955
20705W        W85690  24.951  36.004   1.833
20706W        W85691  20.001   3.914   1.438
20707W        W85692  26.074   9.862  14.863
20708W        W85693  27.481   7.316  11.448
20709W        W85694   0.438  14.791   0.499
20710W        W85695  18.060  37.814   5.003
20711W        W85696  37.174  39.734   1.987
20712W        W85697  37.345  29.018  10.530
20713W        W85698  23.245  23.256  12.478
20714W        W85699  23.682  36.134   3.179
20715W        W85700   1.873   5.814   0.273
20716W        W85701  15.371  20.644  11.451
20717W        W85702  43.029  31.387  14.330
20718W        W85703  18.709  34.949   3.338
20719W        W85704  39.202  35.264   9.859
20720W        W85705  43.905  34.457  14.506
20721W        W85706   4.422   6.204  12.362
20722W        W85707  17.251  38.362   0.903
20723W        W85708  44.058  39.436  11.196
20724W        W85709  19.609   5.216  12.434
20725W        W85710  39.316  12.682   3.755
20726W        W85711   0.934  28.581   3.744
20727W        W85712   1.952  18.343   4.134
20728W        W85713  43.249   2.139  11.265
20729W        W85714  32.635  33.438  11.850
20730W        W85715  39.394  31.858  13.483
20731W        W85716  40.269   4.808   1.809
20732W        W85717  34.196  11.788   2.313
20733W        W85718  25.090  41.005   3.844
20734W        W85719  14.105  37.565   4.592
20735W        W85720  41.376   8.149   0.105
20736W        W85721  41.037  43.847  11.502
20737W        W85722  13.859  33.473   4.751
20738W        W85723  25.998   6.257   2.010
20739W        W85724  44.201  43.347   3.722
20740W        W85725   5.944  11.171   1.202
20741W        W85726  24.494   9.416  12.028
20742W        W85727   9.307   6.354   2.158
20743W        W85728  14.875  28.062  12.089
20744W        W85729   3.256  42.779   0.004
20745W        W85730  30.458  12.339   0.070
20746W        W85731   9.639  38.295   0.236
20747W        W85732  42.315  31.918  14.517
20748W        W85733   5.471  36.551   2.969
20749W        W85734   5.806  12.081   3.370
20750W        W85735  42.884  17.498   2.954
20751W        W85736  29.543  43.831  11.438
20752W        W85737  33.447  29.600   3.631
20753W        W85738  16.415  34.552   0.708
20754W        W85739  11.922  17.233  13.763
20755W        W85740  12.100  11.817  11.461
20756W        W85741  20.232   0.564   4.837
20757W        W85742  21.155  43.309  11.600
20758W        W85743  15.231  36.723  12.521
20759W        W85744  31.166   9.205   3.008
20760W        W85745  33.962  38.479   3.186
20761W        W85746  14.882   5.234   1.063
20762W        W85747  21.251  22.594  12.101
20763W        W85748  33.100   1.265  10.665
20764W        W85749   1.185  24.252   0.400
20765W        W85750  24.819  29.623  11.023
20766W        W85751  11.662  14.725  11.109
20767W        W85752   9.244  11.312   1.998
20768W        W85753  20.612   2.528  12.112
20769W        W85754   2.560  44.350   4.989
20770W        W85755  39.886   0.982   2.443
20771W        W85756  26.559   9.323  10.421
20772W        W85757  16.478  41.379  13.941
20773W        W85758  27.221  35.008   4.372
20774W        W85759  17.787  12.662   0.350
20775W        W85760   8.107  35.540  11.967
20776W        W85761  42.199  34.981   2.205
20777W        W85762   8.311  17.905   3.218
20778W        W85763  30.554  39.260   4.967
20779W        W85764  13.366  38.476  11.043
20780W        W85765  39.330  41.730   2.416
20781W        W85766  40.588  39.463   1.886
20782W        W85767  44.731   6.387  14.470
20783W        W85768  21.512   1.766  11.140
20784W        W85769  24.012  15.433   3.263
20785W        W85770  11.559  24.048   1.719
20786W        W85771  42.560  42.394  11.407
20787W        W85772  41.334  19.564  13.346
20788W        W85773  42.076  32.542   3.339
20789W        W85774  37.459  19.655  12.621
20790W        W85775  13.536  39.689   0.955
20791W        W85776  13.600  35.398  13.933
20792W        W85777  42.841  16.327  14.840
20793W        W85778  26.693  11.085  11.495
20794W        W85779   8.947   6.881  12.338
20795W        W85780   4.408  17.768   4.701
20796W        W85781  35.536  23.020   2.826
20797W        W85782  38.891  32.485   0.420
20798W        W85783   2.809   8.659   2.371
20799W        W85784  12.185   0.911   4.026
20800W        W85785  22.049  40.011   4.172
20801W        W85786   7.942  40.425   1.799
20802W        W85787  44.663  30.618  14.514
20803W        W85788   9.983  33.223  12.788
20804W        W85789   4.372   0.952   3.092
20805W        W85790  32.011  26.674   0.977
20806W        W85791  39.742  15.252  14.273
20807W        W85792   2.196   4.694   4.077
20808W        W85793   7.115  30.683   0.852
20809W        W85794   3.343  31.376  12.457
20810W        W85795  22.205   9.105   4.438
20811W        W85796  17.995  43.819  13.089
20812W        W85797  10.390  30.408  12.212
20813W        W85798  34.605   8.190  13.446
20814W        W85799  28.950  37.514  10.164
20815W        W85800  34.852  28.183  14.421
20816W        W85801  24.514   5.480   4.627
20817W        W85802  16.092  18.484   4.065
20818W        W85803  11.673   1.323  13.301
20819W        W85804  15.581  34.085  14.216
20820W        W85805  39.821   9.805   2.321
20821W        W85806  29.150   3.391   0.671
20822W        W85807  21.573  29.642  11.662
20823W        W85808  29.731  16.152   3.709
20824W        W85809  40.410  34.533  12.200
20825W        W85810   9.884  35.454  12.938
20826W        W85811  26.131  44.402   4.865
20827W        W85812  11.392  17.529   0.919
20828W        W85813  20.406  19.365  11.622
20829W        W85814   1.529   5.471  13.862
20830W        W85815  31.053  15.561   3.615
20831W        W85816  23.440  33.896   1.862
20832W        W85817  34.970  32.956   0.463
20833W        W85818  41.511  36.033  10.504
20834W        W85819  34.473  20.225   2.662
20835W        W85820  31.425  34.323   0.795
20836W        W85821  42.356  23.172   3.318
20837W        W85822   3.731  24.067   2.476
20838W        W85823   0.939  30.924   3.641
20839W        W85824  44.795  19.496  11.624
20840W        W85825  22.348  32.557   1.214
20841W        W85826   2.284  25.557   4.733
20842W        W85827  34.087   9.222  13.074
20843W        W85828  10.627  27.018  14.809
20844W        W85829  11.220   9.970   0.450
20845W        W85830   4.238  31.482   0.264
20846W        W85831  20.877  23.832   4.181
20847W        W85832  25.315  43.934   3.811
20848W        W85833   6.320  23.178   3.638
20849W        W85834   3.357   6.379   4.612
20850W        W85835   9.494   8.119   0.540
20851W        W85836   3.329  32.183   3.641
20852W        W85837   2.225   0.193  11.449
20853W        W85838  12.798  21.623   2.006
20854W        W85839  16.237  27.749  12.091
20855W        W85840  32.955  42.389  12.691
20856W        W85841  18.876   7.121   1.164
20857W        W85842  35.123  41.429   2.778
20858W        W85843   0.371  31.272   4.202
20859W        W85844  12.903   5.893  14.148
20860W        W85845  28.511   3.768  13.951
20861W        W85846  21.470  40.001  10.570
20862W        W85847   1.891   9.084  14.299
20863W        W85848  17.662  19.176   3.626
20864W        W85849   6.451  37.570   1.727
20865W        W85850  41.469   2.549  11.912
20866W        W85851  43.315  24.050   1.663
20867W        W85852  11.681  24.548  12.551
20868W        W85853  41.550  37.578   2.720
20869W        W85854  32.401  39.626   4.216
20870W        W85855  27.074  10.072  12.948
20871W        W85856  26.715  41.753  10.813
20872W        W85857  37.441  16.334  13.433
20873W        W85858  14.326  40.410   3.300
20874W        W85859  23.227   4.379  14.095
20875W        W85860  23.209  22.675   1.698
20876W        W85861  36.507   7.104  11.166
20877W        W85862  17.597  23.545   4.408
20878W        W85863  29.471   3.352  10.493
20879W        W85864  32.885  26.704   2.859
20880W        W85865   7.767   0.289   3.537
20881W        W85866   2.851  22.635   2.233
20882W        W85867  20.951  24.205  14.363
20883W        W85868   1.348  14.927  12.038
20884W        W85869  39.556  18.633  12.332
20885W        W85870  11.903   8.463  12.095
20886W        W85871   8.934  40.874   0.094
20887W        W85872  15.053  11.582   4.410
20888W        W85873  29.170  18.221  10.578
20889W        W85874  28.008  40.071   4.568
20890W        W85875   5.117   4.473  12.917
20891W        W85876  40.207  36.824  13.454
20892W        W85877  28.185  10.975   1.459
20893W        W85878  23.299  10.395   0.404
20894W        W85879  39.980  38.926  11.623
20895W        W85880   7.259   8.797  14.844
20896W        W85881  14.077  40.989   2.773
20897W        W85882   6.746  41.212   4.466
20898W        W85883  23.355  13.066  11.540
20899W        W85884  17.635   6.907  13.855
20900W        W85885  13.993  34.324   3.867
20901W        W85886  36.088  31.412  11.026
20902W        W85887  30.327  12.828   1.472
20903W        W85888   9.143  33.545   2.750
20904W        W85889  38.018  29.974  12.307
20905W        W85890  43.788  27.996  14.885
20906W        W85891  29.215  41.546  11.462
20907W        W85892  33.808  16.472  14.001
20908W        W85893  19.178  28.540  12.104
20909W        W85894  37.027  14.705   2.219
20910W        W85895  24.034  14.329  11.614
20911W        W85896  23.781   3.340  14.336
20912W        W85897  21.458   2.984  11.705
20913W        W85898   6.843   1.008   4.087
20914W        W85899  22.923   7.954   3.130
20915W        W85900  23.981   3.055   3.686
20916W        W85901  22.467  36.261  12.002
20917W        W85902  25.566  29.604  13.803
20918W        W85903   9.578  27.080   1.920
20919W        W85904   7.607  20.243  10.711
20920W        W85905  17.554  39.610  14.870
20921W        W85906  20.251   8.877  12.612
20922W        W85907  20.101   3.223  11.887
20923W        W85908  11.637  16.830  13.556
20924W        W85909  26.619   8.715   4.660
20925W        W85910  16.198  19.362   5.377
20926W        W85911  17.284  33.080  13.787
20927W        W85912  35.793   1.959   2.357
20928W        W85913  11.542   1.652   3.765
20929W        W85914  30.228   2.749  11.463
20930W        W85915  34.673  21.035   4.618
20931W        W85916  27.493   7.405   1.887
20932W        W85917  16.595  24.549   4.364
20933W        W85918  44.491  39.420  12.807
20934W        W85919  35.677  27.946  12.084
20935W        W85920  44.204   2.917   3.296
20936W        W85921   6.451   1.684  12.096
20937W        W85922  39.827  15.240   0.794
20938W        W85923  32.573  25.010  12.114
20939W        W85924   0.422  19.620   3.415
20940W        W85925  12.258   7.226   4.125
20941W        W85926  16.806  37.388   3.885
20942W        W85927  35.202  35.903  10.327
20943W        W85928  10.860  15.588  14.987
20944W        W85929  34.566  39.057  14.994
20945W        W85930  43.217  21.592   4.069
20946W        W85931  28.937  19.431   1.267
20947W        W85932   7.401  25.275   2.287
20948W        W85933  25.133  42.752  12.432
20949W        W85934   5.971   7.278   0.413
20950W        W85935  13.829   3.193   1.030
20951W        W85936  36.729   2.949   2.842
20952W        W85937  42.053  37.751   2.650
20953W        W85938  40.052  27.054   3.177
20954W        W85939  32.018  24.173   1.945
20955W        W85940   7.452  44.987   0.315
20956W        W85941  17.196  44.354   0.320
20957W        W85942  18.809  12.698   1.756
20958W        W85943  39.270  39.228   4.827
20959W        W85944  33.329  19.472  10.466
20960W        W85945  28.196  24.688  11.128
20961W        W85946  33.332  34.062   4.462
20962W        W85947   6.232  33.272   3.724
20963W        W85948  11.701  16.734  12.081
20964W        W85949   3.301  13.719   1.841
20965W        W85950  18.036   0.974  11.586
20966W        W85951  15.086  41.401   1.353
20967W        W85952  13.146  21.227   3.634
20968W        W85953  36.597  37.545  11.962
20969W        W85954  13.002  40.799  14.995
20970W        W85955   2.740  25.039   4.083
20971W        W85956  20.594  14.596   3.085
20972W        W85957  40.907  22.242  10.858
20973W        W85958   9.044  44.745  11.129
20974W        W85959  10.150  35.594  13.375
20975W        W85960   9.092  35.523   4.534
20976W        W85961  14.705  40.831   4.515
20977W        W85962   9.019  20.932  12.928
20978W        W85963  15.639  15.225   3.769
20979W        W85964  10.914  15.680  13.387
20980W        W85965   0.689   5.243   0.743
20981W        W85966  10.300  22.470   1.261
20982W        W85967  24.691  20.007  13.813
20983W        W85968  30.099  34.604   1.256
20984W        W85969  17.765  31.480   0.456
20985W        W85970  12.142  12.043   4.593
20986W        W85971  30.222  23.258  12.046
20987W        W85972  38.960  26.814   1.272
20988W        W85973  23.540  31.444   4.946
20989W        W85974   4.400  37.308   0.875
20990W        W85975  43.597  22.451  14.888
20991W        W85976  41.160   3.246   1.649
20992W        W85977  42.297  36.590  14.100
20993W        W85978  12.656  19.074   1.386
20994W        W85979  11.896  12.927   3.126
20995W        W85980  39.905  31.556   4.563
20996W        W85981   0.315   4.597  13.444
20997W        W85982  25.569  18.596   3.916
20998W        W85983  24.569   2.984   3.313
20999W        W85984  38.796  17.973   2.595
21000W        W85985  42.427  22.941  11.161
21001W        W85986  19.152   2.811   4.562
21002W        W85987  30.449  13.937   1.808
21003W        W85988  27.080  43.496   4.623
21004W        W85989  35.116  23.049  10.562
21005W        W85990   8.420   3.864   1.785
21006W        W85991  25.063  15.784   2.276
21007W        W85992  14.799  22.581  10.485
21008W        W85993  41.729  17.861  11.057
21009W        W85994  17.042  28.044   2.955
21010W        W85995  25.079  11.254   2.371
21011W        W85996  35.134  20.646  10.703
21012W        W85997   8.163   8.546   4.086
21013W        W85998  16.060   9.314   4.744
21014W        W85999  23.435  18.514   4.989
21015W        W86000   4.740  39.024   3.827
21016W        W86001   3.289  23.609   4.550
21017W        W86002  27.074  22.959   2.723
21018W        W86003  30.020   1.673  12.975
21019W        W86004  26.781  33.209   0.740
21020W        W86005  34.167   6.576  10.733
21021W        W86006  36.187  23.968  10.684
21022W        W86007  41.254   2.300   0.345
21023W        W86008  12.819  19.543   3.257
21024W        W86009  12.829   8.761   3.645
21025W        W86010  19.038   7.360  13.556
21026W        W86011  24.641  39.795  13.372
21027W        W86012   3.742   1.291  13.625
21028W        W86013  29.688  27.354   2.112
21029W        W86014   1.242  16.108   2.446
21030W        W86015  36.786   8.313  14.801
21031W        W86016  24.150  31.535   1.682
21032W        W86017   1.411   0.120  12.139
21033W        W86018  21.741   7.912   5.158
21034W        W86019  30.639  32.408   0.257
21035W        W86020   7.413  13.357  13.898
21036W        W86021  26.418  12.602  13.886
21037W        W86022  37.432   3.737   0.999
21038W        W86023  39.549  42.296  14.465
21039W        W86024  27.151  25.558   2.276
21040W        W86025  28.986   2.133   2.012
21041W        W86026   7.873  11.226   1.843
21042W        W86027  33.162  23.953  14.055
21043W        W86028  35.612  35.721   3.150
21044W        W86029  13.613   9.396  12.596
21045W        W86030  41.055   8.776   3.110
21046W        W86031   1.799  31.928   2.870
21047W        W86032  28.481  26.931   2.916
21048W        W86033   9.773  24.447   1.421
21049W        W86034  24.205   9.259  13.479
21050W        W86035   4.301  16.460  13.437
21051W        W86036  19.598  13.832   2.672
21052W        W86037  41.287  40.313  14.998
21053W        W86038   1.715  21.046   1.394
21054W        W86039  32.561  31.521  10.764
21055W        W86040   5.839  39.085  12.341
21056W        W86041  21.786  43.769   3.718
21057W        W86042  35.650  42.866   0.083
21058W        W86043  26.359  42.035  12.499
21059W        W86044  15.263  38.045   3.632
21060W        W86045   7.257  42.963  14.515
21061W        W86046  20.256  33.227   2.606
21062W        W86047  13.000   7.459  11.792
21063W        W86048  22.014  31.050   0.234
21064W        W86049  42.955  29.651   4.544
21065W        W86050  26.144  15.729   2.243
21066W        W86051  21.709   4.831   2.644
21067W        W86052  15.363  21.344   4.052
21068W        W86053  30.491  44.582   0.622
21069W        W86054  20.699   9.751   1.565
21070W        W86055   9.916  38.450   4.070
21071W        W86056  31.086  29.398   0.252
21072W        W86057  28.730  12.838   4.583
21073W        W86058   6.805  24.499  13.982
21074W        W86059  30.692  20.871  11.777
21075W        W86060  33.112  17.806  14.961
21076W        W86061   3.547  15.154  11.231
21077W        W86062   9.859  41.935   2.739
21078W        W86063  44.288  26.787   2.187
21079W        W86064  44.932  41.255  11.144
21080W        W86065  31.481  29.645  14.022
21081W        W86066  35.394  38.454   3.811
21082W        W86067  37.137   4.853  14.403
21083W        W86068  18.849   3.160   4.317
21084W        W86069  38.402  34.356   2.867
21085W        W86070  11.090  27.073   4.093
21086W        W86071   6.382  36.501   1.906
21087W        W86072  10.636  27.073   1.863
21088W        W86073  36.301  25.154   3.297
21089W        W86074  30.307  30.512   1.918
21090W        W86075  43.835  25.146  12.355
21091W        W86076  32.154  15.477   3.175
21092W        W86077  11.572  35.434  12.580
21093W        W86078  23.115  24.759   2.143
21094W        W86079  31.589  13.316   1.382
21095W        W86080  27.055   0.431   4.026
21096W        W86081  15.621  14.193   2.776
21097W        W86082  15.160  12.436   4.691
21098W        W86083  18.283  23.446  10.747
21099W        W86084   1.122  41.305   5.121
21100W        W86085  21.604  44.327  11.390
21101W        W86086  25.579  26.041  13.052
21102W        W86087  21.257   0.781   0.945
21103W        W86088   3.957  42.346  13.859
21104W        W86089  27.051  11.164   3.876
21105W        W86090  22.589  10.804   3.892
21106W        W86091   8.808   1.225   3.012
21107W        W86092  32.511   2.874  11.932
21108W        W86093  34.826  32.047   0.429
21109W        W86094  23.257  41.528  12.070
21110W        W86095   2.907  15.337  13.630
21111W        W86096  22.006  11.568   0.940
21112W        W86097   9.244   4.920  12.450
21113W        W86098  30.892  32.036  14.388
21114W        W86099   4.507  44.397   0.429
21115W        W86100  38.398  14.693   3.730
21116W        W86101   8.918  13.696  12.437
21117W        W86102  34.797   4.715   0.636
21118W        W86103  42.941   2.784   0.002
21119W        W86104  41.204   2.175  12.133
21120W        W86105  11.545  31.120   3.902
21121W        W86106  37.244  22.600  11.638
21122W        W86107  14.310  16.131   3.326
21123W        W86108  13.312  36.442  14.538
21124W        W86109  31.120  35.011   2.808
21125W        W86110   5.808  10.205   3.739
21126W        W86111  44.620  13.643  12.419
21127W        W86112  35.573  14.916  12.926
21128W        W86113   6.615   4.928  13.001
21129W        W86114  26.584   3.981   3.227
21130W        W86115  15.616  31.557   4.627
21131W        W86116  42.754  11.766  12.108
21132W        W86117   2.741  21.069  10.638
21133W        W86118   4.823  25.521  12.118
21134W        W86119  39.691  18.055   2.838
21135W        W86120  43.807  14.415  13.404
21136W        W86121   5.699  15.206   2.823
21137W        W86122  19.668  16.249   0.434
21138W        W86123  43.779   3.361   2.242
21139W        W86124   3.228   6.368   3.318
21140W        W86125   9.634  12.135   0.736
21141W        W86126  43.892  43.434  14.966
21142W        W86127   7.402  37.126   1.841
21143W        W86128   9.826  19.987   1.221
21144W        W86129   8.804   5.692  13.858
21145W        W86130   0.927   7.820  11.221
21146W        W86131   3.956  11.110  11.571
21147W        W86132  13.647  33.683   0.362
21148W        W86133   8.125  11.272  12.529
21149W        W86134  27.766  13.688  14.223
21150W        W86135   6.080  35.320   1.393
21151W        W86136  42.378  40.468  13.553
21152W        W86137  13.261  40.156  14.421
21153W        W86138   5.997  28.047  13.813
21154W        W86139   5.873  14.164  12.459
21155W        W86140   5.251   7.311  12.794
21156W        W86141  22.647  20.054  14.598
21157W        W86142   3.499  13.924   0.487
21158W        W86143  41.346  22.742   4.031
21159W        W86144  16.402  25.143  11.430
21160W        W86145  40.273  28.410  14.816
21161W        W86146   0.779  14.422  13.101
21162W        W86147   4.901   7.010   1.168
21163W        W86148   5.371   0.211  12.896
21164W        W86149  26.672  36.821   3.246
21165W        W86150  44.889   5.823  10.714
21166W        W86151   7.949   7.188  11.892
21167W        W86152   3.152  15.070  11.970
21168W        W86153  21.800  34.106   0.958
21169W        W86154  14.633  44.932  11.128
21170W        W86155  20.793  19.584  14.482
21171W        W86156  15.452   8.872  11.738
21172W        W86157   1.523   4.195  12.498
21173W        W86158  42.673  34.644   5.398
21174W        W86159   5.932  10.825  12.961
21175W        W86160  21.854  35.963   3.885
21176W        W86161  35.823  14.900  14.984
21177W        W86162  43.073   0.473  10.676
21178W        W86163  21.577  28.037  10.967
21179W        W86164   7.437  22.572  11.590
21180W        W86165  11.890  11.024   3.130
21181W        W86166  26.072   0.227   4.939
21182W        W86167  43.245   5.471  12.046
21183W        W86168  11.184  18.222  12.911
21184W        W86169  20.762   7.867  13.859
21185W        W86170  16.632  32.706  11.807
21186W        W86171  40.191  43.408  14.966
21187W        W86172  12.884   1.387  13.920
21188W        W86173  25.097  19.773   5.159
21189W        W86174  41.067  35.083  14.338
21190W        W86175   6.417   2.416  12.511
21191W        W86176  41.455  43.967  13.484
21192W        W86177   8.297  22.191   1.815
21193W        W86178  33.941  35.899  13.362
21194W        W86179  44.469   3.786   0.916
21195W        W86180  16.619  18.620  12.849
21196W        W86181  19.137   2.699  13.052
21197W        W86182  16.089  10.459  14.037
21198W        W86183  28.470  34.967  13.530
21199W        W86184  22.731  41.368   2.790
21200W        W86185  32.039   0.884   0.593
21201W        W86186  23.487   5.257   0.035
21202W        W86187  36.635  29.059  11.160
21203W        W86188  18.722  35.307   3.911
21204W        W86189  41.738  41.603  11.489
21205W        W86190  27.050  17.080   1.186
21206W        W86191  34.660  22.526   2.401
21207W        W86192  40.310  40.452   4.072
21208W        W86193   7.753  43.777  14.894
21209W        W86194  38.028  40.117  13.402
21210W        W86195   4.753  13.740   0.893
21211W        W86196   9.193  31.969   3.342
21212W        W86197  26.435  39.554   3.659
21213W        W86198   8.766   9.588   3.227
21214W        W86199  28.642  18.160   0.846
21215W        W86200  35.951  32.927  11.232
21216W        W86201   0.793  32.033  14.985
21217W        W86202  16.012  37.934   3.498
21218W        W86203  33.476  39.592  13.516
21219W        W86204  10.895   2.885   4.264
21220W        W86205  26.596  15.270   2.927
21221W        W86206  38.142  18.275   4.147
21222W        W86207   7.274  30.566   4.597
21223W        W86208  43.779  21.436  13.378
21224W        W86209  20.616  15.042   2.236
21225W        W86210  34.584   2.164   2.865
21226W        W86211   5.283  40.497  13.674
21227W        W86212   9.317  42.633   9.880
21228W        W86213  35.485   9.777  12.790
21229W        W86214  34.953  10.744   0.980
21230W        W86215  19.298  40.385  12.024
21231W        W86216   4.248  40.015  13.863
21232W        W86217  31.844  20.295  11.912
21233W        W86218   2.873   6.546   1.964
21234W        W86219  38.016  25.411  12.952
21235W        W86220  20.949  33.861  12.686
21236W        W86221  40.352  29.305  13.422
21237W        W86222  23.638  40.494  12.037
21238W        W86223  14.769  13.402   3.478
21239W        W86224  37.952  19.679  10.653
21240W        W86225  27.929  20.241   0.075
21241W        W86226  35.030  16.894   4.092
21242W        W86227  11.768  17.095   0.023
21243W        W86228   6.733  13.253   2.198
21244W        W86229  21.087  15.820   1.239
21245W        W86230   4.143  14.991  11.953
21246W        W86231  38.338   0.411   0.376
21247W        W86232  19.279   1.583  11.632
21248W        W86233  11.258  38.534   3.744
21249W        W86234  20.748   2.332   2.061
21250W        W86235   6.028  14.212   4.605
21251W        W86236  16.733  37.364  10.561
21252W        W86237  42.794  28.141  12.365
21253W        W86238  37.560  29.419   1.365
21254W        W86239  29.942  18.033  12.606
21255W        W86240   0.108  29.532  13.763
21256W        W86241  11.365  42.353   0.660
21257W        W86242  24.453  14.061  14.997
21258W        W86243  33.831   6.802   5.006
21259W        W86244   4.849  21.092   0.490
21260W        W86245  11.067   2.261  11.442
21261W        W86246  24.010  23.967  14.613
21262W        W86247  39.498  19.177   3.491
21263W        W86248  28.199  13.885   2.292
21264W        W86249   4.740  42.992   0.989
21265W        W86250   4.065  40.437   3.182
21266W        W86251  30.470   4.212   3.172
21267W        W86252   5.279   7.731  13.610
21268W        W86253  15.242  37.077   2.734
21269W        W86254  33.283   2.442  13.572
21270W        W86255   7.225  44.053   9.940
21271W        W86256  35.292  21.130  10.764
21272W        W86257  38.987  12.695  12.768
21273W        W86258  42.018  31.330  12.414
21274W        W86259  28.424  23.027  14.001
21275W        W86260  42.502  28.590  11.152
21276W        W86261   0.234  23.322   2.536
21277W        W86262  28.369  22.954   0.274
21278W        W86263  38.335   6.641   0.308
21279W        W86264  16.860   1.321  12.510
21280W        W86265  42.991  37.567  14.204
21281W        W86266  20.322  38.458   1.135
21282W        W86267  37.504  14.576   0.370
21283W        W86268   4.468  39.013  10.594
21284W        W86269  32.412  42.839  10.700
21285W        W86270  14.730  33.698   0.003
21286W        W86271  32.825  32.735   3.183
21287W        W86272   7.999  29.686  11.933
21288W        W86273  44.454   6.181  12.080
21289W        W86274  37.864   0.223  14.614
21290W        W86275  29.287  43.604   0.457
21291W        W86276   5.140  20.517  11.043
21292W        W86277  12.986  42.806   2.296
21293W        W86278  28.260  12.419   1.271
21294W        W86279   7.728  15.226   1.606
21295W        W86280   3.038  14.197   3.318
21296W        W86281  20.047   1.316  13.326
21297W        W86282   4.052  31.128   2.243
21298W        W86283  26.931  16.316  13.013
21299W        W86284  21.017  24.432  11.690
21300W        W86285  31.686  16.573  14.988
21301W        W86286  37.287  38.837   5.145
21302W        W86287  29.557  18.531  14.537
21303W        W86288   4.817  15.491  12.508
21304W        W86289  20.826  23.700  10.776
21305W        W86290  22.744  43.318  13.369
21306W        W86291  23.071   9.261   2.601
21307W        W86292   2.335   5.171   4.808
21308W        W86293  41.282  33.869   4.099
21309W        W86294  24.657  24.902   4.342
21310W        W86295  25.264   0.097  14.461
21311W        W86296  20.536  41.107  11.221
21312W        W86297  25.688  16.281   2.788
21313W        W86298  37.854   6.750  12.362
21314W        W86299  38.306  17.085   2.412
21315W        W86300   4.697  36.620  13.925
21316W        W86301   7.839   3.445   0.213
21317W        W86302  27.214   4.296  14.276
21318W        W86303  33.435  29.660  11.051
21319W        W86304  25.945  11.781   1.720
21320W        W86305   5.374   3.032  11.611
21321W        W86306  10.133  44.030   4.707
21322W        W86307  31.971   8.759   4.851
21323W        W86308   5.838  21.560  11.383
21324W        W86309  36.348  30.396  11.922
21325W        W86310  40.243  16.728  13.434
21326W        W86311  43.415   3.958   3.778
21327W        W86312  19.263  30.020   0.458
21328W        W86313  20.825  41.268  10.812
21329W        W86314   6.698  11.216  14.072
21330W        W86315   9.802  26.119   3.218
21331W        W86316  25.149   7.068   3.205
21332W        W86317  35.643  39.464  13.111
21333W        W86318  43.260  14.702  10.718
21334W        W86319   6.895   7.927   1.083
21335W        W86320  35.511  33.291   1.258
21336W        W86321  15.074  10.145  10.861
21337W        W86322  35.514  20.225   1.309
21338W        W86323   0.970  29.118  12.044
21339W        W86324  23.755  24.669   0.056
21340W        W86325  24.011  41.943   4.948
21341W        W86326  19.651  33.564   3.845
21342W        W86327  13.548  18.593  11.915
21343W        W86328  11.851  30.491   3.250
21344W        W86329  40.706  38.348   0.796
21345W        W86330  41.327  21.694   2.771
21346W        W86331   1.552   8.941   4.121
21347W        W86332  39.424  36.008  12.081
21348W        W86333  42.785  14.259   4.063
21349W        W86334  39.280   0.346   0.289
21350W        W86335  41.378  26.730   5.323
21351W        W86336  16.375  30.126   0.302
21352W        W86337  27.764  30.656  12.836
21353W        W86338  44.308  34.983   3.585
21354W        W86339  15.313   2.405  10.690
21355W        W86340  10.028  26.474   0.394
21356W        W86341  37.099  31.086  12.002
21357W        W86342  42.835   7.317  14.113
21358W        W86343  18.709  37.488  14.531
21359W        W86344  14.102  37.952  13.793
21360W        W86345  40.842   0.812  10.742
21361W        W86346  19.657  27.514   1.955
21362W        W86347  16.968  32.198  11.052
21363W        W86348  35.663   5.639  13.050
21364W        W86349  42.528  23.616   3.101
21365W        W86350   1.011  25.101   4.637
21366W        W86351  23.143  39.404  11.473
21367W        W86352  36.594  37.764   1.193
21368W        W86353  29.945  31.487  13.347
21369W        W86354  11.151  26.989   1.873
21370W        W86355  31.105  34.369  13.330
21371W        W86356  14.682  18.279   3.270
21372W        W86357  22.464  33.831   2.886
21373W        W86358  20.673  30.826  11.931
21374W        W86359  16.107  39.002   1.979
21375W        W86360  15.663  23.738   1.366
21376W        W86361  32.792  34.917  12.445
21377W        W86362  34.500   1.185  14.799
21378W        W86363  13.324  26.890   4.190
21379W        W86364  10.572  29.037   1.425
21380W        W86365  33.546  42.291  11.585
21381W        W86366  17.747   3.197  13.623
21382W        W86367  39.798  26.301  12.496
21383W        W86368  15.098   9.700   3.990
21384W        W86369  22.670  31.524  11.984
21385W        W86370   0.919   9.434  11.943
21386W        W86371  39.374   4.912   9.932
21387W        W86372  10.799  38.871  14.403
21388W        W86373   0.849  16.776   4.763
21389W        W86374  20.363  42.044  11.217
21390W        W86375  31.635  40.657  11.230
21391W        W86376  41.976  44.947   2.408
21392W        W86377  28.758  30.520   3.727
21393W        W86378  27.094  26.966   2.880
21394W        W86379  14.436  28.268  11.163
21395W        W86380  30.406  42.370   4.081
21396W        W86381  30.577   3.348   2.806
21397W        W86382  11.469   8.401  13.821
21398W        W86383  25.422  23.069  11.570
21399W        W86384   8.641  12.300   2.500
21400W        W86385  40.551   2.999  14.906
21401W        W86386   3.229  37.493   4.673
21402W        W86387  18.140  37.965   1.451
21403W        W86388  44.208  39.987  12.175
21404W        W86389  32.696  39.382  10.688
21405W        W86390  10.900  17.919  11.152
21406W        W86391  15.178  20.101   2.667
21407W        W86392  44.333  37.291  11.594
21408W        W86393  41.307  29.955   2.639
21409W        W86394  19.378   6.758   4.486
21410W        W86395  42.500  14.765  11.637
21411W        W86396  28.519  11.291  13.895
21412W        W86397   3.346   8.677  10.100
21413W        W86398  23.052  23.004  14.885
21414W        W86399  38.763  11.066  13.554
21415W        W86400  30.194  29.480   2.282
21416W        W86401  33.471  32.942  10.470
21417W        W86402  38.803  22.575   3.646
21418W        W86403  35.044   4.051   1.258
21419W        W86404  34.162  42.277   3.292
21420W        W86405   4.274  20.041   2.659
21421W        W86406  41.280  42.758  11.878
21422W        W86407  33.128  32.689  13.475
21423W        W86408   1.319  15.358  10.668
21424W        W86409  14.992   6.904   4.412
21425W        W86410  19.263  30.363  10.263
21426W        W86411   9.768  38.473  11.575
21427W        W86412   5.707   5.326   0.677
21428W        W86413  22.278   9.888   0.503
21429W        W86414  29.687   8.057  12.921
21430W        W86415  35.997   9.443   5.432
21431W        W86416  28.454  34.105   3.103
21432W        W86417   2.904  18.544   1.780
21433W        W86418  34.133  30.426  13.074
21434W        W86419  26.535   7.360  12.349
21435W        W86420  34.604   3.906   0.189
21436W        W86421  38.968   7.958   2.864
21437W        W86422  16.619  30.423  13.946
21438W        W86423   2.971   4.534   2.749
21439W        W86424   3.699   2.787   2.304
21440W        W86425   2.216   0.371   3.237
21441W        W86426  14.380  44.490  11.057
21442W        W86427  32.618  26.581  11.761
21443W        W86428  26.142  25.663   2.478
21444W        W86429  21.548   5.354  11.364
21445W        W86430  17.272  33.431  14.258
21446W        W86431  30.442   1.464  13.413
21447W        W86432  15.577  42.313  12.998
21448W        W86433  36.573   1.263  12.444
21449W        W86434  36.139   4.708  11.638
21450W        W86435  13.489  27.983   4.656
21451W        W86436  10.330  25.695  11.874
21452W        W86437   2.363   1.515  13.321
21453W        W86438   6.786   5.735   1.772
21454W        W86439  33.315  12.412   4.166
21455W        W86440  18.455  21.202  14.461
21456W        W86441  10.908  27.629   2.776
21457W        W86442  44.294  44.024   0.823
21458W        W86443  36.022  21.732  12.416
21459W        W86444   5.289  18.832   2.721
21460W        W86445  30.538  22.658   1.204
21461W        W86446   6.521  32.227   2.325
21462W        W86447  30.161  20.194   3.762
21463W        W86448  37.266  44.493   2.312
21464W        W86449  25.049  22.505   3.670
21465W        W86450   1.696  22.759   3.735
21466W        W86451  10.795  10.244   2.897
21467W        W86452  33.939   6.859  13.336
21468W        W86453  23.774  19.587   1.384
21469W        W86454  31.905  13.787  14.722
21470W        W86455  25.119  40.316  11.200
21471W        W86456  25.729  37.495  12.908
21472W        W86457  18.213  19.635   0.716
21473W        W86458   1.485  40.802   3.581
21474W        W86459   6.320  17.985  12.919
21475W        W86460  12.131  17.009   2.620
21476W        W86461  29.029   5.511   9.985
21477W        W86462  11.696  30.774  11.617
21478W        W86463  14.143  10.147  12.228
21479W        W86464  19.701  25.192   4.632
21480W        W86465  18.342  23.213   2.740
21481W        W86466  16.544  19.003   5.141
21482W        W86467  40.136  39.975   4.213
21483W        W86468   6.279  25.770  11.185
21484W        W86469   0.309  10.985  10.781
21485W        W86470   1.786   2.652   1.744
21486W        W86471   5.208  13.093  11.924
21487W        W86472  33.958   0.442  13.827
21488W        W86473   1.265  41.456  13.273
21489W        W86474   1.764  11.742  11.588
21490W        W86475   3.240  44.881   0.368
21491W        W86476  41.923   2.731   4.857
21492W        W86477  40.306  34.201   1.856
21493W        W86478  26.960   4.313   0.723
21494W        W86479  27.115   8.867   3.693
21495W        W86480   6.357  12.132   3.173
21496W        W86481  29.134  20.550   4.348
21497W        W86482  19.634  21.931   4.441
21498W        W86483   8.314  22.277  11.587
21499W        W86484  36.523  25.879  14.475
21500W        W86485  28.852  22.041  11.464
21501W        W86486  18.230  23.172  12.243
21502W        W86487  40.951  34.602   0.043
21503W        W86488  36.786  42.022  11.578
21504W        W86489  35.983  30.556  13.817
21505W        W86490   5.940  11.919   4.296
21506W        W86491  36.463  30.836   0.849
21507W        W86492  33.839  28.088   4.351
21508W        W86493  25.813  23.154   1.254
21509W        W86494  41.323  30.114  14.921
21510W        W86495  25.788  11.953   9.955
21511W        W86496  39.195  32.945   0.367
21512W        W86497   6.395   1.675   2.905
21513W        W86498   5.937  14.855   3.721
21514W        W86499   2.243  35.893   5.083
21515W        W86500  13.756  10.164   2.621
21516W        W86501  27.637  29.554  10.352
21517W        W86502   1.462   8.662   4.556
21518W        W86503  44.411  26.762   4.634
21519W        W86504  26.245  10.109   4.862
21520W        W86505   3.350  12.889  10.837
21521W        W86506  12.301   5.208  12.535
21522W        W86507  39.460  10.751   4.312
21523W        W86508  12.909  39.328  14.514
21524W        W86509   5.462  42.828   0.321
21525W        W86510   6.745  16.589  12.326
21526W        W86511  20.743  38.972  11.279
21527W        W86512  15.755  11.445  13.752
21528W        W86513   9.162  18.224  11.634
21529W        W86514   3.420   3.156   4.259
21530W        W86515  14.049  15.478  13.785
21531W        W86516   5.029  24.322   4.176
21532W        W86517  39.366  16.088  14.076
21533W        W86518   2.135  20.005  11.594
21534W        W86519  30.043  22.024   2.309
21535W        W86520  38.673  14.783   2.013
21536W        W86521  29.599  27.599  12.051
21537W        W86522  36.594  23.090  10.710
21538W        W86523  21.698  23.696  10.823
21539W        W86524   0.403  19.402   4.578
21540W        W86525  15.580  32.623   4.025
21541W        W86526   6.388  17.485   0.856
21542W        W86527  10.597  35.343  14.408
21543W        W86528  41.895   4.486  12.048
21544W        W86529  33.969  25.154   0.446
21545W        W86530  24.467  13.200   0.741
21546W        W86531  28.189  39.213   0.299
21547W        W86532  38.306  12.216   2.888
21548W        W86533   7.912  42.730  10.185
21549W        W86534  35.553  22.026   3.716
21550W        W86535  24.193  21.720  13.418
21551W        W86536  35.136  14.110  11.058
21552W        W86537  43.023   6.222   1.840
21553W        W86538   3.394  42.992  10.333
21554W        W86539   0.394  13.247  12.079
21555W        W86540  25.399   6.344   4.937
21556W        W86541  11.346  18.124   2.579
21557W        W86542  25.331   5.446  12.003
21558W        W86543  14.523  16.030   2.813
21559W        W86544  28.917  23.220   3.296
21560W        W86545   6.393  43.600  11.534
21561W        W86546  40.102  21.961  11.189
21562W        W86547   6.382  18.120   2.040
21563W        W86548   4.611  43.607  10.785
21564W        W86549  13.185  24.449   4.112
21565W        W86550  17.585   3.683  11.106
21566W        W86551  30.131  41.150   0.629
21567W        W86552  37.482  35.922  12.959
21568W        W86553   6.120   5.224  12.148
21569W        W86554  38.203  42.025   1.781
21570W        W86555  42.741  29.647  14.959
21571W        W86556  25.597  12.139  12.647
21572W        W86557  14.236  19.452  13.028
21573W        W86558   4.048  19.202   0.839
21574W        W86559  16.511   5.421   3.051
21575W        W86560  36.041  18.038  11.513
21576W        W86561   1.162  31.413   3.698
21577W        W86562  32.253  23.717   1.823
21578W        W86563  17.440   9.449   3.606
21579W        W86564  20.137   0.496  13.868
21580W        W86565   4.298  32.903  12.252
21581W        W86566  27.162  21.694   2.502
21582W        W86567  44.710  15.647   3.216
21583W        W86568  32.250  26.180   2.331
21584W        W86569  26.215   0.826  14.482
21585W        W86570  30.105  38.858  13.899
21586W        W86571   1.069  31.198   1.214
21587W        W86572  36.170  21.035  11.891
21588W        W86573  33.671   4.326   0.832
21589W        W86574   6.475  13.578  13.910
21590W        W86575  33.087  44.486   3.805
21591W        W86576  36.422  29.845   4.110
21592W        W86577  24.182  31.998  13.674
21593W        W86578  24.456  38.045   1.840
21594W        W86579  27.957  40.547  10.164
21595W        W86580  28.121  19.989  14.656
21596W        W86581  43.321  41.751  13.207
21597W        W86582  34.348   5.680   3.751
21598W        W86583   0.332  32.168   1.693
21599W        W86584  11.587   7.234   1.144
21600W        W86585  31.547  37.793   2.272
21601W        W86586   4.182  29.123   0.366
21602W        W86587  13.891  28.605   0.320
21603W        W86588  19.422  34.939   0.528
21604W        W86589  22.034  21.454   0.393
21605W        W86590  24.225  22.194   1.305
21606W        W86591  26.411  17.535   0.261
21607W        W86592  25.430   9.196  14.615
21608W        W86593  11.513   4.668  13.937
21609W        W86594   5.637   8.693   0.348
21610W        W86595  43.866  43.804  12.397
21611W        W86596   6.911  21.094  12.070
21612W        W86597   6.410   9.295   2.860
21613W        W86598   9.809  26.385  12.045
21614W        W86599  10.482  25.059  14.016
21615W        W86600  37.783  10.087  12.455
21616W        W86601  14.112  22.577   0.310
21617W        W86602  29.386  33.617  13.000
21618W        W86603  27.969  41.499  12.215
21619W        W86604  35.872  15.075   1.342
21620W        W86605  32.864  20.464   4.559
21621W        W86606  34.955  30.072   2.142
21622W        W86607  32.401  41.308  14.971
21623W        W86608  34.972  11.681   0.780
21624W        W86609  26.455   1.906  14.428
21625W        W86610  38.080  44.561   1.354
21626W        W86611  29.967  42.679   3.857
21627W        W86612  42.037  11.594  10.611
21628W        W86613   4.801  10.916  14.935
21629W        W86614  24.091  37.352  14.832
21630W        W86615  17.685   2.944  12.648
21631W        W86616  15.388  31.486  12.670
21632W        W86617  33.542  39.087  14.844
21633W        W86618  19.631  42.651   0.566
21634W        W86619  12.006  29.982   3.256
21635W        W86620   2.332   8.867   4.551
21636W        W86621  38.602   3.939  12.425
21637W        W86622  44.000  33.402  11.709
21638W        W86623  24.036  22.632   0.024
21639W        W86624  36.624  24.881   4.116
21640W        W86625   1.199  41.479  11.487
21641W        W86626  44.002  11.396  13.918
21642W        W86627  43.847  44.790   0.041
21643W        W86628  26.124   1.412  12.378
21644W        W86629   9.399   6.434  14.590
21645W        W86630  21.253   3.922  11.178
21646W        W86631  24.805   1.413  13.435
21647W        W86632  36.400   6.664   1.308
21648W        W86633  44.433  31.881  14.027
21649W        W86634  25.495  15.515   0.441
21650W        W86635   4.225  31.548  11.463
21651W        W86636  36.499  18.105  10.746
21652W        W86637   5.411   3.428   2.655
21653W        W86638  26.457  28.995   5.498
21654W        W86639  38.720   0.769   4.478
21655W        W86640  30.127   3.432   2.140
21656W        W86641  43.239  38.938  12.032
21657W        W86642  14.107  40.517  13.598
21658W        W86643  43.491  19.738  13.835
21659W        W86644  26.112   3.829   0.475
21660W        W86645   9.938  43.834   1.377
21661W        W86646  27.987   3.360   2.751
21662W        W86647  22.247  28.471   2.793
21663W        W86648  32.569  41.438   0.436
21664W        W86649   1.421  33.091  13.862
21665W        W86650  18.369  13.760   4.067
21666W        W86651  24.517  41.834   3.026
21667W        W86652  12.865  27.727   2.913
21668W        W86653  41.816   8.324   1.019
21669W        W86654   6.222  18.166  11.616
21670W        W86655   4.600   8.378   1.606
21671W        W86656  33.025  39.103  13.979
21672W        W86657  25.914  44.015   0.761
21673W        W86658  43.086  26.031   4.949
21674W        W86659  39.451   5.301  10.836
21675W        W86660  24.755  15.128   4.844
21676W        W86661  14.658   5.361  13.858
21677W        W86662  11.800  29.023   2.307
21678W        W86663  35.392   3.164   3.185
21679W        W86664  27.411  13.041   3.245
21680W        W86665  18.072  37.481   1.693
21681W        W86666  18.554  32.583  14.514
21682W        W86667  25.089  17.220  14.035
21683W        W86668  14.463   4.870  13.945
21684W        W86669  26.054  26.581   1.724
21685W        W86670  30.953  37.935   0.309
21686W        W86671  39.526   4.581   2.248
21687W        W86672  41.401   4.868   0.012
21688W        W86673  43.444  36.412  13.900
21689W        W86674  24.016  35.104   0.825
21690W        W86675   5.921  38.038   1.205
21691W        W86676  32.807   1.558  14.397
21692W        W86677  34.618  40.016   0.067
21693W        W86678  41.394  21.611  10.676
21694W        W86679  13.771  33.496  14.760
21695W        W86680  38.870  10.744   1.861
21696W        W86681  26.510  43.447  13.385
21697W        W86682  40.911  25.665   2.300
21698W        W86683  40.129  43.666  11.503
21699W        W86684  16.434   2.903  14.773
21700W        W86685  31.201  25.045  12.813
21701W        W86686   2.976   8.895   3.276
21702W        W86687  30.963  21.168  13.866
21703W        W86688  28.136  29.739   2.763
21704W        W86689  23.452  24.140  11.962
21705W        W86690  35.872   4.683   2.688
21706W        W86691   4.299  13.690  11.206
21707W        W86692  41.365   5.882  12.221
21708W        W86693  19.650  35.199   0.929
21709W        W86694  36.015  17.382   3.455
21710W        W86695  39.946  21.204  11.572
21711W        W86696  43.893  31.707  12.466
21712W        W86697  40.360  19.120   2.187
21713W        W86698   6.974  22.429   2.168
21714W        W86699  27.921  13.298  13.933
21715W        W86700  42.888   4.648  13.033
21716W        W86701  19.380  15.666   2.722
21717W        W86702   7.302   7.685  14.048
21718W        W86703   7.424   3.759  13.489
21719W        W86704  18.721  26.221   2.345
21720W        W86705  23.158  10.268  11.158
21721W        W86706   5.627  30.315   4.689
21722W        W86707   3.541   0.463   2.249
21723W        W86708  16.386  37.763  10.454
21724W        W86709  23.654   1.661  10.093
21725W        W86710  37.383  38.070   3.882
21726W        W86711  40.472   0.600   1.233
21727W        W86712   7.328  41.411   2.730
21728W        W86713  28.383  24.212  11.098
21729W        W86714  20.204  37.555   3.386
21730W        W86715  30.740  23.308   0.350
21731W        W86716  30.043  22.517   1.309
21732W        W86717   8.905   4.189   2.664
21733W        W86718  22.911  36.848   2.975
21734W        W86719  35.102   9.855  14.906
21735W        W86720  18.757  37.747  11.176
21736W        W86721   3.792   4.682  11.625
21737W        W86722  21.121  16.094   0.205
21738W        W86723  21.169   9.796  11.028
21739W        W86724   2.098  21.969   3.847
21740W        W86725  21.275  26.216  10.055
21741W        W86726  18.499  14.279  14.882
21742W        W86727  39.029  10.906   4.061
21743W        W86728  14.613   6.959  11.116
21744W        W86729  38.568  33.617  11.790
21745W        W86730  26.611  36.660  12.670
21746W        W86731   0.390  40.484   1.057
21747W        W86732   2.566   1.995  14.772
21748W        W86733  20.518  29.373   4.558
21749W        W86734  12.637  12.210   3.533
21750W        W86735  18.612  44.990  14.191
21751W        W86736  33.576  27.869  13.480
21752W        W86737  37.076   3.341  14.525
21753W        W86738  12.394  21.293   0.829
21754W        W86739  38.570  28.230   2.789
21755W        W86740  20.130  41.747  12.194
21756W        W86741   4.008   9.789  10.779
21757W        W86742  37.936  24.348   3.399
21758W        W86743  11.363   6.921   5.070
21759W        W86744  37.417  19.962   1.748
21760W        W86745  20.833  18.386  10.656
21761W        W86746  19.037  13.156   3.749
21762W        W86747  34.370  43.057   4.951
21763W        W86748  17.243  38.942   4.212
21764W        W86749  31.091  17.074   3.638
21765W        W86750  10.242  16.287  11.200
21766W        W86751   2.013  22.088  13.320
21767W        W86752  36.508  34.481   1.910
21768W        W86753  31.717  26.170   3.622
21769W        W86754  24.703  36.110  12.955
21770W        W86755   7.657  11.537  12.577
21771W        W86756  40.578   8.779  14.484
21772W        W86757  28.040  24.403  13.937
21773W        W86758  33.408  21.498  14.048
21774W        W86759  22.566  33.669   0.980
21775W        W86760  26.994  19.456  10.689
21776W        W86761  35.069  28.223   1.297
21777W        W86762  12.100  39.730  12.846
21778W        W86763  21.644   6.385  13.272
21779W        W86764   4.051  28.669   1.388
21780W        W86765  18.001  41.942  11.657
21781W        W86766  20.647  15.884   0.928
21782W        W86767   4.683  43.730   3.032
21783W        W86768  11.434   1.077  11.757
21784W        W86769  39.553  10.096  13.832
21785W        W86770  37.895  20.283   2.894
21786W        W86771  12.281  28.997   3.995
21787W        W86772  20.763  42.873   0.395
21788W        W86773  25.485  24.002   1.350
21789W        W86774  37.626  43.363   2.606
21790W        W86775  23.247   7.369  11.204
21791W        W86776   5.619   8.262   1.627
21792W        W86777  11.134  22.574   2.308
21793W        W86778   3.488  17.594  10.919
21794W        W86779  37.344  18.393   2.947
21795W        W86780  43.943  21.311   4.320
21796W        W86781  17.254   1.696   2.344
21797W        W86782  16.989   6.256   3.841
21798W        W86783  24.744  27.111  12.396
21799W        W86784  37.623  38.880  11.517
21800W        W86785  39.564  19.285  12.916
21801W        W86786  40.753  42.434  12.510
21802W        W86787  17.776  23.957   3.934
21803W        W86788  33.353  26.963  12.000
21804W        W86789  34.996  30.264   1.651
21805W        W86790  22.486  31.824   0.349
21806W        W86791   6.894  13.117   0.650
21807W        W86792  36.565  29.506   1.719
21808W        W86793   2.133  19.813  11.117
21809W        W86794  20.162   1.007  13.910
21810W        W86795  35.968   2.183   0.961
21811W        W86796  36.979  21.138  11.531
21812W        W86797  11.189  14.027  12.901
21813W        W86798  43.880  15.914  13.448
21814W        W86799  24.145  12.081   3.601
21815W        W86800  14.403  38.832   2.489
21816W        W86801  26.651   3.937  13.254
21817W        W86802  17.784  31.675   3.134
21818W        W86803  21.248  14.647   1.756
21819W        W86804  35.575  38.929   4.725
21820W        W86805   9.937  15.824   2.674
21821W        W86806  16.238  44.394   1.388
21822W        W86807  36.076  24.173   4.225
21823W        W86808  29.116  24.465  13.526
21824W        W86809  42.049  28.398   4.561
21825W        W86810  24.179  15.870   4.150
21826W        W86811  34.499  35.908  14.612
21827W        W86812   2.416  13.253   0.729
21828W        W86813   4.759  39.996  13.738
21829W        W86814   6.792  35.928   0.442
21830W        W86815  14.740  31.693   1.467
21831W        W86816   4.926  36.910  10.634
21832W        W86817   9.832  42.362   0.980
21833W        W86818  14.179  19.261  14.494
21834W        W86819   5.437   0.847  14.842
21835W        W86820   5.985  27.870  12.955
21836W        W86821  26.587  40.274   2.282
21837W        W86822  16.314  28.323   4.470
21838W        W86823  11.815   5.864   0.103
21839W        W86824  30.428  13.195   0.741
21840W        W86825  33.302  13.313   3.721
21841W        W86826   7.455  37.046   2.836
21842W        W86827  30.953  31.848   3.787
21843W        W86828   5.765  29.597   4.195
21844W        W86829  29.164   4.456   0.482
21845W        W86830  16.262   0.831  12.912
21846W        W86831  31.081  22.736   2.218
21847W        W86832  44.416  28.069   2.788
21848W        W86833  43.520  44.783  10.881
21849W        W86834  24.589  30.302  11.668
21850W        W86835  33.548  24.148  13.774
21851W        W86836  19.996   0.298   4.428
21852W        W86837  19.152  16.226  12.210
21853W        W86838  20.988  25.730   1.996
21854W        W86839  12.588  39.459  14.912
21855W        W86840  43.051  34.264  12.540
21856W        W86841  22.917   4.254   4.244
21857W        W86842  23.267  33.730  10.594
21858W        W86843  12.551   0.416  13.815
21859W        W86844  25.008   7.939   3.123
21860W        W86845  19.715  38.313  14.521
21861W        W86846  18.120   0.487   0.723
21862W        W86847  12.811  15.181   3.264
21863W        W86848  40.512   8.759   0.863
21864W        W86849   6.954  35.647  10.447
21865W        W86850  39.787  39.499  12.543
21866W        W86851  22.352  27.079   3.271
21867W        W86852  39.539  26.939  12.404
21868W        W86853  30.529  34.456  12.344
21869W        W86854  14.239  16.798  11.974
21870W        W86855  11.709  13.421  12.076
21871W        W86856   4.973  10.543  13.012
21872W        W86857  43.700  28.916  14.081
21873W        W86858  33.842  25.980  11.576
21874W        W86859  16.171  17.046  11.041
21875W        W86860  11.772  27.517   4.593
21876W        W86861  44.338  25.133   2.293
21877W        W86862  23.005  36.112   1.672
21878W        W86863  24.865   1.368   2.670
21879W        W86864  19.618   3.861  14.616
21880W        W86865   9.272  11.954  10.274
21881W        W86866  40.051  37.459   2.639
21882W        W86867  19.148  20.425  14.125
21883W        W86868  34.436   6.264   4.246
21884W        W86869   7.802  10.503   4.668
21885W        W86870  21.201  25.725   4.160
21886W        W86871  22.285  43.492   4.546
21887W        W86872  29.058  21.199  12.978
21888W        W86873  19.890  13.180  13.076
21889W        W86874  16.847  29.680   2.630
21890W        W86875  38.889  19.504  14.313
21891W        W86876  24.012  27.574  11.497
21892W        W86877   8.217  15.825   3.321
21893W        W86878  19.769  13.658   3.133
21894W        W86879   9.561  31.558   1.952
21895W        W86880  27.129  20.741  12.505
21896W        W86881   6.730  43.854  12.375
21897W        W86882  15.268  14.059  10.665
21898W        W86883   2.524  30.559  10.928
21899W        W86884  10.818  32.195   4.548
21900W        W86885   9.868  18.623  11.187
21901W        W86886  15.140  12.317  11.187
21902W        W86887  23.146   4.474  11.285
21903W        W86888   2.317  14.044   4.598
21904W        W86889  30.653  18.533  13.503
21905W        W86890  41.109  37.861   4.806
21906W        W86891   2.903   9.699   1.258
21907W        W86892  19.963  17.682   4.447
21908W        W86893  30.008  41.462   2.341
21909W        W86894  13.533  27.454   1.242
21910W        W86895  34.451  11.322   0.055
21911W        W86896  40.915  30.061   5.519
21912W        W86897   0.347   6.424  11.552
21913W        W86898   9.677  33.887  13.060
21914W        W86899  15.483  34.235   0.905
21915W        W86900  35.996  22.120  14.304
21916W        W86901  15.587  15.640  12.041
21917W        W86902  41.957  22.911   4.188
21918W        W86903  13.803  33.831   3.797
21919W        W86904  14.224  43.754   1.335
21920W        W86905  26.406  19.760  13.028
21921W        W86906   1.942  26.576  10.875
21922W        W86907  32.204   4.514   4.017
21923W        W86908   4.865   3.396   1.882
21924W        W86909   6.435  32.576   0.265
21925W        W86910   3.481   3.950   2.325
21926W        W86911  22.658   1.382   3.890
21927W        W86912  39.340  13.120  12.082
21928W        W86913   1.876  19.969  13.528
21929W        W86914  23.534  18.107  11.430
21930W        W86915  24.509   5.977  11.557
21931W        W86916  27.781  21.133   2.193
21932W        W86917  34.925  32.027  10.752
21933W        W86918  29.106  26.509   1.838
21934W        W86919  15.811   4.892  13.421
21935W        W86920  28.675   1.616   5.352
21936W        W86921  22.542  31.652   3.306
21937W        W86922   6.206   5.164   1.383
21938W        W86923  31.926  27.115  13.502
21939W        W86924  24.157  35.500  11.054
21940W        W86925  19.326  19.322   1.636
21941W        W86926  20.687  18.514   2.728
21942W        W86927  41.348  28.953   3.524
21943W        W86928  29.739   2.348   5.131
21944W        W86929  17.625  16.250   2.308
21945W        W86930  40.188  27.486   1.283
21946W        W86931  41.419  38.433   3.006
21947W        W86932  31.268  30.813   2.838
21948W        W86933  12.061   0.546  13.627
21949W        W86934  20.052   4.943  12.335
21950W        W86935  31.384  23.026   3.792
21951W        W86936  24.244  11.071   4.709
21952W        W86937  26.501  20.137   1.734
21953W        W86938  43.775  24.731  11.039
21954W        W86939  29.888  33.260   1.661
21955W        W86940  31.680   3.572   1.038
21956W        W86941  38.439  13.417   1.097
21957W        W86942   4.084  15.669  10.207
21958W        W86943  10.135   1.370  14.981
21959W        W86944  41.039  22.338   4.994
21960W        W86945  29.675  21.113  10.535
21961W        W86946  17.106  14.848   4.635
21962W        W86947  39.866  19.275   2.209
21963W        W86948   4.011  20.218   1.169
21964W        W86949  28.135  42.376  14.091
21965W        W86950  38.634   1.306  12.835
21966W        W86951   4.780  30.455  11.640
21967W        W86952  42.051   5.386  12.411
21968W        W86953  16.258  29.856   3.563
21969W        W86954  44.796  23.035  14.391
21970W        W86955  39.217  36.353   0.220
21971W        W86956  42.509  23.254  13.022
21972W        W86957  39.345  36.500  14.355
21973W        W86958  14.333  42.859  13.543
21974W        W86959  14.332  29.617  11.992
21975W        W86960  43.656   7.877   1.992
21976W        W86961  29.501  23.578   0.238
21977W        W86962  39.785  31.086   1.286
21978W        W86963  31.959  15.981  12.061
21979W        W86964  33.006  15.095  12.666
21980W        W86965   7.719   5.769   2.734
21981W        W86966  43.748  41.291   4.627
21982W        W86967  35.441  40.821   2.300
21983W        W86968   1.751  30.626   0.812
21984W        W86969  23.542  32.497   4.123
21985W        W86970  32.139  25.214  10.778
21986W        W86971  34.092   2.373   4.483
21987W        W86972   5.850   8.368   0.714
21988W        W86973   4.874  21.742  13.137
21989W        W86974   1.164  32.027  12.158
21990W        W86975  41.571  10.375  10.246
21991W        W86976  27.890  13.584  12.880
21992W        W86977  29.447   5.159  11.661
21993W        W86978  42.824  33.471  12.477
21994W        W86979   5.729  13.759  14.328
21995W        W86980  31.970  27.170   4.609
21996W        W86981  33.027  21.447   3.914
21997W        W86982   0.223  31.705   0.945
21998W        W86983  35.594  43.055  13.565
21999W        W86984  21.569  10.959  12.004
22000W        W86985  39.919   7.747  11.161
22001W        W86986   4.294  27.676  12.173
22002W        W86987  21.449  20.994  14.047
22003W        W86988  35.946  42.477  13.069
22004W        W86989   9.785  11.134   3.235
22005W        W86990  26.095  37.939  11.852
22006W        W86991  42.953  29.960  14.015
22007W        W86992  41.156  24.371   4.907
22008W        W86993  39.959  27.412   3.633
22009W        W86994  37.383  20.786  13.525
22010W        W86995  25.189  14.855   1.741
22011W        W86996  24.104   5.700   3.668
22012W        W86997  38.362  16.836  13.204
22013W        W86998  10.930  29.445   0.684
22014W        W86999  28.755  14.164   0.161
22015W        W87000  20.436  10.132  12.218
22016W        W87001  23.942  14.128   1.347
22017W        W87002  18.277  12.107   2.537
22018W        W87003  21.231  20.031  14.873
22019W        W87004  40.081  40.305   1.430
22020W        W87005  18.152  37.838   0.932
22021W        W87006  21.495   2.923   1.919
22022W        W87007  40.629  31.502  12.936
22023W        W87008   8.287  12.314  13.541
22024W        W87009  26.718   5.802   2.817
22025W        W87010  20.361  37.276   2.927
22026W        W87011  14.810   6.398   0.524
22027W        W87012  18.167  11.429  13.866
22028W        W87013  11.332  31.000  12.464
22029W        W87014  26.200   5.943   0.846
22030W        W87015  18.912   6.641  11.239
22031W        W87016  40.163   8.259  12.798
22032W        W87017  41.992  28.564  10.946
22033W        W87018  37.836  19.575  13.565
22034W        W87019  16.120  10.321  10.707
22035W        W87020  26.685  34.684  11.674
22036W        W87021   8.378   3.753   4.624
22037W        W87022  10.169  16.315   2.369
22038W        W87023  31.433  20.562  13.619
22039W        W87024   6.842  16.184   3.133
22040W        W87025  29.542  25.098  14.725
22041W        W87026  27.845  41.887   4.914
22042W        W87027  23.006  44.199  10.146
22043W        W87028  26.671  36.662   1.922
22044W        W87029  36.805  37.419  13.780
22045W        W87030  28.340  27.576  10.623
22046W        W87031  35.096  30.587   9.892
22047W        W87032  27.322  43.958   1.277
22048W        W87033  36.458  20.562  11.161
22049W        W87034  43.768   6.868  13.320
22050W        W87035  32.629  44.833   1.396
22051W        W87036  10.387  23.230  13.116
22052W        W87037  40.402  31.054  11.456
22053W        W87038  42.554   7.413  13.465
22054W        W87039   7.649  36.134   0.286
22055W        W87040  39.147   0.648   2.804
22056W        W87041  22.983  24.781   2.687
22057W        W87042   5.146  13.116  13.014
22058W        W87043  28.078  15.805  12.981
22059W        W87044  36.467   4.173   1.376
22060W        W87045  41.547   6.896  12.333
22061W        W87046  12.116  18.176  14.044
22062W        W87047  25.983  10.124  13.059
22063W        W87048   1.013  40.031   4.382
22064W        W87049  12.260   8.553  13.030
22065W        W87050  26.639  23.074  10.960
22066W        W87051  40.978   1.382  13.790
22067W        W87052  29.740  41.884  12.082
22068W        W87053  12.918  43.918  13.787
22069W        W87054  22.716  20.319  13.785
22070W        W87055  35.450   3.717   2.744
22071W        W87056   2.810  40.166   0.478
22072W        W87057   4.720  30.404   1.229
22073W        W87058  18.785  44.345   2.766
22074W        W87059   1.854  19.433  13.871
22075W        W87060  34.957  33.689  14.895
22076W        W87061  34.493  36.340   0.817
22077W        W87062   8.711   2.115  13.397
22078W        W87063  35.212   0.011  11.126
22079W        W87064  32.336  31.476   1.796
22080W        W87065   3.046  11.362  10.660
22081W        W87066  28.580  12.196   4.108
22082W        W87067  41.527  19.699  14.210
22083W        W87068  14.748  33.876   4.905
22084W        W87069  30.408  15.721   1.641
22085W        W87070   5.903  28.390  12.917
22086W        W87071  39.950  37.641  11.378
22087W        W87072  21.224  11.639   2.181
22088W        W87073  36.030  36.647   2.800
22089W        W87074   1.690  14.988  11.589
22090W        W87075  25.495  32.940   1.865
22091W        W87076  32.957  39.088   3.617
22092W        W87077  44.801  39.988   3.984
22093W        W87078  22.089  39.035   2.203
22094W        W87079  27.685  39.215  12.567
22095W        W87080  32.642   7.227   0.885
22096W        W87081  26.300  24.685   4.637
22097W        W87082  21.011  11.228   4.728
22098W        W87083  19.738  15.599   4.139
22099W        W87084   0.203  16.321   4.100
22100W        W87085  10.208  26.209  11.219
22101W        W87086   6.252  33.862   1.473
22102W        W87087  21.070  26.740   4.288
22103W        W87088  28.187  38.801  13.813
22104W        W87089  30.598  23.499   3.655
22105W        W87090  42.829  20.912  13.349
22106W        W87091  34.896  43.434   3.243
22107W        W87092  27.473  11.730  12.041
22108W        W87093  21.283  22.658   5.118
22109W        W87094  23.504   7.769   3.203
22110W        W87095  21.176  10.783  10.927
22111W        W87096   3.553  19.922   4.948
22112W        W87097  32.634  12.683   0.831
22113W        W87098  43.933   8.298   1.929
22114W        W87099  39.784  43.102   2.318
22115W        W87100  15.280  15.130   0.701
22116W        W87101  11.760  39.350   0.320
22117W        W87102  29.440  13.343  12.783
22118W        W87103  14.373  31.380   4.089
22119W        W87104   7.311   4.818   3.138
22120W        W87105  34.794   5.930  11.651
22121W        W87106   3.219  17.123   4.589
22122W        W87107  40.491  36.952   4.196
22123W        W87108  13.399  37.615   0.393
22124W        W87109  13.658  28.616  14.847
22125W        W87110  19.868   6.559  12.037
22126W        W87111  24.599  44.971   0.309
22127W        W87112   3.839  17.733  14.897
22128W        W87113  40.757  35.464  12.071
22129W        W87114  28.866  22.941  13.554
22130W        W87115  29.621  23.714   2.302
22131W        W87116  38.483  19.239  14.526
22132W        W87117  20.489  27.968  13.085
22133W        W87118   2.643   5.531  12.916
22134W        W87119  21.555  27.636  13.342
22135W        W87120  17.658  27.486  13.841
22136W        W87121   1.851   6.836  12.855
22137W        W87122  26.804  28.694  11.087
22138W        W87123  13.843  43.224  11.435
22139W        W87124   0.546  39.805   2.752
22140W        W87125   7.621   2.897   2.128
22141W        W87126   1.450  41.331   4.175
22142W        W87127  13.795  23.917   0.367
22143W        W87128  41.908  18.810  13.441
22144W        W87129  32.498  11.362  13.958
22145W        W87130  23.531  21.609   3.653
22146W        W87131  22.102  12.559   0.801
22147W        W87132  28.120   7.444   4.215
22148W        W87133  14.293  23.817  11.192
22149W        W87134  33.883  37.342   4.598
22150W        W87135  31.201  21.549  13.581
22151W        W87136  43.790   3.014  12.104
22152W        W87137   9.668  25.766   2.669
22153W        W87138  35.916  27.558  13.010
22154W        W87139   7.664  32.018  12.416
22155W        W87140  25.106  19.577   2.327
22156W        W87141  32.541  30.674  12.025
22157W        W87142  18.343   7.776  13.481
22158W        W87143  10.827  27.501  12.609
22159W        W87144   4.270  39.429   0.069
22160W        W87145  30.291  15.837  10.917
22161W        W87146  17.882  16.677   2.154
22162W        W87147   9.778  25.449   0.432
22163W        W87148  22.282  18.500  13.932
22164W        W87149  28.055  25.644   4.189
22165W        W87150  43.852   2.227  13.853
22166W        W87151  42.346  28.122  12.059
22167W        W87152   2.834   5.119  14.455
22168W        W87153  16.635  36.498  13.528
22169W        W87154  10.078  28.896  12.615
22170W        W87155  39.029  23.248   0.077
22171W        W87156  40.503  21.511   0.531
22172W        W87157  40.551  29.006   0.405
22173W        W87158  36.578  33.128   3.174
22174W        W87159  24.824  16.301   2.872
22175W        W87160   7.912  17.712   4.326
22176W        W87161   7.762  32.391   1.357
22177W        W87162  41.264  19.091   1.616
22178W        W87163  43.233   4.688  13.406
22179W        W87164  35.078  14.574   0.776
22180W        W87165  32.404  42.414  13.508
22181W        W87166  27.669  33.185   0.514
22182W        W87167   3.302  22.728   2.467
22183W        W87168  27.697  36.000  10.748
22184W        W87169   7.723  39.065   3.871
22185W        W87170  20.583  12.170   4.255
22186W        W87171  40.888  11.790   4.101
22187W        W87172  41.137  44.988   1.814
22188W        W87173  20.196   3.202  14.325
22189W        W87174  22.544  43.788   0.949
22190W        W87175  12.639  37.604   3.664
22191W        W87176  17.714  26.925  12.175
22192W        W87177  28.190  19.017   2.736
22193W        W87178  26.209  34.114  11.567
22194W        W87179  31.981   6.367   4.531
22195W        W87180  44.272  44.500  12.473
22196W        W87181  26.506  30.642   0.029
22197W        W87182  32.652  31.688  14.461
22198W        W87183  21.989  29.064  13.122
22199W        W87184  10.222   2.158   3.598
22200W        W87185  28.833  18.333  14.350
22201W        W87186  31.528  43.316  13.847
22202W        W87187   1.230  44.584   1.490
22203W        W87188  42.844  19.021   5.155
22204W        W87189  10.046  39.739   3.588
22205W        W87190  26.056  21.688  12.449
22206W        W87191  34.980  21.096   2.095
22207W        W87192  10.721  16.522  12.399
22208W        W87193   7.431  12.316  13.154
22209W        W87194  28.098   4.521  12.881
22210W        W87195  26.687   6.495  12.936
22211W        W87196   1.720  27.486   0.252
22212W        W87197  37.310  21.511   0.928
22213W        W87198  31.338  26.552   3.858
22214W        W87199  44.238   0.833  11.161
22215W        W87200  33.512  24.147  13.261
22216W        W87201  41.861  28.425  14.960
22217W        W87202  25.607  28.623  13.812
22218W        W87203   2.454  29.059   3.753
22219W        W87204  30.679   1.910   2.824
22220W        W87205   6.602  11.111   2.699
22221W        W87206   5.223  17.940   3.054
22222W        W87207  22.736  43.843  11.553
22223W        W87208  44.234  24.594  13.167
22224W        W87209   0.156  43.881   3.229
22225W        W87210  10.727  20.789  12.455
22226W        W87211  21.734  21.732  11.692
22227W        W87212   8.652  40.079   0.638
22228W        W87213  12.774   7.844   3.237
22229W        W87214  43.286  37.982  12.014
22230W        W87215  18.044  13.784   4.481
22231W        W87216  41.712  23.083  11.869
22232W        W87217  19.340  33.551   4.255
22233W        W87218  21.111   3.635  10.407
22234W        W87219   5.166   0.660  12.066
22235W        W87220  14.220  30.578  11.835
22236W        W87221  38.449  24.039  11.812
22237W        W87222  43.251  25.157  11.568
22238W        W87223  19.689  33.672   3.351
22239W        W87224  34.650   6.028   3.448
22240W        W87225  20.587  19.274  12.544
22241W        W87226  15.123  26.806  12.436
22242W        W87227  10.748   9.635  13.998
22243W        W87228  22.162  31.421  14.332
22244W        W87229  34.279  34.416   2.735
22245W        W87230   1.300  23.008   1.265
22246W        W87231  15.035  13.674   1.906
22247W        W87232   4.492  41.374   3.292
22248W        W87233   9.991  13.446  14.577
22249W        W87234  22.933  20.081  12.974
22250W        W87235  20.580  33.869  13.376
22251W        W87236  36.055   9.774  14.956
22252W        W87237  21.110  10.530  14.733
22253W        W87238  11.192   4.787   1.872
22254W        W87239  39.403  34.088  12.161
22255W        W87240  24.770  33.957  13.098
22256W        W87241   7.612  43.390  10.872
22257W        W87242  34.568   4.337   4.134
22258W        W87243  24.752  14.064   0.930
22259W        W87244   2.039  37.970   4.398
22260W        W87245  22.952  38.824   3.317
22261W        W87246  10.781  17.971  13.757
22262W        W87247  41.153  19.637   3.518
22263W        W87248  24.119  26.198   2.013
22264W        W87249  37.107  10.197  14.116
22265W        W87250  20.861   1.244  12.597
22266W        W87251  25.588  39.275   1.162
22267W        W87252   3.880  10.249  11.084
22268W        W87253  24.631  10.564   0.341
22269W        W87254  41.676   3.307   2.881
22270W        W87255  24.896  42.837   1.113
22271W        W87256  17.714  11.197   0.899
22272W        W87257  36.383  11.722   0.384
22273W        W87258   4.702  44.902   4.825
22274W        W87259  33.330  10.013  10.353
22275W        W87260  11.205  24.389   0.927
22276W        W87261   4.631   0.988   4.709
22277W        W87262   9.195  38.260  14.889
22278W        W87263  30.362  40.420   2.711
22279W        W87264   9.120  14.787  10.703
22280W        W87265   6.223  35.002   2.362
22281W        W87266  41.795  12.904   3.780
22282W        W87267  27.562   5.948   1.857
22283W        W87268   4.923  44.933   3.117
22284W        W87269  35.880  34.133   4.227
22285W        W87270   6.748  38.771   2.375
22286W        W87271  23.077  31.905   2.178
22287W        W87272  14.062  29.013  13.597
22288W        W87273  30.073  25.884  13.424
22289W        W87274  37.616  32.918   0.465
22290W        W87275  24.087  31.550   3.515
22291W        W87276   6.669  42.027  12.026
22292W        W87277  17.478   3.420  12.979
22293W        W87278  44.616   4.847  13.111
22294W        W87279  19.356   3.531  14.247
22295W        W87280  22.307  30.430   1.865
22296W        W87281  12.604   1.452   4.892
22297W        W87282  41.254  13.324  12.888
22298W        W87283  12.341  42.750   0.988
22299W        W87284  13.400  34.930  11.933
22300W        W87285  31.459  37.880   0.376
22301W        W87286   5.292  39.973  13.637
22302W        W87287   8.740  18.109   2.962
22303W        W87288   5.596  12.398  13.924
22304W        W87289  30.988  16.315  14.430
22305W        W87290  23.752  43.366  14.899
22306W        W87291   6.762  13.337  10.740
22307W        W87292  24.557  39.002   1.964
22308W        W87293   7.781  33.699  12.004
22309W        W87294   2.859   6.929   4.297
22310W        W87295  22.156  38.004  10.694
22311W        W87296  42.946  26.720  14.955
22312W        W87297  16.236  26.126  13.572
22313W        W87298  43.726  17.117  12.380
22314W        W87299  35.609  12.548   3.658
22315W        W87300  24.489  17.009  12.970
22316W        W87301  12.146  39.686   1.743
22317W        W87302   8.384  10.870  11.509
22318W        W87303  11.337   3.381  12.641
22319W        W87304  35.649  32.628  10.424
22320W        W87305  39.920  13.375   4.908
22321W        W87306  36.454   2.771  13.514
22322W        W87307   6.406  37.441  13.691
22323W        W87308  25.047  15.275  14.399
22324W        W87309   0.963  15.535  11.480
22325W        W87310  20.634  42.995   5.101
22326W        W87311  22.105   6.885   4.576
22327W        W87312  28.069  27.392  13.027
22328W        W87313  11.869  11.677   3.321
22329W        W87314  34.018  37.057   0.437
22330W        W87315  43.493  44.804   2.305
22331W        W87316   9.905  44.980  12.121
22332W        W87317  15.287   8.421   2.706
22333W        W87318   1.762   0.457  10.696
22334W        W87319   7.017  15.259  12.018
22335W        W87320  21.618   7.757  13.266
22336W        W87321  15.255  41.500   0.869
22337W        W87322  26.187  28.882   3.046
22338W        W87323   7.314  36.625   1.775
22339W        W87324   1.304  11.710  14.095
22340W        W87325  16.621   2.002  11.388
22341W        W87326  36.386   0.864   3.275
22342W        W87327  27.665   6.666  14.767
22343W        W87328   6.426  28.050   1.696
22344W        W87329  44.002   4.388   2.209
22345W        W87330   5.777  40.167  13.548
22346W        W87331  13.699  41.835   4.325
22347W        W87332  36.892  15.741  10.659
22348W        W87333  39.848   8.512   1.187
22349W        W87334  12.225  38.883  14.940
22350W        W87335  30.621  18.080   4.190
22351W        W87336  35.588   1.319   3.121
22352W        W87337   5.248  25.800  14.806
22353W        W87338  38.989   2.934  10.783
22354W        W87339  16.840  43.868   4.737
22355W        W87340   2.228  17.698   1.466
22356W        W87341  36.945  31.090   0.918
22357W        W87342  30.146  41.658  11.871
22358W        W87343   5.005  10.793  14.470
22359W        W87344  17.686  24.930  14.534
22360W        W87345   3.871   2.451  12.455
22361W        W87346  24.057   7.217   3.694
22362W        W87347   4.970  19.538  10.989
22363W        W87348  11.209  18.716  12.665
22364W        W87349  13.028  15.675  12.347
22365W        W87350  21.375  43.211   2.288
22366W        W87351   8.875  31.511  10.945
22367W        W87352  31.518  19.973  10.663
22368W        W87353  18.002  11.253  10.686
22369W        W87354  30.529  28.098   3.786
22370W        W87355  35.929  32.362  14.354
22371W        W87356   7.864   0.647   1.312
22372W        W87357  21.809  29.889   2.925
22373W        W87358  41.006   1.389  11.538
22374W        W87359  40.301  38.002   2.516
22375W        W87360  11.124   3.759   1.972
22376W        W87361   6.232   6.761   1.654
22377W        W87362  37.657  33.271  11.877
22378W        W87363   3.723  43.131   1.694
22379W        W87364  42.592   6.491  12.694
22380W        W87365   0.634  41.957   1.299
22381W        W87366  14.016   7.177   2.941
22382W        W87367  24.256  28.040  11.622
22383W        W87368   6.378  27.956   3.235
22384W        W87369  17.632  43.824  13.596
22385W        W87370  24.712   8.988   1.471
22386W        W87371  43.816   2.446   0.777
22387W        W87372  30.343   2.884   4.055
22388W        W87373  44.703  18.607  12.609
22389W        W87374   7.902   7.580  12.777
22390W        W87375   0.055  18.808   4.142
22391W        W87376  25.225  17.663  10.732
22392W        W87377  42.062   2.398   2.304
22393W        W87378  12.456   6.422  13.431
22394W        W87379  32.839  11.419   2.937
22395W        W87380  29.158  14.884  13.470
22396W        W87381  41.861   9.792   2.911
22397W        W87382  28.127  39.332  14.430
22398W        W87383  18.151   2.909   2.913
22399W        W87384   6.288  13.799  13.446
22400W        W87385  26.148  40.290  14.068
22401W        W87386  30.429  29.506   4.145
22402W        W87387   6.974  39.478   4.180
22403W        W87388  11.138  11.480  11.242
22404W        W87389  15.105  42.715  14.743
22405W        W87390  40.789  12.150   0.730
22406W        W87391  26.969  44.454   4.544
22407W        W87392  33.560  19.664  14.565
22408W        W87393  32.855  18.606  14.417
22409W        W87394  44.244  21.001   3.151
22410W        W87395  22.264  31.991  11.691
22411W        W87396  15.701  14.642  11.198
22412W        W87397   5.356   8.868   5.038
22413W        W87398  34.043  35.386   3.750
22414W        W87399  36.496  44.858  11.503
22415W        W87400  22.913  14.715  13.858
22416W        W87401   4.264  38.588   3.221
22417W        W87402  25.569  20.431  14.256
22418W        W87403  39.325  26.582   3.455
22419W        W87404  42.515  36.501   1.181
22420W        W87405  40.027  14.381  14.452
22421W        W87406  29.095  35.497   3.561
22422W        W87407  41.250  18.829  11.698
22423W        W87408   9.007  27.183  11.049
22424W        W87409  29.579  35.655  11.529
22425W        W87410  16.212  37.597   3.172
22426W        W87411  18.199  23.060  13.567
22427W        W87412  15.212  11.831   3.368
22428W        W87413  43.893  29.634  11.569
22429W        W87414   5.620  21.287   0.746
22430W        W87415   3.534  41.675  11.108
22431W        W87416   9.291  42.791   2.402
22432W        W87417  36.125  22.218   2.098
22433W        W87418  19.697  25.090  14.697
22434W        W87419  32.383   0.505  11.503
22435W        W87420  12.742   1.787  10.724
22436W        W87421  37.950  33.846   4.312
22437W        W87422  22.617   9.620   1.537
22438W        W87423  10.747   8.478   1.903
22439W        W87424  20.197  17.048   1.201
22440W        W87425  38.074  38.003  13.771
22441W        W87426  36.983  22.778  11.200
22442W        W87427  33.002  40.769   2.991
22443W        W87428   3.884   2.965  12.344
22444W        W87429   1.387  32.685   1.323
22445W        W87430  41.353  18.619   1.392
22446W        W87431  41.817  36.058  13.234
22447W        W87432  15.991  42.134   2.395
22448W        W87433  30.934  30.809   3.737
22449W        W87434  41.971  19.110   2.751
22450W        W87435  34.291  21.219  12.395
22451W        W87436  21.019  16.078  10.940
22452W        W87437  26.343  23.644  12.938
22453W        W87438   3.084  44.773  11.210
22454W        W87439  40.323  26.904  13.904
22455W        W87440  14.716   0.326   3.239
22456W        W87441   3.406   9.950   1.167
22457W        W87442   6.228  13.300   2.392
22458W        W87443   9.895  17.177  14.403
22459W        W87444  41.094  33.080   4.661
22460W        W87445  34.771  26.858  14.380
22461W        W87446  12.315   1.379  12.070
22462W        W87447   3.554  29.464  14.925
22463W        W87448  22.299   9.977   2.716
22464W        W87449   8.235  19.104  14.251
22465W        W87450  36.020  21.162  10.157
22466W        W87451  23.023  36.326   4.225
22467W        W87452  43.552   1.967   3.776
22468W        W87453  17.552   9.180   2.616
22469W        W87454  18.364   9.157  13.778
22470W        W87455  17.060  27.604   2.664
22471W        W87456  28.840   2.500   0.254
22472W        W87457   9.204   0.962  12.363
22473W        W87458   8.530  30.619   0.426
22474W        W87459  40.408   8.239   0.396
22475W        W87460  14.111  12.037  11.247
22476W        W87461   0.338  35.335   4.690
22477W        W87462   2.407  35.132   3.541
22478W        W87463   2.785  19.239   2.376
22479W        W87464  41.003  12.742   3.697
22480W        W87465  21.709  36.908   2.014
22481W        W87466  34.471  13.656   1.643
22482W        W87467  15.117  24.506  12.439
22483W        W87468  28.781  20.215   1.747
22484W        W87469  28.067  22.211   4.565
22485W        W87470  16.554   0.119   0.735
22486W        W87471  14.272  22.001   2.276
22487W        W87472  17.249   8.084  14.945
22488W        W87473  40.014  25.159   1.495
22489W        W87474   9.006   7.726  13.398
22490W        W87475  22.825  44.772  11.587
22491W        W87476  25.753  38.416   3.107
22492W        W87477   5.591   5.697   1.509
22493W        W87478  36.081  17.302   3.953
22494W        W87479   0.201  25.508   4.658
22495W        W87480   0.520  30.028   4.532
22496W        W87481   7.377  16.805   0.690
22497W        W87482  20.475  12.224   4.771
22498W        W87483  32.674  17.722  13.901
22499W        W87484  22.565  40.249   1.581
22500W        W87485   1.473  20.781   0.142
22501W        W87486  28.101   6.350  14.786
22502W        W87487  22.188  26.966   1.781
22503W        W87488  43.918  37.256   4.209
22504W        W87489   7.193  32.171  10.841
22505W        W87490  31.463   2.182   2.130
22506W        W87491   6.664  36.301   4.238
22507W        W87492  36.627  10.749   2.767
22508W        W87493  25.995  41.525   4.418
22509W        W87494  29.502   7.815  14.542
22510W        W87495  38.375  36.811   4.271
22511W        W87496  13.115  33.226   1.894
22512W        W87497  15.263  44.159  12.929
22513W        W87498  21.202  26.474  11.561
22514W        W87499  30.182  13.719   2.293
22515W        W87500  23.002   4.837  13.358
22516W        W87501  26.865  39.832  14.485
22517W        W87502  36.957  11.978   1.549
22518W        W87503  15.176  44.722   3.744
22519W        W87504  25.915  20.130  12.204
22520W        W87505   3.909  13.213  12.229
22521W        W87506  33.125   3.365  12.482
22522W        W87507   9.930  14.613  10.425
22523W        W87508  23.671  13.921   2.589
22524W        W87509  29.691  12.986   0.072
22525W        W87510  10.421  44.178   2.434
22526W        W87511  39.916  44.995  14.738
22527W        W87512   4.809   4.829   0.413
22528W        W87513  10.160  33.490   0.350
22529W        W87514  38.866  18.848   1.212
22530W        W87515   1.852   6.659  11.562
22531W        W87516  21.070  36.144   1.385
22532W        W87517  16.768  10.303   2.306
22533W        W87518  29.790  28.842  11.639
22534W        W87519   8.080  25.741   4.595
22535W        W87520   1.858  44.252  10.826
22536W        W87521   2.995  14.084   4.362
22537W        W87522  29.721  19.031   1.236
22538W        W87523  33.488  23.596   2.607
22539W        W87524   7.364  37.417  12.691
22540W        W87525  10.622   6.777   4.572
22541W        W87526  33.695  25.200   0.948
22542W        W87527  20.544   6.806  10.658
22543W        W87528  30.608   3.860  13.341
22544W        W87529  33.486  34.006  14.728
22545W        W87530   6.556  17.145   1.738
22546W        W87531  29.827  44.434  10.819
22547W        W87532  42.226   4.325  11.680
22548W        W87533  22.966  26.846   4.054
22549W        W87534  16.487   5.910  14.327
22550W        W87535   5.205   4.972  10.408
22551W        W87536  13.345  28.186   0.887
22552W        W87537   3.006   0.868   3.334
22553W        W87538  43.034  13.919  11.970
22554W        W87539  22.632   1.933   0.877
22555W        W87540   7.862  32.585  13.102
22556W        W87541  36.846  29.232  11.595
22557W        W87542  17.617   8.396  10.073
22558W        W87543   3.910  14.275   4.207
22559W        W87544  18.250  41.771   1.587
22560W        W87545  27.494   7.460   0.325
22561W        W87546  30.285  33.450  14.338
22562W        W87547  19.078  42.783   4.284
22563W        W87548  18.816  16.689   2.271
22564W        W87549  29.648  30.718   3.359
22565W        W87550  10.808  20.795   0.931
22566W        W87551  43.801  41.335   2.193
22567W        W87552  16.793  39.548  13.500
22568W        W87553  27.057   3.050  14.150
22569W        W87554  23.391   6.209   2.337
22570W        W87555   5.126  34.459   3.677
22571W        W87556  29.028  25.545   3.983
22572W        W87557  44.810   4.977  14.326
22573W        W87558  32.998  32.917  11.177
22574W        W87559  11.916  20.789  13.104
22575W        W87560  32.753  33.367  12.905
22576W        W87561  13.139  44.857  11.142
22577W        W87562  39.814   6.646  12.926
22578W        W87563  37.483  16.842   5.089
22579W        W87564  15.268  39.797   0.842
22580W        W87565   2.801  15.041  12.738
22581W        W87566   5.151  34.550  11.041
22582W        W87567   5.401  21.464   3.293
22583W        W87568  37.396   7.348  11.103
22584W        W87569  23.519  44.786   2.152
22585W        W87570   2.484  12.670   3.646
22586W        W87571  35.543   0.441   3.328
22587W        W87572  44.864  44.297   1.686
22588W        W87573  16.993  34.910   1.931
22589W        W87574   7.952  37.811  11.093
22590W        W87575  20.295   2.979   0.490
22591W        W87576   6.715   2.539  12.118
22592W        W87577  22.723   4.361  10.975
22593W        W87578   4.056  13.532   1.326
22594W        W87579   7.942   2.408  13.646
22595W        W87580  43.824   2.698  13.046
22596W        W87581  13.188  41.256   2.926
22597W        W87582  26.518   7.701   3.155
22598W        W87583   0.412  39.442  11.379
22599W        W87584  29.151  35.676   1.774
22600W        W87585  17.605  44.355  13.582
22601W        W87586  27.552   5.746   3.431
22602W        W87587  30.288   5.057  11.380
22603W        W87588   5.888  28.252  12.041
22604W        W87589   2.591  15.742  12.208
22605W        W87590  15.778  18.109  13.925
22606W        W87591  42.444   3.396   0.329
22607W        W87592  23.972   6.271  11.475
22608W        W87593  36.437   2.420  10.864
22609W        W87594   4.816   8.719   1.965
22610W        W87595  10.843  35.312   4.845
22611W        W87596  37.701  16.110  10.744
22612W        W87597  11.896  28.239  13.523
22613W        W87598  15.286  36.775   4.350
22614W        W87599  35.969   6.491   2.154
22615W        W87600  25.451  19.930  14.208
22616W        W87601   8.864  26.654   3.085
22617W        W87602  24.086  41.402   1.008
22618W        W87603  26.791  23.431   2.705
22619W        W87604  17.870  41.463   1.415
22620W        W87605  34.333  15.827  11.401
22621W        W87606  19.371  20.656   1.937
22622W        W87607  31.361  36.287   2.531
22623W        W87608   2.472  10.758  12.101
22624W        W87609  12.796   0.277  12.473
22625W        W87610  42.207  19.627   3.286
22626W        W87611  37.749  27.602   0.133
22627W        W87612  20.185   3.465   4.419
22628W        W87613   0.011  37.538  10.281
22629W        W87614  30.457  16.672   3.720
22630W        W87615  22.942   9.229   3.822
22631W        W87616  24.260  17.583   1.196
22632W        W87617   5.893  17.238   3.349
22633W        W87618   9.274   5.350  12.162
22634W        W87619  23.037  38.959   1.129
22635W        W87620  12.321   2.253   3.765
22636W        W87621   4.426  42.396  13.086
22637W        W87622  28.611   1.294  12.623
22638W        W87623   9.139   4.708   5.406
22639W        W87624  13.531   0.246  13.802
22640W        W87625  42.591  29.526   4.204
22641W        W87626  41.340  32.771   2.741
22642W        W87627   0.476  35.361  14.784
22643W        W87628   6.860  20.525   0.493
22644W        W87629  29.027  44.021  11.290
22645W        W87630   2.014  30.200   1.258
22646W        W87631   9.175  44.624   2.837
22647W        W87632   4.229   2.256  14.532
22648W        W87633  31.089  13.335   3.160
22649W        W87634  11.808   9.310  12.594
22650W        W87635  24.149  15.136  13.827
22651W        W87636   4.627  33.745   4.116
22652W        W87637   4.781  22.574   4.507
22653W        W87638  10.677   4.297   5.056
22654W        W87639   5.411  19.395   4.845
22655W        W87640  11.213  26.596  13.095
22656W        W87641  41.360  37.512  10.394
22657W        W87642  12.175  20.040   3.583
22658W        W87643  24.519  44.729   4.145
22659W        W87644   0.932  13.263  11.014
22660W        W87645  18.609  29.176   2.155
22661W        W87646  16.138  42.026   0.984
22662W        W87647  34.064  31.962   4.120
22663W        W87648  27.892   8.355  14.333
22664W        W87649  38.542  27.991  14.859
22665W        W87650   3.643   2.920  14.757
22666W        W87651  39.899  32.036   4.925
22667W        W87652   7.390  26.948   0.556
22668W        W87653  13.082  37.288  12.857
22669W        W87654   0.595  10.041   3.188
22670W        W87655   4.969  23.685   3.717
22671W        W87656  34.569  32.404   2.163
22672W        W87657  26.707  32.893  14.807
22673W        W87658  20.186  33.977  14.256
22674W        W87659  34.358  28.969   1.392
22675W        W87660  41.340  33.937  14.896
22676W        W87661  36.086  32.707   2.383
22677W        W87662  17.221  16.344   3.720
22678W        W87663  23.491  44.868   3.122
22679W        W87664  14.805  10.308  13.437
22680W        W87665  21.288  28.210  14.800
22681W        W87666  25.549  24.609   0.690
22682W        W87667  12.368  13.780   2.026
22683W        W87668  15.738  44.309   1.366
22684W        W87669  26.914  41.933  12.499
22685W        W87670  27.385  18.380  14.455
22686W        W87671  17.853   4.460  10.757
22687W        W87672   5.079  22.053  11.692
22688W        W87673   7.246  24.192   3.146
22689W        W87674  35.910  29.980   1.716
22690W        W87675  27.418  26.139   0.054
22691W        W87676  44.924  28.458  11.262
22692W        W87677  12.748  43.456   1.281
22693W        W87678  22.545  34.814  10.036
22694W        W87679  44.131  24.435  12.083
22695W        W87680   9.046  30.153   3.359
22696W        W87681  20.670  26.373   4.153
22697W        W87682  33.108   7.364  11.111
22698W        W87683  23.760  12.557   1.302
22699W        W87684  26.577  17.299   2.423
22700W        W87685  26.866  22.531   0.270
22701W        W87686  25.487  28.935   9.882
22702W        W87687  28.318  17.305   3.179
22703W        W87688   8.832   3.451  13.123
22704W        W87689  21.318  34.108   0.738
22705W        W87690  12.698   4.836   2.632
22706W        W87691  17.731  18.781   0.829
22707W        W87692  19.209  27.205   2.432
22708W        W87693  35.038  27.573   2.211
22709W        W87694  29.077  24.538   4.086
22710W        W87695   4.957  30.119  11.330
22711W        W87696  25.548  41.406  11.124
22712W        W87697  36.945  19.714  12.429
22713W        W87698   3.339   7.555   0.786
22714W        W87699   7.659  40.139   5.095
22715W        W87700  33.494  18.437   2.703
22716W        W87701  23.760  16.177  12.047
22717W        W87702  39.808  40.395   1.010
22718W        W87703  37.439  11.050  12.425
22719W        W87704  41.663  37.474  14.420
22720W        W87705  19.203  27.327   1.805
22721W        W87706  43.328   3.744  11.224
22722W        W87707  42.508  31.624   3.246
22723W        W87708  32.401   3.355  13.157
22724W        W87709  37.342   9.203   3.722
22725W        W87710   4.390  36.847   1.290
22726W        W87711  38.027   5.119  14.491
22727W        W87712  35.424  34.397   0.564
22728W        W87713   9.202   7.894  13.904
22729W        W87714  42.983  31.579   1.858
22730W        W87715  27.209  11.068  11.483
22731W        W87716  12.834  23.217   2.059
22732W        W87717  10.616  20.732  14.912
22733W        W87718  32.553  31.928  12.548
22734W        W87719   0.237  34.472  14.311
22735W        W87720  26.508  23.322   0.530
22736W        W87721   5.012  10.937  12.617
22737W        W87722  43.474  38.284  14.372
22738W        W87723  40.545  19.766   0.844
22739W        W87724  14.634  26.496  10.664
22740W        W87725  20.548   0.337   1.773
22741W        W87726  35.838  19.952  12.094
22742W        W87727  41.063  42.771  10.616
22743W        W87728  42.934  42.244   1.762
22744W        W87729  29.341  10.339  13.773
22745W        W87730   9.314  13.873   1.289
22746W        W87731  10.074  15.325   2.316
22747W        W87732  20.089  17.733  10.725
22748W        W87733  10.535  33.835   2.270
22749W        W87734  12.695  40.830   4.084
22750W        W87735  24.125  42.927   2.698
22751W        W87736  22.546  43.193   2.757
22752W        W87737   6.892  29.849  11.480
22753W        W87738  11.159   2.566   0.740
22754W        W87739  12.092  21.472   4.916
22755W        W87740  41.036  12.600   3.213
22756W        W87741  20.006  26.177  14.573
22757W        W87742  21.318  16.709  13.340
22758W        W87743  41.081  15.072  12.051
22759W        W87744  23.077  31.458   1.402
22760W        W87745   4.318  13.374   1.745
22761W        W87746  27.677   1.275   0.460
22762W        W87747   0.285  10.785  12.490
22763W        W87748   1.344  37.552   4.403
22764W        W87749  31.505  44.765   0.397
22765W        W87750  14.816   7.852   1.876
22766W        W87751  19.087  44.903  11.585
22767W        W87752  43.795  35.809  13.352
22768W        W87753  37.200  42.408   1.908
22769W        W87754   0.382  11.155   3.852
22770W        W87755  21.991   5.329   1.203
22771W        W87756  37.459  36.900   4.196
22772W        W87757  34.672   6.417   1.877
22773W        W87758   0.410  36.555   4.231
22774W        W87759  20.954  26.785  14.030
22775W        W87760  29.214   2.630  14.910
22776W        W87761  10.174  41.616   3.767
22777W        W87762  37.392  37.605   0.818
22778W        W87763  11.319  13.283  13.459
22779W        W87764  37.807  39.413  13.781
22780W        W87765  41.888  21.050   0.377
22781W        W87766  41.215  30.537   0.533
22782W        W87767  28.042  17.226   3.665
22783W        W87768  32.469  10.831  10.979
22784W        W87769  14.607  35.947   0.896
22785W        W87770   3.681  32.086  13.946
22786W        W87771  31.496   9.671  14.863
22787W        W87772  20.657  14.564   0.961
22788W        W87773   2.611   5.812   2.691
22789W        W87774  42.336   9.259   2.943
22790W        W87775  18.046  22.937   3.346
22791W        W87776  31.529   0.927   3.707
22792W        W87777  21.894  40.309  12.004
22793W        W87778   0.816  23.717   1.287
22794W        W87779  14.585  26.639  10.164
22795W        W87780   4.206   1.184   2.662
22796W        W87781  31.304   2.820   4.332
22797W        W87782  44.268   2.514  14.961
22798W        W87783  15.784   3.160   2.757
22799W        W87784  23.126  36.243   2.166
22800W        W87785  14.136  39.108   1.198
22801W        W87786   2.890  25.195   2.522
22802W        W87787  23.329  30.923  13.962
22803W        W87788  39.514  17.273  11.501
22804W        W87789  13.538  39.919   1.493
22805W        W87790  18.216  20.133   5.213
22806W        W87791  38.089  37.728  14.883
22807W        W87792  44.888  23.677   1.722
22808W        W87793  23.336  38.371   1.744
22809W        W87794   2.763  20.642   0.804
22810W        W87795  13.265  25.492   2.677
22811W        W87796  27.984  25.158   0.325
22812W        W87797  33.904  42.046   2.092
22813W        W87798  19.621  35.840   0.395
22814W        W87799  27.700  27.569  14.809
22815W        W87800  10.803  15.319  14.107
22816W        W87801   4.826  28.528  10.880
22817W        W87802  29.299  38.999   1.913
22818W        W87803  29.158   9.155  12.641
22819W        W87804  21.751  42.664   1.737
22820W        W87805  19.765  25.292  13.777
22821W        W87806  27.125   5.512   2.715
22822W        W87807  16.278  21.366   2.329
22823W        W87808  42.012  15.115  14.336
22824W        W87809  38.673  26.458  12.425
22825W        W87810  24.547  34.785   1.808
22826W        W87811  22.543   6.288  13.028
22827W        W87812  37.634  16.659   3.633
22828W        W87813  41.386   6.903   2.681
22829W        W87814  28.482  28.133   0.125
22830W        W87815   8.291  21.999  13.872
22831W        W87816  15.499  27.781   2.178
22832W        W87817  11.114  17.494   1.393
22833W        W87818  35.395  15.481  11.859
22834W        W87819  38.975   4.299   2.522
22835W        W87820  11.767  26.869  10.622
22836W        W87821   8.809  21.647   2.197
22837W        W87822  24.780  43.556  12.389
22838W        W87823  21.321  18.303  10.474
22839W        W87824  39.877  32.811  12.893
22840W        W87825  36.926  42.120   2.242
22841W        W87826  11.761  30.862  14.009
22842W        W87827  44.803  21.239  12.151
22843W        W87828  31.523  26.131  10.535
22844W        W87829  43.290  31.979   3.895
22845W        W87830  20.080  27.894   1.507
22846W        W87831  44.793  19.538  12.422
22847W        W87832  25.967  13.329   3.394
22848W        W87833  20.516  24.555   2.336
22849W        W87834   0.232  26.669   4.110
22850W        W87835  26.029  12.188  10.784
22851W        W87836   1.484  35.780   3.108
22852W        W87837  23.532  35.304  13.034
22853W        W87838  41.295  34.589   4.552
22854W        W87839  31.313  25.002  12.332
22855W        W87840  18.525  24.546   1.347
22856W        W87841  37.111  21.970   1.385
22857W        W87842  29.676  12.083  14.624
22858W        W87843  10.411  28.099  14.862
22859W        W87844  27.409  10.479   1.400
22860W        W87845   1.888  11.601  12.769
22861W        W87846  25.247  22.572   4.449
22862W        W87847  14.274  20.197  13.500
22863W        W87848   4.612  16.158   0.685
22864W        W87849   4.543  10.272   3.162
22865W        W87850  26.266   7.203   4.222
22866W        W87851  26.497  38.553  13.101
22867W        W87852   0.776   1.818  13.945
22868W        W87853   9.191  37.966   1.962
22869W        W87854   2.414   9.656  12.824
22870W        W87855  29.791   7.834   2.216
22871W        W87856   3.521  40.782   1.724
22872W        W87857  26.436  10.055   3.190
22873W        W87858  19.912  23.711   4.174
22874W        W87859  17.718  19.877   0.558
22875W        W87860   6.877  42.517   3.261
22876W        W87861  24.733  29.352   2.716
22877W        W87862  15.810  26.467   5.466
22878W        W87863  31.566   8.332   2.284
22879W        W87864  39.433  32.604  13.882
22880W        W87865  36.589  32.657   4.064
22881W        W87866  18.291  16.971  11.526
22882W        W87867  35.349   3.317  13.529
22883W        W87868   9.467  13.778  13.325
22884W        W87869  22.816  25.739   3.268
22885W        W87870   2.974   5.247   3.614
22886W        W87871  36.958  12.305  11.180
22887W        W87872  24.071   4.312   3.763
22888W        W87873  42.572  44.901  10.659
22889W        W87874  28.401  26.966   4.773
22890W        W87875  25.304  17.125  13.572
22891W        W87876  31.097  44.884  13.279
22892W        W87877  37.586  30.378  14.363
22893W        W87878  33.805   2.280  12.648
22894W        W87879  34.546  21.040  11.996
22895W        W87880  10.597  15.258  10.586
22896W        W87881  27.857   8.881  14.950
22897W        W87882  38.863  35.060  13.845
22898W        W87883  15.871  20.645  10.711
22899W        W87884   3.385   8.379  12.360
22900W        W87885  42.278  13.488  11.558
22901W        W87886  14.161   8.104  13.500
22902W        W87887  10.663  16.365   4.101
22903W        W87888  34.861  33.666  10.225
22904W        W87889  21.470  28.818   0.321
22905W        W87890   8.881   8.915  14.491
22906W        W87891  32.185  29.569  12.336
22907W        W87892   8.810  11.142  14.387
22908W        W87893  19.663  27.424   0.820
22909W        W87894  26.857  43.541  13.838
22910W        W87895  38.001  27.145   4.084
22911W        W87896  18.356  28.625   1.313
22912W        W87897  41.260  22.257   1.822
22913W        W87898   7.172  28.527   2.237
22914W        W87899  32.180  41.834   1.213
22915W        W87900  33.032  20.117   0.550
22916W        W87901   3.817  24.502  14.984
22917W        W87902  42.958  10.417   0.915
22918W        W87903  14.310  24.935   4.524
22919W        W87904  28.471  35.503   0.684
22920W        W87905   8.219  38.959  11.353
22921W        W87906  21.344  39.400   0.132
22922W        W87907  14.650  44.532  12.581
22923W        W87908   5.730   9.591  14.830
22924W        W87909   2.192  27.202  10.711
22925W        W87910   6.756  27.613  11.269
22926W        W87911   4.710  13.339   3.735
22927W        W87912  32.306   0.075   3.629
22928W        W87913  29.892  30.667   2.895
22929W        W87914   8.400   2.672  12.488
22930W        W87915  13.197  25.526  12.410
22931W        W87916  39.431  26.610   4.946
22932W        W87917  24.387  30.403   4.022
22933W        W87918   3.199  14.204  12.426
22934W        W87919  19.875  10.938  13.397
22935W        W87920  15.295  40.628   0.253
22936W        W87921  25.246  14.601  14.906
22937W        W87922   3.719   6.376  11.574
22938W        W87923  41.822  42.895  13.207
22939W        W87924   1.671   1.844   4.062
22940W        W87925  11.143  34.932   1.166
22941W        W87926  44.862  44.420   3.916
22942W        W87927  36.007  29.421   2.796
22943W        W87928  17.059  20.781  11.682
22944W        W87929  28.526  19.106  12.456
22945W        W87930  17.650   1.712   2.712
22946W        W87931  41.868  32.188  12.423
22947W        W87932  27.389   1.519   1.920
22948W        W87933  30.939  35.740  13.308
22949W        W87934  18.898  31.633  13.632
22950W        W87935   0.828   4.259  14.435
22951W        W87936  28.220  31.918  10.188
22952W        W87937  37.417   2.612  10.585
22953W        W87938   6.933  20.599  14.019
22954W        W87939  42.560  35.802   0.309
22955W        W87940   2.475  12.389  10.734
22956W        W87941  34.560   6.249   0.833
22957W        W87942  21.088  24.580   3.629
22958W        W87943  28.972   0.914   0.702
22959W        W87944  40.070  33.076   0.999
22960W        W87945  44.366  36.939  10.856
22961W        W87946  20.125  31.414  12.968
22962W        W87947  19.351  26.989   3.786
22963W        W87948  17.298  28.538  13.060
22964W        W87949  17.336  13.360  12.827
22965W        W87950  44.701  42.293  13.294
22966W        W87951  39.887   5.317   4.211
22967W        W87952  17.198  18.749  14.524
22968W        W87953  34.819  30.680  11.012
22969W        W87954   6.969  39.575   0.313
22970W        W87955  30.587  30.815  13.858
22971W        W87956  23.408  20.358   3.864
22972W        W87957  25.176  41.911  14.599
22973W        W87958  31.938  29.861  13.911
22974W        W87959  38.531   2.502   1.690
22975W        W87960   3.873   4.923   0.646
22976W        W87961  20.184  21.657  10.671
22977W        W87962  10.902  33.455   2.371
22978W        W87963  11.287  39.917  12.506
22979W        W87964   9.352   1.874   3.211
22980W        W87965   7.540  33.934  14.883
22981W        W87966   5.367  32.316   4.211
22982W        W87967  26.823  26.138   2.848
22983W        W87968  38.261  21.506   3.072
22984W        W87969  30.889  14.556  10.061
22985W        W87970  24.122  20.088  11.280
22986W        W87971   9.740  39.986  14.509
22987W        W87972  29.168  15.673   4.174
22988W        W87973  36.990  29.653  14.997
22989W        W87974   6.619  27.359  11.680
22990W        W87975  23.897  31.258   1.178
22991W        W87976   3.555   5.229   5.425
22992W        W87977  11.260   2.912  10.657
22993W        W87978   7.978  25.128   1.447
22994W        W87979   6.587  37.399   1.265
22995W        W87980   5.812  10.360   0.448
22996W        W87981  10.912  42.561   3.148
22997W        W87982  26.509  42.514   0.496
22998W        W87983  16.137  31.137  11.142
22999W        W87984  26.241   0.806   1.063
23000W        W87985  21.589   3.223   4.179
23001W        W87986  31.698  13.685  14.238
23002W        W87987   2.636   2.300   1.948
23003W        W87988   0.403  37.924  11.273
23004W        W87989  27.191  36.293   0.849
23005W        W87990  40.132  43.267  11.198
23006W        W87991   6.832  23.065   1.945
23007W        W87992  23.530  17.555  12.151
23008W        W87993  23.554  10.904  11.962
23009W        W87994  42.547   5.782   3.114
23010W        W87995  40.660  44.485   1.078
23011W        W87996  42.396  23.534   4.090
23012W        W87997   1.716  27.662   1.872
23013W        W87998  19.187  17.714  12.510
23014W        W87999  33.941  42.386  11.245
23015W        W88000  16.742  34.695  11.481
23016W        W88001  27.903  28.452  11.991
23017W        W88002   2.219   1.278  14.623
23018W        W88003   6.391  22.836   0.315
23019W        W88004  21.011  19.491  14.010
23020W        W88005  31.037   1.658   2.091
23021W        W88006  22.671  11.974   1.426
23022W        W88007   7.865  23.487  12.436
23023W        W88008  42.891  37.257  14.656
23024W        W88009  30.654  10.110  12.167
23025W        W88010  21.869  34.113  11.564
23026W        W88011  26.619  26.026   0.439
23027W        W88012   7.672  34.389  14.508
23028W        W88013  25.492  19.816   1.368
23029W        W88014  16.728   2.588   3.814
23030W        W88015  20.586   2.917  13.948
23031W        W88016  29.970  35.677  14.737
23032W        W88017  41.603  41.675  14.668
23033W        W88018   1.914   0.282   4.144
23034W        W88019  40.831  31.572   5.063
23035W        W88020  18.476   7.827  13.000
23036W        W88021  27.032  12.421  12.572
23037W        W88022  34.935  13.738   1.898
23038W        W88023  17.871  39.364   0.388
23039W        W88024  30.576  40.336   5.027
23040W        W88025  37.291  38.480  11.487
23041W        W88026  24.759   5.177  11.195
23042W        W88027  17.119  13.738  12.452
23043W        W88028   0.342  18.369  10.823
23044W        W88029  15.708  34.064   3.819
23045W        W88030  32.927  33.059   0.568
23046W        W88031   0.668   6.530   2.010
23047W        W88032  33.834   5.948  13.354
23048W        W88033  30.976  32.601   3.253
23049W        W88034  33.603  15.782  11.997
23050W        W88035  13.247   8.196  12.098
23051W        W88036  44.820  43.488   1.360
23052W        W88037  40.348  20.228  12.935
23053W        W88038  30.148  25.753   1.237
23054W        W88039  43.096  13.724   3.378
23055W        W88040  34.335  14.091  12.881
23056W        W88041  36.538  26.158   1.804
23057W        W88042  24.707  18.306  12.486
23058W        W88043  13.576  15.006   4.155
23059W        W88044   5.025  43.973   2.140
23060W        W88045  38.598   8.339  13.845
23061W        W88046  41.798  12.719   2.153
23062W        W88047   4.743   4.418   0.746
23063W        W88048  34.474  28.783  10.603
23064W        W88049  39.680  30.853  11.890
23065W        W88050  22.216  29.189  11.034
23066W        W88051  42.843  31.521   0.787
23067W        W88052  22.957   8.727   1.788
23068W        W88053  44.183  14.056   0.329
23069W        W88054  36.875  25.270  10.979
23070W        W88055   1.329  34.234  11.736
23071W        W88056  26.876  44.730  11.593
23072W        W88057  12.123   5.736   4.672
23073W        W88058  29.651  12.622   4.797
23074W        W88059  22.268  42.039  12.854
23075W        W88060   1.254  36.891  11.034
23076W        W88061  36.006   0.016  14.842
23077W        W88062  20.685  28.186   1.375
23078W        W88063  30.645   4.724   0.748
23079W        W88064  20.532   9.605   3.084
23080W        W88065   9.157  23.279   1.266
23081W        W88066  29.619  29.983   4.921
23082W        W88067  24.882  44.858  12.864
23083W        W88068  15.683  43.543  14.575
23084W        W88069  27.342  24.271   3.279
23085W        W88070  28.717   4.813   2.313
23086W        W88071  15.691  13.730   1.281
23087W        W88072  29.662  26.630   2.715
23088W        W88073  36.531   7.583   3.649
23089W        W88074   7.036  34.561  13.780
23090W        W88075  43.829  16.573  12.402
23091W        W88076   5.460  37.416   0.482
23092W        W88077  36.338   6.976  14.235
23093W        W88078  39.836  15.491   2.749
23094W        W88079  28.793   3.446   0.299
23095W        W88080  35.915  31.572  14.803
23096W        W88081   9.529  37.008  13.182
23097W        W88082  31.854  33.288   0.759
23098W        W88083   9.424   3.996  12.046
23099W        W88084  38.006  10.092   1.967
23100W        W88085  36.371  33.073  10.474
23101W        W88086   4.936  27.220  14.308
23102W        W88087  13.081  38.041  11.145
23103W        W88088  14.363   7.669  12.110
23104W        W88089  20.503  23.038  12.105
23105W        W88090   7.827  18.332  14.367
23106W        W88091  38.393  19.442  10.841
23107W        W88092   0.518  26.857   4.965
23108W        W88093   6.907   9.691  10.227
23109W        W88094   0.004   6.698  11.183
23110W        W88095  38.620  40.906  13.845
23111W        W88096  23.144   1.479  13.534
23112W        W88097   3.792  16.631   4.637
23113W        W88098  10.192  17.181  13.962
23114W        W88099   6.484  17.437   4.092
23115W        W88100  27.684  21.512  12.912
23116W        W88101  39.077  24.812  13.044
23117W        W88102  30.895   2.050  11.740
23118W        W88103  20.631  22.373  11.533
23119W        W88104  28.167   5.841  14.921
23120W        W88105  14.849   0.426   0.477
23121W        W88106  34.777  27.927  12.956
23122W        W88107  26.921  22.600   3.076
23123W        W88108  28.661  42.975   4.273
23124W        W88109  20.818  42.120  12.008
23125W        W88110  12.921  38.516   1.426
23126W        W88111  17.892  26.665  10.530
23127W        W88112  26.433   6.758   4.416
23128W        W88113  40.016  28.815   9.579
23129W        W88114   0.372  33.009  13.589
23130W        W88115  19.087   9.625  13.448
23131W        W88116  14.708  13.083   3.085
23132W        W88117  38.791  27.361  14.440
23133W        W88118  36.361  33.007  12.009
23134W        W88119   1.955  15.664  12.954
23135W        W88120  22.080   8.302   1.478
23136W        W88121  43.791  42.046   2.768
23137W        W88122   8.873  11.310  12.080
23138W        W88123  35.935  37.552   1.752
23139W        W88124  11.546  38.361   0.950
23140W        W88125  33.908   8.810   2.823
23141W        W88126  17.679   4.666  14.468
23142W        W88127  10.668  44.373   3.671
23143W        W88128  43.813  10.609  14.317
23144W        W88129   1.781  32.182   0.013
23145W        W88130  40.934  20.801   1.040
23146W        W88131   0.424   0.517  14.762
23147W        W88132  26.549  13.685  11.608
23148W        W88133  39.386  28.116  14.444
23149W        W88134  41.622  43.082   2.338
23150W        W88135  24.951  13.274  14.891
23151W        W88136  32.028  21.823  12.111
23152W        W88137  22.165  40.577  14.016
23153W        W88138  29.041  28.571  10.953
23154W        W88139  23.977  10.654   3.153
23155W        W88140  27.179  13.351  12.325
23156W        W88141  22.843  38.501   0.922
23157W        W88142  11.647  41.395  10.718
23158W        W88143  18.157  40.406  11.515
23159W        W88144  16.466   2.891   4.158
23160W        W88145  17.633   9.313  11.685
23161W        W88146  26.554  36.971   4.565
23162W        W88147  21.406  25.558  14.094
23163W        W88148  10.085  10.339   2.283
23164W        W88149  31.207  21.985   0.675
23165W        W88150   2.505  26.558  14.293
23166W        W88151  28.912  17.658  13.107
23167W        W88152  16.148  23.337   2.733
23168W        W88153   9.636  24.950  11.167
23169W        W88154   8.653  10.971  11.069
23170W        W88155   0.491  13.721   0.387
23171W        W88156  19.650   6.953  14.013
23172W        W88157  42.416  39.270   4.570
23173W        W88158   5.238  28.868  14.815
23174W        W88159  43.098  37.042   4.356
23175W        W88160  39.027   4.009  11.460
23176W        W88161   9.791  25.457   2.269
23177W        W88162  17.868  26.689   4.940
23178W        W88163   9.532  25.448  11.228
23179W        W88164   5.888  34.884  13.245
23180W        W88165   7.112  12.063  13.976
23181W        W88166  40.982  44.255   2.329
23182W        W88167  36.230  16.443   3.437
23183W        W88168  25.660   1.538   2.265
23184W        W88169   3.223  39.092  10.970
23185W        W88170  36.486  43.755  11.955
23186W        W88171   8.162  18.780   1.452
23187W        W88172  36.430  39.340   2.960
23188W        W88173  12.176  32.379   1.462
23189W        W88174  40.729   7.556  12.984
23190W        W88175  42.662  18.352  14.796
23191W        W88176  14.347  17.827   0.174
23192W        W88177  40.120   5.585  11.696
23193W        W88178  12.725  42.660   2.718
23194W        W88179   9.212  30.958  14.346
23195W        W88180  28.361  18.237   3.074
23196W        W88181  10.075  15.555  10.111
23197W        W88182  43.241  37.883   1.383
23198W        W88183   3.937   7.361   3.833
23199W        W88184  26.643  10.217   2.739
23200W        W88185   8.947  20.513   0.369
23201W        W88186  13.844  32.174  11.122
23202W        W88187  25.178  43.918  11.662
23203W        W88188  23.524  17.592   9.538
23204W        W88189  11.922  34.663  14.343
23205W        W88190  34.622   1.008   0.311
23206W        W88191  16.655  29.320   1.681
23207W        W88192  15.721  28.310   0.675
23208W        W88193   6.805   7.238   3.246
23209W        W88194   0.217  28.370   0.749
23210W        W88195  10.885  30.906  13.758
23211W        W88196  43.944  24.224   3.833
23212W        W88197   5.972  42.722   0.196
23213W        W88198  31.853  30.564   1.834
23214W        W88199  28.176  28.038   3.393
23215W        W88200  28.101  31.028  12.637
23216W        W88201   8.193  30.392  13.003
23217W        W88202  36.597  16.096   1.263
23218W        W88203  17.796  31.948   1.744
23219W        W88204   8.740  39.597   0.846
23220W        W88205  33.026  34.257   2.184
23221W        W88206  29.611  11.600   4.795
23222W        W88207  33.826  30.877  12.109
23223W        W88208  43.034  36.070  11.728
23224W        W88209  32.357  11.488   1.637
23225W        W88210  18.980  31.897  14.506
23226W        W88211  24.643  29.119   3.199
23227W        W88212  43.376  26.534  12.979
23228W        W88213  39.874  33.693   2.420
23229W        W88214  15.102  20.356  11.100
23230W        W88215  32.807  37.400  13.566
23231W        W88216  16.746  31.891  11.994
23232W        W88217  44.999  38.172  12.587
23233W        W88218  37.073   0.535   1.431
23234W        W88219  30.179  17.892  11.595
23235W        W88220  10.693  39.277  13.946
23236W        W88221   5.830  10.750  13.974
23237W        W88222   8.867  30.118  14.360
23238W        W88223  19.503  21.112   1.722
23239W        W88224  23.437  39.540   3.605
23240W        W88225  18.103   3.372  10.794
23241W        W88226  16.595  32.456  13.985
23242W        W88227  15.829  36.344   1.728
23243W        W88228   1.543   9.672   0.509
23244W        W88229   5.347   4.858   1.188
23245W        W88230  36.575  37.115  11.020
23246W        W88231  29.997  11.189  11.880
23247W        W88232  35.353   4.182  14.508
23248W        W88233  25.704   4.381   2.295
23249W        W88234  14.828  40.473  11.586
23250W        W88235  21.269  29.481   1.925
23251W        W88236  44.478   8.702  11.533
23252W        W88237  17.980  15.156   4.703
23253W        W88238  17.792  42.863   2.091
23254W        W88239  41.543  10.105   4.265
23255W        W88240  41.843  33.559  12.429
23256W        W88241   4.246  13.799  13.921
23257W        W88242  25.671  26.279   1.395
23258W        W88243   8.901  14.454   5.026
23259W        W88244  27.620  35.287   0.326
23260W        W88245  41.358   9.426  14.296
23261W        W88246  37.118  14.094   2.402
23262W        W88247  36.854  39.039  13.396
23263W        W88248  32.639  27.543   2.353
23264W        W88249  21.046  41.629   2.637
23265W        W88250  37.135  28.774  11.566
23266W        W88251  37.214  18.055   3.325
23267W        W88252  35.255  10.138  13.304
23268W        W88253  38.133  36.294   1.223
23269W        W88254  29.459   5.471  14.080
23270W        W88255  20.569  26.869   4.179
23271W        W88256  31.658  41.057   1.695
23272W        W88257   7.943  32.985  11.465
23273W        W88258  14.361  17.920  12.997
23274W        W88259  41.065  19.283   2.845
23275W        W88260  27.538  16.809   4.591
23276W        W88261  34.609  28.396  12.907
23277W        W88262  42.177   0.212  10.557
23278W        W88263   4.168  36.305  12.787
23279W        W88264  19.234   4.688   2.917
23280W        W88265   9.056  36.864  13.885
23281W        W88266  44.272  34.885   1.259
23282W        W88267  39.339  27.425   2.279
23283W        W88268  10.945   2.792  11.498
23284W        W88269  21.387  40.298  10.146
23285W        W88270  29.845  36.582  14.515
23286W        W88271  12.092  10.543   4.540
23287W        W88272  42.907  27.141   2.726
23288W        W88273  27.950  37.069  13.406
23289W        W88274  43.908  12.715   3.634
23290W        W88275  24.029  30.237  12.028
23291W        W88276   8.161  26.617   3.693
23292W        W88277  33.623  19.692   3.037
23293W        W88278  42.896   1.682   0.124
23294W        W88279  20.571  27.915  13.592
23295W        W88280  40.752   2.590  13.984
23296W        W88281   1.498  29.036  13.616
23297W        W88282  37.354   8.162  12.096
23298W        W88283  16.738  23.968   0.373
23299W        W88284  39.017  36.617   1.182
23300W        W88285  41.436   1.432  12.471
23301W        W88286  34.975  19.957  14.521
23302W        W88287  19.741   3.447  11.123
23303W        W88288  12.468  34.815   2.222
23304W        W88289   8.825  20.265  13.752
23305W        W88290  38.125  31.539  14.797
23306W        W88291  43.180   4.069  14.784
23307W        W88292  32.834   1.285  12.423
23308W        W88293   1.932  41.830   4.277
23309W        W88294  12.572  40.413   4.370
23310W        W88295  18.970  28.124  14.503
23311W        W88296   1.482  17.492   3.179
23312W        W88297  11.862  40.747  12.553
23313W        W88298  35.641   0.758  13.369
23314W        W88299  33.222  32.765  14.875
23315W        W88300  40.391  27.664  13.622
23316W        W88301  21.206  25.168   1.279
23317W        W88302  42.973  15.139   4.059
23318W        W88303  21.329  41.673  10.405
23319W        W88304  20.035  44.389   1.219
23320W        W88305  34.175  26.469   1.326
23321W        W88306  41.591  39.526  13.037
23322W        W88307  29.734   6.816   2.720
23323W        W88308  38.423  29.139   4.548
23324W        W88309  38.362  35.243  12.794
23325W        W88310  12.497  17.664   4.143
23326W        W88311  22.519  25.153  12.018
23327W        W88312  30.961   6.152  14.225
23328W        W88313  36.981  24.582  14.775
23329W        W88314   2.433  27.482  12.415
23330W        W88315  16.242  41.434   1.916
23331W        W88316  16.153  26.459   1.291
23332W        W88317  32.824  20.400  14.324
23333W        W88318  12.854  21.085   0.807
23334W        W88319  23.098  34.363  11.033
23335W        W88320  31.807  19.352   4.319
23336W        W88321  23.000  39.799  14.908
23337W        W88322  13.417  36.532  12.111
23338W        W88323  13.175  18.490   0.809
23339W        W88324  11.436   1.955   5.073
23340W        W88325  11.129  10.564   4.568
23341W        W88326  20.547  19.814   0.997
23342W        W88327  39.014   9.343   1.078
23343W        W88328  27.191  28.742  10.717
23344W        W88329  28.201  40.380  10.715
23345W        W88330   4.963  38.024  11.968
23346W        W88331  43.380  37.288  14.449
23347W        W88332  29.496   0.819   2.495
23348W        W88333  19.846   5.394   3.056
23349W        W88334   1.778  43.918   1.892
23350W        W88335  27.102  40.263   3.764
23351W        W88336   8.296   5.497  13.950
23352W        W88337  35.151   1.260  14.666
23353W        W88338  23.853   1.201   5.536
23354W        W88339  33.620  20.670   4.264
23355W        W88340  23.312  10.173   2.727
23356W        W88341  11.742  13.293   4.466
23357W        W88342  13.236  37.903  13.674
23358W        W88343  18.755  16.663   3.186
23359W        W88344  28.511  22.056  12.989
23360W        W88345  19.030  44.840   3.480
23361W        W88346  31.432   5.860   3.301
23362W        W88347  12.880   8.857   0.804
23363W        W88348  20.197  44.291   4.622
23364W        W88349  27.824  25.298   1.047
23365W        W88350  33.466  20.606  12.488
23366W        W88351  19.806  19.493   1.448
23367W        W88352  20.562  28.999  11.835
23368W        W88353   8.334   5.393   3.197
23369W        W88354  20.210   1.297   4.153
23370W        W88355  39.736  10.324  12.503
23371W        W88356  21.521  42.336  14.031
23372W        W88357  10.285  29.928   3.562
23373W        W88358  18.275  11.349  11.124
23374W        W88359  44.027   3.342  13.040
23375W        W88360  22.635   5.325   3.272
23376W        W88361  25.581  33.168   3.893
23377W        W88362  13.696  13.652   4.364
23378W        W88363   0.691   2.846  13.772
23379W        W88364   6.351   7.461   2.649
23380W        W88365  30.223  13.847  14.521
23381W        W88366  35.369  43.584   1.302
23382W        W88367  32.965  33.932  14.000
23383W        W88368  15.829   7.913   2.479
23384W        W88369   3.653  28.965   0.678
23385W        W88370  20.712  20.277  14.914
23386W        W88371  22.749  17.519   1.334
23387W        W88372  29.325   1.475   3.782
23388W        W88373  26.955  18.706   0.737
23389W        W88374  18.758  16.039  13.520
23390W        W88375  17.062  18.893  12.950
23391W        W88376  13.772  16.041  11.517
23392W        W88377   5.674  31.609   4.721
23393W        W88378  44.850   9.791   1.841
23394W        W88379   3.418  34.295   1.506
23395W        W88380  36.352   8.161  11.573
23396W        W88381  42.937  29.906  14.553
23397W        W88382  30.506  20.743   3.262
23398W        W88383  36.247  40.388   3.754
23399W        W88384  34.148   3.798   0.435
23400W        W88385  41.379  15.816   2.772
23401W        W88386  14.141  43.843  11.563
23402W        W88387  18.616  28.220  11.062
23403W        W88388  40.312  16.247   1.714
23404W        W88389  21.681  24.628   4.912
23405W        W88390  37.834  16.040  14.860
23406W        W88391  12.401   9.718   2.883
23407W        W88392   4.393  28.462   4.878
23408W        W88393  13.233  37.734  13.172
23409W        W88394  22.030  22.173   4.102
23410W        W88395   9.331  19.781   0.370
23411W        W88396  43.787  18.289  12.082
23412W        W88397  41.493  39.813   1.342
23413W        W88398   7.329  23.476  11.258
23414W        W88399  37.375  44.764  13.424
23415W        W88400  16.523  42.005  13.362
23416W        W88401   5.279  39.452  13.716
23417W        W88402   5.337  23.393   3.440
23418W        W88403  43.799  18.183   2.305
23419W        W88404  38.619  40.583   0.578
23420W        W88405  26.668   3.722  12.396
23421W        W88406  41.815  18.166   1.115
23422W        W88407  30.914  19.996  13.104
23423W        W88408  35.091  11.388  11.953
23424W        W88409  24.779  31.793  10.763
23425W        W88410  23.648  36.551  13.368
23426W        W88411  15.663  19.597   0.780
23427W        W88412  34.479  38.902   2.736
23428W        W88413  42.439  20.671  13.595
23429W        W88414  24.166  19.840   0.766
23430W        W88415  21.746  29.043  13.568
23431W        W88416  28.211  16.037   0.360
23432W        W88417  22.422   6.364  12.538
23433W        W88418  11.947  31.665  12.457
23434W        W88419  44.850  14.147  12.065
23435W        W88420  35.719  21.251  12.041
23436W        W88421  10.920  27.560   1.835
23437W        W88422  29.646   1.416   3.299
23438W        W88423  13.711   0.093   0.354
23439W        W88424   8.471  17.637  11.630
23440W        W88425  20.519  23.685  14.889
23441W        W88426  13.666  26.074  11.028
23442W        W88427  41.044   1.586  12.811
23443W        W88428  44.208   6.919   0.485
23444W        W88429  27.547  15.975   1.110
23445W        W88430  14.625  26.584   0.101
23446W        W88431   9.486  21.151  12.840
23447W        W88432  21.066   0.465   1.779
23448W        W88433  31.361  34.508  12.900
23449W        W88434   6.342   1.809  13.926
23450W        W88435  34.138  44.782  10.899
23451W        W88436  38.407   2.262   0.722
23452W        W88437   2.154  32.541  14.982
23453W        W88438  29.220   1.676   2.830
23454W        W88439   5.882  12.651  13.193
23455W        W88440  11.255  39.181   1.876
23456W        W88441   6.786  39.013  10.191
23457W        W88442  22.602   5.652  13.099
23458W        W88443  16.195   7.238   3.106
23459W        W88444  22.234  11.897   4.123
23460W        W88445  18.174  33.107   1.314
23461W        W88446   5.803  32.624   0.767
23462W        W88447   4.449  40.365   2.178
23463W        W88448   4.042  36.959  11.172
23464W        W88449  24.633   1.269   2.239
23465W        W88450  16.300   0.574   9.905
23466W        W88451   4.435   3.065   1.883
23467W        W88452  14.156  28.272   1.880
23468W        W88453  19.303  21.992  13.289
23469W        W88454  11.577   6.359   1.291
23470W        W88455  29.175  24.862   2.163
23471W        W88456  18.748  35.890  11.931
23472W        W88457  23.730  12.144   0.002
23473W        W88458   6.815  32.708  11.155
23474W        W88459  30.705   3.442   0.354
23475W        W88460  44.371  17.825   0.311
23476W        W88461  17.994  11.837   3.360
23477W        W88462  27.623   5.209   1.454
23478W        W88463  19.636  27.140   0.400
23479W        W88464  30.959  14.247  10.616
23480W        W88465   4.797  40.457  13.525
23481W        W88466  29.328  17.380   0.707
23482W        W88467   4.795   9.264  14.403
23483W        W88468  15.109  20.100   1.268
23484W        W88469  44.061   0.907  12.554
23485W        W88470  34.527  25.948  14.294
23486W        W88471  12.202  27.254   4.914
23487W        W88472  13.204  43.446   3.386
23488W        W88473  22.947   7.221  12.488
23489W        W88474  35.100  34.635  12.837
23490W        W88475  26.705  35.802  14.717
23491W        W88476  12.136  22.744   4.172
23492W        W88477   6.385   9.774  10.211
23493W        W88478  15.188  36.997  14.837
23494W        W88479  26.748  40.040  10.604
23495W        W88480  27.286  30.077   1.482
23496W        W88481  29.430  22.614  14.363
23497W        W88482  20.097  43.824   0.071
23498W        W88483  29.194  30.909   0.802
23499W        W88484  44.485   8.097  13.001
23500W        W88485   6.866  38.029  12.932
23501W        W88486  41.614  10.409   2.743
23502W        W88487   1.245  12.754   1.938
23503W        W88488  30.654  33.461   3.505
23504W        W88489  27.730   2.261  12.495
23505W        W88490  33.332   9.156   1.119
23506W        W88491  40.530  12.712  13.141
23507W        W88492  29.888   7.384   1.293
23508W        W88493  35.026  25.496   3.716
23509W        W88494  16.314   6.256  13.010
23510W        W88495  41.417   8.637  11.475
23511W        W88496  13.187  40.438   1.342
23512W        W88497  36.641  43.258  11.901
23513W        W88498   5.730  27.070  12.540
23514W        W88499  36.511  41.911   0.801
23515W        W88500  13.397  33.104   1.296
23516W        W88501  34.897  36.172   3.191
23517W        W88502   4.736   4.730   3.012
23518W        W88503  43.803   9.158   0.996
23519W        W88504  28.673  23.796  14.403
23520W        W88505   4.526  43.271  14.725
23521W        W88506   2.725  11.306  12.521
23522W        W88507  42.519  24.781   0.885
23523W        W88508  28.501  30.053   1.671
23524W        W88509  26.248   1.878   1.415
23525W        W88510  24.063  30.590  12.804
23526W        W88511  26.390  31.492   2.697
23527W        W88512  21.353  20.550  11.983
23528W        W88513   0.856  20.284  14.811
23529W        W88514  44.886  33.065  13.797
23530W        W88515  33.766  30.071  13.027
23531W        W88516  39.404   6.370   2.213
23532W        W88517  42.925  20.765  12.860
23533W        W88518  31.358  44.160   4.721
23534W        W88519  38.550  40.249   4.889
23535W        W88520  36.771  28.061   3.267
23536W        W88521   3.985  23.696   0.242
23537W        W88522  23.713  43.992   3.994
23538W        W88523  40.570  44.754   1.512
23539W        W88524  22.572  22.223   4.090
23540W        W88525  28.569   9.329   1.601
23541W        W88526  17.537  19.206   2.643
23542W        W88527  34.826  42.287  11.652
23543W        W88528  32.577  32.602  14.236
23544W        W88529  28.513  10.678   1.183
23545W        W88530  21.168  25.969  10.655
23546W        W88531   5.973  34.415   3.055
23547W        W88532  13.512  34.260   3.747
23548W        W88533  18.031  14.296  12.928
23549W        W88534  43.914   3.767   1.170
23550W        W88535  31.906  40.011  12.866
23551W        W88536  12.754  14.151  12.344
23552W        W88537   5.131  36.580   3.358
23553W        W88538  26.032  19.125  14.982
23554W        W88539  27.660  18.809   1.325
23555W        W88540  37.108  14.938   0.335
23556W        W88541  32.896  14.097   1.750
23557W        W88542  31.469  30.317  12.060
23558W        W88543  35.595  20.199  14.621
23559W        W88544  28.147  14.224   3.681
23560W        W88545  35.327  25.446   1.802
23561W        W88546  38.974  10.303  13.000
23562W        W88547  41.780  36.518  14.100
23563W        W88548  17.382  38.820   3.285
23564W        W88549   4.035   1.833  13.101
23565W        W88550   7.753  42.541  13.444
23566W        W88551  30.084  31.537  12.493
23567W        W88552  35.356  30.088   2.974
23568W        W88553  23.505  16.535   2.754
23569W        W88554  26.087  38.754   4.587
23570W        W88555   7.831  17.483   3.842
23571W        W88556  18.178  12.290  13.014
23572W        W88557  15.399  31.047   1.802
23573W        W88558  22.059  26.647   3.708
23574W        W88559  26.874  24.398   4.075
23575W        W88560  29.213  22.633   0.771
23576W        W88561  38.413   8.501   1.184
23577W        W88562  29.526  36.172   4.144
23578W        W88563  14.584  41.812   2.244
23579W        W88564  34.348  16.022   1.901
23580W        W88565  35.155  27.865   5.123
23581W        W88566  41.778  16.684  11.144
23582W        W88567  27.937   1.768   2.305
23583W        W88568  44.504  22.946   0.701
23584W        W88569   0.757  22.819   2.366
23585W        W88570  20.767  13.761  12.947
23586W        W88571   2.546  43.773   4.832
23587W        W88572  35.072  19.130   3.904
23588W        W88573  41.763  33.127   2.879
23589W        W88574  36.018   2.706   4.584
23590W        W88575  15.750  15.143  11.199
23591W        W88576   2.187  23.212   0.482
23592W        W88577   9.791  16.662   2.491
23593W        W88578  25.438   0.273   0.310
23594W        W88579  31.644   1.294  13.050
23595W        W88580  41.867  16.207   3.513
23596W        W88581   3.798  10.358   4.183
23597W        W88582   6.949   6.411   0.444
23598W        W88583  17.138  35.931   3.980
23599W        W88584  22.127  21.974   0.343
23600W        W88585  24.055  37.804  13.291
23601W        W88586  29.660   4.248   1.760
23602W        W88587  18.778  26.132  14.477
23603W        W88588  16.746  14.745   0.746
23604W        W88589  27.764  38.357   4.900
23605W        W88590  40.227  18.305  14.858
23606W        W88591  22.140  28.618  12.438
23607W        W88592  20.271  33.613  10.294
23608W        W88593  44.517  29.239   4.982
23609W        W88594  36.422  29.212   2.127
23610W        W88595  35.488  11.048   4.531
23611W        W88596  37.286  41.489   3.727
23612W        W88597  37.931  37.815   3.535
23613W        W88598  14.661  20.735  13.984
23614W        W88599   9.405  29.572   3.691
23615W        W88600   9.697   4.318   3.055
23616W        W88601  16.265   7.192  13.053
23617W        W88602  22.893  25.518  11.931
23618W        W88603  35.876  36.249   0.430
23619W        W88604  21.760  12.368  13.568
23620W        W88605   9.200  21.623  14.086
23621W        W88606  31.447  36.858  10.670
23622W        W88607  13.622  24.523  13.331
23623W        W88608  21.309  38.141  12.406
23624W        W88609  12.126  32.384   3.937
23625W        W88610  26.815  27.050  12.610
23626W        W88611  23.147  25.866  12.881
23627W        W88612  29.624  10.361  12.858
23628W        W88613   9.876  25.865  12.090
23629W        W88614   0.421   3.452  12.966
23630W        W88615  42.155   9.161   0.189
23631W        W88616  38.976  36.702   4.685
23632W        W88617  36.414  41.984   2.267
23633W        W88618  13.862   2.075  13.523
23634W        W88619  31.530  39.605  11.918
23635W        W88620  19.858  32.900   2.638
23636W        W88621  32.044  31.939  13.939
23637W        W88622   8.662  15.192  13.757
23638W        W88623  27.358  15.215  14.034
23639W        W88624   2.418   0.898  13.736
23640W        W88625  37.733   0.850   1.805
23641W        W88626   5.242   6.904  11.093
23642W        W88627  42.980  44.538   0.304
23643W        W88628  16.772  38.104  13.009
23644W        W88629  24.646  27.231   4.410
23645W        W88630  31.037   7.319   1.453
23646W        W88631  42.286   1.252   2.168
23647W        W88632  13.325   1.647   1.733
23648W        W88633  31.940  27.523  12.547
23649W        W88634  33.990  33.412  12.594
23650W        W88635   9.274  35.455   2.192
23651W        W88636  43.235  12.077  14.903
23652W        W88637  26.723  39.483  14.865
23653W        W88638   6.750  12.781  12.416
23654W        W88639  32.619   8.952   1.221
23655W        W88640  41.026   7.232   2.867
23656W        W88641  34.770  31.220  14.041
23657W        W88642  30.564  33.971   1.212
23658W        W88643  10.930  32.105  14.879
23659W        W88644  40.557   0.258  12.686
23660W        W88645   9.461  24.748   0.175
23661W        W88646   8.253  23.797   0.843
23662W        W88647  39.384  12.633  14.321
23663W        W88648  41.284   3.699  13.607
23664W        W88649  19.810  32.015   1.779
23665W        W88650   6.280  14.575  13.815
23666W        W88651  25.480  17.574   3.236
23667W        W88652  43.833   8.631   0.876
23668W        W88653  34.590  43.479   1.752
23669W        W88654  32.665  13.229   3.179
23670W        W88655  23.697  42.473   2.226
23671W        W88656   3.696  20.729  12.486
23672W        W88657   5.788  39.817   1.766
23673W        W88658   1.703  35.325   3.260
23674W        W88659  25.245  15.581  10.955
23675W        W88660   4.254  30.831  14.022
23676W        W88661  25.512  12.017  10.630
23677W        W88662   1.907  20.661  10.659
23678W        W88663  14.264   4.160   1.972
23679W        W88664  35.327  13.617  10.967
23680W        W88665  32.531  43.019   4.740
23681W        W88666   9.623   0.729   3.694
23682W        W88667  40.955   3.902   0.365
23683W        W88668   5.975   0.564   4.519
23684W        W88669  34.367   1.977   4.165
23685W        W88670   8.899  38.056  12.239
23686W        W88671  22.922   6.283   2.486
23687W        W88672  28.840   4.502   1.449
23688W        W88673  11.851   4.779  12.114
23689W        W88674  40.317  41.041  11.541
23690W        W88675  24.232  21.575   4.735
23691W        W88676   0.911  41.481   9.704
23692W        W88677  23.005  27.133  12.651
23693W        W88678  11.259  17.081   2.897
23694W        W88679  12.582   5.971   3.715
23695W        W88680  12.870   0.397   3.475
23696W        W88681  33.214  12.810  14.453
23697W        W88682  21.720   1.344  14.794
23698W        W88683  39.564   3.828  12.468
23699W        W88684   3.911  16.529  11.221
23700W        W88685  10.850  29.953   4.413
23701W        W88686   0.872  26.419  12.353
23702W        W88687  29.550   6.364   2.920
23703W        W88688  24.972  34.895  12.535
23704W        W88689  28.935   1.711  12.555
23705W        W88690  36.331  44.867   4.007
23706W        W88691   0.372  13.178  13.460
23707W        W88692  29.227   2.449   2.312
23708W        W88693  18.646   8.434  13.842
23709W        W88694  31.481   4.448  11.002
23710W        W88695  19.712   9.387  14.367
23711W        W88696  36.860  30.416   1.716
23712W        W88697  34.718   5.717   1.678
23713W        W88698  20.077  28.124  14.504
23714W        W88699   8.687  29.842   0.802
23715W        W88700   2.349  15.316   3.720
23716W        W88701  14.002  12.410   1.051
23717W        W88702  11.310   1.553  11.927
23718W        W88703  15.563  31.644   2.873
23719W        W88704  30.168  16.673   4.211
23720W        W88705  32.279  25.455  14.842
23721W        W88706  37.471   7.755   0.862
23722W        W88707   0.330  19.320  11.223
23723W        W88708  15.781  24.611  12.829
23724W        W88709   3.466  10.247   2.849
23725W        W88710  18.775   1.839   0.295
23726W        W88711  33.412  23.219  14.516
23727W        W88712   8.800   3.856   2.172
23728W        W88713  23.384   6.946  12.438
23729W        W88714  19.456  21.485   4.282
23730W        W88715  35.340  10.646   2.385
23731W        W88716   0.764  32.002   2.743
23732W        W88717   6.383  28.197   1.210
23733W        W88718  41.467  22.216  14.827
23734W        W88719   9.322   7.041  11.632
23735W        W88720  14.876  10.567  10.132
23736W        W88721  41.847  36.646   5.013
23737W        W88722  18.451  39.004   4.649
23738W        W88723  36.791   5.324  10.612
23739W        W88724  29.285  17.288   2.840
23740W        W88725  22.475   3.572  12.901
23741W        W88726  39.864   2.858  14.398
23742W        W88727  37.307  31.921   2.307
23743W        W88728  44.112  26.806  11.998
23744W        W88729  10.340  27.647   4.188
23745W        W88730  18.273  21.755  11.520
23746W        W88731   2.042  30.595  11.349
23747W        W88732  19.205  20.342   1.119
23748W        W88733  38.801  32.629   2.358
23749W        W88734  40.538   2.470  14.770
23750W        W88735  40.350  13.329   0.918
23751W        W88736  10.403   0.976   0.297
23752W        W88737  37.072  13.417  12.533
23753W        W88738  17.123  14.651   3.286
23754W        W88739  42.085  35.591   2.229
23755W        W88740  36.512  33.630   3.215
23756W        W88741  41.919  12.230   0.638
23757W        W88742  44.730  19.029   0.319
23758W        W88743  40.159   0.781   2.843
23759W        W88744  41.262   3.154  10.713
23760W        W88745   0.865  14.632   3.208
23761W        W88746  21.553   4.792  12.232
23762W        W88747  23.109  31.419   2.464
23763W        W88748  37.951  28.688   1.900
23764W        W88749  26.374  31.899  10.250
23765W        W88750   1.732  11.385  11.158
23766W        W88751  28.844  20.019  13.948
23767W        W88752  43.566   1.430  13.919
23768W        W88753   3.206  17.327   5.125
23769W        W88754  39.157  38.642  11.819
23770W        W88755   4.412  14.353   3.275
23771W        W88756  28.673  40.820  11.879
23772W        W88757  25.653  29.563  12.414
23773W        W88758  38.090  26.620   3.223
23774W        W88759   0.133  16.192   1.764
23775W        W88760  19.078   5.746   1.456
23776W        W88761  18.710   9.394  14.087
23777W        W88762  43.958  25.148  13.260
23778W        W88763  12.941   3.661  12.016
23779W        W88764  26.757  27.837   2.268
23780W        W88765  11.865  25.640  14.712
23781W        W88766  15.594  33.063  14.933
23782W        W88767  35.805  38.451  12.561
23783W        W88768  32.089  12.790   0.771
23784W        W88769  34.470  20.253  12.507
23785W        W88770  33.952  17.461  11.534
23786W        W88771  38.322  29.428   1.492
23787W        W88772   6.698  10.685   1.380
23788W        W88773  37.687   0.988  11.097
23789W        W88774  39.967  15.086   1.799
23790W        W88775   3.808  35.172   1.862
23791W        W88776  35.306  41.816  11.625
23792W        W88777   7.949  25.649   2.642
23793W        W88778   8.116  36.031  11.618
23794W        W88779   1.227  41.937   2.242
23795W        W88780  20.093  13.186  14.999
23796W        W88781  30.656  10.871   4.214
23797W        W88782  22.159  31.496  11.694
23798W        W88783   5.340   6.501   2.859
23799W        W88784  33.785  32.822   3.365
23800W        W88785  10.817  13.283   3.589
23801W        W88786  26.629  43.314   3.579
23802W        W88787   0.031  42.241  12.089
23803W        W88788  18.665  24.119  14.672
23804W        W88789  38.042  19.845   0.800
23805W        W88790  28.997   0.428   3.324
23806W        W88791  12.672   3.172   1.416
23807W        W88792   2.539  43.430  13.755
23808W        W88793  23.107  24.159  11.064
23809W        W88794  41.445  33.153   1.286
23810W        W88795  29.936  12.384  14.254
23811W        W88796  37.921  40.361  12.646
23812W        W88797  22.168  41.916  14.844
23813W        W88798  31.906  44.279   1.211
23814W        W88799   3.070  31.838  11.674
23815W        W88800  17.715  30.610  13.396
23816W        W88801  30.104  28.021  13.289
23817W        W88802  36.380  11.973   4.107
23818W        W88803   3.575  44.973   3.184
23819W        W88804  31.497  26.588  10.814
23820W        W88805  44.255  27.514   2.754
23821W        W88806  13.847  21.126   4.186
23822W        W88807  35.074  43.537  11.245
23823W        W88808  37.328   6.330   4.228
23824W        W88809  23.603  32.390  14.363
23825W        W88810  40.384  26.420  13.021
23826W        W88811  36.626   0.958  13.597
23827W        W88812  28.126  24.061   1.706
23828W        W88813  29.116  42.324  11.265
23829W        W88814  26.471  38.528   0.054
23830W        W88815  10.393  27.663   2.696
23831W        W88816  40.518   8.746  11.175
23832W        W88817  38.540  22.343  12.921
23833W        W88818   3.930   5.336   9.742
23834W        W88819  21.623  37.807  14.896
23835W        W88820  10.442  19.711  12.926
23836W        W88821  26.604  37.677   1.783
23837W        W88822  40.422  23.199  11.608
23838W        W88823  27.157  11.343  14.238
23839W        W88824   1.496  40.351  12.460
23840W        W88825  13.273  14.312   5.053
23841W        W88826  30.699  26.696  10.820
23842W        W88827   7.260  18.231  12.007
23843W        W88828  41.193  42.094  11.958
23844W        W88829  36.491   4.741   1.810
23845W        W88830   5.250  26.075   4.380
23846W        W88831  14.301  22.639  10.622
23847W        W88832  29.519  39.786  11.194
23848W        W88833  43.180  34.515   4.139
23849W        W88834  18.326  12.182  11.586
23850W        W88835  21.139  38.795   3.174
23851W        W88836  30.614  24.425   2.143
23852W        W88837  11.670   8.449   1.722
23853W        W88838  33.917  24.071  11.162
23854W        W88839  10.014   7.095   2.679
23855W        W88840  12.937   6.950   0.801
23856W        W88841  44.880  37.864   2.229
23857W        W88842   2.760  14.596  11.156
23858W        W88843  32.995  10.772   2.222
23859W        W88844  10.221   0.302  14.995
23860W        W88845  27.206  32.925   0.682
23861W        W88846  19.405  40.470  13.767
23862W        W88847   6.780  17.143  12.494
23863W        W88848   8.845  30.286   3.824
23864W        W88849  37.143   7.985  11.180
23865W        W88850  43.041  29.123  14.825
23866W        W88851  26.222  37.805  10.920
23867W        W88852  31.905   5.735  11.963
23868W        W88853  14.746   4.443  13.833
23869W        W88854  39.953  20.549   0.868
23870W        W88855   1.942  33.939   1.709
23871W        W88856  27.193  36.915  12.924
23872W        W88857  14.353   7.765   3.605
23873W        W88858  13.675  36.552  11.632
23874W        W88859  39.388  34.633  14.007
23875W        W88860  33.985  18.337   0.385
23876W        W88861  27.811  25.966  11.901
23877W        W88862  18.462  30.711  13.651
23878W        W88863  37.574   5.508   0.272
23879W        W88864  21.756   1.146   3.405
23880W        W88865  39.926  11.846   3.740
23881W        W88866  33.982  14.500  12.537
23882W        W88867  10.827  23.488   0.509
23883W        W88868   5.001  16.539   2.399
23884W        W88869  35.617  26.775  13.406
23885W        W88870  14.896  26.217   3.626
23886W        W88871  19.986  42.436   0.272
23887W        W88872   7.314  40.368   0.389
23888W        W88873  35.043   1.654  12.442
23889W        W88874  44.247  21.273   1.296
23890W        W88875  20.955  22.759   2.522
23891W        W88876  43.040   7.377  13.616
23892W        W88877  24.892  24.137   1.975
23893W        W88878   2.267   3.093  10.190
23894W        W88879  26.027  23.844   2.221
23895W        W88880  29.961  15.829  11.348
23896W        W88881  15.316  39.135  12.932
23897W        W88882  34.515  24.452   1.044
23898W        W88883  39.935   6.157  14.667
23899W        W88884  15.901   2.060  12.047
23900W        W88885  27.614  27.622  12.866
23901W        W88886  10.482  25.660   1.715
23902W        W88887  23.163   4.250   1.618
23903W        W88888  33.321  10.095  13.319
23904W        W88889  22.979  28.205  14.948
23905W        W88890   9.689  26.619   3.401
23906W        W88891  32.270  10.457  14.386
23907W        W88892   9.375  12.373   0.327
23908W        W88893  40.802   6.200  13.789
23909W        W88894  12.110  34.402  13.915
23910W        W88895  15.191  25.457  11.776
23911W        W88896   1.743  13.388  13.429
23912W        W88897  27.652  31.312  10.236
23913W        W88898  37.418   7.965   1.960
23914W        W88899  17.747  40.531  13.531
23915W        W88900  11.383   1.356   4.216
23916W        W88901  33.580  31.114   1.868
23917W        W88902   7.342   4.690   5.387
23918W        W88903   4.498   8.453  14.508
23919W        W88904  41.307  36.040  10.029
23920W        W88905  32.572  26.690  12.596
23921W        W88906   7.574  32.309   2.268
23922W        W88907  27.516  16.370   4.872
23923W        W88908   3.240  34.627   3.418
23924W        W88909  30.847   1.400   0.296
23925W        W88910  21.105  24.259   4.554
23926W        W88911   3.175   9.451  13.444
23927W        W88912  17.756   9.812   3.382
23928W        W88913  28.336   6.931   0.487
23929W        W88914  38.386  29.944   1.461
23930W        W88915  31.185   3.795  13.936
23931W        W88916  32.441  42.490   2.817
23932W        W88917   5.850  30.174   1.529
23933W        W88918  33.121  15.547  12.003
23934W        W88919  21.894  42.318  11.864
23935W        W88920  12.620  30.899  11.669
23936W        W88921   1.149  18.006   0.302
23937W        W88922   7.946  38.319  14.495
23938W        W88923  27.894   7.291  12.406
23939W        W88924  27.582  17.714   3.259
23940W        W88925   1.143  19.677  13.427
23941W        W88926  17.766  42.356   2.467
23942W        W88927  36.367   0.333   3.780
23943W        W88928  15.280  37.994   1.149
23944W        W88929  28.541  38.796   1.322
23945W        W88930  33.040  31.729  11.513
23946W        W88931  28.148  41.856   3.856
23947W        W88932   9.193  40.366   0.002
23948W        W88933   0.130  25.340  14.449
23949W        W88934  25.890  23.813  11.106
23950W        W88935  39.491   6.731   3.166
23951W        W88936  30.102   9.194  10.761
23952W        W88937  44.094  25.532   5.016
23953W        W88938  24.240  32.016   3.725
23954W        W88939  17.102  12.877   3.137
23955W        W88940  38.415  35.388  13.853
23956W        W88941  37.245   0.824   3.690
23957W        W88942  22.118   5.165   2.457
23958W        W88943   3.865  12.496  10.731
23959W        W88944  11.282  29.541   3.867
23960W        W88945  18.614   2.167   4.151
23961W        W88946  39.967   6.400   4.298
23962W        W88947   0.262  29.610  12.174
23963W        W88948  26.099  33.414   0.302
23964W        W88949  43.190  39.023  12.999
23965W        W88950  18.138  17.043  11.047
23966W        W88951  22.737  38.147   3.038
23967W        W88952   9.652   3.254  12.187
23968W        W88953  20.988  22.081  12.239
23969W        W88954  20.106  22.500  14.450
23970W        W88955  37.793  37.102   0.850
23971W        W88956   0.406  18.308   9.754
23972W        W88957  22.616  21.047   4.691
23973W        W88958   9.693  39.811  13.467
23974W        W88959  27.939  23.089   4.220
23975W        W88960  25.544  26.519   1.852
23976W        W88961  28.634  34.507   0.824
23977W        W88962  13.524  16.226   3.789
23978W        W88963  22.089  20.290   3.091
23979W        W88964  10.829  17.257   0.399
23980W        W88965  11.117   2.413   4.313
23981W        W88966  30.102   4.132   0.482
23982W        W88967   7.749  42.073  10.967
23983W        W88968  40.839  13.131   2.229
23984W        W88969  34.902  37.527  12.974
23985W        W88970  17.199   4.340  12.380
23986W        W88971  39.906  44.797   3.139
23987W        W88972  32.064  33.112   3.610
23988W        W88973   1.476  17.719   4.111
23989W        W88974   5.163  33.539  12.809
23990W        W88975   6.704  34.931   4.193
23991W        W88976  35.082  28.675  14.817
23992W        W88977  44.820  32.582   3.929
23993W        W88978  11.264  36.506  12.959
23994W        W88979  24.159  23.639   0.393
23995W        W88980  26.769  22.770  13.155
23996W        W88981  14.242  23.249   1.822
23997W        W88982  10.382  43.006  10.564
23998W        W88983  17.782  40.840  13.966
23999W        W88984  42.072  23.452  11.930
24000W        W88985  41.355  38.804  13.530
24001W        W88986  31.592  41.799  12.941
24002W        W88987   8.710  24.970  14.470
24003W        W88988   8.618   2.420   2.276
24004W        W88989  29.328   8.649  10.886
24005W        W88990  31.075  35.911   3.320
24006W        W88991  33.366  28.923  14.419
24007W        W88992  40.492  40.695   2.262
24008W        W88993   1.916  18.568  14.032
24009W        W88994  33.157  41.328  11.436
24010W        W88995  34.742  36.291   4.826
24011W        W88996  37.767  32.552  11.178
24012W        W88997  20.969  37.298  10.599
24013W        W88998  35.706  40.823  13.911
24014W        W88999  44.085   9.861  11.177
24015W        W89000  23.729  27.682   1.675
24016W        W89001   6.287  41.424   4.634
24017W        W89002  19.990  18.067   2.196
24018W        W89003  32.591  24.995  10.592
24019W        W89004  32.903   2.057  14.562
24020W        W89005  31.075  13.624  12.628
24021W        W89006  39.752  23.982   3.189
24022W        W89007   5.923  38.563   1.180
24023W        W89008  11.749   2.380  14.015
24024W        W89009  23.937  22.517  12.864
24025W        W89010   9.266  42.541  13.480
24026W        W89011   6.423   4.248   0.342
24027W        W89012   5.860  31.953  10.686
24028W        W89013   2.167   5.430   1.523
24029W        W89014  16.143   1.275  14.437
24030W        W89015  23.063  10.057  11.605
24031W        W89016  11.845  17.853  12.512
24032W        W89017  25.215   8.166  11.030
24033W        W89018  21.269  17.248   4.285
24034W        W89019  19.676   2.460   0.864
24035W        W89020  31.357  30.791   0.707
24036W        W89021  17.126   0.694   2.150
24037W        W89022  38.093  16.083   0.949
24038W        W89023  14.801   1.006   3.785
24039W        W89024  44.917   8.440   3.756
24040W        W89025  20.562  20.277   3.247
24041W        W89026  28.563  23.415  11.580
24042W        W89027  19.626  24.979   0.688
24043W        W89028   2.244  15.613   1.538
24044W        W89029  32.555  38.527   4.377
24045W        W89030  38.367  18.563  11.083
24046W        W89031  34.161  20.089   0.047
24047W        W89032  44.088  13.499   2.753
24048W        W89033  25.031  38.631  11.955
24049W        W89034   6.390  35.470   2.176
24050W        W89035  41.842  30.964   3.996
24051W        W89036   8.263  30.630  10.424
24052W        W89037  35.070  25.221  12.110
24053W        W89038  14.724  14.401   3.536
24054W        W89039  10.019  22.239   0.336
24055W        W89040  40.929  11.255   2.853
24056W        W89041   0.947  22.797   4.304
24057W        W89042  10.398  16.821   3.734
24058W        W89043   1.799   2.821   2.240
24059W        W89044  14.777   1.280  14.454
24060W        W89045  11.890  36.519  13.518
24061W        W89046  12.751  19.281   1.871
24062W        W89047  21.143  27.911  10.708
24063W        W89048  31.729  42.266  11.570
24064W        W89049  11.346  17.411   3.290
24065W        W89050  11.273  27.040  10.477
24066W        W89051  20.073  13.829  11.976
24067W        W89052  44.140  35.577  12.975
24068W        W89053   7.210  22.938  11.916
24069W        W89054   3.139  43.435  10.497
24070W        W89055  25.114   5.844  14.651
24071W        W89056   7.916   6.407  14.540
24072W        W89057   0.817  40.542   0.369
24073W        W89058  33.564  25.412   4.519
24074W        W89059  23.999   2.404   0.712
24075W        W89060  38.542  19.326  12.026
24076W        W89061  10.313  22.753  11.188
24077W        W89062  12.121  22.956  14.411
24078W        W89063   3.981  43.493  12.999
24079W        W89064  22.618   5.780  11.294
24080W        W89065  25.205   4.828   0.485
24081W        W89066  26.936   0.746   2.257
24082W        W89067  31.526   6.150  10.501
24083W        W89068   1.775  14.608  13.905
24084W        W89069  34.984  39.743  12.200
24085W        W89070  19.775  28.416   1.810
24086W        W89071  13.781   1.302  12.808
24087W        W89072   1.725   0.253   1.957
24088W        W89073  42.770   5.911  13.824
24089W        W89074  25.261  20.272  14.643
24090W        W89075  11.557  31.688   4.596
24091W        W89076  21.511  38.532   4.628
24092W        W89077  43.005  10.769  11.813
24093W        W89078   1.243   8.697  13.558
24094W        W89079  40.746  21.966   4.625
24095W        W89080  13.336  39.531   0.356
24096W        W89081  19.763   7.214   0.035
24097W        W89082  28.632   6.240   0.808
24098W        W89083  29.941  36.990   2.822
24099W        W89084  19.439   0.371   3.114
24100W        W89085  15.576  39.833   3.516
24101W        W89086  10.722  28.562   1.185
24102W        W89087  43.255  27.157  14.901
24103W        W89088   0.539  32.480   2.781
24104W        W89089  27.125   9.851   3.946
24105W        W89090  16.818   3.541  10.262
24106W        W89091  23.337   4.922   2.331
24107W        W89092  38.411  36.965   1.863
24108W        W89093  34.796  36.932   1.879
24109W        W89094  20.663  21.856  10.680
24110W        W89095  36.447   8.362   0.908
24111W        W89096  25.990  14.169  14.804
24112W        W89097  35.776   2.375  14.535
24113W        W89098   9.728  44.659  12.547
24114W        W89099  28.802   3.402  11.576
24115W        W89100  37.398  32.698   2.234
24116W        W89101  15.901  26.050   3.769
24117W        W89102  34.638   3.490   4.638
24118W        W89103  28.546  18.307   2.350
24119W        W89104  14.069  14.463  11.977
24120W        W89105   3.014  31.433   3.095
24121W        W89106  25.739   4.725   3.586
24122W        W89107  29.686   1.307  11.489
24123W        W89108  21.146  20.300  13.012
24124W        W89109  35.946  28.254   0.457
24125W        W89110  11.151  37.478   0.951
24126W        W89111   2.709  42.562  12.007
24127W        W89112  42.529  29.173   1.037
24128W        W89113  14.859  41.509  13.568
24129W        W89114  39.123   6.586   4.563
24130W        W89115  22.207  41.172  10.598
24131W        W89116  44.522  34.080   0.986
24132W        W89117  28.680   4.407   1.957
24133W        W89118  36.906  18.317   2.397
24134W        W89119  38.873   1.773  13.052
24135W        W89120   5.247  41.861  10.481
24136W        W89121  44.804  23.830   4.165
24137W        W89122   5.238  24.267  11.599
24138W        W89123  10.708  16.655   2.312
24139W        W89124  32.343   7.396   0.132
24140W        W89125  35.899  36.568   1.353
24141W        W89126   5.557  32.059   2.391
24142W        W89127  43.296  11.855   3.662
24143W        W89128  27.952   7.147   1.633
24144W        W89129   9.140  15.395   3.446
24145W        W89130  18.735  32.376  10.329
24146W        W89131  16.806  22.787  11.228
24147W        W89132  27.168  28.754  13.920
24148W        W89133  39.524   2.973  10.904
24149W        W89134  18.584   4.215   0.275
24150W        W89135  16.751  28.929  13.956
24151W        W89136  42.923  35.199  12.459
24152W        W89137  36.839  24.277  11.070
24153W        W89138  15.327   9.632   3.100
24154W        W89139  38.551   8.991  13.452
24155W        W89140  41.794  44.407  13.796
24156W        W89141  40.278  34.021  12.058
24157W        W89142  12.344  34.618   3.942
24158W        W89143  34.270  18.301   2.267
24159W        W89144   4.848   7.792   3.953
24160W        W89145  41.803  20.784  11.298
24161W        W89146  39.627  11.470   1.676
24162W        W89147   6.515  21.717   1.872
24163W        W89148   9.342   4.913  10.425
24164W        W89149  39.332  23.050   0.426
24165W        W89150  30.274  37.066  12.465
24166W        W89151  11.870   5.171   1.286
24167W        W89152  11.752  15.849  14.445
24168W        W89153  19.312   5.509  10.648
24169W        W89154   7.593  20.194  11.677
24170W        W89155  15.075  39.018   0.337
24171W        W89156  10.895  35.811   1.494
24172W        W89157  18.076  40.781   2.462
24173W        W89158  17.036  27.626  12.450
24174W        W89159   3.492   1.812  11.308
24175W        W89160  35.121  42.883  13.620
24176W        W89161  42.093   1.885   2.477
24177W        W89162  23.146  12.462  10.392
24178W        W89163  34.922  43.065   0.811
24179W        W89164  28.019   5.633   2.314
24180W        W89165  10.781  25.440  11.664
24181W        W89166  30.066  32.685   4.097
24182W        W89167   0.776   4.959  13.846
24183W        W89168  41.536  24.524  12.963
24184W        W89169   8.662  13.174   2.327
24185W        W89170  14.058   5.921   3.143
24186W        W89171  17.152  40.338   5.022
24187W        W89172   0.332   3.889   2.657
24188W        W89173   7.597  14.689  10.593
24189W        W89174  40.740   9.201  11.118
24190W        W89175  33.863   6.871   1.231
24191W        W89176  40.925  43.757  14.360
24192W        W89177  24.221  18.644  13.921
24193W        W89178   1.912   5.771   3.299
24194W        W89179  38.837   5.744  13.062
24195W        W89180  35.074  18.620  12.221
24196W        W89181  12.362  20.048  13.416
24197W        W89182  13.932  21.034   3.274
24198W        W89183  44.984  28.958   0.394
24199W        W89184  30.086  42.767  11.058
24200W        W89185  41.556   1.399   4.271
24201W        W89186  29.814  14.306  11.524
24202W        W89187  15.652   2.021  12.509
24203W        W89188  44.219  33.991   4.667
24204W        W89189  13.641  43.353   0.257
24205W        W89190  24.685  23.260  14.333
24206W        W89191  16.035  11.589   2.300
24207W        W89192   8.617  20.853   3.816
24208W        W89193  34.889  29.368   4.649
24209W        W89194  43.984  21.692   4.692
24210W        W89195   2.966  26.039   4.393
24211W        W89196  39.910   4.225   2.638
24212W        W89197   1.982  39.906  11.665
24213W        W89198  36.425  32.425   0.847
24214W        W89199  18.720  21.115  12.006
24215W        W89200   1.956  19.391   4.236
24216W        W89201   8.335   7.490   3.162
24217W        W89202  20.977  15.438   4.039
24218W        W89203  15.644  19.614  14.383
24219W        W89204  11.224  14.594   0.271
24220W        W89205  26.850  17.021   3.369
24221W        W89206  22.576  44.832   3.061
24222W        W89207  27.110  35.970   0.453
24223W        W89208  43.182   6.087   4.699
24224W        W89209  16.293  39.333   4.026
24225W        W89210   7.384  23.746  13.928
24226W        W89211   3.382  39.301   4.295
24227W        W89212  31.874  24.090   3.796
24228W        W89213  22.630   1.862   4.630
24229W        W89214  39.943  21.767   1.330
24230W        W89215   0.605  20.275  13.120
24231W        W89216   9.896   7.608   4.152
24232W        W89217  12.822   1.556   4.051
24233W        W89218  10.124  12.678  13.281
24234W        W89219  40.878  17.807   0.838
24235W        W89220  10.140  37.808  13.961
24236W        W89221   2.691  12.232  12.874
24237W        W89222  13.863  14.369   1.919
24238W        W89223   7.712  12.846  13.105
24239W        W89224  19.726   5.214  10.557
24240W        W89225  29.873  16.998  14.914
24241W        W89226  21.043  39.252  10.949
24242W        W89227  31.422  28.431   3.679
24243W        W89228   8.597  13.250  13.450
24244W        W89229  43.274   2.096   2.536
24245W        W89230  42.001  43.134  12.327
24246W        W89231  35.553   7.402  14.621
24247W        W89232  21.242  14.862  11.142
24248W        W89233  17.281  35.914  13.455
24249W        W89234  18.171  38.400  12.495
24250W        W89235  15.793  17.074  14.449
24251W        W89236  31.639  37.874   4.037
24252W        W89237  13.830  15.167  14.852
24253W        W89238  41.018  38.641  11.504
24254W        W89239   7.463  26.542   1.438
24255W        W89240  10.171   3.943   2.402
24256W        W89241  38.492  36.432   0.847
24257W        W89242  39.693  37.345  11.038
24258W        W89243  17.034  14.827  10.888
24259W        W89244  28.193  31.894   4.144
24260W        W89245  42.317   1.350  12.858
24261W        W89246  42.326  25.803  13.475
24262W        W89247   5.142   7.176  14.509
24263W        W89248   0.266  15.347   4.132
24264W        W89249   3.040  19.663  11.541
24265W        W89250  12.171  11.224   2.680
24266W        W89251  36.073   0.694  12.177
24267W        W89252  20.811   5.435   1.679
24268W        W89253   3.895  44.599   4.472
24269W        W89254  39.314   6.076   2.672
24270W        W89255  36.870   0.980   1.282
24271W        W89256  34.543  25.486   4.436
24272W        W89257  29.616  43.689   2.892
24273W        W89258  18.317  24.110   0.377
24274W        W89259  33.831  23.242   4.824
24275W        W89260  39.619  33.880   0.355
24276W        W89261  13.647  37.876   4.455
24277W        W89262  37.365   7.947  13.520
24278W        W89263  28.938  37.792   0.347
24279W        W89264  28.511  17.158  12.085
24280W        W89265  27.764   2.253   2.254
24281W        W89266  27.785  41.096   0.211
24282W        W89267   0.205  26.168  11.856
24283W        W89268  10.288   3.404  13.527
24284W        W89269  44.458  13.243  14.135
24285W        W89270  11.693  42.080  10.559
24286W        W89271  38.884  29.187  11.322
24287W        W89272  15.367   1.236   1.423
24288W        W89273  17.024   2.309   1.038
24289W        W89274  29.268  17.269  13.055
24290W        W89275  10.367  11.804   3.650
24291W        W89276  43.202  28.084   1.331
24292W        W89277   1.765  28.885  11.916
24293W        W89278   1.121  17.416  14.062
24294W        W89279  13.829  40.580  10.978
24295W        W89280  17.809  40.376  12.212
24296W        W89281  29.225   1.358   1.417
24297W        W89282  40.362  43.314  13.877
24298W        W89283  32.453  12.519  10.227
24299W        W89284  29.225  13.765  12.569
24300W        W89285  16.146  10.263   0.968
24301W        W89286  10.191   1.954  12.471
24302W        W89287  29.558  40.867  11.989
24303W        W89288  25.661  23.729   3.259
24304W        W89289  11.910  28.051  14.850
24305W        W89290  40.992  26.645   2.245
24306W        W89291   6.788  14.152   3.593
24307W        W89292  11.649  13.267  13.055
24308W        W89293  12.735  40.399   0.267
24309W        W89294   2.292  13.363  12.842
24310W        W89295  27.820  27.583  10.683
24311W        W89296   6.730  17.793  10.748
24312W        W89297  27.002  43.402  12.442
24313W        W89298  28.124  14.949  13.553
24314W        W89299  41.375  33.801  14.390
24315W        W89300   0.310   6.245  12.952
24316W        W89301  29.215   8.200  13.867
24317W        W89302  10.162   6.381   9.782
24318W        W89303   5.114  36.760   2.237
24319W        W89304  24.674  21.415   0.029
24320W        W89305   5.755  30.826   0.020
24321W        W89306  10.202   2.005  13.364
24322W        W89307  27.316  13.779   2.490
24323W        W89308  43.387  38.606  12.774
24324W        W89309  40.008   9.849  13.509
24325W        W89310  34.821  39.284   2.730
24326W        W89311   6.985  21.847   4.603
24327W        W89312  26.146  41.527   3.574
24328W        W89313   5.152  21.295   1.750
24329W        W89314  37.291  33.419   2.740
24330W        W89315  41.863   3.708  12.933
24331W        W89316  27.949  31.592  14.243
24332W        W89317  40.279  36.070   2.657
24333W        W89318  43.721  27.597  14.200
24334W        W89319  33.625  23.199   4.342
24335W        W89320   2.723  11.950   4.819
24336W        W89321  21.782  14.016  11.213
24337W        W89322  43.452  13.211  13.961
24338W        W89323   1.999   8.282   0.992
24339W        W89324   7.013  29.487   4.151
24340W        W89325  35.566  15.719  14.023
24341W        W89326  34.926  44.018   2.446
24342W        W89327  12.104  42.441   0.652
24343W        W89328  16.086  30.038   5.075
24344W        W89329  36.836  38.059   0.301
24345W        W89330  44.121  21.238  13.054
24346W        W89331  20.026  19.861  12.825
24347W        W89332  25.656   5.795   2.786
24348W        W89333  36.395   3.037  10.028
24349W        W89334  40.053  26.000   3.360
24350W        W89335  20.239  16.952  11.125
24351W        W89336  18.466  14.001  11.495
24352W        W89337  29.933  20.486  14.870
24353W        W89338  42.503  13.341   4.508
24354W        W89339   6.853   1.292  14.482
24355W        W89340  23.966  38.135  11.176
24356W        W89341  36.518  14.324   0.169
24357W        W89342  33.601  37.835  14.899
24358W        W89343  37.232  28.925   3.349
24359W        W89344  31.142  18.610   2.866
24360W        W89345  10.437  39.787   1.649
24361W        W89346  11.285  21.711  10.730
24362W        W89347  25.487   5.675  10.652
24363W        W89348   4.364  16.898   0.201
24364W        W89349  34.566  16.688  11.261
24365W        W89350  23.956   1.374  13.790
24366W        W89351   4.422  16.694  13.899
24367W        W89352   4.498  33.060   2.782
24368W        W89353  19.149  29.594  13.761
24369W        W89354  26.229  36.804   4.185
24370W        W89355  17.910  15.675   3.683
24371W        W89356  38.368   3.788   1.385
24372W        W89357  27.909   5.000  12.891
24373W        W89358   0.919   5.694  14.283
24374W        W89359  31.637   5.304   4.564
24375W        W89360  41.412  15.136  10.276
24376W        W89361  23.256  20.002  11.532
24377W        W89362  33.825  21.935   1.584
24378W        W89363  11.136  44.439  13.834
24379W        W89364   4.690  30.456   4.617
24380W        W89365   6.445  40.456   2.858
24381W        W89366  40.428  24.177   1.450
24382W        W89367  16.369  29.932  13.445
24383W        W89368  15.704  32.486  13.597
24384W        W89369  23.956  44.872   2.827
24385W        W89370   0.238   2.984   2.189
24386W        W89371   9.628  31.110   1.308
24387W        W89372  33.575   7.126  12.271
24388W        W89373  13.008   0.955  13.358
24389W        W89374  24.415  10.688   2.276
24390W        W89375  14.617  22.757   0.268
24391W        W89376  31.895  26.944   2.765
24392W        W89377   0.329  18.846  11.023
24393W        W89378   9.868   3.803  13.768
24394W        W89379  11.433  24.775   2.836
24395W        W89380  25.615   6.372  14.650
24396W        W89381  10.437  15.534   0.793
24397W        W89382  32.572  21.701   0.357
24398W        W89383  16.297   1.884  10.472
24399W        W89384   7.438   3.259  13.859
24400W        W89385   5.236  39.359  10.814
24401W        W89386  26.894  10.729   2.195
24402W        W89387  43.870  11.149  13.442
24403W        W89388  33.130  24.504   3.535
24404W        W89389  18.346   8.418  11.547
24405W        W89390  32.086  27.589   1.103
24406W        W89391  41.008   9.971   4.406
24407W        W89392  10.351  10.232  11.176
24408W        W89393   3.658  35.877  11.122
24409W        W89394  44.689  31.343   3.810
24410W        W89395  40.310  19.545   0.335
24411W        W89396  33.717   2.732   1.251
24412W        W89397  43.675  18.026  10.295
24413W        W89398  36.031  27.865   4.708
24414W        W89399  32.030   5.822  13.381
24415W        W89400   1.656  33.043  11.644
24416W        W89401   3.688   9.750   0.704
24417W        W89402  42.244  13.064  13.011
24418W        W89403  17.230  25.565   1.115
24419W        W89404  11.818   2.161   3.635
24420W        W89405   5.508  22.689   4.036
24421W        W89406  27.396  33.550   0.841
24422W        W89407  14.812   4.985   3.685
24423W        W89408  34.417   3.651  10.831
24424W        W89409  21.885  22.223  12.456
24425W        W89410  19.057   5.827   4.849
24426W        W89411  36.403   5.335   1.887
24427W        W89412  17.576  14.382   2.247
24428W        W89413  11.921  17.465   0.990
24429W        W89414   3.698  18.015   0.550
24430W        W89415  28.636  41.475   4.547
24431W        W89416  27.673   2.876   1.813
24432W        W89417  16.535   3.664   4.971
24433W        W89418  22.929  38.876  12.479
24434W        W89419  18.597  38.365   4.105
24435W        W89420  31.600  44.339  10.744
24436W        W89421  21.261  27.016   5.179
24437W        W89422  31.357  25.022  14.587
24438W        W89423   3.945   5.895   2.603
24439W        W89424  39.798  35.433  12.055
24440W        W89425  17.576  20.972   2.235
24441W        W89426  31.505  17.114  11.900
24442W        W89427   1.186  34.374   3.728
24443W        W89428  24.079  29.218   0.890
24444W        W89429  19.845  18.287  12.963
24445W        W89430  14.769  18.967   4.511
24446W        W89431  22.835  16.135   1.789
24447W        W89432  27.690   3.613   3.743
24448W        W89433  12.346   8.297   0.002
24449W        W89434  26.478  15.074   3.397
24450W        W89435  12.831  28.050  11.357
24451W        W89436  10.947  34.442  11.710
24452W        W89437   0.733  13.648  14.911
24453W        W89438  33.241   5.911  11.108
24454W        W89439  26.221  22.960   3.412
24455W        W89440  29.515  32.043   3.473
24456W        W89441  14.843  15.712  13.455
24457W        W89442  25.953  26.235   3.776
24458W        W89443  13.170  44.924   1.058
24459W        W89444  13.678  41.072  10.947
24460W        W89445  28.951  18.952  13.408
24461W        W89446  39.116   9.111   2.577
24462W        W89447  25.456   2.716   1.194
24463W        W89448  10.643  43.044   3.257
24464W        W89449   2.790  14.455   0.732
24465W        W89450  23.636  33.696   3.949
24466W        W89451  27.644  37.744  11.029
24467W        W89452  25.671   5.246  14.366
24468W        W89453  29.237   9.964  12.939
24469W        W89454  44.328  18.718  14.626
24470W        W89455  43.878  20.785   1.813
24471W        W89456  42.550  40.952   0.193
24472W        W89457  22.193  41.025   4.652
24473W        W89458   1.684  11.871  12.357
24474W        W89459  31.295  40.930  11.556
24475W        W89460  39.823  21.487  13.095
24476W        W89461  38.838   4.633  14.810
24477W        W89462  36.345  30.889   1.712
24478W        W89463   8.120  38.924   4.294
24479W        W89464  39.705  43.087   1.277
24480W        W89465  28.822  37.959   4.708
24481W        W89466   8.707  38.925  14.571
24482W        W89467  42.267  35.507  12.991
24483W        W89468   2.097  10.234   4.063
24484W        W89469   1.710  28.130  10.693
24485W        W89470  19.221  20.761  12.075
24486W        W89471  40.771  16.590  12.499
24487W        W89472   3.201  38.881   4.641
24488W        W89473  30.373  42.494   3.320
24489W        W89474  42.367  38.914  10.673
24490W        W89475   5.477  27.098   0.421
24491W        W89476  24.604  26.033  13.903
24492W        W89477  10.894  29.664  12.513
24493W        W89478  38.416  24.180  13.139
24494W        W89479  34.373  20.759   1.771
24495W        W89480  40.238   5.874   0.420
24496W        W89481  17.722  16.203   3.312
24497W        W89482   1.009  44.407   0.960
24498W        W89483  27.350   3.298   1.819
24499W        W89484   2.745  20.815   2.297
24500W        W89485  43.924  13.981   5.293
24501W        W89486   6.373  17.810  12.437
24502W        W89487  25.491  40.385   0.427
24503W        W89488  25.288  12.121   3.639
24504W        W89489  33.108  28.273  10.869
24505W        W89490  40.850  13.586   4.711
24506W        W89491  19.676  39.992   2.809
24507W        W89492  33.662   4.469  13.104
24508W        W89493  31.862  13.286   1.858
24509W        W89494   8.130  21.854  11.798
24510W        W89495  21.665  20.175   2.730
24511W        W89496  35.252   8.170   3.147
24512W        W89497  22.126  41.010  14.310
24513W        W89498  10.545  11.250  14.472
24514W        W89499  36.561  21.438   4.536
24515W        W89500  17.895  19.068  14.927
24516W        W89501  44.057   0.207   0.250
24517W        W89502   4.706   2.030   1.848
24518W        W89503  30.424  10.436   0.072
24519W        W89504  11.397  38.029   3.753
24520W        W89505  41.942  22.018   4.132
24521W        W89506   8.650  20.110  10.437
24522W        W89507  17.727  38.944   1.617
24523W        W89508  38.102  29.146   2.755
24524W        W89509  21.756   1.507  10.708
24525W        W89510  17.921  24.955  11.206
24526W        W89511  13.793   3.351  12.941
24527W        W89512  39.037   2.802   3.577
24528W        W89513   1.914  20.632   3.356
24529W        W89514  40.277   7.143  12.396
24530W        W89515  38.057  13.517  13.502
24531W        W89516  37.981  26.780   2.757
24532W        W89517  30.003  44.007   3.036
24533W        W89518  25.944  20.536  10.860
24534W        W89519   3.324   9.114   1.602
24535W        W89520  22.030  33.511   4.691
24536W        W89521   9.206  31.192  11.647
24537W        W89522   3.324  41.870   0.911
24538W        W89523  41.697  37.345  12.594
24539W        W89524   7.504  42.728   5.161
24540W        W89525   4.366   8.863   2.212
24541W        W89526   6.253  34.595   0.209
24542W        W89527   6.243  42.533   4.769
24543W        W89528  17.488  37.235  12.633
24544W        W89529  20.514  13.887  10.700
24545W        W89530  36.529  41.909  11.125
24546W        W89531  28.445  25.537   4.499
24547W        W89532   9.745  39.390   1.210
24548W        W89533  15.798  19.295   4.133
24549W        W89534  44.926  41.940  14.705
24550W        W89535  35.974  33.854  13.497
24551W        W89536  20.968  18.984  13.909
24552W        W89537   5.612   7.790   3.282
24553W        W89538   9.452  21.483   1.771
24554W        W89539  28.446  39.760   0.383
24555W        W89540  35.718  27.460   4.698
24556W        W89541  27.009  11.741  13.803
24557W        W89542  15.158  12.842  11.221
24558W        W89543  26.969  32.669  14.411
24559W        W89544  23.222  35.972   0.011
24560W        W89545   8.878  10.200  12.847
24561W        W89546  11.444  11.139   0.818
24562W        W89547  24.722   4.055  12.425
24563W        W89548  23.129  13.878   2.424
24564W        W89549  31.331  14.172  11.538
24565W        W89550  29.494  25.582  11.586
24566W        W89551  28.464  17.940   0.383
24567W        W89552  42.349   7.354   3.710
24568W        W89553  31.239  38.992   2.345
24569W        W89554   2.243  28.450   2.272
24570W        W89555  41.024  43.826   4.357
24571W        W89556  21.222  19.018  11.986
24572W        W89557  19.692  30.798   3.467
24573W        W89558   0.824  41.217   2.401
24574W        W89559  34.825  24.057   0.825
24575W        W89560  34.842  34.615   0.931
24576W        W89561  16.652  39.393   2.597
24577W        W89562   7.264  25.414   0.998
24578W        W89563  18.648  26.565   1.952
24579W        W89564  22.302  21.735   4.171
24580W        W89565  38.104  27.059   2.337
24581W        W89566  27.543  39.999   4.379
24582W        W89567  30.122  11.344  14.307
24583W        W89568   2.940  43.210   1.234
24584W        W89569  17.708  41.590  11.374
24585W        W89570   7.217   5.258   2.236
24586W        W89571   1.537  13.420   2.620
24587W        W89572  36.084  11.495  13.750
24588W        W89573  22.270  10.747   0.786
24589W        W89574  35.930  25.425  12.020
24590W        W89575  30.143  31.107   0.675
24591W        W89576  37.353  13.779   0.808
24592W        W89577  29.459  10.791  13.124
24593W        W89578  22.600  44.886  13.421
24594W        W89579  18.224  16.278   1.458
24595W        W89580  35.290  25.999   4.351
24596W        W89581   9.029  39.875   4.563
24597W        W89582  25.319  24.000   4.875
24598W        W89583  40.822   0.204   1.404
24599W        W89584  41.064   6.336  12.497
24600W        W89585  25.585  21.133   3.464
24601W        W89586  30.650  15.438  10.109
24602W        W89587  43.096  23.093   2.771
24603W        W89588  29.184  40.021  12.237
24604W        W89589  39.307  27.127  12.891
24605W        W89590  40.586   7.389   4.165
24606W        W89591  11.135   1.774  13.615
24607W        W89592  43.491  30.366   3.718
24608W        W89593  21.051   9.966  11.512
24609W        W89594  10.827  35.588  14.009
24610W        W89595   3.896  38.474   0.895
24611W        W89596  16.563  18.213  14.418
24612W        W89597  24.432  19.287  12.978
24613W        W89598  40.835  42.861  11.493
24614W        W89599  23.729  26.066   0.007
24615W        W89600   4.190   7.859  11.536
24616W        W89601  23.702  42.234   0.864
24617W        W89602   5.144  25.667   2.101
24618W        W89603  40.552  33.850  13.617
24619W        W89604  41.088  10.731   3.214
24620W        W89605  42.915   0.772  13.874
24621W        W89606  39.260  28.582  12.454
24622W        W89607  25.576   3.383   2.017
24623W        W89608   8.460   1.535  14.193
24624W        W89609  40.020  27.978   1.326
24625W        W89610  38.241   2.963   3.822
24626W        W89611  28.985  39.316   3.255
24627W        W89612  15.122  26.098   0.767
24628W        W89613  23.197   7.891  12.987
24629W        W89614  35.417  15.061   4.070
24630W        W89615  36.354  37.321  12.682
24631W        W89616  25.678  43.597  10.890
24632W        W89617   7.075  25.738   0.153
24633W        W89618  42.943  44.052  14.324
24634W        W89619  13.799  23.527  13.466
24635W        W89620  13.865  34.563   4.656
24636W        W89621  40.938   6.258   4.573
24637W        W89622  38.041  33.943   2.256
24638W        W89623   5.113   4.316   3.026
24639W        W89624   5.354  43.339   0.384
24640W        W89625  20.330  32.414   3.792
24641W        W89626  41.467   1.428   0.486
24642W        W89627  35.585  44.720  14.925
24643W        W89628   0.287  15.112  11.987
24644W        W89629  23.887   0.953  13.544
24645W        W89630   8.968  14.090  11.890
24646W        W89631  12.456  21.631   1.204
24647W        W89632   6.760  44.528   4.196
24648W        W89633  40.071   6.343   1.688
24649W        W89634  21.145  17.184  10.948
24650W        W89635  21.040  28.757  13.925
24651W        W89636  17.728   4.800   2.733
24652W        W89637  38.831  25.055   2.220
24653W        W89638   7.319  14.165  11.949
24654W        W89639  24.238  13.713   1.138
24655W        W89640  34.149  14.543  13.028
24656W        W89641   9.183  19.817  14.417
24657W        W89642  18.786  32.685  11.592
24658W        W89643  44.533  11.757   4.076
24659W        W89644  39.420  22.656   2.397
24660W        W89645  10.319  38.189   3.189
24661W        W89646  36.532  26.737   4.899
24662W        W89647  11.324  12.675  14.009
24663W        W89648  16.110   3.558   0.272
24664W        W89649   1.354  14.484   3.307
24665W        W89650   1.809  30.919   2.817
24666W        W89651   7.949   1.221  10.955
24667W        W89652  17.207  31.078  12.826
24668W        W89653  42.297  14.801   0.920
24669W        W89654  27.508   9.870   4.293
24670W        W89655  20.633  27.326   0.999
24671W        W89656  25.943  10.907   2.361
24672W        W89657  19.292  10.717  14.277
24673W        W89658  10.272  21.508   4.562
24674W        W89659  12.948   7.600  10.758
24675W        W89660  28.174  43.557   1.272
24676W        W89661   5.174  43.291   4.508
24677W        W89662   4.397  42.266  14.170
24678W        W89663  28.851  40.492  13.822
24679W        W89664  44.416  11.372   0.709
24680W        W89665  21.123  36.299   3.358
24681W        W89666   9.854  37.511   3.881
24682W        W89667  44.783  11.870  13.861
24683W        W89668  39.598  23.549   1.347
24684W        W89669  26.272   7.916  14.980
24685W        W89670  35.847  37.712  10.584
24686W        W89671  42.772   0.809   2.024
24687W        W89672   2.959  20.578  10.713
24688W        W89673  30.981  30.595  14.916
24689W        W89674  42.302  21.616   0.256
24690W        W89675  35.074  12.044   4.697
24691W        W89676  23.179  19.184  12.628
24692W        W89677  25.165  24.724   4.339
24693W        W89678  24.000  44.466   1.455
24694W        W89679  44.228  24.009   3.319
24695W        W89680  26.455  23.121   2.415
24696W        W89681  29.451  10.784   2.709
24697W        W89682  29.574   7.215  11.566
24698W        W89683  42.879  15.132  11.686
24699W        W89684  27.808  22.622   9.991
24700W        W89685  14.056   8.821  14.913
24701W        W89686  14.452  27.917   0.132
24702W        W89687  43.924  29.357   1.466
24703W        W89688  41.862   3.176  11.285
24704W        W89689  28.248  14.113   3.188
24705W        W89690   1.839  13.243  11.190
24706W        W89691  28.717  21.006   3.401
24707W        W89692  14.314  29.806   1.470
24708W        W89693  16.042  35.931   2.325
24709W        W89694  38.399  34.409  14.005
24710W        W89695  20.174  15.763   0.688
24711W        W89696  42.507  14.322  12.530
24712W        W89697   7.370  29.563  10.620
24713W        W89698  15.584  29.786  11.548
24714W        W89699  44.297  44.089  10.707
24715W        W89700   2.113  14.914  11.876
24716W        W89701  17.958  21.276  12.691
24717W        W89702  41.107  33.114  14.910
24718W        W89703  23.911  18.863   0.763
24719W        W89704  33.180  30.645  14.939
24720W        W89705  38.024  32.192   3.817
24721W        W89706  11.374  38.012  12.464
24722W        W89707  10.598   5.265   3.866
24723W        W89708  13.023   4.219   3.372
24724W        W89709  43.694  35.624   3.430
24725W        W89710  25.682  18.835   1.216
24726W        W89711   5.319  27.652   3.432
24727W        W89712   7.860  33.897   4.889
24728W        W89713  11.357  32.849  11.630
24729W        W89714  19.335  24.810   3.127
24730W        W89715  19.795  32.452  11.587
24731W        W89716   3.165   4.402  11.327
24732W        W89717   5.840  37.817   4.930
24733W        W89718  25.128  26.906  12.945
24734W        W89719  12.822  42.774  12.511
24735W        W89720  23.182  18.977   2.682
24736W        W89721  30.889  31.022  11.488
24737W        W89722  23.642  19.108  14.320
24738W        W89723   9.632  31.457   4.192
24739W        W89724   2.731  37.298  10.685
24740W        W89725  29.381  40.958   0.813
24741W        W89726  21.622  25.512  14.572
24742W        W89727  31.693  39.225   4.497
24743W        W89728  11.622  41.913   3.148
24744W        W89729  34.899  33.018   1.452
24745W        W89730  36.683   8.485   5.468
24746W        W89731  11.903  16.114  10.373
24747W        W89732  35.136   7.124   1.954
24748W        W89733  18.109  35.120  13.545
24749W        W89734  28.934  17.537   2.057
24750W        W89735  27.963  20.022  13.764
24751W        W89736  20.558  44.850   2.460
24752W        W89737  28.452  44.055  10.749
24753W        W89738  27.152  19.654   1.174
24754W        W89739  24.479  28.456  12.326
24755W        W89740   0.226  20.546   1.192
24756W        W89741  10.644  42.105   3.136
24757W        W89742   6.807  29.688  13.685
24758W        W89743  29.003   5.267   3.770
24759W        W89744  35.342  38.023  14.519
24760W        W89745  11.800  33.039  12.573
24761W        W89746   9.413  43.870  14.498
24762W        W89747   9.437  30.491   0.893
24763W        W89748  15.222  21.185   2.139
24764W        W89749  23.008  10.101   0.002
24765W        W89750  23.770   8.181  12.196
24766W        W89751   9.300  33.358  10.319
24767W        W89752  12.393  40.892  13.459
24768W        W89753  39.560  14.307   1.936
24769W        W89754  31.091   7.819   1.342
24770W        W89755  44.023  26.478   2.504
24771W        W89756  39.002  26.603   4.636
24772W        W89757   9.115  43.922  12.476
24773W        W89758  11.912  31.673  12.962
24774W        W89759  21.644   4.941  14.028
24775W        W89760   2.006  35.467   3.668
24776W        W89761  25.031   7.137  11.514
24777W        W89762  40.924  42.467  14.734
24778W        W89763  38.468  33.031   3.866
24779W        W89764  32.557  23.157   4.238
24780W        W89765  24.675  44.294   0.850
24781W        W89766  42.507  25.287   2.374
24782W        W89767  44.243   9.491   3.212
24783W        W89768  30.910  39.058   1.953
24784W        W89769  33.636  22.746   1.339
24785W        W89770  12.869   9.777  13.870
24786W        W89771  23.508  19.509   2.286
24787W        W89772  40.826  12.252  13.401
24788W        W89773   5.856  33.640  13.857
24789W        W89774  40.619   1.266  14.132
24790W        W89775  24.559  41.437   4.245
24791W        W89776  32.061  29.440  13.299
24792W        W89777  16.662  29.512  12.200
24793W        W89778   5.869   3.590  12.589
24794W        W89779  22.992  43.913  12.027
24795W        W89780  34.108  43.540  14.026
24796W        W89781   9.300  26.511  12.009
24797W        W89782   2.460  10.804   1.944
24798W        W89783  14.372  32.193   4.487
24799W        W89784  32.885   4.676   0.764
24800W        W89785  26.014  14.236  11.190
24801W        W89786  25.439  39.129   1.931
24802W        W89787  38.898  27.186   3.472
24803W        W89788  38.605  26.590  10.716
24804W        W89789  39.509  30.795  12.973
24805W        W89790  44.049  37.022  11.255
24806W        W89791  15.288  42.480   0.925
24807W        W89792  15.314  21.723  11.702
24808W        W89793  37.480   1.501   4.357
24809W        W89794   2.675  40.106   4.911
24810W        W89795  30.920  20.952   4.652
24811W        W89796  10.016   7.363  14.926
24812W        W89797  11.193  32.436  12.549
24813W        W89798  30.719  41.860   2.767
24814W        W89799  18.046   7.275   0.812
24815W        W89800  19.262   8.846   5.068
24816W        W89801  27.498  17.103   1.994
24817W        W89802  26.462  25.135   3.609
24818W        W89803  15.329  36.046   4.642
24819W        W89804  36.510  39.920  13.235
24820W        W89805  20.344  13.830   2.099
24821W        W89806  44.530  23.497  12.539
24822W        W89807  27.150  17.795   0.941
24823W        W89808  13.701  22.165   1.903
24824W        W89809   5.297  17.102   4.039
24825W        W89810   0.171   5.314   0.729
24826W        W89811  42.102  13.708   2.371
24827W        W89812  34.667  41.792  12.907
24828W        W89813  14.551   1.872   4.161
24829W        W89814  23.166   3.484  11.030
24830W        W89815  10.344  14.071   2.685
24831W        W89816   7.975  44.570  12.895
24832W        W89817  24.510  27.964   3.654
24833W        W89818   1.259  24.198   3.077
24834W        W89819  12.122  29.481   3.307
24835W        W89820  35.125  44.827   4.820
24836W        W89821  43.988  20.344   0.818
24837W        W89822  10.535   0.324   3.745
24838W        W89823  41.368  43.918   2.604
24839W        W89824  10.553  14.628  11.941
24840W        W89825  29.942  33.972  11.831
24841W        W89826  11.770  22.783   4.528
24842W        W89827  40.444   7.197   2.160
24843W        W89828  19.537  15.512  13.963
24844W        W89829  26.683  22.564   4.569
24845W        W89830  43.006  12.359  13.843
24846W        W89831  28.100  36.954  11.492
24847W        W89832   9.005  12.792   2.173
24848W        W89833  14.824   2.280  13.547
24849W        W89834  19.340   0.917  11.536
24850W        W89835  26.061   8.599   3.380
24851W        W89836  26.157  38.001   4.209
24852W        W89837   4.706  27.580   2.770
24853W        W89838  20.262  31.474  14.113
24854W        W89839  33.625  27.889  14.355
24855W        W89840   6.776  19.550   3.755
24856W        W89841  42.903  36.171   2.608
24857W        W89842  36.104  23.955   2.784
24858W        W89843  17.141  29.579  12.354
24859W        W89844  23.421  31.348   1.017
24860W        W89845  25.438  32.852  13.486
24861W        W89846   8.343   0.409   1.320
24862W        W89847  25.679  16.095   4.849
24863W        W89848   4.133   0.998   4.866
24864W        W89849  33.891  38.054   1.765
24865W        W89850  44.820  33.083   1.760
24866W        W89851   5.096  15.192  14.631
24867W        W89852  16.272  39.884   4.281
24868W        W89853  12.072   4.135   4.440
24869W        W89854  27.574   0.476  10.261
24870W        W89855  15.623  43.283   3.136
24871W        W89856   1.861  39.573   0.956
24872W        W89857  10.437   4.871   4.601
24873W        W89858  17.777  21.721   0.310
24874W        W89859  23.978  41.685   4.170
24875W        W89860  26.331  33.928   5.049
24876W        W89861  32.457   0.812  12.175
24877W        W89862  39.410  29.569  11.600
24878W        W89863  20.485   1.465   1.136
24879W        W89864  25.954   0.326   1.206
24880W        W89865  23.542   4.210   1.250
24881W        W89866  33.318  32.018  14.475
24882W        W89867  19.678  39.659  10.674
24883W        W89868   1.303  38.439  11.555
24884W        W89869  13.569  29.086   1.252
24885W        W89870  41.266  16.846   0.531
24886W        W89871   6.641  22.587   3.011
24887W        W89872  24.744  29.920   1.827
24888W        W89873  18.668  21.635   1.844
24889W        W89874  34.564  33.625  12.427
24890W        W89875  40.845  32.535  13.944
24891W        W89876   6.675  14.180  13.479
24892W        W89877   0.467   0.024   2.014
24893W        W89878  19.012  33.209  13.028
24894W        W89879   1.131   0.973  11.091
24895W        W89880   1.859  15.453  11.185
24896W        W89881  13.799  18.203  13.851
24897W        W89882  35.964  14.353   5.161
24898W        W89883   3.267  11.301  12.509
24899W        W89884  35.284  32.594  13.490
24900W        W89885  38.001  12.297   1.359
24901W        W89886  34.167  23.043  14.365
24902W        W89887  38.396   0.703   4.881
24903W        W89888  31.973  16.279   0.983
24904W        W89889  15.350  30.022   0.489
24905W        W89890  30.529   2.322  12.001
24906W        W89891  21.412  25.453   2.829
24907W        W89892  18.784  11.151  14.943
24908W        W89893  23.519  34.923   3.486
24909W        W89894  41.876   1.000   2.398
24910W        W89895  17.875  18.718   5.282
24911W        W89896  33.523  13.784  12.785
24912W        W89897  13.165  12.413  12.124
24913W        W89898   1.411  23.546  11.606
24914W        W89899   2.851  38.851   1.501
24915W        W89900   3.815  13.766   0.902
24916W        W89901   9.888  33.634   4.570
24917W        W89902  19.301  44.030   1.459
24918W        W89903  40.473   9.227  13.159
24919W        W89904  32.961  38.596  14.077
24920W        W89905  37.896  44.958  12.315
24921W        W89906   0.430   1.927  10.693
24922W        W89907  21.772   5.362  13.326
24923W        W89908   6.079  40.498  14.051
24924W        W89909  24.236  11.064   0.425
24925W        W89910  31.478  37.437   4.372
24926W        W89911   4.006   2.764   1.853
24927W        W89912  29.709  28.349  13.953
24928W        W89913  29.640  17.757   0.928
24929W        W89914  12.383  38.103  12.145
24930W        W89915  43.412  42.560   4.374
24931W        W89916  40.728  33.076  11.073
24932W        W89917  44.898  43.110  11.474
24933W        W89918  44.259  32.395   4.188
24934W        W89919  30.543  29.465   5.020
24935W        W89920   1.683  23.285   1.461
24936W        W89921  41.307  40.903  10.727
24937W        W89922  37.030   4.670  13.930
24938W        W89923  37.434  15.498   2.176
24939W        W89924   3.951   7.457  11.174
24940W        W89925  36.326  42.878  12.044
24941W        W89926   5.922  13.860  11.005
24942W        W89927  16.712  33.702   2.660
24943W        W89928  20.716  33.047   0.447
24944W        W89929   1.906  22.509   0.279
24945W        W89930   0.060  25.961   0.245
24946W        W89931  12.339   9.747  13.906
24947W        W89932  39.981  12.856  10.670
24948W        W89933   2.483  31.140  13.397
24949W        W89934  35.258  43.494  14.535
24950W        W89935  33.872  42.767  12.850
24951W        W89936  44.557  18.876   4.176
24952W        W89937   5.276   9.786   4.348
24953W        W89938   4.901   8.270  12.552
24954W        W89939  27.869  31.990   4.540
24955W        W89940  27.448  15.270  13.034
24956W        W89941  13.415   1.280  12.447
24957W        W89942  42.495   8.169   0.235
24958W        W89943   8.076   0.021   2.288
24959W        W89944  18.799  21.772   3.245
24960W        W89945  10.131  25.405   1.424
24961W        W89946  38.527  44.354  11.928
24962W        W89947  43.501  24.645  14.668
24963W        W89948  44.271   4.400   2.782
24964W        W89949  15.535  39.398  11.572
24965W        W89950  41.466   0.776   1.665
24966W        W89951  27.225  26.557  11.540
24967W        W89952  35.588   5.190  14.374
24968W        W89953   8.276  16.634   2.846
24969W        W89954  17.650  31.183  10.948
24970W        W89955  26.545  24.221   3.478
24971W        W89956   7.248   5.437  12.436
24972W        W89957  13.435  41.953  14.188
24973W        W89958  21.853  13.240   0.831
24974W        W89959  34.527  27.036   2.663
24975W        W89960   1.816   8.912  13.414
24976W        W89961  26.176  44.054  10.770
24977W        W89962  33.007  23.988  11.201
24978W        W89963  12.236  30.919   1.336
24979W        W89964  21.617   8.021  14.144
24980W        W89965  23.224  40.845   3.190
24981W        W89966  19.148   6.514  10.482
24982W        W89967   9.875  37.899   4.827
24983W        W89968   6.936  15.485   4.159
24984W        W89969   1.733  40.560   1.798
24985W        W89970  18.595  31.022  11.035
24986W        W89971   1.121  11.592   2.257
24987W        W89972   3.295  10.849   4.472
24988W        W89973  37.630  25.949   1.868
24989W        W89974   0.615  36.963  13.482
24990W        W89975   4.906  35.153   2.690
24991W        W89976  14.502  12.564   4.285
24992W        W89977   6.390  21.685   0.912
24993W        W89978  30.926   9.886  13.418
24994W        W89979  36.895   1.487   2.772
24995W        W89980   3.923  34.949   0.422
24996W        W89981  22.782  42.007  12.927
24997W        W89982  34.376  44.526   3.463
24998W        W89983  15.994  44.072   2.907
24999W        W89984  23.587   8.643  12.619
25000W        W89985  13.697  26.669  12.169
25001W        W89986  26.190  19.765  12.466
25002W        W89987  19.983  20.668   2.568
25003W        W89988  41.606  42.500   3.126
25004W        W89989  40.633  39.352  11.144
25005W        W89990   2.440  33.856  11.120
25006W        W89991   9.122  26.341  11.143
25007W        W89992  30.631  31.130  11.051
25008W        W89993  34.212  13.884  10.909
25009W        W89994  11.238  36.282  11.207
25010W        W89995  27.610   5.128  12.414
25011W        W89996  11.176  15.128   0.218
25012W        W89997  33.819  34.909   2.223
25013W        W89998  38.039  35.894  14.250
25014W        W89999  24.138  41.330   2.403
25015W        W90000   7.661  29.942   3.644
25016W        W90001  16.351  37.393  10.925
25017W        W90002  11.160  26.562   2.157
25018W        W90003  16.022  26.180  12.010
25019W        W90004  25.405   5.822   2.291
25020W        W90005  42.905  41.884   3.671
25021W        W90006   2.503   7.618  11.653
25022W        W90007  43.048   2.070  10.802
25023W        W90008  30.667  37.929   4.179
25024W        W90009  10.230  25.138  10.654
25025W        W90010  43.452  18.631   1.666
25026W        W90011  21.910  19.086  12.596
25027W        W90012  44.782  10.078   0.877
25028W        W90013  39.751  41.529   1.788
25029W        W90014  10.468  22.864   3.312
25030W        W90015  23.683  27.668  10.716
25031W        W90016  14.243  31.656   4.534
25032W        W90017  24.756  29.218   1.404
25033W        W90018   9.293  33.882   1.635
25034W        W90019  38.762  16.868   2.221
25035W        W90020  11.134  20.686   2.885
25036W        W90021  41.733  16.053   3.049
25037W        W90022   4.622  33.602  13.940
25038W        W90023   1.707  34.234   3.674
25039W        W90024  10.939  17.191   3.737
25040W        W90025  28.554  20.731   1.670
25041W        W90026   8.260  34.623   1.285
25042W        W90027   1.937  31.799  10.857
25043W        W90028   9.289  20.483   1.605
25044W        W90029  14.343  17.010   1.280
25045W        W90030  20.632  38.923   3.091
25046W        W90031  10.116  33.498   4.123
25047W        W90032   5.133  33.910  11.615
25048W        W90033  24.925   0.291  11.906
25049W        W90034  14.819  34.192  14.094
25050W        W90035  23.273  34.353  13.675
25051W        W90036  13.935  27.845   2.041
25052W        W90037  34.326  27.712   3.288
25053W        W90038  20.259  13.249  12.679
25054W        W90039   4.652  43.106  10.627
25055W        W90040  24.471  31.813  14.742
25056W        W90041  18.560  24.517   0.566
25057W        W90042   3.809  31.043   1.298
25058W        W90043  12.105  26.441  10.701
25059W        W90044  35.501  17.685   1.825
25060W        W90045  27.631  11.655   0.933
25061W        W90046   4.518  33.852  14.407
25062W        W90047   8.525  11.533   0.339
25063W        W90048  16.621  10.888  12.178
25064W        W90049  23.227  13.041   4.562
25065W        W90050  13.109  25.308   2.090
25066W        W90051  26.153  32.590   0.888
25067W        W90052  27.475   1.029   1.832
25068W        W90053   6.799  39.014  12.512
25069W        W90054  34.893   4.651  11.481
25070W        W90055  28.141  14.537  10.651
25071W        W90056  35.331  29.724   2.255
25072W        W90057  40.535  19.262   0.712
25073W        W90058  26.146   8.608   1.395
25074W        W90059   2.427  39.663  10.776
25075W        W90060   6.872  17.196  13.024
25076W        W90061  16.014  40.000  11.082
25077W        W90062  38.475  36.580  12.893
25078W        W90063  26.105  15.521   0.689
25079W        W90064  23.458  42.907   2.158
25080W        W90065   4.438  33.394   3.738
25081W        W90066  38.881  18.496  14.379
25082W        W90067  23.688  40.590  12.977
25083W        W90068  23.665  30.103   4.557
25084W        W90069  35.946  12.607   3.026
25085W        W90070   7.602  23.147   9.989
25086W        W90071  14.293   8.279   3.806
25087W        W90072  32.476  19.119  12.466
25088W        W90073   1.373  27.918  13.288
25089W        W90074   1.722   2.663   0.452
25090W        W90075  28.911   2.521   3.218
25091W        W90076  13.599  31.995  13.838
25092W        W90077   3.273   8.867  12.226
25093W        W90078   2.412  19.230  14.429
25094W        W90079  22.365  15.633  12.056
25095W        W90080  22.576  16.856   4.460
25096W        W90081   7.174  37.793  12.401
25097W        W90082  18.457  35.133   1.721
25098W        W90083  14.195  41.362  14.453
25099W        W90084  19.763  42.055  12.028
25100W        W90085   2.358  31.421  14.868
25101W        W90086  40.161   7.443  12.865
25102W        W90087   6.927  23.572   1.956
25103W        W90088  30.058  18.561   3.652
25104W        W90089  32.161  25.423   3.637
25105W        W90090  27.202  34.079  14.285
25106W        W90091  15.723  30.210  10.252
25107W        W90092   6.879   4.856   3.575
25108W        W90093  11.984  21.585   3.181
25109W        W90094  38.383  25.215   2.472
25110W        W90095  13.295  19.771  10.990
25111W        W90096  21.008  38.235   2.344
25112W        W90097  15.816  33.118   1.415
25113W        W90098  10.529  26.558   3.754
25114W        W90099  11.004  19.450   4.890
25115W        W90100  32.953   7.911   3.207
25116W        W90101  35.902  33.340  13.479
25117W        W90102  43.029   8.703   2.865
25118W        W90103  21.781  28.845   2.799
25119W        W90104  31.446  10.151   0.884
25120W        W90105  36.296   7.275  12.966
25121W        W90106  42.018  11.154   3.753
25122W        W90107  22.028  27.968  13.155
25123W        W90108  32.472  11.358  11.620
25124W        W90109  11.052   5.308   1.839
25125W        W90110  30.350  17.206  14.870
25126W        W90111   2.354  17.637   0.454
25127W        W90112  31.175  33.547   3.589
25128W        W90113  25.494  10.327   3.620
25129W        W90114  18.042   6.453   2.380
25130W        W90115  24.292  28.591  14.653
25131W        W90116  14.054  31.909   0.786
25132W        W90117  30.099  31.003  12.479
25133W        W90118  13.657  27.961   1.249
25134W        W90119  18.522  44.540   0.002
25135W        W90120   1.331  42.990   4.538
25136W        W90121  27.483   6.682   3.672
25137W        W90122  29.160  21.740   3.596
25138W        W90123  42.299  11.148   0.264
25139W        W90124  17.053  29.198   1.337
25140W        W90125  37.188  26.575   2.191
25141W        W90126   6.496  39.838   0.208
25142W        W90127  33.567   3.881   2.903
25143W        W90128  30.525  11.598   4.579
25144W        W90129  32.599  13.684   0.899
25145W        W90130  12.178  32.382  11.248
25146W        W90131   4.706  38.672  14.863
25147W        W90132  33.531  15.884  14.509
25148W        W90133  42.770   7.711   0.120
25149W        W90134  11.658  25.722   2.744
25150W        W90135  19.477   4.570   4.048
25151W        W90136  20.935  26.952   0.735
25152W        W90137  30.641   6.140  12.095
25153W        W90138  36.530  25.970   2.724
25154W        W90139   2.068  17.116   1.743
25155W        W90140  22.636  37.880   4.056
25156W        W90141  37.111  13.319   0.926
25157W        W90142  22.768  27.893   3.561
25158W        W90143  10.843  38.974  10.614
25159W        W90144  40.529   8.362  13.140
25160W        W90145  32.514  13.867  13.011
25161W        W90146  42.903  25.679   3.762
25162W        W90147   4.193   8.856  11.119
25163W        W90148  17.736  29.566   2.136
25164W        W90149   9.739   2.215   3.318
25165W        W90150  25.507  21.661  13.871
25166W        W90151  37.244  38.790  10.591
25167W        W90152  25.513  14.523  12.800
25168W        W90153  19.965  13.480   0.430
25169W        W90154  42.905  13.801   2.879
25170W        W90155  25.095  24.332   1.267
25171W        W90156  16.264  10.430  13.544
25172W        W90157  31.394  34.844   0.828
25173W        W90158   5.091   2.421   0.767
25174W        W90159  11.726  44.494  10.744
25175W        W90160  14.807  15.596   2.767
25176W        W90161  13.049  15.658   4.489
25177W        W90162  19.247  20.758   1.425
25178W        W90163  44.947  22.886   3.379
25179W        W90164  18.134  35.298  10.623
25180W        W90165  28.374  14.825   2.753
25181W        W90166   0.719  42.540   4.175
25182W        W90167  39.197   4.878  12.022
25183W        W90168  11.118  35.472   4.413
25184W        W90169  22.618   8.839   1.392
25185W        W90170  19.122  17.216   0.787
25186W        W90171   4.715   6.700  14.349
25187W        W90172  41.758   2.397  13.885
25188W        W90173  18.604  16.172   3.181
25189W        W90174   8.810  26.686  12.060
25190W        W90175  44.515   9.796   4.637
25191W        W90176  14.172  34.878   1.446
25192W        W90177  17.339  20.985  14.022
25193W        W90178  21.430  26.446   0.323
25194W        W90179  25.650  32.197  12.906
25195W        W90180   9.431  30.376  13.513
25196W        W90181  38.458  18.631  10.195
25197W        W90182   9.829  33.454  11.077
25198W        W90183   0.507  14.561   4.128
25199W        W90184  16.207   2.645   4.548
25200W        W90185  25.002  10.423  10.774
25201W        W90186  20.981   1.329  13.466
25202W        W90187   5.096  16.542  14.913
25203W        W90188   2.644   5.736  11.145
25204W        W90189  18.596  34.497  12.568
25205W        W90190  16.844  28.654  14.448
25206W        W90191  34.387  21.348   4.951
25207W        W90192   0.378  37.114   0.598
25208W        W90193   2.011  14.675  14.372
25209W        W90194  35.067  13.182  12.532
25210W        W90195   2.381  27.797  11.539
25211W        W90196  44.244  13.272  12.390
25212W        W90197  40.468  34.913   2.291
25213W        W90198  39.135  26.445   2.162
25214W        W90199  28.628   6.312   2.701
25215W        W90200  31.986  11.807   2.282
25216W        W90201   3.419  10.228   0.719
25217W        W90202  19.452  35.417  11.604
25218W        W90203  29.463  27.729   3.589
25219W        W90204  33.827  15.242  13.654
25220W        W90205  19.978   8.724   2.887
25221W        W90206  32.056   0.546   1.013
25222W        W90207  18.800  37.916   2.800
25223W        W90208   6.167  11.184   1.698
25224W        W90209   5.493  39.822  10.714
25225W        W90210  41.440  28.189   1.887
25226W        W90211  11.032   6.713  10.126
25227W        W90212   8.416   9.303   4.746
25228W        W90213   5.023  27.193   0.646
25229W        W90214   3.718  42.663   3.284
25230W        W90215  31.159   1.822   0.306
25231W        W90216  44.244  10.796   1.970
25232W        W90217  18.757   5.101   4.012
25233W        W90218  19.988   6.724   2.331
25234W        W90219   3.976   8.522   3.226
25235W        W90220   4.704   4.554  13.990
25236W        W90221  40.661  14.661   5.237
25237W        W90222  38.141  40.401   3.254
25238W        W90223  14.259  28.885  12.231
25239W        W90224  16.608   9.199  12.541
25240W        W90225  43.844  30.992  14.592
25241W        W90226   8.142  12.819   0.308
25242W        W90227  41.706   2.771   2.885
25243W        W90228   0.778  29.537   3.716
25244W        W90229  25.229   4.364   0.254
25245W        W90230  35.577  28.633  11.556
25246W        W90231  29.504  33.080  10.114
25247W        W90232   1.931  40.945  13.447
25248W        W90233  41.935   4.129  14.423
25249W        W90234  12.964  17.479   4.232
25250W        W90235  33.790   0.700   3.208
25251W        W90236  26.290  16.531  11.648
25252W        W90237   6.709  44.720  14.495
25253W        W90238  31.339  22.947   1.185
25254W        W90239  20.788   4.554   0.012
25255W        W90240  18.641  24.029   3.162
25256W        W90241  15.904  23.829   3.413
25257W        W90242  37.415  11.723  13.813
25258W        W90243   3.631  38.574   1.367
25259W        W90244  23.120  20.926  11.947
25260W        W90245  13.176  12.521  13.034
25261W        W90246   6.852  35.772  14.942
25262W        W90247   5.932  21.947  11.998
25263W        W90248  15.144  43.464   3.228
25264W        W90249  13.475  37.870   2.922
25265W        W90250  42.061  11.105  10.800
25266W        W90251  14.842  39.553   0.252
25267W        W90252  15.382  36.131  13.364
25268W        W90253  10.908  12.839   3.063
25269W        W90254   0.854   3.030  14.211
25270W        W90255  12.087  25.175  14.722
25271W        W90256  21.210  14.121   4.540
25272W        W90257   1.580   2.761   1.255
25273W        W90258  13.627  41.312   2.213
25274W        W90259  15.838  27.890  13.900
25275W        W90260  35.475  26.158  13.450
25276W        W90261  13.115  15.057  13.113
25277W        W90262  17.094  37.341  12.034
25278W        W90263  18.807  39.118  13.065
25279W        W90264  38.930  27.533   0.777
25280W        W90265  36.112  22.102   0.437
25281W        W90266  23.159  33.940  13.360
25282W        W90267  37.574  32.549   1.747
25283W        W90268  22.491   1.798   2.500
25284W        W90269  25.164  34.402  12.346
25285W        W90270  15.553  42.421   1.813
25286W        W90271  27.658   0.729   0.463
25287W        W90272  12.476   2.995   0.941
25288W        W90273  30.634  37.924   0.758
25289W        W90274  35.528  25.926  11.121
25290W        W90275   9.445  29.697  13.988
25291W        W90276  30.990  19.028   4.050
25292W        W90277  38.097  17.316  11.061
25293W        W90278   8.441  30.538   1.180
25294W        W90279  38.517  22.252  11.127
25295W        W90280   8.751  16.552   0.416
25296W        W90281  19.038  43.335   0.244
25297W        W90282  38.493  34.946   0.661
25298W        W90283  10.700  40.831  12.902
25299W        W90284  39.938  28.330   0.238
25300W        W90285   6.667  31.025   2.749
25301W        W90286  10.183  10.324  14.822
25302W        W90287  25.543  15.582  12.165
25303W        W90288  13.950  33.103  12.317
25304W        W90289  22.903  12.767  11.642
25305W        W90290   6.337  38.890   1.281
25306W        W90291  16.689  26.452  11.137
25307W        W90292  29.979  33.322  13.956
25308W        W90293   6.765  41.846  13.546
25309W        W90294  38.312   0.921   0.893
25310W        W90295  23.606  14.554   4.052
25311W        W90296  40.336   1.017  11.586
25312W        W90297  35.854   2.161   1.458
25313W        W90298  28.418  39.566   3.635
25314W        W90299  30.337   9.127   3.697
25315W        W90300  27.249  16.159  14.873
25316W        W90301  21.510  36.491   1.764
25317W        W90302  35.646  33.983   4.664
25318W        W90303  26.287  25.325   0.840
25319W        W90304  39.600  30.531   1.089
25320W        W90305  12.140  38.929   3.658
25321W        W90306  41.221   1.909  11.260
25322W        W90307  11.979  22.128   0.462
25323W        W90308  10.388  11.328  13.817
25324W        W90309   3.760  31.444   4.649
25325W        W90310  43.126  36.122  10.588
25326W        W90311  41.459   3.784   2.134
25327W        W90312  17.273   0.212  10.551
25328W        W90313  42.050   1.767  10.544
25329W        W90314  14.151   5.551   4.554
25330W        W90315   0.213   7.342  13.396
25331W        W90316  29.205  33.683  10.115
25332W        W90317  15.824  42.163  11.195
25333W        W90318   3.232  39.446   0.352
25334W        W90319  17.074  14.150  12.086
25335W        W90320  28.632  18.861   2.471
25336W        W90321  31.009  21.750   4.212
25337W        W90322  41.865  28.298   5.472
25338W        W90323   4.408  31.249   3.519
25339W        W90324  25.219  40.685  14.200
25340W        W90325  13.500  25.983   0.945
25341W        W90326  40.036   0.801   4.855
25342W        W90327  44.341   9.572   0.273
25343W        W90328  19.354  17.961  13.815
25344W        W90329   4.785  43.827   1.361
25345W        W90330   1.842  30.491   4.556
25346W        W90331  25.009  28.205  11.162
25347W        W90332  21.084  34.030   4.732
25348W        W90333  44.381  12.644   2.745
25349W        W90334  43.660  37.359   0.317
25350W        W90335  40.448  30.426   4.490
25351W        W90336  10.196  12.706  14.820
25352W        W90337  18.219  12.076   3.766
25353W        W90338  13.593  14.237   3.285
25354W        W90339  34.025  18.061   2.700
25355W        W90340   9.265   1.377   4.388
25356W        W90341  15.163   0.480  13.503
25357W        W90342  43.562  27.990   2.773
25358W        W90343  20.213  22.606   4.716
25359W        W90344  21.992  15.705   2.269
25360W        W90345  34.065  34.549   0.508
25361W        W90346  19.518   2.907   3.287
25362W        W90347  44.571  43.237  13.486
25363W        W90348  40.034  22.999   4.625
25364W        W90349  26.147   3.094   5.022
25365W        W90350   4.370  21.710  14.878
25366W        W90351  22.239  24.150  14.367
25367W        W90352  30.102  10.826   3.361
25368W        W90353  18.303  37.329  11.576
25369W        W90354   2.397  12.655   1.866
25370W        W90355  43.823  34.688  11.190
25371W        W90356  22.530  23.705  10.836
25372W        W90357   3.401   1.944  14.736
25373W        W90358  41.426  37.060   2.633
25374W        W90359  22.179  16.225  10.771
25375W        W90360   1.182  34.176  12.648
25376W        W90361  40.509  28.453   0.336
25377W        W90362  35.911  36.472  14.948
25378W        W90363  42.473   4.522  11.242
25379W        W90364  41.751  33.118  11.543
25380W        W90365   6.162  26.575  12.712
25381W        W90366   8.818  41.763  11.249
25382W        W90367  10.295  40.038  12.761
25383W        W90368  43.413  22.599   0.925
25384W        W90369  38.962   1.485   0.944
25385W        W90370  34.637  40.461  10.776
25386W        W90371   3.881  11.164  12.989
25387W        W90372  32.505  10.697   0.401
25388W        W90373  25.120  29.207  11.137
25389W        W90374  43.835   1.349   2.294
25390W        W90375   3.351  24.139   1.690
25391W        W90376  15.191  33.501   0.780
25392W        W90377  12.410  28.107  14.833
25393W        W90378   1.791  28.116   2.868
25394W        W90379  43.194   7.753  14.771
25395W        W90380   1.440  41.227  11.118
25396W        W90381  33.959  11.158   2.330
25397W        W90382  40.378  18.778   1.271
25398W        W90383  15.356  35.218   0.764
25399W        W90384  16.937   6.709   4.602
25400W        W90385  30.417  27.426  12.269
25401W        W90386   6.855   8.536  14.060
25402W        W90387  13.935  19.500   4.819
25403W        W90388  31.472  20.080  13.306
25404W        W90389  25.751  27.363   0.767
25405W        W90390  35.185  39.176  10.674
25406W        W90391   9.610   8.628  14.760
25407W        W90392  31.027   5.443   1.835
25408W        W90393  41.539  30.859   2.220
25409W        W90394  30.399   6.887   3.290
25410W        W90395  25.965  37.917  10.477
25411W        W90396  33.090  38.621   4.488
25412W        W90397  18.245  11.718  10.726
25413W        W90398  17.773   2.053  10.651
25414W        W90399  11.220  35.683   4.879
25415W        W90400  19.642  12.613   1.400
25416W        W90401  33.500  28.049   2.582
25417W        W90402  19.698   1.186  12.532
25418W        W90403  27.580  33.702  12.015
25419W        W90404  16.373  43.426   4.469
25420W        W90405  30.193   7.274   3.825
25421W        W90406  31.093  41.268   3.217
25422W        W90407   5.346  12.275  11.621
25423W        W90408   7.909  41.955   2.613
25424W        W90409   2.475  41.759   1.495
25425W        W90410   8.197   8.487  10.171
25426W        W90411   8.310  43.765   2.235
25427W        W90412  14.457  27.055   5.468
25428W        W90413   3.950  16.115   4.723
25429W        W90414   9.878  26.981  13.542
25430W        W90415  17.556   3.394  14.051
25431W        W90416  41.389  30.140  12.003
25432W        W90417  16.128   0.411   1.906
25433W        W90418  41.349  27.947   4.876
25434W        W90419  26.064   7.842  13.974
25435W        W90420  43.001  43.510  10.645
25436W        W90421  26.280  41.763  13.844
25437W        W90422  35.737  37.632  13.873
25438W        W90423  12.166  19.944   2.564
25439W        W90424  44.735  33.400  12.459
25440W        W90425  36.459  28.802  14.946
25441W        W90426   7.633  20.627  13.439
25442W        W90427  43.713  11.973  10.879
25443W        W90428  17.124  36.909  11.061
25444W        W90429  30.876  17.082  13.889
25445W        W90430  34.054  17.230  10.576
25446W        W90431  34.374  22.179   2.849
25447W        W90432  24.923  21.087  11.856
25448W        W90433  31.352  30.407   4.560
25449W        W90434  39.135  38.729   4.885
25450W        W90435  16.699  12.124   3.222
25451W        W90436   9.211   3.456  13.641
25452W        W90437  19.827  24.256  13.850
25453W        W90438  31.641  17.638   4.122
25454W        W90439  15.726  13.416  14.361
25455W        W90440  15.404  25.629   1.693
25456W        W90441  40.572   6.739  12.497
25457W        W90442  37.404  25.294  10.167
25458W        W90443   6.922  25.144   1.368
25459W        W90444  38.839  18.262  13.904
25460W        W90445  27.010   4.643  12.961
25461W        W90446  33.558  35.634   1.913
25462W        W90447  31.921  24.568   0.804
25463W        W90448  19.323  21.675  10.461
25464W        W90449   0.962   1.032   3.210
25465W        W90450  17.083  31.167  10.118
25466W        W90451  12.701  19.663  11.617
25467W        W90452  31.057  20.782  12.441
25468W        W90453  28.375  24.482   1.133
25469W        W90454  15.163  36.594  13.384
25470W        W90455  39.620  21.207   0.140
25471W        W90456  15.776  33.487   2.331
25472W        W90457  29.941  38.219  10.711
25473W        W90458   5.833   5.283   1.734
25474W        W90459  13.222  23.535   4.581
25475W        W90460  27.555   7.897   1.827
25476W        W90461   0.547  12.994  11.203
25477W        W90462  12.642  33.850  11.855
25478W        W90463  33.635   4.934   2.258
25479W        W90464   0.729  41.044   3.147
25480W        W90465  37.434  39.295   1.832
25481W        W90466  36.181  39.756  14.034
25482W        W90467  44.881  22.530  14.451
25483W        W90468  24.529  22.030   3.042
25484W        W90469   7.131   6.766  13.996
25485W        W90470   6.912  34.442  11.610
25486W        W90471  12.651  32.718   2.265
25487W        W90472  22.120  30.920  10.629
25488W        W90473   1.302   5.283   4.507
25489W        W90474  25.701  27.391  10.200
25490W        W90475  31.437  34.556   1.982
25491W        W90476  22.108  24.651  13.599
25492W        W90477  38.442  30.516   1.345
25493W        W90478  18.374  27.226   1.766
25494W        W90479  25.609  38.374  14.437
25495W        W90480   3.720   2.181  11.589
25496W        W90481  25.398   0.879  14.216
25497W        W90482  34.949  42.291   1.281
25498W        W90483  12.725   4.458  14.299
25499W        W90484  42.453  29.584   5.332
25500W        W90485  23.656  10.355  11.092
25501W        W90486  18.477  11.895  12.917
25502W        W90487  19.708  23.031  13.644
25503W        W90488  25.939  37.321   4.989
25504W        W90489  24.608   0.912  14.856
25505W        W90490  35.407  30.998   2.302
25506W        W90491   4.873   1.073   0.882
25507W        W90492   7.143  41.377   0.049
25508W        W90493  10.721  21.195   0.080
25509W        W90494  25.554  29.051   0.949
25510W        W90495  21.160  21.290   1.350
25511W        W90496  31.779  11.197  13.502
25512W        W90497  39.158   1.382  12.860
25513W        W90498  34.917  23.462   0.003
25514W        W90499  20.210   3.232  10.521
25515W        W90500  44.883   5.312   4.141
25516W        W90501  20.269  25.678  13.513
25517W        W90502  41.238  10.272   4.764
25518W        W90503  18.268  37.629   0.451
25519W        W90504  35.563   0.853   3.717
25520W        W90505  16.486  43.023   1.284
25521W        W90506  40.383   2.854  14.434
25522W        W90507   5.357  29.709  11.544
25523W        W90508  13.085  41.053  12.000
25524W        W90509   7.275   2.672   3.582
25525W        W90510  23.648   8.620   1.251
25526W        W90511   5.132   1.459   4.127
25527W        W90512  43.440   8.738  14.691
25528W        W90513  14.461  21.674  10.680
25529W        W90514  42.051  31.698  14.927
25530W        W90515  18.333   6.786  12.084
25531W        W90516  26.221   6.693   1.823
25532W        W90517  15.387  20.732  10.851
25533W        W90518  27.620   2.492   3.072
25534W        W90519   6.631  39.076   4.201
25535W        W90520  20.304  13.105   2.677
25536W        W90521   9.984  10.917  13.166
25537W        W90522  30.775  32.178  12.652
25538W        W90523  35.235  41.380   0.953
25539W        W90524  19.207  23.989  14.907
25540W        W90525  32.864  19.430   4.515
25541W        W90526  43.869   9.613  13.831
25542W        W90527  40.819  31.029  12.994
25543W        W90528  24.693  10.625   1.341
25544W        W90529  10.138  15.146   1.502
25545W        W90530  39.373   9.436  12.107
25546W        W90531  25.830   7.745   3.181
25547W        W90532  23.045  32.038   4.457
25548W        W90533  28.998   1.794   1.243
25549W        W90534  11.418   3.988   1.469
25550W        W90535  24.900  28.763   0.318
25551W        W90536   2.190  23.915  13.434
25552W        W90537  13.509  33.599  10.721
25553W        W90538  40.373   0.564   3.264
25554W        W90539  14.694  32.601  12.401
25555W        W90540  26.311  44.703   1.772
25556W        W90541  20.342  34.083  13.766
25557W        W90542  28.136  23.993  14.299
25558W        W90543  34.327  17.795   2.388
25559W        W90544  20.185  33.202  11.486
25560W        W90545  26.720  26.528  11.533
25561W        W90546  29.459  34.140  12.912
25562W        W90547   4.968  29.848   9.832
25563W        W90548  28.992  32.445  12.241
25564W        W90549  29.878  39.248  12.875
25565W        W90550   7.192  38.323  12.398
25566W        W90551  31.781   8.104   9.948
25567W        W90552  18.507  34.532   1.788
25568W        W90553  31.762   1.161   5.005
25569W        W90554  36.028   1.622   0.153
25570W        W90555  13.243   5.543   4.496
25571W        W90556   2.423  10.904   4.021
25572W        W90557  27.272  40.935   2.343
25573W        W90558  28.137  35.641   3.753
25574W        W90559   9.150  41.303   3.677
25575W        W90560  20.670  35.416   3.153
25576W        W90561  14.741  35.353   2.757
25577W        W90562  29.599  21.133  13.471
25578W        W90563  41.737  11.815   0.381
25579W        W90564  30.106  32.232   5.052
25580W        W90565  44.409  29.624   0.712
25581W        W90566  13.876   8.701  11.169
25582W        W90567   6.333  25.666  12.488
25583W        W90568  20.676   5.646   3.395
25584W        W90569   0.312   6.727  13.167
25585W        W90570  35.509  44.259  13.278
25586W        W90571  29.721  25.181  14.242
25587W        W90572  37.047  12.591  13.885
25588W        W90573  23.225  17.684   2.539
25589W        W90574  14.918  12.192   4.291
25590W        W90575   2.080   6.551   2.718
25591W        W90576  36.472  35.504   3.921
25592W        W90577  20.141  32.896   3.991
25593W        W90578  18.291  10.067   5.276
25594W        W90579   4.827  20.419   5.089
25595W        W90580  24.033  35.915  14.736
25596W        W90581  30.476  42.859  11.617
25597W        W90582   1.042  32.100  14.524
25598W        W90583  10.412   6.122  10.725
25599W        W90584  33.946   9.272  12.136
25600W        W90585  14.208   7.476  10.663
25601W        W90586   2.253  24.643  13.947
25602W        W90587   5.922  44.712   0.394
25603W        W90588  42.922  10.676   4.739
25604W        W90589  16.298  17.104   4.149
25605W        W90590  13.369   2.284   3.668
25606W        W90591  41.295  37.979  13.946
25607W        W90592  35.885  12.175   2.733
25608W        W90593   8.153  24.152   3.377
25609W        W90594  24.936  40.541   3.667
25610W        W90595   4.058  39.258  12.871
25611W        W90596   9.642  18.559  10.720
25612W        W90597  24.026   9.821   1.145
25613W        W90598  15.681   7.044  13.950
25614W        W90599  23.231  10.354   4.542
25615W        W90600  38.990  31.970   3.654
25616W        W90601  42.394  33.527   4.422
25617W        W90602  38.642   8.986   1.230
25618W        W90603   4.566  29.522  14.743
25619W        W90604   8.359  20.967  13.864
25620W        W90605   3.440  14.181   4.656
25621W        W90606  43.475  38.519  14.857
25622W        W90607  35.017   9.567   2.396
25623W        W90608   5.660   6.869  10.791
25624W        W90609  14.003   8.088   3.422
25625W        W90610  27.218  14.676   4.120
25626W        W90611  30.873  30.225   4.130
25627W        W90612  32.546  44.020   3.580
25628W        W90613  15.772  40.658   4.494
25629W        W90614  27.196   1.202  11.536
25630W        W90615  11.366  26.045   3.756
25631W        W90616  17.020  24.505  12.533
25632W        W90617  26.986  15.315   0.436
25633W        W90618   9.242  39.167   2.344
25634W        W90619  31.643   1.662  10.655
25635W        W90620  38.058  13.284  13.978
25636W        W90621  39.787   4.766   3.172
25637W        W90622  35.280   8.090   0.924
25638W        W90623  20.073   1.834  14.577
25639W        W90624  25.176  28.485  14.466
25640W        W90625  23.524   6.847  11.949
25641W        W90626  35.108  25.491  12.579
25642W        W90627  31.370   6.235   2.132
25643W        W90628  16.712  42.485  11.894
25644W        W90629  22.968  33.348  11.075
25645W        W90630  41.961  34.662   0.273
25646W        W90631  10.124  30.557   4.702
25647W        W90632  42.910  25.048   2.156
25648W        W90633  31.766  35.056   3.112
25649W        W90634   5.330  40.939   0.393
25650W        W90635  44.954   1.917  11.415
25651W        W90636   9.366  30.660  12.552
25652W        W90637  19.244  23.791  13.163
25653W        W90638   1.920  10.815  10.841
25654W        W90639  21.528  36.306   2.242
25655W        W90640  23.432  14.027   4.076
25656W        W90641  14.203  12.536  10.022
25657W        W90642   6.742   2.647   2.864
25658W        W90643   1.780  24.960   1.805
25659W        W90644  44.803  10.124   2.243
25660W        W90645   7.496  40.245  12.400
25661W        W90646  37.858  36.283   4.650
25662W        W90647  12.650  14.007  14.067
25663W        W90648  10.152   2.422   1.315
25664W        W90649  15.913  36.449   2.262
25665W        W90650  20.934   2.753  14.313
25666W        W90651  11.630  35.265  10.615
25667W        W90652   0.347  16.828   3.275
25668W        W90653  21.222  42.708   1.402
25669W        W90654   8.229  10.612   1.341
25670W        W90655  25.456  36.644   3.553
25671W        W90656  18.029  22.163  11.267
25672W        W90657   3.310  22.084   0.015
25673W        W90658   9.312  39.101   0.436
25674W        W90659  21.815  13.122   1.374
25675W        W90660  21.839  14.370  14.143
25676W        W90661  21.947   4.253  12.152
25677W        W90662  33.432   1.477   1.329
25678W        W90663  15.531   3.801  13.460
25679W        W90664  15.179  29.697  14.761
25680W        W90665  25.674  32.546  14.719
25681W        W90666  25.069  40.736   3.196
25682W        W90667  24.962  22.023   4.897
25683W        W90668  35.783  29.724  13.304
25684W        W90669   1.745  32.935   3.182
25685W        W90670  23.019  18.762  12.099
25686W        W90671  25.479  22.146   4.643
25687W        W90672  35.543   1.842  12.535
25688W        W90673  27.697  24.768   1.833
25689W        W90674  30.725   9.671   4.212
25690W        W90675   9.642   7.691  14.749
25691W        W90676  15.354  30.957  13.860
25692W        W90677  10.936  33.081   1.450
25693W        W90678   0.926  15.736   2.635
25694W        W90679  44.207  22.061   0.162
25695W        W90680  12.166  38.996  14.043
25696W        W90681  33.444   9.271   2.168
25697W        W90682  39.132  17.040  10.813
25698W        W90683  30.865  17.261   0.803
25699W        W90684  22.981  25.406  10.658
25700W        W90685  35.144  28.890  12.010
25701W        W90686  35.804  30.542  11.211
25702W        W90687  39.293  23.485   4.369
25703W        W90688  38.876  43.886  14.934
25704W        W90689  24.191  33.529  13.962
25705W        W90690  12.886  25.964  13.555
25706W        W90691  14.381  37.232   2.795
25707W        W90692  36.436  13.402   0.252
25708W        W90693  33.560  15.761   4.119
25709W        W90694  43.339  15.193  13.976
25710W        W90695  11.776  29.686  12.564
25711W        W90696   7.294  13.900   1.320
25712W        W90697  43.638  15.847   1.903
25713W        W90698  41.316  22.300  12.463
25714W        W90699  19.657  33.640  12.114
25715W        W90700  38.361  38.985   4.570
25716W        W90701  17.205  10.155  10.736
25717W        W90702   3.732  17.843  12.500
25718W        W90703  19.739  13.543  14.882
25719W        W90704  11.656  16.627   2.331
25720W        W90705  24.235  12.219  11.932
25721W        W90706  16.124   0.870  10.453
25722W        W90707  44.708  29.057   0.850
25723W        W90708   1.624  26.165  13.846
25724W        W90709   4.365   3.913  11.651
25725W        W90710  16.885  41.610   1.383
25726W        W90711  13.858  43.788   1.864
25727W        W90712  37.287  41.818  10.718
25728W        W90713  16.065  10.666   2.288
25729W        W90714  44.776   9.784  14.424
25730W        W90715   0.177  20.294   0.284
25731W        W90716  16.137  32.438   4.650
25732W        W90717  28.932  29.893  14.294
25733W        W90718  36.871  10.403  11.184
25734W        W90719  20.546  26.486  10.926
25735W        W90720  38.445  20.824   4.587
25736W        W90721  26.216  14.624   2.235
25737W        W90722  29.882  24.552  12.833
25738W        W90723   3.813  16.998  14.069
25739W        W90724  27.531  25.502  10.917
25740W        W90725  27.083  26.204  13.759
25741W        W90726  29.043  41.537   2.346
25742W        W90727  24.671   8.146   1.819
25743W        W90728   7.871   8.674  14.550
25744W        W90729   6.419  44.342  11.914
25745W        W90730  29.477  21.523   0.291
25746W        W90731  18.881  24.871  11.148
25747W        W90732   9.960  20.927  14.393
25748W        W90733  43.373  29.486  12.388
25749W        W90734  17.638  40.777   1.755
25750W        W90735  29.458  32.667  11.507
25751W        W90736  13.050  24.828  10.710
25752W        W90737  24.356   0.988  13.781
25753W        W90738  20.220  30.171   4.528
25754W        W90739  12.992  28.445  11.001
25755W        W90740  15.078  15.785   1.394
25756W        W90741  13.547  25.639  14.113
25757W        W90742  27.993  22.246  10.775
25758W        W90743  24.816  37.541  12.983
25759W        W90744  30.184  23.957   4.713
25760W        W90745  42.289  37.923  13.858
25761W        W90746   8.143  42.286   2.304
25762W        W90747  24.472   5.828  13.941
25763W        W90748  35.167  22.475  13.411
25764W        W90749   5.653   2.256   3.089
25765W        W90750  34.239  31.401   1.854
25766W        W90751   3.438   5.556  11.456
25767W        W90752   2.673  27.588   0.736
25768W        W90753  21.990   8.575  11.860
25769W        W90754  16.338   5.314  11.982
25770W        W90755  24.210  41.975   2.624
25771W        W90756  33.327   5.521   9.940
25772W        W90757   5.798   4.939  11.790
25773W        W90758  10.179  10.720  11.067
25774W        W90759  41.027   8.289  11.495
25775W        W90760  32.366  15.123   2.801
25776W        W90761  16.368  21.428   0.475
25777W        W90762  25.619   5.163  11.617
25778W        W90763   2.324  31.603   2.459
25779W        W90764  15.781  13.807  10.812
25780W        W90765  24.571   8.520   1.283
25781W        W90766  44.750  11.061   4.442
25782W        W90767  11.361  13.664   9.874
25783W        W90768  23.783  43.272  12.518
25784W        W90769  36.536  26.139  12.091
25785W        W90770  32.466   8.125  12.013
25786W        W90771   6.003  35.916  14.781
25787W        W90772  43.497  35.375   9.922
25788W        W90773  17.206  27.458  13.391
25789W        W90774  43.253   9.252  11.158
25790W        W90775  38.398  17.532  10.126
25791W        W90776  32.752  35.785   0.827
25792W        W90777   2.462  41.425   4.241
25793W        W90778  13.330  38.253   2.593
25794W        W90779  43.428  27.043  10.483
25795W        W90780  33.035  18.243   0.255
25796W        W90781   2.320  33.397  14.042
25797W        W90782   5.658  39.038   1.247
25798W        W90783  33.470  11.940   4.031
25799W        W90784  42.799  38.542   3.592
25800W        W90785  32.099  17.816  13.886
25801W        W90786  29.460  39.011   4.479
25802W        W90787   6.892  13.264  14.668
25803W        W90788  26.723  12.702  12.258
25804W        W90789  43.530  16.698   2.662
25805W        W90790  17.507  39.943   3.633
25806W        W90791  32.428  13.710  12.082
25807W        W90792  28.683  20.856   2.635
25808W        W90793   3.465   9.877  13.514
25809W        W90794  43.001  10.542   2.656
25810W        W90795  31.927  24.366  11.963
25811W        W90796  11.542  41.412   1.962
25812W        W90797  25.734   2.891   1.916
25813W        W90798  27.717  20.030   2.654
25814W        W90799  42.275  35.951  10.879
25815W        W90800  28.440  32.985   3.709
25816W        W90801  14.133  31.621  14.414
25817W        W90802  34.631   0.987  11.149
25818W        W90803  12.825  20.270  13.512
25819W        W90804   9.098  36.947   3.657
25820W        W90805  35.061  28.367   4.488
25821W        W90806  34.088  14.841  13.901
25822W        W90807  42.958  25.374  11.915
25823W        W90808  15.810   9.320  12.856
25824W        W90809  29.252  26.971  13.533
25825W        W90810  20.820   0.817   4.320
25826W        W90811  42.820  20.350  14.685
25827W        W90812  24.697  23.152   1.349
25828W        W90813  42.920   7.344  12.393
25829W        W90814  14.214  15.184   3.686
25830W        W90815  10.212  33.680   3.650
25831W        W90816  19.629   3.276  13.879
25832W        W90817  33.607  10.652   3.625
25833W        W90818  12.371  13.835   0.496
25834W        W90819  14.377  22.166  11.880
25835W        W90820  15.357  10.732  13.991
25836W        W90821   7.316  25.472   4.285
25837W        W90822  43.594  33.815   1.054
25838W        W90823  16.499  42.021   2.277
25839W        W90824  20.482  30.167  10.669
25840W        W90825   1.402   1.385   0.270
25841W        W90826  44.873  40.809   0.270
25842W        W90827  42.979   2.008   1.734
25843W        W90828  44.549  11.619  14.346
25844W        W90829  15.657  14.540   1.751
25845W        W90830  14.439   6.830   5.061
25846W        W90831  13.800   7.089  11.373
25847W        W90832  15.742  14.772  12.690
25848W        W90833  38.840   7.867  13.807
25849W        W90834   1.896  31.119   0.826
25850W        W90835  13.853  37.666   3.256
25851W        W90836  30.063  21.471   1.418
25852W        W90837  29.907  27.089   2.943
25853W        W90838  10.001   4.393   1.308
25854W        W90839  16.274  38.833   3.819
25855W        W90840  28.238  10.738   0.515
25856W        W90841  12.775  26.725   1.206
25857W        W90842  15.074  39.759   2.342
25858W        W90843  13.599  28.636   0.752
25859W        W90844  16.052  28.075   1.637
25860W        W90845   2.924   8.108  11.088
25861W        W90846  33.526   1.958  14.949
25862W        W90847  37.353  30.997  13.545
25863W        W90848  23.199  29.880   3.637
25864W        W90849  23.138   6.352  14.098
25865W        W90850  42.603  18.895   4.567
25866W        W90851  42.804  29.484   1.946
25867W        W90852  12.250   4.757   4.837
25868W        W90853  32.724  37.902  11.117
25869W        W90854  27.660   8.329  13.020
25870W        W90855  11.542  29.365  13.846
25871W        W90856  20.695  33.646   4.198
25872W        W90857   9.452  16.286  10.732
25873W        W90858  40.118  18.576   0.880
25874W        W90859  42.217   4.875   0.498
25875W        W90860  30.307  33.564  13.137
25876W        W90861  38.143   8.126  14.374
25877W        W90862  19.140  39.428  10.666
25878W        W90863  31.532  28.682  12.953
25879W        W90864  15.120  13.958   5.179
25880W        W90865  31.610  36.071  12.032
25881W        W90866  25.116  22.135  10.829
25882W        W90867  18.062   2.651  11.238
25883W        W90868   5.411  16.588  12.245
25884W        W90869   2.739  10.439  14.832
25885W        W90870  22.497   6.275  14.787
25886W        W90871  44.330  31.172   1.798
25887W        W90872  19.672  11.438  11.171
25888W        W90873  10.387  43.576   3.370
25889W        W90874  24.470  27.421  11.148
25890W        W90875  42.016  11.210  11.929
25891W        W90876   4.707  22.501  14.940
25892W        W90877  10.111  39.505   2.957
25893W        W90878  10.781  38.091   2.744
25894W        W90879  31.503   7.646   3.673
25895W        W90880  37.737  23.601  12.940
25896W        W90881  21.839  30.552  14.890
25897W        W90882  33.859  34.027  14.343
25898W        W90883  41.482  39.837   0.020
25899W        W90884  11.924  42.607   2.203
25900W        W90885  21.719   0.990   4.005
25901W        W90886  24.901  16.832  13.744
25902W        W90887  20.439  13.308   0.437
25903W        W90888  32.720  11.838   1.367
25904W        W90889  32.843  38.819  13.589
25905W        W90890  33.984  15.595  11.704
25906W        W90891  15.611  12.868   4.989
25907W        W90892  29.152   1.430  14.390
25908W        W90893   8.331   1.413   2.260
25909W        W90894   5.505  41.440  12.358
25910W        W90895  20.007   4.910  14.287
25911W        W90896  12.583  41.296   1.136
25912W        W90897  23.766  18.128  13.387
25913W        W90898  33.389   0.261   0.973
25914W        W90899   5.096  41.347   1.741
25915W        W90900   9.697  34.634   4.560
25916W        W90901  25.614  17.285  14.923
25917W        W90902  22.433  11.451   0.038
25918W        W90903  10.928  20.158   3.187
25919W        W90904  22.384  24.681  12.340
25920W        W90905  30.298  36.379  13.616
25921W        W90906  32.596  19.724   2.769
25922W        W90907  10.916  35.130  13.808
25923W        W90908   2.555   1.963   5.088
25924W        W90909  21.242   9.463   4.555
25925W        W90910   3.781  42.091  12.122
25926W        W90911  17.146  38.287   1.984
25927W        W90912  29.619  35.201  12.821
25928W        W90913  30.669  23.946  11.812
25929W        W90914  35.850   3.876   2.418
25930W        W90915  44.728  26.123   0.608
25931W        W90916  29.003   5.735  14.487
25932W        W90917   4.574  37.339   4.405
25933W        W90918   4.060  11.790   2.935
25934W        W90919  14.284   0.595   2.644
25935W        W90920   5.956  30.524   1.165
25936W        W90921  27.855   4.529   4.670
25937W        W90922  21.949  33.903   3.659
25938W        W90923  20.349  15.291   1.600
25939W        W90924  25.423  29.179  12.071
25940W        W90925  18.503  23.942  10.967
25941W        W90926  41.136  27.883  13.945
25942W        W90927  14.138  32.771   1.032
25943W        W90928  33.116  32.203  11.249
25944W        W90929  22.138  37.759   1.892
25945W        W90930   6.198   7.654  12.001
25946W        W90931  35.421  36.345   3.849
25947W        W90932  11.219  22.301   0.868
25948W        W90933  39.031   4.458   0.523
25949W        W90934  41.797  26.550  12.076
25950W        W90935   2.678  29.124  11.061
25951W        W90936   1.582  34.946  10.770
25952W        W90937  26.562  15.614  12.855
25953W        W90938   7.690  36.610   2.723
25954W        W90939  29.518  14.359   1.747
25955W        W90940  41.375  20.916   5.484
25956W        W90941  43.361  13.288   0.468
25957W        W90942  39.594  42.075  13.165
25958W        W90943  30.677  16.171  12.495
25959W        W90944   3.267  27.618  11.119
25960W        W90945   7.920  30.902  11.970
25961W        W90946   7.958  37.725   1.257
25962W        W90947  39.831   7.648  11.697
25963W        W90948  31.142   5.296   2.314
25964W        W90949  39.123   0.859   4.156
25965W        W90950  39.725  15.797   2.325
25966W        W90951  11.912  41.958   2.729
25967W        W90952  38.063  23.020  14.210
25968W        W90953   0.723  37.551  11.496
25969W        W90954  21.035  35.398  14.649
25970W        W90955  23.070  18.155   3.282
25971W        W90956  10.670  29.521   1.684
25972W        W90957  28.203  35.000  12.009
25973W        W90958  36.321  41.004   2.445
25974W        W90959  19.157  42.921  10.712
25975W        W90960  34.496   1.679  12.960
25976W        W90961  32.161  35.161   4.053
25977W        W90962  36.613  22.305   0.427
25978W        W90963  19.643  12.131   0.359
25979W        W90964   8.883  12.382   4.254
25980W        W90965  10.387  22.045   4.525
25981W        W90966  36.438  29.520  11.403
25982W        W90967  31.143  20.066   1.491
25983W        W90968  11.162  34.073  11.073
25984W        W90969   5.234  37.129  14.709
25985W        W90970   3.201  26.221   0.751
25986W        W90971  28.604  21.468   4.590
25987W        W90972   6.763   6.876   0.540
25988W        W90973  39.351  43.541   4.225
25989W        W90974  34.465   9.744  10.638
25990W        W90975   9.260  13.821   2.154
25991W        W90976  36.501  21.114  10.596
25992W        W90977  35.946  10.619  13.827
25993W        W90978  39.244  44.260   3.685
25994W        W90979  29.088   1.314  12.864
25995W        W90980   8.282  43.931   1.739
25996W        W90981  21.837  35.453   0.681
25997W        W90982  44.813  42.608   2.797
25998W        W90983  40.390  37.098  13.979
25999W        W90984  35.561  20.706   0.399
26000W        W90985  21.731  11.428   0.510
26001W        W90986  32.094  32.679   4.394
26002W        W90987  10.368  41.903   1.299
26003W        W90988   1.234   4.059   2.330
26004W        W90989  13.136   3.569  10.808
26005W        W90990  30.147   0.307  11.590
26006W        W90991  33.468  21.860  10.695
26007W        W90992   3.861  31.696  10.071
26008W        W90993  12.745  22.445   0.109
26009W        W90994  30.978   6.387   0.776
26010W        W90995  21.168  26.253  14.738
26011W        W90996   9.194  15.857  10.657
26012W        W90997  21.957  36.952  11.568
26013W        W90998  12.645  24.123  12.462
26014W        W90999  11.824  33.228   0.784
26015W        W91000   4.427  27.111   4.768
26016W        W91001  23.584  28.186   4.068
26017W        W91002  43.857  14.921   3.978
26018W        W91003  24.170  41.032   2.837
26019W        W91004  18.548  28.995   1.632
26020W        W91005  22.405   6.234   3.382
26021W        W91006   7.748  26.185   4.194
26022W        W91007   9.560   8.034  12.850
26023W        W91008  38.002  11.458  12.483
26024W        W91009  39.088  37.383  14.871
26025W        W91010   7.918  33.158   2.573
26026W        W91011  34.628  44.819   3.807
26027W        W91012  37.585   0.021   4.276
26028W        W91013  22.584  23.936   1.925
26029W        W91014  19.319  11.899   4.527
26030W        W91015  27.434  31.455  13.385
26031W        W91016   9.036   2.985  11.042
26032W        W91017  36.321  29.229   4.818
26033W        W91018  30.059  12.343  10.460
26034W        W91019  30.846   9.146  14.912
26035W        W91020   9.217  21.887  13.218
26036W        W91021  37.104  17.660   0.688
26037W        W91022  22.676  42.075  13.847
26038W        W91023  39.466  15.928  11.565
26039W        W91024  16.149  15.225  14.396
26040W        W91025   5.686   4.117  12.385
26041W        W91026   3.202  32.415   1.221
26042W        W91027  16.540  12.202  13.638
26043W        W91028  14.382  44.478  14.445
26044W        W91029  40.156  17.450  11.885
26045W        W91030  23.033   5.557  12.816
26046W        W91031  27.997  32.315   0.560
26047W        W91032   2.668  31.417   0.467
26048W        W91033  26.710  29.129   2.791
26049W        W91034  34.022  30.895   0.628
26050W        W91035  13.990   4.741  13.784
26051W        W91036  17.354   7.848  11.976
26052W        W91037  33.736  35.423   2.363
26053W        W91038  28.032  10.395   2.820
26054W        W91039  38.485   3.756   0.886
26055W        W91040  36.317  12.763  10.975
26056W        W91041  28.218  11.816  13.591
26057W        W91042   5.113  25.198   1.713
26058W        W91043  19.526  25.664  10.649
26059W        W91044  12.228  37.895   3.786
26060W        W91045  38.944  28.124  13.514
26061W        W91046  15.158  44.338  11.582
26062W        W91047   3.721  17.772  14.388
26063W        W91048  26.125  10.890   3.246
26064W        W91049  12.522  35.989  13.331
26065W        W91050  36.437  31.854  12.304
26066W        W91051  17.501  19.177  13.035
26067W        W91052  25.291  28.442  10.775
26068W        W91053   0.603  33.549   0.288
26069W        W91054  41.307  27.563  12.120
26070W        W91055  16.853  39.453   0.340
26071W        W91056  31.871  27.086   0.261
26072W        W91057   5.452  30.308  12.876
26073W        W91058   7.936  40.065  12.609
26074W        W91059  25.952  18.169  13.732
26075W        W91060   1.218  29.151  14.524
26076W        W91061  34.164  27.418  14.002
26077W        W91062  44.629   5.623  13.823
26078W        W91063  28.514  14.539  13.345
26079W        W91064  43.485  31.991  11.151
26080W        W91065  14.429  33.061   1.353
26081W        W91066  34.512   3.704  14.734
26082W        W91067  24.155  16.309  14.244
26083W        W91068  15.167   4.267  11.069
26084W        W91069  19.338  12.609  10.326
26085W        W91070  24.084  16.907  12.501
26086W        W91071  18.364  24.736   4.266
26087W        W91072  44.180  36.563  14.352
26088W        W91073  41.969  15.726   3.704
26089W        W91074  10.199  44.362  13.840
26090W        W91075  30.442  44.886  11.436
26091W        W91076   1.451  41.971  13.090
26092W        W91077  28.659   5.714   3.856
26093W        W91078  27.224   8.216   3.113
26094W        W91079  17.554  11.316  14.322
26095W        W91080  30.473  32.058   2.140
26096W        W91081  16.563  40.280   0.956
26097W        W91082  14.163  39.890   3.275
26098W        W91083  11.831  37.168   0.430
26099W        W91084  39.817  41.126  10.721
26100W        W91085  37.981  31.588  10.641
26101W        W91086  33.019  20.747  13.956
26102W        W91087  10.658  34.870   4.015
26103W        W91088  28.557   6.483   3.192
26104W        W91089  21.531  12.044   2.418
26105W        W91090  17.363  22.061  13.008
26106W        W91091   5.986   0.824  13.867
26107W        W91092  43.360  38.011   3.387
26108W        W91093  14.912  25.970  13.403
26109W        W91094  17.231  23.169  13.198
26110W        W91095  31.463  15.330  10.557
26111W        W91096  12.623  26.003   0.424
26112W        W91097  37.276  16.186  12.410
26113W        W91098   3.671  28.080   1.752
26114W        W91099  25.562  22.159   2.124
26115W        W91100   3.862  26.871   0.867
26116W        W91101   3.368  21.617   3.829
26117W        W91102  14.753  24.292  11.942
26118W        W91103  11.587  34.809  13.356
26119W        W91104   0.920  21.331   0.053
26120W        W91105  16.718  24.616  14.738
26121W        W91106  15.628  38.304   1.392
26122W        W91107  27.386   3.500  12.828
26123W        W91108  15.161  26.065   4.584
26124W        W91109  13.323  11.071   0.112
26125W        W91110  44.295  22.792  14.454
26126W        W91111  14.782  35.591   3.242
26127W        W91112  42.940   7.178   4.164
26128W        W91113  13.731  41.913  10.566
26129W        W91114  20.028  26.432   2.399
26130W        W91115   2.589  34.870  11.634
26131W        W91116  12.603   5.556   3.387
26132W        W91117  24.646  41.822   1.776
26133W        W91118  42.357  31.113  13.853
26134W        W91119  26.606  27.944   0.353
26135W        W91120  31.633  28.967  12.011
26136W        W91121  23.999  43.112   5.264
26137W        W91122   7.071  17.410  11.571
26138W        W91123  41.452  10.908  12.840
26139W        W91124  11.794  26.148  11.980
26140W        W91125  23.254  21.432   9.937
26141W        W91126  39.466   8.098  12.460
26142W        W91127  44.875  39.385   0.947
26143W        W91128  38.847  40.167  10.260
26144W        W91129  39.382  40.962  13.501
26145W        W91130  32.055  27.449  11.564
26146W        W91131   7.726  20.585  12.006
26147W        W91132  26.039  19.734   2.067
26148W        W91133  18.153  30.931   2.278
26149W        W91134  12.401  38.676  12.922
26150W        W91135  15.083   0.043  12.174
26151W        W91136  34.064  32.050  12.210
26152W        W91137   3.635  16.232  11.562
26153W        W91138  17.276  37.779  12.906
26154W        W91139  32.973  22.465   3.845
26155W        W91140   1.290   0.503  10.911
26156W        W91141  17.378  19.093  14.884
26157W        W91142  29.561  41.154  11.567
26158W        W91143   8.896   6.687   2.861
26159W        W91144  24.781  17.523  11.654
26160W        W91145  35.954   9.148  12.870
26161W        W91146  36.008  39.557   3.185
26162W        W91147  13.730  23.266   3.340
26163W        W91148  13.578  26.020   1.875
26164W        W91149  31.578  14.526   3.797
26165W        W91150  16.561  20.037  13.071
26166W        W91151  14.055  12.824  14.311
26167W        W91152  40.842  23.522  11.621
26168W        W91153   9.673  19.628   0.040
26169W        W91154  29.486   6.198  11.545
26170W        W91155  18.692  19.751  14.060
26171W        W91156  29.156  25.538  13.467
26172W        W91157   6.743  31.790  12.033
26173W        W91158  24.406   5.439  14.802
26174W        W91159  27.124   1.219  12.411
26175W        W91160  31.486  35.851   0.684
26176W        W91161   5.930  22.455   2.303
26177W        W91162   5.233  18.618  13.408
26178W        W91163   9.385   9.930   0.020
26179W        W91164  38.917   0.298   4.285
26180W        W91165  42.060  26.690  14.619
26181W        W91166   2.181  30.142  13.815
26182W        W91167  26.665  44.645  10.099
26183W        W91168  42.842  20.052   2.158
26184W        W91169  16.418   5.714   2.625
26185W        W91170  19.616  30.043   3.687
26186W        W91171  27.904   8.623   2.702
26187W        W91172  16.292  17.058  12.574
26188W        W91173  26.063  42.553  10.578
26189W        W91174  17.768   1.082   3.859
26190W        W91175  29.708  25.598  14.565
26191W        W91176  25.189  31.534  14.976
26192W        W91177  32.869  42.087   0.478
26193W        W91178  44.995  11.919  10.748
26194W        W91179  11.557  12.284   2.514
26195W        W91180  27.617  28.591  14.523
26196W        W91181   6.350  44.429  12.401
26197W        W91182  13.098   5.428   4.028
26198W        W91183  21.934  39.496  10.877
26199W        W91184  20.963   6.538   2.464
26200W        W91185  10.636  43.958  14.878
26201W        W91186  16.531  36.913  10.374
26202W        W91187  16.560  31.644   3.823
26203W        W91188  32.392  42.250   0.710
26204W        W91189  43.937  16.771   1.908
26205W        W91190  31.445  30.872  13.336
26206W        W91191   3.688  23.764   3.043
26207W        W91192  12.248  16.199  10.757
26208W        W91193  16.546  18.721  11.483
26209W        W91194  15.121  31.350  14.885
26210W        W91195  18.646   5.231  12.496
26211W        W91196   0.970  34.957   3.629
26212W        W91197   0.358  12.719  10.398
26213W        W91198   1.767   9.755  11.557
26214W        W91199   4.159   4.689  11.066
26215W        W91200   7.817  30.760  13.854
26216W        W91201   6.317  34.359  14.219
26217W        W91202  30.472  11.587  13.459
26218W        W91203  22.172  32.327  14.372
26219W        W91204   0.286  42.033  14.335
26220W        W91205  33.566  34.129  10.946
26221W        W91206  14.151   9.346   2.685
26222W        W91207   4.478  40.496   0.793
26223W        W91208  16.165  32.058  13.044
26224W        W91209  18.968  22.664   4.138
26225W        W91210   0.897  32.426  11.256
26226W        W91211  17.226  42.908   3.384
26227W        W91212   2.364  44.936   1.481
26228W        W91213  26.266  43.436  11.488
26229W        W91214   2.414  43.156  11.209
26230W        W91215  44.859  11.590   4.441
26231W        W91216  42.249  34.591   3.242
26232W        W91217  12.997  44.497   0.398
26233W        W91218  40.138  36.913  12.487
26234W        W91219   8.863  25.807  13.203
26235W        W91220  34.759  23.727  10.695
26236W        W91221  17.063   1.366  13.000
26237W        W91222  42.905  28.625   2.948
26238W        W91223  13.160  24.450  13.069
26239W        W91224  20.720  38.133   1.297
26240W        W91225  30.655  34.616  14.294
26241W        W91226  31.893   4.637  11.564
26242W        W91227   3.909   0.539   4.189
26243W        W91228  33.622  13.833   1.026
26244W        W91229  17.636  11.417  11.546
26245W        W91230  15.764  41.197   4.524
26246W        W91231  36.176  26.213   0.342
26247W        W91232  35.840  41.569   4.919
26248W        W91233  14.857  25.634   0.766
26249W        W91234  26.858  12.199  11.265
26250W        W91235  43.282   8.687  12.535
26251W        W91236  11.324  10.181   3.745
26252W        W91237  41.291  26.223   9.835
26253W        W91238   8.896  18.024   4.270
26254W        W91239   0.556   9.127   4.254
26255W        W91240   7.552  13.662  11.976
26256W        W91241   7.164  15.039  14.331
26257W        W91242  34.548  15.130  14.336
26258W        W91243   7.690   2.909   3.759
26259W        W91244  25.475  18.028  11.608
26260W        W91245  12.354   2.002  12.269
26261W        W91246  16.398  25.935   3.683
26262W        W91247   5.692  19.673   3.673
26263W        W91248   3.094  13.581   0.460
26264W        W91249  41.330  40.249   2.785
26265W        W91250   4.708   1.457   0.060
26266W        W91251   9.240  13.709  14.758
26267W        W91252  29.716   4.024  12.259
26268W        W91253  19.729  17.250   3.581
26269W        W91254  39.794  15.226  11.072
26270W        W91255   0.759   2.689   0.370
26271W        W91256  30.449  33.972   4.208
26272W        W91257  25.118  16.470   2.495
26273W        W91258  42.799  10.634   0.461
26274W        W91259  12.519   0.492   0.836
26275W        W91260  27.607   9.229   1.513
26276W        W91261  38.238  22.807  14.956
26277W        W91262  28.073   5.871   1.870
26278W        W91263   7.293  27.113  10.754
26279W        W91264  38.546  22.262  12.033
26280W        W91265  32.927  38.100  14.279
26281W        W91266  12.618   3.738   0.418
26282W        W91267   0.683  38.345   4.173
26283W        W91268  12.338   0.333  12.129
26284W        W91269  34.911  42.329   4.239
26285W        W91270   3.815  15.695   2.271
26286W        W91271  16.008  32.924  14.633
26287W        W91272  26.214  43.452   3.893
26288W        W91273  36.072   0.523  13.588
26289W        W91274  32.945  28.518  14.386
26290W        W91275  29.262  20.275   0.226
26291W        W91276  38.056  41.903  12.087
26292W        W91277  18.672  22.761   4.559
26293W        W91278  16.056   1.307  12.930
26294W        W91279  19.720  26.584   3.792
26295W        W91280  25.708  29.439  13.306
26296W        W91281  27.135  40.954   1.848
26297W        W91282  22.939  17.199  12.903
26298W        W91283  24.036  25.385   9.778
26299W        W91284  20.340   9.599  12.177
26300W        W91285  26.917  39.032   2.666
26301W        W91286  40.456  23.454  13.553
26302W        W91287   7.097   2.407   3.186
26303W        W91288  34.363  37.041   3.095
26304W        W91289  36.940  36.031  13.632
26305W        W91290   9.210  44.057   4.928
26306W        W91291  21.222  24.543   2.566
26307W        W91292  13.066  44.410   4.376
26308W        W91293  10.380  31.539   1.314
26309W        W91294  14.154  34.461   3.408
26310W        W91295  24.006   6.993   3.170
26311W        W91296  27.891   3.353   1.781
26312W        W91297   7.804   4.756  13.612
26313W        W91298  22.541  13.633   2.157
26314W        W91299  33.329   8.983  13.840
26315W        W91300   3.325   0.004  13.373
26316W        W91301   3.739  13.609  13.961
26317W        W91302  35.515  41.268   3.077
26318W        W91303   4.750  17.775   2.785
26319W        W91304  11.930  26.547  14.781
26320W        W91305  41.120  30.377   3.783
26321W        W91306  37.475  13.613  12.889
26322W        W91307  24.491  30.351   3.517
26323W        W91308  44.690   0.513   4.273
26324W        W91309  18.462  42.704  10.439
26325W        W91310  15.115   3.412   1.944
26326W        W91311  38.003  32.990  11.385
26327W        W91312  43.819  10.621  10.703
26328W        W91313   3.650  14.679  13.354
26329W        W91314   8.767  12.324   1.995
26330W        W91315  25.335   8.864   2.864
26331W        W91316  26.281  30.349  10.251
26332W        W91317  30.747  41.965   4.117
26333W        W91318  21.578  18.749   0.335
26334W        W91319   5.165  38.921   1.129
26335W        W91320   4.474   6.910   2.418
26336W        W91321  21.622   7.853   2.670
26337W        W91322  21.992  15.291   2.860
26338W        W91323  15.808  38.038  12.569
26339W        W91324  40.260  20.709   4.994
26340W        W91325  44.151  41.401   3.810
26341W        W91326  32.008  38.606   1.446
26342W        W91327  44.837  43.568  10.921
26343W        W91328  42.592   5.337   1.940
26344W        W91329  43.354  13.743  12.942
26345W        W91330  44.998   1.492   0.365
26346W        W91331   0.888  15.532   1.750
26347W        W91332  38.464  14.940   3.272
26348W        W91333  25.654  28.078   0.429
26349W        W91334  10.386  22.805   0.841
26350W        W91335  39.411  34.366   1.320
26351W        W91336  33.018  32.648  11.608
26352W        W91337  41.428  41.044   2.368
26353W        W91338   2.267  15.635   2.055
26354W        W91339  12.798   8.642   2.704
26355W        W91340  36.865   9.348  13.081
26356W        W91341  25.851  42.059  11.577
26357W        W91342  36.837  33.610   2.300
26358W        W91343  19.672  17.864   0.807
26359W        W91344  28.118  25.683  14.448
26360W        W91345  14.286   7.793  14.492
26361W        W91346  19.145  22.686  10.670
26362W        W91347  31.054  14.790  12.088
26363W        W91348   5.804   1.002   4.315
26364W        W91349  37.864  35.944  11.385
26365W        W91350  33.066  18.736  14.960
26366W        W91351  22.463   4.486  14.732
26367W        W91352   1.491  36.731  11.965
26368W        W91353  33.425  26.906  13.981
26369W        W91354  13.099  20.776  12.552
26370W        W91355  10.850  39.944   0.353
26371W        W91356  39.889  21.895  12.119
26372W        W91357  13.685  40.271  12.942
26373W        W91358   7.664   9.371  12.982
26374W        W91359  36.996  39.751   4.011
26375W        W91360  32.917  34.535   0.757
26376W        W91361  44.423  37.030   4.287
26377W        W91362  11.008   8.173  13.782
26378W        W91363  36.166  35.294   1.378
26379W        W91364   5.160   5.462   2.958
26380W        W91365  22.744  22.232  10.219
26381W        W91366   6.118  19.836  12.106
26382W        W91367   9.714  15.599   4.844
26383W        W91368  26.540  35.298  10.600
26384W        W91369  27.536  34.824   1.235
26385W        W91370  43.839   6.810  14.511
26386W        W91371  33.680  18.939   2.688
26387W        W91372   8.360  41.527  11.579
26388W        W91373  23.990   0.914   1.817
26389W        W91374  22.651  24.978   4.192
26390W        W91375  29.136  44.335  12.624
26391W        W91376  36.832  12.823   1.961
26392W        W91377  42.904   5.424   0.451
26393W        W91378  22.307  39.983   2.543
26394W        W91379   7.401  21.535  10.567
26395W        W91380   6.322  34.870  10.757
26396W        W91381  41.829  11.075  11.397
26397W        W91382   9.952  18.575  13.838
26398W        W91383  11.834   1.019  10.566
26399W        W91384   3.294  23.198   2.757
26400W        W91385  18.529  22.793  10.212
26401W        W91386   9.664   0.298   0.198
26402W        W91387  43.516   7.710   3.354
26403W        W91388   1.433  43.965  12.875
26404W        W91389  22.748  34.960   1.384
26405W        W91390   8.830  39.905  13.115
26406W        W91391   9.876   8.342   0.095
26407W        W91392  42.730  43.344   1.208
26408W        W91393   8.925   8.311   2.610
26409W        W91394  13.736  24.768  11.383
26410W        W91395   2.840  41.817   1.094
26411W        W91396   5.153  31.968   3.252
26412W        W91397  27.402  43.318   0.760
26413W        W91398   4.871  29.548  12.375
26414W        W91399  11.448  19.899  13.403
26415W        W91400  22.480  12.758   2.712
26416W        W91401  34.571  31.545  14.469
26417W        W91402  43.189   8.284   2.335
26418W        W91403  17.558  12.164   3.352
26419W        W91404   6.645   1.385  13.981
26420W        W91405  33.903  12.960  11.164
26421W        W91406  25.924  33.928  13.810
26422W        W91407  32.187  11.114   0.262
26423W        W91408  17.316  39.397  10.760
26424W        W91409  29.897  26.718  12.984
26425W        W91410  10.232  38.963   1.636
26426W        W91411  23.161   0.459   4.488
26427W        W91412  29.236   9.239  12.083
26428W        W91413  22.062  14.889   0.517
26429W        W91414  13.678   6.237   2.082
26430W        W91415   1.488   4.283  14.537
26431W        W91416  32.471  22.223   0.297
26432W        W91417  30.710  14.713  10.578
26433W        W91418  20.740  38.443   0.811
26434W        W91419  25.976  19.641  13.812
26435W        W91420   1.127  25.227  13.117
26436W        W91421  42.290   4.709   3.963
26437W        W91422  34.091  15.499   2.294
26438W        W91423   7.597   7.700  13.168
26439W        W91424  26.980  19.182  13.011
26440W        W91425   8.962  43.222  11.136
26441W        W91426  27.252  12.339  11.667
26442W        W91427  21.181  37.274  14.471
26443W        W91428  36.120   1.552  13.330
26444W        W91429  36.584   1.772  11.536
26445W        W91430  23.727   4.826   0.336
26446W        W91431  44.992   1.818  12.480
26447W        W91432  33.735   2.500  13.879
26448W        W91433  31.920  21.542  14.886
26449W        W91434  39.912  15.847  12.017
26450W        W91435   8.622  41.705  14.647
26451W        W91436  25.376  17.194  14.455
26452W        W91437   6.584  14.727  11.630
26453W        W91438  20.465  13.180   4.946
26454W        W91439  25.697   1.399  12.826
26455W        W91440  33.557  30.080   2.772
26456W        W91441  29.826  28.039  11.031
26457W        W91442  43.483  32.845   2.381
26458W        W91443   6.417  19.798  10.513
26459W        W91444  38.723  33.987   3.644
26460W        W91445  31.561  44.367   4.301
26461W        W91446  12.929   2.011   2.778
26462W        W91447   7.985  44.625   1.385
26463W        W91448  41.734   5.688   0.277
26464W        W91449  27.845  23.377  14.746
26465W        W91450  18.361  15.652  10.537
26466W        W91451  30.383  38.878   4.640
26467W        W91452  38.981  15.694   3.219
26468W        W91453   9.298  13.142   4.115
26469W        W91454  29.121  12.587  11.888
26470W        W91455  23.372  34.083   3.688
26471W        W91456  28.904  11.181  10.520
26472W        W91457  26.583  41.034  11.716
26473W        W91458  27.040  15.612   4.690
26474W        W91459  39.021   1.308  14.614
26475W        W91460   4.747   8.890  11.974
26476W        W91461  32.563   3.521   9.961
26477W        W91462  20.049  23.008  11.882
26478W        W91463  33.356  10.196   1.348
26479W        W91464  19.628  34.945  11.331
26480W        W91465  39.258  40.251  12.950
26481W        W91466  11.856  21.270  14.513
26482W        W91467  31.224  19.184   3.570
26483W        W91468  17.815   4.866  14.920
26484W        W91469  20.420  38.595  13.368
26485W        W91470  32.575  44.243  11.067
26486W        W91471  29.727   1.738   2.766
26487W        W91472   9.903  21.268   1.713
26488W        W91473   8.629  12.618  12.863
26489W        W91474   9.833  41.700  13.515
26490W        W91475  26.394   9.662   0.228
26491W        W91476   8.319  36.558  10.614
26492W        W91477  24.579   7.735   5.259
26493W        W91478  31.721  38.681   3.595
26494W        W91479  18.820  29.504  11.962
26495W        W91480  32.948  18.579   1.542
26496W        W91481  35.311  19.623   0.349
26497W        W91482  25.851  40.544   2.709
26498W        W91483  40.374   5.352  13.013
26499W        W91484  40.342  32.637   4.933
26500W        W91485  40.002  36.359  13.599
26501W        W91486  27.068   2.063   4.482
26502W        W91487  44.971   0.554  11.408
26503W        W91488  41.967  15.608  14.954
26504W        W91489   2.694  28.074  13.476
26505W        W91490  24.602  12.715   3.137
26506W        W91491   8.821   1.288  10.761
26507W        W91492  29.002  17.207  13.492
26508W        W91493  37.199   0.867   4.648
26509W        W91494  22.007  15.731  11.688
26510W        W91495  28.455  36.593  11.615
26511W        W91496  41.880  40.846   2.164
26512W        W91497   6.732  18.310   3.558
26513W        W91498  14.052  31.310   1.939
26514W        W91499  13.754   8.648  14.533
26515W        W91500   2.439  33.007   4.303
26516W        W91501  23.234  44.975  12.818
26517W        W91502  40.047   3.807   4.069
26518W        W91503  10.576  37.484  13.255
26519W        W91504  26.906   3.896  14.328
26520W        W91505  41.757  36.945   2.265
26521W        W91506  36.196  40.006   1.330
26522W        W91507  11.135  20.081  12.530
26523W        W91508  13.298   9.335   4.165
26524W        W91509   7.962  36.378  13.969
26525W        W91510  10.655  28.960   3.932
26526W        W91511  36.928  29.942   4.873
26527W        W91512  32.219  30.299   2.356
26528W        W91513  31.908  18.843  13.242
26529W        W91514  33.484   0.516   2.820
26530W        W91515  38.420  43.198   2.124
26531W        W91516  23.761  21.464   2.906
26532W        W91517  41.441  25.332  14.283
26533W        W91518  41.553  40.585  13.843
26534W        W91519  25.593  29.362   3.677
26535W        W91520  28.441  11.412  13.395
26536W        W91521  33.662  19.783   4.128
26537W        W91522  13.624  28.172   0.453
26538W        W91523  21.574  31.515   3.849
26539W        W91524   5.876  37.999   4.103
26540W        W91525  25.623   2.722  12.951
26541W        W91526  31.518  35.798  11.069
26542W        W91527  23.694  17.649  13.159
26543W        W91528  38.716  38.971  14.491
26544W        W91529   1.210  10.234   1.882
26545W        W91530  10.166  39.405   1.918
26546W        W91531   0.299  24.998  11.497
26547W        W91532  22.072  26.163   4.684
26548W        W91533  10.306  34.497  10.310
26549W        W91534  26.135  19.158  13.953
26550W        W91535  28.872   3.933  12.453
26551W        W91536  36.829  19.528   1.479
26552W        W91537  22.004   5.471   2.867
26553W        W91538  40.327  11.862   3.419
26554W        W91539  31.895   3.305  14.666
26555W        W91540  38.040  13.218  10.701
26556W        W91541  25.997  10.773   4.141
26557W        W91542  10.099  12.465   1.783
26558W        W91543  31.555  37.776  11.988
26559W        W91544  28.646  30.053   0.665
26560W        W91545  31.868  41.804  11.747
26561W        W91546  28.615  27.430  12.406
26562W        W91547  39.938   0.302   2.985
26563W        W91548  37.997  13.289   1.309
26564W        W91549  30.187  32.179   0.415
26565W        W91550  36.355   3.021   0.313
26566W        W91551  32.560  40.781   2.273
26567W        W91552  34.444  42.776   0.019
26568W        W91553  24.635  33.140  11.141
26569W        W91554  42.229  38.966  11.951
26570W        W91555  28.581   0.815  10.323
26571W        W91556   2.008  26.598  12.507
26572W        W91557  14.899  43.991   3.195
26573W        W91558  27.986  16.668   4.863
26574W        W91559  34.903  28.374  13.908
26575W        W91560   0.097   9.099   0.831
26576W        W91561  21.270  23.795  14.347
26577W        W91562  28.064   2.090   1.531
26578W        W91563  31.981  40.949   0.002
26579W        W91564   6.317  20.774   3.787
26580W        W91565  40.166  10.676  12.025
26581W        W91566   5.234   4.815   3.125
26582W        W91567  22.647  29.519  12.620
26583W        W91568  12.789  34.610   3.706
26584W        W91569  40.052  15.975   2.685
26585W        W91570   3.689  39.335  11.395
26586W        W91571  16.682   6.709  14.935
26587W        W91572  28.354  27.904  14.125
26588W        W91573  16.444  44.672  10.158
26589W        W91574  20.219  17.282   3.773
26590W        W91575   9.836  29.275  12.841
26591W        W91576  23.774  29.966  11.687
26592W        W91577  37.800   0.451  12.404
26593W        W91578  31.834  22.387   1.805
26594W        W91579  23.637  10.010   3.622
26595W        W91580  24.646  31.175   2.289
26596W        W91581  24.407   9.869  11.684
26597W        W91582  19.855   6.668   0.827
26598W        W91583  32.966  31.924  13.013
26599W        W91584  22.264  11.906   2.676
26600W        W91585  35.378  25.115   0.278
26601W        W91586   0.718   1.328   2.458
26602W        W91587  16.954  12.208   0.232
26603W        W91588   8.726  41.310  11.964
26604W        W91589   0.117  38.878  12.928
26605W        W91590   7.225  12.293   2.262
26606W        W91591  31.095  14.005   2.376
26607W        W91592  21.020  23.534  11.719
26608W        W91593  13.063  15.677  13.977
26609W        W91594  11.349   7.611  11.608
26610W        W91595  30.055  14.148   0.872
26611W        W91596   7.330  35.538  13.131
26612W        W91597  21.173  21.695  11.566
26613W        W91598  17.195  26.614   2.466
26614W        W91599  38.857   3.427  13.284
26615W        W91600  39.277  23.514  11.378
26616W        W91601  19.145  44.931  10.629
26617W        W91602  25.764  19.172  13.593
26618W        W91603   5.366  14.983   0.488
26619W        W91604   7.241   2.806   2.790
26620W        W91605  14.063  30.206   4.168
26621W        W91606  29.012   6.457   3.568
26622W        W91607  11.411  21.508  14.697
26623W        W91608  22.817  32.347  11.365
26624W        W91609   2.704  11.917   0.923
26625W        W91610  21.968  24.594  11.625
26626W        W91611   5.425  36.780   4.576
26627W        W91612  37.249  33.827   0.129
26628W        W91613  34.333  19.796   1.729
26629W        W91614   2.289  27.995   1.277
26630W        W91615  19.471  41.239   3.776
26631W        W91616  29.006  14.201   4.827
26632W        W91617  42.524  32.985  14.818
26633W        W91618  44.910   1.728  10.383
26634W        W91619  11.373  43.008   2.762
26635W        W91620  32.036  36.452   0.805
26636W        W91621  24.580  40.782  10.727
26637W        W91622  13.357  41.456  11.684
26638W        W91623  24.455  42.623   1.294
26639W        W91624  22.200  24.624  14.117
26640W        W91625  29.494  23.560  10.788
26641W        W91626  24.282  23.713  11.665
26642W        W91627  38.196  33.528   2.807
26643W        W91628  43.383  21.705   1.706
26644W        W91629  23.770  31.095   4.568
26645W        W91630  27.650  42.312  13.375
26646W        W91631   9.655  28.017  13.969
26647W        W91632  41.466  35.675   4.459
26648W        W91633   8.408  34.696   2.924
26649W        W91634  11.896  27.988   3.836
26650W        W91635  16.868   4.674  12.065
26651W        W91636  30.479  38.412  13.106
26652W        W91637  38.396  17.108   5.226
26653W        W91638  12.964  12.699  11.288
26654W        W91639  21.744  11.222   1.887
26655W        W91640   2.901   7.188  10.461
26656W        W91641  35.929  29.934   4.289
26657W        W91642   8.061   7.381   1.425
26658W        W91643  28.933   7.778   3.212
26659W        W91644  38.839   0.336  12.157
26660W        W91645  10.743   1.222   4.246
26661W        W91646  23.669  21.243  12.696
26662W        W91647  44.750  37.622   4.426
26663W        W91648   9.507  22.187   3.724
26664W        W91649   3.709  35.392   0.211
26665W        W91650  41.416  26.995  12.448
26666W        W91651   6.477  20.653  11.561
26667W        W91652  36.468  38.779   0.687
26668W        W91653  18.588   9.208  14.550
26669W        W91654  26.058   9.110  14.049
26670W        W91655   1.355   9.713  13.629
26671W        W91656  34.657  13.352  14.860
26672W        W91657  38.995  16.297  11.157
26673W        W91658  37.480  29.530  10.512
26674W        W91659  20.732  24.573   2.801
26675W        W91660  38.959   6.795   0.428
26676W        W91661   4.131   9.971   3.283
26677W        W91662  30.152   0.412   4.589
26678W        W91663  39.332  10.331   3.998
26679W        W91664  35.036   8.389  12.614
26680W        W91665  15.484  23.550  11.908
26681W        W91666   7.265  28.686  11.684
26682W        W91667  12.176  19.473   4.408
26683W        W91668  43.325  41.098   2.028
26684W        W91669  26.967  38.369  14.955
26685W        W91670  14.379  34.063  13.851
26686W        W91671  44.395  26.155  10.761
26687W        W91672   0.895  44.563  11.550
26688W        W91673  42.885  14.122  13.302
26689W        W91674  25.072  37.387   3.378
26690W        W91675  23.687  37.467   1.945
26691W        W91676  41.847  20.577   4.289
26692W        W91677   6.698   1.337  14.992
26693W        W91678  16.739   5.154   0.788
26694W        W91679  34.125  14.286   1.624
26695W        W91680  38.747  30.316   1.710
26696W        W91681  23.556   6.703  14.255
26697W        W91682  43.862  10.610  13.426
26698W        W91683  31.327  25.477   1.021
26699W        W91684   4.873  43.821  11.654
26700W        W91685  44.523  25.916  13.458
26701W        W91686  39.981  42.745  11.418
26702W        W91687  24.572   7.413   4.776
26703W        W91688  35.472  18.357  14.618
26704W        W91689  42.933  24.190   3.647
26705W        W91690  26.140  34.008   3.058
26706W        W91691  33.530  16.128  10.848
26707W        W91692  36.101  19.555  11.024
26708W        W91693  12.305  26.541  10.237
26709W        W91694  17.229  37.853   0.935
26710W        W91695  20.695   3.961  12.118
26711W        W91696  15.309  20.243   2.161
26712W        W91697   2.955  28.737   2.988
26713W        W91698  10.005  37.062  13.041
26714W        W91699  40.089  26.173   1.959
26715W        W91700  12.254   7.234   4.956
26716W        W91701  34.605  11.634  11.140
26717W        W91702  22.708  38.489  14.962
26718W        W91703   2.474  21.541  10.699
26719W        W91704  28.336  19.288   4.831
26720W        W91705  13.552   1.829   3.847
26721W        W91706   7.213  38.478   3.460
26722W        W91707  30.691  19.539  13.362
26723W        W91708  16.598  37.881  14.388
26724W        W91709  32.848  25.988  11.197
26725W        W91710  26.455  15.956  11.880
26726W        W91711  32.930  23.538   3.252
26727W        W91712   3.703  10.922   1.343
26728W        W91713  27.619  34.891  10.936
26729W        W91714   3.848   2.921   0.242
26730W        W91715  30.875  10.108   2.634
26731W        W91716   6.274  37.263   4.165
26732W        W91717  12.384  43.563  12.546
26733W        W91718  43.409  26.207   4.259
26734W        W91719  30.891  20.217   1.901
26735W        W91720   3.212  39.523  11.262
26736W        W91721  36.476  32.458  10.501
26737W        W91722  28.275   4.720  13.532
26738W        W91723  27.776  21.629   9.691
26739W        W91724   8.218  17.893   2.290
26740W        W91725  31.875  13.645  12.136
26741W        W91726   9.133  32.633  12.963
26742W        W91727  30.922   3.786   2.690
26743W        W91728  17.316  37.559  11.201
26744W        W91729   6.465  18.950   2.022
26745W        W91730  37.382  43.057  11.244
26746W        W91731  25.027   8.543   3.614
26747W        W91732  37.378  31.117   1.680
26748W        W91733  24.208  30.673  11.803
26749W        W91734  22.189  39.307   0.717
26750W        W91735   2.369   0.048   4.237
26751W        W91736  18.479  14.471  13.455
26752W        W91737  14.252  10.010   0.708
26753W        W91738  21.772  34.833   1.309
26754W        W91739  34.115  17.599  14.939
26755W        W91740  26.986  37.589  11.280
26756W        W91741  30.997   9.159  13.945
26757W        W91742  24.601  42.746  13.077
26758W        W91743  25.412  23.994  11.370
26759W        W91744  41.597  31.927  14.926
26760W        W91745  35.666  44.464  13.741
26761W        W91746  17.374  42.509   2.108
26762W        W91747  39.160  43.629   1.881
26763W        W91748  27.934   8.345   3.685
26764W        W91749  10.232   2.388  14.318
26765W        W91750  30.318  34.631   2.775
26766W        W91751  42.537  10.158  14.447
26767W        W91752  30.342  19.062   2.781
26768W        W91753  43.789  21.010   2.302
26769W        W91754   8.009  29.641   3.942
26770W        W91755  13.814  12.432   1.883
26771W        W91756   0.951  13.221   1.028
26772W        W91757   2.675  36.065   3.733
26773W        W91758  13.299  28.473   3.231
26774W        W91759  43.946  42.882  13.986
26775W        W91760  39.472   4.773  12.451
26776W        W91761  33.451  27.906  12.473
26777W        W91762  33.917  14.122   2.420
26778W        W91763  35.315  21.491  13.976
26779W        W91764  24.514  30.658   0.486
26780W        W91765  17.784  39.155  14.879
26781W        W91766  10.749  26.475  14.940
26782W        W91767  29.590  29.836  12.093
26783W        W91768  14.213  40.264  13.140
26784W        W91769  31.464  25.594   4.270
26785W        W91770  35.665  34.869   4.044
26786W        W91771  12.273  44.798  14.339
26787W        W91772  38.035  15.560   1.829
26788W        W91773   0.332  42.826  13.872
26789W        W91774  25.270  15.239  10.519
26790W        W91775  21.274  31.350   1.761
26791W        W91776  13.126  17.313  14.585
26792W        W91777  18.162  19.714   2.176
26793W        W91778   4.657  41.951   1.241
26794W        W91779  22.265  34.966   1.223
26795W        W91780  33.652  30.100   0.285
26796W        W91781  37.387  30.134   4.194
26797W        W91782  28.916   9.975  11.071
26798W        W91783  39.852  39.566   4.115
26799W        W91784   6.249  34.620  10.265
26800W        W91785  14.759  35.049  10.673
26801W        W91786  20.862  28.705   2.667
26802W        W91787  15.697  33.618   1.490
26803W        W91788  36.166  26.665   2.165
26804W        W91789  27.633  21.296   0.928
26805W        W91790  24.809   0.838   3.332
26806W        W91791  19.536  40.919  13.559
26807W        W91792  38.830   0.932   1.022
26808W        W91793  35.369  19.716  12.935
26809W        W91794   8.931  12.135  14.372
26810W        W91795  38.889  11.419   4.262
26811W        W91796  19.308  13.888   3.168
26812W        W91797  32.971   3.945  13.458
26813W        W91798   6.716  11.851  10.481
26814W        W91799  38.554  18.743   2.172
26815W        W91800  19.092  11.587  14.910
26816W        W91801  27.043  35.436  10.658
26817W        W91802  20.390  31.382   1.494
26818W        W91803  38.985  11.549   0.562
26819W        W91804  43.802  20.035   5.563
26820W        W91805  30.705   1.473   5.599
26821W        W91806  13.072  37.838   3.835
26822W        W91807  19.452  26.546   2.914
26823W        W91808   7.947  33.006  10.546
26824W        W91809  43.372  36.611  14.952
26825W        W91810  28.923  16.633   0.227
26826W        W91811   9.791  44.823  11.652
26827W        W91812  10.816  36.936  14.447
26828W        W91813   2.475  27.648  10.721
26829W        W91814  28.647  22.195  12.381
26830W        W91815  29.552  35.703   4.345
26831W        W91816  21.318   1.878   1.849
26832W        W91817  24.106  32.437  14.182
26833W        W91818  16.013  25.197   2.443
26834W        W91819  16.691  13.312  12.080
26835W        W91820  24.020   3.973  13.203
26836W        W91821   6.187  38.312   2.072
26837W        W91822  14.772  44.474  14.097
26838W        W91823  10.217   9.273   0.735
26839W        W91824  16.756  16.835   1.227
26840W        W91825  38.167  24.929   2.829
26841W        W91826  25.691   0.230  12.904
26842W        W91827  30.900  20.417   4.033
26843W        W91828  30.635  15.102   2.923
26844W        W91829  28.877  16.139   1.900
26845W        W91830   1.765  38.646   3.036
26846W        W91831  23.104  22.155  11.560
26847W        W91832  35.213  22.421   2.394
26848W        W91833  11.245  42.404   3.565
26849W        W91834  12.267  29.640  12.022
26850W        W91835  29.152  18.154  13.859
26851W        W91836  26.424  17.121  14.492
26852W        W91837  18.620  11.761   3.745
26853W        W91838   9.610  18.443   1.790
26854W        W91839  26.696  16.715  14.319
26855W        W91840  42.506  39.502  12.407
26856W        W91841  15.573  39.647   2.687
26857W        W91842  28.789   0.333  11.958
26858W        W91843   6.353  25.475  13.441
26859W        W91844  32.570  19.159  11.592
26860W        W91845  32.449   4.662   1.034
26861W        W91846  18.089  32.999   4.159
26862W        W91847  22.961  11.226  11.055
26863W        W91848  21.044   0.686  10.605
26864W        W91849  35.579   4.225  10.843
26865W        W91850  38.533  12.098  12.060
26866W        W91851  41.893  36.834   0.932
26867W        W91852  41.437  16.941  13.384
26868W        W91853  43.050   3.740  13.857
26869W        W91854  43.777  14.113   1.908
26870W        W91855  18.978  15.735   3.036
26871W        W91856  41.322   6.715   0.376
26872W        W91857   9.742  20.131  10.360
26873W        W91858   9.647  19.125  13.644
26874W        W91859   8.933   8.887   3.836
26875W        W91860  43.755  37.478  14.783
26876W        W91861  30.738   6.925   1.299
26877W        W91862  40.046  32.670   2.348
26878W        W91863  43.993  24.103   2.328
26879W        W91864   6.248  33.110  14.637
26880W        W91865  37.563   5.836   3.187
26881W        W91866  30.864  12.840   2.435
26882W        W91867   8.729   6.763   4.494
26883W        W91868  21.005  42.881   4.550
26884W        W91869  42.340   6.087   3.587
26885W        W91870  13.542   5.401   1.983
26886W        W91871   4.362  20.602  10.683
26887W        W91872   0.870  25.459   3.311
26888W        W91873   9.377  38.562  14.524
26889W        W91874   6.671  12.797  14.460
26890W        W91875   7.400  10.304   3.218
26891W        W91876  43.413   8.303   1.193
26892W        W91877  23.143  36.624  14.371
26893W        W91878  37.513  19.240  11.867
26894W        W91879  29.065  20.685   3.609
26895W        W91880  31.063  14.531   3.680
26896W        W91881  11.857   9.592   4.842
26897W        W91882   0.394  28.523   1.214
26898W        W91883  28.363  15.378   4.526
26899W        W91884   0.368  24.039  14.839
26900W        W91885  24.999  20.347   2.939
26901W        W91886   0.756  31.029  11.172
26902W        W91887  34.212  25.758   1.008
26903W        W91888  30.647  24.072   1.182
26904W        W91889  22.719  11.480  13.865
26905W        W91890  44.266  25.443  12.471
26906W        W91891   5.933   3.043   3.234
26907W        W91892  41.907   8.332   0.092
26908W        W91893   9.791   8.895  10.647
26909W        W91894  44.907  26.697   0.971
26910W        W91895  28.265   5.661  11.450
26911W        W91896  31.043  41.959   3.675
26912W        W91897  39.018  25.007   1.255
26913W        W91898  24.418  24.979   1.708
26914W        W91899  41.931  28.483  13.037
26915W        W91900  34.909  23.095  11.401
26916W        W91901  30.024   5.637   1.745
26917W        W91902  41.797  29.013   0.739
26918W        W91903  39.345  31.312   2.287
26919W        W91904  12.366  26.974   2.326
26920W        W91905  37.494  40.302   0.368
26921W        W91906   4.826  14.353   4.660
26922W        W91907   9.184  27.229   3.687
26923W        W91908  33.771  37.370   3.647
26924W        W91909   2.869  11.139   4.438
26925W        W91910  37.126   2.306   4.671
26926W        W91911  11.260  43.799   1.457
26927W        W91912  18.550   0.996   4.936
26928W        W91913   9.250  12.720   4.440
26929W        W91914  12.760  17.104  14.285
26930W        W91915  38.331  22.624   1.851
26931W        W91916   6.285   4.418   1.924
26932W        W91917  20.909   4.762   4.997
26933W        W91918  30.493  25.653   2.774
26934W        W91919   4.032  38.873   1.222
26935W        W91920   5.987   3.103  12.427
26936W        W91921   9.484  42.746   1.913
26937W        W91922  27.655   4.739   1.232
26938W        W91923  32.051  11.405  12.045
26939W        W91924   0.468  29.956   3.525
26940W        W91925  37.679  13.304  11.066
26941W        W91926  40.828  25.410  11.696
26942W        W91927  10.263  21.823  11.048
26943W        W91928  10.677  23.642   1.499
26944W        W91929  30.805  18.731  13.959
26945W        W91930  35.289  16.079  11.065
26946W        W91931  43.899   7.164   3.303
26947W        W91932  25.879  29.884  13.003
26948W        W91933  12.394  12.806   4.150
26949W        W91934  30.357  40.960   1.897
26950W        W91935  16.846  12.777   1.384
26951W        W91936  40.386  36.591  12.154
26952W        W91937   1.936  40.411  10.569
26953W        W91938  28.083  42.017  13.377
26954W        W91939   9.215  27.582   1.175
26955W        W91940  30.445   9.408  13.958
26956W        W91941  15.886  25.078  11.480
26957W        W91942   6.195  10.578   3.269
26958W        W91943  37.548  19.005   2.290
26959W        W91944   1.949  24.876   0.292
26960W        W91945   3.315  21.402  11.235
26961W        W91946   1.172  14.249   2.466
26962W        W91947  15.865   9.716  12.459
26963W        W91948  26.976  33.004   3.403
26964W        W91949   9.680   4.617   3.779
26965W        W91950  20.817  15.057   1.754
26966W        W91951  34.574  26.173   2.698
26967W        W91952   5.919  19.829   4.195
26968W        W91953  41.483   8.499   1.827
26969W        W91954  36.660  10.641  10.748
26970W        W91955  27.536  10.652  10.677
26971W        W91956  16.555  29.439   0.024
26972W        W91957   6.123  34.568   4.661
26973W        W91958  30.664   6.557  11.134
26974W        W91959  42.853  33.596   0.332
26975W        W91960   7.460  39.422   2.160
26976W        W91961  42.005  41.464   4.661
26977W        W91962  12.280   3.158  12.997
26978W        W91963   4.519  42.512   0.136
26979W        W91964  43.728  23.400  10.698
26980W        W91965   2.995   7.883  14.887
26981W        W91966  25.575  29.912   2.774
26982W        W91967   0.895  32.567   1.320
26983W        W91968  32.652  43.957  11.478
26984W        W91969  44.388  26.520   4.200
26985W        W91970  14.881  31.018  14.032
26986W        W91971  37.364  35.428  10.219
26987W        W91972  41.622  42.448  11.599
26988W        W91973  11.333  30.480  12.501
26989W        W91974  15.861   3.775  14.420
26990W        W91975  10.865  20.990  12.919
26991W        W91976  42.059  20.127   0.749
26992W        W91977   0.292   9.248   4.794
26993W        W91978   8.913   4.728  14.951
26994W        W91979   0.082  37.211   1.679
26995W        W91980   4.841   3.906   3.654
26996W        W91981   0.396  26.863   0.804
26997W        W91982  42.001  11.940   4.021
26998W        W91983  39.115   7.389  13.755
26999W        W91984   0.356  12.183  13.061
27000W        W91985  17.404  40.566   1.342
27001W        W91986   4.245  30.948  12.856
27002W        W91987  20.130   8.088  13.060
27003W        W91988   1.778   0.852  14.365
27004W        W91989   5.196  33.437   2.131
27005W        W91990  27.472  12.867   0.445
27006W        W91991   9.236  13.912   4.865
27007W        W91992  27.018  43.241  14.255
27008W        W91993  33.533  11.586   0.055
27009W        W91994  43.841   7.660   1.172
27010W        W91995  26.560  28.988  11.588
27011W        W91996  20.128  13.278   1.721
27012W        W91997  20.659  27.667   5.060
27013W        W91998  24.230  18.105   1.867
27014W        W91999   9.814  33.361   1.434
27015W        W92000  37.483  11.196   3.602
27016W        W92001  19.232  24.168   1.340
27017W        W92002  20.979  36.210   0.587
27018W        W92003  16.688  15.056   1.853
27019W        W92004  42.626  33.819  11.979
27020W        W92005  18.690   9.124   4.111
27021W        W92006  11.330  40.025   0.796
27022W        W92007  25.882  43.063   4.567
27023W        W92008   3.324  41.302   4.979
27024W        W92009   9.952  29.509   0.893
27025W        W92010  20.636   1.195  11.206
27026W        W92011   8.770  21.350   3.722
27027W        W92012  28.127  30.995   2.170
27028W        W92013  19.303  12.610   1.775
27029W        W92014  12.783  25.507   1.730
27030W        W92015   4.303  35.057   2.572
27031W        W92016  41.654   1.768  11.025
27032W        W92017  22.907  37.476  10.715
27033W        W92018  44.659  28.461  10.134
27034W        W92019   8.425  30.947  12.227
27035W        W92020  15.643  28.701   1.251
27036W        W92021   6.227  42.833  11.904
27037W        W92022  10.872   4.826   3.682
27038W        W92023  37.025  27.956  13.299
27039W        W92024  25.728  33.411   1.283
27040W        W92025   2.576   3.452   3.653
27041W        W92026   7.511  18.083   2.849
27042W        W92027  29.501   6.358   0.290
27043W        W92028  13.355  24.190   0.367
27044W        W92029  20.085  12.377   1.305
27045W        W92030  28.099  25.463   1.846
27046W        W92031  36.765  28.779   3.982
27047W        W92032  28.189  14.067  12.880
27048W        W92033  24.012  31.612  14.562
27049W        W92034   6.151  44.491  11.505
27050W        W92035  16.799  34.361  10.616
27051W        W92036   7.130  17.046   3.420
27052W        W92037  43.417   3.428   0.729
27053W        W92038  40.840   4.832  14.787
27054W        W92039  27.779   4.725  13.323
27055W        W92040  20.039  40.941  13.492
27056W        W92041  18.069  13.259   0.470
27057W        W92042  42.258  22.136   1.977
27058W        W92043   6.956  13.622  12.808
27059W        W92044   7.198  44.571  12.465
27060W        W92045  30.543  39.096   1.553
27061W        W92046  34.862  24.480   2.312
27062W        W92047  43.532  37.965   0.332
27063W        W92048   7.838  12.826   5.106
27064W        W92049  36.166  30.911  11.148
27065W        W92050  18.845  15.804   4.030
27066W        W92051  34.968  24.808   0.210
27067W        W92052  33.909   1.697   3.374
27068W        W92053  30.031  20.710   0.749
27069W        W92054  40.333  37.383   3.594
27070W        W92055  24.102  26.186  12.738
27071W        W92056   3.605   0.495   3.166
27072W        W92057  31.584  38.276  14.560
27073W        W92058  20.006  15.954  11.973
27074W        W92059  25.806  28.192  14.958
27075W        W92060   5.791  20.242  12.063
27076W        W92061  27.349  10.329  11.979
27077W        W92062  17.142  42.037   2.808
27078W        W92063  14.379   5.697   0.327
27079W        W92064  43.222  13.514  14.869
27080W        W92065  29.868  20.630   2.674
27081W        W92066  23.466  16.196   1.723
27082W        W92067  21.481   4.975  13.120
27083W        W92068  39.484  16.188   0.079
27084W        W92069  17.364  20.256   0.389
27085W        W92070  11.937  36.470   4.165
27086W        W92071  35.486  12.833  12.635
27087W        W92072  13.824  40.254   3.368
27088W        W92073  15.158   0.047   0.721
27089W        W92074  26.731   4.930   4.167
27090W        W92075  43.725   7.718   0.557
27091W        W92076  27.088  38.868   3.116
27092W        W92077   5.364  35.787  12.401
27093W        W92078  30.101   3.431   4.600
27094W        W92079   2.014  14.570   2.105
27095W        W92080  23.267   0.523  11.139
27096W        W92081  13.622  11.312   2.682
27097W        W92082  36.788  24.148  13.870
27098W        W92083  41.908   3.442  14.802
27099W        W92084  41.068  26.520  10.217
27100W        W92085  10.285  14.082  14.176
27101W        W92086   0.141  35.418   1.157
27102W        W92087  34.473  24.451   3.164
27103W        W92088  14.648  34.035   2.167
27104W        W92089  27.469  19.220   2.345
27105W        W92090  12.176  20.937   4.783
27106W        W92091  42.804   6.867   0.270
27107W        W92092  36.059  34.922  11.914
27108W        W92093  41.105  22.624   2.240
27109W        W92094  33.722   2.948  10.524
27110W        W92095   6.532   6.807   3.158
27111W        W92096  41.858  27.404  12.811
27112W        W92097  20.066  29.637  14.841
27113W        W92098   5.588   2.275   0.847
27114W        W92099  43.234  22.140   0.141
27115W        W92100  37.115  14.116   4.961
27116W        W92101  14.181  19.792   3.800
27117W        W92102  37.473   1.003   2.283
27118W        W92103  15.918   3.605   4.252
27119W        W92104  22.598  16.214   4.784
27120W        W92105   7.332  14.804   4.066
27121W        W92106  36.726  42.412  14.134
27122W        W92107  28.703  21.535  11.649
27123W        W92108   5.639  34.667  14.001
27124W        W92109  41.456  20.245   3.158
27125W        W92110  20.571   9.870  13.034
27126W        W92111  16.086  26.631  12.513
27127W        W92112  42.525  17.025  14.642
27128W        W92113  24.534  44.899  12.476
27129W        W92114  13.231   9.829   3.340
27130W        W92115  21.612  38.015  10.725
27131W        W92116  12.546  16.653  13.442
27132W        W92117  17.140  24.779  10.820
27133W        W92118  15.371   7.635   3.106
27134W        W92119  35.927  39.287  13.948
27135W        W92120  29.820  33.365  13.125
27136W        W92121  20.035   1.407  11.772
27137W        W92122  14.871  14.248   1.587
27138W        W92123  26.155  28.915   4.083
27139W        W92124  25.770  12.850  12.464
27140W        W92125   3.561  24.069   4.538
27141W        W92126  29.443  26.538  14.997
27142W        W92127  23.517  25.694   3.714
27143W        W92128   1.172  30.343  14.296
27144W        W92129  15.156  21.664  11.220
27145W        W92130  39.416  44.838  12.402
27146W        W92131   2.299  24.783  10.579
27147W        W92132  19.529  44.754   2.782
27148W        W92133   2.442   9.882  14.400
27149W        W92134  22.762  14.741  12.591
27150W        W92135  14.436  40.035   1.216
27151W        W92136  32.331  20.966   0.564
27152W        W92137  34.989  29.897   4.629
27153W        W92138  33.162  41.469   4.201
27154W        W92139  14.279  33.539  14.832
27155W        W92140  41.489  36.781  12.566
27156W        W92141  44.889  32.624   1.281
27157W        W92142   7.895   1.976   3.802
27158W        W92143  38.371  25.446  11.895
27159W        W92144  41.503  19.766   1.312
27160W        W92145  18.640  15.694   0.269
27161W        W92146   9.122  40.848  14.311
27162W        W92147  11.746  32.692   0.775
27163W        W92148  20.431   3.666  14.370
27164W        W92149  11.948  34.998  10.910
27165W        W92150  38.928  20.451  14.258
27166W        W92151   5.673   1.707   0.273
27167W        W92152  32.559  22.690   0.529
27168W        W92153  41.871   2.657  12.899
27169W        W92154  35.571   5.195   3.653
27170W        W92155   4.476  35.966   3.225
27171W        W92156  16.364   5.942   1.323
27172W        W92157  18.957  22.377   4.743
27173W        W92158  11.077  44.780   1.162
27174W        W92159  20.461  31.912   0.941
27175W        W92160  36.299  34.065   1.672
27176W        W92161  27.641  39.240   3.261
27177W        W92162  38.102  44.574  12.581
27178W        W92163   6.767  26.988   1.323
27179W        W92164   4.664  25.137  11.481
27180W        W92165   6.436   9.843   1.775
27181W        W92166  12.963  30.590  12.610
27182W        W92167  44.550  25.066   1.409
27183W        W92168  39.489  12.168   3.678
27184W        W92169  32.836  11.308   1.460
27185W        W92170   8.179   7.974  10.739
27186W        W92171  31.066   3.865  12.565
27187W        W92172  42.794  37.599  13.374
27188W        W92173  27.887   4.899  14.415
27189W        W92174   8.992  10.301  14.211
27190W        W92175   2.361  42.006   1.042
27191W        W92176   0.062  23.151  11.873
27192W        W92177  40.659   4.708  12.481
27193W        W92178   0.274  39.848  10.555
27194W        W92179  32.660  33.479  11.360
27195W        W92180  15.717   0.735   0.996
27196W        W92181  10.731  22.462   4.296
27197W        W92182   8.703   3.717  14.954
27198W        W92183  26.833  17.257  12.113
27199W        W92184   8.727  25.440   2.240
27200W        W92185  19.215  31.226   4.103
27201W        W92186  17.235   0.572   4.172
27202W        W92187   5.822  32.937  12.514
27203W        W92188  42.523   8.834  10.829
27204W        W92189  16.126  18.232   1.968
27205W        W92190  26.966   3.187   1.446
27206W        W92191  42.978   8.858   0.935
27207W        W92192  18.825   9.731  10.476
27208W        W92193  33.891   6.282   3.734
27209W        W92194  25.917  13.599   4.639
27210W        W92195  30.178   0.989  14.380
27211W        W92196  33.669   2.319   0.902
27212W        W92197  20.784  18.036   4.079
27213W        W92198  24.997   2.681   5.015
27214W        W92199  39.579  24.610   3.749
27215W        W92200  23.412  17.901   4.980
27216W        W92201  18.169  11.614  11.583
27217W        W92202  19.402  23.781   4.077
27218W        W92203  29.611  15.752  10.376
27219W        W92204  16.082  19.351  12.971
27220W        W92205  29.039  27.702  13.274
27221W        W92206  33.574  44.822  14.705
27222W        W92207  23.613  39.826  10.759
27223W        W92208  29.065  17.179  10.573
27224W        W92209  12.270  36.843  13.366
27225W        W92210   3.819  34.350  13.749
27226W        W92211  20.836   7.401   2.941
27227W        W92212  12.155  30.503  12.387
27228W        W92213   1.452   6.799   0.629
27229W        W92214  27.030   7.325   2.910
27230W        W92215  39.133  10.801  12.997
27231W        W92216   1.699  34.789   1.799
27232W        W92217  14.002   4.125   3.060
27233W        W92218  14.668  28.344   1.719
27234W        W92219  27.932   0.089  14.205
27235W        W92220  27.219  27.957   3.086
27236W        W92221  25.560   9.899   4.292
27237W        W92222  32.051  10.660   1.456
27238W        W92223  19.629   0.297  11.337
27239W        W92224   1.044  30.650   4.081
27240W        W92225   7.306  11.069  12.022
27241W        W92226  41.527  31.379  13.567
27242W        W92227  34.612  29.991   1.452
27243W        W92228  17.693  35.793   1.268
27244W        W92229  32.175  36.441   0.291
27245W        W92230  41.941  37.902  14.279
27246W        W92231  13.097  19.990  13.065
27247W        W92232   3.784  16.995   2.770
27248W        W92233   7.234   0.318   2.322
27249W        W92234  26.417  36.864   3.703
27250W        W92235  27.950  36.102   1.436
27251W        W92236  31.638  18.284  11.967
27252W        W92237  16.775  17.222  10.729
27253W        W92238  12.362  31.152   3.600
27254W        W92239  44.542  24.112  10.742
27255W        W92240  16.316  35.635  12.592
27256W        W92241  17.019  32.257   5.168
27257W        W92242  42.876  32.559   1.206
27258W        W92243  18.582  32.215   2.054
27259W        W92244  25.535   3.904  14.248
27260W        W92245  18.279  12.891   4.185
27261W        W92246  14.353  16.669  12.528
27262W        W92247  44.741   0.574   1.492
27263W        W92248  38.537  26.910  11.658
27264W        W92249  43.935   5.304   3.654
27265W        W92250  16.344  31.053   2.215
27266W        W92251   8.678  34.819   3.336
27267W        W92252  25.017  43.011   4.758
27268W        W92253  41.409   8.395  11.938
27269W        W92254  40.983  34.113   3.743
27270W        W92255  21.103  13.353  11.119
27271W        W92256   4.353  26.263   1.689
27272W        W92257  32.136  24.984   2.910
27273W        W92258  34.061  17.204  14.155
27274W        W92259  22.177  23.563   1.382
27275W        W92260   5.804  16.240  10.434
27276W        W92261  34.162  21.542  14.543
27277W        W92262  31.043  24.885  11.645
27278W        W92263   0.404  41.514  12.857
27279W        W92264  34.392   8.792   3.995
27280W        W92265  13.115  33.101  13.414
27281W        W92266  30.185  37.895  12.883
27282W        W92267  40.365  23.385  13.056
27283W        W92268   5.617  28.555   2.469
27284W        W92269   6.684  23.990  11.223
27285W        W92270  38.816  35.692  13.025
27286W        W92271  42.800  41.715   2.773
27287W        W92272  13.241   9.104   2.181
27288W        W92273  36.209  28.690   3.708
27289W        W92274  35.735   5.955  14.784
27290W        W92275   1.273  44.050  10.677
27291W        W92276   7.363  37.669   1.788
27292W        W92277  42.275  29.658  14.039
27293W        W92278  38.423  30.104  14.062
27294W        W92279   9.711  33.093   2.966
27295W        W92280  40.046  16.659  12.952
27296W        W92281  43.459   0.876  10.679
27297W        W92282   1.737  34.455  14.477
27298W        W92283   7.128  36.531   4.280
27299W        W92284  25.276   1.448  13.172
27300W        W92285  26.703  38.027  13.810
27301W        W92286  26.251   5.468  10.624
27302W        W92287  22.865  22.945  14.409
27303W        W92288  14.963  42.921  12.965
27304W        W92289  41.841   7.890   4.319
27305W        W92290   3.292  26.718   0.919
27306W        W92291  18.257   5.752   1.424
27307W        W92292  36.073  17.756   1.148
27308W        W92293  41.310  39.960  13.044
27309W        W92294  14.823  32.866   0.311
27310W        W92295  39.766  22.214   1.639
27311W        W92296   2.539  21.008   4.335
27312W        W92297  24.794  13.329   3.666
27313W        W92298  12.846  32.952  12.969
27314W        W92299  13.007  34.687  11.390
27315W        W92300  34.859  39.117  12.606
27316W        W92301   4.900  22.026  10.204
27317W        W92302  36.148   3.934  13.342
27318W        W92303  22.731   2.654  14.743
27319W        W92304  16.651  44.531  13.630
27320W        W92305  30.569  10.399   3.207
27321W        W92306  20.233  16.200   9.994
27322W        W92307  24.425  14.685   0.276
27323W        W92308  11.407  42.018  13.695
27324W        W92309  21.864   5.774   0.811
27325W        W92310  32.489  34.078  14.815
27326W        W92311   2.442  42.274  11.645
27327W        W92312  12.234  37.923   4.662
27328W        W92313   2.538  13.618   1.373
27329W        W92314  36.585  31.912   0.801
27330W        W92315  33.035  30.223  11.510
27331W        W92316  24.575  32.316  14.393
27332W        W92317  33.335  22.609  11.501
27333W        W92318  23.900  28.905   0.501
27334W        W92319  10.278  21.938   1.414
27335W        W92320  44.969  43.224   0.932
27336W        W92321   3.527  10.681   3.245
27337W        W92322  18.577  33.621  10.135
27338W        W92323   4.521  18.181  11.684
27339W        W92324  11.301   0.558   1.745
27340W        W92325  15.159  11.143   4.139
27341W        W92326  15.289  12.830   0.695
27342W        W92327   7.240   5.455   1.759
27343W        W92328  27.447  24.517  12.225
27344W        W92329   4.449  42.782   4.574
27345W        W92330  38.359  29.621  12.476
27346W        W92331   8.768   7.512  11.089
27347W        W92332   3.465   3.274   3.744
27348W        W92333   4.921  21.679   3.458
27349W        W92334  11.428   3.400   3.302
27350W        W92335  38.766  38.537  14.024
27351W        W92336  10.341  16.664   2.716
27352W        W92337  18.051  24.620   4.658
27353W        W92338  37.938  39.014  13.434
27354W        W92339   7.604  21.736   0.307
27355W        W92340  30.015  25.365  13.858
27356W        W92341  11.528   6.298  13.097
27357W        W92342  22.838  38.036   3.581
27358W        W92343  25.187   2.415   3.390
27359W        W92344   7.295  28.534   2.747
27360W        W92345  36.801  22.626  10.736
27361W        W92346  16.151  34.119   4.060
27362W        W92347  26.668   1.817  13.055
27363W        W92348  37.704   0.859   4.508
27364W        W92349  39.179  21.122  14.913
27365W        W92350  13.815   3.422   1.903
27366W        W92351  25.118  13.162   2.350
27367W        W92352  22.599  33.212  13.395
27368W        W92353  21.235   9.764  10.497
27369W        W92354  35.429  30.614  13.560
27370W        W92355   7.380  44.801   3.218
27371W        W92356  37.853  11.595  11.609
27372W        W92357  23.257   4.331   3.440
27373W        W92358  39.460  37.744  14.935
27374W        W92359   1.428  11.418  12.886
27375W        W92360  11.310  21.869  11.703
27376W        W92361  22.785  26.564   1.372
27377W        W92362  27.271   0.401   0.349
27378W        W92363  27.465   9.805  11.987
27379W        W92364  37.510   3.249   0.824
27380W        W92365  19.328  24.263  10.641
27381W        W92366   9.605   6.228   0.925
27382W        W92367   1.054  15.733   0.718
27383W        W92368  20.594  16.241   2.312
27384W        W92369  28.599  38.563   4.264
27385W        W92370  22.691   5.846   1.058
27386W        W92371  37.831  36.142  11.858
27387W        W92372  32.227  13.602  11.264
27388W        W92373  10.275   4.209  10.682
27389W        W92374  32.508   8.566   2.792
27390W        W92375  17.670  38.287  13.701
27391W        W92376  28.968  22.998  11.873
27392W        W92377  22.205   9.364   1.756
27393W        W92378   7.117   8.372   0.407
27394W        W92379  26.099  11.720   3.630
27395W        W92380  29.613  35.892   1.674
27396W        W92381   4.508  28.127  12.036
27397W        W92382  23.510  23.199  14.767
27398W        W92383   9.360  30.127  12.591
27399W        W92384  44.574  19.377  12.977
27400W        W92385   5.226  19.377   1.347
27401W        W92386   9.209  44.946  10.654
27402W        W92387  36.064  31.486  10.506
27403W        W92388   6.299  38.909   0.326
27404W        W92389  43.860  19.308   0.869
27405W        W92390  43.501  13.443  10.739
27406W        W92391   6.241  30.529  11.150
27407W        W92392  35.865  17.726  12.650
27408W        W92393  39.989  14.553   1.731
27409W        W92394  37.931  23.536  11.180
27410W        W92395  14.706  43.542   2.971
27411W        W92396  42.453  16.647  14.997
27412W        W92397  40.815  30.784  13.445
27413W        W92398  23.145   1.251  12.542
27414W        W92399  33.005  37.106   3.185
27415W        W92400  25.894  24.083   4.039
27416W        W92401  42.280  33.198  11.642
27417W        W92402  35.550  36.478  14.315
27418W        W92403  18.570  37.083   0.827
27419W        W92404  33.495  20.706  11.210
27420W        W92405  31.020  21.613  14.765
27421W        W92406  26.133  36.210   1.384
27422W        W92407  44.721  15.229  14.367
27423W        W92408  14.232  37.512  13.561
27424W        W92409  32.990  30.893   0.356
27425W        W92410  32.990  42.786   1.930
27426W        W92411  12.085  42.869  14.906
27427W        W92412  28.985  10.652   1.404
27428W        W92413   8.288  24.232   1.985
27429W        W92414  28.913   0.731  14.865
27430W        W92415  39.338  33.172  11.147
27431W        W92416  39.960  11.021   0.758
27432W        W92417  23.559  43.746  12.514
27433W        W92418  23.277  26.136   3.737
27434W        W92419   6.721  31.044   3.287
27435W        W92420  22.094  37.582  11.187
27436W        W92421  15.257  43.786   0.365
27437W        W92422  35.426  18.439  12.779
27438W        W92423   1.738   0.828  11.880
27439W        W92424   6.020  29.267   2.963
27440W        W92425  19.306  15.603   3.866
27441W        W92426  25.013  43.113   2.689
27442W        W92427  19.516  12.685   3.072
27443W        W92428   0.095  20.540   4.132
27444W        W92429   4.118  42.816  12.943
27445W        W92430  44.882  34.936  14.304
27446W        W92431  21.579  43.434   0.279
27447W        W92432  36.444  24.919  14.347
27448W        W92433  40.206  42.349  11.998
27449W        W92434  42.910  39.474  13.049
27450W        W92435  37.152  27.012   1.910
27451W        W92436  31.417  23.475  11.822
27452W        W92437   1.215   0.550  11.889
27453W        W92438  15.540  20.809   1.355
27454W        W92439   8.624  17.255   2.723
27455W        W92440  26.477  24.010  10.600
27456W        W92441  35.859  25.467   3.781
27457W        W92442  12.224  40.814   4.624
27458W        W92443  36.254  28.528   2.696
27459W        W92444   9.694  11.620   3.280
27460W        W92445  24.767   4.496  12.720
27461W        W92446  44.591  24.111  13.757
27462W        W92447  31.533   5.895   1.193
27463W        W92448  29.206  23.695  14.372
27464W        W92449   0.200   8.840   3.530
27465W        W92450  31.690  15.669  12.982
27466W        W92451  18.826  10.331   3.768
27467W        W92452  19.063  14.347  13.016
27468W        W92453  17.947  28.929   4.168
27469W        W92454  22.554  30.485  14.093
27470W        W92455  19.697  19.943  12.010
27471W        W92456  32.916  29.158  10.580
27472W        W92457  28.981  43.826  11.762
27473W        W92458  17.684  20.290  10.632
27474W        W92459  13.409  34.994   4.791
27475W        W92460  20.697  26.092  13.922
27476W        W92461  28.989  11.445   2.320
27477W        W92462  31.616  34.916  10.768
27478W        W92463   7.631  14.777  12.386
27479W        W92464  42.363  11.383  14.283
27480W        W92465  26.924  29.892  13.067
27481W        W92466   1.151  36.542   3.148
27482W        W92467  44.296  30.535  10.949
27483W        W92468   3.910  39.852  13.504
27484W        W92469  22.113  43.025  13.327
27485W        W92470  15.231  19.893  12.767
27486W        W92471  17.084  24.106  14.863
27487W        W92472   2.254  14.367   4.192
27488W        W92473  17.087  40.035  14.355
27489W        W92474   2.910  23.795  12.519
27490W        W92475  18.301  30.444  11.887
27491W        W92476  43.881  13.647   1.684
27492W        W92477   2.946  39.868  10.738
27493W        W92478  41.090  25.720  14.439
27494W        W92479  17.431  12.770  14.943
27495W        W92480   2.392   2.661  11.168
27496W        W92481  14.396  14.191  11.620
27497W        W92482  17.182   3.374  12.549
27498W        W92483   7.829  14.313  10.296
27499W        W92484  34.623  14.469  11.960
27500W        W92485  34.607   8.949  11.723
27501W        W92486  26.205  34.015   2.539
27502W        W92487  10.053  29.869   0.468
27503W        W92488  20.109   5.694  10.273
27504W        W92489  30.033  24.700   0.238
27505W        W92490  29.428   6.910  11.180
27506W        W92491  22.554  30.334   4.161
27507W        W92492   9.604  30.591   1.772
27508W        W92493  41.851  20.021  12.535
27509W        W92494   1.738  39.629  11.204
27510W        W92495  10.263   8.528  12.596
27511W        W92496  25.023  30.520  14.753
27512W        W92497  23.685   6.472   0.770
27513W        W92498  20.591  29.671  11.565
27514W        W92499  35.236  19.539   4.159
27515W        W92500   1.970  22.992   0.012
27516W        W92501  31.528  42.115   1.775
27517W        W92502  30.929   7.790   0.335
27518W        W92503  32.084  22.313  14.140
27519W        W92504   1.462  30.031   3.683
27520W        W92505   0.988  27.324   3.404
27521W        W92506   5.384   9.310   4.594
27522W        W92507  12.280  33.850  13.934
27523W        W92508  32.836  40.020  11.880
27524W        W92509  11.641  35.128   1.198
27525W        W92510  40.431  40.813   2.780
27526W        W92511  17.804  31.874   4.703
27527W        W92512  21.703   5.261  10.476
27528W        W92513   3.668   7.838  11.521
27529W        W92514   8.168   4.703  13.056
27530W        W92515  32.771   2.941   4.156
27531W        W92516  43.528   2.289   1.516
27532W        W92517  35.348  15.997  12.010
27533W        W92518  32.825  11.862  10.663
27534W        W92519   1.892  44.929  11.932
27535W        W92520   1.657  32.646   4.592
27536W        W92521  32.208  30.228  11.233
27537W        W92522  39.381  43.328   4.944
27538W        W92523  14.144  26.786  14.932
27539W        W92524  44.407  10.286   3.742
27540W        W92525  10.909  43.766  13.848
27541W        W92526  24.249   1.753   3.903
27542W        W92527  12.360  20.485   3.364
27543W        W92528  41.594   3.737  14.483
27544W        W92529  32.969  13.317   4.202
27545W        W92530  36.532  23.698   4.614
27546W        W92531  30.886  30.696  11.095
27547W        W92532  11.878  15.829  10.809
27548W        W92533  37.057   5.411  14.463
27549W        W92534  41.807  17.157   2.135
27550W        W92535  39.313  16.706   4.993
27551W        W92536  17.672  24.924   0.059
27552W        W92537  26.968  32.481   4.235
27553W        W92538  21.921  19.616  12.581
27554W        W92539   0.370  15.771   3.845
27555W        W92540   8.851   0.291  10.367
27556W        W92541  36.795  44.206   0.731
27557W        W92542  41.088  34.348  11.620
27558W        W92543   9.646  37.681  13.875
27559W        W92544   9.084   6.543  11.099
27560W        W92545   2.454  18.123   4.117
27561W        W92546   8.899  18.561  13.860
27562W        W92547   8.264  38.846   3.812
27563W        W92548   6.628  26.637  14.824
27564W        W92549  25.327   3.384  14.309
27565W        W92550  26.494  31.233   0.731
27566W        W92551  20.044  24.039  13.430
27567W        W92552  34.466  31.049   2.396
27568W        W92553  43.816  23.646  11.137
27569W        W92554  24.654  39.096   0.289
27570W        W92555  17.179  36.387  10.975
27571W        W92556  30.295  31.637   2.476
27572W        W92557  31.483  22.620   4.127
27573W        W92558  34.897  27.146   1.161
27574W        W92559   9.384  35.017   4.641
27575W        W92560  18.071  15.653  10.956
27576W        W92561  23.507  33.092   3.326
27577W        W92562  15.219  44.970  13.436
27578W        W92563  24.161  10.377  12.402
27579W        W92564  23.758   3.632  13.480
27580W        W92565   7.048   9.039   2.892
27581W        W92566   2.768  32.854   2.254
27582W        W92567  39.001   9.383   4.677
27583W        W92568   1.395  25.171   2.825
27584W        W92569  21.668  34.511  14.215
27585W        W92570  37.071  31.053  13.086
27586W        W92571  26.471   5.697   3.698
27587W        W92572  34.963  10.105   3.235
27588W        W92573  20.634  38.609  12.903
27589W        W92574  22.577  33.137  10.766
27590W        W92575   9.348  44.186  11.096
27591W        W92576  32.434   4.523   0.476
27592W        W92577  19.240  16.606  14.243
27593W        W92578  17.326   0.485  14.938
27594W        W92579  28.740  17.164  13.059
27595W        W92580  44.241  34.593   0.242
27596W        W92581  39.801  28.999   1.751
27597W        W92582  14.431   4.824  10.306
27598W        W92583   9.768  36.362  11.937
27599W        W92584  37.615  33.436  14.853
27600W        W92585  35.318  28.370  11.202
27601W        W92586  17.235  14.802  13.111
27602W        W92587   6.966  15.765  13.101
27603W        W92588  37.137   6.663  13.869
27604W        W92589  16.143  18.071   1.453
27605W        W92590   4.740  17.261   0.235
27606W        W92591  16.273   6.172  13.923
27607W        W92592   4.856  33.612   0.714
27608W        W92593  43.285   9.252   1.066
27609W        W92594   5.298  44.938  14.441
27610W        W92595   0.765  25.190   5.093
27611W        W92596  21.073  40.778   0.933
27612W        W92597  32.820  38.283  12.931
27613W        W92598   5.729  42.346  13.817
27614W        W92599  28.538   5.204  14.889
27615W        W92600  35.024  31.315  12.569
27616W        W92601  13.005  33.677  10.980
27617W        W92602  13.131  11.776   4.620
27618W        W92603   2.317  27.505   2.178
27619W        W92604  15.263  24.530  12.949
27620W        W92605  17.283  38.553   3.856
27621W        W92606  25.080  12.902  14.042
27622W        W92607  31.050  11.910   1.628
27623W        W92608   7.177  17.705   4.650
27624W        W92609   1.962   0.507  12.596
27625W        W92610   7.906   1.540  14.609
27626W        W92611  26.146  36.413  11.180
27627W        W92612  33.572  44.927  12.711
27628W        W92613  42.776   9.436  12.372
27629W        W92614  43.247  43.785  13.023
27630W        W92615   3.340  15.985  12.349
27631W        W92616   2.363  20.097   3.890
27632W        W92617  30.057  16.703   3.226
27633W        W92618   3.831  41.090  13.031
27634W        W92619  37.087  13.690   3.206
27635W        W92620   9.556  12.284   3.795
27636W        W92621  15.159  43.699  14.018
27637W        W92622  36.732  24.074  13.016
27638W        W92623  26.276  44.829  10.393
27639W        W92624   8.398  37.357  13.639
27640W        W92625  11.085   7.687   0.786
27641W        W92626   3.909  44.250  11.681
27642W        W92627  41.597  13.822   4.208
27643W        W92628  11.108  30.242   2.336
27644W        W92629  34.871  25.003   2.512
27645W        W92630  17.062  12.147   4.640
27646W        W92631   5.905   2.935  11.595
27647W        W92632  32.418  44.546  14.481
27648W        W92633  29.374  43.088  10.415
27649W        W92634  38.701  25.971  12.558
27650W        W92635  37.954   1.338   4.549
27651W        W92636  34.506  34.465  11.597
27652W        W92637   4.300  37.322   1.458
27653W        W92638  33.110  17.634   3.660
27654W        W92639  10.422  30.000  13.385
27655W        W92640  26.606  24.206  14.372
27656W        W92641  31.669  25.298  10.978
27657W        W92642  30.959  20.473   2.617
27658W        W92643  18.618  27.761  13.449
27659W        W92644   4.296  19.487  12.140
27660W        W92645  43.345  32.429   2.107
27661W        W92646  14.875   9.284  13.313
27662W        W92647  16.250   3.756   5.653
27663W        W92648   4.452  44.669  11.068
27664W        W92649  37.162   5.394  14.973
27665W        W92650  20.844  29.084   4.131
27666W        W92651  11.219  32.816   1.861
27667W        W92652  22.704  36.947   0.990
27668W        W92653   9.249   6.347  10.225
27669W        W92654  12.179   5.376   2.236
27670W        W92655  43.544   1.680  11.966
27671W        W92656   4.670  20.750   4.715
27672W        W92657   1.229  13.679  14.050
27673W        W92658  39.733  43.885  12.332
27674W        W92659  16.091  14.465  10.922
27675W        W92660  35.357   5.323   5.083
27676W        W92661   4.462  24.116  12.936
27677W        W92662  12.859  17.257  13.299
27678W        W92663   3.408  12.552   0.719
27679W        W92664  20.179  43.492  11.428
27680W        W92665  21.531   6.759   1.697
27681W        W92666  18.184   0.433  14.293
27682W        W92667  13.559   7.886  13.028
27683W        W92668  31.959  37.467  13.946
27684W        W92669  13.606  29.120  14.521
27685W        W92670  32.621   8.069   1.935
27686W        W92671  26.286  11.549  12.883
27687W        W92672  15.058  17.813  11.142
27688W        W92673  22.346  34.840  11.039
27689W        W92674  37.106   2.687  12.997
27690W        W92675  33.966  42.297   3.788
27691W        W92676  37.370  22.547   0.936
27692W        W92677   7.167  18.063  12.502
27693W        W92678   4.426   3.130   3.421
27694W        W92679  44.849  29.547   1.578
27695W        W92680  31.511  26.378  14.795
27696W        W92681  42.217  24.692  14.143
27697W        W92682   7.087  44.240  11.563
27698W        W92683  11.558  29.227  14.346
27699W        W92684   3.039   6.383  13.879
27700W        W92685  32.061   2.970  13.574
27701W        W92686  44.994  11.941  13.381
27702W        W92687   9.723   0.913  10.622
27703W        W92688  28.441  23.237   4.224
27704W        W92689   6.915  17.734   2.234
27705W        W92690  20.232   8.638   2.017
27706W        W92691  37.377   6.760  12.127
27707W        W92692  38.052  22.547   1.382
27708W        W92693  30.249  15.068  12.883
27709W        W92694   4.254   3.367   4.375
27710W        W92695  29.209  19.333   3.817
27711W        W92696   8.213  18.655  14.499
27712W        W92697   3.109   3.773  10.992
27713W        W92698  18.621  24.977  13.866
27714W        W92699  35.379  29.695   3.364
27715W        W92700  33.280  35.678  12.515
27716W        W92701  13.363  31.993   0.496
27717W        W92702   4.700   0.687   1.330
27718W        W92703  42.575  36.313   0.349
27719W        W92704   4.011  31.410  12.814
27720W        W92705  37.814  23.054   0.137
27721W        W92706  21.540  24.284  13.856
27722W        W92707  13.379  12.351   2.129
27723W        W92708  30.965  22.114  12.980
27724W        W92709   0.331  24.081   2.844
27725W        W92710  29.175  14.829  10.773
27726W        W92711  17.671  25.664  11.692
27727W        W92712  37.357  34.331  13.809
27728W        W92713  28.108  35.665  11.614
27729W        W92714  17.866  31.606   4.042
27730W        W92715  13.240  17.997   4.199
27731W        W92716  36.929  37.489   1.755
27732W        W92717   5.199  38.395  11.681
27733W        W92718  27.693  12.635  11.899
27734W        W92719  37.972  35.340   1.801
27735W        W92720  37.569   1.517   2.336
27736W        W92721  41.607  23.502  12.166
27737W        W92722  32.935  30.891   4.675
27738W        W92723  26.553  40.763   4.206
27739W        W92724  20.335  20.675   1.611
27740W        W92725  19.527  38.531   4.670
27741W        W92726   6.650  26.515  10.147
27742W        W92727  30.924  44.405   2.977
27743W        W92728  13.821   1.733  11.307
27744W        W92729  39.567  20.536   3.357
27745W        W92730  30.133  10.691  13.814
27746W        W92731  29.658   8.246  10.858
27747W        W92732  44.776  15.384  13.596
27748W        W92733   4.963  19.576  12.773
27749W        W92734  11.639  33.327   2.683
27750W        W92735   3.633  12.049   4.157
27751W        W92736  19.635  12.274  13.396
27752W        W92737  15.554  32.067  13.320
27753W        W92738  31.374   8.769  11.586
27754W        W92739   1.517  22.619  14.299
27755W        W92740  14.915  22.707  14.286
27756W        W92741  35.561   7.491   4.457
27757W        W92742  20.117  32.928  13.973
27758W        W92743  21.723  20.677   5.009
27759W        W92744  19.639   9.873  13.884
27760W        W92745  34.929  19.237  13.425
27761W        W92746  35.522  12.664  10.541
27762W        W92747  16.174  34.018  10.680
27763W        W92748  25.920   5.684   3.780
27764W        W92749  41.780  26.600   0.959
27765W        W92750   8.592  26.800  13.087
27766W        W92751  29.545  25.195   2.382
27767W        W92752  20.798  24.320   3.300
27768W        W92753  27.054   9.383   3.739
27769W        W92754  12.496  28.641   3.669
27770W        W92755  16.097  42.453   1.386
27771W        W92756  10.259  18.805   3.151
27772W        W92757  22.588  19.041   4.611
27773W        W92758  27.265  10.871   2.594
27774W        W92759  37.564  36.882  12.522
27775W        W92760  25.019  16.507  12.487
27776W        W92761  22.724  42.736   1.727
27777W        W92762  36.048  20.116  13.340
27778W        W92763   0.680  35.443   3.429
27779W        W92764   9.558  34.269  13.426
27780W        W92765   2.823  44.090  11.946
27781W        W92766  24.171  11.402  13.800
27782W        W92767  24.204  24.484   3.716
27783W        W92768  44.712  36.837  10.470
27784W        W92769  38.275   7.919  12.978
27785W        W92770   2.863  27.189   2.121
27786W        W92771  26.919  16.742  10.684
27787W        W92772  24.649  35.770   4.097
27788W        W92773  25.066   3.186   3.322
27789W        W92774  37.589  41.572   0.146
27790W        W92775  26.004  32.425  13.270
27791W        W92776  33.073  10.120   4.079
27792W        W92777  36.513  13.375  12.540
27793W        W92778  33.424  16.633   3.963
27794W        W92779  25.809  33.874   0.218
27795W        W92780  17.050  24.435  14.043
27796W        W92781   7.903  20.742  13.880
27797W        W92782  27.177   4.758   0.985
27798W        W92783  35.649   1.940  14.984
27799W        W92784  17.437  20.261  13.547
27800W        W92785  34.497  12.839  14.841
27801W        W92786  13.909  36.335  12.027
27802W        W92787  25.479  25.035   3.530
27803W        W92788  27.712  38.423  14.486
27804W        W92789  24.022   0.479  14.340
27805W        W92790  16.884  15.781  12.556
27806W        W92791  42.252  41.314  10.738
27807W        W92792  38.527   5.413   1.892
27808W        W92793  12.983  36.723  11.085
27809W        W92794   9.220   7.098   0.379
27810W        W92795  40.337  18.912  12.483
27811W        W92796  18.240  38.248  11.607
27812W        W92797   3.875   2.065  14.928
27813W        W92798  36.222   5.646  10.304
27814W        W92799  30.692  38.290  14.508
27815W        W92800  14.281  19.716   0.828
27816W        W92801  30.011  30.127  12.210
27817W        W92802   9.829  18.474   3.176
27818W        W92803  30.974  41.948  11.747
27819W        W92804  15.697   2.694   3.655
27820W        W92805  38.486  40.841   1.618
27821W        W92806  37.902   4.964  14.977
27822W        W92807   8.696  15.632   3.365
27823W        W92808  14.164   1.797   2.056
27824W        W92809  24.692   3.972  11.543
27825W        W92810   2.012  12.704  11.226
27826W        W92811  43.575  28.642  11.106
27827W        W92812   5.896  13.663   3.104
27828W        W92813  35.554  38.431   3.327
27829W        W92814  13.363  34.578  11.009
27830W        W92815  21.344   8.574   3.135
27831W        W92816  34.436  44.305  13.382
27832W        W92817  32.109  29.429  14.211
27833W        W92818  35.933   8.856  11.728
27834W        W92819  21.617  33.907  12.993
27835W        W92820   3.644  28.791   1.747
27836W        W92821  22.069  24.975  14.480
27837W        W92822   6.256   0.510   3.875
27838W        W92823  21.327   5.136   4.542
27839W        W92824  40.103  38.383   1.181
27840W        W92825  31.161  10.114  13.823
27841W        W92826  30.290  37.045  13.377
27842W        W92827  41.614  18.447   5.041
27843W        W92828  21.564  25.253  13.657
27844W        W92829  15.592  43.876  13.728
27845W        W92830  28.655   3.857  10.924
27846W        W92831  11.727   4.932  11.194
27847W        W92832  40.339   5.470  14.816
27848W        W92833  28.223  10.917   3.893
27849W        W92834  35.872  26.473   1.721
27850W        W92835   6.563  17.070   5.197
27851W        W92836  32.575  39.750   2.485
27852W        W92837  44.234  28.896   0.514
27853W        W92838  15.336  27.221  12.210
27854W        W92839  43.553  39.259   3.698
27855W        W92840   1.839  23.488   0.206
27856W        W92841  32.417  37.550   2.685
27857W        W92842  40.811   3.735  14.893
27858W        W92843  25.568  23.091   4.624
27859W        W92844  18.169  43.504   4.314
27860W        W92845  35.454  24.753  12.991
27861W        W92846  35.676  21.996  11.182
27862W        W92847  17.651  27.887   0.413
27863W        W92848   8.768  40.799  13.088
27864W        W92849  38.601  19.045  11.599
27865W        W92850  32.427  44.383  10.489
27866W        W92851  21.732   8.730   0.856
27867W        W92852  24.472  23.567   2.837
27868W        W92853  12.814   0.492  11.184
27869W        W92854  14.781  22.305  12.577
27870W        W92855  17.132  37.428  15.000
27871W        W92856   2.140   3.529  14.008
27872W        W92857  33.553  42.954   1.768
27873W        W92858  17.489  21.718   0.745
27874W        W92859  42.815  37.042   2.819
27875W        W92860   3.211   0.636  14.095
27876W        W92861  11.336  22.101   1.743
27877W        W92862   7.680  14.233   1.234
27878W        W92863   5.374  31.501  14.470
27879W        W92864   0.436   3.342   3.335
27880W        W92865  23.501  20.721  14.342
27881W        W92866   9.894   0.237  11.162
27882W        W92867  43.712  34.552   1.941
27883W        W92868  29.330  35.928   0.287
27884W        W92869  37.189  38.093  14.891
27885W        W92870  32.491   6.616  12.899
27886W        W92871   9.274   0.318   0.934
27887W        W92872  27.035   4.300   1.751
27888W        W92873  28.464  12.650  13.629
27889W        W92874   9.673  37.820  11.093
27890W        W92875  36.427  12.231  12.810
27891W        W92876  12.995   8.633   4.938
27892W        W92877   9.682   0.345   3.101
27893W        W92878  12.241  19.807   0.703
27894W        W92879  11.622  32.193   4.583
27895W        W92880  30.902  37.593  12.970
27896W        W92881  13.263  33.617  13.384
27897W        W92882  12.721  30.228  12.943
27898W        W92883   3.948   0.719  10.736
27899W        W92884  43.523  29.958  11.377
27900W        W92885  10.234  43.424   0.172
27901W        W92886  23.268  14.512  11.107
27902W        W92887   9.981   7.324   0.867
27903W        W92888  39.379  34.093  14.938
27904W        W92889  15.756  12.571   0.722
27905W        W92890  29.985  20.174  14.457
27906W        W92891  34.857  35.525  10.722
27907W        W92892  27.951   7.876   3.444
27908W        W92893  42.010  42.807   4.681
27909W        W92894  40.931   2.594  11.958
27910W        W92895  39.021  11.967   2.464
27911W        W92896  12.585  26.071  14.408
27912W        W92897   6.513  19.904   5.110
27913W        W92898  44.272   8.911  14.457
27914W        W92899  11.348  40.816  13.373
27915W        W92900  22.097   0.005  13.430
27916W        W92901  29.707   6.176   4.690
27917W        W92902   3.916  43.183  11.544
27918W        W92903  17.354  12.320  11.539
27919W        W92904  16.513   0.848   0.038
27920W        W92905  18.863  14.893   0.766
27921W        W92906  38.581  26.032   3.610
27922W        W92907  31.446  11.716   1.892
27923W        W92908  16.020  39.955  10.110
27924W        W92909  10.577   6.832   2.290
27925W        W92910  10.772  35.827   2.388
27926W        W92911  12.480  31.037   0.401
27927W        W92912  30.581  21.907   2.404
27928W        W92913  44.416  38.591   0.773
27929W        W92914   5.354  28.489  12.900
27930W        W92915  22.301  36.065  10.597
27931W        W92916  44.480  44.567  10.714
27932W        W92917  26.887   7.433  12.708
27933W        W92918  43.160  15.678  13.893
27934W        W92919  21.788  27.989   1.266
27935W        W92920  32.910  22.964  12.403
27936W        W92921  11.136   0.609   3.387
27937W        W92922  36.075   8.954   0.278
27938W        W92923  44.955  18.307  14.833
27939W        W92924  11.094  43.450  12.124
27940W        W92925  21.010  30.386   1.750
27941W        W92926  18.812  21.145  14.826
27942W        W92927  14.769  36.661   1.419
27943W        W92928  35.158  24.585  13.473
27944W        W92929  22.090   9.236  12.626
27945W        W92930  26.319  28.912  11.136
27946W        W92931  15.670  10.664   1.973
27947W        W92932  15.165  17.615   4.060
27948W        W92933  13.638  21.619  14.821
27949W        W92934  15.878  13.656  13.358
27950W        W92935   3.940   4.321   3.411
27951W        W92936  10.364  40.114   3.416
27952W        W92937  29.509  10.384  10.108
27953W        W92938  12.842  14.316  10.957
27954W        W92939   4.246  21.993  13.504
27955W        W92940  20.035  40.209  10.823
27956W        W92941  26.120  22.005   0.289
27957W        W92942  22.733  42.230   1.700
27958W        W92943  33.915  18.725  14.294
27959W        W92944  30.454  44.935   1.700
27960W        W92945   2.514  10.867   0.535
27961W        W92946  37.874  34.083   3.830
27962W        W92947  42.531  26.053   0.318
27963W        W92948  25.899  16.692  13.862
27964W        W92949  27.259   3.420  14.530
27965W        W92950  33.643  12.503   1.749
27966W        W92951  35.023   4.225  14.915
27967W        W92952  10.390  14.743  10.677
27968W        W92953  14.124  14.726   4.614
27969W        W92954   5.651  41.939   0.491
27970W        W92955  18.505   9.330  10.614
27971W        W92956  32.542  38.571  14.925
27972W        W92957  17.032   9.852  13.453
27973W        W92958  32.596   4.678  14.951
27974W        W92959  43.911  41.765   4.479
27975W        W92960   7.789   3.962   2.892
27976W        W92961  17.268  20.389  11.989
27977W        W92962   1.559   1.898  12.624
27978W        W92963  10.151  16.522   0.710
27979W        W92964  20.193  38.016   1.377
27980W        W92965  40.407  29.342  11.638
27981W        W92966  11.535  20.375  12.374
27982W        W92967  10.670  10.324  14.552
27983W        W92968  30.824  21.276   4.273
27984W        W92969  43.794  37.984  12.071
27985W        W92970  19.739   9.744   1.786
27986W        W92971  29.155  11.121  12.074
27987W        W92972  13.233  31.925  12.507
27988W        W92973  33.943   2.280  10.728
27989W        W92974  28.458  25.191  13.355
27990W        W92975   9.450   3.950  14.399
27991W        W92976  25.206  27.521   1.783
27992W        W92977   9.089   0.269   1.823
27993W        W92978  37.723  42.882  13.432
27994W        W92979  42.052   0.517  13.858
27995W        W92980  15.186   8.662  14.791
27996W        W92981  35.027  37.377   1.608
27997W        W92982  25.554  42.521   1.787
27998W        W92983  27.619   9.394   0.057
27999W        W92984   1.040   1.773   1.182
28000W        W92985  21.159  31.822  11.099
28001W        W92986  35.351  38.564  13.926
28002W        W92987  43.937  16.320  14.961
28003W        W92988   8.055  32.052  10.550
28004W        W92989  26.461  20.294   0.301
28005W        W92990   6.640   8.349  13.573
28006W        W92991  42.410  28.138  14.191
28007W        W92992   7.731  11.606  13.355
28008W        W92993   6.452  38.315  10.352
28009W        W92994  18.296  44.242   0.366
28010W        W92995  44.272   7.639  13.148
28011W        W92996  34.481  35.936   4.078
28012W        W92997  26.798   5.826   4.118
28013W        W92998  40.902  30.935   0.334
28014W        W92999   9.637  13.130   0.859
28015W        W93000  38.724  35.237   9.643
28016W        W93001  15.214   2.337   2.851
28017W        W93002   5.266   8.739   1.671
28018W        W93003  10.270   8.703  13.930
28019W        W93004   8.714  43.354   1.244
28020W        W93005  15.301  42.344   0.050
28021W        W93006  30.874  27.528   3.645
28022W        W93007   3.518  15.054   1.838
28023W        W93008   0.703  12.568  12.890
28024W        W93009  13.720   5.021   4.522
28025W        W93010  20.833  38.353  12.494
28026W        W93011  33.364   2.729   0.783
28027W        W93012  14.962  40.196  13.966
28028W        W93013  10.246  30.482  10.274
28029W        W93014  17.994  25.206   1.881
28030W        W93015  35.051   1.227   1.898
28031W        W93016  11.428  12.873   2.929
28032W        W93017  19.020  42.885  13.910
28033W        W93018  14.824  10.326  11.973
28034W        W93019   1.057   9.774   0.364
28035W        W93020  19.721  32.166  10.740
28036W        W93021   8.872   2.385   2.718
28037W        W93022  36.595  16.665  13.426
28038W        W93023  41.909   4.896  14.794
28039W        W93024  34.518  11.388  11.592
28040W        W93025  38.501  15.143   0.466
28041W        W93026   8.312  29.747  14.979
28042W        W93027  12.770   2.764  10.757
28043W        W93028  25.690  28.329   2.693
28044W        W93029   2.313  11.300  12.906
28045W        W93030   8.427  18.813   4.714
28046W        W93031  22.573   4.301  13.459
28047W        W93032  29.575  21.221   1.292
28048W        W93033  43.630  13.426   4.235
28049W        W93034  18.787  38.342   3.102
28050W        W93035   6.443  21.067  10.001
28051W        W93036  32.333  44.476   0.308
28052W        W93037  37.645   6.277   3.779
28053W        W93038  30.485  43.354   0.041
28054W        W93039  17.757  20.116  12.081
28055W        W93040  11.628  39.293   2.707
28056W        W93041   8.818  13.621  14.442
28057W        W93042   3.649  33.049  11.548
28058W        W93043  43.371  25.091  10.617
28059W        W93044   0.928  19.098  10.047
28060W        W93045  42.966  19.312   9.723
28061W        W93046  36.094  20.744  14.459
28062W        W93047   0.001  25.050   3.514
28063W        W93048  27.401  34.713  12.266
28064W        W93049  10.430  24.275  11.190
28065W        W93050   4.059  19.756  11.142
28066W        W93051  35.861  12.764   1.903
28067W        W93052  10.010  21.700  14.760
28068W        W93053  37.717  37.022   9.754
28069W        W93054  10.658  39.261   1.768
28070W        W93055  22.099  13.859   0.406
28071W        W93056  37.483  17.175   3.855
28072W        W93057  14.876   2.234   2.129
28073W        W93058  25.138  25.025   2.191
28074W        W93059  13.215  27.153   2.426
28075W        W93060  10.245  35.720   3.164
28076W        W93061  36.340  36.231   1.190
28077W        W93062  16.864  26.599   2.023
28078W        W93063  38.060  41.017   2.765
28079W        W93064  43.285   5.620   4.496
28080W        W93065  44.993  24.503  12.916
28081W        W93066  37.833  26.905  11.073
28082W        W93067  13.834  44.069  14.189
28083W        W93068  13.955   7.703   1.350
28084W        W93069   7.176  31.502   1.376
28085W        W93070  36.892  29.665   3.252
28086W        W93071  44.596  12.777   1.342
28087W        W93072  17.535  21.976  14.920
28088W        W93073  43.354  42.533  12.494
28089W        W93074  27.554  38.227   2.008
28090W        W93075   2.477  44.188   4.518
28091W        W93076  41.047  21.766   3.211
28092W        W93077  13.188  32.501   2.357
28093W        W93078  19.510  43.980   0.975
28094W        W93079  31.978  10.822  11.169
28095W        W93080  41.840  29.045   3.704
28096W        W93081  36.385  20.019   2.934
28097W        W93082  11.852  12.778  13.829
28098W        W93083  25.267  12.152  14.670
28099W        W93084   5.508   8.049   2.822
28100W        W93085  15.120  37.067   0.907
28101W        W93086  28.043  15.390  13.294
28102W        W93087  25.117   5.729   1.843
28103W        W93088  10.616   8.625   3.258
28104W        W93089  15.585  10.163  12.476
28105W        W93090   8.874  22.061  14.067
28106W        W93091  11.313   0.946  14.024
28107W        W93092  31.203  20.961  12.904
28108W        W93093  22.657  38.458  11.613
28109W        W93094  26.139   1.354   2.235
28110W        W93095  12.134  18.616  13.711
28111W        W93096  30.064   9.719  10.551
28112W        W93097  15.373  13.289  12.050
28113W        W93098  30.659  31.233   2.341
28114W        W93099  27.631  16.495  11.129
28115W        W93100   3.312  37.977  14.337
28116W        W93101  29.407  34.328   9.941
28117W        W93102  15.819  20.429  11.595
28118W        W93103  21.232  38.389  12.882
28119W        W93104  35.364  40.273   1.711
28120W        W93105  10.867  17.780   3.109
28121W        W93106  25.371   1.348   2.662
28122W        W93107  12.922  22.701   5.262
28123W        W93108  36.395  44.751  12.144
28124W        W93109  24.409  30.146   2.350
28125W        W93110  19.072  28.970  11.136
28126W        W93111  11.953  43.266  12.624
28127W        W93112  28.456  20.017   0.511
28128W        W93113   2.570  19.299  10.448
28129W        W93114  41.447   1.531   3.147
28130W        W93115   1.254  22.837  13.870
28131W        W93116  37.027  28.808   0.675
28132W        W93117  13.307  11.835   0.820
28133W        W93118  34.505  43.983  12.892
28134W        W93119  44.726   1.370   2.175
28135W        W93120  21.656  31.695  14.774
28136W        W93121  43.826  20.242  11.935
28137W        W93122  14.714  21.642   4.616
28138W        W93123  17.337  11.975  13.054
28139W        W93124  21.746  37.383   1.801
28140W        W93125  11.577  27.374  10.742
28141W        W93126  31.936  38.015  10.671
28142W        W93127  15.594  27.931  13.175
28143W        W93128  23.249  36.630   0.847
28144W        W93129  14.042  29.032   3.223
28145W        W93130   3.444  15.353   2.267
28146W        W93131  25.560  21.249   0.371
28147W        W93132  42.439  21.780  10.658
28148W        W93133  26.280  41.470  11.810
28149W        W93134  42.965  14.610   1.739
28150W        W93135  14.211   7.419  11.668
28151W        W93136  40.811  22.139  11.336
28152W        W93137  38.218   7.628   2.804
28153W        W93138  31.441  37.954  12.448
28154W        W93139  14.350  10.316  11.789
28155W        W93140  32.094  14.373   3.708
28156W        W93141   3.666  18.734   2.748
28157W        W93142  31.369  41.824   0.359
28158W        W93143   5.029  28.972  10.651
28159W        W93144   8.969  34.055   2.944
28160W        W93145   1.507  25.209   0.028
28161W        W93146  27.503  28.225  14.142
28162W        W93147  11.517  38.702  14.250
28163W        W93148   8.595  20.187  10.934
28164W        W93149  19.684  13.762   3.639
28165W        W93150  22.019  37.429  14.806
28166W        W93151  10.950  36.638  14.859
28167W        W93152  21.524   6.360  12.748
28168W        W93153   4.182  37.769   0.741
28169W        W93154  12.053   3.388  10.573
28170W        W93155  11.730  18.960  13.893
28171W        W93156  18.588  38.333   2.190
28172W        W93157  27.598   0.792  11.630
28173W        W93158  25.160  27.979  12.909
28174W        W93159  31.944  14.587  11.996
28175W        W93160  27.015  13.855  11.485
28176W        W93161  22.718  32.113  12.663
28177W        W93162  39.077   8.919  12.206
28178W        W93163  36.781  33.444   2.803
28179W        W93164  40.727   5.277   3.167
28180W        W93165   5.892  37.795  13.737
28181W        W93166  32.558  19.411   2.344
28182W        W93167  27.340  25.556   4.901
28183W        W93168  17.195  24.037  12.413
28184W        W93169  21.231   0.138  13.964
28185W        W93170   4.854   3.749  12.397
28186W        W93171  42.824  32.855  13.087
28187W        W93172  10.705  19.751  13.435
28188W        W93173   6.212   6.020   2.675
28189W        W93174  22.787  35.397   0.453
28190W        W93175  43.356  23.964   3.436
28191W        W93176  24.832  34.395   1.615
28192W        W93177   2.060  42.307  13.839
28193W        W93178  17.192  42.458  10.162
28194W        W93179  36.404   1.377   4.489
28195W        W93180  16.025   5.244   3.104
28196W        W93181  29.315  20.202   0.753
28197W        W93182  23.295  43.539  11.162
28198W        W93183  29.075   2.217   2.790
28199W        W93184   8.839  35.985   0.083
28200W        W93185  34.315   1.339   3.544
28201W        W93186  28.705  31.848   0.160
28202W        W93187  40.536  42.822   2.562
28203W        W93188  15.802  33.330   5.204
28204W        W93189   9.682  24.754  12.580
28205W        W93190   7.371  10.250  11.108
28206W        W93191  31.191  22.049  13.831
28207W        W93192  32.114   2.387   1.878
28208W        W93193  36.980  16.353  11.437
28209W        W93194  42.418   1.747  13.157
28210W        W93195  11.858  35.361   2.814
28211W        W93196  21.567   4.966   0.415
28212W        W93197   8.797  27.078   3.382
28213W        W93198  42.819  11.249  12.484
28214W        W93199  40.545  21.041  11.929
28215W        W93200   4.639  18.615   4.567
28216W        W93201  33.935  20.518   4.664
28217W        W93202  23.323  37.314  11.511
28218W        W93203   1.654  40.957   0.898
28219W        W93204   9.811  41.466  14.462
28220W        W93205  44.871  31.505  12.905
28221W        W93206   0.311  30.188   0.761
28222W        W93207  42.757  27.615   2.620
28223W        W93208  29.569   5.142   3.554
28224W        W93209   2.869  35.169  12.087
28225W        W93210  14.000   2.697   1.467
28226W        W93211   9.028  10.154   1.347
28227W        W93212  13.376  43.198  11.717
28228W        W93213   6.903   1.983   1.310
28229W        W93214  24.017  40.093  14.881
28230W        W93215  38.435  35.185   3.214
28231W        W93216   2.685  44.839   0.385
28232W        W93217  13.983  31.367   9.901
28233W        W93218  42.557   6.476  14.825
28234W        W93219  19.605  29.696  13.471
28235W        W93220   3.814   6.844  11.845
28236W        W93221  34.952  35.422   0.238
28237W        W93222  36.701  18.252   1.268
28238W        W93223   9.194  39.455  12.702
28239W        W93224  40.099  43.842  11.972
28240W        W93225  16.128   1.338   0.807
28241W        W93226  14.148  17.385   3.120
28242W        W93227  42.811   5.037  11.195
28243W        W93228  26.732  44.504  12.042
28244W        W93229   8.283   6.683  14.845
28245W        W93230  32.081  15.597  11.141
28246W        W93231  39.310  29.394  10.799
28247W        W93232  24.241   8.277   0.305
28248W        W93233  22.764  32.275   5.282
28249W        W93234  31.849  15.106  14.049
28250W        W93235  10.597   3.698   2.197
28251W        W93236   7.223  42.282   2.943
28252W        W93237  30.814  35.008   1.369
28253W        W93238   3.170  12.702   2.221
28254W        W93239  32.559  13.844  11.594
28255W        W93240  33.012  22.756   4.279
28256W        W93241  32.585  21.312  14.372
28257W        W93242  15.299  13.572  12.989
28258W        W93243  34.236  42.331   1.801
28259W        W93244  16.092   4.845  11.914
28260W        W93245  16.178   7.468  14.380
28261W        W93246  31.453  39.509  13.742
28262W        W93247  39.418  37.797   4.319
28263W        W93248  40.585  13.328   1.807
28264W        W93249  12.820   8.113  10.733
28265W        W93250  42.560  29.132  10.272
28266W        W93251   7.282  21.116  12.445
28267W        W93252  38.096  21.542  14.406
28268W        W93253   3.367  43.086   3.819
28269W        W93254  12.953   2.023  12.063
28270W        W93255  31.664  41.514  11.154
28271W        W93256   5.700   3.479   3.080
28272W        W93257   7.922  10.384  12.970
28273W        W93258  41.283  44.957   2.655
28274W        W93259  13.185  30.903   4.576
28275W        W93260   4.667   2.819  12.460
28276W        W93261  41.586  44.840  13.350
28277W        W93262   3.716  24.673  13.899
28278W        W93263  26.967  15.756  10.447
28279W        W93264  30.432  38.928   0.112
28280W        W93265   6.644  28.556   2.364
28281W        W93266  34.362  42.341   4.190
28282W        W93267  39.811   8.766  14.118
28283W        W93268   9.738  14.285   3.705
28284W        W93269  38.877  30.248  12.881
28285W        W93270  44.410  28.203   1.718
28286W        W93271  36.030  44.774   2.713
28287W        W93272   5.962   0.252   0.554
28288W        W93273  38.484   0.522   4.076
28289W        W93274  30.889  39.146  13.556
28290W        W93275  11.964  19.728   1.513
28291W        W93276   5.352  27.155   1.908
28292W        W93277  14.815   8.297  14.839
28293W        W93278  40.272  21.241  13.882
28294W        W93279  20.579  24.507  11.980
28295W        W93280  22.932  10.487   3.168
28296W        W93281  33.563  17.310  14.347
28297W        W93282  41.387  37.803   1.858
28298W        W93283  22.770  27.389  14.913
28299W        W93284  12.692  35.710  12.932
28300W        W93285   1.801   8.221  11.643
28301W        W93286  19.304  38.271  10.759
28302W        W93287  19.961   2.800  11.445
28303W        W93288  13.852   7.630   3.623
28304W        W93289  27.808   9.940   2.890
28305W        W93290  12.813  12.103   0.309
28306W        W93291  32.797  33.787   1.461
28307W        W93292  41.750  11.565  11.549
28308W        W93293  24.902  21.131  14.271
28309W        W93294  44.749  19.185   3.397
28310W        W93295   9.878  20.124  10.923
28311W        W93296  14.290  16.254   2.387
28312W        W93297  27.901  39.221  13.050
28313W        W93298  44.036  37.523  12.057
28314W        W93299  23.991   4.848   3.154
28315W        W93300   9.403  40.913   2.199
28316W        W93301  27.120   3.901   4.560
28317W        W93302  43.172  42.842  11.291
28318W        W93303  40.882  13.126   3.996
28319W        W93304   5.848  12.281  11.874
28320W        W93305  37.041  33.886   2.674
28321W        W93306  27.570  17.984  12.770
28322W        W93307  20.722  27.790   0.465
28323W        W93308  31.490  16.232   2.767
28324W        W93309  21.097  27.966   3.747
28325W        W93310  16.874  14.607  11.351
28326W        W93311  44.861  14.831   1.247
28327W        W93312   2.029  36.421   0.955
28328W        W93313  37.022   1.000   2.824
28329W        W93314   3.878  32.641  14.351
28330W        W93315  21.237  39.485   1.661
28331W        W93316  43.388  43.225  14.413
28332W        W93317  15.195  15.618  12.416
28333W        W93318  17.451  33.537   1.708
28334W        W93319  22.587  31.592  11.476
28335W        W93320   9.824  20.087   2.223
28336W        W93321  22.669  43.282   0.909
28337W        W93322  20.255  32.582  10.771
28338W        W93323  30.943   5.691   3.556
28339W        W93324  37.659   0.452   3.626
28340W        W93325  41.460  10.698   0.817
28341W        W93326  21.547  30.236  13.064
28342W        W93327  11.386  19.893   0.476
28343W        W93328  18.461   9.451   1.516
28344W        W93329  40.829  19.479   0.233
28345W        W93330  21.656  40.466  11.585
28346W        W93331   1.006  17.708   4.862
28347W        W93332  22.119  43.171  13.877
28348W        W93333   9.299  41.365  12.714
28349W        W93334  18.865  19.896  14.535
28350W        W93335  36.584  35.829   2.470
28351W        W93336   6.232  19.131  12.748
28352W        W93337  12.278   6.704  12.962
28353W        W93338  14.263  39.240   2.210
28354W        W93339   3.748   9.363  11.951
28355W        W93340  29.596  11.731   0.176
28356W        W93341  36.565  20.576  10.670
28357W        W93342  12.720  20.191   1.913
28358W        W93343  32.403   4.547  10.070
28359W        W93344  36.814  43.594   0.654
28360W        W93345   7.780  37.881  12.989
28361W        W93346  30.900  15.677   2.317
28362W        W93347  24.389  21.879  14.453
28363W        W93348   4.223  41.516   3.711
28364W        W93349  44.345  19.047   1.007
28365W        W93350   6.183  23.201  10.480
28366W        W93351   7.244   0.916   3.299
28367W        W93352  40.584  26.202  11.985
28368W        W93353  26.692  39.798  13.514
28369W        W93354  21.738  27.575   2.118
28370W        W93355   0.429   2.401   1.256
28371W        W93356   6.304   3.985  14.290
28372W        W93357  26.935  27.188  14.885
28373W        W93358  44.583  17.081  11.426
28374W        W93359   6.874  16.960   2.907
28375W        W93360  23.613  32.627  13.473
28376W        W93361  35.636  16.950  13.721
28377W        W93362  21.231  32.462  14.713
28378W        W93363  30.159  35.009  14.019
28379W        W93364  10.918   7.454  11.241
28380W        W93365   8.692  10.105  13.837
28381W        W93366  24.157  21.778   1.827
28382W        W93367  27.623  14.382   3.652
28383W        W93368  31.243  26.739   1.428
28384W        W93369  25.162  37.905  13.866
28385W        W93370  27.192   3.193  12.456
28386W        W93371  36.516   2.202  11.829
28387W        W93372  10.125  25.142   2.910
28388W        W93373   1.828  37.140   1.371
28389W        W93374  31.722   9.785   2.877
28390W        W93375  18.284  36.548  14.403
28391W        W93376   3.337   0.384  11.478
28392W        W93377   9.261  11.300   3.385
28393W        W93378  19.665   5.061   3.999
28394W        W93379  17.376  44.701  10.722
28395W        W93380  40.648  12.224   4.309
28396W        W93381  43.234  29.197  12.852
28397W        W93382   9.061   3.874  11.632
28398W        W93383  17.340  43.922   3.223
28399W        W93384   3.868  40.344  10.774
28400W        W93385   5.826  18.719   1.282
28401W        W93386   4.687  23.343   0.320
28402W        W93387   7.134   2.321  11.227
28403W        W93388  10.429   5.310  13.871
28404W        W93389  29.167   9.837  11.511
28405W        W93390  25.771  27.117  12.593
28406W        W93391  40.857  38.596  14.780
28407W        W93392   2.402  16.360   2.623
28408W        W93393  25.490   6.045  13.933
28409W        W93394  40.527  26.099   3.838
28410W        W93395   3.116  16.647   1.268
28411W        W93396  32.993  10.844  11.065
28412W        W93397  36.594  37.600   2.155
28413W        W93398  32.509   4.219  11.048
28414W        W93399  24.108   1.984  10.066
28415W        W93400  34.183  35.442   1.412
28416W        W93401   6.140  24.507  12.080
28417W        W93402   4.463   3.838   4.525
28418W        W93403  43.192  10.196  11.094
28419W        W93404   3.245  35.819   1.488
28420W        W93405   1.807  38.362  11.587
28421W        W93406  42.282  33.453   1.817
28422W        W93407  25.497   4.273   3.676
28423W        W93408  11.137  38.504  12.465
28424W        W93409  42.810  11.045   0.163
28425W        W93410  30.072  34.595   0.726
28426W        W93411   1.557  24.487  12.057
28427W        W93412  33.059  41.435  10.422
28428W        W93413  17.838  20.119   1.265
28429W        W93414  12.787  42.005   0.498
28430W        W93415  28.169  13.654   0.434
28431W        W93416  11.868  13.754  13.475
28432W        W93417  20.001  24.610   1.441
28433W        W93418  39.492  17.298   1.995
28434W        W93419  44.218   6.676   4.135
28435W        W93420  39.006  28.602   1.595
28436W        W93421  29.235  21.828  12.254
28437W        W93422  38.367  15.291  11.716
28438W        W93423  25.514  20.121  12.497
28439W        W93424  28.201   0.683  11.281
28440W        W93425  42.550  19.836   2.960
28441W        W93426  43.429  34.922   3.750
28442W        W93427  29.734  36.915  11.000
28443W        W93428  11.179  22.308   4.065
28444W        W93429  16.880  12.058   5.105
28445W        W93430   1.076  33.019  14.298
28446W        W93431   0.392  19.265  10.717
28447W        W93432  28.093   2.876   1.523
28448W        W93433   4.967  27.659  11.411
28449W        W93434  22.756  15.817   3.505
28450W        W93435  34.789  44.676  12.213
28451W        W93436  18.102  36.480  12.047
28452W        W93437  36.111   7.925  11.166
28453W        W93438  19.221  23.075  13.871
28454W        W93439  39.941  26.099  12.943
28455W        W93440   7.596  22.724  12.884
28456W        W93441  17.189   5.340  13.586
28457W        W93442  26.952  15.207   1.391
28458W        W93443   6.848   4.585  13.888
28459W        W93444  40.226   3.390  14.267
28460W        W93445  43.436  12.147   1.195
28461W        W93446   5.771  16.007  14.528
28462W        W93447  24.809   0.271   2.652
28463W        W93448  34.115  35.845   2.855
28464W        W93449  37.282  12.535   0.275
28465W        W93450  18.868  16.203  14.002
28466W        W93451  28.453  35.046  14.402
28467W        W93452   3.776   5.114  14.328
28468W        W93453  41.913  39.428  11.907
28469W        W93454  22.175  32.024   3.407
28470W        W93455  34.851  30.462   0.753
28471W        W93456  41.989  14.321  12.455
28472W        W93457  37.450  10.279  12.835
28473W        W93458   3.908  29.459  12.860
28474W        W93459  11.669  43.221  10.349
28475W        W93460  44.083  12.224   3.707
28476W        W93461  37.302  25.555   1.757
28477W        W93462   0.713  15.071   4.182
28478W        W93463  31.066  13.327  11.698
28479W        W93464  33.864  27.467   3.250
28480W        W93465  22.530   9.112   2.445
28481W        W93466  10.719   8.391  10.785
28482W        W93467  24.144  13.222  14.337
28483W        W93468  13.154  32.251   1.870
28484W        W93469   4.398  34.456  12.800
28485W        W93470  44.039  12.191  11.988
28486W        W93471   2.892  31.778   2.699
28487W        W93472  10.812  20.037   1.364
28488W        W93473  21.373  40.260  11.957
28489W        W93474  20.505  37.130  10.428
28490W        W93475  11.620   0.854  13.572
28491W        W93476  27.433  32.397  13.422
28492W        W93477   5.123  10.267   3.049
28493W        W93478   5.969   1.808  14.681
28494W        W93479  34.622  13.831   4.935
28495W        W93480   5.121  27.109   4.118
28496W        W93481  37.903  27.549   2.317
28497W        W93482   4.477  12.919   3.536
28498W        W93483   4.208   7.541  10.061
28499W        W93484  42.756   2.926  11.261
28500W        W93485  24.283  42.916   1.716
28501W        W93486  35.017  39.864   1.770
28502W        W93487  21.987  39.320  10.384
28503W        W93488  38.644  39.332  14.929
28504W        W93489  43.810  24.235  14.499
28505W        W93490   2.410   0.230  14.236
28506W        W93491  29.084   0.916  11.664
28507W        W93492  44.270   0.459  14.832
28508W        W93493  19.627  22.782  11.618
28509W        W93494   2.944   1.521  14.053
28510W        W93495  37.260  32.707   1.360
28511W        W93496   8.407  38.877  14.059
28512W        W93497  28.740  16.763  13.460
28513W        W93498  19.776   6.198  12.400
28514W        W93499  40.963  44.989  14.960
28515W        W93500  18.347  11.608   4.657
28516W        W93501  15.686  43.755  11.876
28517W        W93502  43.523  22.890   3.643
28518W        W93503  23.500  22.107   2.315
28519W        W93504  21.220  11.202   3.441
28520W        W93505   7.361  21.437   4.600
28521W        W93506  23.545  38.322   4.023
28522W        W93507  32.198  31.121   2.761
28523W        W93508  14.769  17.101  12.748
28524W        W93509  26.833  18.503  13.632
28525W        W93510   8.891  28.044  14.583
28526W        W93511   5.298  37.773   2.435
28527W        W93512  16.141  33.491   3.376
28528W        W93513  28.663  34.159  11.310
28529W        W93514  16.528  40.016  13.578
28530W        W93515  21.016   8.885  12.119
28531W        W93516  31.446  28.233   1.686
28532W        W93517  36.555  34.811  14.016
28533W        W93518  34.931  29.875   0.681
28534W        W93519  12.012  41.307   3.794
28535W        W93520  15.823  38.562   1.830
28536W        W93521  26.059  35.418  11.413
28537W        W93522  12.358  11.542  12.967
28538W        W93523  38.214   6.291   1.455
28539W        W93524   5.254  43.667  14.046
28540W        W93525   0.869  40.281  10.332
28541W        W93526   3.785  18.680  14.974
28542W        W93527  12.703  24.225   4.131
28543W        W93528  38.345  16.892   3.348
28544W        W93529  10.522  28.653  13.400
28545W        W93530  11.855  25.599   1.834
28546W        W93531  24.468   1.197   0.866
28547W        W93532  42.945  18.185   5.035
28548W        W93533  44.735  25.939   2.288
28549W        W93534   9.562  21.488  13.256
28550W        W93535   8.115  13.062  10.873
28551W        W93536  29.925   5.255  12.865
28552W        W93537  33.621  14.252   5.018
28553W        W93538  14.761  13.286   1.735
28554W        W93539   4.351  32.468   2.384
28555W        W93540  40.842   6.220  14.946
28556W        W93541  11.626  31.965  11.700
28557W        W93542   0.407  15.554   2.567
28558W        W93543  30.565   0.562  11.413
28559W        W93544  29.846  10.740   3.812
28560W        W93545  41.844  30.373  14.228
28561W        W93546  31.115  41.297   4.083
28562W        W93547  34.678  20.187  14.995
28563W        W93548  23.001  31.325   3.348
28564W        W93549  36.791  41.989   4.211
28565W        W93550  44.014   2.340   1.298
28566W        W93551  37.523  32.839   4.854
28567W        W93552  39.948   1.190   4.451
28568W        W93553   9.359   4.448   2.634
28569W        W93554  13.760  31.637  14.801
28570W        W93555  28.657  16.276  14.959
28571W        W93556  41.890  19.632   0.464
28572W        W93557   6.846  21.092   4.580
28573W        W93558  14.951  40.750   0.713
28574W        W93559   0.314   2.867  14.128
28575W        W93560   9.207  44.427  12.455
28576W        W93561  28.912  22.741  14.404
28577W        W93562  17.310  34.422  14.300
28578W        W93563  23.020   2.998  10.802
28579W        W93564  22.210  29.407  11.859
28580W        W93565  15.350  10.646   4.335
28581W        W93566  21.482  26.694   0.788
28582W        W93567   5.291   4.924   9.908
28583W        W93568  19.139  40.562   3.081
28584W        W93569  25.012  40.364  12.065
28585W        W93570   9.198  31.984   0.253
28586W        W93571  15.785  32.950  13.398
28587W        W93572   9.387   0.626   2.740
28588W        W93573  21.408   3.168  10.655
28589W        W93574  40.604   6.226   1.308
28590W        W93575  29.661  11.782   1.639
28591W        W93576  27.363  37.817   1.755
28592W        W93577  30.855  35.202  12.638
28593W        W93578   6.625  30.843   0.960
28594W        W93579  32.013  16.761   4.356
28595W        W93580  12.113  42.525  13.781
28596W        W93581   4.706   8.793   0.353
28597W        W93582   9.140  14.357  12.558
28598W        W93583  18.583  24.061  13.717
28599W        W93584  36.578   7.859  12.491
28600W        W93585  24.066  38.991   0.988
28601W        W93586  26.130  42.013  14.659
28602W        W93587  11.409  15.844  13.441
28603W        W93588  13.033  17.974   0.311
28604W        W93589  18.956  23.515  14.023
28605W        W93590  44.666  13.195  12.680
28606W        W93591  34.586  39.342  12.204
28607W        W93592  34.947  21.630  12.538
28608W        W93593  14.550  19.791   4.210
28609W        W93594  27.377  43.811   0.081
28610W        W93595   0.883  40.343   0.849
28611W        W93596  33.993  22.388   1.407
28612W        W93597  26.686  35.027  13.913
28613W        W93598   0.735  42.019   4.114
28614W        W93599  34.044   1.322   4.777
28615W        W93600  15.849  29.591   2.250
28616W        W93601  12.170  15.601   4.404
28617W        W93602  24.198   3.785   4.261
28618W        W93603  10.307  24.076   4.630
28619W        W93604  38.382   7.737   4.636
28620W        W93605  36.810  11.581  14.356
28621W        W93606  30.985  30.425  14.015
28622W        W93607  34.599  13.452  10.156
28623W        W93608  23.989  41.224  14.299
28624W        W93609  15.614  33.022   4.383
28625W        W93610  35.758  13.110  13.015
28626W        W93611  10.320  37.913   1.749
28627W        W93612  29.236  15.753  10.744
28628W        W93613  38.908  38.131   0.392
28629W        W93614   7.835   6.799   0.816
28630W        W93615  40.826  30.857   2.756
28631W        W93616  38.399  43.963  14.382
28632W        W93617  44.693   9.232  10.787
28633W        W93618  31.661  29.622  14.494
28634W        W93619  36.361  36.765   1.214
28635W        W93620  27.972  15.627   4.993
28636W        W93621  11.158  25.477  10.332
28637W        W93622   0.341   7.341  10.680
28638W        W93623  29.487  40.534   2.953
28639W        W93624  34.391   3.662  13.928
28640W        W93625  41.067  36.536  12.833
28641W        W93626  17.099  35.457   4.731
28642W        W93627  29.181   4.974  13.415
28643W        W93628  23.246  36.315   0.413
28644W        W93629  10.391  38.130  12.103
28645W        W93630  30.025  13.622   0.920
28646W        W93631  34.055   7.356   0.384
28647W        W93632  32.908  27.145  13.356
28648W        W93633   9.196  27.635  10.791
28649W        W93634  18.661  33.461   2.659
28650W        W93635  22.838  17.731  13.488
28651W        W93636   6.263  23.656  13.975
28652W        W93637   2.842  15.493  13.001
28653W        W93638   5.192   1.194   3.517
28654W        W93639  10.296  42.959  12.781
28655W        W93640  12.346  16.097   4.456
28656W        W93641   6.921   3.239  13.827
28657W        W93642  17.469   6.203   0.910
28658W        W93643  11.612   7.205  14.764
28659W        W93644  16.817   7.373   4.084
28660W        W93645  17.728  20.184  12.606
28661W        W93646  33.176  38.080  14.758
28662W        W93647  34.630  23.137   4.242
28663W        W93648  29.980  17.809   1.789
28664W        W93649   8.815  16.205   1.605
28665W        W93650  28.016  25.405  14.045
28666W        W93651  21.692  19.024   2.726
28667W        W93652   5.893   4.340   1.617
28668W        W93653  29.874  36.783   1.880
28669W        W93654  18.549  39.867  13.527
28670W        W93655  37.945  34.991  14.442
28671W        W93656   5.248  19.817  12.420
28672W        W93657  33.394   4.215  11.327
28673W        W93658  18.304  14.682   4.570
28674W        W93659   9.972  44.402   3.149
28675W        W93660  32.406  42.049  12.511
28676W        W93661  12.121  30.653  11.899
28677W        W93662   4.669  35.277  13.341
28678W        W93663  41.521  18.987   0.711
28679W        W93664   4.485  43.321   1.348
28680W        W93665  34.578  14.123   1.398
28681W        W93666  35.765  11.414  13.151
28682W        W93667  21.215  33.631  10.682
28683W        W93668   7.840  33.943  12.823
28684W        W93669  19.187  31.632  13.142
28685W        W93670  18.802  13.744   3.123
28686W        W93671  31.086  17.515   2.839
28687W        W93672  31.967  30.326   3.997
28688W        W93673   6.218  24.212   1.853
28689W        W93674   3.925   5.370  11.570
28690W        W93675  18.615   1.193   2.821
28691W        W93676  10.653  36.796   2.332
28692W        W93677  34.165  40.537  11.628
28693W        W93678  17.174  20.670  11.102
28694W        W93679  37.813  35.658   0.868
28695W        W93680  31.621  43.775   3.247
28696W        W93681   7.643   8.852  13.976
28697W        W93682  13.141  23.464  13.044
28698W        W93683  18.364  30.026  12.545
28699W        W93684  38.665  32.946   0.434
28700W        W93685  21.966  30.341  12.264
28701W        W93686  14.287  12.640   1.449
28702W        W93687  15.969  17.381   2.718
28703W        W93688  16.906   5.298   3.938
28704W        W93689  11.335   0.485  11.995
28705W        W93690   5.648  20.161  13.850
28706W        W93691   6.871  15.315  10.525
28707W        W93692  36.551  25.499  12.843
28708W        W93693   7.200   8.290   4.552
28709W        W93694  31.673  28.684  11.506
28710W        W93695  37.054  18.535  11.084
28711W        W93696  33.595  36.502  10.723
28712W        W93697  37.312  28.575  14.789
28713W        W93698  19.016   5.270   5.081
28714W        W93699  26.094  42.052   4.414
28715W        W93700  34.098  22.930   1.477
28716W        W93701  22.229  35.837  13.120
28717W        W93702   7.520   7.279   1.510
28718W        W93703  24.024  22.295   1.766
28719W        W93704   5.785  12.032  11.431
28720W        W93705   1.925   1.160  11.537
28721W        W93706  32.818  31.524   3.580
28722W        W93707  20.263   1.380   2.670
28723W        W93708  31.032  43.556   2.312
28724W        W93709  27.752  13.115   4.608
28725W        W93710  26.399   7.314  12.850
28726W        W93711  34.437  27.020   4.252
28727W        W93712   4.143  13.042   1.144
28728W        W93713  25.669  17.627  14.503
28729W        W93714  10.505   6.170   4.212
28730W        W93715   6.284  29.095   4.710
28731W        W93716  35.520  24.244  12.922
28732W        W93717   3.309  17.355   2.929
28733W        W93718  22.425  31.886  13.052
28734W        W93719  42.794   2.537   0.442
28735W        W93720  27.126  23.027   3.822
28736W        W93721  19.633  16.967   1.853
28737W        W93722  36.207  32.450   0.238
28738W        W93723  36.354  43.757  12.867
28739W        W93724  40.400  23.894  13.050
28740W        W93725  19.714  38.404   2.713
28741W        W93726  17.554   2.931   0.343
28742W        W93727   6.493  40.590   0.913
28743W        W93728  30.841  44.002   2.130
28744W        W93729   1.122  22.986   3.186
28745W        W93730  23.408  28.049  10.515
28746W        W93731  32.689   6.319   3.380
28747W        W93732  36.784  23.575  11.690
28748W        W93733  10.731  32.535   2.733
28749W        W93734  38.990  14.728  10.756
28750W        W93735  13.347  17.010   0.450
28751W        W93736  44.759  23.057  11.464
28752W        W93737  42.328  14.549   3.930
28753W        W93738  32.823  16.592  13.429
28754W        W93739  25.480  39.585   2.783
28755W        W93740  24.666  28.558   0.749
28756W        W93741  34.423  25.745  11.926
28757W        W93742  30.480  28.136   0.362
28758W        W93743  36.601  34.883   0.646
28759W        W93744   1.700  17.725  11.274
28760W        W93745  22.124   1.459   3.172
28761W        W93746   0.291  44.255   3.706
28762W        W93747  19.947  23.069  14.968
28763W        W93748  22.114   6.869   3.085
28764W        W93749  20.721  19.886   0.470
28765W        W93750  20.643  35.558   0.294
28766W        W93751  43.817  29.967   4.397
28767W        W93752  42.019  32.225  14.911
28768W        W93753   2.359  11.090   4.500
28769W        W93754  12.654   4.471   1.773
28770W        W93755  39.673   5.668   2.790
28771W        W93756  27.521  17.641   3.890
28772W        W93757  23.226  32.165   3.636
28773W        W93758   7.249  23.211   3.823
28774W        W93759  41.371  23.583   5.257
28775W        W93760   0.819  36.884   0.451
28776W        W93761  18.917  20.664  14.933
28777W        W93762   5.936   4.254   0.221
28778W        W93763  10.694  14.220   2.283
28779W        W93764  10.920   4.785   1.426
28780W        W93765  20.597   2.826   4.768
28781W        W93766  28.996   0.358  12.445
28782W        W93767  32.653  28.611   1.248
28783W        W93768  15.781  44.973   0.249
28784W        W93769   7.316  20.597  12.615
28785W        W93770  37.804   5.876  14.938
28786W        W93771  21.818   0.287   0.260
28787W        W93772  40.758   2.028  10.971
28788W        W93773  16.074  36.023  10.717
28789W        W93774   3.900   9.759   1.196
28790W        W93775   7.336  29.595  11.517
28791W        W93776  12.401   4.293   0.402
28792W        W93777  35.073  10.874  12.018
28793W        W93778  19.258  17.757  11.622
28794W        W93779  16.866  15.557  12.071
28795W        W93780  15.510  11.354   0.172
28796W        W93781  26.448  40.501  13.119
28797W        W93782   4.905  34.165  11.236
28798W        W93783  36.967  25.013   4.488
28799W        W93784  41.477  28.149  12.936
28800W        W93785  33.418  23.627   3.120
28801W        W93786  38.998  43.113   1.799
28802W        W93787  44.928  41.720  12.869
28803W        W93788  17.054  23.301   4.091
28804W        W93789  43.950  39.861  11.452
28805W        W93790  26.298  36.905  11.084
28806W        W93791  21.166  13.642  13.763
28807W        W93792  13.332  39.409   1.324
28808W        W93793   8.662  13.007   5.146
28809W        W93794  32.797  15.094   4.092
28810W        W93795   3.898  28.443  14.382
28811W        W93796  30.757   1.051   4.246
28812W        W93797   0.798  24.553  12.997
28813W        W93798  12.930   8.617  10.824
28814W        W93799  38.806  10.809  11.938
28815W        W93800  25.217   1.385  14.225
28816W        W93801  30.904  27.915  14.455
28817W        W93802  26.704  34.616   4.147
28818W        W93803  25.581   4.308  13.929
28819W        W93804  13.930  40.894   0.971
28820W        W93805  16.183  33.568   2.867
28821W        W93806  31.960  25.763  12.112
28822W        W93807  22.019  17.014   4.709
28823W        W93808  38.250   6.742   1.715
28824W        W93809  20.949  22.492  12.520
28825W        W93810   4.437   5.207  13.246
28826W        W93811   5.980  41.526   4.233
28827W        W93812  42.286   3.395  10.675
28828W        W93813  42.927  18.922   2.863
28829W        W93814  29.668  11.604  14.410
28830W        W93815  41.940  34.444  12.380
28831W        W93816  44.462   7.183  12.282
28832W        W93817  33.966  32.960  10.719
28833W        W93818  33.993  35.937   1.507
28834W        W93819   4.667   6.223  10.073
28835W        W93820  26.728  11.544   0.530
28836W        W93821  26.799  23.548   4.574
28837W        W93822  15.674  31.447   4.143
28838W        W93823   6.957  38.590  13.634
28839W        W93824   7.807  10.406  14.486
28840W        W93825  34.003   6.756   3.560
28841W        W93826  11.289  29.134   4.572
28842W        W93827  22.457  20.581   4.533
28843W        W93828   6.331  13.150   1.903
28844W        W93829  13.810  20.069   4.083
28845W        W93830   7.731  17.742   2.388
28846W        W93831  34.815  39.353   0.445
28847W        W93832  26.631  23.597   2.185
28848W        W93833  22.692  16.763  10.471
28849W        W93834  16.863  25.777  12.941
28850W        W93835   0.976  15.010   1.892
28851W        W93836  42.336   6.961   1.452
28852W        W93837  22.324  41.080  11.640
28853W        W93838   4.960  13.411   4.173
28854W        W93839   7.719  37.030  13.461
28855W        W93840  21.617  18.598  10.806
28856W        W93841  37.113   0.986  13.822
28857W        W93842  13.662   9.207  10.413
28858W        W93843  11.107   3.365  13.980
28859W        W93844  18.635  43.008  14.793
28860W        W93845  34.524  22.924  12.759
28861W        W93846  12.686  34.509   1.778
28862W        W93847   0.722   0.709  10.912
28863W        W93848  40.734   7.816   0.445
28864W        W93849  10.309  11.104   2.735
28865W        W93850   9.383  16.749   3.751
28866W        W93851  16.256  10.834   3.243
28867W        W93852  23.039   8.302   0.690
28868W        W93853  13.773  29.913   3.085
28869W        W93854  10.372   0.087  11.320
28870W        W93855  19.112  31.961   3.137
28871W        W93856  44.758  14.757   3.445
28872W        W93857  14.238  11.216   3.311
28873W        W93858  17.802   0.100   1.580
28874W        W93859  26.250  16.623   1.302
28875W        W93860   6.929  10.660   1.846
28876W        W93861  13.863  13.278  10.688
28877W        W93862  42.344  35.126   0.902
28878W        W93863  17.529   6.232   2.385
28879W        W93864  38.580   4.433  11.586
28880W        W93865  10.016  11.702   4.161
28881W        W93866  16.476  17.364   2.696
28882W        W93867  13.602   3.476  13.586
28883W        W93868  26.131  30.672   3.575
28884W        W93869  14.588   8.741   4.121
28885W        W93870  34.092  17.976  11.565
28886W        W93871  25.096  24.071  12.212
28887W        W93872  38.600   3.652  12.867
28888W        W93873  23.948  28.497   3.573
28889W        W93874  30.019   0.887   2.631
28890W        W93875  44.715  29.581   4.631
28891W        W93876  17.105   9.167   1.825
28892W        W93877  41.408  24.034  13.308
28893W        W93878  30.366   5.493   0.356
28894W        W93879  28.467  17.537  12.806
28895W        W93880  34.628   8.108  12.466
28896W        W93881  20.809   1.843   1.827
28897W        W93882  10.683  30.162   1.441
28898W        W93883  16.815   8.150  10.157
28899W        W93884  30.626  16.134   4.960
28900W        W93885  24.689  10.281  11.544
28901W        W93886  28.385  17.175   0.924
28902W        W93887  24.729  17.954  12.085
28903W        W93888   3.870  26.711  11.843
28904W        W93889   7.754  15.684   4.985
28905W        W93890  28.508  15.537  13.088
28906W        W93891  18.096  42.023   0.088
28907W        W93892  14.825  35.063   0.686
28908W        W93893   8.423  36.358  13.523
28909W        W93894  17.937  39.153  13.450
28910W        W93895   6.757  39.412   0.917
28911W        W93896  33.580  29.721   2.261
28912W        W93897  32.375  24.979   0.006
28913W        W93898   0.381  41.870   1.753
28914W        W93899  29.874  12.360  11.900
28915W        W93900  23.296  29.045   4.570
28916W        W93901  12.645  15.476   4.202
28917W        W93902   7.448  15.132  10.365
28918W        W93903  35.268  23.567  10.736
28919W        W93904  41.522   0.269  13.857
28920W        W93905  23.742   1.866   2.657
28921W        W93906  31.680   2.192   4.984
28922W        W93907  29.019  44.718  14.845
28923W        W93908  35.583   3.269   2.243
28924W        W93909  16.410   4.364  14.847
28925W        W93910  29.429  31.175   3.279
28926W        W93911  37.563  29.720   1.813
28927W        W93912  41.726   2.128  12.118
28928W        W93913   8.518  28.713  11.203
28929W        W93914  36.085   8.741   1.230
28930W        W93915  18.575  35.825  13.926
28931W        W93916  23.494  42.554   1.331
28932W        W93917  15.633  20.394  10.147
28933W        W93918  41.381  17.745  13.564
28934W        W93919  33.969  17.321   3.406
28935W        W93920  42.559  32.009  12.066
28936W        W93921  13.784  14.093  10.984
28937W        W93922   0.760  21.999  10.477
28938W        W93923  29.586  24.422   3.436
28939W        W93924  19.146  25.720  12.869
28940W        W93925  22.692  42.460  12.076
28941W        W93926  12.432   6.840  11.908
28942W        W93927  31.440   0.538  13.516
28943W        W93928  12.397   4.906   1.974
28944W        W93929   6.211  21.272  10.431
28945W        W93930  33.436  36.826  11.423
28946W        W93931  12.094  41.278  11.538
28947W        W93932  24.925  15.039   2.725
28948W        W93933  16.090  19.602   9.801
28949W        W93934   8.400  18.295   0.217
28950W        W93935  10.841  23.428   4.563
28951W        W93936   1.469   0.952  10.707
28952W        W93937  34.709  34.678  11.136
28953W        W93938  35.006  17.716  14.993
28954W        W93939  34.988  27.189  11.131
28955W        W93940  34.095  43.887  12.099
28956W        W93941  35.721  42.834  10.991
28957W        W93942  25.507  27.693   4.894
28958W        W93943  11.928  40.996  14.854
28959W        W93944  10.655  44.756  12.617
28960W        W93945  33.133  39.847  12.260
28961W        W93946  14.729  30.106   1.366
28962W        W93947  25.949  13.262  13.113
28963W        W93948   2.159   6.252  11.531
28964W        W93949  41.392   1.723   1.313
28965W        W93950  26.518   3.703   2.801
28966W        W93951  13.789   8.665   0.383
28967W        W93952  14.533  26.673   5.060
28968W        W93953  26.768  10.164   1.523
28969W        W93954  23.588   5.628   4.522
28970W        W93955  41.662  16.168  12.541
28971W        W93956  17.767   2.613   3.792
28972W        W93957  11.433  42.843   2.286
28973W        W93958  30.788   8.739  14.566
28974W        W93959  23.684  17.082  14.475
28975W        W93960  16.032  32.082  13.558
28976W        W93961  22.010  11.702  14.068
28977W        W93962  20.240  15.319  13.187
28978W        W93963  44.321  40.048   2.359
28979W        W93964  36.814  39.757  10.825
28980W        W93965  41.952  22.798   2.475
28981W        W93966  32.771   7.547   2.178
28982W        W93967   3.362   9.946  14.399
28983W        W93968   0.258  31.765  12.712
28984W        W93969  13.236   1.902   2.343
28985W        W93970  28.695  44.876  11.173
28986W        W93971  29.041  21.109   0.969
28987W        W93972  23.128   9.060  13.397
28988W        W93973  28.104  34.919   3.232
28989W        W93974  14.106  25.561   1.275
28990W        W93975  22.924  16.172  13.168
28991W        W93976  28.954  31.105  11.699
28992W        W93977   2.844  13.436   0.941
28993W        W93978  19.255  29.825  14.466
28994W        W93979   6.439  43.361   0.629
28995W        W93980  20.484  43.946  12.438
28996W        W93981   7.459   1.087  12.395
28997W        W93982   6.932  31.046   3.764
28998W        W93983   0.820  31.537  12.020
28999W        W93984  16.237  28.672  12.461
29000W        W93985  15.008  33.047  12.975
29001W        W93986  24.997  44.776   4.328
29002W        W93987   7.205  36.084   4.560
29003W        W93988  17.814  34.550  12.620
29004W        W93989  24.557  16.321   1.810
29005W        W93990  12.683  33.941  11.347
29006W        W93991  34.425   9.655  13.300
29007W        W93992  33.633  28.255   1.253
29008W        W93993  26.806   4.436   2.436
29009W        W93994  38.250  27.656   1.925
29010W        W93995   6.077   5.366   2.180
29011W        W93996  39.531  40.666  12.023
29012W        W93997  43.744  40.053   4.076
29013W        W93998   4.697  12.929   3.021
29014W        W93999  41.396   2.878  14.273
29015W        W94000  13.719   5.423  10.271
29016W        W94001  41.452   4.051   1.267
29017W        W94002  21.778   0.189   1.277
29018W        W94003  22.267   0.847  11.675
29019W        W94004  17.912  34.068   0.756
29020W        W94005  15.373  25.018  11.527
29021W        W94006  30.743   2.719  14.759
29022W        W94007  15.889  31.006   1.960
29023W        W94008  29.054  38.055   0.828
29024W        W94009  38.458  19.970   1.519
29025W        W94010   1.921  13.377  14.551
29026W        W94011  39.367  24.016  11.547
29027W        W94012  28.521  28.161   2.158
29028W        W94013  15.657  25.547   2.621
29029W        W94014  42.672  35.755  10.596
29030W        W94015  27.187  10.249   4.797
29031W        W94016  26.201  31.492  13.000
29032W        W94017  28.351  29.278  11.976
29033W        W94018  42.334  32.880  13.443
29034W        W94019  42.433  40.782   4.676
29035W        W94020  35.617  32.454  13.885
29036W        W94021  43.650  12.531   9.742
29037W        W94022  26.921  17.147  11.186
29038W        W94023  36.046  24.659   3.318
29039W        W94024  11.686  29.427   1.977
29040W        W94025  35.564  34.869  12.940
29041W        W94026   3.727  24.090  11.587
29042W        W94027  29.209  24.087   4.397
29043W        W94028  18.966  11.639   2.404
29044W        W94029  31.194  37.339  14.440
29045W        W94030  35.981  11.740   1.754
29046W        W94031  40.593   9.336   0.413
29047W        W94032  12.958  22.001   0.219
29048W        W94033  24.798   2.805   4.553
29049W        W94034  35.430  35.525  13.891
29050W        W94035  12.916   4.466   4.125
29051W        W94036   2.771  25.550  11.139
29052W        W94037   1.077  37.289   2.035
29053W        W94038  15.569  31.411  14.030
29054W        W94039  41.457  23.231   1.808
29055W        W94040  43.798   2.830   2.281
29056W        W94041  16.550  32.035  10.698
29057W        W94042  42.893  26.962   0.406
29058W        W94043  21.511   7.030   3.856
29059W        W94044  17.200  29.196  13.861
29060W        W94045  22.790   1.950   0.348
29061W        W94046  38.328   7.324  10.591
29062W        W94047  31.628  29.641  12.475
29063W        W94048  37.116  42.546   1.004
29064W        W94049  40.791  36.076  14.170
29065W        W94050  31.355  14.317   3.299
29066W        W94051  36.523  27.680   4.546
29067W        W94052  37.480   4.819   2.760
29068W        W94053  22.129  18.822  13.004
29069W        W94054  18.996  22.033   0.164
29070W        W94055   8.657   3.391   1.282
29071W        W94056  36.933  32.093  14.909
29072W        W94057  23.615  36.400   3.744
29073W        W94058  29.977  40.821   4.251
29074W        W94059  38.838  39.148   0.440
29075W        W94060  32.425  21.211  10.785
29076W        W94061  22.761   5.295  13.483
29077W        W94062  36.635  21.061  14.902
29078W        W94063  33.136  12.879   4.419
29079W        W94064  41.342  37.062  14.410
29080W        W94065  17.177   3.040  10.328
29081W        W94066  13.412  15.442   1.067
29082W        W94067  30.655  12.130   2.866
29083W        W94068  10.257   4.676  10.983
29084W        W94069  28.048  25.397  14.874
29085W        W94070  20.318   5.341  12.531
29086W        W94071  20.298  10.877  12.589
29087W        W94072  42.769  29.907   2.438
29088W        W94073  20.613   8.041   5.061
29089W        W94074   1.947  34.533  10.762
29090W        W94075  27.137  44.676  14.383
29091W        W94076  27.104  35.472  14.717
29092W        W94077  20.053   2.784  14.062
29093W        W94078   9.921   5.186   9.774
29094W        W94079  11.833   3.502   4.169
29095W        W94080  41.886   6.468   4.615
29096W        W94081  28.500  16.743  14.856
29097W        W94082   7.585  25.959  12.351
29098W        W94083   6.732  11.860  12.478
29099W        W94084  24.592  16.574  14.420
29100W        W94085  22.696  21.171  12.047
29101W        W94086  20.071  25.561  11.688
29102W        W94087   6.857  37.772  11.986
29103W        W94088   6.895   4.410   0.400
29104W        W94089  28.117  19.066  14.526
29105W        W94090  25.379  39.509  12.233
29106W        W94091  10.116  41.315  11.223
29107W        W94092  26.649  20.591   3.790
29108W        W94093   6.722  41.214  13.694
29109W        W94094  10.831  30.672  12.380
29110W        W94095  21.950  31.053   2.445
29111W        W94096  31.782   4.232   1.827
29112W        W94097  41.159  13.785  12.135
29113W        W94098  11.259  27.574  13.331
29114W        W94099   9.264  25.160   1.958
29115W        W94100  17.835   3.137   3.913
29116W        W94101  24.904   8.661   4.966
29117W        W94102  18.647  12.420   3.100
29118W        W94103  22.947   1.945   3.283
29119W        W94104   0.700  30.473   3.617
29120W        W94105  27.945  15.017   0.388
29121W        W94106  37.110  41.973  13.373
29122W        W94107   2.714  17.199   2.321
29123W        W94108  33.113  32.125   3.760
29124W        W94109  31.459  18.234   3.872
29125W        W94110  23.408  36.868   3.050
29126W        W94111  44.343   3.884   1.409
29127W        W94112  18.645  27.319   1.306
29128W        W94113  16.219  30.143  10.923
29129W        W94114  44.838   0.004  13.095
29130W        W94115   8.492  30.711  12.691
29131W        W94116   6.755  40.299   4.296
29132W        W94117   9.870   6.436  11.138
29133W        W94118  42.589  22.270   2.952
29134W        W94119  36.014  32.603  12.073
29135W        W94120  16.093  24.617  11.582
29136W        W94121  43.465  27.161   4.707
29137W        W94122  23.100  28.921  11.973
29138W        W94123   2.431  20.580   1.463
29139W        W94124  24.108  40.865   0.955
29140W        W94125  14.078   2.383  14.275
29141W        W94126  41.549  37.104  12.148
29142W        W94127  22.455  15.051   2.894
29143W        W94128   9.290   6.884  10.752
29144W        W94129  39.521  18.670   1.581
29145W        W94130   8.651  15.034  12.964
29146W        W94131  28.988   5.720  13.950
29147W        W94132   6.719  22.924  12.085
29148W        W94133  42.558  18.614   2.207
29149W        W94134   8.119   2.600   2.322
29150W        W94135   6.402  35.020  13.965
29151W        W94136  18.369   8.688  12.405
29152W        W94137  42.327  34.483  13.187
29153W        W94138  26.766   6.422  10.863
29154W        W94139  38.066  23.018   2.282
29155W        W94140  35.777  12.612  14.279
29156W        W94141  35.026  27.655   1.279
29157W        W94142  33.138   2.241   2.706
29158W        W94143  29.270  31.250   9.835
29159W        W94144  11.401  43.923  14.909
29160W        W94145  21.605   3.993  11.555
29161W        W94146   6.237  31.437  12.961
29162W        W94147   6.361  44.429  13.833
29163W        W94148  17.305   5.425  14.080
29164W        W94149  20.696  42.288   3.831
29165W        W94150  27.044  26.491   2.172
29166W        W94151  18.172   0.215   0.281
29167W        W94152  33.559   4.467   4.113
29168W        W94153  22.522  22.081   3.209
29169W        W94154  38.278  38.316  12.485
29170W        W94155  25.554  38.646  12.090
29171W        W94156  28.435   8.637  11.670
29172W        W94157  35.866   7.725  12.041
29173W        W94158  24.758  11.768   4.132
29174W        W94159  15.699  19.871  12.521
29175W        W94160   8.186  36.334   4.615
29176W        W94161   2.700   2.245  12.173
29177W        W94162  10.126  24.115  14.874
29178W        W94163  21.727  20.552   3.582
29179W        W94164  26.970  18.100  11.424
29180W        W94165  34.917   4.431   3.375
29181W        W94166  24.128  20.741  12.050
29182W        W94167   1.566   4.632   2.832
29183W        W94168  38.859   3.282   2.185
29184W        W94169   3.364  21.289   0.744
29185W        W94170  23.743  17.187   2.238
29186W        W94171  38.951  22.674   2.628
29187W        W94172  11.400   1.998  14.015
29188W        W94173  32.880  36.261   1.932
29189W        W94174  10.574   7.088  12.041
29190W        W94175  15.185  39.001   3.071
29191W        W94176  26.644  24.733  14.338
29192W        W94177  20.531  37.409   2.428
29193W        W94178  18.711  13.278   3.355
29194W        W94179   9.904  18.168  13.367
29195W        W94180  44.521   7.927  13.519
29196W        W94181  43.326  28.201  11.069
29197W        W94182   6.721  43.827   2.662
29198W        W94183  32.950  15.287   1.929
29199W        W94184  31.471   5.337   0.020
29200W        W94185  32.428  18.080  14.622
29201W        W94186  30.160   8.638  10.742
29202W        W94187  43.278  34.971  13.349
29203W        W94188   2.397  32.954   1.917
29204W        W94189  43.925  21.062  14.935
29205W        W94190  21.454  35.902   2.889
29206W        W94191  17.356  12.895  13.075
29207W        W94192  40.858  44.121  13.612
29208W        W94193  19.667  16.756  11.094
29209W        W94194   9.080   6.039   1.744
29210W        W94195  25.307   8.987   3.739
29211W        W94196  14.342  18.043  10.739
29212W        W94197  32.681  27.119  14.800
29213W        W94198   0.040  37.490  12.081
29214W        W94199  38.445  31.398  10.466
29215W        W94200  20.084  15.258   2.603
29216W        W94201  24.492   2.674  11.765
29217W        W94202  41.588   5.197   4.128
29218W        W94203  11.481   5.476   1.183
29219W        W94204   2.737  39.694  11.181
29220W        W94205  28.916  37.380   0.018
29221W        W94206   0.802  26.893  12.130
29222W        W94207  25.696   8.745  14.747
29223W        W94208   4.978  25.639   4.894
29224W        W94209  34.531  37.135  10.687
29225W        W94210   2.143  14.173  10.705
29226W        W94211  26.624   7.408  14.103
29227W        W94212   3.690  36.419  11.147
29228W        W94213  22.160  37.285   3.157
29229W        W94214  25.652  43.686  11.929
29230W        W94215  24.084  17.770  12.840
29231W        W94216  20.216   1.680  10.762
29232W        W94217   2.501  15.029  11.067
29233W        W94218  28.628   7.164  14.705
29234W        W94219  40.355  25.318  14.796
29235W        W94220  26.428   5.802   2.101
29236W        W94221   4.778  22.463   2.231
29237W        W94222  37.528  10.881   1.798
29238W        W94223  18.617  43.537   1.987
29239W        W94224  13.786  29.465   3.333
29240W        W94225  30.087  11.146  10.988
29241W        W94226  35.372  34.502  10.499
29242W        W94227  32.645  34.345   0.287
29243W        W94228   1.934  32.657  11.899
29244W        W94229  21.557  32.160  11.011
29245W        W94230   2.169  14.902   2.800
29246W        W94231  16.830   9.093  13.058
29247W        W94232  17.229   2.930  12.943
29248W        W94233  40.541  16.562   2.242
29249W        W94234  32.627  12.141   3.921
29250W        W94235   5.496  35.311  11.185
29251W        W94236  30.117  24.102   4.216
29252W        W94237  43.589  16.387  11.216
29253W        W94238   6.336  21.517  11.300
29254W        W94239   3.255  25.176   0.948
29255W        W94240  38.906   5.288  12.111
29256W        W94241  18.720  13.266  14.729
29257W        W94242   6.133  15.737  13.352
29258W        W94243   6.557  16.553   4.360
29259W        W94244  12.335  38.354   2.258
29260W        W94245  17.363  22.171  14.084
29261W        W94246  13.664  37.043   2.221
29262W        W94247  15.630  20.710  14.104
29263W        W94248  31.116  29.497   2.436
29264W        W94249  44.921  21.434   3.537
29265W        W94250  30.784  44.296  11.851
29266W        W94251  27.943  36.416   2.083
29267W        W94252  13.650   2.180   0.777
29268W        W94253  14.211  42.402  14.453
29269W        W94254  23.667  17.307   3.730
29270W        W94255  14.758  43.801  13.229
29271W        W94256  11.774  14.644   5.205
29272W        W94257  29.154   4.924   1.367
29273W        W94258   6.133  30.695   0.357
29274W        W94259  37.454  13.523   0.171
29275W        W94260  33.779  18.117  10.644
29276W        W94261  11.766  42.020   3.642
29277W        W94262   6.708   2.466  14.939
29278W        W94263  30.117  31.693   5.624
29279W        W94264  23.780  16.281  13.056
29280W        W94265  14.986  27.270  14.854
29281W        W94266  18.890   1.251  14.695
29282W        W94267  43.478  37.285  13.930
29283W        W94268  14.924  43.230   1.192
29284W        W94269  41.461  18.372   1.860
29285W        W94270  21.279  14.803  12.025
29286W        W94271  39.480  42.064  11.035
29287W        W94272  35.913  33.006   1.463
29288W        W94273  15.771  41.186  13.381
29289W        W94274  23.638  12.100  12.590
29290W        W94275  15.047  38.867   2.593
29291W        W94276   4.960  30.639   0.300
29292W        W94277   4.098  26.291  12.079
29293W        W94278  23.272  27.860   1.271
29294W        W94279  20.753  27.673  11.948
29295W        W94280   4.488   0.187   2.927
29296W        W94281   1.655  35.060  14.184
29297W        W94282  37.168  17.551   4.939
29298W        W94283  38.378  32.446  13.951
29299W        W94284  18.184  17.497  14.790
29300W        W94285  30.445  29.646  11.439
29301W        W94286   8.393  18.127   4.136
29302W        W94287  20.845  40.424   0.635
29303W        W94288  35.854   6.898   0.284
29304W        W94289  21.960   8.622   4.153
29305W        W94290  29.446  34.661   3.642
29306W        W94291  37.064   8.213  13.879
29307W        W94292  43.291  30.851   3.676
29308W        W94293  31.393  33.101   1.377
29309W        W94294  44.942   6.822   2.399
29310W        W94295  12.286  39.922  10.726
29311W        W94296  15.771  33.987  11.915
29312W        W94297  36.093   8.200   0.546
29313W        W94298  18.621   7.865   2.288
29314W        W94299  11.352  38.062  14.737
29315W        W94300   4.788  40.886  13.890
29316W        W94301  33.324  25.634  12.805
29317W        W94302  11.122  36.456   2.817
29318W        W94303  33.154  18.833   2.757
29319W        W94304   3.797  35.683   1.749
29320W        W94305  38.028  19.798  14.931
29321W        W94306  29.017   5.832   2.918
29322W        W94307  10.932  19.607  12.004
29323W        W94308  26.580   8.676   3.288
29324W        W94309  18.514   3.910   4.783
29325W        W94310  14.586  14.310  14.900
29326W        W94311  11.699  30.504  12.138
29327W        W94312  28.427   5.442  12.336
29328W        W94313   2.514  35.542  14.004
29329W        W94314  30.674   7.805  14.815
29330W        W94315  19.503   0.077  11.798
29331W        W94316  34.742  35.361   4.606
29332W        W94317   6.408   9.745  13.327
29333W        W94318   0.503  42.955   0.717
29334W        W94319  43.471  13.776  11.139
29335W        W94320  14.708  22.017   0.800
29336W        W94321  20.327  13.233  14.189
29337W        W94322  12.176  41.943   4.495
29338W        W94323  40.502  32.398   2.312
29339W        W94324  27.683  10.143   1.057
29340W        W94325   4.330  26.186   3.345
29341W        W94326  21.626  41.037  14.434
29342W        W94327  33.882  16.966   1.241
29343W        W94328  10.917   7.764  10.055
29344W        W94329  12.860   2.750  11.745
29345W        W94330  39.270  32.955   1.314
29346W        W94331   7.267  42.509  13.627
29347W        W94332   6.311  26.134   1.550
29348W        W94333  26.448   1.045  11.087
29349W        W94334  10.125  36.897  12.575
29350W        W94335  38.741  34.911   3.619
29351W        W94336   3.973   8.260   3.705
29352W        W94337  20.023  28.500   3.715
29353W        W94338  37.118   3.225   1.410
29354W        W94339  33.910  42.146   2.623
29355W        W94340  14.778  41.282   4.196
29356W        W94341  40.977  44.701  14.336
29357W        W94342  16.327   4.277  13.939
29358W        W94343  22.244  22.653   4.135
29359W        W94344   7.760  14.128  13.931
29360W        W94345  34.018  34.119  11.187
29361W        W94346  14.841  20.228  12.653
29362W        W94347  42.292  42.206   0.174
29363W        W94348  33.093  41.947  13.923
29364W        W94349   3.498  22.785   2.950
29365W        W94350  14.635  21.771  13.848
29366W        W94351  40.556  16.828   2.678
29367W        W94352  28.737   2.865  13.691
29368W        W94353   0.126   8.895   3.017
29369W        W94354  24.485   6.717  11.992
29370W        W94355   3.226  15.131  14.533
29371W        W94356  33.240   0.865   4.101
29372W        W94357  31.504  15.094   1.878
29373W        W94358  16.309  29.183  12.405
29374W        W94359  36.261  20.511  11.621
29375W        W94360  37.658  29.972  11.273
29376W        W94361  35.044  41.064  11.146
29377W        W94362  42.209  33.390   2.690
29378W        W94363   9.238  44.481  13.336
29379W        W94364  32.312  36.548   1.314
29380W        W94365  10.673   4.484   1.781
29381W        W94366  37.682   5.791   0.912
29382W        W94367  12.327   3.515   1.635
29383W        W94368  41.218  12.718  12.182
29384W        W94369  22.770   5.278   0.853
29385W        W94370  11.681  29.994  10.828
29386W        W94371  36.885   1.954   0.671
29387W        W94372  24.186  38.292   1.305
29388W        W94373  34.481  15.121   1.706
29389W        W94374  13.846  10.404   0.811
29390W        W94375  10.527  16.762   0.425
29391W        W94376  32.475  15.549   0.657
29392W        W94377  21.444  27.741   4.129
29393W        W94378  40.802  18.146   0.050
29394W        W94379  39.867  37.150   1.517
29395W        W94380  25.042  27.832   0.505
29396W        W94381  24.127  14.626   1.322
29397W        W94382  41.473  41.277  13.397
29398W        W94383  17.256  40.046  10.720
29399W        W94384  18.899  29.447   2.783
29400W        W94385  40.526  15.784   0.783
29401W        W94386  13.057  16.375   4.046
29402W        W94387  36.684  11.718   1.186
29403W        W94388   1.255  17.456  10.690
29404W        W94389   3.982  28.999  11.950
29405W        W94390  32.523  21.545   4.609
29406W        W94391  40.054   4.385   0.264
29407W        W94392  39.955  41.622  10.634
29408W        W94393  41.692  30.635  11.382
29409W        W94394   7.299  23.164   0.760
29410W        W94395  27.648  18.306  11.957
29411W        W94396  20.497  22.762  12.548
29412W        W94397  22.079   3.052  14.518
29413W        W94398  25.609  26.802   1.436
29414W        W94399   4.327   7.132  14.931
29415W        W94400   3.130  14.878   0.747
29416W        W94401  41.304  35.936   2.623
29417W        W94402  20.697   2.828   1.300
29418W        W94403  10.336   0.005   3.068
29419W        W94404  28.645  10.603  14.751
29420W        W94405  14.191  30.655  12.937
29421W        W94406  19.033   5.864  14.464
29422W        W94407   2.994  33.936  13.041
29423W        W94408  14.216   2.627   4.793
29424W        W94409   1.007   5.489   0.394
29425W        W94410  25.754  33.669  13.015
29426W        W94411   6.469  25.875  13.144
29427W        W94412  16.785   0.905  12.848
29428W        W94413  29.591  23.101  12.669
29429W        W94414  38.917   0.659  10.104
29430W        W94415   5.849  25.593   3.639
29431W        W94416  12.055  10.388   1.685
29432W        W94417   3.202  36.583  11.168
29433W        W94418  26.140  10.250  14.497
29434W        W94419   3.411  34.235  12.908
29435W        W94420  37.909  25.749  11.914
29436W        W94421  12.152  10.718   2.722
29437W        W94422   3.373  29.942  14.920
29438W        W94423  41.903  20.831   1.405
29439W        W94424  41.028  18.777  14.496
29440W        W94425  31.163  34.849  11.086
29441W        W94426  21.986  17.764  14.453
29442W        W94427  35.092  14.128   1.158
29443W        W94428  34.608  34.415   1.378
29444W        W94429   4.258  16.388  12.081
29445W        W94430   9.141  44.821   0.865
29446W        W94431  30.517  22.149  14.999
29447W        W94432  30.931   0.769   2.464
29448W        W94433  10.768  37.270  12.823
29449W        W94434  25.995  27.891  12.090
29450W        W94435  33.221   5.327  14.962
29451W        W94436  17.678  25.387  12.125
29452W        W94437   3.285  11.849   3.326
29453W        W94438   1.960  18.017   2.339
29454W        W94439   5.665  21.684  12.388
29455W        W94440   1.789  14.121  12.836
29456W        W94441  21.074  41.919   1.959
29457W        W94442  31.950  14.921   1.576
29458W        W94443  40.266  26.986   3.639
29459W        W94444  38.896  26.757  13.607
29460W        W94445  39.408  29.166   0.690
29461W        W94446   6.746  37.017   0.489
29462W        W94447  34.562  34.562  14.304
29463W        W94448  24.309  36.880   2.990
29464W        W94449   1.642  15.105   0.955
29465W        W94450   0.563  44.702   3.704
29466W        W94451  42.155   4.994   2.345
29467W        W94452  10.510  10.366  13.334
29468W        W94453  28.019  12.106   4.746
29469W        W94454  30.141  44.619   2.131
29470W        W94455   6.235  31.814  12.129
29471W        W94456  27.150  32.478  13.963
29472W        W94457  34.989  26.404  12.897
29473W        W94458  39.188  33.474   2.890
29474W        W94459  36.164  26.537  10.682
29475W        W94460  13.075  16.661  13.969
29476W        W94461  23.120  31.565   4.261
29477W        W94462  31.797  29.458  11.980
29478W        W94463   2.943  44.523   4.519
29479W        W94464   5.745  16.603   3.398
29480W        W94465   0.461  19.304   0.316
29481W        W94466  29.978  20.755  13.428
29482W        W94467  24.581  27.497  14.700
29483W        W94468  37.956  13.811  13.056
29484W        W94469  42.094  26.415  10.403
29485W        W94470  24.619  21.237   0.509
29486W        W94471  37.789  26.205   0.861
29487W        W94472  31.384  38.780   4.468
29488W        W94473  39.210  32.268  14.218
29489W        W94474  26.128  31.562  11.724
29490W        W94475  17.255   7.238   5.340
29491W        W94476   3.214   0.410   3.888
29492W        W94477  37.873   1.866   5.223
29493W        W94478  33.407   4.225  14.343
29494W        W94479  31.217  25.140  10.707
29495W        W94480  42.815   9.903  10.019
29496W        W94481  18.742  32.123  13.762
29497W        W94482  28.079  30.635   1.173
29498W        W94483  19.500   5.564  14.419
29499W        W94484  21.770  12.066  10.717
29500W        W94485   7.290   0.076  12.414
29501W        W94486  34.420   9.585   2.740
29502W        W94487  35.015  24.979  11.638
29503W        W94488  15.327   1.466  11.615
29504W        W94489  10.889  26.267  10.647
29505W        W94490   6.176  33.001   4.151
29506W        W94491  28.434   6.940   1.900
29507W        W94492  20.287  38.902   0.321
29508W        W94493   4.343  16.896  10.867
29509W        W94494  37.170  12.744  10.662
29510W        W94495   6.433  26.131  12.687
29511W        W94496   1.772  14.619   0.809
29512W        W94497  28.895  31.599  14.508
29513W        W94498   2.554  34.024  13.418
29514W        W94499  21.158  11.586   5.448
29515W        W94500   2.430   4.212  15.000
29516W        W94501  31.857  25.775  14.958
29517W        W94502  30.116  33.400  10.355
29518W        W94503  10.168   1.953   2.575
29519W        W94504  31.178  40.606   3.241
29520W        W94505  34.822  24.776   2.987
29521W        W94506  39.819   4.716  12.830
29522W        W94507  10.660  37.222   0.851
29523W        W94508   1.473  33.992   2.856
29524W        W94509  13.429  43.712   0.856
29525W        W94510  12.908  27.704   3.857
29526W        W94511  11.105   7.102  14.451
29527W        W94512  12.410  33.583  12.829
29528W        W94513  23.783  25.426   0.255
29529W        W94514  29.991  20.162   2.830
29530W        W94515   6.613   4.224   0.841
29531W        W94516  43.342  31.589   4.223
29532W        W94517  34.862   9.895   0.954
29533W        W94518  28.932   0.215   4.277
29534W        W94519  27.473  24.088  11.910
29535W        W94520   9.216  25.494   3.813
29536W        W94521  16.786  36.001  13.470
29537W        W94522   1.937  13.250  10.681
29538W        W94523  29.762  37.843   2.537
29539W        W94524  36.373  19.738  11.982
29540W        W94525   5.877  38.477   4.344
29541W        W94526  43.124  27.008   1.263
29542W        W94527  16.303  23.435  11.059
29543W        W94528  29.832  43.307   3.187
29544W        W94529  32.141   3.717   1.207
29545W        W94530   6.571   8.432   0.412
29546W        W94531  41.738  36.507  12.195
29547W        W94532   7.152   4.420   1.782
29548W        W94533  32.576  25.981   4.094
29549W        W94534  10.836   6.857  12.823
29550W        W94535  21.665  35.057   1.767
29551W        W94536   8.724  44.800   4.640
29552W        W94537  42.858  25.914   3.312
29553W        W94538  24.220   2.153  10.558
29554W        W94539  40.003  34.091  14.398
29555W        W94540   5.438  24.154   2.933
29556W        W94541  28.183  44.789  13.890
29557W        W94542  27.391  27.617   3.935
29558W        W94543  17.225  19.538  14.021
29559W        W94544   8.401   2.712  11.559
29560W        W94545  36.257   5.814   0.596
29561W        W94546  39.384  35.144  13.859
29562W        W94547  30.585   6.254   2.785
29563W        W94548  34.813  17.322  11.639
29564W        W94549  27.729  42.327  10.809
29565W        W94550   6.473   0.846  12.596
29566W        W94551   5.018  41.345  14.000
29567W        W94552  21.554  11.849   0.824
29568W        W94553  22.567  24.625   3.704
29569W        W94554  25.816   8.192  13.343
29570W        W94555  33.616   0.434  13.441
29571W        W94556   9.651  17.681  10.751
29572W        W94557  41.536  42.865  12.369
29573W        W94558  29.856  44.970   4.581
29574W        W94559  26.126  34.071  11.063
29575W        W94560  24.091   6.929   2.323
29576W        W94561  21.174  27.112  13.107
29577W        W94562  25.210  20.729   3.227
29578W        W94563  34.597  27.475  13.726
29579W        W94564  13.232  34.125  10.736
29580W        W94565  22.134  15.797   2.775
29581W        W94566   3.252  31.629   1.897
29582W        W94567  10.483   2.234  14.759
29583W        W94568  18.138  32.465  11.035
29584W        W94569   0.924  37.141   1.501
29585W        W94570   3.470   6.164   3.762
29586W        W94571   2.340   1.457   1.346
29587W        W94572  27.223  10.009   1.295
29588W        W94573   9.776  36.450   2.712
29589W        W94574  24.010  16.179   0.313
29590W        W94575  29.581  31.583  13.709
29591W        W94576  14.114  30.619   1.938
29592W        W94577   0.355  15.954   2.220
29593W        W94578  37.248  29.644  13.405
29594W        W94579  28.963   6.687  11.091
29595W        W94580  30.887   3.510  14.260
29596W        W94581  32.544   4.330  12.656
29597W        W94582  21.618  32.439  12.109
29598W        W94583  41.425  10.321   3.268
29599W        W94584  44.508  10.557  13.021
29600W        W94585  23.745  30.029   3.660
29601W        W94586  23.909  32.671  14.696
29602W        W94587  31.042  29.928   2.761
29603W        W94588  39.789   2.812   0.282
29604W        W94589  39.307  21.544   2.786
29605W        W94590  14.140  37.088   3.699
29606W        W94591   8.813  24.879   4.581
29607W        W94592  11.821   0.797  11.152
29608W        W94593  39.515  33.926   3.796
29609W        W94594  31.900   0.337   2.931
29610W        W94595  31.727  23.523   0.355
29611W        W94596  26.428   1.900  13.514
29612W        W94597   7.734  39.593   3.737
29613W        W94598   1.402  14.442   4.219
29614W        W94599   8.172  32.180   1.862
29615W        W94600   2.370  31.423   3.999
29616W        W94601  16.043  26.185  13.099
29617W        W94602  32.507   0.012  12.906
29618W        W94603  24.491   4.827   3.088
29619W        W94604  21.947  13.976   3.552
29620W        W94605  31.478   0.039  13.578
29621W        W94606  23.730  17.540   1.284
29622W        W94607  30.079  28.278   4.017
29623W        W94608  12.540   8.361  13.415
29624W        W94609  20.630  22.659   3.372
29625W        W94610  27.240   6.810  11.441
29626W        W94611   7.168  12.782   4.332
29627W        W94612   4.256   1.385   4.481
29628W        W94613  17.196   6.394  12.561
29629W        W94614  40.447  41.344  12.032
29630W        W94615   9.878   2.547   0.895
29631W        W94616  21.499   2.665   1.474
29632W        W94617  35.600  34.564   1.474
29633W        W94618  25.200  23.077  12.100
29634W        W94619  23.830  26.724   4.788
29635W        W94620  27.615  19.686   1.405
29636W        W94621  13.323  15.753   1.502
29637W        W94622   9.340   4.443  14.921
29638W        W94623  39.940   8.422  14.923
29639W        W94624   4.896  24.746   5.034
29640W        W94625  16.549  33.846  12.575
29641W        W94626  12.217  18.138  13.530
29642W        W94627  29.657  20.718  12.510
29643W        W94628  35.472  43.881  11.197
29644W        W94629   2.103  26.743   0.792
29645W        W94630  38.135   8.973  11.207
29646W        W94631  42.020  43.493   3.620
29647W        W94632  24.822  22.208  13.597
29648W        W94633   9.020  15.759   1.794
29649W        W94634  18.398   7.687  11.929
29650W        W94635   2.366  41.519   5.252
29651W        W94636   6.930  11.543  12.856
29652W        W94637  18.307  27.701   1.550
29653W        W94638  24.503  14.154   2.289
29654W        W94639  13.089   2.861   1.568
29655W        W94640  22.604   7.780  13.348
29656W        W94641  12.483  39.330  11.582
29657W        W94642  12.908  35.076   4.626
29658W        W94643  18.217  12.286   0.393
29659W        W94644  20.283  14.215  14.249
29660W        W94645   8.318   6.612   0.778
29661W        W94646  34.523   1.147  13.028
29662W        W94647   4.997  36.133  13.776
29663W        W94648  15.838  41.042   3.207
29664W        W94649   0.600   8.037   4.082
29665W        W94650  34.542  15.539  10.612
29666W        W94651   1.869  32.553   1.240
29667W        W94652  19.046   1.836   2.774
29668W        W94653  44.687  35.831   2.653
29669W        W94654  13.760   8.846  12.613
29670W        W94655  34.443  42.286  11.036
29671W        W94656  15.846  10.915  13.814
29672W        W94657  18.700  24.948   0.830
29673W        W94658  10.240   5.731   4.082
29674W        W94659  20.424   6.623   5.016
29675W        W94660  38.621  31.705  14.837
29676W        W94661  14.353  28.617   2.300
29677W        W94662  35.833   7.609  12.952
29678W        W94663  15.322  40.755   2.349
29679W        W94664  22.313  19.937   5.012
29680W        W94665  39.376  23.679   3.376
29681W        W94666   7.586  39.867   2.397
29682W        W94667  27.568  22.483   3.383
29683W        W94668  10.667   8.792  12.360
29684W        W94669  28.987  40.466   4.935
29685W        W94670  21.637  10.755   2.826
29686W        W94671  16.218  32.627   0.327
29687W        W94672  28.015   8.487  11.341
29688W        W94673  40.365  41.468   0.345
29689W        W94674  40.942   7.193  12.097
29690W        W94675   8.202   2.016  13.469
29691W        W94676  43.781  21.161   3.283
29692W        W94677  44.919  23.920  11.760
29693W        W94678   4.382  29.117   1.351
29694W        W94679  34.683  41.732   2.677
29695W        W94680  13.297  42.322   2.632
29696W        W94681  42.548  16.176   4.057
29697W        W94682  29.923  35.474  14.008
29698W        W94683   4.711  34.473  13.719
29699W        W94684   7.252  24.126  12.548
29700W        W94685  23.011  17.556  14.775
29701W        W94686   3.441  41.831   1.832
29702W        W94687  39.309  36.846  12.002
29703W        W94688  27.085  37.158  11.583
29704W        W94689   8.169   9.442   2.116
29705W        W94690  38.910  25.474   0.958
29706W        W94691  14.260  40.498   4.330
29707W        W94692   2.899  23.116   0.963
29708W        W94693  44.424  18.006   0.814
29709W        W94694  20.908  12.974   4.112
29710W        W94695  10.759   4.445   4.566
29711W        W94696  39.407   3.661  11.575
29712W        W94697  31.103   3.183   0.187
29713W        W94698  15.161  37.809   0.231
29714W        W94699  37.953  21.101  13.028
29715W        W94700   2.445  13.926   2.776
29716W        W94701  10.946  28.411   2.527
29717W        W94702  40.511  24.980   0.260
29718W        W94703  31.063  19.043   0.053
29719W        W94704  11.178   2.991   5.049
29720W        W94705  43.986  19.603  14.007
29721W        W94706  23.411  42.327  10.847
29722W        W94707  16.107  43.386  14.275
29723W        W94708  36.855  13.172   4.313
29724W        W94709   5.803  21.029  10.597
29725W        W94710  42.697  29.011   0.195
29726W        W94711   6.418   5.674   0.656
29727W        W94712   2.317  31.947   2.847
29728W        W94713  16.660  16.867   2.595
29729W        W94714  41.845  30.542  14.967
29730W        W94715  43.488   9.025  13.822
29731W        W94716  19.972  39.902  12.216
29732W        W94717  14.363  33.096  14.505
29733W        W94718  10.791   0.718   4.386
29734W        W94719  41.462   9.314   3.771
29735W        W94720  29.425   1.476  13.522
29736W        W94721  23.465  13.894  14.531
29737W        W94722  19.993  36.146   0.674
29738W        W94723  12.773   5.696   1.429
29739W        W94724   6.256   2.865  13.756
29740W        W94725  16.055  14.798  13.091
29741W        W94726  39.342  13.568  12.928
29742W        W94727   1.145  17.225   5.122
29743W        W94728  22.175  20.293  11.429
29744W        W94729  12.935   1.299   1.658
29745W        W94730  12.379   5.146  13.846
29746W        W94731   8.552  43.819  13.421
29747W        W94732  11.809  12.917  10.674
29748W        W94733  29.359  25.011  12.912
29749W        W94734  22.954  26.532   2.780
29750W        W94735  44.792   8.962   3.827
29751W        W94736  42.833   3.322  12.525
29752W        W94737  22.194  34.995   2.153
29753W        W94738   8.275  19.864  12.928
29754W        W94739   5.862  30.275  13.748
29755W        W94740  24.113  30.969   0.317
29756W        W94741  21.282  30.285  13.518
29757W        W94742  11.850   9.038   0.288
29758W        W94743  11.742   4.408  10.695
29759W        W94744  20.215  21.810   3.094
29760W        W94745   5.708  29.796   4.682
29761W        W94746  33.879   3.377   1.765
29762W        W94747  11.828  17.017  10.755
29763W        W94748  12.781  22.142   2.057
29764W        W94749  24.009  19.534   2.680
29765W        W94750   7.809  41.586  12.300
29766W        W94751  37.440  37.722   1.983
29767W        W94752  41.883  32.121   2.670
29768W        W94753   7.056  19.073  11.501
29769W        W94754  21.754  41.952  10.615
29770W        W94755  11.698  36.142  13.016
29771W        W94756  40.330  14.748  14.816
29772W        W94757  30.651  39.680  14.963
29773W        W94758  10.947  21.636  14.876
29774W        W94759  23.134  34.143  11.490
29775W        W94760  15.702   0.497  14.040
29776W        W94761  39.738   6.339  13.843
29777W        W94762  15.308   7.237  12.631
29778W        W94763  43.416  39.029  12.508
29779W        W94764  17.057   3.670  11.157
29780W        W94765  26.109   6.709  11.954
29781W        W94766  42.802  13.571   5.522
29782W        W94767   7.379  23.532   4.218
29783W        W94768  19.597   2.452  13.103
29784W        W94769  24.560  16.062  14.527
29785W        W94770  17.738  40.235  13.943
29786W        W94771  18.275  31.072  14.010
29787W        W94772  26.534  44.668   0.199
29788W        W94773  26.608  41.692   0.839
29789W        W94774   7.938   2.414  11.427
29790W        W94775  37.106   2.203   3.908
29791W        W94776  14.138  11.077   4.231
29792W        W94777  35.531  22.274  13.096
29793W        W94778   0.630  30.078  13.039
29794W        W94779   8.895  24.915   0.304
29795W        W94780  23.551  37.342  12.934
29796W        W94781  42.137  37.994  14.746
29797W        W94782  12.135   1.332   1.068
29798W        W94783  23.192  26.581  11.392
29799W        W94784  41.200  21.237   0.900
29800W        W94785  21.671  38.619   0.397
29801W        W94786  16.102  29.377   3.646
29802W        W94787  23.051  35.529   2.853
29803W        W94788  37.406   3.795  13.874
29804W        W94789  32.013  23.281   1.102
29805W        W94790   3.413  31.712   2.891
29806W        W94791  38.808   5.805  11.009
29807W        W94792  34.504  19.057  11.098
29808W        W94793  23.703   9.349   3.347
29809W        W94794  43.806  24.169  13.417
29810W        W94795   9.091  22.548  10.716
29811W        W94796  35.990  40.778  12.509
29812W        W94797  41.000  41.889  13.851
29813W        W94798  30.485  10.388  14.557
29814W        W94799  19.709  31.625   0.918
29815W        W94800   7.450  19.042   2.396
29816W        W94801  10.285  10.548   4.518
29817W        W94802  14.455  20.168   5.019
29818W        W94803  19.574   2.028   3.781
29819W        W94804  36.984  39.465  13.116
29820W        W94805  28.148  34.459  12.901
29821W        W94806  33.443  43.952  14.213
29822W        W94807  36.591  15.630  11.134
29823W        W94808  42.291  19.709  13.212
29824W        W94809  23.654  17.059   2.732
29825W        W94810  34.174  41.009  13.830
29826W        W94811  40.760  11.323  11.069
29827W        W94812   8.142  11.076  10.996
29828W        W94813  37.801  39.688   2.439
29829W        W94814  37.012   6.164  13.052
29830W        W94815  23.189  10.438  12.011
29831W        W94816  13.258  16.153  10.637
29832W        W94817   1.463  27.931  11.575
29833W        W94818   2.633  27.911  13.974
29834W        W94819  17.946  31.620   0.953
29835W        W94820  34.541  31.872  12.058
29836W        W94821  17.605   3.412   1.411
29837W        W94822   8.266  38.692  13.595
29838W        W94823  42.443   1.406  14.333
29839W        W94824  42.460  40.519  12.592
29840W        W94825   4.301  20.622   3.719
29841W        W94826   3.923  30.037  10.737
29842W        W94827   2.698   2.216  11.228
29843W        W94828  10.783   3.962  14.960
29844W        W94829  36.412  41.575  14.569
29845W        W94830  16.128  44.773  11.841
29846W        W94831   1.822  18.570   4.597
29847W        W94832  42.481  44.027  14.828
29848W        W94833   6.274   3.367   1.862
29849W        W94834  43.863   6.122   1.417
29850W        W94835  36.944   8.460   2.192
29851W        W94836  20.050  14.137  10.732
29852W        W94837  10.833   8.174   1.119
29853W        W94838   5.805  21.831  14.287
29854W        W94839  14.098  23.029  14.331
29855W        W94840  11.249  23.492  14.332
29856W        W94841  41.291  32.535  12.995
29857W        W94842  38.073  15.328  12.966
29858W        W94843  17.285  32.865  14.277
29859W        W94844  22.307  25.652   0.372
29860W        W94845  13.382   5.520   1.129
29861W        W94846   7.808   6.597   4.512
29862W        W94847  19.083  31.872  11.157
29863W        W94848  16.648  41.779  12.528
29864W        W94849  12.765   6.359  12.497
29865W        W94850   3.036  30.147  12.828
29866W        W94851  31.250  37.137  11.321
29867W        W94852  42.838  42.380  14.411
29868W        W94853  40.026  18.134   3.274
29869W        W94854  12.324   4.935  12.980
29870W        W94855  29.627  17.672  12.372
29871W        W94856   0.918  14.083   0.195
29872W        W94857  26.863  38.819  14.351
29873W        W94858  35.577  32.674  10.946
29874W        W94859  14.714  14.698   1.793
29875W        W94860   6.227  16.428   0.704
29876W        W94861   8.901  40.435   0.940
29877W        W94862  33.708   3.794  11.412
29878W        W94863   7.770  44.996  14.487
29879W        W94864  23.088   4.862   0.747
29880W        W94865   8.592   5.030  13.003
29881W        W94866  29.397   2.935   3.984
29882W        W94867  14.710  28.095   2.700
29883W        W94868  24.575  30.351  13.550
29884W        W94869   2.850  22.529  13.431
29885W        W94870  32.477   2.159   3.144
29886W        W94871  35.460  30.105   1.433
29887W        W94872  23.028   4.218   0.355
29888W        W94873  21.961  23.654  12.544
29889W        W94874  24.184   2.670  13.367
29890W        W94875  23.276  36.952   4.958
29891W        W94876  22.974   7.005   4.619
29892W        W94877   2.055  19.195  10.488
29893W        W94878  12.682   5.525  10.208
29894W        W94879  12.756  41.758   2.507
29895W        W94880  36.588  11.727   3.696
29896W        W94881  29.075  33.073   0.274
29897W        W94882  24.654   2.879  13.183
29898W        W94883  29.681  20.836  13.932
29899W        W94884  36.375  18.247  11.214
29900W        W94885  14.671   5.172  11.033
29901W        W94886  44.028  20.684   4.803
29902W        W94887  18.124  31.939  13.985
29903W        W94888  23.348  18.412  13.886
29904W        W94889  22.550  25.260   4.631
29905W        W94890  18.650  29.702  14.842
29906W        W94891  28.563  43.701   1.744
29907W        W94892  44.128  31.116   2.387
29908W        W94893  10.763   0.234   3.266
29909W        W94894   4.045  42.316  12.652
29910W        W94895  12.073   0.450   1.233
29911W        W94896  43.926  34.511  10.371
29912W        W94897  36.507  29.301   0.721
29913W        W94898  24.542  21.516   0.929
29914W        W94899  24.008  36.548   4.041
29915W        W94900  44.352   2.430  13.071
29916W        W94901  17.661   7.990   4.246
29917W        W94902  44.604  11.319  12.085
29918W        W94903  32.051  14.115  12.919
29919W        W94904  14.163   2.896   2.388
29920W        W94905  29.033  40.350  12.609
29921W        W94906  23.475  23.689   1.812
29922W        W94907   2.844  22.756  13.890
29923W        W94908  15.372  16.661   1.279
29924W        W94909  34.355   9.740   0.135
29925W        W94910  26.154  18.812  12.721
29926W        W94911  21.127  38.113   0.953
29927W        W94912  15.099  43.987  11.123
29928W        W94913  20.221  43.703  10.905
29929W        W94914  12.133  44.380  13.955
29930W        W94915  35.599  13.222   2.308
29931W        W94916  31.671  30.367  14.991
29932W        W94917  30.120  43.305   3.771
29933W        W94918  20.260  14.950   4.463
29934W        W94919  32.606  26.044  13.106
29935W        W94920   7.819  32.131  14.876
29936W        W94921   1.456   2.793  13.496
29937W        W94922  23.326  25.036   3.732
29938W        W94923   9.816  26.623   1.808
29939W        W94924  36.317  41.615  10.088
29940W        W94925  23.692  26.280  10.255
29941W        W94926  41.497  15.410   0.235
29942W        W94927  31.967   6.778   2.820
29943W        W94928   8.829  40.722  11.540
29944W        W94929  27.503  12.673  14.412
29945W        W94930  40.977  15.466   4.430
29946W        W94931   4.694  43.323   2.744
29947W        W94932   6.268  12.068  10.794
29948W        W94933  15.768  19.868   0.302
29949W        W94934  14.840  35.940   1.939
29950W        W94935   4.326   7.639  14.935
29951W        W94936  40.849  11.832  11.886
29952W        W94937   6.664  30.203  11.209
29953W        W94938  37.092  33.710   4.912
29954W        W94939  11.648  22.265  13.058
29955W        W94940  16.400  20.538  12.389
29956W        W94941   2.704  35.179  11.245
29957W        W94942  43.961   9.471   3.678
29958W        W94943  10.895  13.325   0.286
29959W        W94944  18.888  33.720  13.052
29960W        W94945   4.790  38.617   4.188
29961W        W94946  32.097   3.846   1.709
29962W        W94947  43.462  23.829  14.427
29963W        W94948  17.547  35.730   2.860
29964W        W94949  10.282  37.620   1.302
29965W        W94950  39.968   3.324  11.519
29966W        W94951  25.092  10.572   0.585
29967W        W94952  37.961  34.386   4.238
29968W        W94953  40.625  23.251   3.364
29969W        W94954   5.748  29.744   1.800
29970W        W94955   5.455  16.365  14.155
29971W        W94956  24.597  12.202  13.888
29972W        W94957  27.530  31.602   0.949
29973W        W94958  42.436  26.191   1.264
29974W        W94959  32.644  39.005  13.113
29975W        W94960  11.788  24.214  10.706
29976W        W94961   0.733  40.729   2.317
29977W        W94962  40.938   0.352  11.767
29978W        W94963   3.454  25.154  13.890
29979W        W94964  35.583  25.646  13.641
29980W        W94965  15.240  16.967  11.858
29981W        W94966   9.513   7.494  11.817
29982W        W94967  20.156  11.182   1.918
29983W        W94968  23.476   5.704  12.092
29984W        W94969  38.369  19.117   2.492
29985W        W94970  23.299  33.650  12.952
29986W        W94971   1.282  37.784   0.922
29987W        W94972   4.064  30.347   2.656
29988W        W94973  38.430  43.056  12.665
29989W        W94974  35.484  23.002   1.974
29990W        W94975  29.229   7.954  12.530
29991W        W94976  22.224  42.380  12.254
29992W        W94977  18.277  37.906  12.031
29993W        W94978  41.575  36.522  11.704
29994W        W94979  37.606   6.746  10.605
29995W        W94980  23.414  37.752   0.392
29996W        W94981  39.784   0.216  12.436
29997W        W94982  17.013  12.106  12.483
29998W        W94983  41.539  15.356   3.728
29999W        W94984  25.432  31.663   2.173
30000W        W94985  27.945  18.721  13.260
30001W        W94986  23.284  12.387   3.134
30002W        W94987  28.667  41.801   3.115
30003W        W94988  11.237  44.533  12.916
30004W        W94989  21.686  34.328   2.324
30005W        W94990  11.916  15.376   1.830
30006W        W94991   1.847  37.282   3.106
30007W        W94992  39.413  22.743  14.285
30008W        W94993  22.425  25.094  14.105
30009W        W94994   6.812  15.674  11.251
30010W        W94995  26.493   4.665  14.697
30011W        W94996  35.887  33.387  10.469
30012W        W94997   9.889  25.381  11.658
30013W        W94998  37.159  31.526  11.717
30014W        W94999   0.576   1.883  14.863
30015W        W95000  22.630  40.791   5.006
30016W        W95001  34.792  25.732   0.392
30017W        W95002  11.255  37.794   0.166
30018W        W95003  18.836  41.331   1.389
30019W        W95004  42.476  11.148  13.810
30020W        W95005  13.219  32.717   0.945
30021W        W95006  20.103  43.443  13.545
30022W        W95007  43.734  31.024  13.080
30023W        W95008  44.820  41.095  14.791
30024W        W95009  14.799  27.384   3.209
30025W        W95010  19.637  19.496   0.000
30026W        W95011  10.387  15.568   1.325
30027W        W95012  23.649  14.203   0.459
30028W        W95013  26.716  27.158   5.069
30029W        W95014  20.818  17.574   0.050
30030W        W95015  44.480  27.013  14.381
30031W        W95016  12.190  18.165   4.523
30032W        W95017  43.964  23.158   3.755
30033W        W95018  36.830   0.668   0.854
30034W        W95019   5.424  34.390   4.129
30035W        W95020  32.478   1.174  14.978
30036W        W95021  24.747   8.871   4.468
30037W        W95022  25.919  43.961  13.802
30038W        W95023   2.283  24.734  13.043
30039W        W95024  37.039  27.713   1.441
30040W        W95025   4.938  17.549   3.225
30041W        W95026   7.796  17.225   4.463
30042W        W95027  40.762  14.339  12.951
30043W        W95028  20.255  15.987   3.668
30044W        W95029   0.228  22.616   1.714
30045W        W95030  35.289  27.019   4.406
30046W        W95031  30.591  18.588   3.696
30047W        W95032   8.371  28.114  11.556
30048W        W95033  42.011  29.521   3.713
30049W        W95034  37.872  25.904   2.801
30050W        W95035  11.322  21.987  12.206
30051W        W95036  28.468  16.099   3.229
30052W        W95037  30.076  29.964   2.161
30053W        W95038  11.741   7.245   3.245
30054W        W95039  30.271   9.898   4.256
30055W        W95040  14.329   8.878  12.542
30056W        W95041   4.284  27.591   0.396
30057W        W95042  16.330  31.952  11.668
30058W        W95043  22.572  40.848  13.370
30059W        W95044  39.003   4.292   4.030
30060W        W95045  42.181  21.882   2.844
30061W        W95046  43.947  11.662  14.372
30062W        W95047   8.593  41.103   1.865
30063W        W95048  41.230  13.233   3.165
30064W        W95049  10.759  27.983  12.392
30065W        W95050  40.383  38.755  14.696
30066W        W95051  17.061  36.883   2.245
30067W        W95052   6.869  34.899   3.130
30068W        W95053  35.455  15.882   2.303
30069W        W95054   6.431  15.653   1.906
30070W        W95055  10.337  32.672   1.734
30071W        W95056  22.085  28.012  11.715
30072W        W95057  27.472  19.655   0.026
30073W        W95058  20.346  20.812  12.857
30074W        W95059  30.042  30.229  13.084
30075W        W95060  36.995  21.207   2.715
30076W        W95061  36.629   8.205   1.393
30077W        W95062  15.746  37.298   1.519
30078W        W95063  23.099  32.861  13.373
30079W        W95064  12.683   6.903  13.250
30080W        W95065  40.365  38.533   0.172
30081W        W95066   2.307  15.315   4.829
30082W        W95067  28.870  39.547  13.100
30083W        W95068  33.622  32.446  14.342
30084W        W95069   0.025  22.503  14.964
30085W        W95070  28.610   0.957  14.484
30086W        W95071  35.051  34.077   2.656
30087W        W95072  32.085  32.168  14.966
30088W        W95073  16.300  29.605   1.923
30089W        W95074  43.524  43.963  12.010
30090W        W95075  37.394  41.258  14.309
30091W        W95076  23.636   5.946   0.910
30092W        W95077   9.802  43.943  12.060
30093W        W95078  36.304  15.336  13.311
30094W        W95079  14.397  16.700  11.031
30095W        W95080  20.056  11.939  13.434
30096W        W95081  33.396   4.611   1.261
30097W        W95082   3.284  43.490   0.757
30098W        W95083  13.408  31.115   0.846
30099W        W95084  10.727  29.958  13.801
30100W        W95085  41.776  26.034  12.659
30101W        W95086  36.550  11.425   1.755
30102W        W95087  10.451  42.542   2.032
30103W        W95088  16.729  15.588  14.392
30104W        W95089  19.921   9.887  14.338
30105W        W95090   5.943  41.043  11.595
30106W        W95091   1.901  37.339   1.848
30107W        W95092  15.223  32.327   3.464
30108W        W95093  16.132  35.166  12.554
30109W        W95094   8.150   7.907  13.936
30110W        W95095  30.485  34.637   0.378
30111W        W95096  11.167  12.164   3.683
30112W        W95097  21.989  15.254   0.142
30113W        W95098  27.881  40.218   1.937
30114W        W95099  20.625  32.517   3.150
30115W        W95100  13.029  30.564  11.576
30116W        W95101  38.632  18.702  14.822
30117W        W95102   5.447   5.799  14.014
30118W        W95103  28.550  21.294   0.872
30119W        W95104   7.785  36.679   3.619
30120W        W95105   3.620   9.766   3.847
30121W        W95106   2.328  15.838   2.542
30122W        W95107  42.084   0.195  14.786
30123W        W95108   1.997   2.419   4.426
30124W        W95109  24.654  33.034  14.746
30125W        W95110  28.905  26.066   2.744
30126W        W95111  39.464  29.545   2.886
30127W        W95112   2.399   8.800   3.607
30128W        W95113  32.623  14.791   4.466
30129W        W95114  42.184   1.846  11.027
30130W        W95115  14.269   0.764  13.082
30131W        W95116  19.352   3.198   4.163
30132W        W95117   4.776  25.236   0.994
30133W        W95118   4.471  36.814  11.414
30134W        W95119  41.401  41.990  11.491
30135W        W95120   0.101  27.373  11.823
30136W        W95121  22.219   6.288   3.879
30137W        W95122  44.724  38.897   1.721
30138W        W95123  12.137  31.590   2.721
30139W        W95124   7.933   4.320  14.459
30140W        W95125   8.202  28.483   1.858
30141W        W95126  25.692  39.695  13.006
30142W        W95127  12.395  16.091   1.075
30143W        W95128  23.513  30.155   2.656
30144W        W95129  25.024  20.924   2.216
30145W        W95130  36.338   2.012  12.874
30146W        W95131  19.050  33.418  14.423
30147W        W95132   5.195  21.454   4.176
30148W        W95133  19.600  20.764  14.242
30149W        W95134  12.152   5.343  14.969
30150W        W95135  33.429  18.998  11.191
30151W        W95136  33.131  23.477   2.260
30152W        W95137  15.592  40.311  12.300
30153W        W95138  27.543  43.304  10.634
30154W        W95139  12.378   7.808  12.066
30155W        W95140  29.499  43.479  14.296
30156W        W95141   1.984  18.562  11.162
30157W        W95142   1.306  25.049  12.583
30158W        W95143  23.202  25.050  12.609
30159W        W95144  43.144  16.926  13.045
30160W        W95145   7.313   8.676  14.343
30161W        W95146  10.714  33.567  11.210
30162W        W95147  16.955   4.134   2.301
30163W        W95148  42.591  40.928  11.118
30164W        W95149  10.243  31.168   3.345
30165W        W95150  36.172  37.018   3.900
30166W        W95151  10.864  13.488  11.080
30167W        W95152  38.279  20.230   1.912
30168W        W95153  14.547  18.729  13.754
30169W        W95154  16.347  34.924   2.461
30170W        W95155  29.060  43.328  12.542
30171W        W95156  32.090  44.364   4.118
30172W        W95157   0.038  17.155  12.871
30173W        W95158  27.609  44.772   0.911
30174W        W95159  10.328  41.022  14.856
30175W        W95160  41.020  35.518   0.638
30176W        W95161  11.637  29.139   2.804
30177W        W95162  30.251  24.881  12.620
30178W        W95163  32.400   0.449  12.569
30179W        W95164  18.803  33.200  11.401
30180W        W95165  22.285  16.865   3.170
30181W        W95166  37.796   6.605   0.289
30182W        W95167   9.585  13.801   1.741
30183W        W95168  41.739  10.197   2.230
30184W        W95169  20.645  27.181   4.918
30185W        W95170   0.824  22.234  11.453
30186W        W95171  38.277  29.677   3.695
30187W        W95172   1.874  26.050   0.299
30188W        W95173  28.177  22.012  13.461
30189W        W95174  38.470  15.338   1.444
30190W        W95175  12.600   7.886  12.570
30191W        W95176  21.156  35.480  13.752
30192W        W95177  24.545  36.511   2.255
30193W        W95178  34.180  15.366  14.005
30194W        W95179  15.813   4.714   3.631
30195W        W95180  20.649  28.205   3.612
30196W        W95181  18.659  33.401   3.263
30197W        W95182  30.509  32.370   4.438
30198W        W95183  23.987  27.835   4.902
30199W        W95184  19.118  42.754   4.813
30200W        W95185  29.100  16.644  10.680
30201W        W95186   0.830  37.515   0.166
30202W        W95187  14.274  30.778  10.970
30203W        W95188  23.536  25.520   0.730
30204W        W95189  15.172  23.593   0.454
30205W        W95190  43.852  44.280   0.191
30206W        W95191  42.772  15.222   4.524
30207W        W95192  31.451  33.880   4.614
30208W        W95193  17.523  27.807  14.220
30209W        W95194  14.188  23.532  12.086
30210W        W95195  12.598   1.751  12.784
30211W        W95196  37.380  24.065  12.410
30212W        W95197   7.149  11.097  13.682
30213W        W95198  29.549  10.583  11.507
30214W        W95199  20.254  39.337   4.792
30215W        W95200  12.648  39.984  14.943
30216W        W95201  41.440  28.666   4.305
30217W        W95202  43.732  14.271   0.401
30218W        W95203  12.782  40.842   2.245
30219W        W95204  41.383  38.920   0.734
30220W        W95205  15.359  14.610   2.570
30221W        W95206  33.810  17.338  12.939
30222W        W95207  14.685  25.766  11.972
30223W        W95208  29.717  23.244   2.863
30224W        W95209   7.628  10.673  10.935
30225W        W95210  31.157   7.418   0.962
30226W        W95211  23.428   6.611  13.750
30227W        W95212  26.978  36.722   2.822
30228W        W95213  22.270  30.077   3.634
30229W        W95214  28.492  39.769  12.832
30230W        W95215  42.569  34.998   3.145
30231W        W95216   6.959  37.087   4.120
30232W        W95217  11.631  29.947  12.995
30233W        W95218   9.342  42.337  14.291
30234W        W95219  43.292  40.009   3.272
30235W        W95220  39.530  38.891  14.726
30236W        W95221  35.347   5.279  11.034
30237W        W95222   1.770  39.129  11.181
30238W        W95223  10.392  21.149  12.781
30239W        W95224  23.753  32.451   0.485
30240W        W95225  29.137  29.955   0.844
30241W        W95226  44.481  25.408   1.807
30242W        W95227  17.065  30.424   1.197
30243W        W95228  37.548  31.866  11.689
30244W        W95229  41.070  30.629   2.360
30245W        W95230   5.365  13.320  12.620
30246W        W95231  23.920  20.292  14.846
30247W        W95232  10.642  32.763  11.964
30248W        W95233  34.047  15.694  12.734
30249W        W95234  27.173  19.275  11.139
30250W        W95235  14.320  17.168   4.549
30251W        W95236   5.181   4.983  12.969
30252W        W95237  38.991  31.021   4.542
30253W        W95238  28.009  39.085  11.113
30254W        W95239  25.040   7.746  13.659
30255W        W95240   5.762  27.741   4.667
30256W        W95241  41.832  25.807  13.290
30257W        W95242  18.839  21.020   1.204
30258W        W95243  22.584  26.667   4.899
30259W        W95244  26.622  14.425  12.109
30260W        W95245  24.164  13.188   0.264
30261W        W95246  18.672   5.916  11.745
30262W        W95247   9.453   5.861   2.110
30263W        W95248  41.502   2.036  11.670
30264W        W95249  38.000  32.656  14.242
30265W        W95250  23.374  32.614   2.672
30266W        W95251  31.434  20.089  13.834
30267W        W95252  34.304  29.719  10.498
30268W        W95253  25.627  23.528   3.735
30269W        W95254   9.138  42.099  13.840
30270W        W95255  36.831  21.210   0.839
30271W        W95256  34.037  26.143   0.706
30272W        W95257  30.526  17.235   4.426
30273W        W95258  27.711  28.029   3.200
30274W        W95259   5.882  35.594  11.404
30275W        W95260  18.151  37.512  11.135
30276W        W95261   0.753  34.564  13.447
30277W        W95262   4.099   2.757   3.205
30278W        W95263  29.145   4.467   2.211
30279W        W95264  21.005  16.046   3.158
30280W        W95265  31.168   0.158   0.473
30281W        W95266  29.231   6.938  14.890
30282W        W95267  34.321  39.387   2.788
30283W        W95268  21.946  27.689  11.134
30284W        W95269  20.946   9.282   0.787
30285W        W95270  41.415  36.608   4.026
30286W        W95271  27.572  27.190   4.910
30287W        W95272   7.202  30.098  12.460
30288W        W95273  42.007  33.116   2.185
30289W        W95274  32.961  12.284  12.570
30290W        W95275   3.272  16.617   4.617
30291W        W95276  15.875  43.443  12.796
30292W        W95277  38.546  30.088  12.370
30293W        W95278  18.110   6.853  11.132
30294W        W95279  23.009  22.520  14.686
30295W        W95280  43.037  24.681  14.429
30296W        W95281  18.096   8.889   0.993
30297W        W95282  22.170  13.232  12.111
30298W        W95283  32.627   7.318  14.256
30299W        W95284  25.980  13.326  11.142
30300W        W95285  12.652   5.670   4.566
30301W        W95286  42.081  28.450  14.470
30302W        W95287  44.540  26.740  14.816
30303W        W95288   7.652  28.560  10.162
30304W        W95289   9.948  41.962  14.372
30305W        W95290   6.765   2.389   2.401
30306W        W95291  44.331   4.813   4.097
30307W        W95292  21.183  27.619  12.999
30308W        W95293  13.969  37.279  12.591
30309W        W95294  37.399  23.781   4.094
30310W        W95295   9.265  10.327   1.803
30311W        W95296  34.011   0.722   2.693
30312W        W95297   3.328  43.175   2.783
30313W        W95298  27.699  11.612  13.502
30314W        W95299  32.518  21.274  13.455
30315W        W95300  44.327  11.552   2.110
30316W        W95301   9.200  14.006  10.567
30317W        W95302   5.009  14.622   0.384
30318W        W95303  26.296  32.105   5.036
30319W        W95304  34.450  40.821  12.943
30320W        W95305  13.791  20.563   0.674
30321W        W95306  40.243  21.208   2.338
30322W        W95307  28.204  21.252   4.820
30323W        W95308  19.656  23.538  10.409
30324W        W95309  42.104  10.721  11.679
30325W        W95310   8.649  22.711  13.050
30326W        W95311  21.214  31.373  13.022
30327W        W95312  44.905   9.722  10.718
30328W        W95313  30.659  24.084   4.502
30329W        W95314  30.947  15.033   3.664
30330W        W95315   0.026  27.262  14.219
30331W        W95316  15.170  10.443  14.439
30332W        W95317  23.012  28.668  10.639
30333W        W95318  31.515  19.861   4.162
30334W        W95319  31.867  19.927  11.528
30335W        W95320   9.371   9.810   1.892
30336W        W95321  22.744  16.761  14.888
30337W        W95322  17.566  24.486   4.602
30338W        W95323  16.322  13.945   3.372
30339W        W95324  29.376  30.294  11.963
30340W        W95325  44.900  33.125   2.260
30341W        W95326  10.051  41.820  12.521
30342W        W95327   9.872  15.660   1.339
30343W        W95328  29.844  17.549  12.867
30344W        W95329  17.594   8.467  11.155
30345W        W95330  24.351  44.925  12.968
30346W        W95331  43.726  35.546   1.279
30347W        W95332  43.787  40.795  12.351
30348W        W95333   0.558  34.984   3.288
30349W        W95334  30.985  27.206  12.849
30350W        W95335  38.096  23.740  12.033
30351W        W95336   5.968   9.598   3.013
30352W        W95337  17.018  23.995  11.140
30353W        W95338   6.415   3.833  12.001
30354W        W95339  34.038  42.621  12.225
30355W        W95340  28.282  42.872  12.420
30356W        W95341   8.981  39.315   4.095
30357W        W95342  27.098  14.828  14.983
30358W        W95343  10.373  21.665  12.580
30359W        W95344  11.228  13.810   0.966
30360W        W95345  29.135  25.470   1.325
30361W        W95346   4.668  38.745   2.962
30362W        W95347  15.475  16.109   3.687
30363W        W95348  20.210  43.480   1.347
30364W        W95349  44.718   0.669   3.316
30365W        W95350  34.704   3.810  13.555
30366W        W95351  22.121   4.991   3.794
30367W        W95352   5.189   6.977   3.591
30368W        W95353  24.591   5.709  11.119
30369W        W95354   8.180  20.394  12.862
30370W        W95355  28.413  10.894  13.338
30371W        W95356   8.896  18.159  13.445
30372W        W95357  19.442  32.133  14.564
30373W        W95358  31.949   8.905   2.784
30374W        W95359  20.895  32.080   1.331
30375W        W95360  14.486  28.656   4.752
30376W        W95361  10.877  17.923   2.598
30377W        W95362  22.031  40.145  14.927
30378W        W95363  13.070   2.304  14.915
30379W        W95364  26.365  43.226   4.342
30380W        W95365  10.177  34.363  12.628
30381W        W95366  17.265   1.701   0.315
30382W        W95367  37.388  12.166  10.954
30383W        W95368  30.491   1.902  12.985
30384W        W95369  30.717   1.192   2.257
30385W        W95370  30.115  38.169   1.212
30386W        W95371   8.650  32.127   1.687
30387W        W95372   4.851  15.572  11.136
30388W        W95373  18.380  43.456   2.460
30389W        W95374   0.092  33.615   2.330
30390W        W95375  11.608  18.031   2.160
30391W        W95376   9.966   2.611   3.605
30392W        W95377   0.986  43.808  12.604
30393W        W95378  10.829  23.929   4.722
30394W        W95379  10.093  37.015   1.716
30395W        W95380   4.445  22.797   0.343
30396W        W95381   8.714  11.023   0.305
30397W        W95382  42.198  31.913   1.839
30398W        W95383  26.687   8.581  14.282
30399W        W95384  32.610  17.209  10.712
30400W        W95385  39.335  22.126   0.233
30401W        W95386  32.110  33.064  13.850
30402W        W95387  31.732  21.769   2.479
30403W        W95388  10.608  18.842   0.925
30404W        W95389   6.335  14.690   1.457
30405W        W95390  19.809   2.911   1.720
30406W        W95391  36.450   4.003   0.545
30407W        W95392  29.492  36.479  12.559
30408W        W95393   2.305   2.528  12.073
30409W        W95394  43.908   4.868   2.367
30410W        W95395   3.314  21.068   1.242
30411W        W95396  42.412  24.283   0.834
30412W        W95397  26.396  39.755   1.593
30413W        W95398  36.857  27.124  10.874
30414W        W95399  44.785   7.338   9.924
30415W        W95400  20.210  34.481   0.491
30416W        W95401  39.709  22.935   5.029
30417W        W95402  28.149  24.184  12.665
30418W        W95403   5.015  15.608   4.541
30419W        W95404  20.282  35.372  13.025
30420W        W95405  27.629   4.967   0.261
30421W        W95406  41.894  27.127  14.299
30422W        W95407  38.867   0.366  14.040
30423W        W95408   4.399  38.757   4.533
30424W        W95409   8.845  25.903   1.399
30425W        W95410  16.074  34.496   1.399
30426W        W95411  31.064   5.737   1.401
30427W        W95412  26.257  14.659   3.952
30428W        W95413  13.090  19.522  13.851
30429W        W95414  36.828  36.807  10.686
30430W        W95415  15.809   8.145  13.107
30431W        W95416   7.245   0.981  13.456
30432W        W95417   4.247  40.954   0.767
30433W        W95418   6.759  29.698   3.307
30434W        W95419  43.489  36.150   4.810
30435W        W95420   4.970  43.352   3.245
30436W        W95421  18.027  16.297  14.201
30437W        W95422  44.986  37.662  11.111
30438W        W95423  30.678  23.554   3.140
30439W        W95424  33.287  13.188   2.265
30440W        W95425  23.600  44.710   0.323
30441W        W95426  29.226  13.893  13.963
30442W        W95427   2.963  39.873   2.763
30443W        W95428   5.221  25.616  11.154
30444W        W95429  22.540  38.886   0.711
30445W        W95430  34.151  32.312   3.770
30446W        W95431  38.011  22.923  13.354
30447W        W95432   3.234  14.553  11.988
30448W        W95433  13.204  41.590  12.631
30449W        W95434   1.724  25.174  14.449
30450W        W95435  26.620   1.650   3.070
30451W        W95436  32.653  26.741  14.348
30452W        W95437   5.923  12.774  12.139
30453W        W95438  32.457  21.399   0.812
30454W        W95439   8.616   3.095   0.817
30455W        W95440  17.236  42.265   0.337
30456W        W95441  23.933   5.326   0.274
30457W        W95442   2.687  41.875  11.411
30458W        W95443  24.512  30.616  14.016
30459W        W95444  13.744  32.850   3.515
30460W        W95445  44.467  16.747  13.730
30461W        W95446   0.510  14.504   2.334
30462W        W95447  39.297  33.344  13.351
30463W        W95448  43.064  13.883   2.289
30464W        W95449  44.748   4.952   3.811
30465W        W95450  43.002  11.727  13.455
30466W        W95451  16.739  12.658  13.851
30467W        W95452  15.069  17.789   1.702
30468W        W95453  42.217  10.926   1.296
30469W        W95454  40.986  31.403  13.360
30470W        W95455  40.335  23.346   1.333
30471W        W95456  31.238  40.175  12.490
30472W        W95457  21.185  36.671  11.930
30473W        W95458  40.310   3.284   1.468
30474W        W95459  22.563  29.638  10.593
30475W        W95460  23.703   1.957   0.830
30476W        W95461   9.087  41.254   1.877
30477W        W95462  20.267  34.848   2.272
30478W        W95463  43.714   8.347  13.436
30479W        W95464  38.434  31.137  11.723
30480W        W95465   1.924  36.315   1.814
30481W        W95466  26.301   7.792   0.904
30482W        W95467  35.467  30.517  13.027
30483W        W95468  42.994  11.341  10.763
30484W        W95469  23.149  17.349  13.358
30485W        W95470  26.746   4.787   0.659
30486W        W95471  37.000  20.216  12.518
30487W        W95472  23.078   4.000  11.068
30488W        W95473  20.091  32.219   0.428
30489W        W95474   2.929   5.835   4.193
30490W        W95475  31.666   5.238   3.609
30491W        W95476  10.109  33.371  12.315
30492W        W95477  29.581   8.826  13.958
30493W        W95478  14.883  39.541   1.180
30494W        W95479  10.640  38.309   3.604
30495W        W95480   4.882   4.522  12.139
30496W        W95481  38.800  23.679  14.892
30497W        W95482  34.075  21.551   3.873
30498W        W95483  41.907  11.311   4.787
30499W        W95484  38.351  42.307  11.443
30500W        W95485  32.125  42.061  14.868
30501W        W95486  12.550  30.087  14.540
30502W        W95487  36.124  12.631  13.908
30503W        W95488   7.621  37.504   2.702
30504W        W95489  16.148  36.523  14.492
30505W        W95490  16.984   2.320  11.554
30506W        W95491  20.250   1.053   0.831
30507W        W95492  42.490  11.701   2.680
30508W        W95493  19.755  23.044   3.094
30509W        W95494   2.186  12.697  14.003
30510W        W95495  27.598  32.153  12.052
30511W        W95496   6.270  43.763   2.450
30512W        W95497  14.333  41.581  11.190
30513W        W95498  44.132  33.637  13.587
30514W        W95499  36.765  43.974   4.085
30515W        W95500  42.424  35.385  14.388
30516W        W95501  31.136  24.148  14.989
30517W        W95502   4.996  41.667   2.205
30518W        W95503  25.741  41.955  13.015
30519W        W95504   9.903  31.913  12.982
30520W        W95505  27.585   4.629   3.727
30521W        W95506  18.976  39.504   1.670
30522W        W95507  26.674  38.098   4.067
30523W        W95508   8.185   8.464   2.307
30524W        W95509  36.252   6.562   3.590
30525W        W95510  32.542   7.715  10.582
30526W        W95511   9.742  27.055  11.436
30527W        W95512  42.350  25.268  13.423
30528W        W95513  20.239  25.135   4.982
30529W        W95514  24.790  32.443   0.922
30530W        W95515   4.782  16.376  12.155
30531W        W95516  44.213   7.879   0.714
30532W        W95517  42.424  36.060   1.452
30533W        W95518  16.273  31.051  12.498
30534W        W95519  27.407  40.479   4.139
30535W        W95520  28.770  18.497  13.127
30536W        W95521  20.813  18.696  14.983
30537W        W95522  36.871  13.547  11.225
30538W        W95523  12.927  33.804   4.116
30539W        W95524   4.183   9.318   2.438
30540W        W95525   6.304  33.388  13.805
30541W        W95526  27.347  37.978  13.425
30542W        W95527   6.636  37.940  10.699
30543W        W95528   2.719  11.820  12.567
30544W        W95529  39.083  24.731   4.649
30545W        W95530  34.434   4.842  12.719
30546W        W95531  44.558  23.564  13.501
30547W        W95532  27.105  28.764   2.720
30548W        W95533  13.672  44.610  11.360
30549W        W95534  35.502   9.772   3.191
30550W        W95535  40.571  30.548  13.021
30551W        W95536  29.685   9.390  12.907
30552W        W95537   6.235  34.632  12.853
30553W        W95538   9.287   3.770   1.870
30554W        W95539  33.452  11.208   0.505
30555W        W95540  16.831   7.767  13.431
30556W        W95541  41.767  21.435   0.750
30557W        W95542  22.180  16.618  12.959
30558W        W95543  26.602  35.313  14.837
30559W        W95544  26.913  28.191   4.170
30560W        W95545  20.743  32.394  10.754
30561W        W95546  43.917   5.812   2.272
30562W        W95547  24.570  24.964  12.100
30563W        W95548  42.002  29.703   0.422
30564W        W95549  40.789  18.227   0.547
30565W        W95550  16.779  24.786  13.269
30566W        W95551  11.649   4.678   0.764
30567W        W95552  25.767  24.596  13.813
30568W        W95553   7.749  19.355  14.306
30569W        W95554  41.213  40.300   1.986
30570W        W95555  37.115   6.627   3.368
30571W        W95556   7.890   4.327  12.584
30572W        W95557  11.820  29.594   1.521
30573W        W95558   8.799  34.519  14.687
30574W        W95559  37.533  40.779  11.554
30575W        W95560  38.244   1.166   3.579
30576W        W95561  29.470  27.516  13.058
30577W        W95562  35.213  27.440   4.813
30578W        W95563  12.219  31.498  13.805
30579W        W95564  40.365   7.174  10.586
30580W        W95565  31.687  13.555  11.303
30581W        W95566  16.238  24.293  14.381
30582W        W95567  17.362   7.821   0.743
30583W        W95568   3.241  30.075   3.471
30584W        W95569  40.916  21.629   0.233
30585W        W95570   0.544  37.086   4.519
30586W        W95571  41.950  16.152   4.020
30587W        W95572  43.471  37.822   3.844
30588W        W95573  18.706  39.638  13.057
30589W        W95574  19.524   0.496   4.472
30590W        W95575   0.215  16.848  12.482
30591W        W95576  40.936   4.606  11.182
30592W        W95577  27.951   5.620  13.916
30593W        W95578  38.434   6.287   3.088
30594W        W95579  39.419   7.219   3.305
30595W        W95580  38.378  42.568  14.483
30596W        W95581  13.242  40.200  13.597
30597W        W95582  28.932  12.865   3.115
30598W        W95583  19.771   2.301  11.370
30599W        W95584  40.372  25.679  13.491
30600W        W95585  33.598  13.458  14.829
30601W        W95586  34.018   8.641   0.698
30602W        W95587  27.708  40.143   2.789
30603W        W95588  43.085  21.702  14.370
30604W        W95589   8.692  10.493   1.136
30605W        W95590   5.898  22.470   3.787
30606W        W95591   3.161  24.073   0.148
30607W        W95592  27.746  18.284  10.600
30608W        W95593  41.464  40.930   1.382
30609W        W95594   1.034  31.778   2.366
30610W        W95595  19.209  20.847  14.547
30611W        W95596  15.938  22.363   3.378
30612W        W95597  37.950  17.086  12.990
30613W        W95598  14.420  11.304  13.411
30614W        W95599  28.763  16.015   0.375
30615W        W95600   4.915  16.140   3.199
30616W        W95601  22.620  25.250   3.284
30617W        W95602   4.138  16.043  14.496
30618W        W95603  13.138  20.026  13.875
30619W        W95604  44.020  42.781   0.299
30620W        W95605  38.308  37.383  12.481
30621W        W95606   2.748  38.052   3.319
30622W        W95607  13.189  24.310  10.653
30623W        W95608  22.204  11.667   0.454
30624W        W95609  37.979  24.498   4.309
30625W        W95610  31.534  16.231   1.255
30626W        W95611  15.200  20.185  13.474
30627W        W95612  32.832  13.325  12.960
30628W        W95613  30.490  23.981   3.491
30629W        W95614  38.101  23.944  10.692
30630W        W95615  20.213  17.310  13.845
30631W        W95616   4.868   1.007   0.294
30632W        W95617  30.264  17.357   2.549
30633W        W95618  10.969   3.697  11.699
30634W        W95619  44.859  24.399   3.383
30635W        W95620  38.623   9.214   0.749
30636W        W95621  27.877  32.971  13.855
30637W        W95622  40.035  29.110   4.943
30638W        W95623  20.488   0.833   3.901
30639W        W95624  16.556  41.581   3.876
30640W        W95625  44.633  18.679  12.045
30641W        W95626  33.043  25.261   2.811
30642W        W95627   8.962  43.021  13.611
30643W        W95628  38.007  30.580   2.649
30644W        W95629  26.909  33.791  10.767
30645W        W95630   7.319  13.630   1.759
30646W        W95631   4.472   9.894   0.329
30647W        W95632  36.641  16.531   2.051
30648W        W95633  26.329  29.010   1.469
30649W        W95634  24.998  32.164  11.956
30650W        W95635  31.908  32.189  12.062
30651W        W95636   3.304   4.914  11.193
30652W        W95637  19.806   7.735   1.863
30653W        W95638  13.262  28.084   2.902
30654W        W95639  11.232  33.406  14.377
30655W        W95640  24.961  31.591   0.458
30656W        W95641  26.098  12.846  12.865
30657W        W95642  28.715  40.452   4.104
30658W        W95643   3.096  14.999   3.378
30659W        W95644  10.252  38.540  14.024
30660W        W95645  26.969  24.512   3.554
30661W        W95646  19.276  38.445   2.268
30662W        W95647  33.436  10.399   3.206
30663W        W95648  15.349   1.851   2.743
30664W        W95649  25.396  26.013   1.857
30665W        W95650  44.255  22.201   3.643
30666W        W95651  16.963  41.303  11.208
30667W        W95652   6.063  10.499   0.012
30668W        W95653  39.139  14.429   4.045
30669W        W95654  22.317  15.817   0.746
30670W        W95655  22.759  12.190  12.223
30671W        W95656  44.420  33.566   1.167
30672W        W95657  20.695  41.963   0.453
30673W        W95658  42.614  22.936  14.983
30674W        W95659  42.298  38.839   2.013
30675W        W95660  29.225  11.789  14.827
30676W        W95661   7.905  23.060   0.393
30677W        W95662  27.634   1.297  13.806
30678W        W95663  15.718  34.030  13.688
30679W        W95664   2.470  11.451  13.376
30680W        W95665  33.406   8.053  12.134
30681W        W95666  21.877  24.501  14.510
30682W        W95667   1.487  26.545   3.917
30683W        W95668  15.581  26.036   2.823
30684W        W95669  36.322  30.265   1.510
30685W        W95670  16.155  39.113   3.345
30686W        W95671  23.246  38.368  13.833
30687W        W95672  30.603  28.667  11.351
30688W        W95673  40.395  38.907   2.657
30689W        W95674  41.191  29.625   0.117
30690W        W95675  23.282   2.090  11.236
30691W        W95676  32.009   7.171   1.427
30692W        W95677  30.247  10.013  13.004
30693W        W95678  14.245  31.682   3.147
30694W        W95679  33.669  37.908   1.271
30695W        W95680  18.122  26.596  12.201
30696W        W95681   6.102  24.147   4.925
30697W        W95682   9.102   1.741  13.912
30698W        W95683   5.721   3.815  11.598
30699W        W95684  12.395  33.777  12.345
30700W        W95685   6.595  21.219  14.308
30701W        W95686  25.119  11.732  13.587
30702W        W95687  32.781  24.304   1.190
30703W        W95688  30.568  23.108   2.584
30704W        W95689  34.871  20.988   3.611
30705W        W95690  39.494  18.132   1.522
30706W        W95691  35.318   0.466  11.560
30707W        W95692  33.389  18.034   3.806
30708W        W95693  19.775  22.557   1.877
30709W        W95694   7.447  22.228   2.853
30710W        W95695   8.466  14.254  11.451
30711W        W95696  18.989  30.615  11.554
30712W        W95697   6.483  10.859   4.552
30713W        W95698  37.112  18.487  12.924
30714W        W95699  37.559  22.768   1.372
30715W        W95700  18.780  37.483   3.063
30716W        W95701  38.359   2.835   0.290
30717W        W95702  24.209  26.039   2.512
30718W        W95703  38.884   4.943  11.572
30719W        W95704   7.769   2.850  10.089
30720W        W95705  29.163  40.427   2.583
30721W        W95706  44.993  41.597   2.905
30722W        W95707  44.462   7.811   2.279
30723W        W95708  30.593   7.607   4.152
30724W        W95709  12.429   4.806  11.561
30725W        W95710  37.606  32.534  12.476
30726W        W95711  44.736  16.851  10.204
30727W        W95712   4.603  30.484  14.931
30728W        W95713   2.086  34.015  14.476
30729W        W95714  35.553  30.633   3.187
30730W        W95715  43.733  11.784  13.003
30731W        W95716   4.463   1.058  11.565
30732W        W95717   3.772  31.002  13.076
30733W        W95718  32.140  10.422  10.865
30734W        W95719  10.045  31.939   1.285
30735W        W95720  15.441   5.935  12.658
30736W        W95721  21.745  10.386  14.232
30737W        W95722   2.985  18.452   3.678
30738W        W95723  38.870  40.463  11.649
30739W        W95724  30.117  22.988  14.252
30740W        W95725  26.681  18.651  12.787
30741W        W95726  19.889  34.814   0.284
30742W        W95727   0.378   5.281   3.151
30743W        W95728  26.490  19.277  10.712
30744W        W95729  14.283  19.101   3.602
30745W        W95730  24.619  18.088   0.444
30746W        W95731  41.544  37.852   3.180
30747W        W95732  14.678   5.212   3.249
30748W        W95733  35.508  23.143  10.883
30749W        W95734   5.525  44.847  13.991
30750W        W95735  23.705  18.535  10.590
30751W        W95736  14.431   6.688  13.429
30752W        W95737  27.502  13.052   2.377
30753W        W95738  41.911  16.010  12.091
30754W        W95739  42.110  19.076  10.248
30755W        W95740  40.863  35.929   3.249
30756W        W95741   4.665  27.916   3.908
30757W        W95742  43.422  32.503   4.719
30758W        W95743  44.891  13.359  14.385
30759W        W95744   1.007  13.874  14.475
30760W        W95745  34.438   9.871   0.632
30761W        W95746  27.498  35.385  13.391
30762W        W95747  26.650  36.610   0.016
30763W        W95748  15.862  14.492   9.917
30764W        W95749  42.542  35.875   2.878
30765W        W95750   8.207  10.390  13.429
30766W        W95751  31.341  36.159   4.211
30767W        W95752  28.156  27.356   2.301
30768W        W95753  29.993  24.413  13.327
30769W        W95754   8.041  14.505  12.186
30770W        W95755  26.772  29.182  11.178
30771W        W95756  38.943   5.502  14.461
30772W        W95757  39.058  14.435   2.111
30773W        W95758  29.351  38.077   1.673
30774W        W95759  31.067  18.576   4.610
30775W        W95760  22.028  25.631   2.005
30776W        W95761  17.513  13.273   4.132
30777W        W95762   9.541  26.571   3.889
30778W        W95763  28.425  13.237   1.833
30779W        W95764  16.391  23.819  14.534
30780W        W95765   6.305   8.856   2.581
30781W        W95766  34.981  41.346  14.735
30782W        W95767  35.466   2.214  10.761
30783W        W95768   7.465  14.870   1.190
30784W        W95769  35.082  31.135  10.928
30785W        W95770  30.029  29.356   5.103
30786W        W95771  31.698  27.024  11.019
30787W        W95772  20.704  11.717   2.205
30788W        W95773  27.272   5.794  11.062
30789W        W95774  38.542   2.243   2.147
30790W        W95775  24.751  25.061  14.048
30791W        W95776  21.242  24.303   4.054
30792W        W95777   5.855  35.567   4.637
30793W        W95778  18.004   9.254  10.014
30794W        W95779   2.766  41.888   4.083
30795W        W95780  34.579  24.561   1.549
30796W        W95781  37.902  39.019   1.889
30797W        W95782  20.153  25.007  10.759
30798W        W95783  32.985  40.671   4.858
30799W        W95784   7.795  12.119  11.519
30800W        W95785   1.477  33.148   0.177
30801W        W95786   5.166  36.446   0.525
30802W        W95787  30.829  18.552   4.152
30803W        W95788   8.011  13.571   2.449
30804W        W95789  38.439  18.896  10.687
30805W        W95790   6.665  43.941   1.640
30806W        W95791  23.441  43.585   1.386
30807W        W95792  12.700  11.324   3.761
30808W        W95793  44.104  38.877   2.470
30809W        W95794  20.339  14.429   4.931
30810W        W95795  30.120  15.302   3.500
30811W        W95796  26.416  20.765  13.498
30812W        W95797  32.864   9.893   1.996
30813W        W95798  24.624  36.019   3.178
30814W        W95799   7.816   3.603  13.945
30815W        W95800  25.789  24.613   4.488
30816W        W95801   9.291   6.601   0.545
30817W        W95802  30.703  19.112   3.639
30818W        W95803  24.568  31.642   1.346
30819W        W95804  14.883   2.222  12.121
30820W        W95805   1.429  27.573   4.943
30821W        W95806   2.063  44.675   2.532
30822W        W95807   1.258  14.078   1.463
30823W        W95808  15.146  18.584  11.562
30824W        W95809  31.653  29.156   3.777
30825W        W95810   8.367  11.684   3.616
30826W        W95811  44.337  16.159  13.536
30827W        W95812   4.643  37.844  11.139
30828W        W95813  26.880  42.123   4.890
30829W        W95814  32.965   3.714   3.748
30830W        W95815  29.600  12.778  12.093
30831W        W95816  23.098  44.975   4.348
30832W        W95817  40.996  11.642  12.879
30833W        W95818  11.314  15.910   3.623
30834W        W95819   1.464  10.678  11.163
30835W        W95820  22.221  39.603  12.909
30836W        W95821  27.774   5.318   3.203
30837W        W95822  12.498   9.326  13.158
30838W        W95823  19.617  24.098  14.583
30839W        W95824  15.775  22.138   4.235
30840W        W95825  34.484  42.054   1.426
30841W        W95826  28.941  23.795  11.617
30842W        W95827  26.644   0.640   3.213
30843W        W95828  17.779  13.422  11.612
30844W        W95829  19.858  32.562  12.476
30845W        W95830  21.534  33.071  12.937
30846W        W95831  32.837   4.451  13.478
30847W        W95832  29.759  22.741   5.042
30848W        W95833  23.711  37.165   4.762
30849W        W95834  43.707  28.863   2.761
30850W        W95835   8.386   9.277   1.234
30851W        W95836   2.223  10.705   3.394
30852W        W95837  41.896   6.674   3.078
30853W        W95838   2.518   4.673  12.015
30854W        W95839  15.197  13.553   4.884
30855W        W95840  27.461  22.173  14.807
30856W        W95841   5.370  10.386   2.595
30857W        W95842  25.427  32.178   4.772
30858W        W95843  26.540  37.765   3.131
30859W        W95844  32.515  23.539  11.949
30860W        W95845  44.060  35.846   3.704
30861W        W95846  25.740  20.667   3.257
30862W        W95847  11.690  19.828   3.810
30863W        W95848  30.457  10.429  10.653
30864W        W95849  24.218  24.346   5.293
30865W        W95850  34.108  24.062   4.236
30866W        W95851   6.446  23.449   1.250
30867W        W95852  12.721   8.346   0.934
30868W        W95853   8.624  44.803   3.691
30869W        W95854  14.345  28.722  12.723
30870W        W95855  26.911  18.732   2.663
30871W        W95856  35.416  16.675  10.761
30872W        W95857  22.869  32.747   2.729
30873W        W95858  40.375   8.017   1.336
30874W        W95859  21.506   2.457   0.995
30875W        W95860  20.887  39.960   3.241
30876W        W95861  41.970  37.539   4.902
30877W        W95862  42.577  41.771  11.977
30878W        W95863  26.617   5.272  13.802
30879W        W95864   1.417  18.724   0.985
30880W        W95865  28.200  37.352  10.298
30881W        W95866  29.873   5.693   0.375
30882W        W95867   4.982  22.944  12.404
30883W        W95868  17.682  18.614   3.993
30884W        W95869  34.810  23.639  12.990
30885W        W95870   5.943  34.002  11.190
30886W        W95871   2.018  41.056   2.748
30887W        W95872   2.790  31.997  12.439
30888W        W95873   2.916  44.677   2.333
30889W        W95874  11.644  39.266  12.673
30890W        W95875  11.044  39.210  13.191
30891W        W95876  29.517  20.746   0.826
30892W        W95877  24.997  42.422   1.367
30893W        W95878   8.826  23.233  14.329
30894W        W95879  20.184   5.031  10.343
30895W        W95880  31.473  18.118  14.271
30896W        W95881  11.782   2.928  10.558
30897W        W95882  17.965  37.371   2.614
30898W        W95883  17.244  36.446   3.698
30899W        W95884  42.020  16.710   1.909
30900W        W95885  43.984   0.452   0.730
30901W        W95886   8.241  38.713   1.252
30902W        W95887  22.068  36.596  12.065
30903W        W95888  41.855  30.837   2.634
30904W        W95889  12.136  30.354   4.766
30905W        W95890  19.587  10.663  12.505
30906W        W95891  35.553  35.840   0.487
30907W        W95892  44.522  25.401  10.265
30908W        W95893  16.215  26.942  10.808
30909W        W95894   2.889  10.783  11.787
30910W        W95895  24.558  36.993  12.543
30911W        W95896  35.815  37.944  14.306
30912W        W95897  15.555  26.188  12.896
30913W        W95898   0.473  34.039   1.464
30914W        W95899  16.601  24.711  11.625
30915W        W95900  38.851  31.035  13.555
30916W        W95901  26.785  20.112   4.654
30917W        W95902  25.074  43.921  13.499
30918W        W95903   6.640   0.098  11.272
30919W        W95904   5.164  19.905   1.334
30920W        W95905  13.363  16.407   2.324
30921W        W95906  24.595  23.473  11.988
30922W        W95907   4.743  33.062   1.046
30923W        W95908  32.774  14.194   0.804
30924W        W95909   5.378  11.390   2.325
30925W        W95910  35.492  35.639   2.219
30926W        W95911  15.800  21.527  14.405
30927W        W95912  37.060  19.814  10.876
30928W        W95913   0.039   2.163   1.515
30929W        W95914  20.656  29.798   3.647
30930W        W95915  41.474  17.212  14.284
30931W        W95916   3.739  36.183  10.693
30932W        W95917   3.913  15.431   1.785
30933W        W95918   9.807  19.244  12.690
30934W        W95919   9.024  26.505   3.944
30935W        W95920   6.389  25.140   0.101
30936W        W95921  18.612  17.449   0.079
30937W        W95922  42.556  42.816  14.365
30938W        W95923  42.329  15.753  11.911
30939W        W95924   7.245  36.645  12.900
30940W        W95925   4.906  44.459   2.261
30941W        W95926  38.631  42.579  11.107
30942W        W95927  12.278  19.741   2.027
30943W        W95928  30.888   6.817  10.739
30944W        W95929  10.214   2.926   1.276
30945W        W95930  41.829  18.073   1.621
30946W        W95931  35.426  44.362   4.453
30947W        W95932  24.518   4.638   1.313
30948W        W95933  35.249  22.137  11.528
30949W        W95934  39.575  32.081  13.905
30950W        W95935  10.358  28.562  12.878
30951W        W95936  37.360  34.478  12.341
30952W        W95937  14.160  24.215   1.001
30953W        W95938   2.747   8.850  12.335
30954W        W95939  44.524  42.339   3.200
30955W        W95940  41.537  43.505   1.901
30956W        W95941  15.146  20.063  12.283
30957W        W95942   0.327   0.699   4.443
30958W        W95943  11.076  40.733   4.114
30959W        W95944  41.266  21.794  12.500
30960W        W95945  31.806  23.703   0.845
30961W        W95946  20.232  34.027   0.700
30962W        W95947  27.971  18.572   3.723
30963W        W95948  29.961   3.725   1.738
30964W        W95949  40.968   9.165  10.654
30965W        W95950  44.898   3.632  14.206
30966W        W95951  27.859  15.169  14.023
30967W        W95952  16.084  13.840   4.657
30968W        W95953   5.229  37.222  12.447
30969W        W95954  30.992  26.780   2.269
30970W        W95955  14.646  39.769   3.471
30971W        W95956  40.029  17.788   5.474
30972W        W95957   5.369  21.204  12.157
30973W        W95958  23.237  43.992   4.651
30974W        W95959  22.965  39.990   4.159
30975W        W95960  17.122  35.386   2.788
30976W        W95961  44.239  15.092  14.421
30977W        W95962   9.351  11.665  13.788
30978W        W95963  34.609  13.251   1.307
30979W        W95964  17.553  18.184  12.763
30980W        W95965  28.670  35.533   1.154
30981W        W95966  16.163  13.872   1.408
30982W        W95967  41.348  41.286   3.743
30983W        W95968  44.515  37.399  13.804
30984W        W95969  23.771  35.371   2.712
30985W        W95970  43.203  41.202   0.802
30986W        W95971  38.382  36.798  10.705
30987W        W95972   3.974  31.386  14.842
30988W        W95973   3.330  23.665  13.477
30989W        W95974  17.982  26.493   0.359
30990W        W95975  18.558  14.290  12.957
30991W        W95976  32.607   9.589   2.674
30992W        W95977   4.453  24.509  13.469
30993W        W95978  21.189  10.152   3.896
30994W        W95979  16.708  37.394   1.778
30995W        W95980   3.404  22.678  11.932
30996W        W95981  38.096  44.373  11.611
30997W        W95982  18.663   0.376  11.615
30998W        W95983  11.300  37.515   3.694
30999W        W95984  43.052  10.751  13.251
31000W        W95985   4.812  24.783   2.910
31001W        W95986  41.409  36.876  13.085
31002W        W95987  19.899  44.737  11.849
31003W        W95988  24.541  38.120   3.078
31004W        W95989  36.981  19.701   1.940
31005W        W95990   4.349  21.662  10.668
31006W        W95991  12.570  43.843   4.899
31007W        W95992  16.112  33.599   4.883
31008W        W95993  34.430  28.196  10.576
31009W        W95994   1.526  38.391  13.302
31010W        W95995  16.508  31.516   4.837
31011W        W95996   3.321   7.510  13.509
31012W        W95997  35.404  35.790   1.002
31013W        W95998  26.053  38.243   4.696
31014W        W95999  15.271   5.235   1.390
31015W        W96000  19.646  11.740   4.899
31016W        W96001  27.390  30.985  12.537
31017W        W96002  37.265  11.643   0.158
31018W        W96003  10.849  29.894   3.892
31019W        W96004  38.582  43.473   2.670
31020W        W96005  21.466  39.684   5.110
31021W        W96006  17.150  30.449  12.516
31022W        W96007  16.244  25.686   4.998
31023W        W96008  13.311  22.632  14.357
31024W        W96009   4.400  41.865  10.405
31025W        W96010   6.938  10.961  11.575
31026W        W96011  18.357   3.022  12.484
31027W        W96012   6.492  41.953   1.762
31028W        W96013  25.347  24.701   3.120
31029W        W96014  16.130   6.190   2.929
31030W        W96015  21.664  27.311   2.578
31031W        W96016  20.307   9.463   4.593
31032W        W96017  43.370  21.378  14.075
31033W        W96018  20.705  20.032  13.020
31034W        W96019  13.266  23.071   1.775
31035W        W96020  30.925   8.790   4.488
31036W        W96021  43.258  22.260  10.160
31037W        W96022  35.423  39.836  11.578
31038W        W96023  21.682  20.691   4.091
31039W        W96024  18.769  43.900   0.425
31040W        W96025  10.105  21.254  10.228
31041W        W96026  16.305  22.388   3.007
31042W        W96027  29.095   3.146  13.947
31043W        W96028   9.479   9.809  13.950
31044W        W96029  22.256  27.578  12.900
31045W        W96030  11.724  32.166   1.223
31046W        W96031  36.647  32.687  13.843
31047W        W96032   4.574  32.454   0.373
31048W        W96033  17.827  18.035   3.254
31049W        W96034   9.595  37.979  11.611
31050W        W96035  11.832  31.886  13.942
31051W        W96036  31.014  33.562   4.106
31052W        W96037  29.005   1.337   1.887
31053W        W96038  30.560  24.706  11.571
31054W        W96039  14.252  41.802  10.731
31055W        W96040  24.595  32.846   1.863
31056W        W96041  20.786  10.669  10.597
31057W        W96042  17.615  14.777  11.562
31058W        W96043  29.552  44.034  10.619
31059W        W96044  16.061  29.150  12.846
31060W        W96045  36.996  10.253  10.690
31061W        W96046   3.963  21.991   2.625
31062W        W96047   8.703   0.479  14.894
31063W        W96048  26.893  37.679  13.462
31064W        W96049  33.506  33.897   3.519
31065W        W96050  36.849  34.705   0.166
31066W        W96051  20.502  17.303  14.712
31067W        W96052   2.507   2.032   0.747
31068W        W96053  43.720   0.184  12.892
31069W        W96054  36.596  12.259   2.198
31070W        W96055  39.314  30.899   2.620
31071W        W96056  29.381  26.622   3.237
31072W        W96057   5.771   5.903  14.431
31073W        W96058  36.070  40.088   4.139
31074W        W96059  38.094   3.427  12.901
31075W        W96060  26.665  25.331  14.927
31076W        W96061  15.694  44.269  11.806
31077W        W96062  21.257  44.259   3.759
31078W        W96063  43.759  33.568   1.501
31079W        W96064   5.908   1.789  12.310
31080W        W96065  22.122   2.637  11.169
31081W        W96066  27.109  33.315   1.189
31082W        W96067  21.916  31.784  13.001
31083W        W96068  43.994  26.486  11.573
31084W        W96069  15.803  12.244   1.691
31085W        W96070  43.448  22.971  14.742
31086W        W96071  44.599  41.779   1.244
31087W        W96072  34.549  29.402  11.365
31088W        W96073  37.481  36.628   0.885
31089W        W96074   6.314  32.176  10.841
31090W        W96075  18.818  15.843   4.521
31091W        W96076   7.168  43.265  11.103
31092W        W96077  24.608   0.415   1.751
31093W        W96078  41.842  34.304  13.338
31094W        W96079  37.335  31.820  14.138
31095W        W96080   0.528  13.170  14.960
31096W        W96081   7.876  15.507  12.149
31097W        W96082  23.779  23.784   3.054
31098W        W96083   6.983  31.156  11.161
31099W        W96084   0.421  32.188  12.468
31100W        W96085   4.154  37.244   4.674
31101W        W96086   7.775  28.988   0.007
31102W        W96087  37.851  11.878   1.595
31103W        W96088   5.194  34.437  14.678
31104W        W96089  24.108  40.818   1.472
31105W        W96090   3.252   3.536  11.966
31106W        W96091   1.940  20.721   4.405
31107W        W96092   6.709   1.887   0.232
31108W        W96093  43.672  18.828   3.085
31109W        W96094  19.179  36.849   1.081
31110W        W96095  40.161  27.512  14.362
31111W        W96096  20.252   7.172   0.221
31112W        W96097  10.881  23.045   3.048
31113W        W96098  34.548  13.282   2.973
31114W        W96099   6.172  31.960  12.623
31115W        W96100  21.687   3.121   1.344
31116W        W96101   7.888  24.978   3.262
31117W        W96102  43.018  42.313  11.217
31118W        W96103  16.600  13.075  12.557
31119W        W96104  10.320   9.613   0.272
31120W        W96105   7.741  31.730  13.015
31121W        W96106  35.915  35.999   0.892
31122W        W96107  15.677  12.103  10.670
31123W        W96108   0.307  10.242   0.188
31124W        W96109   0.927  18.839  13.313
31125W        W96110  31.138  38.102  11.987
31126W        W96111  40.520  42.858  14.079
31127W        W96112   3.497  44.455   3.239
31128W        W96113  44.071   5.339  11.531
31129W        W96114  38.978  22.479  13.935
31130W        W96115  22.138  17.715   3.189
31131W        W96116   9.702  37.026  10.650
31132W        W96117  10.557  33.654  12.257
31133W        W96118   3.251  12.544   4.801
31134W        W96119  26.552  24.118   2.253
31135W        W96120  17.474  27.639   2.317
31136W        W96121  40.881  21.137   0.497
31137W        W96122  22.034  26.436  13.031
31138W        W96123  13.020   8.819   0.295
31139W        W96124   5.594  31.679  14.002
31140W        W96125  36.399  16.142  13.804
31141W        W96126  44.592  10.227   4.988
31142W        W96127   2.825  30.404   3.650
31143W        W96128  35.256  34.129  13.931
31144W        W96129  25.858  24.725   3.197
31145W        W96130  44.899  23.006   2.887
31146W        W96131  23.009  39.534  14.207
31147W        W96132  20.470  24.664   1.295
31148W        W96133  13.747  12.104  12.042
31149W        W96134  27.792  40.544   3.126
31150W        W96135   0.001   8.964  12.536
31151W        W96136  17.735  29.595   2.654
31152W        W96137   3.590  19.495   2.816
31153W        W96138  20.982  16.746   1.757
31154W        W96139   6.875  22.683  11.607
31155W        W96140  12.311   2.512  12.406
31156W        W96141  28.359  24.123   3.133
31157W        W96142   4.765  12.697   4.425
31158W        W96143  18.831  15.762  10.737
31159W        W96144  28.851   0.477  14.355
31160W        W96145   7.324   6.205  13.432
31161W        W96146  27.894  41.387   3.124
31162W        W96147   2.426  32.371   3.621
31163W        W96148  34.149  17.558   3.826
31164W        W96149  10.635   3.069   4.932
31165W        W96150   2.932  10.234  13.918
31166W        W96151  25.952  37.538  13.815
31167W        W96152  38.068   8.433   0.496
31168W        W96153  25.740   9.536   1.388
31169W        W96154  22.800  39.249   2.286
31170W        W96155  41.904  33.236  14.727
31171W        W96156  26.194   0.379  11.091
31172W        W96157   3.051   1.180   0.361
31173W        W96158   7.097  39.348   1.309
31174W        W96159  35.058   7.763   2.891
31175W        W96160  20.702  38.886  12.486
31176W        W96161  39.460   4.264   1.824
31177W        W96162  28.063   9.819  14.843
31178W        W96163   0.343   1.514   0.780
31179W        W96164  23.550   7.251   3.218
31180W        W96165  32.273  31.423  12.618
31181W        W96166  13.627  36.593  10.756
31182W        W96167  11.099  31.950  12.602
31183W        W96168   1.651  22.995   3.266
31184W        W96169  25.671  37.344  10.534
31185W        W96170  28.573   8.160  14.789
31186W        W96171  12.723   0.223  13.341
31187W        W96172  14.589  13.168  11.698
31188W        W96173  11.653  24.752  13.502
31189W        W96174  18.250  42.769   1.848
31190W        W96175  28.033  36.777   4.211
31191W        W96176   9.707  35.597  10.795
31192W        W96177  34.592  37.532  11.094
31193W        W96178   1.214  40.312  11.099
31194W        W96179  42.728  32.075  12.545
31195W        W96180   9.454  12.865   1.300
31196W        W96181  44.213  21.591  12.497
31197W        W96182  33.690  37.547  11.067
31198W        W96183   9.879   4.227  13.496
31199W        W96184  16.976  43.952   2.798
31200W        W96185   4.817  22.988  11.528
31201W        W96186  28.986   3.580   1.649
31202W        W96187  32.979   0.312   0.614
31203W        W96188  20.289  41.420  13.536
31204W        W96189  12.452  30.692  12.755
31205W        W96190  31.879   7.308  13.323
31206W        W96191  23.678  19.825   0.950
31207W        W96192  26.132  32.428   1.389
31208W        W96193  42.482  34.220   3.599
31209W        W96194  14.185  11.829  12.103
31210W        W96195   6.658   8.315   4.001
31211W        W96196  15.050  15.010  14.696
31212W        W96197  26.270   4.836   0.453
31213W        W96198  25.607   5.760   3.301
31214W        W96199  37.303  18.905   2.757
31215W        W96200  23.056   6.596  10.609
31216W        W96201  23.210  40.090   0.265
31217W        W96202  22.086  34.393   1.984
31218W        W96203  30.229   1.955  10.850
31219W        W96204   9.235  10.896   0.666
31220W        W96205   4.401   6.368   1.511
31221W        W96206   4.648  12.042  14.003
31222W        W96207  28.400   1.600  11.833
31223W        W96208  36.477  34.608   3.317
31224W        W96209  13.795  12.377  14.343
31225W        W96210  11.664  23.494  14.834
31226W        W96211  24.775  34.310   2.726
31227W        W96212   0.849  44.232  14.925
31228W        W96213  22.674  26.365  14.010
31229W        W96214  36.379   3.377   1.679
31230W        W96215  40.137  35.894   2.189
31231W        W96216  28.451  41.029   3.657
31232W        W96217   6.920  24.744  10.825
31233W        W96218  16.166  29.748   4.672
31234W        W96219   7.992  38.924   3.250
31235W        W96220  32.511  32.183  13.878
31236W        W96221  21.241  35.982  13.828
31237W        W96222  43.589  39.418  10.367
31238W        W96223   5.768  36.950   4.914
31239W        W96224  25.185   8.227  13.892
31240W        W96225  25.701   9.005   2.546
31241W        W96226  10.597  17.021  12.472
31242W        W96227  34.931  21.392   3.947
31243W        W96228  34.938  11.615   1.758
31244W        W96229  17.308  39.116  11.225
31245W        W96230  39.976  34.077   2.753
31246W        W96231  43.053  32.117  12.094
31247W        W96232  29.047  42.884  11.682
31248W        W96233   5.206  16.600   2.864
31249W        W96234  31.453  34.652   0.356
31250W        W96235  19.867   7.942  14.248
31251W        W96236  14.237  21.704   3.599
31252W        W96237  21.427  44.981   0.416
31253W        W96238   3.823   5.129   2.781
31254W        W96239  35.795  32.749   0.242
31255W        W96240  21.163  42.407  14.418
31256W        W96241  14.477  39.772  13.033
31257W        W96242  42.726  41.924   0.125
31258W        W96243  37.471  38.083   1.006
31259W        W96244  35.092  25.744  13.479
31260W        W96245  28.105  10.617   4.776
31261W        W96246  13.157  22.772   0.037
31262W        W96247  29.684  27.929  10.246
31263W        W96248  10.878   3.899   4.835
31264W        W96249  26.383  44.901  10.913
31265W        W96250   6.608  31.434  13.939
31266W        W96251   7.494  39.053  13.478
31267W        W96252  33.435  38.784  13.933
31268W        W96253  11.200  23.094   2.181
31269W        W96254  17.167   2.734   2.443
31270W        W96255  37.353  43.765  12.390
31271W        W96256   5.751  26.418  11.175
31272W        W96257  11.712  13.815   2.616
31273W        W96258  23.627  28.683   3.942
31274W        W96259  36.755  41.444   4.446
31275W        W96260  17.776  12.634  12.945
31276W        W96261  37.538  15.105   3.001
31277W        W96262  21.563  37.832   3.554
31278W        W96263  20.796  38.075  12.002
31279W        W96264   5.888   2.513  13.540
31280W        W96265   4.954  17.760   0.936
31281W        W96266   0.447  11.637   3.679
31282W        W96267  31.030  19.278  13.664
31283W        W96268  33.940  23.253   1.841
31284W        W96269  10.090  25.178   0.010
31285W        W96270  11.824  12.305   0.418
31286W        W96271  23.083  30.501   2.943
31287W        W96272  14.091  39.133   1.711
31288W        W96273   1.894  17.964   3.277
31289W        W96274  27.432  43.939  12.912
31290W        W96275  35.956  43.456   4.889
31291W        W96276   5.603  32.106   1.872
31292W        W96277  36.844  23.065  12.953
31293W        W96278   1.344   9.184  11.842
31294W        W96279   4.685  26.551  12.792
31295W        W96280  19.209  35.715  11.208
31296W        W96281   1.238  19.473  14.739
31297W        W96282   6.098   3.934   0.630
31298W        W96283  33.046  29.840  14.488
31299W        W96284  23.949  42.865   3.707
31300W        W96285   7.856  10.132  12.201
31301W        W96286   3.429  17.864   2.992
31302W        W96287  40.789   7.725   2.853
31303W        W96288  41.068  24.250  12.054
31304W        W96289   9.869   5.818   0.741
31305W        W96290   8.759  21.623   4.911
31306W        W96291  29.158   4.962  11.263
31307W        W96292  19.776  42.228  13.580
31308W        W96293   5.696   3.352  11.352
31309W        W96294   0.560   6.894   2.388
31310W        W96295   0.674   0.873   0.755
31311W        W96296  21.470  12.734   2.872
31312W        W96297  36.357  30.588  10.483
31313W        W96298  12.945  38.918   4.184
31314W        W96299  37.834  42.449  14.802
31315W        W96300   8.920  18.803  11.186
31316W        W96301  27.480  12.347   0.366
31317W        W96302   6.225  21.349   4.999
31318W        W96303  17.326  11.119  12.699
31319W        W96304  12.098  43.345  10.647
31320W        W96305  28.566   0.374   2.405
31321W        W96306   5.941   0.213   4.160
31322W        W96307   3.550   2.084  12.058
31323W        W96308  43.983  34.438   4.556
31324W        W96309  13.081  13.369  11.912
31325W        W96310  13.329  16.827   3.198
31326W        W96311  33.268  13.554   0.229
31327W        W96312  41.878  12.355   2.903
31328W        W96313  27.675   2.496  10.726
31329W        W96314   7.915  17.815  12.616
31330W        W96315  13.766   1.158   0.889
31331W        W96316   9.421  40.255  13.402
31332W        W96317  29.966  18.334  10.735
31333W        W96318   8.451  17.752   2.730
31334W        W96319  13.220  34.434   1.906
31335W        W96320  27.741  42.008  14.961
31336W        W96321  40.561  28.410  11.435
31337W        W96322  44.216  24.706   3.919
31338W        W96323  28.844  37.275  11.011
31339W        W96324  17.058  33.503  10.663
31340W        W96325   8.249  21.625  13.464
31341W        W96326   4.480  25.394  13.485
31342W        W96327  26.457   2.912  10.735
31343W        W96328  39.127   1.695  14.928
31344W        W96329  29.625   7.322   2.168
31345W        W96330  15.022  37.498  14.834
31346W        W96331  33.534   3.428   2.650
31347W        W96332  43.442  39.894  10.554
31348W        W96333  36.825  23.566  12.989
31349W        W96334  23.658  42.754   0.895
31350W        W96335  42.024  44.249  10.226
31351W        W96336  29.790  15.040   0.457
31352W        W96337  26.976  16.691  14.775
31353W        W96338  21.325  26.407  12.950
31354W        W96339   9.000   2.822   2.995
31355W        W96340  21.977  32.448  10.999
31356W        W96341   8.665   7.949   9.812
31357W        W96342  16.097  43.880  13.458
31358W        W96343  36.357  35.371   2.386
31359W        W96344  38.145  33.007   0.534
31360W        W96345  31.121  22.384  13.391
31361W        W96346  44.992  17.590   2.818
31362W        W96347  18.858  32.407   3.261
31363W        W96348   5.672  30.635  12.023
31364W        W96349  35.582  20.276  10.769
31365W        W96350  31.023  35.026  14.305
31366W        W96351  24.092  25.716  14.919
31367W        W96352  15.811  14.055   1.757
31368W        W96353  32.592   3.104  13.576
31369W        W96354  32.925  25.894   1.511
31370W        W96355  26.616  28.124  10.274
31371W        W96356  43.244  39.288   4.121
31372W        W96357   8.135  21.696  14.361
31373W        W96358  29.031   4.688   2.685
31374W        W96359  25.601  16.323  13.532
31375W        W96360   7.877  38.058  14.940
31376W        W96361  43.733  39.034  12.078
31377W        W96362  41.960   3.359   1.108
31378W        W96363   2.818  38.318  11.511
31379W        W96364  37.563  13.047   1.073
31380W        W96365  17.771  38.477   3.698
31381W        W96366  33.878  35.356  14.900
31382W        W96367  44.608  14.631   4.962
31383W        W96368   5.708  44.685  12.426
31384W        W96369   6.982   2.929   3.248
31385W        W96370  10.719  43.323   2.366
31386W        W96371  28.042  23.312  10.415
31387W        W96372  27.586   9.471   2.952
31388W        W96373  42.180   3.606  12.091
31389W        W96374  19.354  35.811  14.540
31390W        W96375  44.417  32.399   2.734
31391W        W96376  43.796  20.043   1.244
31392W        W96377  35.821   0.879   0.785
31393W        W96378  11.751  21.663   0.543
31394W        W96379  10.817  29.376   2.269
31395W        W96380  25.732  36.979  12.898
31396W        W96381   5.413  30.567  14.265
31397W        W96382  42.509  41.975  14.441
31398W        W96383  11.234  20.389   0.646
31399W        W96384  19.241  22.812   3.716
31400W        W96385  31.992  27.597   0.093
31401W        W96386  31.859   9.329   3.708
31402W        W96387  41.026  28.060  12.672
31403W        W96388  36.871  38.382   3.129
31404W        W96389  19.659  29.964  12.993
31405W        W96390  20.248  31.359   0.976
31406W        W96391  16.003   9.027   2.683
31407W        W96392  17.069  44.387  14.826
31408W        W96393  16.529  19.732   3.257
31409W        W96394  28.649   4.952   1.238
31410W        W96395  38.328  31.809  13.070
31411W        W96396  28.144  26.483  14.855
31412W        W96397   3.530  18.304   0.934
31413W        W96398  28.425  21.063   3.836
31414W        W96399  37.548  43.512  11.073
31415W        W96400  27.671  12.052  11.563
31416W        W96401  13.049   3.452  12.527
31417W        W96402  15.225  42.787  11.272
31418W        W96403  22.019   0.219   0.751
31419W        W96404  22.232  35.041   2.679
31420W        W96405  26.197   2.926  12.115
31421W        W96406  17.117  25.627  12.516
31422W        W96407  21.707   4.458  10.300
31423W        W96408  30.528  37.372   4.256
31424W        W96409  13.405  20.743  10.665
31425W        W96410  44.670  32.674  11.243
31426W        W96411  28.553  32.152   3.242
31427W        W96412   5.259  38.920   1.685
31428W        W96413  19.022  22.726   0.901
31429W        W96414  22.774  34.783  11.856
31430W        W96415  37.004  25.259  12.971
31431W        W96416  34.575  30.088   4.346
31432W        W96417  35.351  12.602  14.570
31433W        W96418  40.826  41.820   0.962
31434W        W96419  12.147  34.285  14.733
31435W        W96420  32.065  26.043  12.951
31436W        W96421  35.381  21.534   3.704
31437W        W96422  39.866  36.008  14.474
31438W        W96423   6.473  23.545   4.708
31439W        W96424  42.433  14.237   5.028
31440W        W96425  16.879  18.312   4.035
31441W        W96426   7.870  31.920   0.351
31442W        W96427  12.446  10.904   2.342
31443W        W96428   1.861  31.119   3.323
31444W        W96429   8.232   8.595   0.879
31445W        W96430  15.056  24.045  13.026
31446W        W96431  42.796  44.038   0.258
31447W        W96432  26.543  24.014  13.894
31448W        W96433  32.845  25.755   2.777
31449W        W96434   1.928  41.848   0.813
31450W        W96435  38.397   2.905  10.792
31451W        W96436   6.319   3.249  12.806
31452W        W96437  41.457  43.329  13.434
31453W        W96438  29.446  29.904  14.254
31454W        W96439  10.835   3.377   4.131
31455W        W96440   0.001   6.672  12.779
31456W        W96441  13.413   7.249   0.832
31457W        W96442  38.874  21.141  10.138
31458W        W96443  26.213   6.815   1.304
31459W        W96444  44.283  30.032   3.189
31460W        W96445  12.030  30.971   3.970
31461W        W96446   0.321   0.503  10.685
31462W        W96447  22.053  41.418  14.969
31463W        W96448  22.479  43.970  11.133
31464W        W96449  12.816  20.702  11.913
31465W        W96450  30.541  11.939  10.709
31466W        W96451  43.317   8.786   1.341
31467W        W96452  14.596  26.737   2.291
31468W        W96453  42.877  44.564  14.408
31469W        W96454  39.091  12.728  10.388
31470W        W96455  34.888  44.135  14.003
31471W        W96456  44.766  21.727  11.991
31472W        W96457  22.130   5.749  13.300
31473W        W96458   8.651  24.004   3.570
31474W        W96459  44.440   3.240   1.723
31475W        W96460  43.702  32.960  13.381
31476W        W96461  32.503  11.179   0.674
31477W        W96462  28.994  10.320  11.468
31478W        W96463  31.627  38.245   1.369
31479W        W96464  29.688  23.486  14.217
31480W        W96465  16.782   3.906   3.261
31481W        W96466  22.667  14.718  13.105
31482W        W96467  35.058  13.165   3.278
31483W        W96468  37.486  34.151   4.171
31484W        W96469  33.169   2.239   4.657
31485W        W96470  42.591  16.647   2.348
31486W        W96471  43.788   5.761  11.541
31487W        W96472  17.976  21.036   1.386
31488W        W96473   4.954  34.045  12.490
31489W        W96474   4.065  13.164  11.330
31490W        W96475  22.560   1.015   4.199
31491W        W96476  13.675  39.416  12.954
31492W        W96477  15.086  16.155   1.791
31493W        W96478  44.814  12.992   2.686
31494W        W96479  27.609   6.388  10.547
31495W        W96480  21.287  31.573  10.667
31496W        W96481  25.219  44.218  14.734
31497W        W96482   1.301  20.158   4.401
31498W        W96483  23.903  33.956   2.769
31499W        W96484  18.091  35.463   1.373
31500W        W96485   0.643  36.241  11.130
31501W        W96486  21.099   5.053   4.063
31502W        W96487  25.166  18.343   3.715
31503W        W96488  26.992  18.205   1.355
31504W        W96489  17.663  26.454  12.397
31505W        W96490   5.924  11.240   3.741
31506W        W96491  20.569  31.641   3.684
31507W        W96492  25.606  42.277   0.522
31508W        W96493  20.548  33.580   0.494
31509W        W96494   1.619  25.012  13.295
31510W        W96495  37.457  20.569   2.422
31511W        W96496  20.772  38.803   1.784
31512W        W96497   4.717  11.722  11.635
31513W        W96498  24.049  37.597   0.744
31514W        W96499  13.706  26.994   5.133
31515W        W96500  21.034  18.626   3.318
31516W        W96501  38.781   2.792   4.166
31517W        W96502  14.812   9.756   4.676
31518W        W96503  40.969   7.066   3.350
31519W        W96504  12.750  28.020  11.861
31520W        W96505  39.027  25.062   0.214
31521W        W96506  37.453  30.491   3.799
31522W        W96507   9.215  44.584   1.683
31523W        W96508  34.152  24.762  11.959
31524W        W96509  35.485  19.639  13.862
31525W        W96510  43.729  41.095   4.114
31526W        W96511  31.710   1.247   2.379
31527W        W96512  12.338  13.837   3.389
31528W        W96513  32.201  13.812  14.293
31529W        W96514  21.398  14.269  14.957
31530W        W96515  21.692  33.140   0.932
31531W        W96516  44.784   6.716  10.693
31532W        W96517   9.672  34.651   0.034
31533W        W96518  39.434  21.039   3.275
31534W        W96519  31.602  26.509   2.873
31535W        W96520  16.953  44.325  12.686
31536W        W96521  35.864  22.963  13.890
31537W        W96522  41.809  20.652   3.122
31538W        W96523  16.653  34.181  11.563
31539W        W96524   0.732  33.122   4.289
31540W        W96525  34.172  41.896  14.231
31541W        W96526  25.662  22.489  14.232
31542W        W96527  11.889  38.742   0.880
31543W        W96528  15.254  41.894  12.911
31544W        W96529   1.262  26.589  13.113
31545W        W96530   4.224   2.739  12.680
31546W        W96531   9.623  18.023   2.301
31547W        W96532   5.907  25.759  14.362
31548W        W96533  11.517  23.312  10.214
31549W        W96534  10.197  34.641   1.702
31550W        W96535   5.825  16.736   0.855
31551W        W96536  37.498  14.050   1.430
31552W        W96537  31.849   0.976  14.313
31553W        W96538  39.479  36.801   2.913
31554W        W96539  33.341  28.199  13.115
31555W        W96540  15.758  14.765  12.186
31556W        W96541  39.577   7.211   1.929
31557W        W96542  40.091  27.887  12.325
31558W        W96543  40.808  26.163  14.401
31559W        W96544   5.333  35.281   2.228
31560W        W96545   3.985   9.418  13.951
31561W        W96546   1.912   3.171  14.323
31562W        W96547  20.756  22.652   4.886
31563W        W96548   2.303  20.783  12.584
31564W        W96549  42.684  23.443  14.750
31565W        W96550  39.515  40.286   3.696
31566W        W96551  18.070   6.363  12.249
31567W        W96552  41.477  44.132  11.774
31568W        W96553   4.365  26.475  11.485
31569W        W96554  10.471  12.675   0.789
31570W        W96555  34.519  42.560  10.601
31571W        W96556  25.073   2.865  13.487
31572W        W96557  18.075  10.408   4.235
31573W        W96558  23.080   0.364   3.193
31574W        W96559   8.720  35.569   2.063
31575W        W96560   7.853  19.649  13.863
31576W        W96561  30.441  37.521  10.313
31577W        W96562  18.948  11.821   4.164
31578W        W96563  25.756  14.614  14.981
31579W        W96564  16.787   2.687   2.827
31580W        W96565  44.269  26.634   1.657
31581W        W96566  23.054  44.682  12.441
31582W        W96567  25.041  19.211  13.900
31583W        W96568  29.124  21.514   2.353
31584W        W96569  18.011  43.471  13.590
31585W        W96570  41.534  23.128   3.731
31586W        W96571  17.885  43.315   2.402
31587W        W96572  32.436  44.691  13.351
31588W        W96573  31.308  24.471   3.372
31589W        W96574  22.391  27.194   2.442
31590W        W96575  38.252  27.099   4.517
31591W        W96576  13.866  36.227   3.842
31592W        W96577  18.611  11.738  14.903
31593W        W96578  43.057  20.666  14.998
31594W        W96579  19.206  24.446  11.249
31595W        W96580  31.881  34.449  10.620
31596W        W96581  44.489  23.068   1.599
31597W        W96582  34.525  11.162   2.756
31598W        W96583  42.544   2.236   3.658
31599W        W96584  24.665  18.532  12.968
31600W        W96585  11.700  25.450   2.305
31601W        W96586   8.151  15.856   0.326
31602W        W96587  10.248   7.452   1.297
31603W        W96588  27.045  12.797   2.300
31604W        W96589  37.853  30.981   3.137
31605W        W96590   8.077  42.848   1.865
31606W        W96591  39.785   9.153  11.977
31607W        W96592  21.659  10.756   4.352
31608W        W96593  33.977  29.495   4.767
31609W        W96594   9.891   9.204  12.277
31610W        W96595  23.517  37.455   0.795
31611W        W96596  25.912  40.078   4.245
31612W        W96597  13.072  23.447   3.123
31613W        W96598   2.782   8.480  11.458
31614W        W96599  34.922  30.889   2.601
31615W        W96600  33.375  17.869  14.527
31616W        W96601   8.077   2.100  10.925
31617W        W96602  23.184  21.661   4.608
31618W        W96603  27.457  15.381   3.659
31619W        W96604  33.962  40.125   0.484
31620W        W96605  28.473  41.429  14.399
31621W        W96606  33.132  26.736  13.562
31622W        W96607  29.408  36.591   1.013
31623W        W96608  16.562  18.825   2.273
31624W        W96609  44.265  14.034  12.491
31625W        W96610  44.509   1.990   4.181
31626W        W96611  24.092  37.454  11.134
31627W        W96612  30.961  22.204  12.467
31628W        W96613  26.061   8.163   1.837
31629W        W96614  21.284  22.167   0.285
31630W        W96615  21.175   5.130  12.159
31631W        W96616   0.556  20.206  10.318
31632W        W96617  14.526  30.529  14.768
31633W        W96618  29.915  22.205   0.085
31634W        W96619   5.349  10.523  13.917
31635W        W96620  18.273  40.422   0.211
31636W        W96621  43.939   5.686  13.016
31637W        W96622  10.288  36.407  10.803
31638W        W96623  27.861  43.889   3.085
31639W        W96624  22.616  42.178   4.563
31640W        W96625   1.304  38.779   0.489
31641W        W96626  26.048  16.321   3.179
31642W        W96627   7.646  40.428  12.917
31643W        W96628  20.701   6.486   4.578
31644W        W96629  35.980  40.472   1.494
31645W        W96630  31.964   2.893   1.903
31646W        W96631   3.775  30.029  13.556
31647W        W96632  42.366  21.166   0.540
31648W        W96633  25.014   9.845  12.973
31649W        W96634  37.382   8.391  11.615
31650W        W96635   9.218  41.393  11.200
31651W        W96636  25.811  39.582  12.503
31652W        W96637  16.589   7.397  11.007
31653W        W96638   8.719  38.447  14.816
31654W        W96639  20.998  16.414  14.772
31655W        W96640  34.578   0.462  13.386
31656W        W96641  35.381   8.822  12.015
31657W        W96642  11.343   8.535   4.381
31658W        W96643  37.629   5.257   4.605
31659W        W96644   2.169  41.957   0.001
31660W        W96645  40.485  25.356   2.274
31661W        W96646  16.308  39.780  10.707
31662W        W96647  35.498   6.306   0.986
31663W        W96648  27.108  41.209   3.720
31664W        W96649  43.341  24.249   1.179
31665W        W96650  39.393  39.477   2.385
31666W        W96651   4.492  10.089  12.391
31667W        W96652  20.657   1.400  13.875
31668W        W96653  44.696   7.425  13.481
31669W        W96654  42.894  30.999   1.070
31670W        W96655  32.586  34.448  12.586
31671W        W96656  31.560  31.382   4.812
31672W        W96657  35.970  22.269  14.806
31673W        W96658  41.039  16.796  12.972
31674W        W96659  17.828   5.390  14.870
31675W        W96660  20.410   3.492   1.418
31676W        W96661  40.584  39.847  10.033
31677W        W96662  30.661   4.941  11.049
31678W        W96663  31.150  34.783  11.964
31679W        W96664  40.181   6.320   2.593
31680W        W96665  34.468  10.452   1.455
31681W        W96666  36.031  34.273  14.266
31682W        W96667  38.244  16.757  14.239
31683W        W96668   6.612  34.293  12.014
31684W        W96669   3.411  36.517  11.652
31685W        W96670  40.446  10.215  14.902
31686W        W96671  24.242  15.786   2.740
31687W        W96672  12.200  17.509   2.774
31688W        W96673  34.286  20.412  11.612
31689W        W96674   8.784  20.992   3.345
31690W        W96675  42.207   3.696   4.641
31691W        W96676  18.739  27.164   2.680
31692W        W96677  29.152  20.531  12.511
31693W        W96678  13.589  21.043   2.326
31694W        W96679  38.896  29.540  12.491
31695W        W96680  29.867  36.123  12.504
31696W        W96681  31.968   1.914  14.479
31697W        W96682  26.678  13.095   1.799
31698W        W96683  32.548  21.198   3.371
31699W        W96684  27.468  11.159   3.076
31700W        W96685   4.274   9.275  14.881
31701W        W96686   4.405  43.769   4.471
31702W        W96687   0.990  14.670   4.048
31703W        W96688  27.134  39.561  10.940
31704W        W96689  29.649  14.717  13.420
31705W        W96690  29.385  26.169   2.628
31706W        W96691   3.681  28.595  13.901
31707W        W96692   7.235  10.789  13.256
31708W        W96693   3.915  18.626  10.517
31709W        W96694   3.295  16.631  10.696
31710W        W96695  43.729  37.373  13.402
31711W        W96696  31.660   8.672   3.642
31712W        W96697  43.733   6.386  14.209
31713W        W96698  26.993  26.380  11.097
31714W        W96699  37.975  42.169   1.279
31715W        W96700  39.577  33.814  14.555
31716W        W96701  32.926  11.764  12.375
31717W        W96702  43.770  19.580   0.374
31718W        W96703   6.866  41.198  12.372
31719W        W96704   6.774  23.268   2.413
31720W        W96705  30.353  40.514  12.687
31721W        W96706  34.639  42.759   4.062
31722W        W96707  16.026  36.655   0.046
31723W        W96708   6.939  33.532  12.490
31724W        W96709  35.556  17.520  13.956
31725W        W96710  38.229  44.783  13.025
31726W        W96711  12.849   1.389   0.441
31727W        W96712  39.049  16.453   1.203
31728W        W96713  20.156  31.967  12.954
31729W        W96714   7.435   2.366  13.622
31730W        W96715   8.975  11.643   2.694
31731W        W96716  20.046  18.288   0.723
31732W        W96717  20.622  30.542   4.363
31733W        W96718   0.105  11.384  12.123
31734W        W96719  28.912  30.505  12.103
31735W        W96720  23.977  37.835  14.761
31736W        W96721  36.629  41.955   2.939
31737W        W96722  19.947  40.843  12.585
31738W        W96723   5.992  38.631  11.584
31739W        W96724  28.212  38.852   4.120
31740W        W96725  10.822  26.527   1.206
31741W        W96726  40.187   1.194  12.804
31742W        W96727   4.530  27.208  12.029
31743W        W96728  36.995   5.409   4.296
31744W        W96729  15.971  29.206   4.573
31745W        W96730  30.632  28.465  13.982
31746W        W96731  38.411  32.146   0.995
31747W        W96732  30.602  28.443   4.671
31748W        W96733  13.262  40.245   0.846
31749W        W96734  16.319  10.218  14.994
31750W        W96735  30.739  33.947  12.394
31751W        W96736  27.684  34.990   4.623
31752W        W96737   2.874  21.574  11.518
31753W        W96738  39.897   8.594   0.450
31754W        W96739  18.533  39.838   2.656
31755W        W96740  31.551  20.976  10.566
31756W        W96741  41.842  26.836   5.124
31757W        W96742  44.715  24.169   0.967
31758W        W96743  44.896   7.231   4.176
31759W        W96744  38.372  19.497   2.828
31760W        W96745  30.459  44.901  12.407
31761W        W96746  25.476  42.553   3.184
31762W        W96747  15.669   0.623   4.616
31763W        W96748  36.324  43.858  10.617
31764W        W96749   7.844  33.175  11.933
31765W        W96750   9.356  42.915  11.525
31766W        W96751   0.503  37.804  14.435
31767W        W96752   1.891   4.626  10.739
31768W        W96753   0.079  20.031   0.712
31769W        W96754  36.461  36.076  14.740
31770W        W96755  41.296  30.575  12.369
31771W        W96756  36.366  22.797  12.991
31772W        W96757  43.598  25.538   3.233
31773W        W96758   9.416  14.827   0.460
31774W        W96759  22.248  44.983  14.302
31775W        W96760  21.581  26.804   2.687
31776W        W96761  11.981  31.974   5.228
31777W        W96762   8.682  44.435   3.323
31778W        W96763   2.308  33.531  14.561
31779W        W96764   2.429  34.463   0.830
31780W        W96765  25.363  44.304   1.343
31781W        W96766   0.481  12.906   1.401
31782W        W96767  35.187  40.890  14.858
31783W        W96768  16.061  16.375   1.904
31784W        W96769  23.566  13.685   1.301
31785W        W96770  14.678  21.196  12.598
31786W        W96771  44.877   4.039  12.686
31787W        W96772   9.441  19.850   4.545
31788W        W96773  21.272  25.477  11.597
31789W        W96774  43.113   5.587  14.690
31790W        W96775  34.726  17.997   3.163
31791W        W96776  21.175  12.710   4.574
31792W        W96777  29.052  32.089   3.216
31793W        W96778  37.908  26.475  14.480
31794W        W96779  17.979  17.459  13.036
31795W        W96780  34.600   2.460   4.388
31796W        W96781   7.181  20.512   3.272
31797W        W96782  13.146  27.739   0.067
31798W        W96783   7.286  38.977  10.386
31799W        W96784  41.712  32.491   2.981
31800W        W96785  40.808  10.295  13.522
31801W        W96786  41.251   7.721   0.382
31802W        W96787  30.463  34.905   1.765
31803W        W96788  38.030  26.220  14.032
31804W        W96789  24.250  32.988   3.742
31805W        W96790  17.520  14.701   4.159
31806W        W96791  13.393  27.393  11.144
31807W        W96792  22.627  16.611  14.388
31808W        W96793  36.416  37.849  12.408
31809W        W96794  13.815  43.886   0.060
31810W        W96795  32.852   7.478  11.592
31811W        W96796   5.989  32.830   2.860
31812W        W96797  22.188  21.321   3.354
31813W        W96798  35.860   9.025  13.778
31814W        W96799   9.812  36.136   0.782
31815W        W96800  34.096   9.561   3.246
31816W        W96801   3.596  29.626  13.263
31817W        W96802  39.901   8.980   2.466
31818W        W96803   5.325  14.907   4.076
31819W        W96804  39.320  32.132  12.126
31820W        W96805  22.286   1.385  10.789
31821W        W96806  16.691   1.691   4.937
31822W        W96807  16.551  32.870  10.389
31823W        W96808  29.680  31.042   0.879
31824W        W96809  19.011  26.404   4.214
31825W        W96810   8.793  27.060   4.413
31826W        W96811  43.830   7.947   3.755
31827W        W96812   9.662  24.947   2.254
31828W        W96813  30.658  36.039  14.028
31829W        W96814  40.369  17.224   3.530
31830W        W96815   8.650  39.593  13.466
31831W        W96816   8.387  40.473  11.551
31832W        W96817  39.977  28.381   4.140
31833W        W96818  19.643  23.695  14.909
31834W        W96819   7.835  23.481  11.064
31835W        W96820  13.161   1.452   3.184
31836W        W96821   9.275  39.890  14.806
31837W        W96822  33.507  40.366   1.275
31838W        W96823  19.375  19.829   2.656
31839W        W96824  37.103  30.643   4.155
31840W        W96825  35.173  13.098  14.794
31841W        W96826  12.671   2.272  13.008
31842W        W96827  35.393  14.355   3.155
31843W        W96828  28.629  15.234  10.747
31844W        W96829  25.544  33.487  12.114
31845W        W96830   1.960  17.709  13.523
31846W        W96831  34.799  20.769  13.538
31847W        W96832  41.514  28.899   0.316
31848W        W96833  43.982  36.296   4.946
31849W        W96834   2.791  35.492  10.820
31850W        W96835  10.910  43.484   4.258
31851W        W96836  10.504  10.897  12.527
31852W        W96837  34.002  24.929   3.739
31853W        W96838  17.325  28.020   1.972
31854W        W96839  37.950  13.789   1.485
31855W        W96840  38.749  27.021   4.463
31856W        W96841  39.830  22.240   0.270
31857W        W96842  14.704  37.543   4.532
31858W        W96843  30.695  36.875  14.458
31859W        W96844  21.071  39.891   4.844
31860W        W96845  11.948  24.927   2.790
31861W        W96846  17.275  21.542   3.704
31862W        W96847  44.207  32.266   9.837
31863W        W96848  30.935  29.619   3.327
31864W        W96849  16.666  25.942  10.119
31865W        W96850  21.472  32.000  11.479
31866W        W96851  36.513  34.694  12.159
31867W        W96852  19.057  11.103   1.173
31868W        W96853  32.439   9.712  12.439
31869W        W96854   7.242  28.477   4.156
31870W        W96855  14.192   0.215  13.049
31871W        W96856  16.082   8.719  12.966
31872W        W96857  35.441  10.590   0.889
31873W        W96858  34.491  37.354  12.199
31874W        W96859   6.854  20.666   1.908
31875W        W96860  19.774   7.592  14.660
31876W        W96861   2.883  12.354  14.983
31877W        W96862  20.482  43.741  12.894
31878W        W96863  10.460  17.753   4.972
31879W        W96864  15.661  40.342  10.901
31880W        W96865  11.332   3.363  14.457
31881W        W96866  18.836  34.456  10.224
31882W        W96867  20.301  22.558   1.899
31883W        W96868   3.478   3.214  12.899
31884W        W96869  35.929  28.325  12.383
31885W        W96870  37.440  14.291  13.557
31886W        W96871   2.957   5.767   0.281
31887W        W96872  28.134  40.896  13.364
31888W        W96873  30.398  39.310  12.863
31889W        W96874  43.894   7.247  10.630
31890W        W96875  16.289  29.217  13.977
31891W        W96876  16.567  13.383   0.766
31892W        W96877   9.492  24.660   5.052
31893W        W96878   9.712  10.639   1.788
31894W        W96879   3.191  27.631  12.972
31895W        W96880   5.950  11.663  11.070
31896W        W96881   1.686  26.848  11.257
31897W        W96882  36.816  29.163   3.135
31898W        W96883  23.948  34.380  13.062
31899W        W96884   7.417  16.348  12.365
31900W        W96885  21.219  10.090   0.474
31901W        W96886  28.184  27.493   0.034
31902W        W96887   7.850  43.513  12.983
31903W        W96888  26.639  44.675   4.204
31904W        W96889  35.093  28.391   0.289
31905W        W96890  40.473  44.622   9.717
31906W        W96891  26.795  12.594  11.690
31907W        W96892  33.589  42.422  12.082
31908W        W96893  34.945  22.024   2.169
31909W        W96894  19.332   6.534  10.958
31910W        W96895  32.624   0.916   2.738
31911W        W96896  14.642  43.513   1.524
31912W        W96897  17.596  31.883   1.262
31913W        W96898   7.176  25.042   3.997
31914W        W96899  30.228   1.672   2.613
31915W        W96900  27.710  12.627   0.844
31916W        W96901  25.983  29.893   3.137
31917W        W96902   0.744   3.728   4.509
31918W        W96903  38.809   1.037   2.808
31919W        W96904  25.012  43.541   0.432
31920W        W96905  34.542   1.211   2.532
31921W        W96906  19.070  24.526  14.927
31922W        W96907  11.174  16.097   1.203
31923W        W96908  25.545  23.507   1.517
31924W        W96909  16.851  34.040   1.479
31925W        W96910  14.068  11.190  13.886
31926W        W96911  38.042   0.238   2.304
31927W        W96912  43.752  22.171   4.548
31928W        W96913  14.880   8.990   3.687
31929W        W96914   8.672  17.349  14.408
31930W        W96915  44.210   0.313   4.155
31931W        W96916  39.862  11.341   1.165
31932W        W96917  39.559  36.300  14.826
31933W        W96918  17.590  44.279  12.052
31934W        W96919  39.827   6.107   0.955
31935W        W96920  10.873   7.408   3.844
31936W        W96921  35.117  21.552  14.490
31937W        W96922   2.359  43.956  12.925
31938W        W96923  39.703   9.808  13.068
31939W        W96924  15.295  19.582  12.375
31940W        W96925  10.590  40.315  13.717
31941W        W96926  27.496  26.775   0.941
31942W        W96927   2.348  43.894  14.578
31943W        W96928  43.840  39.074   2.863
31944W        W96929   3.288   9.382   0.426
31945W        W96930   8.720  31.862  11.747
31946W        W96931  21.612  26.388   3.624
31947W        W96932  17.822  21.118   2.677
31948W        W96933  27.251   2.711  13.793
31949W        W96934   0.338  32.073   4.684
31950W        W96935  26.086  27.748  10.479
31951W        W96936   3.759  14.672   2.305
31952W        W96937  34.839  27.956  10.797
31953W        W96938  28.721  36.989  14.766
31954W        W96939  21.912   3.362   1.824
31955W        W96940  25.731  10.287   1.705
31956W        W96941   1.121  36.400  11.095
31957W        W96942  36.954  41.158   0.737
31958W        W96943  41.720  35.978   2.940
31959W        W96944   9.252  34.103   4.201
31960W        W96945  12.305  11.076  10.756
31961W        W96946   1.583   7.194  14.399
31962W        W96947  16.517  12.280   2.510
31963W        W96948  21.428   8.733   4.113
31964W        W96949  23.951  38.901  14.144
31965W        W96950  27.134   7.531   2.414
31966W        W96951  21.842  44.246   3.941
31967W        W96952  18.512  29.357   3.152
31968W        W96953  10.188  10.067   4.650
31969W        W96954  26.730  41.283   1.140
31970W        W96955   0.206  26.334   0.694
31971W        W96956   2.833  44.283  10.523
31972W        W96957   7.279   3.201  14.818
31973W        W96958   0.927  10.467  12.008
31974W        W96959  13.175  44.976   3.527
31975W        W96960  20.658  40.946   4.602
31976W        W96961  38.459  30.588   3.806
31977W        W96962  24.522  25.579   2.547
31978W        W96963  43.343  43.100   4.299
31979W        W96964  38.916   3.244   3.084
31980W        W96965  11.548   8.952   4.109
31981W        W96966  38.515  18.614   4.077
31982W        W96967  25.645   4.512   0.539
31983W        W96968  35.088  33.553   4.122
31984W        W96969  41.307  26.993   4.439
31985W        W96970  33.972  20.447  11.195
31986W        W96971  31.056  20.715   0.426
31987W        W96972  41.742  37.898  11.255
31988W        W96973  11.545  30.999  14.492
31989W        W96974  26.564  21.490   3.696
31990W        W96975  42.765  39.825  11.975
31991W        W96976  27.283  18.309   0.917
31992W        W96977  18.500  18.174  10.376
31993W        W96978  39.126  22.731   1.181
31994W        W96979  41.821  21.349   5.049
31995W        W96980  20.149   3.403   0.209
31996W        W96981  11.284  18.718   1.439
31997W        W96982  11.691  16.813   2.821
31998W        W96983  12.051  39.403  10.730
31999W        W96984  38.140  25.430   0.356
32000W        W96985  42.968   4.865   3.637
32001W        W96986   0.575   1.044   4.156
32002W        W96987   0.203  27.981  10.590
32003W        W96988  28.997  10.594  14.107
32004W        W96989  19.623  33.962  12.504
32005W        W96990  16.968  29.663   5.108
32006W        W96991  31.636  12.664  12.971
32007W        W96992   7.633   6.940  13.977
32008W        W96993  44.239  38.926   3.162
32009W        W96994  39.727  19.601   3.656
32010W        W96995  21.959  27.419   0.237
32011W        W96996  29.853  14.825  11.595
32012W        W96997   4.474  37.927   2.711
32013W        W96998   9.475   3.016  13.799
32014W        W96999   3.360  37.575  13.573
32015W        W97000  30.906  29.122   3.182
32016W        W97001  22.585  23.780  13.897
32017W        W97002  31.032   2.809  11.204
32018W        W97003   7.342  13.841  14.112
32019W        W97004   0.378   2.959  10.769
32020W        W97005  41.438  32.871   2.259
32021W        W97006   2.910   9.658  14.390
32022W        W97007  18.572   7.951  11.504
32023W        W97008  28.002   7.352   0.700
32024W        W97009  19.108  30.478   4.494
32025W        W97010  17.730  42.190  13.867
32026W        W97011   7.896  28.244   3.339
32027W        W97012  16.233   5.827   3.772
32028W        W97013  32.958  11.686  14.871
32029W        W97014  22.528  10.214  12.584
32030W        W97015  19.259   3.003   0.490
32031W        W97016  19.741  19.756   4.355
32032W        W97017   4.155  34.007  11.565
32033W        W97018  38.527  23.592  13.361
32034W        W97019  42.574  33.852  14.385
32035W        W97020  30.364  20.135   1.883
32036W        W97021  19.673  26.049  14.181
32037W        W97022  30.140  31.972   0.884
32038W        W97023  14.332  40.265  10.788
32039W        W97024  11.403   7.516  14.390
32040W        W97025  16.241  24.605  14.898
32041W        W97026  29.491  20.042  10.408
32042W        W97027   2.736  39.944  14.523
32043W        W97028  43.761  38.250   4.703
32044W        W97029  26.554  41.571  12.618
32045W        W97030  41.775  27.114   1.005
32046W        W97031  10.741  42.502   1.319
32047W        W97032  26.157   0.187   1.690
32048W        W97033  44.949  33.894   0.695
32049W        W97034  31.989   3.065  13.043
32050W        W97035  41.938   3.054   3.254
32051W        W97036  28.604   9.846  13.454
32052W        W97037  38.832   0.361   4.804
32053W        W97038   8.799   9.905   2.256
32054W        W97039   1.509  28.609  10.699
32055W        W97040  15.629  21.809   2.757
32056W        W97041  16.629  24.552   0.253
32057W        W97042  16.047  39.844   2.094
32058W        W97043   9.577  29.068   0.325
32059W        W97044  12.665  28.513   1.272
32060W        W97045  14.389  23.488   2.314
32061W        W97046  32.934  25.580   3.264
32062W        W97047   2.448  30.924   1.690
32063W        W97048  29.313  31.575   2.392
32064W        W97049  44.598  27.414  10.156
32065W        W97050  29.559  44.973  14.116
32066W        W97051  29.613  30.302  10.150
32067W        W97052  29.661   1.385  12.013
32068W        W97053  37.387  15.682  10.797
32069W        W97054  31.421  35.429   2.861
32070W        W97055  43.824  18.554   0.408
32071W        W97056  17.222  11.232   2.348
32072W        W97057  38.578  42.811   0.348
32073W        W97058   0.827   4.177   2.725
32074W        W97059  15.311   4.795   2.619
32075W        W97060  10.525   1.288   1.774
32076W        W97061  33.571  26.187   1.762
32077W        W97062   4.947  11.917  14.859
32078W        W97063  44.839  26.460   4.517
32079W        W97064  35.594  17.342   2.204
32080W        W97065   8.325  10.719   3.696
32081W        W97066  23.686  43.562   3.701
32082W        W97067   0.244  34.363  13.413
32083W        W97068  10.599  41.135  14.411
32084W        W97069  28.534  34.989   3.992
32085W        W97070  16.724   4.468  12.506
32086W        W97071   9.420  36.951  11.079
32087W        W97072  11.223  16.590  12.235
32088W        W97073  43.242  15.070   1.805
32089W        W97074  12.088  12.128   3.595
32090W        W97075  37.567  34.718   4.113
32091W        W97076  28.294  32.133  12.494
32092W        W97077   6.697  15.328   1.339
32093W        W97078  37.321  37.218   3.239
32094W        W97079  21.933  23.059   1.382
32095W        W97080   6.522  37.475  11.051
32096W        W97081  32.094  22.457  14.640
32097W        W97082  18.843  21.620  12.013
32098W        W97083  10.610   5.212  12.337
32099W        W97084   5.794  14.656   4.279
32100W        W97085  30.585  43.840   4.746
32101W        W97086  44.882  38.440  11.799
32102W        W97087   0.421  16.588  11.129
32103W        W97088  16.149  22.464  13.288
32104W        W97089  39.433   4.345  13.665
32105W        W97090  32.838  14.961  13.663
32106W        W97091  29.209  13.810   2.368
32107W        W97092  28.231  31.606  13.807
32108W        W97093   1.853   0.987   4.635
32109W        W97094  27.516  24.064   2.454
32110W        W97095  13.309  39.315   3.255
32111W        W97096  30.466  12.829  14.950
32112W        W97097  17.700  32.126  11.422
32113W        W97098   2.486  30.631  13.725
32114W        W97099  24.461  17.510  12.074
32115W        W97100  17.775  15.064   1.257
32116W        W97101   8.218  10.692  14.205
32117W        W97102  23.717  15.288  10.937
32118W        W97103  17.692   7.825   1.924
32119W        W97104   0.171  15.573   0.893
32120W        W97105   2.398  44.582   2.904
32121W        W97106  41.055   2.663   0.688
32122W        W97107   2.750  15.243   1.628
32123W        W97108  33.376  34.427  12.145
32124W        W97109   9.408  28.092  14.439
32125W        W97110  44.025  30.043  10.621
32126W        W97111  13.273  14.141   1.694
32127W        W97112  10.391  30.664  11.138
32128W        W97113   8.499   9.726  13.058
32129W        W97114  14.380   1.989   2.795
32130W        W97115  41.941  16.039  12.966
32131W        W97116  16.340  34.526   2.830
32132W        W97117  35.687   5.696  11.054
32133W        W97118  44.426   7.407  10.300
32134W        W97119  10.496   8.504  14.341
32135W        W97120  19.087  14.308   1.399
32136W        W97121  22.231   4.215  10.901
32137W        W97122   4.575  30.867   4.309
32138W        W97123  21.573  15.810  13.434
32139W        W97124  34.805  41.168   0.724
32140W        W97125  33.534  22.926   1.809
32141W        W97126   0.306  25.582   2.861
32142W        W97127  28.239   3.787   1.457
32143W        W97128   4.851   7.208  11.236
32144W        W97129  28.517  38.457   1.732
32145W        W97130  15.899  42.566   4.435
32146W        W97131  38.906  14.124   3.082
32147W        W97132  21.038  16.882   4.596
32148W        W97133   1.147  29.972   0.879
32149W        W97134  30.395  25.383   4.467
32150W        W97135  13.825  35.491   2.655
32151W        W97136  38.961  12.392   0.983
32152W        W97137  22.989  11.487   3.222
32153W        W97138  16.761  12.435  10.723
32154W        W97139   1.951  25.032   0.802
32155W        W97140  31.516  41.970  12.461
32156W        W97141  38.024  26.893   3.648
32157W        W97142  34.726   5.024   1.354
32158W        W97143   0.875  23.545  10.728
32159W        W97144  44.322  25.384   0.179
32160W        W97145  18.230  21.507   1.210
32161W        W97146  36.035  16.004  14.157
32162W        W97147   5.829  43.474  11.137
32163W        W97148  37.424   7.552   3.646
32164W        W97149  14.001   4.676  11.556
32165W        W97150   1.671  19.221   2.851
32166W        W97151  44.478  41.782   0.757
32167W        W97152  18.151  25.190  13.850
32168W        W97153  28.617  32.901  14.518
32169W        W97154  28.989  21.805  10.799
32170W        W97155  21.010  41.456  14.851
32171W        W97156  21.385  44.537   3.337
32172W        W97157   5.200  38.546  14.832
32173W        W97158   5.382  28.410  12.039
32174W        W97159  25.764  19.509  10.121
32175W        W97160  34.386   7.670  11.558
32176W        W97161  10.491  28.090  11.269
32177W        W97162  20.383  29.112  12.319
32178W        W97163  13.675   5.248  14.490
32179W        W97164  27.099  41.363  14.910
32180W        W97165  40.023  33.527   0.271
32181W        W97166  39.578  20.650  13.928
32182W        W97167  15.794  36.200  11.126
32183W        W97168   5.869  29.514  14.859
32184W        W97169  37.337  27.431  11.132
32185W        W97170   2.139   9.770  13.819
32186W        W97171  20.138  12.348  13.110
32187W        W97172  39.017  44.405  11.701
32188W        W97173   9.645  35.346  13.381
32189W        W97174  10.597  36.532   0.221
32190W        W97175   2.217  27.421  14.549
32191W        W97176   0.242  15.161   1.816
32192W        W97177   1.862  30.119   1.791
32193W        W97178   7.756  40.054   2.884
32194W        W97179  32.979  22.135  14.020
32195W        W97180  40.307  31.879   0.548
32196W        W97181  21.035  22.522  14.379
32197W        W97182   1.964   8.828  10.393
32198W        W97183  32.580   0.624  13.058
32199W        W97184  43.079  35.967   5.076
32200W        W97185  13.123  41.933  14.639
32201W        W97186   8.765   8.690  12.006
32202W        W97187  33.512  34.849   3.198
32203W        W97188  32.445  30.615  13.907
32204W        W97189   5.399  23.046   2.620
32205W        W97190  19.053  22.228   2.424
32206W        W97191  37.957   0.482   4.788
32207W        W97192  10.299  44.717  11.694
32208W        W97193  15.865  22.229  13.994
32209W        W97194  43.358  10.015  11.559
32210W        W97195  28.498   9.144   1.082
32211W        W97196  42.428  37.378   2.649
32212W        W97197  20.144   2.329  12.194
32213W        W97198   6.599  41.428   0.626
32214W        W97199  11.058  10.286   1.950
32215W        W97200   0.282  44.384  11.493
32216W        W97201  26.947   3.179  12.911
32217W        W97202  27.943  35.810   4.203
32218W        W97203   4.963  22.515  14.453
32219W        W97204   9.181  22.076  14.994
32220W        W97205  17.178   0.369   0.445
32221W        W97206  31.861  14.430  12.489
32222W        W97207   4.639  39.515   3.738
32223W        W97208  31.615  17.641   1.152
32224W        W97209  14.086  14.236   0.063
32225W        W97210  34.802  41.772  11.604
32226W        W97211  37.877   1.726  10.691
32227W        W97212   1.099   5.801  12.916
32228W        W97213   6.722  24.568   4.513
32229W        W97214  21.293  15.018   0.901
32230W        W97215  38.521  27.448  11.637
32231W        W97216  26.870  38.255  13.350
32232W        W97217   1.307  17.147  14.482
32233W        W97218  32.592   3.294   4.557
32234W        W97219   1.204   0.223   3.427
32235W        W97220  40.433  44.356  12.913
32236W        W97221   2.846  35.586   4.135
32237W        W97222  20.025  41.823  13.359
32238W        W97223  31.685  39.641  13.323
32239W        W97224  40.845  23.254  13.261
32240W        W97225  14.155   1.387  13.288
32241W        W97226   0.025  35.862   1.708
32242W        W97227  43.515   4.177  11.469
32243W        W97228  22.486  27.049  12.804
32244W        W97229   6.459   9.177   0.414
32245W        W97230  28.089  27.210   0.463
32246W        W97231  11.707  41.282   4.208
32247W        W97232  15.022   4.287   3.377
32248W        W97233  28.325  16.855   2.129
32249W        W97234  12.914  41.660   4.704
32250W        W97235  42.032  26.504  12.568
32251W        W97236  44.410  42.286   2.665
32252W        W97237   7.218   9.636  11.484
32253W        W97238  21.028   7.505  10.356
32254W        W97239  28.107  13.487  14.940
32255W        W97240   8.209   9.704  11.315
32256W        W97241  21.833  44.764  12.085
32257W        W97242  19.608   1.983  12.846
32258W        W97243   9.027  18.695   0.949
32259W        W97244  36.436  21.507  12.640
32260W        W97245   9.148  21.513  13.579
32261W        W97246  16.896   0.307  11.789
32262W        W97247  18.235   4.045   4.371
32263W        W97248  17.764   2.253  11.124
32264W        W97249  38.994  33.553  12.955
32265W        W97250  24.224  10.237   1.990
32266W        W97251  30.649  31.804  13.971
32267W        W97252   8.830   7.795   1.286
32268W        W97253  32.706  24.095   4.765
32269W        W97254  43.760  12.633  12.170
32270W        W97255  41.477  20.004   0.496
32271W        W97256  23.228  41.536   3.719
32272W        W97257  37.650  43.402  14.652
32273W        W97258   3.746  32.027  11.936
32274W        W97259   0.915  14.371   3.649
32275W        W97260   3.648  23.728  12.945
32276W        W97261  11.379  33.524   0.973
32277W        W97262   6.295  12.133  12.481
32278W        W97263   5.197  17.027  13.493
32279W        W97264   6.077  17.669  14.208
32280W        W97265  29.845  10.642  14.248
32281W        W97266  39.847  32.932  11.369
32282W        W97267  31.051  33.558   4.677
32283W        W97268  27.973  30.100   2.422
32284W        W97269  17.365   6.173  12.994
32285W        W97270  44.014  37.310  10.728
32286W        W97271   4.055  13.138   0.650
32287W        W97272   5.444   3.811  14.926
32288W        W97273  32.183  11.108   3.590
32289W        W97274  41.318  10.351  13.322
32290W        W97275  32.517  24.860  12.611
32291W        W97276   4.649   3.778  14.387
32292W        W97277  33.033  29.569   1.874
32293W        W97278   6.968  20.838  11.613
32294W        W97279  12.126  38.252  13.561
32295W        W97280  16.284  21.019   0.815
32296W        W97281  30.960  11.128  10.755
32297W        W97282   5.775  38.259   1.665
32298W        W97283   9.355  24.132   2.894
32299W        W97284  26.090   8.626   3.885
32300W        W97285  15.960  18.309  13.473
32301W        W97286  39.018  21.652   0.692
32302W        W97287  44.092  18.372  14.965
32303W        W97288  25.395  26.779   2.286
32304W        W97289  23.238  13.557   0.885
32305W        W97290  23.051   0.176  14.791
32306W        W97291  12.277  13.290  10.832
32307W        W97292  43.335   5.298   0.750
32308W        W97293  32.534  10.755  13.447
32309W        W97294  21.208   5.723   3.280
32310W        W97295  30.205  44.292  13.039
32311W        W97296  13.736  28.170  13.655
32312W        W97297  12.256  40.795   2.349
32313W        W97298  44.175  12.167   0.263
32314W        W97299  10.470   1.956  12.933
32315W        W97300   2.639  15.206  14.057
32316W        W97301  39.014  28.704   4.124
32317W        W97302   4.873   9.897  11.881
32318W        W97303  12.277  42.958  11.898
32319W        W97304   1.842  15.603  14.396
32320W        W97305  34.743  42.076   0.400
32321W        W97306  37.153  16.560   4.492
32322W        W97307  33.585  23.181   3.330
32323W        W97308  33.529  36.391  12.072
32324W        W97309  14.188  16.628  10.548
32325W        W97310  41.859  19.164  10.684
32326W        W97311  36.035  18.702   4.198
32327W        W97312  24.742  38.063  10.802
32328W        W97313  44.419  25.987  14.384
32329W        W97314  35.418  29.482  11.323
32330W        W97315   8.456  14.679   2.619
32331W        W97316   2.208   2.481   0.307
32332W        W97317  13.255  26.729  11.930
32333W        W97318  21.178  34.028  14.193
32334W        W97319  20.658  29.604  13.545
32335W        W97320  21.394  21.827  13.799
32336W        W97321  10.245   2.176   0.858
32337W        W97322   7.871  26.666  12.932
32338W        W97323   5.223  18.371  13.871
32339W        W97324   8.685   4.330   0.866
32340W        W97325  23.803  11.872  13.112
32341W        W97326  24.514  13.207   1.295
32342W        W97327  34.667  15.533  11.126
32343W        W97328  43.044   4.872   0.922
32344W        W97329  37.000  21.330  10.631
32345W        W97330  31.919  26.486   1.900
32346W        W97331   2.436  38.835   0.682
32347W        W97332  43.930  44.853  11.194
32348W        W97333   2.801  35.623   1.953
32349W        W97334   5.891  34.089   4.576
32350W        W97335  36.910   3.548  14.994
32351W        W97336  21.188  19.907   9.958
32352W        W97337  40.051  39.849  14.291
32353W        W97338  24.032  42.988   0.145
32354W        W97339  11.929  11.428  10.868
32355W        W97340  22.117  20.597   0.023
32356W        W97341  33.994   4.596   2.408
32357W        W97342   3.210   3.231   2.969
32358W        W97343   1.559   7.536  13.452
32359W        W97344  27.502  43.875  11.452
32360W        W97345  38.102  29.932  14.602
32361W        W97346   0.886  42.353  10.719
32362W        W97347  44.242  26.246  13.955
32363W        W97348  13.125  15.811  14.561
32364W        W97349  30.504   6.778   0.863
32365W        W97350  36.312  31.789   4.175
32366W        W97351  33.138  29.432  14.182
32367W        W97352  28.190  38.838  12.854
32368W        W97353  33.879  19.649  14.963
32369W        W97354   0.034  13.269   4.142
32370W        W97355  19.024  41.763  13.386
32371W        W97356  13.648  20.176  13.028
32372W        W97357   0.006  17.618  12.014
32373W        W97358  41.034  42.027   1.968
32374W        W97359  18.326   1.317   1.963
32375W        W97360   7.747  31.982  13.469
32376W        W97361  29.976   6.203   2.567
32377W        W97362   3.486  41.403  12.443
32378W        W97363   3.383  34.404  11.985
32379W        W97364  32.878   2.013   4.080
32380W        W97365  32.613  30.423  10.306
32381W        W97366  12.340  37.507  14.010
32382W        W97367  13.022  26.911   3.332
32383W        W97368  22.851   8.900  11.501
32384W        W97369  43.530  38.873   0.243
32385W        W97370  33.097  22.722   2.821
32386W        W97371  41.713  15.130  13.880
32387W        W97372  27.621  31.687   3.166
32388W        W97373  37.114  11.354  11.204
32389W        W97374   3.403  41.376  12.954
32390W        W97375   2.901  32.472  14.459
32391W        W97376  44.338   6.205  13.117
32392W        W97377  14.417  11.399  10.154
32393W        W97378  29.482   6.451   1.268
32394W        W97379  40.512  25.256   3.217
32395W        W97380  43.769  37.366  12.465
32396W        W97381  31.174  24.696   3.830
32397W        W97382  11.909  21.535   1.739
32398W        W97383  28.050  28.346  13.928
32399W        W97384  42.250  27.699   2.630
32400W        W97385  35.034   0.873  11.977
32401W        W97386  24.438  17.229   4.226
32402W        W97387  13.080  34.671  14.942
32403W        W97388   5.867  35.867  13.312
32404W        W97389  26.257  36.234  14.920
32405W        W97390   7.976  40.214  14.525
32406W        W97391  39.359   2.266  13.859
32407W        W97392   0.813  32.954  11.380
32408W        W97393   1.976  38.603  13.450
32409W        W97394  10.349  16.054  13.940
32410W        W97395  16.050  17.929   9.602
32411W        W97396  32.126  30.621   0.064
32412W        W97397   8.743  17.750  12.057
32413W        W97398   1.991  16.163  12.774
32414W        W97399  23.032  18.364   0.287
32415W        W97400  12.375   8.336   1.348
32416W        W97401  29.919  16.536   1.266
32417W        W97402  29.816  40.752   3.338
32418W        W97403   0.281  37.768  11.733
32419W        W97404  18.045  36.330  14.827
32420W        W97405  12.806  24.036  10.400
32421W        W97406  14.233  34.449   4.300
32422W        W97407  22.985  36.887  11.676
32423W        W97408   4.076  21.480   3.282
32424W        W97409   5.867  40.485   4.480
32425W        W97410  18.250  41.985  13.909
32426W        W97411  42.990  34.622  10.767
32427W        W97412  20.601   7.861   2.678
32428W        W97413   7.684  27.526   4.083
32429W        W97414  21.755   8.359  10.627
32430W        W97415   8.812  11.617  12.964
32431W        W97416   0.307   9.442  11.587
32432W        W97417  37.494  26.142  11.927
32433W        W97418   9.388  13.050  12.073
32434W        W97419   3.953  24.161  12.072
32435W        W97420  30.100  22.582   3.204
32436W        W97421  26.559  39.067   3.636
32437W        W97422  31.089  30.431   1.291
32438W        W97423   9.027  20.627   4.004
32439W        W97424  36.422   8.792   2.630
32440W        W97425  30.065  39.367   4.090
32441W        W97426  17.335  10.784   3.008
32442W        W97427   1.142  40.688  14.339
32443W        W97428  43.718   1.483   3.805
32444W        W97429  28.657  11.550   3.759
32445W        W97430  38.537  39.781   0.860
32446W        W97431   3.385  32.290  13.537
32447W        W97432  20.044  41.341  13.984
32448W        W97433  31.543  14.043   4.089
32449W        W97434  40.219   3.254   0.506
32450W        W97435  41.386  10.215   3.790
32451W        W97436  34.293   9.136   3.570
32452W        W97437   6.388   8.837  10.963
32453W        W97438  32.867  12.617  13.503
32454W        W97439  43.836  43.805   0.736
32455W        W97440   7.765   1.562   2.311
32456W        W97441  36.847  34.228  14.932
32457W        W97442  36.065  16.088   4.708
32458W        W97443   7.310   5.951  12.466
32459W        W97444  33.868  21.540  10.661
32460W        W97445  42.400  30.903   0.878
32461W        W97446  42.823  25.919  13.637
32462W        W97447  40.788   1.277   0.698
32463W        W97448  23.663  23.988  13.651
32464W        W97449  40.847  29.654   2.126
32465W        W97450  12.623  39.464   1.889
32466W        W97451   5.287   7.218  10.688
32467W        W97452  42.685   5.943  11.084
32468W        W97453  24.627  11.300  11.505
32469W        W97454  28.862   0.049   3.711
32470W        W97455  43.438  20.931   3.573
32471W        W97456  27.662  36.302  11.182
32472W        W97457   7.328  10.191  14.453
32473W        W97458  25.522  32.012  12.001
32474W        W97459  29.564   0.779  11.576
32475W        W97460  36.335  29.212   0.222
32476W        W97461   3.499  30.164   5.058
32477W        W97462  34.442  19.970   3.120
32478W        W97463   3.991  27.191  12.905
32479W        W97464   1.489  34.939  14.702
32480W        W97465  34.011   1.760   4.473
32481W        W97466  41.422  14.130   0.119
32482W        W97467  34.299  31.911   2.683
32483W        W97468   4.773  44.787  11.458
32484W        W97469   9.570   6.892   2.480
32485W        W97470  36.678  29.927   1.365
32486W        W97471  35.960  14.370  10.688
32487W        W97472  28.036   8.933   4.174
32488W        W97473  25.625   3.500  10.740
32489W        W97474   1.848  40.433   4.022
32490W        W97475  28.720  21.744  12.123
32491W        W97476  30.719  41.477  12.462
32492W        W97477  16.089   6.696  13.993
32493W        W97478  29.574  12.655  11.606
32494W        W97479  23.800  13.425   2.643
32495W        W97480   0.930   0.925   2.712
32496W        W97481  13.121  35.528   0.414
32497W        W97482  16.835  19.128  13.464
32498W        W97483   3.304  38.995  11.473
32499W        W97484  25.770   5.248   3.462
32500W        W97485   4.727  31.013  11.966
32501W        W97486   6.954  21.145   4.084
32502W        W97487  29.789  27.480  11.565
32503W        W97488  20.062  11.904   0.624
32504W        W97489   8.298  23.007   1.239
32505W        W97490  22.324  35.940   4.191
32506W        W97491   5.902  20.317  13.398
32507W        W97492  44.705  25.405  13.251
32508W        W97493  29.571   2.373  14.534
32509W        W97494  33.404  26.555  10.998
32510W        W97495  33.186  26.932   3.661
32511W        W97496  26.947  40.834  11.177
32512W        W97497  40.497  13.847  11.590
32513W        W97498  28.855  21.929   3.212
32514W        W97499  20.118  13.219   0.859
32515W        W97500  25.253  12.619   3.824
32516W        W97501  26.693  39.870   0.749
32517W        W97502  36.841  15.580   4.597
32518W        W97503  21.785  15.668  13.893
32519W        W97504  24.565  35.608   2.112
32520W        W97505  19.973  38.126   0.918
32521W        W97506  30.115  39.745   0.040
32522W        W97507   4.347   2.247   3.871
32523W        W97508  38.427   4.857  12.745
32524W        W97509  39.920  18.167  10.542
32525W        W97510  26.546  10.160   0.394
32526W        W97511   8.713  44.895   2.728
32527W        W97512  15.192  22.697   0.993
32528W        W97513  40.593  39.291   4.626
32529W        W97514  24.538  12.443   1.770
32530W        W97515   2.374  28.185   3.651
32531W        W97516  13.168   7.495  12.498
32532W        W97517  39.974  11.881   2.792
32533W        W97518  42.924  44.886  12.358
32534W        W97519  20.640  31.479   2.007
32535W        W97520  11.345  35.206  12.177
32536W        W97521  30.615  15.118  10.902
32537W        W97522  20.606  39.121   1.320
32538W        W97523  22.714  12.917  12.515
32539W        W97524  21.843   1.937   1.867
32540W        W97525  43.431  16.789  12.088
32541W        W97526  31.343   9.916  10.733
32542W        W97527  18.973  31.025   3.188
32543W        W97528  24.010   7.246  14.889
32544W        W97529  26.961  19.198   0.002
32545W        W97530  20.092   4.707   1.946
32546W        W97531  10.986  12.338   1.301
32547W        W97532  23.174  34.882  12.203
32548W        W97533  22.889   4.892  11.492
32549W        W97534  42.620  14.866  14.939
32550W        W97535  13.573   4.395  14.755
32551W        W97536  44.348   0.060   0.816
32552W        W97537  19.525  38.051   1.813
32553W        W97538   6.138  36.286   4.238
32554W        W97539  12.340  16.268  11.636
32555W        W97540   2.668  43.819   0.792
32556W        W97541   3.858  26.033   3.514
32557W        W97542  44.436  10.826  12.103
32558W        W97543  25.474  18.790  13.325
32559W        W97544   5.748   7.816  13.440
32560W        W97545  31.664  22.277   2.626
32561W        W97546  15.329  39.889  11.552
32562W        W97547  28.107  19.611  13.404
32563W        W97548  15.133  38.023  12.510
32564W        W97549  19.277   7.390  10.610
32565W        W97550  32.965  30.175   3.264
32566W        W97551  33.702  30.991   9.603
32567W        W97552  26.933  38.264   0.452
32568W        W97553  21.490  26.068   3.244
32569W        W97554  35.417  23.873  12.076
32570W        W97555  17.348  31.538   9.855
32571W        W97556  35.824  19.156  11.226
32572W        W97557  13.188  19.367  10.246
32573W        W97558  24.612   3.912   3.337
32574W        W97559  20.484  16.719  12.977
32575W        W97560  21.674  16.881  14.388
32576W        W97561   7.703  11.876   0.474
32577W        W97562  34.400  11.096  10.047
32578W        W97563  24.934  40.383  10.602
32579W        W97564  41.791  27.590  14.560
32580W        W97565  21.870  38.850  10.132
32581W        W97566  38.452  32.663  11.390
32582W        W97567  15.136  43.490   2.164
32583W        W97568   0.691  14.841  12.815
32584W        W97569   5.291  25.734  13.893
32585W        W97570  16.564  25.373  10.987
32586W        W97571  25.738  16.611   1.304
32587W        W97572   6.781  11.352  10.771
32588W        W97573   2.930  23.557  14.306
32589W        W97574  39.906  29.047   2.271
32590W        W97575   2.694  12.807  13.530
32591W        W97576  20.070  28.605  10.199
32592W        W97577  12.207  39.569   0.853
32593W        W97578   6.910  32.438   3.562
32594W        W97579   1.066  24.171   4.540
32595W        W97580  20.795  21.210   0.909
32596W        W97581  26.597  22.631  14.791
32597W        W97582  12.202  41.096   2.764
32598W        W97583  21.202   2.370  12.830
32599W        W97584   9.458   2.521   3.653
32600W        W97585  37.002  35.950   4.187
32601W        W97586  38.261  38.619   3.219
32602W        W97587  33.970  39.574   0.517
32603W        W97588  25.255   3.395   2.893
32604W        W97589   6.852  40.389  14.759
32605W        W97590  25.197  11.861   0.915
32606W        W97591  44.539  18.739   2.396
32607W        W97592  14.695  41.619   1.747
32608W        W97593  27.575  44.518   3.763
32609W        W97594   6.457  32.322  12.212
32610W        W97595  13.205  19.732  11.496
32611W        W97596  10.684  34.471  11.229
32612W        W97597  41.342  34.331  10.690
32613W        W97598  34.023  31.542   4.444
32614W        W97599  27.439   5.945   0.364
32615W        W97600  21.040  26.455   0.887
32616W        W97601   2.964   4.838   4.259
32617W        W97602   2.253  19.501  11.512
32618W        W97603   9.701  22.503   2.786
32619W        W97604  40.039  43.324  13.454
32620W        W97605  39.229  42.877  13.315
32621W        W97606  13.023   0.817  12.516
32622W        W97607  35.587  34.490   4.782
32623W        W97608   3.964  12.375  13.453
32624W        W97609  38.879   4.915  13.942
32625W        W97610  37.536  44.282  14.430
32626W        W97611  33.388  19.178  14.558
32627W        W97612  31.052  38.461  11.529
32628W        W97613   3.341  36.434   1.715
32629W        W97614   8.246  23.842  14.936
32630W        W97615   1.852  35.541  14.142
32631W        W97616  41.568  17.650  14.016
32632W        W97617   7.075  40.758   1.814
32633W        W97618  27.508  12.233  12.691
32634W        W97619  39.288   6.751   4.071
32635W        W97620  10.741   7.302   2.795
32636W        W97621   7.886   0.005   3.117
32637W        W97622  32.840  43.785  12.517
32638W        W97623  38.342  44.011  12.294
32639W        W97624  16.360  42.557   4.695
32640W        W97625   4.184  22.303  13.061
32641W        W97626  39.512  23.510   0.170
32642W        W97627   1.734  18.175  13.396
32643W        W97628  32.973   6.891   0.684
32644W        W97629  20.729  29.011   1.839
32645W        W97630   3.531  19.192   1.700
32646W        W97631  41.508   4.855   4.642
32647W        W97632  44.497   1.724   3.717
32648W        W97633  20.729  44.382  12.445
32649W        W97634   6.515   6.425   2.809
32650W        W97635   8.676  39.596   1.788
32651W        W97636   6.419  38.558   4.503
32652W        W97637  18.694  15.262  10.594
32653W        W97638  34.957   1.135  12.435
32654W        W97639  36.424  36.407   1.666
32655W        W97640   6.457  38.324  14.225
32656W        W97641  23.608  39.408  11.153
32657W        W97642  15.739  14.338   3.807
32658W        W97643   0.828  12.917  13.448
32659W        W97644  33.940  13.820   2.829
32660W        W97645  17.719  39.277  12.464
32661W        W97646   2.357  22.225   0.319
32662W        W97647  25.738  43.937   1.246
32663W        W97648   6.434  40.775   3.262
32664W        W97649  10.045  23.596   4.413
32665W        W97650  20.785   5.469  14.923
32666W        W97651  10.879   3.004   3.751
32667W        W97652  20.758  37.383  12.611
32668W        W97653   4.243  16.791   3.204
32669W        W97654   9.516  26.506  12.464
32670W        W97655   0.521  43.307   0.332
32671W        W97656  19.294  32.920   4.670
32672W        W97657   6.582  11.618   1.858
32673W        W97658  41.588  19.249   1.215
32674W        W97659  17.281  28.832   2.589
32675W        W97660  41.861  42.117  10.793
32676W        W97661  35.681  32.296   0.440
32677W        W97662  40.040  13.589   2.164
32678W        W97663   3.543  35.204  11.636
32679W        W97664  19.023  43.882   2.837
32680W        W97665   5.437  35.426  11.665
32681W        W97666   4.156   7.731  12.100
32682W        W97667  32.903  34.464   2.651
32683W        W97668  18.700  40.308   0.471
32684W        W97669  26.081  38.035   2.220
32685W        W97670  27.097  42.320  11.047
32686W        W97671   3.370  28.633   3.577
32687W        W97672   4.061  27.146   4.392
32688W        W97673  41.860  19.242   3.234
32689W        W97674  43.621  19.014  14.512
32690W        W97675  10.692  17.594  10.793
32691W        W97676  44.688  43.078   5.044
32692W        W97677  21.773  10.361   4.696
32693W        W97678  19.508   9.639   0.261
32694W        W97679  10.722   7.338   2.218
32695W        W97680   5.326  16.840  12.707
32696W        W97681   0.778  33.658  12.424
32697W        W97682  30.986  12.209  10.707
32698W        W97683  34.230  36.014  11.172
32699W        W97684  32.501  33.979   4.877
32700W        W97685  30.269  32.113  12.536
32701W        W97686  13.268  34.440   2.913
32702W        W97687  16.556  28.322   1.693
32703W        W97688  12.743  42.009  12.055
32704W        W97689  34.744  34.120  13.858
32705W        W97690  40.455   0.725  12.887
32706W        W97691  39.591  39.504   4.558
32707W        W97692   5.926  10.112  14.686
32708W        W97693   5.855   1.861   3.863
32709W        W97694  14.295  18.750   4.493
32710W        W97695  22.101  39.976   3.599
32711W        W97696   4.965  11.680   3.180
32712W        W97697  38.575  36.944  12.518
32713W        W97698   9.394  18.887   2.182
32714W        W97699  13.674  17.670   4.233
32715W        W97700  20.308  29.612  14.382
32716W        W97701  20.663  16.006   1.867
32717W        W97702  13.640  34.820  13.949
32718W        W97703   0.172  33.075   1.413
32719W        W97704  23.005  41.550  12.941
32720W        W97705  22.626  28.371  12.436
32721W        W97706   6.147  27.161  11.662
32722W        W97707  42.385  18.398   4.536
32723W        W97708  23.006  15.297   1.681
32724W        W97709  44.480  30.730  11.563
32725W        W97710   0.247   5.249  12.036
32726W        W97711  13.333  32.392  13.336
32727W        W97712  35.605   9.489  14.048
32728W        W97713   3.880  39.985   2.854
32729W        W97714  34.472  38.591   3.861
32730W        W97715  35.159   1.939  11.089
32731W        W97716  40.513   5.948   0.866
32732W        W97717   3.751  41.294   3.617
32733W        W97718   5.111  25.216   5.123
32734W        W97719  15.251  23.085  12.550
32735W        W97720  12.306  19.366   1.633
32736W        W97721  24.583  10.800  11.560
32737W        W97722  34.027  26.459  11.623
32738W        W97723   3.284   3.865   1.478
32739W        W97724  20.007  18.894  13.535
32740W        W97725  10.016   5.418   1.216
32741W        W97726   2.677  38.808  11.475
32742W        W97727  39.437  20.680  14.865
32743W        W97728  37.591  20.228  12.878
32744W        W97729  14.426  42.898  13.022
32745W        W97730  10.808  12.220   2.302
32746W        W97731  34.109  26.145   3.869
32747W        W97732   4.453   0.337  13.330
32748W        W97733  37.438  26.697  12.920
32749W        W97734  30.606   0.758  10.940
32750W        W97735  11.559  24.724   4.778
32751W        W97736  31.828   0.412  11.431
32752W        W97737   2.326  37.623  12.480
32753W        W97738  39.802  40.476   4.098
32754W        W97739  20.191  12.719   0.904
32755W        W97740  21.465  13.105   3.704
32756W        W97741   3.684  24.011  12.500
32757W        W97742  24.128  19.133   2.349
32758W        W97743   6.764  12.197   1.784
32759W        W97744  28.618   0.724   1.671
32760W        W97745   7.488  41.850   2.933
32761W        W97746  31.450  24.468   2.204
32762W        W97747  17.732  40.764   4.560
32763W        W97748  16.222   8.388  10.758
32764W        W97749   7.411  34.787   3.655
32765W        W97750  41.016  25.935  10.810
32766W        W97751  22.705   3.921   1.647
32767W        W97752   6.281  41.852  13.796
32768W        W97753  37.366  12.643  11.129
32769W        W97754  16.204   9.204   0.347
32770W        W97755  19.703   4.391  13.830
32771W        W97756  33.291  21.077   0.467
32772W        W97757  25.246  39.046   4.051
32773W        W97758  10.297  13.253  12.081
32774W        W97759  21.945  28.433   4.588
32775W        W97760   0.389   1.488  10.409
32776W        W97761  33.357   0.830  10.782
32777W        W97762  37.005   9.844  12.952
32778W        W97763   3.929  43.072  12.059
32779W        W97764  41.252  19.756   2.513
32780W        W97765   4.424  18.282   0.414
32781W        W97766  12.356  31.088  13.490
32782W        W97767  25.933  11.405  13.257
32783W        W97768  13.383  21.632  14.335
32784W        W97769  33.701  23.699  12.512
32785W        W97770  35.428  22.637  10.677
32786W        W97771   4.914  14.229  14.313
32787W        W97772  12.654  25.749  13.062
32788W        W97773  16.498  41.091  14.433
32789W        W97774  18.720  15.120  12.421
32790W        W97775  12.355  43.030  12.395
32791W        W97776  10.358   4.828  14.922
32792W        W97777  40.069  11.670   1.495
32793W        W97778  26.462  27.593  14.311
32794W        W97779  10.457  18.566  14.001
32795W        W97780  41.043  43.684  13.357
32796W        W97781   5.457  14.281  11.679
32797W        W97782   9.153  28.280   4.578
32798W        W97783  35.905  20.658   4.690
32799W        W97784  36.250  10.661  11.056
32800W        W97785  36.778  26.077   4.315
32801W        W97786   1.227  12.660  10.738
32802W        W97787  16.729   7.876  14.912
32803W        W97788  17.112  11.444   0.810
32804W        W97789  30.582  19.766  14.909
32805W        W97790  24.103   9.934  12.890
32806W        W97791  41.943  22.119  14.355
32807W        W97792   0.872  44.728  12.961
32808W        W97793  34.471  43.148  14.123
32809W        W97794  24.626  42.773   2.555
32810W        W97795  41.740  27.115   4.707
32811W        W97796   5.038  38.587   2.651
32812W        W97797   1.387  31.218   2.392
32813W        W97798  31.737  19.610   1.656
32814W        W97799   3.579  43.358   4.586
32815W        W97800  17.845  17.980   1.818
32816W        W97801  38.876   8.678  14.152
32817W        W97802  40.269  44.996   2.353
32818W        W97803  24.430  26.606   0.506
32819W        W97804  24.112  31.449  12.953
32820W        W97805  11.595   2.442   0.492
32821W        W97806  15.796  10.583  11.605
32822W        W97807  24.476  21.269  13.379
32823W        W97808  34.581   2.148  13.833
32824W        W97809   6.317  38.274   4.067
32825W        W97810  19.992  36.934   3.956
32826W        W97811  27.327  41.161  11.142
32827W        W97812  11.656   1.733   4.564
32828W        W97813  20.582  44.834  11.767
32829W        W97814  30.737  25.301  10.848
32830W        W97815  13.639   8.473   0.865
32831W        W97816  25.552  17.743   4.697
32832W        W97817   1.697   0.730   0.284
32833W        W97818  28.020  14.864  14.489
32834W        W97819   9.271  27.698  11.496
32835W        W97820  41.317  13.434   0.224
32836W        W97821  36.821  17.652  14.260
32837W        W97822  36.117  29.764   4.759
32838W        W97823  31.574  42.714  12.007
32839W        W97824  31.063  12.079   0.084
32840W        W97825  12.680  15.988   4.056
32841W        W97826  35.359  34.811   1.866
32842W        W97827  11.549   3.269   4.744
32843W        W97828   0.176  12.917  14.307
32844W        W97829  44.191  11.336  11.274
32845W        W97830   8.661  14.310   1.678
32846W        W97831  22.480  14.354  12.392
32847W        W97832  38.428  36.625  14.435
32848W        W97833  44.207  41.099   2.441
32849W        W97834  24.437  42.553  10.716
32850W        W97835  40.236  12.833   5.024
32851W        W97836  32.414  15.969  12.310
32852W        W97837   9.940  10.424   0.511
32853W        W97838  44.521   1.767  11.142
32854W        W97839  16.716  11.366  13.341
32855W        W97840  43.872   4.484  14.379
32856W        W97841  32.033   4.729   1.363
32857W        W97842   9.409  42.382   0.661
32858W        W97843  14.399  22.309  13.532
32859W        W97844   0.583   5.813  12.992
32860W        W97845   2.254  25.464  11.175
32861W        W97846  18.212   0.543  11.390
32862W        W97847  25.946  35.805   5.075
32863W        W97848   3.703  21.054   1.869
32864W        W97849  12.314  31.897   2.338
32865W        W97850   0.389  40.882   0.281
32866W        W97851  43.301  31.280  10.594
32867W        W97852  36.731  13.681   0.906
32868W        W97853   2.095  38.325   3.797
32869W        W97854   3.945   5.744   1.568
32870W        W97855  12.802  14.089   3.698
32871W        W97856   2.882  33.428  11.538
32872W        W97857  22.108  13.586  11.215
32873W        W97858   2.010  12.567   1.335
32874W        W97859  39.262  20.012   2.984
32875W        W97860  36.068  31.939  11.094
32876W        W97861  20.587  24.190  14.841
32877W        W97862  11.538  38.915   4.541
32878W        W97863   0.985  28.271  13.364
32879W        W97864  38.424  14.650  13.120
32880W        W97865  31.825  35.345  11.016
32881W        W97866  23.032  35.419   3.368
32882W        W97867  20.837  17.739  14.573
32883W        W97868  33.485  25.495  13.309
32884W        W97869  38.367  18.002   5.142
32885W        W97870  41.771  13.726   0.189
32886W        W97871   7.353   0.013  13.316
32887W        W97872  13.353  24.495   3.618
32888W        W97873  36.994  23.849  13.405
32889W        W97874  16.004  40.402  12.611
32890W        W97875  22.011  30.574   2.264
32891W        W97876  28.100  41.258   2.650
32892W        W97877  13.274  42.775  10.030
32893W        W97878  44.299  41.378  11.753
32894W        W97879  29.665   6.344  12.862
32895W        W97880  27.516  38.751   3.400
32896W        W97881  37.415  18.962  10.418
32897W        W97882   4.857  34.552   2.331
32898W        W97883   4.075  36.209   5.025
32899W        W97884  40.538  38.253  13.241
32900W        W97885   7.778  33.965  13.320
32901W        W97886   8.254  17.889  12.058
32902W        W97887  16.061  31.288  14.880
32903W        W97888  11.418   9.683   3.160
32904W        W97889   3.072   9.321  11.587
32905W        W97890  33.098  26.396   3.784
32906W        W97891  43.748   4.262  10.646
32907W        W97892  27.726  24.122   0.724
32908W        W97893  38.315  44.808  10.718
32909W        W97894  18.742  13.705  10.598
32910W        W97895  30.139  18.971  14.966
32911W        W97896  44.557  42.836   0.171
32912W        W97897  42.544  36.217  11.622
32913W        W97898  41.918  42.792  12.703
32914W        W97899  13.299  26.398   3.115
32915W        W97900  24.164  20.479  11.618
32916W        W97901  10.322  25.789  12.374
32917W        W97902  37.265  21.848  11.053
32918W        W97903  14.579  25.758   0.329
32919W        W97904  40.333  20.508  14.333
32920W        W97905   7.744  39.269  10.401
32921W        W97906  35.340  11.856   4.119
32922W        W97907   4.332  40.003  12.426
32923W        W97908  15.195   9.657   5.005
32924W        W97909  15.643  30.193   1.421
32925W        W97910  35.650  30.549   1.249
32926W        W97911  26.886  44.728   5.063
32927W        W97912  26.708  33.815  14.910
32928W        W97913  16.535   6.205  12.074
32929W        W97914  15.613   8.315   2.228
32930W        W97915  43.398  44.523   1.844
32931W        W97916   6.648  25.119   3.761
32932W        W97917   0.951  39.446   3.598
32933W        W97918  37.158  44.729   4.247
32934W        W97919  36.072  38.215   2.352
32935W        W97920  28.654  22.297  14.365
32936W        W97921  43.384  39.790  14.502
32937W        W97922  26.513   4.214  14.964
32938W        W97923  33.812  43.479  11.973
32939W        W97924  41.979  28.669   0.391
32940W        W97925  23.945  36.821   2.312
32941W        W97926  41.775  34.068  14.595
32942W        W97927  32.866   0.784  10.628
32943W        W97928   5.867  42.039   2.554
32944W        W97929  16.408   6.985  14.288
32945W        W97930   2.236  42.727  10.290
32946W        W97931   3.919  35.938  13.834
32947W        W97932  23.652  17.289   0.846
32948W        W97933  20.114  31.725   0.607
32949W        W97934  19.809  14.816  11.046
32950W        W97935  27.233  22.268  10.707
32951W        W97936   3.964  37.086  11.658
32952W        W97937  12.250   8.186   3.991
32953W        W97938  11.728   7.968  11.328
32954W        W97939  31.830  43.930   4.160
32955W        W97940  30.054  27.765   4.167
32956W        W97941  26.672  40.932  10.761
32957W        W97942   5.671  11.605  14.353
32958W        W97943  21.549  23.025   4.390
32959W        W97944   9.817  42.910   1.529
32960W        W97945  28.296  33.079  13.585
32961W        W97946  30.425   4.966   0.352
32962W        W97947  20.661  26.693  14.702
32963W        W97948   9.208  23.700   3.682
32964W        W97949  18.686  28.107   2.430
32965W        W97950   5.599  16.602  13.098
32966W        W97951   2.784   9.996   3.244
32967W        W97952  35.531  15.772   0.939
32968W        W97953   8.994  29.920   4.197
32969W        W97954  41.751  28.928  14.862
32970W        W97955  44.543   8.703  10.006
32971W        W97956  31.612  44.276  12.047
32972W        W97957  14.845  42.256   2.370
32973W        W97958  36.122  22.169   3.102
32974W        W97959  24.514  25.708  11.710
32975W        W97960  18.556   9.650   0.379
32976W        W97961  36.617   7.227   4.039
32977W        W97962  31.703  18.142  13.816
32978W        W97963  22.398  20.380   3.692
32979W        W97964  12.726  17.501   4.712
32980W        W97965   7.250   1.905  12.422
32981W        W97966  27.309  42.301  14.421
32982W        W97967  28.506   3.421  12.057
32983W        W97968   3.366  37.295   3.288
32984W        W97969  38.734  28.397  13.897
32985W        W97970   5.277  14.101   4.596
32986W        W97971  25.434  43.466  10.460
32987W        W97972  32.905  16.603   1.251
32988W        W97973  15.452  33.193  13.887
32989W        W97974   5.761  15.753   3.502
32990W        W97975  37.490  41.344   2.179
32991W        W97976  35.369  41.555   4.581
32992W        W97977  24.539   6.382   4.118
32993W        W97978   5.682  36.821  13.836
32994W        W97979  29.409  37.468  12.520
32995W        W97980  21.998   4.362  11.635
32996W        W97981  21.193  20.496   1.136
32997W        W97982   2.331  31.084   2.554
32998W        W97983  43.372  36.055  14.921
32999W        W97984   8.938  17.660   1.796
33000W        W97985  11.700   3.237  11.338
33001W        W97986  13.783  13.604  14.029
33002W        W97987  18.329  44.598  12.507
33003W        W97988  44.572  37.173   0.546
33004W        W97989  36.691   2.468   3.672
33005W        W97990   5.303   9.371  14.506
33006W        W97991  38.306  38.379   2.736
33007W        W97992  27.195   3.717  12.399
33008W        W97993  29.186   1.238   2.411
33009W        W97994  13.437  11.964  11.612
33010W        W97995   9.089  34.346  12.258
33011W        W97996  38.815  21.765  12.056
33012W        W97997  32.393   9.764   0.316
33013W        W97998   2.064   7.656   4.162
33014W        W97999  28.370   1.287  14.860
33015W        W98000  41.241  35.281  11.118
33016W        W98001  11.645   7.358   2.559
33017W        W98002  33.275   9.387  14.319
33018W        W98003  44.240  42.727   3.419
33019W        W98004  38.606  16.222  12.010
33020W        W98005  15.257  32.361   1.426
33021W        W98006   3.361   3.991  13.305
33022W        W98007  43.769  32.665   0.044
33023W        W98008   7.413  32.135   0.475
33024W        W98009  33.134   7.110   2.241
33025W        W98010   0.829   9.888   4.534
33026W        W98011  16.676  43.953   3.764
33027W        W98012   7.827  34.131  10.891
33028W        W98013  30.217  17.875   2.353
33029W        W98014  20.832   5.215  12.539
33030W        W98015  32.041  34.748   1.658
33031W        W98016  41.913  21.015   1.880
33032W        W98017  26.753  12.651  13.448
33033W        W98018  37.583  44.196  12.252
33034W        W98019   0.450   4.195   4.620
33035W        W98020  29.666   0.922   0.254
33036W        W98021  29.260   2.446   5.344
33037W        W98022  13.995   4.462  12.339
33038W        W98023  34.446  29.701  13.900
33039W        W98024   9.958  37.312  14.043
33040W        W98025  30.153   2.475   2.205
33041W        W98026  42.308  18.721  12.501
33042W        W98027   0.793  31.821  12.456
33043W        W98028  11.779  25.447  12.955
33044W        W98029  17.974  33.937   2.268
33045W        W98030  27.543  15.413   2.778
33046W        W98031   5.887  44.051   2.264
33047W        W98032  36.071  32.483   2.898
33048W        W98033  14.216  41.043   1.774
33049W        W98034  33.647   9.961  11.900
33050W        W98035   5.539  36.994  13.344
33051W        W98036  20.082  42.005   2.648
33052W        W98037   4.534  35.197   3.040
33053W        W98038  26.153  35.459   4.244
33054W        W98039  34.166   7.278   2.208
33055W        W98040  23.267  24.743  14.297
33056W        W98041   2.875  13.700  14.075
33057W        W98042   7.441  37.889   1.299
33058W        W98043  39.887   0.456  11.150
33059W        W98044  23.241  29.254   1.967
33060W        W98045  33.887  39.264  13.436
33061W        W98046   0.700  27.942  10.693
33062W        W98047  39.940  38.811   1.451
33063W        W98048  33.616  14.502   1.808
33064W        W98049   4.114  38.258   2.861
33065W        W98050  32.828  31.538   1.712
33066W        W98051   4.122  37.567  11.563
33067W        W98052  35.159  15.707   1.915
33068W        W98053  44.001   5.648   3.276
33069W        W98054  23.670  38.800   0.466
33070W        W98055   0.408  34.785   4.823
33071W        W98056  13.628  18.647   2.811
33072W        W98057  40.910  29.947  11.197
33073W        W98058  32.496  39.900   2.012
33074W        W98059  36.428  28.402   0.259
33075W        W98060  26.100   3.732  12.376
33076W        W98061   6.814   8.357  13.067
33077W        W98062   0.760  26.512   4.086
33078W        W98063  15.294  11.756   2.848
33079W        W98064  28.177  16.600   2.586
33080W        W98065  39.739  37.537   2.121
33081W        W98066   3.820   1.482  14.103
33082W        W98067  13.977  13.459  11.158
33083W        W98068   8.658  44.345   0.976
33084W        W98069  28.961  38.898   4.596
33085W        W98070  13.765  30.131  12.085
33086W        W98071  13.617  29.534  14.844
33087W        W98072  34.566  36.466   1.779
33088W        W98073   7.388  19.840  13.105
33089W        W98074  30.194  43.399   0.457
33090W        W98075   4.885   4.447   1.248
33091W        W98076  23.685  11.759   0.882
33092W        W98077   8.744  26.201  14.660
33093W        W98078  39.056  41.405  12.263
33094W        W98079  27.996   6.445  11.201
33095W        W98080  41.136  31.505  12.879
33096W        W98081  44.827  23.884   3.284
33097W        W98082  20.535  18.091  14.321
33098W        W98083  25.620  33.674   4.612
33099W        W98084  26.537  28.859   2.367
33100W        W98085  30.454  42.787   3.756
33101W        W98086  39.816  10.828   1.235
33102W        W98087   3.877  12.170   1.287
33103W        W98088  42.456  35.602   1.188
33104W        W98089  41.701  34.428  13.850
33105W        W98090  34.445  28.078  11.565
33106W        W98091  10.868  13.883  13.449
33107W        W98092  40.643  14.864   0.220
33108W        W98093  43.465  32.874  10.845
33109W        W98094  24.131   0.351  11.324
33110W        W98095  42.952  23.406   4.119
33111W        W98096  28.234  24.229   0.698
33112W        W98097  14.617  14.037   1.158
33113W        W98098  33.146  43.694  13.337
33114W        W98099  22.036   3.927   3.691
33115W        W98100   4.935  31.898  11.556
33116W        W98101  25.074   3.216   4.746
33117W        W98102  28.210  21.587   2.282
33118W        W98103  11.742  28.462  11.198
33119W        W98104  10.177  18.527  11.633
33120W        W98105  44.933   6.967   3.724
33121W        W98106  25.072  12.146   0.143
33122W        W98107  20.017  26.278   4.112
33123W        W98108  30.265   1.322   4.629
33124W        W98109  28.687   9.160   4.539
33125W        W98110  22.920   0.559   4.926
33126W        W98111   3.031  38.803   5.218
33127W        W98112  38.008  18.704  11.416
33128W        W98113  44.847  37.874  12.975
33129W        W98114  41.906  27.968  14.247
33130W        W98115  35.369   0.318  10.685
33131W        W98116  33.659  38.395   3.653
33132W        W98117  22.784  35.767  14.761
33133W        W98118  44.279   4.908   3.586
33134W        W98119  28.789  34.473   2.728
33135W        W98120  25.480  37.003   1.592
33136W        W98121  26.496  32.954  13.119
33137W        W98122   9.323   2.976  11.903
33138W        W98123   0.953  20.150   3.369
33139W        W98124  34.324   6.462  11.428
33140W        W98125  28.580  28.503  10.701
33141W        W98126  26.041   3.812   1.494
33142W        W98127  27.603   4.787  13.846
33143W        W98128  36.100   0.809   3.717
33144W        W98129  18.477  21.537  14.844
33145W        W98130  11.208  24.727   0.253
33146W        W98131  11.833  11.585  13.998
33147W        W98132  44.423   9.762   3.637
33148W        W98133  43.299  22.628  13.329
33149W        W98134  21.079  44.101   3.285
33150W        W98135  11.648  35.986   2.312
33151W        W98136  30.111  37.962   0.731
33152W        W98137  26.271  43.918   4.134
33153W        W98138  34.474  27.102  12.964
33154W        W98139  39.779  34.545  14.334
33155W        W98140  35.916  44.291  12.479
33156W        W98141  36.804  23.003  13.844
33157W        W98142  41.069  14.715  10.651
33158W        W98143  16.491  20.524  13.872
33159W        W98144  33.473  24.991  13.625
33160W        W98145  15.824  43.027  14.514
33161W        W98146   3.899  41.451  14.802
33162W        W98147  40.490   4.751  14.391
33163W        W98148  35.835  44.511  12.955
33164W        W98149  27.454   5.826  14.419
33165W        W98150  37.365  13.797   9.805
33166W        W98151  40.960  17.170   2.671
33167W        W98152  43.437  22.658   4.614
33168W        W98153  28.608  14.027  11.146
33169W        W98154  15.606  42.953  14.028
33170W        W98155  20.546  29.946  12.020
33171W        W98156   5.233   9.824  14.830
33172W        W98157  11.622  38.058   1.387
33173W        W98158   3.416  25.423  13.422
33174W        W98159  12.770  28.067   2.065
33175W        W98160  34.917  34.060  12.484
33176W        W98161  30.228  41.695  14.946
33177W        W98162  11.162   5.560  10.518
33178W        W98163  25.968  38.084  13.602
33179W        W98164   5.895  36.448   3.807
33180W        W98165  16.610  33.113  11.419
33181W        W98166  39.936  20.796   2.307
33182W        W98167  31.041  22.712   4.508
33183W        W98168  24.662  22.415  14.812
33184W        W98169  15.845  39.062   4.010
33185W        W98170  11.960  12.265  11.668
33186W        W98171  22.538  29.640   1.389
33187W        W98172   5.981  39.152  11.494
33188W        W98173  15.039  19.595   4.059
33189W        W98174  27.452  43.949  11.954
33190W        W98175  44.942  32.859   4.749
33191W        W98176  33.488  24.436   0.715
33192W        W98177  13.194  21.472  12.132
33193W        W98178  28.862  43.026   1.234
33194W        W98179   4.453  10.695  12.974
33195W        W98180  18.938  25.193   1.852
33196W        W98181   5.840   6.648   1.327
33197W        W98182  42.680  14.694   5.152
33198W        W98183  10.001   3.289  12.575
33199W        W98184  37.780  29.995   0.834
33200W        W98185  42.123  37.316  14.625
33201W        W98186  24.120  40.297  14.318
33202W        W98187  42.013   1.033  13.683
33203W        W98188  26.677  20.473  12.592
33204W        W98189  41.177  18.603  13.298
33205W        W98190  40.351  24.504  14.199
33206W        W98191   7.382  43.169  13.728
33207W        W98192   4.299   9.362   3.314
33208W        W98193  24.809   9.488   1.370
33209W        W98194   3.291  29.188   3.589
33210W        W98195   4.804  16.747  11.615
33211W        W98196   3.478  18.447  11.123
33212W        W98197  38.401  43.994   1.771
33213W        W98198   4.994  13.806  14.030
33214W        W98199  35.002  15.331   0.063
33215W        W98200   0.741   0.186  13.855
33216W        W98201  23.554  20.650   1.824
33217W        W98202  34.079  41.394   3.397
33218W        W98203  15.646   7.470   2.329
33219W        W98204  36.006  39.853  13.011
33220W        W98205  44.524  33.569   3.138
33221W        W98206  21.312   7.382  13.471
33222W        W98207   1.714  43.742  10.740
33223W        W98208   9.181   5.927  13.376
33224W        W98209  13.619  14.747  13.967
33225W        W98210  38.682  19.115   0.603
33226W        W98211  17.122  34.425  14.782
33227W        W98212  25.693  19.000   3.628
33228W        W98213   9.131  44.848  13.827
33229W        W98214   4.413   1.428  12.957
33230W        W98215  12.412  17.284   1.173
33231W        W98216  20.548  42.161  12.439
33232W        W98217  36.926  25.931   0.816
33233W        W98218  13.305  37.117   0.276
33234W        W98219  33.962  21.450   3.386
33235W        W98220  23.642   1.494  11.482
33236W        W98221  29.642   0.997   1.505
33237W        W98222  29.831   5.016  12.033
33238W        W98223   3.213  32.128   1.679
33239W        W98224   0.381  36.594   0.461
33240W        W98225  12.817  15.712  13.319
33241W        W98226  32.728  37.488  10.827
33242W        W98227  16.176  18.592   1.239
33243W        W98228  23.774  30.088   1.769
33244W        W98229   1.391  26.780   4.755
33245W        W98230  31.068  10.730  13.619
33246W        W98231  11.578  10.785   0.481
33247W        W98232   6.358  41.479   1.069
33248W        W98233   7.218  12.452  14.988
33249W        W98234  33.181  18.533   3.727
33250W        W98235   6.422  13.198   3.308
33251W        W98236  11.451   0.243  14.261
33252W        W98237  42.829  18.082  12.151
33253W        W98238  41.899  38.903   4.580
33254W        W98239  44.248  39.811   4.082
33255W        W98240  31.602  39.320  14.677
33256W        W98241  17.055   0.490  13.020
33257W        W98242  24.499   6.675  10.972
33258W        W98243  19.682  27.077   2.233
33259W        W98244   2.501  15.814   3.777
33260W        W98245   3.766  21.547   2.414
33261W        W98246  25.276  20.479   1.423
33262W        W98247   3.207  40.477   1.388
33263W        W98248  41.089  41.869   1.427
33264W        W98249  15.118  16.479  12.021
33265W        W98250  25.059  19.104   4.990
33266W        W98251  18.060  37.154   0.329
33267W        W98252  34.328  34.540   0.953
33268W        W98253   0.217   2.296  12.500
33269W        W98254  44.631   1.087   0.749
33270W        W98255  21.092  21.705   9.949
33271W        W98256  27.157  34.242   5.078
33272W        W98257  32.174  23.661  10.238
33273W        W98258   1.034  29.567  14.794
33274W        W98259  34.356   9.266   1.789
33275W        W98260  36.090   6.157  11.193
33276W        W98261  24.928   6.277   4.493
33277W        W98262  15.818  24.169   4.634
33278W        W98263  44.043   6.211   5.281
33279W        W98264  14.199  40.858  14.571
33280W        W98265  11.936   7.302   0.749
33281W        W98266  20.004   1.899  10.294
33282W        W98267  30.432  27.232  13.563
33283W        W98268  12.377  33.612  13.364
33284W        W98269  29.717   7.532  10.572
33285W        W98270  29.958  18.691  11.899
33286W        W98271  30.662   9.554  12.198
33287W        W98272   9.856  11.523  11.999
33288W        W98273   2.967  13.150   3.290
33289W        W98274  32.510  28.138   4.075
33290W        W98275  40.278  31.406   3.619
33291W        W98276  18.721  33.440  12.667
33292W        W98277  35.797  39.755   3.626
33293W        W98278  32.467  15.142  13.993
33294W        W98279  26.423  36.499   2.362
33295W        W98280  35.395  12.026   2.852
33296W        W98281  38.929  15.169  12.789
33297W        W98282  36.600  16.689   2.674
33298W        W98283  19.224  44.754  14.898
33299W        W98284  42.854  41.006  14.328
33300W        W98285   3.448  29.861  11.625
33301W        W98286  15.249  40.242  11.919
33302W        W98287  39.014  17.128  13.358
33303W        W98288  20.882  10.295  10.933
33304W        W98289   8.247  15.845   0.905
33305W        W98290  43.489  25.229   4.140
33306W        W98291  32.464  19.264   4.983
33307W        W98292  32.058  17.770   4.420
33308W        W98293  33.899  23.217  14.779
33309W        W98294  23.209   9.692   0.879
33310W        W98295   7.410   2.846  14.264
33311W        W98296   2.039  13.976  11.578
33312W        W98297  10.781   0.821   1.666
33313W        W98298   7.521  38.841   4.292
33314W        W98299  13.933  22.575   1.661
33315W        W98300   5.683   2.175   1.651
33316W        W98301  12.167  10.542  11.967
33317W        W98302  31.956   6.715   0.503
33318W        W98303  10.612  25.380  13.492
33319W        W98304  30.915  35.483   0.073
33320W        W98305   9.360  35.991  11.993
33321W        W98306  18.984  28.632   3.686
33322W        W98307   9.765  30.090   2.651
33323W        W98308  38.707   2.622  11.120
33324W        W98309  18.930   0.104   3.918
33325W        W98310  36.986  18.804   4.210
33326W        W98311   7.894  44.239  12.091
33327W        W98312  27.664  15.254   2.303
33328W        W98313  22.972   0.978  13.585
33329W        W98314   5.627   9.284  13.859
33330W        W98315   0.798  24.446   3.160
33331W        W98316   2.792  42.515  12.954
33332W        W98317  26.694  11.781  13.099
33333W        W98318  16.690  11.276   4.259
33334W        W98319  22.000  22.639   3.682
33335W        W98320   6.683  33.020  13.840
33336W        W98321  41.824   8.916  12.733
33337W        W98322   2.838  28.140  14.957
33338W        W98323  39.409   0.829   0.431
33339W        W98324   4.414  37.916  11.840
33340W        W98325  35.900  18.176  12.909
33341W        W98326   5.158   6.815  11.935
33342W        W98327  30.442  26.605   4.535
33343W        W98328  41.539  38.048  14.980
33344W        W98329  14.049  31.100   4.370
33345W        W98330   5.504  25.941   2.376
33346W        W98331  41.286  27.882   3.279
33347W        W98332  16.588   8.546   0.345
33348W        W98333  38.400  16.903  10.933
33349W        W98334   3.191  33.735  13.480
33350W        W98335   5.281  39.083  10.204
33351W        W98336  31.679   0.217   1.269
33352W        W98337  15.293   0.999   4.726
33353W        W98338  26.197  39.182  11.155
33354W        W98339  36.029  27.568  12.126
33355W        W98340  20.599  33.473  11.674
33356W        W98341  25.592  31.544  11.770
33357W        W98342  33.107  19.797  12.010
33358W        W98343  29.099   5.002   3.077
33359W        W98344  14.314   2.506   2.806
33360W        W98345  12.568  27.220   3.065
33361W        W98346  33.474   2.973   3.090
33362W        W98347  22.613   0.299  12.412
33363W        W98348  35.442  12.700  13.130
33364W        W98349  34.810   9.762  13.978
33365W        W98350   4.729   5.217   5.516
33366W        W98351  35.845  18.280  14.953
33367W        W98352  40.533  14.493  14.424
33368W        W98353  43.581  16.938  14.401
33369W        W98354  41.006  32.315  13.450
33370W        W98355  31.157  23.935   3.268
33371W        W98356  28.663   5.697  11.130
33372W        W98357  20.512  40.926   2.571
33373W        W98358   3.863  18.644   2.215
33374W        W98359   1.034  30.963   4.500
33375W        W98360  11.393  33.918   1.682
33376W        W98361  31.036   4.366   2.344
33377W        W98362  25.172  35.549  13.492
33378W        W98363  33.925   8.738  12.195
33379W        W98364  36.246  20.620  13.423
33380W        W98365   0.835  23.209   1.346
33381W        W98366  44.804  21.180   4.776
33382W        W98367  22.620  32.604  14.806
33383W        W98368  42.782   6.937  13.544
33384W        W98369  21.804  25.156  14.894
33385W        W98370   1.861  26.504   3.024
33386W        W98371  38.485  39.495  10.717
33387W        W98372   0.221   2.453   2.195
33388W        W98373  15.767  38.953   4.497
33389W        W98374  18.844  42.277   4.313
33390W        W98375  40.369  29.734  14.913
33391W        W98376  36.511  20.946  11.530
33392W        W98377  36.110  35.015   0.729
33393W        W98378  41.516  35.710  14.653
33394W        W98379   4.485  44.995  12.863
33395W        W98380  10.148  22.132  12.596
33396W        W98381  10.718  18.178   0.818
33397W        W98382  34.959  43.221  13.974
33398W        W98383   7.622  38.622   1.873
33399W        W98384  35.409  26.491   3.676
33400W        W98385   3.737   1.436   2.680
33401W        W98386  40.735  23.008   1.344
33402W        W98387  11.786  41.767  13.468
33403W        W98388   2.224  32.713  12.524
33404W        W98389  25.045  10.297   2.386
33405W        W98390   0.514  24.772   4.167
33406W        W98391  19.281  14.108   3.651
33407W        W98392  25.074  33.915   1.529
33408W        W98393  36.886  13.857  14.042
33409W        W98394   8.722  25.716  14.066
33410W        W98395  26.737   2.951   4.904
33411W        W98396  27.451  24.665  12.747
33412W        W98397  19.361  30.513   1.436
33413W        W98398  40.560  41.346   2.808
33414W        W98399  34.445  23.471  12.101
33415W        W98400  28.351  22.114  14.915
33416W        W98401  35.449  13.530   1.861
33417W        W98402  36.321  39.120   0.309
33418W        W98403  38.826  12.190   2.907
33419W        W98404   6.709  32.637  13.484
33420W        W98405  19.645   6.290  13.097
33421W        W98406  29.043   9.486   3.292
33422W        W98407  19.858   8.735   1.682
33423W        W98408  42.078  19.066   1.266
33424W        W98409  24.208  36.826   3.486
33425W        W98410   9.370  24.680   1.663
33426W        W98411   8.847  16.713  11.156
33427W        W98412   0.333  22.987   2.116
33428W        W98413  11.189  27.074  13.554
33429W        W98414  41.980  18.010  10.155
33430W        W98415  41.131  40.692  12.032
33431W        W98416  40.842  15.124   2.133
33432W        W98417  29.281  30.085   4.551
33433W        W98418  33.827  30.937   0.166
33434W        W98419   5.047  15.309   1.011
33435W        W98420  44.430  42.679  14.321
33436W        W98421  29.955  43.357  13.746
33437W        W98422  32.345  39.096   0.745
33438W        W98423  17.794  21.983  12.135
33439W        W98424   4.657   3.393  13.538
33440W        W98425   8.680  28.402   2.747
33441W        W98426   3.848  20.993  13.544
33442W        W98427   0.072  13.642   1.887
33443W        W98428  19.130  36.413   1.391
33444W        W98429  12.065   0.423  11.702
33445W        W98430  36.509  23.856   4.099
33446W        W98431   6.410   3.954   4.505
33447W        W98432  41.237  21.957   4.713
33448W        W98433  10.089  13.843   1.758
33449W        W98434  34.425  43.245  14.636
33450W        W98435  18.606  21.723  12.464
33451W        W98436   2.716   4.344   3.162
33452W        W98437  22.548  36.141  14.472
33453W        W98438  34.415  26.945   1.283
33454W        W98439   4.232  19.090  10.427
33455W        W98440  18.949  44.026  12.516
33456W        W98441  16.908  31.383  10.615
33457W        W98442  26.003  32.120   2.360
33458W        W98443  28.195  38.819   2.839
33459W        W98444   3.918  22.087  10.627
33460W        W98445   6.244  41.236   0.291
33461W        W98446  44.565  28.526   4.284
33462W        W98447  31.545  16.102  12.712
33463W        W98448   9.329   5.084   5.096
33464W        W98449  31.666  31.203   2.752
33465W        W98450  11.429  18.743  10.810
33466W        W98451  35.830  17.773   3.165
33467W        W98452  37.361  27.631   4.584
33468W        W98453   7.178  12.335  12.543
33469W        W98454  24.764   8.698  14.816
33470W        W98455   9.922  26.203  10.795
33471W        W98456   3.156  41.998  11.263
33472W        W98457  41.041  22.530  12.097
33473W        W98458  31.457  28.619  14.335
33474W        W98459  26.194   1.898   2.891
33475W        W98460  42.312  17.369   1.899
33476W        W98461  16.840  12.142  12.984
33477W        W98462  36.657  25.991   0.381
33478W        W98463  26.623   7.438  14.953
33479W        W98464  27.590  33.365  13.983
33480W        W98465  40.020  12.714   0.123
33481W        W98466  25.759  40.866   0.376
33482W        W98467   0.662  11.214   4.700
33483W        W98468  27.168  23.858  11.296
33484W        W98469  41.282  14.547   4.700
33485W        W98470   1.324  26.210   2.318
33486W        W98471  15.818  17.236  12.669
33487W        W98472  27.220  20.066  11.792
33488W        W98473   0.823  34.865  11.973
33489W        W98474  18.253  10.596   3.717
33490W        W98475   5.288  28.516  10.673
33491W        W98476  37.336  32.474  12.940
33492W        W98477  37.090  22.811  13.423
33493W        W98478  13.150  41.461  14.884
33494W        W98479  36.743  23.626  14.987
33495W        W98480   0.732   0.482   1.294
33496W        W98481  26.763  33.411  13.118
33497W        W98482   3.374  43.461  14.317
33498W        W98483  25.785  11.183  12.144
33499W        W98484   3.506  38.420   0.531
33500W        W98485  33.540  44.341   1.493
33501W        W98486  34.984  12.595   4.619
33502W        W98487  27.382  33.465   1.777
33503W        W98488   3.959  18.523  14.110
33504W        W98489  38.490   3.676  12.006
33505W        W98490  22.010  35.011   4.194
33506W        W98491   9.429  11.228  10.795
33507W        W98492  40.614   1.292  13.067
33508W        W98493   6.529  31.245   2.286
33509W        W98494  37.082   0.903  11.933
33510W        W98495  41.824  18.915   5.027
33511W        W98496  39.109  41.930   0.320
33512W        W98497  26.268  14.645  14.852
33513W        W98498  42.539  39.826  14.988
33514W        W98499   9.397  22.296   1.396
33515W        W98500  31.086  33.144  11.988
33516W        W98501  20.038   9.801   4.300
33517W        W98502  28.091  17.619   0.902
33518W        W98503  27.168  14.039   4.685
33519W        W98504  43.057  15.369   2.170
33520W        W98505  25.010  32.965   1.597
33521W        W98506  11.697  39.425   4.575
33522W        W98507  28.664  18.650  12.647
33523W        W98508   8.530  16.780  14.509
33524W        W98509  13.941  13.236   3.761
33525W        W98510  17.118  34.604   4.542
33526W        W98511  12.797  20.509   3.097
33527W        W98512  10.360  41.024   2.450
33528W        W98513  11.976   7.666   3.466
33529W        W98514  17.666  32.578  11.705
33530W        W98515  40.408  16.570   0.384
33531W        W98516  30.430  37.855  14.361
33532W        W98517  39.764  39.021   4.744
33533W        W98518  16.272  40.526  14.805
33534W        W98519  26.508  19.781   0.331
33535W        W98520  41.485   4.259  12.799
33536W        W98521  28.537  39.059  12.486
33537W        W98522  30.058  38.298  14.922
33538W        W98523  33.082  22.801  11.924
33539W        W98524  14.771  36.600  14.574
33540W        W98525  30.031  21.346  13.658
33541W        W98526  42.833  18.793  14.542
33542W        W98527  25.954  40.654   1.322
33543W        W98528  24.216  27.532  12.454
33544W        W98529  16.889  24.245   2.575
33545W        W98530  13.143  12.194   2.882
33546W        W98531  19.273  30.008   1.324
33547W        W98532  28.821  14.650  11.658
33548W        W98533  27.182  28.266   2.673
33549W        W98534  18.683  16.344   4.882
33550W        W98535   1.657  26.322  11.224
33551W        W98536  17.011  42.497  14.358
33552W        W98537  35.554  27.167   2.695
33553W        W98538   2.854  18.961  14.527
33554W        W98539  43.789  19.829   2.633
33555W        W98540  35.593  14.777  14.488
33556W        W98541  28.877  41.942  11.523
33557W        W98542  24.025   4.434   1.239
33558W        W98543  39.887  27.424  11.470
33559W        W98544  16.065  26.650   3.217
33560W        W98545  28.119  31.883   3.152
33561W        W98546  31.376  39.404   2.657
33562W        W98547   5.785  30.656   4.251
33563W        W98548  10.318  31.019  11.986
33564W        W98549  34.737   1.577  12.028
33565W        W98550  10.391  31.420  14.566
33566W        W98551   4.761  15.637   1.928
33567W        W98552  37.619  37.304   2.448
33568W        W98553   6.434  27.524   1.744
33569W        W98554   8.724  42.395  10.606
33570W        W98555   4.805  27.180  14.819
33571W        W98556  26.784   1.939  11.275
33572W        W98557  15.230   2.573   9.691
33573W        W98558  34.793   1.027   3.272
33574W        W98559  25.721  19.661  10.757
33575W        W98560  23.469  14.173  14.966
33576W        W98561   7.367  39.060   1.691
33577W        W98562  11.049  42.300   0.242
33578W        W98563   4.533   1.508   2.306
33579W        W98564  11.244   0.976  14.908
33580W        W98565  21.705  17.724  14.015
33581W        W98566  27.658  23.899   1.539
33582W        W98567  43.447   6.000  12.925
33583W        W98568  32.581  38.697  11.866
33584W        W98569  33.375  24.096   3.721
33585W        W98570   6.823  21.569   0.029
33586W        W98571  24.965  39.841  12.268
33587W        W98572   3.692  24.146   0.364
33588W        W98573  22.195   0.503  14.389
33589W        W98574  27.169  18.320   0.394
33590W        W98575   9.030  42.594  13.929
33591W        W98576   6.305  27.112  14.330
33592W        W98577  41.254  11.634  13.889
33593W        W98578  20.053   4.200  13.073
33594W        W98579   4.944  28.895   3.783
33595W        W98580  14.303  12.702  13.430
33596W        W98581   7.421   0.767  14.922
33597W        W98582  31.939   9.703   2.402
33598W        W98583  25.819  33.782   5.066
33599W        W98584  24.014  42.829  10.972
33600W        W98585  27.207  41.699   5.047
33601W        W98586  13.874  18.233  10.657
33602W        W98587  17.833   9.767   0.871
33603W        W98588  30.673  23.281  11.172
33604W        W98589   9.774  44.902  13.000
33605W        W98590  12.296   3.664   4.444
33606W        W98591  14.946  30.898  12.698
33607W        W98592  14.596  15.035   2.728
33608W        W98593   9.107   5.411  12.644
33609W        W98594   6.937  42.906  13.553
33610W        W98595   0.038  10.692  12.969
33611W        W98596  23.206  29.125   3.588
33612W        W98597  44.420  26.709   0.715
33613W        W98598  21.098  30.708   1.344
33614W        W98599   8.068  27.033  13.226
33615W        W98600  36.810  25.906   3.405
33616W        W98601  15.820  30.650  13.431
33617W        W98602   3.364  36.246   3.686
33618W        W98603   8.552   3.147  12.682
33619W        W98604  13.280  17.736   1.953
33620W        W98605  35.085  16.672   4.553
33621W        W98606  41.235   5.282   3.219
33622W        W98607   0.768  11.768  12.399
33623W        W98608  32.880  23.788   4.199
33624W        W98609  13.560  25.591   2.221
33625W        W98610  27.182   9.412  11.168
33626W        W98611   7.669  44.944   4.717
33627W        W98612   6.818  27.520   4.097
33628W        W98613  31.515   2.824   1.503
33629W        W98614   5.760  39.452  12.946
33630W        W98615   6.878  31.490  11.617
33631W        W98616  23.514   5.183  12.276
33632W        W98617   7.703  13.612  13.484
33633W        W98618  26.310   1.395  14.348
33634W        W98619  24.245  14.084  12.045
33635W        W98620   6.163   0.827  13.015
33636W        W98621  40.637  23.986   5.481
33637W        W98622  32.119  11.203  12.532
33638W        W98623  17.175  34.160  12.153
33639W        W98624  32.913   3.713  13.921
33640W        W98625   7.618  21.274  11.373
33641W        W98626  40.125  17.792  12.984
33642W        W98627   3.457  26.090   2.142
33643W        W98628  31.103  36.352  11.902
33644W        W98629  17.797  29.463  11.240
33645W        W98630  40.410   7.993  14.918
33646W        W98631   1.764  21.002   2.117
33647W        W98632   6.908  43.088   0.487
33648W        W98633  23.328  21.213  13.529
33649W        W98634  41.030   7.129   4.210
33650W        W98635   8.428  22.880   2.403
33651W        W98636  40.469  16.085   4.432
33652W        W98637  14.288  44.227  13.974
33653W        W98638  23.288  15.356   2.736
33654W        W98639  31.518  11.949   1.403
33655W        W98640  20.004  35.815   2.156
33656W        W98641  34.324  32.863  11.995
33657W        W98642  23.052  34.674  14.403
33658W        W98643  31.375  32.914   4.576
33659W        W98644  22.313  14.408   5.033
33660W        W98645  24.928   3.462  14.840
33661W        W98646  25.214  40.092   3.755
33662W        W98647  28.399  43.803  12.946
33663W        W98648  41.499  27.652  13.121
33664W        W98649  30.129  15.893   2.814
33665W        W98650   7.691  27.652  14.364
33666W        W98651   7.630  37.968  13.490
33667W        W98652  22.396   5.448  10.960
33668W        W98653  43.011  17.751  12.529
33669W        W98654  27.978  34.665  11.545
33670W        W98655  21.931  15.514  12.313
33671W        W98656   0.561  26.575  14.310
33672W        W98657  34.269  26.609   2.775
33673W        W98658  40.669  30.113   1.793
33674W        W98659  30.118  23.393   1.553
33675W        W98660  33.947  38.642   0.301
33676W        W98661   0.914  35.409   3.876
33677W        W98662  28.103   7.647  14.015
33678W        W98663  26.663   6.674   3.930
33679W        W98664  39.264  10.119  14.278
33680W        W98665  28.797   7.906   4.602
33681W        W98666  20.212  28.688   1.073
33682W        W98667  43.034  21.648  11.313
33683W        W98668  44.406  17.573  14.776
33684W        W98669  31.141  22.688  12.416
33685W        W98670  24.584   5.859   3.901
33686W        W98671   2.691   6.705  11.996
33687W        W98672  43.343  10.264   4.058
33688W        W98673  17.614  23.699   3.407
33689W        W98674  44.054  21.792   1.042
33690W        W98675  10.139  24.787  11.155
33691W        W98676  31.082   6.913  12.531
33692W        W98677   3.471   4.730   2.802
33693W        W98678  13.102  43.282  12.147
33694W        W98679   7.930  20.155   0.373
33695W        W98680  18.149   4.032   2.970
33696W        W98681  13.627  38.278  12.648
33697W        W98682  12.177  32.068  10.440
33698W        W98683  23.543  28.379  12.495
33699W        W98684  39.685  29.588   0.406
33700W        W98685  10.561   0.841   3.934
33701W        W98686   6.591  24.252   3.602
33702W        W98687   5.756  29.272   4.692
33703W        W98688   2.282  11.945   0.536
33704W        W98689  25.235   8.669   4.587
33705W        W98690   8.440  42.019  14.259
33706W        W98691  32.001  27.106  12.009
33707W        W98692  38.622   1.473   1.707
33708W        W98693  20.725  41.807   4.043
33709W        W98694  36.018  19.181   1.927
33710W        W98695  44.778   2.760   2.317
33711W        W98696  18.860   4.730  11.609
33712W        W98697  23.843   1.004  13.018
33713W        W98698   4.738   3.413  11.103
33714W        W98699  20.747   4.886  13.986
33715W        W98700   3.936  24.508  13.424
33716W        W98701  36.940  39.387   1.681
33717W        W98702  28.999   8.366  11.179
33718W        W98703  13.123  10.154   1.415
33719W        W98704  37.660  23.597  10.751
33720W        W98705   7.897  36.017  12.065
33721W        W98706   1.947   6.252   0.953
33722W        W98707  33.435  42.773   2.255
33723W        W98708   1.833  15.564   2.369
33724W        W98709   5.929  41.618   3.243
33725W        W98710  41.920  20.351   3.817
33726W        W98711  17.961  24.873   2.279
33727W        W98712  19.086  41.540  11.559
33728W        W98713  26.032  24.685  12.923
33729W        W98714  28.195  29.706  12.372
33730W        W98715  21.693  14.177  12.667
33731W        W98716   2.785  31.547   2.216
33732W        W98717  21.647  17.504   2.777
33733W        W98718  10.344  22.809   4.077
33734W        W98719  10.825  43.886   3.595
33735W        W98720  33.549  23.000  13.138
33736W        W98721  31.876  34.014   1.282
33737W        W98722   0.598  34.532   4.399
33738W        W98723  43.904  11.147   4.535
33739W        W98724  18.269   2.997  11.564
33740W        W98725  27.277  37.660   2.655
33741W        W98726   2.939  15.543  11.898
33742W        W98727  26.099  33.992   2.034
33743W        W98728  42.532  15.156   3.286
33744W        W98729  14.612  26.100   2.796
33745W        W98730  23.026  35.180  14.323
33746W        W98731  22.172  22.857   2.373
33747W        W98732   6.336  22.204   3.773
33748W        W98733   8.847   7.872   0.408
33749W        W98734  26.296  12.864  14.824
33750W        W98735   5.253  32.001   4.603
33751W        W98736  12.032  14.901  10.381
33752W        W98737   9.655  28.670  12.447
33753W        W98738  11.043  32.614   2.330
33754W        W98739  35.980  41.753   0.718
33755W        W98740  32.925   8.750  13.522
33756W        W98741  22.197   7.396   0.338
33757W        W98742  30.218  41.895   4.098
33758W        W98743  40.785  26.432  13.798
33759W        W98744  37.988  30.660  11.209
33760W        W98745  25.635  37.312   0.844
33761W        W98746  18.290  41.930  12.968
33762W        W98747  28.884  21.113   1.476
33763W        W98748  18.630   6.581   4.105
33764W        W98749  37.606  20.717  13.076
33765W        W98750  37.471  42.356  13.417
33766W        W98751   1.052  43.032   1.468
33767W        W98752  37.908  33.678   1.277
33768W        W98753  16.659  15.155  10.732
33769W        W98754  11.627  14.072   4.199
33770W        W98755  19.720  24.498  11.343
33771W        W98756  28.090  11.748   2.567
33772W        W98757  29.990   8.513  14.231
33773W        W98758  31.462  38.552   0.854
33774W        W98759  15.627  16.042   2.798
33775W        W98760  33.136  44.916   3.458
33776W        W98761  18.698  41.836   1.256
33777W        W98762  16.756  26.417  14.953
33778W        W98763  36.080  19.530   1.202
33779W        W98764  14.297  33.856   1.822
33780W        W98765   3.790  17.240  14.533
33781W        W98766  38.062  25.853  11.117
33782W        W98767  24.970  41.391   4.575
33783W        W98768  21.953  18.269   3.779
33784W        W98769   0.873  25.152   2.868
33785W        W98770  19.243  43.782  11.686
33786W        W98771   0.788  38.984   3.732
33787W        W98772  28.078  34.957   1.335
33788W        W98773  22.197   3.378   4.903
33789W        W98774  24.206  14.856   1.817
33790W        W98775  26.982  25.573   1.282
33791W        W98776  15.623  31.957   4.145
33792W        W98777  41.023  11.389  14.818
33793W        W98778   9.097  31.374   1.851
33794W        W98779  28.225  11.146  11.659
33795W        W98780  41.062  17.808  12.062
33796W        W98781  39.663  17.223   2.998
33797W        W98782  11.560   6.992   2.183
33798W        W98783  29.515  18.179   1.216
33799W        W98784   2.730   3.793  10.575
33800W        W98785  12.781  19.796  14.372
33801W        W98786  20.767  24.090   2.410
33802W        W98787  13.720  17.403  13.470
33803W        W98788  25.701  12.966   2.757
33804W        W98789  26.476  25.078   1.779
33805W        W98790   6.205  14.787   3.259
33806W        W98791  37.050   1.273   2.329
33807W        W98792   3.331  35.492  10.746
33808W        W98793  32.475  37.930  10.629
33809W        W98794   0.070  27.976   0.395
33810W        W98795   4.757  42.157   2.165
33811W        W98796  36.759   6.219   2.158
33812W        W98797   7.335  36.311  13.785
33813W        W98798  42.093  32.978  11.180
33814W        W98799  10.290  44.656  12.206
33815W        W98800  32.306  41.984   4.533
33816W        W98801  14.768  31.736   0.021
33817W        W98802  15.422  25.501   5.431
33818W        W98803  14.245  17.452  14.816
33819W        W98804  19.326  41.856  12.928
33820W        W98805  28.542   7.873  13.891
33821W        W98806   9.504  13.317  14.492
33822W        W98807  39.015  37.891  12.520
33823W        W98808  11.143  43.019   1.879
33824W        W98809  24.993  32.470   1.822
33825W        W98810  32.933   1.753  10.648
33826W        W98811   7.006  44.230   2.367
33827W        W98812  40.703  36.927  13.568
33828W        W98813   4.378  32.272  10.516
33829W        W98814  18.770  38.833   4.257
33830W        W98815   4.390   6.349  10.938
33831W        W98816   2.361  42.163  11.144
33832W        W98817  10.410  32.957  10.683
33833W        W98818   9.762  11.615   0.797
33834W        W98819  43.050  23.662   4.724
33835W        W98820   4.820  14.665   3.368
33836W        W98821   8.167  14.344   0.974
33837W        W98822  27.363  35.000  13.079
33838W        W98823  16.771   5.481   2.326
33839W        W98824  16.892   3.824  11.638
33840W        W98825  34.648   2.797   0.973
33841W        W98826   0.809   9.573   4.103
33842W        W98827  37.571  38.107  13.607
33843W        W98828  39.562  41.081  13.039
33844W        W98829  40.214  12.254   3.110
33845W        W98830  41.462  21.024  11.895
33846W        W98831  15.084  41.090   2.767
33847W        W98832  11.784  21.257  13.364
33848W        W98833   6.251   7.353   4.078
33849W        W98834  20.498  22.834  11.634
33850W        W98835   7.175  19.088  10.734
33851W        W98836   9.876  40.870  13.931
33852W        W98837  36.832  11.112   4.085
33853W        W98838  38.945  39.850   1.648
33854W        W98839  23.705  17.694   2.104
33855W        W98840   5.758   7.349  12.689
33856W        W98841  29.974  20.958   2.307
33857W        W98842  27.391   8.476   2.711
33858W        W98843   2.438  23.474  11.653
33859W        W98844  32.899  37.773   2.682
33860W        W98845  37.870  32.691   2.656
33861W        W98846  28.542  15.731   2.005
33862W        W98847  24.695  19.731  12.811
33863W        W98848  40.208  27.078   2.661
33864W        W98849  29.838   7.311   4.175
33865W        W98850   2.269  35.291  14.362
33866W        W98851  35.067  22.446   3.643
33867W        W98852  18.445  35.389  11.584
33868W        W98853  35.478  15.311  10.656
33869W        W98854  28.362  20.120   4.557
33870W        W98855   0.394  32.083  13.820
33871W        W98856  36.255  19.456  12.769
33872W        W98857  33.478   8.150  14.737
33873W        W98858  33.492  33.057   2.427
33874W        W98859  29.375   0.197   0.735
33875W        W98860  11.141  11.605  13.436
33876W        W98861  26.058  36.714   1.214
33877W        W98862  26.194   7.971   2.320
33878W        W98863  30.668  36.717   3.785
33879W        W98864  44.474  19.719  10.825
33880W        W98865  38.930  16.235  13.764
33881W        W98866  14.908  15.949   3.709
33882W        W98867  26.785   5.450   4.617
33883W        W98868   4.546  37.335  14.432
33884W        W98869  14.550   5.342  13.365
33885W        W98870  32.583   8.346   2.353
33886W        W98871  22.571  42.300  11.133
33887W        W98872   1.280  28.759   3.332
33888W        W98873  12.242   2.731  14.374
33889W        W98874  25.086  30.507   3.146
33890W        W98875  17.792  43.066  13.327
33891W        W98876  22.243  39.426  11.284
33892W        W98877  14.275  24.030   2.324
33893W        W98878   6.739  41.716   4.583
33894W        W98879  31.281   6.656   4.839
33895W        W98880  21.032  12.969  11.451
33896W        W98881  37.199  41.162  13.013
33897W        W98882  36.042  35.079  12.770
33898W        W98883  10.094  18.690  14.332
33899W        W98884  27.900  19.267   1.306
33900W        W98885  24.234  40.039   1.866
33901W        W98886   2.963  34.891  14.261
33902W        W98887   7.616  25.714  14.731
33903W        W98888  11.648  37.064   2.280
33904W        W98889   5.143  42.956   3.641
33905W        W98890   5.779  37.779   0.765
33906W        W98891  23.301  34.128   4.585
33907W        W98892  33.377  34.128  14.226
33908W        W98893  21.850  42.354  14.949
33909W        W98894   1.910  10.263  13.843
33910W        W98895  43.032  26.913   4.566
33911W        W98896   5.809  27.199   2.204
33912W        W98897  34.545  19.351  12.577
33913W        W98898  42.511   3.261   4.444
33914W        W98899   8.674  22.180   0.044
33915W        W98900  16.183  12.282   4.516
33916W        W98901  14.141  35.836  12.083
33917W        W98902  44.899  43.110  13.877
33918W        W98903   2.893  23.636   1.895
33919W        W98904  29.930  30.883   3.773
33920W        W98905   0.692  11.844   2.424
33921W        W98906   9.278   2.060   2.744
33922W        W98907  39.522   3.647   0.458
33923W        W98908   5.130   8.854   9.874
33924W        W98909  17.678  12.735  13.449
33925W        W98910  12.148  14.011  14.221
33926W        W98911  12.271  21.950  11.418
33927W        W98912  14.177   9.935  11.474
33928W        W98913  24.732  36.067  10.535
33929W        W98914  40.620  16.769  14.883
33930W        W98915  31.117  16.812   0.733
33931W        W98916  35.626  17.714  11.630
33932W        W98917  44.956  14.380   3.165
33933W        W98918  21.286  40.295   0.987
33934W        W98919   0.358  13.326   3.350
33935W        W98920  41.676  43.197   1.479
33936W        W98921  16.139  30.618   3.114
33937W        W98922  31.644  39.747  14.941
33938W        W98923   3.958   7.417  11.696
33939W        W98924  14.311  10.190  13.587
33940W        W98925  39.572  23.595  13.382
33941W        W98926  23.702   3.844   0.891
33942W        W98927  41.500  31.875   3.085
33943W        W98928  32.626  15.280   3.227
33944W        W98929  17.364  39.413   0.354
33945W        W98930  27.427  28.485  11.783
33946W        W98931  39.421   8.029  11.559
33947W        W98932  11.187   9.678  12.039
33948W        W98933  13.903   0.488   3.695
33949W        W98934   5.462  23.666  13.484
33950W        W98935  43.874  27.478   0.206
33951W        W98936  20.027  35.821  12.874
33952W        W98937  36.640  28.159  11.168
33953W        W98938  43.524  40.038  14.052
33954W        W98939  20.058  31.667  12.510
33955W        W98940   3.434  27.535  10.116
33956W        W98941  22.423  22.513   2.875
33957W        W98942  12.370  13.328   2.301
33958W        W98943  21.872  22.055  11.118
33959W        W98944  32.044  39.079   3.752
33960W        W98945  35.153  34.008   0.263
33961W        W98946  29.105  26.179  12.613
33962W        W98947  19.505  21.571   2.509
33963W        W98948  12.712  40.291  13.775
33964W        W98949  36.316   7.385   1.919
33965W        W98950  14.313  40.244  14.953
33966W        W98951  38.611  13.387  13.547
33967W        W98952   5.793  43.454  12.052
33968W        W98953  44.327  40.958  12.535
33969W        W98954  25.071  24.432   2.379
33970W        W98955  30.097   5.451   0.815
33971W        W98956  39.490  14.595   2.361
33972W        W98957  44.757  30.504  12.597
33973W        W98958  34.640   9.628   5.033
33974W        W98959   7.144  30.791   2.069
33975W        W98960  10.354  35.078  11.208
33976W        W98961  34.806  25.405   1.864
33977W        W98962  36.563  43.724   0.041
33978W        W98963  20.142  44.287  10.191
33979W        W98964  23.268  19.719   1.295
33980W        W98965  26.386  19.264   3.231
33981W        W98966  38.383  32.995   4.358
33982W        W98967   2.302   5.945  12.586
33983W        W98968   4.036  38.066  13.871
33984W        W98969   5.909   3.241   4.091
33985W        W98970   2.111   3.514  12.396
33986W        W98971  30.532   4.930   3.564
33987W        W98972  19.484  11.427   4.525
33988W        W98973  33.444   2.919  13.888
33989W        W98974   1.783  12.740  12.186
33990W        W98975  38.309  43.718  12.786
33991W        W98976   1.787  10.242   0.061
33992W        W98977  43.377   8.395   0.681
33993W        W98978  29.256  15.730  14.305
33994W        W98979   5.933  27.950   1.882
33995W        W98980  34.163  40.002  14.781
33996W        W98981  26.037  35.882   3.932
33997W        W98982  23.165  21.307   2.214
33998W        W98983   7.815  39.484  13.501
33999W        W98984  24.950   8.659  14.094
34000W        W98985   1.454  41.182   2.732
34001W        W98986  18.103  32.562   3.666
34002W        W98987   5.270  38.792  14.376
34003W        W98988  22.248  30.464  13.305
34004W        W98989  24.925  23.264   0.883
34005W        W98990  26.108  38.391  14.273
34006W        W98991  40.480  43.798   2.803
34007W        W98992  43.826   6.114   0.124
34008W        W98993   6.880  29.450   4.659
34009W        W98994  42.395  37.075  12.135
34010W        W98995  17.545  15.754   0.911
34011W        W98996  32.519   0.764   0.345
34012W        W98997  15.036  35.508  13.936
34013W        W98998  33.627   6.497   5.362
34014W        W98999  43.389   4.740   4.660
34015W        W99000  41.869  42.522  11.118
34016W        W99001  12.327  40.566  12.201
34017W        W99002  27.074  26.067  13.234
34018W        W99003   1.904  36.519  14.128
34019W        W99004  18.746  35.372   0.179
34020W        W99005  24.104  38.405   0.358
34021W        W99006   0.429  28.141   3.206
34022W        W99007   0.400  27.556  13.570
34023W        W99008  40.387  28.195   3.657
34024W        W99009  22.776  15.750   1.436
34025W        W99010  11.616   0.253  13.781
34026W        W99011  17.164  27.723  13.845
34027W        W99012  18.070   7.483   3.522
34028W        W99013  37.117  43.949   0.393
34029W        W99014  18.669   9.466   0.846
34030W        W99015  37.836  16.552   0.908
34031W        W99016  17.997  17.796   3.799
34032W        W99017  28.955   5.426   1.302
34033W        W99018   1.825  29.021  10.446
34034W        W99019  26.424  44.210   3.110
34035W        W99020   3.322   3.189   4.787
34036W        W99021  34.362  33.088   3.742
34037W        W99022  22.336   9.734  12.677
34038W        W99023   0.425   3.735   1.694
34039W        W99024  38.489   1.771   0.981
34040W        W99025  24.992   6.842   1.284
34041W        W99026   7.564  32.529   0.885
34042W        W99027  14.110   3.276  14.483
34043W        W99028  10.666  38.590  14.834
34044W        W99029   6.886   6.343   1.845
34045W        W99030  23.177  21.203   0.764
34046W        W99031  31.096  27.197  14.742
34047W        W99032  19.709  19.086  11.723
34048W        W99033   9.087  26.843  12.462
34049W        W99034   7.660  28.895   3.618
34050W        W99035  35.357  15.163  13.333
34051W        W99036  20.116   6.896  11.546
34052W        W99037   9.862   5.771  13.878
34053W        W99038   4.920   7.484  14.117
34054W        W99039  28.035  20.787   4.008
34055W        W99040  34.100  43.242   1.750
34056W        W99041  19.811  32.113   4.316
34057W        W99042  19.728  24.173   1.535
34058W        W99043  17.098   8.466  11.059
34059W        W99044  41.077  12.109   3.406
34060W        W99045   2.112  14.322   1.208
34061W        W99046   7.473  13.550  11.201
34062W        W99047  19.644  29.174   0.367
34063W        W99048  13.610  18.127  11.124
34064W        W99049  42.753  15.888   1.877
34065W        W99050  27.208  16.635  11.627
34066W        W99051   2.915  17.358  13.343
34067W        W99052  21.198  34.574   0.536
34068W        W99053  28.553   9.830   4.547
34069W        W99054  19.970  27.038  10.529
34070W        W99055  39.322   7.176  13.323
34071W        W99056   9.809  35.734   4.093
34072W        W99057  27.112   5.309  13.539
34073W        W99058  30.125   0.958   3.285
34074W        W99059  11.777  24.732   1.095
34075W        W99060   6.177  15.707   3.203
34076W        W99061  15.343  39.467   0.326
34077W        W99062  33.869   0.345   0.774
34078W        W99063  41.979   3.206  12.876
34079W        W99064  31.009   2.107   3.259
34080W        W99065  39.902   5.174  10.634
34081W        W99066  27.215   2.979   3.958
34082W        W99067  30.631  25.212  13.462
34083W        W99068  17.673   8.273   0.564
34084W        W99069   3.294  18.915   4.511
34085W        W99070  21.770  26.953   0.040
34086W        W99071  32.913  30.567   1.905
34087W        W99072  23.181   1.068  11.178
34088W        W99073  35.307  44.233   3.175
34089W        W99074  24.709  44.438  13.441
34090W        W99075  30.173  44.977   2.517
34091W        W99076  42.067  39.318   0.826
34092W        W99077  32.607  32.446  12.405
34093W        W99078  11.318   2.803   3.982
34094W        W99079  28.691  44.841  13.834
34095W        W99080  32.643  24.206   3.405
34096W        W99081   0.258  21.078   3.276
34097W        W99082  17.850  33.094  11.640
34098W        W99083  39.999  43.333   1.667
34099W        W99084   5.227   0.013  11.588
34100W        W99085  44.098   4.910   2.847
34101W        W99086  16.489  36.568   3.211
34102W        W99087  40.019   9.418  11.580
34103W        W99088  41.463  35.437   4.932
34104W        W99089  31.734   3.258   3.743
34105W        W99090  36.472  43.349   0.376
34106W        W99091  38.317  19.066  11.181
34107W        W99092  26.430  26.108   1.840
34108W        W99093  39.599  10.660   3.516
34109W        W99094  26.189  12.166   1.425
34110W        W99095  11.116  25.976  14.258
34111W        W99096   9.372  22.142  11.974
34112W        W99097  37.501  33.628  11.536
34113W        W99098  18.294  31.459   4.988
34114W        W99099  30.053  36.182   3.390
34115W        W99100  10.930  26.123   2.394
34116W        W99101  42.993   2.301   0.871
34117W        W99102  21.233  38.513   0.659
34118W        W99103   4.828  40.992   3.364
34119W        W99104  16.048  39.390   0.741
34120W        W99105   1.251   2.801   4.380
34121W        W99106   1.421  39.992   0.920
34122W        W99107   6.724  41.261   3.326
34123W        W99108  41.942  26.991  12.345
34124W        W99109  38.924  40.330  11.163
34125W        W99110  39.318  34.067  11.133
34126W        W99111   8.459   9.264   0.320
34127W        W99112  41.992  42.916   0.044
34128W        W99113   8.367  34.753  14.443
34129W        W99114  16.765  18.237  12.544
34130W        W99115  32.202  14.625   1.909
34131W        W99116  25.710  28.129   3.206
34132W        W99117  32.422   8.743  13.628
34133W        W99118   3.370   1.629  11.859
34134W        W99119  20.777  10.753   0.709
34135W        W99120   0.971  12.788   2.803
34136W        W99121  34.783  13.194  12.995
34137W        W99122  30.978  34.582   0.606
34138W        W99123  20.214  15.172  12.258
34139W        W99124  22.928  43.353  10.658
34140W        W99125   0.096   4.587   1.138
34141W        W99126  11.084  31.318   0.316
34142W        W99127  20.704  35.856  12.449
34143W        W99128   9.861   9.625  13.662
34144W        W99129  34.154   9.101   0.908
34145W        W99130   1.829  38.198   1.477
34146W        W99131  30.458  26.893   2.305
34147W        W99132  22.707   5.482   4.172
34148W        W99133  20.749  16.045  12.618
34149W        W99134  37.461  11.110   2.251
34150W        W99135  15.039  14.117  11.929
34151W        W99136   7.039  23.747   3.338
34152W        W99137  23.309  19.031  14.811
34153W        W99138  22.431   0.294   3.347
34154W        W99139  28.076  12.966  13.572
34155W        W99140  35.300  10.757   3.316
34156W        W99141  10.362  26.940   2.339
34157W        W99142  20.213  19.447   9.721
34158W        W99143  33.493  29.207  12.815
34159W        W99144  24.601   6.419   0.641
34160W        W99145  21.308  30.378   4.706
34161W        W99146  14.066  35.587  13.945
34162W        W99147  21.510  42.826  12.522
34163W        W99148  27.156  33.541   2.257
34164W        W99149  37.051  33.850  11.337
34165W        W99150  36.647  17.697   0.453
34166W        W99151   4.452  17.718  13.843
34167W        W99152  20.875  27.596  14.475
34168W        W99153  39.489  20.977  12.055
34169W        W99154  30.664  34.993  14.832
34170W        W99155  41.998   4.782   1.340
34171W        W99156  32.152  35.991   4.480
34172W        W99157  25.191  22.088   3.354
34173W        W99158  35.170  34.125  12.956
34174W        W99159  10.977  35.596   0.330
34175W        W99160  21.025  24.406  12.220
34176W        W99161   0.994  19.198  12.412
34177W        W99162  24.917  23.809   4.222
34178W        W99163   5.524  38.934  10.639
34179W        W99164   6.681  21.594  13.610
34180W        W99165  16.911   4.963  12.518
34181W        W99166  29.710  19.527   3.167
34182W        W99167   3.325   5.529   4.101
34183W        W99168   8.371   2.705   0.432
34184W        W99169  12.740  43.886  10.657
34185W        W99170  37.055   1.999   1.638
34186W        W99171  18.903   7.731  11.818
34187W        W99172  39.419  43.294   3.249
34188W        W99173  28.741   0.855   2.573
34189W        W99174  16.902  11.074  10.700
34190W        W99175  44.980  13.086   1.197
34191W        W99176  35.007  21.070   3.114
34192W        W99177  12.218  17.674  12.794
34193W        W99178  31.874  23.516   4.239
34194W        W99179   4.151  35.006   4.430
34195W        W99180  27.633  35.420   4.325
34196W        W99181  25.875  10.434  11.079
34197W        W99182  10.339  15.601  14.249
34198W        W99183  39.119  42.442  12.579
34199W        W99184  40.830  44.984   3.605
34200W        W99185  29.580  18.272  12.989
34201W        W99186  17.098   7.189   3.108
34202W        W99187  13.182   4.847  13.372
34203W        W99188  35.985  34.391   3.358
34204W        W99189  32.540  22.042  12.682
34205W        W99190   3.177  17.113   3.371
34206W        W99191  21.710   8.301   0.424
34207W        W99192  11.340  26.628   1.140
34208W        W99193  23.853  39.082   0.044
34209W        W99194   8.313   8.982  10.264
34210W        W99195  24.197  13.731  12.748
34211W        W99196  22.080  39.107   1.172
34212W        W99197  35.227  26.524  12.436
34213W        W99198   5.467  39.465   2.483
34214W        W99199  40.361  19.293  13.511
34215W        W99200  37.438  32.436   0.940
34216W        W99201  28.697   5.472   3.395
34217W        W99202  23.586   8.937  13.599
34218W        W99203  11.202  10.704   4.077
34219W        W99204   1.444  30.750  14.025
34220W        W99205  23.960  39.804  11.625
34221W        W99206  38.882   6.577   5.044
34222W        W99207   8.916   4.803   0.781
34223W        W99208  30.691  29.575  10.978
34224W        W99209  43.867  32.408  14.532
34225W        W99210  30.751  37.665   1.230
34226W        W99211  24.329  28.971   2.821
34227W        W99212   7.361  23.014  10.941
34228W        W99213  25.053  42.618   2.831
34229W        W99214  33.614  43.656  13.099
34230W        W99215   7.484   0.166  14.065
34231W        W99216  42.380   8.358   1.726
34232W        W99217   0.757  33.500  11.478
34233W        W99218  44.904  27.960   4.987
34234W        W99219  25.428  14.603  14.188
34235W        W99220   2.946  40.244  12.361
34236W        W99221  38.420  38.149  14.176
34237W        W99222  34.766   7.665  13.755
34238W        W99223  37.538  33.163   2.375
34239W        W99224   4.444   9.267  12.590
34240W        W99225  29.587  21.798   0.720
34241W        W99226  15.325  40.606  13.994
34242W        W99227   9.266  29.755  11.650
34243W        W99228   5.617  18.213   3.319
34244W        W99229   6.953  12.587  14.072
34245W        W99230  31.021  22.135  14.831
34246W        W99231   9.709   6.087   2.784
34247W        W99232  19.154  29.485   1.316
34248W        W99233  18.110  30.556  14.795
34249W        W99234  24.624  31.870   1.818
34250W        W99235  39.679   7.552  10.743
34251W        W99236  44.763  20.162   2.678
34252W        W99237  33.506  37.392  14.625
34253W        W99238  38.517  39.974  14.137
34254W        W99239   3.351  23.027  12.702
34255W        W99240  41.562  43.106   4.687
34256W        W99241  10.583   7.126  14.368
34257W        W99242  29.490   9.231  14.761
34258W        W99243  44.831  31.059  14.790
34259W        W99244  39.696  32.003   4.455
34260W        W99245  15.815  11.125  12.443
34261W        W99246  26.663   0.030   5.641
34262W        W99247  42.528   0.043   0.017
34263W        W99248  31.641  33.524   1.201
34264W        W99249  23.980  30.348   2.645
34265W        W99250  11.020   6.926   3.713
34266W        W99251   7.898  43.869   4.722
34267W        W99252   0.967   4.463  13.865
34268W        W99253  21.794  14.649  12.852
34269W        W99254  29.694  44.097   4.114
34270W        W99255   4.936  38.386  14.338
34271W        W99256  39.001  32.916  12.398
34272W        W99257  32.047  31.291   4.600
34273W        W99258  14.618  38.433  12.205
34274W        W99259  16.854  30.740   2.373
34275W        W99260  28.941  14.162  11.541
34276W        W99261  42.689  28.504   3.807
34277W        W99262  11.335   0.137   3.196
34278W        W99263  11.243  38.390  11.543
34279W        W99264  40.362  32.754  10.263
34280W        W99265   8.154  37.468   0.775
34281W        W99266  20.745  19.728   2.384
34282W        W99267   2.824   2.453  11.684
34283W        W99268   2.351   9.125  14.925
34284W        W99269  39.362  26.828  11.910
34285W        W99270   6.916  42.259  10.391
34286W        W99271  13.715  26.557  10.656
34287W        W99272  27.754  18.029   1.772
34288W        W99273   7.418  19.306   0.869
34289W        W99274   6.156  23.693  10.286
34290W        W99275  14.718  42.056  12.938
34291W        W99276  20.636   8.772   4.575
34292W        W99277  44.866  42.591  13.783
34293W        W99278  17.979  43.523  11.500
34294W        W99279  14.642  15.306  11.111
34295W        W99280  20.042  14.010   0.382
34296W        W99281  37.229  33.588  10.698
34297W        W99282  11.055   6.475  13.119
34298W        W99283  33.460  33.788   4.031
34299W        W99284   1.746  40.910   4.217
34300W        W99285  28.538  31.726  12.019
34301W        W99286  13.066  37.018  13.914
34302W        W99287  23.167  27.569   3.517
34303W        W99288   3.015  41.361  10.046
34304W        W99289   4.058   2.919   2.695
34305W        W99290  14.142  37.975  11.124
34306W        W99291  12.895  13.485  14.150
34307W        W99292  37.846   9.462   2.723
34308W        W99293   8.578  37.179  12.058
34309W        W99294  18.798   0.043   2.258
34310W        W99295  22.703  34.057   0.051
34311W        W99296   6.219  38.837  13.061
34312W        W99297   0.397  34.614   2.981
34313W        W99298  24.726  19.366  14.735
34314W        W99299  39.943  29.369   2.986
34315W        W99300  35.077  19.730  13.400
34316W        W99301   6.835  33.669  13.387
34317W        W99302  28.423   9.669  11.929
34318W        W99303   6.782  40.641   4.677
34319W        W99304  31.226  32.757   4.063
34320W        W99305   0.831  17.063   3.850
34321W        W99306  30.601  29.433  13.995
34322W        W99307  32.425  36.953  11.475
34323W        W99308  15.759  16.019   4.639
34324W        W99309  22.735  34.595  10.490
34325W        W99310  36.484   6.946   4.455
34326W        W99311  17.649  13.379   3.634
34327W        W99312  15.402  23.190   2.294
34328W        W99313  18.252  37.991  13.906
34329W        W99314  23.192   7.357   1.178
34330W        W99315  14.724   1.662  10.298
34331W        W99316   1.906  21.104   3.553
34332W        W99317  40.868  35.047   0.879
34333W        W99318   2.735  43.774  10.542
34334W        W99319  11.341  12.695  10.691
34335W        W99320  40.272  25.298   2.755
34336W        W99321  37.995  28.546  14.474
34337W        W99322  27.982  16.327  14.399
34338W        W99323  42.773  13.763   3.774
34339W        W99324  10.974  37.026   2.764
34340W        W99325  19.381   8.729  10.664
34341W        W99326   3.950   4.859  13.705
34342W        W99327  12.849  41.257  12.419
34343W        W99328  44.449  16.727  11.787
34344W        W99329  40.933  33.854  13.257
34345W        W99330  13.344  44.353   5.146
34346W        W99331  26.574  14.951  12.077
34347W        W99332  34.121  30.131   4.101
34348W        W99333  12.755  43.858   3.899
34349W        W99334   3.380  14.202  13.385
34350W        W99335  15.814   0.292   1.451
34351W        W99336  22.516  38.778   1.209
34352W        W99337  30.078  23.049   2.061
34353W        W99338  43.771  20.296   1.706
34354W        W99339  40.472   5.472  12.099
34355W        W99340   4.839  11.763  13.606
34356W        W99341  15.489   1.359   2.727
34357W        W99342  21.267  17.091  14.136
34358W        W99343  38.978  11.837  12.047
34359W        W99344  44.312  20.094  11.739
34360W        W99345  23.477   9.710  11.646
34361W        W99346   9.745   5.435   4.424
34362W        W99347   0.406  27.193  10.053
34363W        W99348  43.125   1.914   0.538
34364W        W99349  39.346   5.207  13.944
34365W        W99350  40.804  42.896  14.501
34366W        W99351  34.129  31.360   4.912
34367W        W99352  39.394  21.239   0.631
34368W        W99353  15.304  39.314   2.204
34369W        W99354  10.380  28.585  13.944
34370W        W99355   8.671  33.096  12.153
34371W        W99356  20.967  10.216  10.402
34372W        W99357  26.474  36.007   4.156
34373W        W99358  14.735  43.541  14.631
34374W        W99359   8.787   2.292  12.475
34375W        W99360  40.987   3.037   3.618
34376W        W99361  12.631   4.688   3.582
34377W        W99362   5.993  23.601   1.005
34378W        W99363  37.608  24.226   3.923
34379W        W99364   1.620  28.916  14.741
34380W        W99365  20.158   9.888   3.313
34381W        W99366  44.414  14.736  10.740
34382W        W99367  36.100  26.569  14.606
34383W        W99368  27.579   0.260   0.751
34384W        W99369  22.981   5.276   2.515
34385W        W99370  15.064  18.655   0.028
34386W        W99371  16.242  37.528   1.453
34387W        W99372  38.885  24.084   2.222
34388W        W99373   6.023   3.483   1.436
34389W        W99374  31.091  37.074  12.967
34390W        W99375   6.141  28.469  11.133
34391W        W99376   5.243  42.282   0.583
34392W        W99377   4.616  41.448   1.962
34393W        W99378   4.845  31.710   2.914
34394W        W99379  23.602  35.068  10.791
34395W        W99380  43.065  26.222  12.695
34396W        W99381  18.189  28.003   2.507
34397W        W99382  13.271  21.272  12.588
34398W        W99383  35.962  13.099   3.229
34399W        W99384  41.497  36.947   1.821
34400W        W99385  36.058  28.516  14.798
34401W        W99386  10.813  28.160  14.523
34402W        W99387   1.505  31.797   3.690
34403W        W99388   9.732  37.310  14.904
34404W        W99389   5.406  38.521   3.560
34405W        W99390  33.636   8.723  12.639
34406W        W99391  44.470   3.764  10.973
34407W        W99392  23.502  43.744  13.937
34408W        W99393  11.863  42.007   0.501
34409W        W99394  22.076   0.662  11.254
34410W        W99395  28.248  11.809  12.609
34411W        W99396  30.026  16.317  13.493
34412W        W99397   2.508  28.959  13.076
34413W        W99398  38.443   3.728  13.904
34414W        W99399  29.472  34.903   1.803
34415W        W99400  14.836  15.180   4.687
34416W        W99401  44.021  34.563   2.372
34417W        W99402  17.642  34.146  12.349
34418W        W99403  20.502  15.208   4.081
34419W        W99404  21.967  36.354   0.695
34420W        W99405   0.827  23.784  13.858
34421W        W99406   9.305  24.568   3.639
34422W        W99407  33.004  33.643  14.860
34423W        W99408  33.957  41.558  10.695
34424W        W99409  29.868   3.750   4.287
34425W        W99410  29.535  25.859  12.036
34426W        W99411  12.306  14.257   4.620
34427W        W99412  44.516  42.772  11.387
34428W        W99413   8.284  20.984  10.994
34429W        W99414  25.010  28.002   3.701
34430W        W99415  19.620   4.759   0.263
34431W        W99416  44.969  12.556   0.395
34432W        W99417  30.870  41.563   4.453
34433W        W99418  21.725  39.432   1.414
34434W        W99419   9.431  33.338  13.859
34435W        W99420  29.963  11.646  14.816
34436W        W99421  22.125   1.832  10.496
34437W        W99422  25.734  27.682   1.180
34438W        W99423  34.885   0.851  14.887
34439W        W99424   5.372  11.981  10.520
34440W        W99425  40.288  15.104  13.114
34441W        W99426  10.283  44.199  13.334
34442W        W99427  12.316  19.657   3.272
34443W        W99428  40.229  20.839   4.053
34444W        W99429  16.329   0.432  11.173
34445W        W99430  32.062  24.157  12.888
34446W        W99431  42.671  36.114  12.122
34447W        W99432  25.466  22.716  13.808
34448W        W99433   1.817  16.106   4.580
34449W        W99434  38.981  15.732  14.521
34450W        W99435  39.524  27.412   0.374
34451W        W99436  35.514  31.947   1.304
34452W        W99437  29.089  18.145  12.890
34453W        W99438   6.757   9.151   2.437
34454W        W99439  43.935  17.171   0.757
34455W        W99440  15.671   2.637   0.859
34456W        W99441   2.862  29.963   1.771
34457W        W99442   1.026  41.904  13.380
34458W        W99443  33.902  22.042   2.589
34459W        W99444  23.649  11.531   2.096
34460W        W99445  11.189   9.340   4.116
34461W        W99446   1.887   0.791   3.164
34462W        W99447  30.065  31.831  12.060
34463W        W99448  13.482  20.525   2.496
34464W        W99449  39.098  28.631  11.529
34465W        W99450   7.347  38.039  11.973
34466W        W99451   6.458  10.077  14.459
34467W        W99452  40.318  36.687   5.007
34468W        W99453  30.614   1.019   0.896
34469W        W99454   3.453  35.692  13.856
34470W        W99455  32.991  19.062   1.764
34471W        W99456  15.084  19.081  10.722
34472W        W99457  17.606  44.846  13.414
34473W        W99458   7.700   4.642  14.094
34474W        W99459  34.988   3.489  11.057
34475W        W99460  10.600  42.176   1.705
34476W        W99461  23.467  10.542   2.364
34477W        W99462   9.245  31.714  11.755
34478W        W99463   3.459  31.414  14.835
34479W        W99464   4.711  32.903   3.248
34480W        W99465  38.028  26.173  14.913
34481W        W99466  24.102  33.498   0.591
34482W        W99467   1.641   8.288   1.967
34483W        W99468  26.950  23.063   0.310
34484W        W99469   8.695  19.754  12.545
34485W        W99470  26.197  44.051   9.885
34486W        W99471  36.107   9.665   3.233
34487W        W99472  21.973  33.266   3.297
34488W        W99473  36.935  38.586  11.080
34489W        W99474  25.939   5.926  11.333
34490W        W99475   6.843  36.374  13.145
34491W        W99476   4.997  10.466   0.804
34492W        W99477  24.692  43.505  13.348
34493W        W99478  30.535  29.031   4.609
34494W        W99479  16.550  21.498  10.823
34495W        W99480  44.410   3.692  11.497
34496W        W99481   4.840  15.364  13.300
34497W        W99482   0.875   3.530  12.229
34498W        W99483  39.581   7.657   3.521
34499W        W99484  18.200   9.734   4.892
34500W        W99485  38.080  12.665  12.748
34501W        W99486   3.725  22.302  12.074
34502W        W99487  20.988  34.538   2.860
34503W        W99488  30.466  23.092   3.349
34504W        W99489   2.500   8.527  11.895
34505W        W99490   2.849  41.445   2.857
34506W        W99491  35.969  21.737  14.766
34507W        W99492  41.242  31.205   0.015
34508W        W99493  36.730  23.665  14.397
34509W        W99494  22.525   6.185   4.673
34510W        W99495  38.333  16.703   0.869
34511W        W99496  16.116  10.808  11.975
34512W        W99497  32.182  41.493  11.229
34513W        W99498  24.766  20.876  11.381
34514W        W99499   3.725  37.366  12.594
34515W        W99500  41.054  41.382   0.761
34516W        W99501  33.191  22.971   2.372
34517W        W99502  38.864  17.100   3.682
34518W        W99503  41.879  44.816  14.440
34519W        W99504  40.276   6.401  12.902
34520W        W99505  39.345  11.300   2.855
34521W        W99506  12.274  11.736   2.318
34522W        W99507  26.220  42.938  14.264
34523W        W99508  17.104   9.098  14.352
34524W        W99509  29.405  26.785   3.754
34525W        W99510  21.050   3.635   9.858
34526W        W99511  19.235  15.634   1.728
34527W        W99512  17.374   1.415   1.497
34528W        W99513  16.610  34.449   1.170
34529W        W99514  22.319  20.214  10.086
34530W        W99515  20.791  40.412  11.016
34531W        W99516  20.526  18.988  12.965
34532W        W99517  31.132  18.532   0.915
34533W        W99518  20.045  42.216   1.265
34534W        W99519  11.112  38.463  14.031
34535W        W99520  20.522  23.326  11.670
34536W        W99521  30.905   8.474  13.617
34537W        W99522  20.830  25.252  12.472
34538W        W99523  44.564  14.297   3.612
34539W        W99524  30.082  13.147  13.870
34540W        W99525   0.768  12.688  14.943
34541W        W99526  33.457   8.122   3.160
34542W        W99527  12.496  17.220   3.906
34543W        W99528  16.751  28.237   0.321
34544W        W99529   6.177  10.725   1.373
34545W        W99530   2.992   4.975  12.506
34546W        W99531   7.888  41.312   5.022
34547W        W99532  34.879  36.332  10.455
34548W        W99533  25.530  28.202  11.994
34549W        W99534  36.899  33.178  14.921
34550W        W99535  44.729   0.231   2.469
34551W        W99536  44.541  21.635   0.491
34552W        W99537  36.938  42.606  12.540
34553W        W99538  34.555  14.584   1.719
34554W        W99539  32.107  11.705   3.232
34555W        W99540  12.049  25.245  11.201
34556W        W99541  33.438  42.348   0.091
34557W        W99542  25.550  37.550   3.212
34558W        W99543   7.445  42.215   2.011
34559W        W99544  31.480   0.090  11.671
34560W        W99545  16.049  27.447   1.390
34561W        W99546  10.419   6.760  13.379
34562W        W99547   9.408  43.898  11.557
34563W        W99548  32.939  27.149   2.591
34564W        W99549  26.931   4.239  11.587
34565W        W99550  18.497  32.284  11.360
34566W        W99551  26.129  11.829   4.142
34567W        W99552  27.392  39.386  10.539
34568W        W99553   1.317  23.286   3.563
34569W        W99554  40.989  20.515   1.489
34570W        W99555  44.361  14.170   5.039
34571W        W99556  42.640   7.314  10.265
34572W        W99557  41.923  11.192   3.215
34573W        W99558  18.101  28.636  11.181
34574W        W99559   0.192  41.548   2.425
34575W        W99560  14.703  15.005  13.392
34576W        W99561  43.922   8.329  11.196
34577W        W99562   7.926   0.749  14.045
34578W        W99563  10.905  31.417  14.436
34579W        W99564  24.053  25.699   0.858
34580W        W99565  18.307  18.338   1.698
34581W        W99566  33.556  38.403  12.038
34582W        W99567  19.499  41.937  14.401
34583W        W99568  14.349  42.567  11.079
34584W        W99569   0.814  43.265  10.422
34585W        W99570  13.769  21.592   0.907
34586W        W99571   3.436   2.752  12.494
34587W        W99572  41.107   4.429  12.435
34588W        W99573   3.807  42.525  10.885
34589W        W99574  14.560  39.773  14.845
34590W        W99575  29.034  43.357   0.885
34591W        W99576  21.624  43.969   0.979
34592W        W99577  19.045  33.538  10.661
34593W        W99578  31.528   8.568   9.939
34594W        W99579  21.257  23.249  14.428
34595W        W99580  34.127  37.845  14.960
34596W        W99581   8.503  25.233  13.950
34597W        W99582  12.622  33.433  14.563
34598W        W99583  26.316  42.847   4.703
34599W        W99584   7.307  30.551  14.817
34600W        W99585   4.457  32.551   2.881
34601W        W99586  14.621  41.104  13.362
34602W        W99587  33.920  14.053   3.806
34603W        W99588   4.773  34.333  13.220
34604W        W99589  10.857   4.144   3.007
34605W        W99590  19.166   8.407   1.371
34606W        W99591  37.907  35.969  13.325
34607W        W99592  31.138  12.867  13.124
34608W        W99593  30.625  24.216   1.674
34609W        W99594  43.797  11.716  12.074
34610W        W99595  32.573  33.320   1.499
34611W        W99596  13.193  17.741  12.653
34612W        W99597  13.099   9.386   0.786
34613W        W99598  27.514  31.160   1.783
34614W        W99599  33.193   3.836  14.755
34615W        W99600  14.370   3.236   4.037
34616W        W99601  22.691   0.501   0.306
34617W        W99602   4.212  24.972  10.636
34618W        W99603   8.430  20.548   2.806
34619W        W99604   9.254  34.073   0.332
34620W        W99605   6.612  25.146   1.785
34621W        W99606  42.010  24.940   0.146
34622W        W99607   9.527   3.473  14.055
34623W        W99608  33.211  38.090   4.393
34624W        W99609  34.586  34.082   4.844
34625W        W99610   8.738  26.134   4.140
34626W        W99611  22.173  17.211   1.931
34627W        W99612  13.653  22.657  13.034
34628W        W99613  29.781  17.223   2.689
34629W        W99614  13.733  43.280   0.800
34630W        W99615  42.947  39.855   1.404
34631W        W99616   6.955  27.155  11.990
34632W        W99617   6.721   3.888  11.608
34633W        W99618  34.945  29.396   3.308
34634W        W99619   0.494   7.297  14.005
34635W        W99620   0.484  12.606   3.644
34636W        W99621  16.178   0.541   0.405
34637W        W99622  15.836  38.899   0.841
34638W        W99623  42.419  12.672   3.076
34639W        W99624  36.027  27.316  12.579
34640W        W99625  11.163  19.859  11.599
34641W        W99626  19.732  24.961   2.239
34642W        W99627  21.040  44.420   1.208
34643W        W99628  24.172  12.533  11.191
34644W        W99629  16.580  15.228   2.618
34645W        W99630  32.070  19.840  12.013
34646W        W99631  22.592  28.669  11.585
34647W        W99632  44.752  44.618  11.614
34648W        W99633   5.361  33.619  13.265
34649W        W99634  43.058  15.590   1.030
34650W        W99635  36.795  19.724   2.956
34651W        W99636  10.402  37.176  14.247
34652W        W99637  40.111   3.142  12.053
34653W        W99638   7.182  18.528   0.713
34654W        W99639  23.236  14.881   1.386
34655W        W99640  44.285  38.454   2.231
34656W        W99641   2.337  36.579   4.697
34657W        W99642   1.864  38.342  12.394
34658W        W99643   0.334  33.019  11.203
34659W        W99644   7.530  12.467   4.498
34660W        W99645  17.926  11.607  12.032
34661W        W99646  22.786  18.616  14.870
34662W        W99647  35.921  43.225   0.846
34663W        W99648  17.673  25.397  13.886
34664W        W99649  26.474   8.341   3.677
34665W        W99650  14.789  37.817   3.536
34666W        W99651  25.421  42.997  12.857
34667W        W99652  21.703  38.366   0.874
34668W        W99653  18.731  42.654   2.465
34669W        W99654   9.425  36.507   2.332
34670W        W99655  39.994  31.131   3.275
34671W        W99656  17.297  37.032   3.194
34672W        W99657  16.234  35.588   3.292
34673W        W99658  13.562   7.833   0.054
34674W        W99659  24.493   8.004   1.215
34675W        W99660  36.548  42.995   1.328
34676W        W99661  13.411  22.579   1.794
34677W        W99662   3.118  18.317  13.107
34678W        W99663   1.863   2.318   3.910
34679W        W99664  34.080  43.990   0.526
34680W        W99665   3.365  26.502   2.436
34681W        W99666  16.319  41.422  11.650
34682W        W99667  33.063  14.217   4.095
34683W        W99668  14.380  26.458   1.032
34684W        W99669  19.486   8.328   3.345
34685W        W99670  23.756  10.604  12.660
34686W        W99671  10.075   3.856  11.467
34687W        W99672  44.416  20.073   0.775
34688W        W99673   9.138  43.386   5.133
34689W        W99674  21.151  28.646  12.496
34690W        W99675  26.048  23.212  13.801
34691W        W99676  14.812  22.074  10.636
34692W        W99677  21.220   8.917  10.845
34693W        W99678  31.558  17.958  12.897
34694W        W99679  30.702  33.915  11.616
34695W        W99680   4.210   7.458  14.422
34696W        W99681  21.240  23.454   1.833
34697W        W99682  40.570  42.950  13.577
34698W        W99683   3.611  16.026   2.636
34699W        W99684  42.128  41.814  12.189
34700W        W99685  18.848   7.717   0.888
34701W        W99686   1.443  20.096  13.301
34702W        W99687  39.470  43.388  12.565
34703W        W99688  22.110  37.491  13.707
34704W        W99689  35.802  37.416  12.550
34705W        W99690  37.526  24.495   3.121
34706W        W99691  29.935  32.314  12.036
34707W        W99692   3.450  37.037  11.842
34708W        W99693   6.259  19.359  11.720
34709W        W99694   6.822  43.405  11.897
34710W        W99695  39.581  40.010   4.138
34711W        W99696  42.050  40.684  13.936
34712W        W99697   5.294  14.524  10.700
34713W        W99698   0.501   8.915  12.440
34714W        W99699  36.477   4.771   4.130
34715W        W99700   5.287  41.495   2.651
34716W        W99701  39.835  20.140  12.920
34717W        W99702  15.668  23.116  10.633
34718W        W99703   9.942  32.868   1.462
34719W        W99704   1.429  16.334   4.314
34720W        W99705  37.869  27.119   3.203
34721W        W99706  30.099  19.107   0.465
34722W        W99707  23.188  15.644  13.441
34723W        W99708   7.714  23.940  12.602
34724W        W99709   2.282  10.226  10.893
34725W        W99710   7.321   6.273   3.137
34726W        W99711  32.910  10.372  13.455
34727W        W99712   3.665   8.350  12.779
34728W        W99713  21.893  18.696   0.769
34729W        W99714   7.195  42.933  11.984
34730W        W99715  36.951  20.458   1.216
34731W        W99716  39.799  29.503   2.495
34732W        W99717  40.755   4.728   1.909
34733W        W99718   9.119  13.094   0.883
34734W        W99719   3.054  29.086  14.358
34735W        W99720  38.401  16.118  10.635
34736W        W99721  32.379  28.761   2.622
34737W        W99722  29.167  17.648  11.506
34738W        W99723  38.818  15.024   1.214
34739W        W99724  20.466   2.371   3.325
34740W        W99725  25.979  35.303  13.125
34741W        W99726  23.360  19.646  11.074
34742W        W99727  11.995  10.862  12.447
34743W        W99728   5.340  15.419  12.427
34744W        W99729  43.003  24.197   2.644
34745W        W99730   1.933  25.658   1.291
34746W        W99731  38.922  11.735   4.722
34747W        W99732  44.556   0.061  10.671
34748W        W99733  25.896  32.494  12.060
34749W        W99734  20.401  16.776   2.922
34750W        W99735  30.161  28.730  12.565
34751W        W99736  43.721  40.523  13.336
34752W        W99737  23.753   8.306   1.898
34753W        W99738   9.316  33.418   0.467
34754W        W99739  43.372   1.025   2.795
34755W        W99740  16.092  28.144   2.544
34756W        W99741  14.124  44.455  11.508
34757W        W99742  14.736  41.678  12.076
34758W        W99743   0.980  17.565   4.369
34759W        W99744  44.272  36.588   0.791
34760W        W99745   2.917  41.454   0.721
34761W        W99746   9.276  38.384  12.125
34762W        W99747   2.482  24.530   3.762
34763W        W99748  38.481  32.660  11.905
34764W        W99749  29.922  32.672   3.188
34765W        W99750  17.309  41.390  14.874
34766W        W99751  19.202  29.499   0.367
34767W        W99752  25.936   6.410  10.650
34768W        W99753  26.785  42.938  12.539
34769W        W99754  29.628  30.649  12.885
34770W        W99755  43.634  29.154  11.057
34771W        W99756  23.268  29.505   2.779
34772W        W99757  22.537  32.543  12.392
34773W        W99758  28.099  15.122  14.918
34774W        W99759  16.458  41.976   0.593
34775W        W99760  19.065  44.700   2.517
34776W        W99761  20.722  32.930  12.616
34777W        W99762  41.559  15.270   1.169
34778W        W99763  43.276  10.537   0.046
34779W        W99764  36.084  35.855  10.713
34780W        W99765  20.244  13.815  12.976
34781W        W99766  21.526   2.696  13.002
34782W        W99767  36.130  17.079  12.412
34783W        W99768  36.116  26.459   1.219
34784W        W99769  33.527  13.212  13.509
34785W        W99770  27.885   1.512  11.988
34786W        W99771  13.758  19.557  14.430
34787W        W99772  23.232  35.884  12.184
34788W        W99773   7.950  37.100   2.649
34789W        W99774   8.388  18.466   3.669
34790W        W99775  20.111  42.773  10.754
34791W        W99776  28.694   2.673  14.784
34792W        W99777  18.351  26.970  14.389
34793W        W99778  21.224  30.836   1.852
34794W        W99779  11.647   8.819  12.411
34795W        W99780  36.808  40.745   2.662
34796W        W99781   9.598  36.181  12.428
34797W        W99782  18.216  31.440  10.272
34798W        W99783   1.388  42.203   3.654
34799W        W99784  41.011  30.607   1.012
34800W        W99785  29.522  33.927  14.662
34801W        W99786  43.520  44.223  13.118
34802W        W99787   9.243   6.116   1.273
34803W        W99788  20.299  37.914  14.963
34804W        W99789  36.580  13.847  14.940
34805W        W99790  32.216  35.891   4.985
34806W        W99791  44.193   2.224   2.801
34807W        W99792  21.251  44.304   4.594
34808W        W99793   0.341  13.644   3.748
34809W        W99794   3.320  15.094   4.887
34810W        W99795  40.301  39.849  12.998
34811W        W99796  15.136  37.214   4.574
34812W        W99797  44.430   0.350  11.239
34813W        W99798   2.342  17.487  12.567
34814W        W99799  35.380  34.896   4.502
34815W        W99800  27.030  31.169  14.439
34816W        W99801  41.385  19.662  14.710
34817W        W99802  24.776  44.944   0.854
34818W        W99803  33.450  21.082  11.590
34819W        W99804  34.421   7.611   1.164
34820W        W99805   7.862  11.962  12.860
34821W        W99806  23.253  35.531   0.807
34822W        W99807  11.311  38.009  10.632
34823W        W99808  32.331   6.625   2.227
34824W        W99809  16.979  21.563   0.748
34825W        W99810  38.540  39.328   4.235
34826W        W99811  30.903   1.772  14.844
34827W        W99812   9.398   2.174  13.806
34828W        W99813   2.413  10.176   2.871
34829W        W99814   4.878  33.270   4.153
34830W        W99815  13.650  15.096  12.601
34831W        W99816  14.951   8.406   1.832
34832W        W99817  27.808  27.090   1.723
34833W        W99818   7.795  26.108   2.846
34834W        W99819  42.126   6.146   1.736
34835W        W99820  26.092  42.350  12.887
34836W        W99821   9.344  44.507   0.287
34837W        W99822  37.475  41.228   1.172
34838W        W99823  17.234  42.361  11.172
34839W        W99824  21.005   3.142   0.609
34840W        W99825  31.816  27.742  10.584
34841W        W99826   0.751   7.720  13.848
34842W        W99827  23.643  11.238  10.555
34843W        W99828  23.609  22.677  11.967
34844W        W99829   6.894   3.978  12.109
34845W        W99830  14.246  35.482   3.209
34846W        W99831   5.809   7.198  14.010
34847W        W99832  17.677  10.608  11.920
34848W        W99833   7.167  10.639  12.269
34849W        W99834  36.833  30.946  14.465
34850W        W99835  33.123  34.453   1.373
34851W        W99836  28.141  42.396  12.561
34852W        W99837  41.586  33.655  11.966
34853W        W99838  22.723   9.754   4.625
34854W        W99839  19.294  28.877  10.670
34855W        W99840  33.180   0.519  13.699
34856W        W99841   6.636  31.144  13.255
34857W        W99842  39.284  27.930   2.139
34858W        W99843  12.508  34.166   3.696
34859W        W99844  20.311  18.238   4.078
34860W        W99845  32.492   2.183   0.504
34861W        W99846  33.181  34.118  11.777
34862W        W99847  13.404  41.522   4.606
34863W        W99848  15.665   3.987  14.869
34864W        W99849   9.534  19.818  10.714
34865W        W99850   9.607  31.080  10.690
34866W        W99851   8.583  41.242  12.911
34867W        W99852  32.295  12.712   1.245
34868W        W99853   7.349  31.417  13.012
34869W        W99854   7.474  39.382   4.201
34870W        W99855  23.154  13.551   3.952
34871W        W99856  16.253  40.520  11.201
34872W        W99857  30.007  35.029   2.018
34873W        W99858  20.579   7.036  13.631
34874W        W99859   2.739  43.019  13.005
34875W        W99860   3.957  30.138   3.251
34876W        W99861   5.722  25.116  11.439
34877W        W99862  30.421  31.031   0.264
34878W        W99863  14.187  29.008   0.393
34879W        W99864   1.551  15.800  11.946
34880W        W99865  26.687  32.975  12.063
34881W        W99866  36.953  19.453   3.352
34882W        W99867   4.451  15.355  12.898
34883W        W99868   4.268  26.777  12.160
34884W        W99869  21.150  14.428   4.116
34885W        W99870  36.311   1.955   4.919
34886W        W99871  27.493  17.334   4.541
34887W        W99872  18.698  29.374   0.238
34888W        W99873  14.238  12.192   1.704
34889W        W99874   6.112  35.643  12.915
34890W        W99875  34.895   4.113   2.634
34891W        W99876   4.807   4.902  10.735
34892W        W99877   7.175  29.560  12.013
34893W        W99878  36.221  10.216  13.653
34894W        W99879  38.182  38.814  11.537
34895W        W99880  44.276  22.753   1.936
34896W        W99881  38.457   1.483  12.361
34897W        W99882  16.797  30.235  13.440
34898W        W99883   0.936   3.696  11.057
34899W        W99884   7.761  16.726  13.936
34900W        W99885  44.707   9.199   3.200
34901W        W99886  17.686  26.380   3.993
34902W        W99887   2.907  14.790  10.692
34903W        W99888  40.643   0.367   0.721
34904W        W99889   7.776  10.087  13.516
34905W        W99890  17.780  17.325   3.924
34906W        W99891  40.414  20.706  12.804
34907W        W99892  26.460  41.012  11.219
34908W        W99893  41.379  38.295   4.576
34909W        W99894  40.155  18.739   3.998
34910W        W99895  13.622  20.707  12.991
34911W        W99896  38.241  41.812  11.584
34912W        W99897  31.004   7.700   3.868
34913W        W99898  39.665  12.705   4.204
34914W        W99899  43.810  39.305   0.243
34915W        W99900  33.445  16.098  14.965
34916W        W99901  40.471   3.329  11.162
34917W        W99902   2.812  23.850   3.287
34918W        W99903  24.600  10.875  14.918
34919W        W99904  31.346   7.220  14.072
34920W        W99905   8.990  14.300  11.412
34921W        W99906  14.815  18.144  11.647
34922W        W99907   9.276  37.551   2.292
34923W        W99908  29.555  44.697   3.225
34924W        W99909  39.277  17.200   5.171
34925W        W99910  35.672  22.741   2.394
34926W        W99911  41.909  38.831   0.761
34927W        W99912  18.834  39.041  12.560
34928W        W99913   4.388  39.287  11.082
34929W        W99914  35.095  31.581   1.888
34930W        W99915  21.462  39.072  13.959
34931W        W99916  13.854  22.467   3.919
34932W        W99917  39.819  16.128  14.367
34933W        W99918  28.542  41.394   0.732
34934W        W99919  38.953  34.795   9.831
34935W        W99920  44.218   2.791  11.938
34936W        W99921  33.989  27.101  13.152
34937W        W99922  14.292  15.077   2.318
34938W        W99923  33.603  26.138   2.937
34939W        W99924  31.158   4.460   0.912
34940W        W99925  29.435  10.851  14.000
34941W        W99926  44.707   8.920  14.751
34942W        W99927  33.908   1.836   0.947
34943W        W99928  16.180  12.811   0.529
34944W        W99929   6.534   8.809  13.746
34945W        W99930  30.200  34.819  12.044
34946W        W99931  36.472   6.390  12.469
34947W        W99932   7.235  41.210  13.677
34948W        W99933  43.313  13.894   1.267
34949W        W99934  14.710   7.409   0.850
34950W        W99935  43.522  24.916   4.547
34951W        W99936   4.773  28.481  13.890
34952W        W99937  13.681  41.882  11.940
34953W        W99938  22.997  28.695  14.748
34954W        W99939  14.572  17.135   4.104
34955W        W99940  36.053  37.663   4.932
34956W        W99941  43.052  43.319   4.949
34957W        W99942  44.003  15.114   1.276
34958W        W99943  40.393   8.247   3.635
34959W        W99944  26.264  43.115   2.531
34960W        W99945  43.823   4.430  11.125
34961W        W99946  19.648  10.790   0.060
34962W        W99947   2.210   1.824  10.749
34963W        W99948  38.325  40.318  11.788
34964W        W99949  16.925   9.245   0.906
34965W        W99950  32.168  18.599  11.189
34966W        W99951  23.406  28.608   4.875
34967W        W99952  17.024  13.831   1.404
34968W        W99953  11.399  14.670   1.293
34969W        W99954   6.718  28.257  14.524
34970W        W99955   5.410  43.058  11.089
34971W        W99956  22.781  40.040   2.299
34972W        W99957   8.443  25.899  12.885
34973W        W99958  44.554  14.716   4.454
34974W        W99959  10.851  24.566  13.121
34975W        W99960  10.894  16.661   3.734
34976W        W99961  12.392  31.058  10.672
34977W        W99962  35.612  35.994  14.045
34978W        W99963  27.006   7.476   3.786
34979W        W99964   9.337   5.100  11.205
34980W        W99965  31.797  40.422   4.089
34981W        W99966  30.411  18.610  10.645
34982W        W99967  37.380  41.230  12.478
34983W        W99968  18.025  42.905  12.878
34984W        W99969  39.451  32.827  13.394
34985W        W99970  38.980   9.804  11.422
34986W        W99971  42.491   6.573   3.730
34987W        W99972  37.326   6.521   4.752
34988W        W99973  43.256  20.942   2.173
34989W        W99974  31.624  37.292   2.348
34990W        W99975  18.569   7.288   0.730
34991W        W99976  39.996  21.552   0.858
34992W        W99977  33.131  41.051  13.896
34993W        W99978  26.704  30.107   0.362
34994W        W99979  24.109  38.821   4.466
34995W        W99980  26.967  41.985  11.623
34996W        W99981  43.777  10.823   0.334
34997W        W99982  18.849  33.022   1.945
34998W        W99983  10.833   4.738  12.280
34999W        W99984  14.178  42.822   0.241
35000W        W99985  19.725  28.151   0.361
35001W        W99986  32.096   3.762  14.828
35002W        W99987  43.016  23.186  13.978
35003W        W99988  11.884  19.038   0.762
35004W        W99989  20.112  33.500  14.501
35005W        W99990   1.469  25.026   4.400
35006W        W99991   9.790  13.386  12.060
35007W        W99992  16.205  15.325   1.824
35008W        W99993  26.528  11.915   4.821
35009W        W99994  36.902  13.129  14.359
35010W        W99995  32.905   0.281  11.581
35011W        W99996  36.770   9.973   3.614
35012W        W99997  19.170  33.918  13.445
35013W        W99998  43.586  32.883   1.852
35014W        W99999  28.542  22.906  13.137
35015W        W    0  29.564  32.105  13.781
35016W        W    1  15.661  13.713  14.796
35017W        W    2  32.107  23.285   0.605
35018W        W    3  32.826  24.955   4.764
35019W        W    4   1.385   6.768  13.079
35020W        W    5   2.942  36.090   4.175
35021W        W    6  12.207  11.628  14.368
35022W        W    7  31.041   8.800  10.739
35023W        W    8  38.140   5.275  10.610
35024W        W    9   0.323  22.771  10.711
35025W        W   10  29.043  21.744   4.576
35026W        W   11  40.825  19.510  13.389
35027W        W   12  21.101   2.291   0.304
35028W        W   13  34.010  38.559  12.222
35029W        W   14   0.587  17.762   3.661
35030W        W   15  11.612  29.271   4.193
35031W        W   16  33.306  27.110   0.401
35032W        W   17  43.958  14.153  12.044
35033W        W   18   4.201  18.104   3.373
35034W        W   19  42.197  38.861  14.890
35035W        W   20  44.263  31.384  10.801
35036W        W   21  23.236   2.993  12.203
35037W        W   22  26.519  38.556  12.560
35038W        W   23  24.856  38.065  12.927
35039W        W   24  29.986  38.611   1.466
35040W        W   25   6.000  40.977   1.487
35041W        W   26  42.271   1.409  12.360
35042W        W   27  11.648  21.242  10.564
35043W        W   28  28.445   1.251   1.812
35044W        W   29  12.218  24.435  12.614
35045W        W   30  23.577  28.064  13.269
35046W        W   31   2.668  37.075   0.852
35047W        W   32  32.912  42.852  13.992
35048W        W   33  23.699  29.243  13.510
35049W        W   34   9.163   0.325   3.147
35050W        W   35   4.627  42.876  13.052
35051W        W   36  34.963  27.932  11.647
35052W        W   37  41.458  32.246   1.225
35053W        W   38  25.419  37.452  13.877
35054W        W   39  40.238  24.758   1.254
35055W        W   40  44.412  10.222   2.600
35056W        W   41  40.686  39.408  14.153
35057W        W   42  10.375  11.234  13.042
35058W        W   43  40.917  26.586   1.135
35059W        W   44   7.893   7.233   1.901
35060W        W   45  26.668  32.044   1.386
35061W        W   46  28.971  19.719   1.724
35062W        W   47   1.189   5.922  11.578
35063W        W   48  28.907   4.848  14.870
35064W        W   49  36.308   3.806   3.280
35065W        W   50  25.881   0.219   3.442
35066W        W   51  35.178  18.266   2.325
35067W        W   52  39.412  35.100   2.270
35068W        W   53  30.936  19.599   3.608
35069W        W   54   1.367  27.108  13.984
35070W        W   55  18.569  29.715   2.241
35071W        W   56  32.860  23.929   0.325
35072W        W   57   8.473   2.755   2.680
35073W        W   58   8.337  37.897   4.962
35074W        W   59  20.029  42.026  14.379
35075W        W   60  17.689   9.567   4.930
35076W        W   61  12.813  35.917  10.769
35077W        W   62  30.701  22.567  10.734
35078W        W   63  40.074  20.466   3.305
35079W        W   64  34.829   5.310   4.154
35080W        W   65  17.855  35.479  14.935
35081W        W   66   7.356  31.546  14.361
35082W        W   67  32.151  29.189   2.916
35083W        W   68  12.832  11.592   4.193
35084W        W   69  22.744  29.455   1.845
35085W        W   70  25.244   2.858  14.378
35086W        W   71  22.129   1.947   2.854
35087W        W   72   2.305  19.335   2.213
35088W        W   73  38.119  36.243   0.030
35089W        W   74   1.372  35.909  13.653
35090W        W   75   9.844  19.662  11.161
35091W        W   76  38.863  37.379  11.224
35092W        W   77   0.039   7.276   2.640
35093W        W   78  38.767  18.044  11.374
35094W        W   79  43.238   0.429  11.614
35095W        W   80  13.277  11.494  13.002
35096W        W   81  34.401  21.652   0.012
35097W        W   82  22.263  40.887   3.591
35098W        W   83   4.488  18.065  12.197
35099W        W   84  44.468  26.497   1.188
35100W        W   85  37.893  37.901   1.226
35101W        W   86  11.585   4.121  14.543
35102W        W   87  14.037  17.246  11.146
35103W        W   88  31.115  10.674   4.334
35104W        W   89  29.451  29.898  14.884
35105W        W   90  19.824  41.525  14.421
35106W        W   91  20.664  38.909   3.622
35107W        W   92  20.327  37.511   1.281
35108W        W   93  23.455   1.672  12.489
35109W        W   94  43.890  29.333  10.652
35110W        W   95  11.208  24.467   4.016
35111W        W   96  16.411   0.222   2.333
35112W        W   97  27.222  15.592   3.172
35113W        W   98  44.289  34.963   2.217
35114W        W   99   3.436  35.863  10.400
35115W        W  100  28.790  20.403   0.404
35116W        W  101  43.541   8.797  11.015
35117W        W  102   5.456   7.189   0.394
35118W        W  103   9.676  13.879  12.007
35119W        W  104  23.757  42.321   4.671
35120W        W  105  15.145  36.007   0.970
35121W        W  106   5.943  11.060   2.484
35122W        W  107  37.345  25.578   3.987
35123W        W  108   3.629  12.622  11.180
35124W        W  109  15.559   8.798  12.980
35125W        W  110  28.157  10.862  12.104
35126W        W  111  20.289  24.401   3.308
35127W        W  112  13.187  26.336   1.899
35128W        W  113   4.351  35.339  12.441
35129W        W  114  34.107   0.955   0.361
35130W        W  115  27.008  35.622  13.301
35131W        W  116  34.149  33.096   0.888
35132W        W  117  39.890  28.658   3.209
35133W        W  118   5.668  26.577  13.970
35134W        W  119  12.153  21.133  12.717
35135W        W  120  15.186   1.526   1.033
35136W        W  121  21.621   2.901  12.200
35137W        W  122   8.307  17.633   4.033
35138W        W  123  20.249  41.476   0.266
35139W        W  124  31.436  21.800  11.602
35140W        W  125  22.791  25.710  13.319
35141W        W  126  35.539  13.611  13.030
35142W        W  127   2.639   6.705  11.127
35143W        W  128   3.332  26.939   2.149
35144W        W  129  16.132  39.426  12.927
35145W        W  130   1.168   6.856  11.910
35146W        W  131  33.650   8.890  11.798
35147W        W  132  35.672  31.933   1.813
35148W        W  133   4.814  21.516   9.904
35149W        W  134  30.319  26.404   2.304
35150W        W  135  34.876  28.476  12.132
35151W        W  136  25.100  41.122  13.622
35152W        W  137  18.806  19.765   3.135
35153W        W  138  33.610   2.954   3.630
35154W        W  139   1.480  13.666   2.178
35155W        W  140  28.498  38.514  12.547
35156W        W  141  17.314  25.715   2.713
35157W        W  142  23.612  19.862  14.058
35158W        W  143   2.206  36.330   2.248
35159W        W  144  36.122   4.799   3.140
35160W        W  145  40.516   0.515  14.198
35161W        W  146   4.474  39.890   2.376
35162W        W  147  33.466  26.074  14.486
35163W        W  148  33.406  43.758   2.697
35164W        W  149   2.234  15.605   0.385
35165W        W  150  21.588  41.360  14.033
35166W        W  151  26.434  18.645   0.683
35167W        W  152  25.450   4.505  13.455
35168W        W  153  40.948   4.120  12.042
35169W        W  154  11.303  36.501  11.664
35170W        W  155  16.290   1.218   3.295
35171W        W  156  20.548  25.989  11.054
35172W        W  157   6.929  34.115  10.820
35173W        W  158  26.708   9.326   1.475
35174W        W  159  21.041  12.684  12.788
35175W        W  160  37.568  38.456   0.052
35176W        W  161   9.701  23.683   3.527
35177W        W  162  31.105  22.958   1.699
35178W        W  163  37.567   7.772  11.377
35179W        W  164  34.472   0.987   4.525
35180W        W  165   0.430  43.570   2.367
35181W        W  166  20.042  40.929   2.335
35182W        W  167  20.291  23.192   3.164
35183W        W  168  22.054  41.087  12.432
35184W        W  169  18.418   6.505  11.334
35185W        W  170  23.127   1.426  14.116
35186W        W  171   8.821   5.718  11.645
35187W        W  172  44.398  15.528   4.108
35188W        W  173  19.952  16.200  12.430
35189W        W  174  43.681  41.191   1.699
35190W        W  175  31.150  14.857   0.296
35191W        W  176  26.097  17.882  10.573
35192W        W  177  39.556   2.667   0.751
35193W        W  178  41.000   0.831  12.109
35194W        W  179  28.476  28.007   4.386
35195W        W  180   4.286  36.980   2.377
35196W        W  181   5.203  44.961  13.595
35197W        W  182   0.306  22.601   3.115
35198W        W  183   4.901  36.002   0.696
35199W        W  184   3.723  36.106  11.564
35200W        W  185   6.693  42.954  12.106
35201W        W  186  33.460   4.352   3.589
35202W        W  187  38.759  44.480  14.968
35203W        W  188  31.944  40.316  11.019
35204W        W  189  29.080  20.989   2.297
35205W        W  190  44.237  39.306   4.079
35206W        W  191  33.554  35.025  12.988
35207W        W  192  13.723  41.458  14.698
35208W        W  193  24.509  30.127   0.422
35209W        W  194  42.023  38.345   0.613
35210W        W  195  17.456  27.192   0.885
35211W        W  196  38.962   5.704   2.444
35212W        W  197  19.062  35.880   0.614
35213W        W  198  40.987  29.105   2.180
35214W        W  199   0.181  36.035  11.112
35215W        W  200  30.790   4.782   0.002
35216W        W  201  31.093  43.974  14.276
35217W        W  202   8.215  40.793  13.771
35218W        W  203  40.551  42.090  13.969
35219W        W  204  15.214  19.305   0.784
35220W        W  205  29.322   6.086   0.942
35221W        W  206   1.107   4.761   3.637
35222W        W  207  32.933  30.675   3.275
35223W        W  208  11.388   4.558   1.343
35224W        W  209  27.074  11.333   0.886
35225W        W  210  36.102  44.520  11.422
35226W        W  211  18.690   5.701  13.416
35227W        W  212   4.208  20.528   4.614
35228W        W  213   3.519  17.339  14.971
35229W        W  214  20.095   1.167  12.209
35230W        W  215  12.263  35.074  14.480
35231W        W  216   2.911   3.104   0.015
35232W        W  217   8.929   3.557   4.175
35233W        W  218  21.640  28.446  12.474
35234W        W  219   1.729  10.756  11.777
35235W        W  220  35.310  31.296  13.878
35236W        W  221   4.324  10.217   1.762
35237W        W  222  10.880  30.171  11.441
35238W        W  223  28.140  23.438  11.917
35239W        W  224  25.059   5.747   3.259
35240W        W  225  27.448  11.712   3.766
35241W        W  226  31.947  23.173  12.595
35242W        W  227   4.235   8.399   1.960
35243W        W  228  41.297  33.541  12.429
35244W        W  229   9.662  25.650  12.519
35245W        W  230  21.092  11.211  13.836
35246W        W  231  24.701  22.539   4.377
35247W        W  232   5.335  40.921  12.401
35248W        W  233  28.976  44.981  14.394
35249W        W  234  11.278  15.523  13.021
35250W        W  235  17.558  15.338   3.838
35251W        W  236   1.473   8.256   1.480
35252W        W  237  25.015  12.282  10.628
35253W        W  238  15.971  44.509  12.576
35254W        W  239  27.171  23.962   4.219
35255W        W  240   8.380  34.936   4.704
35256W        W  241  36.050  16.592  11.514
35257W        W  242  23.729  27.050   4.396
35258W        W  243  17.760  23.053   0.888
35259W        W  244  19.956  16.556  10.255
35260W        W  245  28.818  18.096   1.926
35261W        W  246  18.396  25.426  14.227
35262W        W  247  20.225  18.596  12.245
35263W        W  248   0.182   1.339  12.444
35264W        W  249  21.201  26.652   3.433
35265W        W  250  39.656  32.692   0.300
35266W        W  251  23.371   9.853   4.457
35267W        W  252  16.547  34.338   3.749
35268W        W  253  43.359  15.204  14.554
35269W        W  254  13.282  29.541   3.271
35270W        W  255  22.650   0.050   4.072
35271W        W  256  24.962  39.505   2.830
35272W        W  257   5.277  43.567  12.547
35273W        W  258  13.305   0.578  13.152
35274W        W  259  10.759  18.375   4.393
35275W        W  260  38.548  26.857   0.270
35276W        W  261   5.764  29.880  12.819
35277W        W  262   5.248  25.544   2.587
35278W        W  263  41.925  23.098  10.574
35279W        W  264  12.884  36.116   1.869
35280W        W  265  22.590  12.363  11.745
35281W        W  266  29.066  40.948  13.094
35282W        W  267   6.969   2.153   3.639
35283W        W  268  17.571  42.790   0.653
35284W        W  269  28.014   1.603   0.166
35285W        W  270  10.559   3.724  11.362
35286W        W  271  44.277  32.607  12.180
35287W        W  272  23.303  19.481  11.550
35288W        W  273  31.095   8.775   4.974
35289W        W  274  11.898  10.075   0.851
35290W        W  275  34.010  24.153  14.012
35291W        W  276   7.760  36.980  14.782
35292W        W  277  15.979  11.752  12.279
35293W        W  278  41.835  32.976  12.872
35294W        W  279  40.430  13.356  11.177
35295W        W  280   5.026  14.561   1.728
35296W        W  281  14.425  44.077  12.473
35297W        W  282   5.780  11.630  13.474
35298W        W  283   1.903  17.297  13.212
35299W        W  284  20.654  14.142   3.395
35300W        W  285   2.917  39.861   3.428
35301W        W  286  37.965  30.617  10.213
35302W        W  287  15.904  22.770  11.496
35303W        W  288   7.185  21.631   4.166
35304W        W  289  14.752   4.706  11.672
35305W        W  290  39.760  18.263   3.735
35306W        W  291  40.781  21.619  12.002
35307W        W  292  12.169  28.940  11.759
35308W        W  293  35.384  21.159   2.765
35309W        W  294  18.615  41.547  14.759
35310W        W  295  11.998  34.581  11.703
35311W        W  296  37.759  21.555   3.709
35312W        W  297   4.195  28.097   0.298
35313W        W  298  29.135  42.823   4.592
35314W        W  299  41.299  29.154  14.907
35315W        W  300  33.838  36.487   1.191
35316W        W  301  42.265  15.748   4.117
35317W        W  302   4.232  36.578  13.215
35318W        W  303  26.668   3.780  11.558
35319W        W  304   8.767   6.404  12.921
35320W        W  305  44.016   6.631   1.476
35321W        W  306   5.822  32.939  13.299
35322W        W  307  16.808  32.384  14.879
35323W        W  308  28.629  42.595   2.761
35324W        W  309   3.243  23.939  11.660
35325W        W  310   3.163  28.473  13.913
35326W        W  311  31.377  42.542  14.357
35327W        W  312  40.847   2.995  11.055
35328W        W  313  34.888  32.677  13.141
35329W        W  314  26.682  18.818  13.266
35330W        W  315   5.387  20.566  12.949
35331W        W  316  19.770  13.317  10.964
35332W        W  317   1.027   7.822  14.897
35333W        W  318   8.668   4.298   3.675
35334W        W  319   7.760  29.880  11.378
35335W        W  320  22.676  37.172   3.306
35336W        W  321  25.025   1.953   1.680
35337W        W  322   4.983  38.484  11.213
35338W        W  323   1.237  30.444  13.432
35339W        W  324  43.997  30.287   0.270
35340W        W  325  31.166   2.999   3.365
35341W        W  326  14.084   6.058   0.095
35342W        W  327  41.308  31.113  14.065
35343W        W  328  33.450  30.496  10.208
35344W        W  329  28.682  38.267  11.975
35345W        W  330  41.850  15.851  13.549
35346W        W  331   2.207  31.069  13.858
35347W        W  332  39.563   3.985  12.954
35348W        W  333  20.746   8.601  10.728
35349W        W  334  34.580  10.438  14.369
35350W        W  335  22.097  15.187  11.956
35351W        W  336  20.414   5.855  10.674
35352W        W  337   5.933  32.142  13.084
35353W        W  338  37.802  38.458   2.729
35354W        W  339   5.080  30.773   1.153
35355W        W  340  32.154   3.263  12.578
35356W        W  341   1.332  18.569  14.708
35357W        W  342  31.703  12.147   3.711
35358W        W  343  40.905   9.379  14.916
35359W        W  344  11.614   2.848  14.343
35360W        W  345   8.429  40.055   2.010
35361W        W  346  28.167   8.763   5.164
35362W        W  347  13.323   6.008   4.290
35363W        W  348  13.809  14.284  12.956
35364W        W  349  41.722  33.326  11.082
35365W        W  350  24.081  15.370  11.597
35366W        W  351  40.458  12.425   0.422
35367W        W  352  16.815  42.957  11.672
35368W        W  353  20.202  44.539  11.496
35369W        W  354  42.936   4.364  14.420
35370W        W  355  33.584  33.012   2.932
35371W        W  356  32.818  23.636   1.013
35372W        W  357  26.908  34.235   1.033
35373W        W  358  10.103  42.446  13.101
35374W        W  359   7.737   7.659   2.128
35375W        W  360  35.651  32.206  11.198
35376W        W  361  32.523   7.876  11.553
35377W        W  362  33.912  37.824  13.328
35378W        W  363  21.959   2.195   0.858
35379W        W  364  29.214  43.499   1.352
35380W        W  365  22.026  44.614  11.279
35381W        W  366  44.525  43.088   4.219
35382W        W  367  20.267  20.676   3.044
35383W        W  368  37.571  22.777   2.263
35384W        W  369  23.324  18.778   3.157
35385W        W  370  40.967  36.452   0.862
35386W        W  371  44.105  42.453  14.888
35387W        W  372  33.083  29.114   2.846
35388W        W  373  32.949  36.381   3.897
35389W        W  374  35.928  22.450   4.534
35390W        W  375  44.440  35.666  14.574
35391W        W  376   4.274  42.416  14.666
35392W        W  377  39.667  42.676  13.149
35393W        W  378   2.307  21.024   3.857
35394W        W  379   1.258  42.328  13.549
35395W        W  380  24.542  43.272   4.838
35396W        W  381  43.894  10.807  12.089
35397W        W  382  40.309  30.016  13.931
35398W        W  383  35.392  32.232  10.756
35399W        W  384  17.557  38.070  14.994
35400W        W  385  20.337  29.120   4.139
35401W        W  386  36.102  34.571   4.079
35402W        W  387  20.031   4.024  10.871
35403W        W  388  19.488  21.266  14.319
35404W        W  389   6.378  17.042   3.205
35405W        W  390  40.560   8.621  12.033
35406W        W  391  15.692  11.392   3.613
35407W        W  392  25.297  21.818   2.393
35408W        W  393  35.363  23.584  14.765
35409W        W  394   3.383  40.100   1.071
35410W        W  395  34.080   2.470  13.041
35411W        W  396  35.927  34.184  12.607
35412W        W  397   7.289  27.520   1.861
35413W        W  398  15.249   4.793   2.063
35414W        W  399  34.482  35.637   3.154
35415W        W  400  25.758  21.492  13.425
35416W        W  401   6.883  22.764   4.776
35417W        W  402  44.561   8.336  10.381
35418W        W  403  13.669  23.298  11.611
35419W        W  404  14.143   3.423  12.563
35420W        W  405   4.643  36.004   1.567
35421W        W  406  11.982  15.794   0.897
35422W        W  407   9.080  40.931  10.567
35423W        W  408  15.393  30.023   1.887
35424W        W  409  33.135  29.960   2.273
35425W        W  410  41.819  33.511   5.203
35426W        W  411  36.491  19.190   1.275
35427W        W  412  20.516  30.505  14.503
35428W        W  413  40.877  27.649  12.390
35429W        W  414  31.057  10.847   1.827
35430W        W  415  24.799  19.990   2.368
35431W        W  416   0.369  21.987   0.911
35432W        W  417   5.637   0.917  12.943
35433W        W  418  17.067   0.820  12.419
35434W        W  419  43.483  20.031  11.589
35435W        W  420  28.929  20.366  10.772
35436W        W  421  33.880  13.784  13.747
35437W        W  422  13.136  19.820  10.512
35438W        W  423   2.337   7.813   0.313
35439W        W  424   3.984  18.102   5.162
35440W        W  425  42.382  10.578  14.700
35441W        W  426  18.740   2.002   2.354
35442W        W  427  11.552  35.257  11.684
35443W        W  428  25.589  22.315   4.146
35444W        W  429  21.108   6.402   1.739
35445W        W  430   7.814  31.206  11.537
35446W        W  431  15.280  35.356   4.272
35447W        W  432  44.441  36.486   4.114
35448W        W  433  17.659  16.297   4.658
35449W        W  434  19.678  25.463  11.105
35450W        W  435   7.832  40.501  10.357
35451W        W  436  27.757  13.281  10.236
35452W        W  437  16.593  40.055  11.958
35453W        W  438  34.014  21.267  12.847
35454W        W  439  26.483  14.172   0.961
35455W        W  440  27.502  43.087  14.505
35456W        W  441  13.915   0.388   1.195
35457W        W  442  41.950   5.844   0.742
35458W        W  443  14.931  37.471  11.899
35459W        W  444  38.133  28.914  11.773
35460W        W  445   5.745  16.529   2.852
35461W        W  446  14.100   3.716  12.138
35462W        W  447  43.854   9.990   1.948
35463W        W  448  12.405  20.716   1.899
35464W        W  449  34.518  34.326   0.517
35465W        W  450  44.666  16.002   1.896
35466W        W  451  16.507  40.096  11.078
35467W        W  452  35.201  13.296  13.926
35468W        W  453  15.725  43.955  12.826
35469W        W  454  40.862  19.698   2.199
35470W        W  455  44.764   1.247   2.671
35471W        W  456  29.064  24.643   1.692
35472W        W  457  24.126   5.183   0.723
35473W        W  458  40.866   1.927  12.468
35474W        W  459  16.328  34.672  12.473
35475W        W  460  42.658   9.051   0.277
35476W        W  461  30.419  31.535   1.976
35477W        W  462  38.792   1.205   0.085
35478W        W  463  39.118   4.466  11.698
35479W        W  464  43.059   9.716  11.249
35480W        W  465  14.294  13.571  13.840
35481W        W  466  13.782  37.506  12.047
35482W        W  467  32.787   5.461   5.029
35483W        W  468  26.925  37.090  11.084
35484W        W  469  19.098  41.394  12.048
35485W        W  470   0.870  23.623  10.215
35486W        W  471  41.101  23.687   0.217
35487W        W  472  34.074  38.229   4.528
35488W        W  473  38.406  43.640   1.316
35489W        W  474   0.548  10.203  14.332
35490W        W  475   1.755  29.310  12.540
35491W        W  476   6.958  30.562  12.478
35492W        W  477  18.664  15.233   1.111
35493W        W  478   6.235  18.517   1.734
35494W        W  479  31.890  32.654  14.982
35495W        W  480  25.059  42.440   1.899
35496W        W  481  14.247  34.563   2.923
35497W        W  482   3.672   4.717  14.671
35498W        W  483  42.882  26.938  13.963
35499W        W  484  42.703  24.529   2.260
35500W        W  485  15.158  17.760  14.090
35501W        W  486  14.023   7.363  14.623
35502W        W  487   2.169   9.229  12.965
35503W        W  488  36.070  20.963   1.286
35504W        W  489  22.737  11.357  12.805
35505W        W  490  10.157   5.175  13.424
35506W        W  491  32.068  35.452  11.892
35507W        W  492   2.977  43.284  12.424
35508W        W  493  11.053  35.445  12.532
35509W        W  494  33.884  22.635  11.618
35510W        W  495  16.731  16.059  13.538
35511W        W  496   8.666  38.057   4.041
35512W        W  497  10.111   4.427  12.201
35513W        W  498   7.788   3.313   4.466
35514W        W  499  15.184  14.055   4.675
35515W        W  500   6.852  34.566  12.438
35516W        W  501  29.050  27.269  12.129
35517W        W  502   2.755  15.713  13.970
35518W        W  503  44.302  23.211  13.193
35519W        W  504  23.890  40.713   4.346
35520W        W  505  22.856   5.343  11.140
35521W        W  506   3.990   8.339   0.680
35522W        W  507   5.916  12.320  10.489
35523W        W  508  20.790   2.763  12.528
35524W        W  509   2.310  37.630   1.655
35525W        W  510  39.818  34.345  11.960
35526W        W  511  26.723  41.615   2.866
35527W        W  512  16.354  39.455   0.296
35528W        W  513  41.874  36.975  13.899
35529W        W  514  15.760  11.967  13.926
35530W        W  515  41.106  10.495  14.473
35531W        W  516  25.981   9.408   0.877
35532W        W  517  40.415  16.672  12.114
35533W        W  518  13.289  36.590   1.345
35534W        W  519  25.729  39.440  11.271
35535W        W  520  43.243  33.974   2.342
35536W        W  521  28.172  39.404  12.581
35537W        W  522   0.249  31.608  13.681
35538W        W  523  30.760  10.805   0.247
35539W        W  524  10.759  27.652  11.113
35540W        W  525  11.631  36.623  12.041
35541W        W  526   6.247  32.150   0.045
35542W        W  527   2.916   9.435  12.585
35543W        W  528  43.988  28.945   2.296
35544W        W  529  11.814  37.023  13.533
35545W        W  530  14.202  17.677  11.712
35546W        W  531  30.884  33.885   3.260
35547W        W  532  11.205   9.151  12.667
35548W        W  533   8.478  31.423   3.369
35549W        W  534  18.630  10.903  13.752
35550W        W  535   6.860  18.733  12.603
35551W        W  536   6.442  33.800   3.739
35552W        W  537  37.996  28.797  11.145
35553W        W  538  19.130   9.349  14.449
35554W        W  539  21.742  35.512   3.641
35555W        W  540  27.751  12.455   1.333
35556W        W  541  28.749  43.057   2.971
35557W        W  542  42.865   4.111  13.046
35558W        W  543   3.382  18.424   5.201
35559W        W  544   7.944   7.975  11.502
35560W        W  545  14.628   2.644  12.120
35561W        W  546   4.870   0.333  13.621
35562W        W  547   9.444  12.654   0.782
35563W        W  548  11.813   4.429  13.579
35564W        W  549   9.116  41.666  13.507
35565W        W  550   6.337  12.664  14.967
35566W        W  551  15.243   2.782   1.300
35567W        W  552  31.079  40.377   1.985
35568W        W  553   0.453  44.400   1.801
35569W        W  554  44.953  34.637  13.881
35570W        W  555  22.142  43.568  11.166
35571W        W  556   4.739   6.760   4.935
35572W        W  557  14.629  18.023  12.535
35573W        W  558   5.906  44.470  14.909
35574W        W  559  44.251  17.395  11.667
35575W        W  560  24.640   5.134   1.246
35576W        W  561  31.703  20.774   2.199
35577W        W  562  21.565  28.454   1.332
35578W        W  563  24.269   3.410   3.889
35579W        W  564  26.417  31.635  10.716
35580W        W  565  35.369  22.118  10.795
35581W        W  566  37.448   2.863  12.629
35582W        W  567  16.527   0.908  12.413
35583W        W  568  32.706  13.302  14.964
35584W        W  569  14.231  11.179  14.952
35585W        W  570  25.287  16.564   4.151
35586W        W  571  41.884   5.427  13.780
35587W        W  572  15.343  16.497  14.859
35588W        W  573  33.555   2.472  14.881
35589W        W  574  32.561   5.647   4.567
35590W        W  575  26.193  36.755  14.827
35591W        W  576   6.281  30.095   4.048
35592W        W  577  25.841   8.208   0.403
35593W        W  578  28.046  16.135   4.095
35594W        W  579  24.681  39.111  14.006
35595W        W  580  22.519   9.389  12.350
35596W        W  581  41.902  42.070  11.333
35597W        W  582  43.959  41.031   5.014
35598W        W  583  20.283  17.464  11.115
35599W        W  584  32.628   5.444   3.669
35600W        W  585  19.211  41.312  13.541
35601W        W  586  14.262  13.739  10.786
35602W        W  587  37.346  43.491  10.593
35603W        W  588  21.666  27.964   9.902
35604W        W  589  33.281  44.777  13.987
35605W        W  590  43.339  22.055  11.134
35606W        W  591  33.386  35.127  13.455
35607W        W  592  18.882  25.503  14.027
35608W        W  593  33.378   4.441  14.842
35609W        W  594  39.966   4.637  14.364
35610W        W  595  39.313  44.947  10.743
35611W        W  596   9.149  12.641  12.956
35612W        W  597  21.283  43.008   0.400
35613W        W  598  19.236  34.021   1.241
35614W        W  599  43.889  31.507  14.852
35615W        W  600  39.941  13.233   0.295
35616W        W  601   6.375  31.594  11.690
35617W        W  602   7.205  24.587  13.047
35618W        W  603  12.133  39.101   2.702
35619W        W  604   3.667  24.058  13.388
35620W        W  605  39.644   0.496  14.385
35621W        W  606   8.630  19.619  14.927
35622W        W  607  18.282  22.736  11.956
35623W        W  608  42.591  20.452  12.620
35624W        W  609  38.892  31.456   0.296
35625W        W  610  32.941   5.662  11.769
35626W        W  611  18.174  31.937  11.577
35627W        W  612   1.307  37.495   3.430
35628W        W  613  11.013  37.567   2.729
35629W        W  614  29.089  17.697  14.083
35630W        W  615   8.066  27.520   0.360
35631W        W  616  28.056  19.304  12.552
35632W        W  617  36.000  29.955   0.152
35633W        W  618  15.718  19.082   3.189
35634W        W  619  37.886  25.013   4.186
35635W        W  620  39.639  34.366   0.828
35636W        W  621  17.256  40.854  13.090
35637W        W  622   9.948   0.914   4.825
35638W        W  623  39.449  41.163  11.976
35639W        W  624  24.646  15.839  11.307
35640W        W  625  39.834  40.367  11.198
35641W        W  626  29.119  14.208   0.755
35642W        W  627  19.698  25.114  12.865
35643W        W  628  42.015  15.518  11.147
35644W        W  629  39.412  15.407   4.889
35645W        W  630  24.751  26.672  11.629
35646W        W  631  17.663  27.172   2.239
35647W        W  632  40.084  28.641  14.321
35648W        W  633  34.989  12.740  12.843
35649W        W  634  32.855  19.611  11.609
35650W        W  635  12.834  13.124   0.477
35651W        W  636  32.339  17.612   2.332
35652W        W  637  10.315  21.425   1.461
35653W        W  638  41.964   7.325   0.217
35654W        W  639  42.930   4.110   0.224
35655W        W  640  41.420  31.202   4.472
35656W        W  641  18.584   9.624   3.960
35657W        W  642  16.122  43.770   2.482
35658W        W  643  44.012  34.091  13.816
35659W        W  644  28.680   5.038  13.467
35660W        W  645  27.534  19.957  12.722
35661W        W  646  39.086  27.725  12.354
35662W        W  647  21.161   5.715   2.502
35663W        W  648   5.530   6.800   3.263
35664W        W  649  27.943  44.060  14.452
35665W        W  650  29.694   3.543  12.442
35666W        W  651  21.637  36.807   0.470
35667W        W  652  36.443  18.527   4.919
35668W        W  653  44.821  32.040  12.911
35669W        W  654  42.398  11.003   4.848
35670W        W  655   4.992   6.120   5.424
35671W        W  656  28.117  40.936   3.270
35672W        W  657  13.663  37.569   2.429
35673W        W  658  22.700  10.324   4.612
35674W        W  659  24.545  32.024  11.692
35675W        W  660  27.194  36.864  13.810
35676W        W  661  36.359  38.881  13.237
35677W        W  662  20.720   4.884  12.140
35678W        W  663   3.628  34.915   4.565
35679W        W  664  31.891  28.515   1.773
35680W        W  665  19.994  31.362  12.040
35681W        W  666  39.728   5.814  11.399
35682W        W  667  42.236  43.024   2.333
35683W        W  668  34.618  20.056   4.413
35684W        W  669  32.893  34.763   2.212
35685W        W  670   1.426  15.833   2.835
35686W        W  671  14.075  36.368   3.070
35687W        W  672  36.622   6.903  13.156
35688W        W  673  17.728   5.161  13.567
35689W        W  674  35.072  27.315  12.466
35690W        W  675   0.726  27.578   3.787
35691W        W  676  42.317   4.173   1.201
35692W        W  677  43.403  18.840   0.231
35693W        W  678   4.176   0.711   1.244
35694W        W  679  37.219  33.086  14.529
35695W        W  680   4.500  31.749   3.382
35696W        W  681  30.234  35.106   4.246
35697W        W  682  18.328  30.933   0.079
35698W        W  683  23.466  36.027  12.617
35699W        W  684  10.359   6.196   1.770
35700W        W  685  27.173  29.152   1.102
35701W        W  686  40.008  39.067   2.975
35702W        W  687  33.977  16.738  14.830
35703W        W  688  30.490  25.081   3.614
35704W        W  689  26.496  22.940  13.826
35705W        W  690   6.747  16.305  14.344
35706W        W  691  37.761  33.607   2.568
35707W        W  692  13.051  15.645   3.276
35708W        W  693  36.497  38.574  12.033
35709W        W  694   0.390  43.057   2.204
35710W        W  695  41.038  28.516   2.742
35711W        W  696  41.863  17.248  13.382
35712W        W  697  15.097  39.598  10.693
35713W        W  698  40.374  40.955   0.355
35714W        W  699  36.570  26.037   3.838
35715W        W  700   1.532  10.675   0.307
35716W        W  701   7.674  12.471  12.709
35717W        W  702  23.996  35.424   3.700
35718W        W  703  12.307  19.262  10.674
35719W        W  704  28.500  27.466   1.446
35720W        W  705  37.357   2.146  14.941
35721W        W  706   1.697   2.102  11.413
35722W        W  707  13.756  41.126  14.284
35723W        W  708  31.560  40.303   1.225
35724W        W  709  16.973  41.835   0.711
35725W        W  710  10.251   9.994  14.407
35726W        W  711  15.731  28.048   3.800
35727W        W  712  24.526   1.847   0.235
35728W        W  713  11.688  35.482  10.124
35729W        W  714  20.208  20.759  14.651
35730W        W  715  12.520  32.945  14.986
35731W        W  716  30.862   7.722  11.491
35732W        W  717   4.349   4.688  10.588
35733W        W  718   5.110  42.076   4.146
35734W        W  719  41.259   0.005  12.977
35735W        W  720  22.492  15.877  11.558
35736W        W  721  38.080  29.035  10.678
35737W        W  722  38.559  35.814  14.125
35738W        W  723  18.840  22.236   0.913
35739W        W  724  39.240  42.517   2.010
35740W        W  725   6.226  32.589   1.394
35741W        W  726  10.849  44.186   4.585
35742W        W  727  35.020  30.903  13.708
35743W        W  728  35.552  44.476  10.461
35744W        W  729  31.570  14.331  12.922
35745W        W  730   6.037  32.386   3.173
35746W        W  731  26.588  25.262  10.665
35747W        W  732  25.592  25.638  10.630
35748W        W  733  27.469  27.530   1.556
35749W        W  734  35.345  34.951   3.650
35750W        W  735  21.458  27.040  10.528
35751W        W  736  34.919  14.701  11.610
35752W        W  737  12.557  41.003  12.021
35753W        W  738  18.128   6.703  13.876
35754W        W  739  18.742  17.105  14.087
35755W        W  740  31.968   2.513  11.762
35756W        W  741  30.652   7.526   1.168
35757W        W  742  40.198  31.022  10.976
35758W        W  743  10.536  11.563  10.604
35759W        W  744  28.927  11.925   1.864
35760W        W  745  14.852  33.559   1.312
35761W        W  746  38.351  22.119   1.846
35762W        W  747  20.699  24.805   3.271
35763W        W  748  10.408  39.210   4.237
35764W        W  749  23.189   8.407  12.950
35765W        W  750  18.625  17.191   0.522
35766W        W  751  36.321  18.228  13.910
35767W        W  752  30.181   8.148  12.949
35768W        W  753  28.151   0.024  12.063
35769W        W  754   4.970  25.058  11.950
35770W        W  755  17.778   6.392  13.592
35771W        W  756   6.898  16.326   3.616
35772W        W  757  34.757  29.423  13.499
35773W        W  758  39.330  12.292   2.817
35774W        W  759  30.002  33.698   4.316
35775W        W  760  30.128   0.554  11.111
35776W        W  761  10.435  13.131   0.464
35777W        W  762   0.936  15.672  10.516
35778W        W  763  19.697  38.974  12.177
35779W        W  764  41.871   7.188  13.010
35780W        W  765  27.620  20.093  11.448
35781W        W  766   3.447  21.012  12.073
35782W        W  767  32.394   6.595  13.744
35783W        W  768  12.924  16.217   1.748
35784W        W  769  40.422  42.411  13.507
35785W        W  770  19.521  37.303   2.374
35786W        W  771  39.765  44.628   0.641
35787W        W  772  20.814  25.620   1.468
35788W        W  773  17.291   1.445  10.708
35789W        W  774  38.958  13.843  11.900
35790W        W  775  42.887  29.498   5.054
35791W        W  776  20.420  25.910   4.156
35792W        W  777  22.156  43.995   3.187
35793W        W  778  41.759  32.216   1.705
35794W        W  779  13.767  16.242  13.269
35795W        W  780   7.655   8.465   4.172
35796W        W  781  40.931  35.936  12.178
35797W        W  782  37.071   2.652   3.113
35798W        W  783  26.881  32.973   0.280
35799W        W  784  32.038  43.289  10.515
35800W        W  785   0.323  29.178  11.701
35801W        W  786  27.034  43.793  11.635
35802W        W  787  26.470  38.063  10.549
35803W        W  788  40.231  33.097  14.482
35804W        W  789  23.502   3.722   1.363
35805W        W  790  23.061  25.636   2.510
35806W        W  791  25.913  36.778   3.760
35807W        W  792  32.620  29.991  11.046
35808W        W  793  34.059  41.985  14.725
35809W        W  794  27.377  17.701   1.956
35810W        W  795  21.043  32.852   3.185
35811W        W  796  24.124  26.319   9.939
35812W        W  797  37.958  42.456  13.252
35813W        W  798  21.143  34.703  13.019
35814W        W  799   9.858   8.381   3.695
35815W        W  800  41.323  29.647  11.115
35816W        W  801  12.191  17.479  12.314
35817W        W  802  22.524   1.563   5.058
35818W        W  803  23.606  38.279   0.449
35819W        W  804  34.198  38.954  10.442
35820W        W  805  36.809  31.549  12.085
35821W        W  806  10.691  16.254  14.345
35822W        W  807  12.340   2.434   4.727
35823W        W  808  18.771  28.654  11.811
35824W        W  809  33.547  14.825  11.453
35825W        W  810   8.826  32.442  13.703
35826W        W  811   5.448   5.013  13.418
35827W        W  812  15.951  33.432  14.739
35828W        W  813   1.330  14.335  13.009
35829W        W  814   7.390  28.972   2.414
35830W        W  815  44.007  24.665  10.213
35831W        W  816  22.646   1.321  12.491
35832W        W  817   6.949   9.590   3.620
35833W        W  818  29.599  33.335   4.271
35834W        W  819  43.574  37.120   3.240
35835W        W  820  37.804  25.348   4.640
35836W        W  821  43.328   2.516  11.605
35837W        W  822   4.498   2.853  14.406
35838W        W  823  25.431  42.325  11.564
35839W        W  824  30.338  42.898  10.634
35840W        W  825  24.986  34.504   4.886
35841W        W  826   4.374   3.559  13.940
35842W        W  827   6.311   9.848  11.208
35843W        W  828  25.274  21.490   2.789
35844W        W  829   6.357  11.051  14.879
35845W        W  830  22.186  18.885   4.953
35846W        W  831  24.533   7.663  12.950
35847W        W  832  34.584   9.337   3.169
35848W        W  833  42.814  22.019  11.043
35849W        W  834  16.046  36.027  12.405
35850W        W  835  41.483  37.312  13.958
35851W        W  836   2.796  13.141   1.379
35852W        W  837  20.594  37.951   2.160
35853W        W  838  17.369  24.175   0.831
35854W        W  839  15.146   3.293   0.444
35855W        W  840  28.073  21.691   4.588
35856W        W  841  40.825  35.870  11.682
35857W        W  842  25.074  30.023   5.378
35858W        W  843   9.856  39.667   1.604
35859W        W  844   7.646  38.279   2.246
35860W        W  845  40.053  39.059  12.539
35861W        W  846   5.984  44.455   3.129
35862W        W  847  30.319  33.076  13.025
35863W        W  848  26.758  42.997  13.344
35864W        W  849   6.382  18.726  14.046
35865W        W  850  35.656  28.492   3.693
35866W        W  851  41.926  38.012   5.092
35867W        W  852  10.104  42.975   1.948
35868W        W  853  25.918  16.283  14.332
35869W        W  854  38.361  41.342  14.448
35870W        W  855  40.843  30.925  14.820
35871W        W  856  35.956  32.596   0.737
35872W        W  857  23.308   3.313  12.830
35873W        W  858  20.759   9.688  12.527
35874W        W  859  11.891   1.305  12.842
35875W        W  860  40.365   8.680  13.992
35876W        W  861  14.297  13.391  12.085
35877W        W  862  26.722   2.580   1.346
35878W        W  863  28.869  14.716   2.932
35879W        W  864  31.414  14.641   2.910
35880W        W  865  29.327   7.402  14.257
35881W        W  866  12.279  27.681  11.977
35882W        W  867  29.544  26.695   0.924
35883W        W  868  25.629  25.413   3.900
35884W        W  869  33.502  16.929   2.157
35885W        W  870  13.948   4.462   0.104
35886W        W  871  35.892   2.966  12.519
35887W        W  872  30.037  10.600  14.740
35888W        W  873   8.240  36.617   3.257
35889W        W  874  11.272  31.070  14.069
35890W        W  875   7.745   7.580   4.137
35891W        W  876  23.604  40.327  13.953
35892W        W  877  19.047  34.374   3.725
35893W        W  878  19.994  39.484   1.944
35894W        W  879  43.035  23.589  13.478
35895W        W  880  11.282  39.151  11.057
35896W        W  881   7.242  33.319   3.818
35897W        W  882  15.142   8.631   2.240
35898W        W  883  18.506   4.153  14.172
35899W        W  884  34.278  38.532   1.490
35900W        W  885  37.541  15.149  10.728
35901W        W  886  20.306  12.105  13.959
35902W        W  887  37.552  27.421   4.123
35903W        W  888  18.966  17.554  12.020
35904W        W  889  10.901  39.801   4.076
35905W        W  890  39.546   3.471  12.891
35906W        W  891   9.640  16.102   4.665
35907W        W  892  19.522   3.660   1.461
35908W        W  893  21.785  29.905  11.249
35909W        W  894  35.986  33.961   2.667
35910W        W  895   6.712  20.080   4.647
35911W        W  896  29.954  13.186   3.154
35912W        W  897  31.658  24.934   4.269
35913W        W  898  30.316  32.540   2.315
35914W        W  899  28.115  29.013  13.928
35915W        W  900  31.796  19.125  12.046
35916W        W  901  16.688  44.739  11.019
35917W        W  902   1.684  12.880  14.546
35918W        W  903  24.902  31.970   0.087
35919W        W  904  35.618  35.883   2.649
35920W        W  905   6.249   6.205   3.182
35921W        W  906   2.417   2.844  11.666
35922W        W  907   7.499  22.422   1.486
35923W        W  908  30.801  12.607  10.055
35924W        W  909  20.005   9.152  11.078
35925W        W  910  43.930  38.729   4.603
35926W        W  911   8.664  41.365   0.097
35927W        W  912   4.346  20.812  12.923
35928W        W  913   5.522  30.470  13.378
35929W        W  914  11.696  44.791  12.621
35930W        W  915   6.136  38.090   4.576
35931W        W  916  38.308  36.539   4.728
35932W        W  917   6.486  16.031  13.128
35933W        W  918  24.531  20.766   4.126
35934W        W  919  19.312  28.037  11.238
35935W        W  920  12.021  42.253  10.925
35936W        W  921  13.271   6.543   3.414
35937W        W  922   4.489  37.488   0.392
35938W        W  923  12.519  37.662  13.120
35939W        W  924  40.812  38.759   0.283
35940W        W  925  12.767  22.782  11.273
35941W        W  926  21.026  38.315   4.949
35942W        W  927  15.633  16.154  14.523
35943W        W  928  26.499  24.039   1.331
35944W        W  929  12.464  23.729   0.700
35945W        W  930   2.400  41.956  10.680
35946W        W  931  12.033  18.216  12.180
35947W        W  932  42.717   4.228  10.882
35948W        W  933  20.239   0.893  11.166
35949W        W  934  35.114   5.779   4.178
35950W        W  935  43.551   4.732  10.529
35951W        W  936  29.698  28.907  12.372
35952W        W  937   0.057  19.376  12.817
35953W        W  938  19.485  44.414   0.235
35954W        W  939  23.596  20.711  11.952
35955W        W  940  18.648  41.639  10.382
35956W        W  941  24.949  13.397   1.911
35957W        W  942   1.506  36.449  10.771
35958W        W  943  10.817  29.478   4.203
35959W        W  944  41.972  18.559  13.905
35960W        W  945  15.412  24.416   0.856
35961W        W  946  16.788   3.853   4.056
35962W        W  947  36.794  30.183   3.290
35963W        W  948   4.286   4.906   2.838
35964W        W  949  36.520  31.712  11.124
35965W        W  950  11.767   1.725   1.008
35966W        W  951  43.939  22.120  14.333
35967W        W  952  10.279  36.561   3.829
35968W        W  953  15.321  41.882   1.196
35969W        W  954  42.769  11.274  13.360
35970W        W  955  24.217  10.702   1.148
35971W        W  956  44.249   4.722  14.080
35972W        W  957  33.196  33.639  12.641
35973W        W  958  44.540  28.342   0.234
35974W        W  959  13.351  13.608  13.697
35975W        W  960  43.350  28.149  12.943
35976W        W  961  23.756  20.079   0.484
35977W        W  962  16.262   5.120   3.552
35978W        W  963  25.310   8.779   0.755
35979W        W  964  32.531  33.482   4.309
35980W        W  965  13.869  10.125   0.394
35981W        W  966  44.758  18.380   2.088
35982W        W  967  28.601  11.179   2.133
35983W        W  968  29.843  31.394   2.663
35984W        W  969  35.892  39.030  13.396
35985W        W  970  20.119  27.064   5.081
35986W        W  971  24.089  19.510  13.338
35987W        W  972  37.588  26.508   2.529
35988W        W  973  32.870  19.178  14.732
35989W        W  974  41.210  24.361   3.224
35990W        W  975  10.000  25.704  10.629
35991W        W  976  18.664  12.097  14.495
35992W        W  977  14.135   4.114   4.382
35993W        W  978  23.766  15.715  11.233
35994W        W  979  20.259   6.941  10.217
35995W        W  980   8.923  35.979   0.975
35996W        W  981  16.381  24.284   1.822
35997W        W  982   2.245  22.721   4.970
35998W        W  983  36.107  17.834  11.027
35999W        W  984  35.393  32.921  11.748
36000W        W  985  43.706   3.188  13.399
36001W        W  986  21.494  15.713  10.758
36002W        W  987  10.956  43.993   4.088
36003W        W  988  31.169  31.978  13.948
36004W        W  989  22.484   7.030  13.767
36005W        W  990   3.421  40.936   1.244
36006W        W  991  14.822  15.652  11.485
36007W        W  992   1.985  37.391  12.944
36008W        W  993  22.090   6.208  10.536
36009W        W  994  28.269  20.569   2.395
36010W        W  995   9.623  16.530   2.004
36011W        W  996   7.214  37.325  14.008
36012W        W  997  32.277  27.838   3.071
36013W        W  998  25.003  29.489   3.279
36014W        W  999   3.417  20.541   1.211
36015W        W 1000  44.692  13.694   0.001
36016W        W 1001  26.737  27.342  13.943
36017W        W 1002   2.317  10.162   3.390
36018W        W 1003  33.373  33.072   0.286
36019W        W 1004  23.041  41.280   1.858
36020W        W 1005   3.655  36.031   2.775
36021W        W 1006   5.862  19.475   1.797
36022W        W 1007  32.405  11.377   1.146
36023W        W 1008   4.724  19.746  12.348
36024W        W 1009  38.812  27.154  13.087
36025W        W 1010  41.505   5.250  11.609
36026W        W 1011   4.623   4.850   2.445
36027W        W 1012  12.053  27.285   3.211
36028W        W 1013  42.760  30.435   3.150
36029W        W 1014  20.174  26.192   2.856
36030W        W 1015  35.368  14.763   1.328
36031W        W 1016   4.942  35.689   2.869
36032W        W 1017  27.029  39.372  11.406
36033W        W 1018  21.522  42.872   3.675
36034W        W 1019  27.007  37.015   2.169
36035W        W 1020  36.612  24.153   3.683
36036W        W 1021  22.111  28.771  14.776
36037W        W 1022  41.115  30.263   5.078
36038W        W 1023  36.607  23.522  13.439
36039W        W 1024  39.353  31.936  12.597
36040W        W 1025  33.529  32.026   5.021
36041W        W 1026  31.963  41.745   4.877
36042W        W 1027   0.445   2.358  14.649
36043W        W 1028  33.586  19.020  14.021
36044W        W 1029  29.223  15.542   3.272
36045W        W 1030  12.808   5.221  11.988
36046W        W 1031  14.591  43.783   4.523
36047W        W 1032   6.657  21.673  14.556
36048W        W 1033  43.388  42.322  13.530
36049W        W 1034  30.555  43.005   2.235
36050W        W 1035   2.255  30.513   0.273
36051W        W 1036  29.322  13.928  10.444
36052W        W 1037  28.385   6.992   3.289
36053W        W 1038   7.884  28.465   1.324
36054W        W 1039  32.339  19.334   4.395
36055W        W 1040  38.464  30.710   1.882
36056W        W 1041   6.962   5.785  12.094
36057W        W 1042   2.475   1.411  13.840
36058W        W 1043  16.291  44.688   2.111
36059W        W 1044   5.453  42.337   1.560
36060W        W 1045  43.754  28.614   4.777
36061W        W 1046   2.058  38.480   1.083
36062W        W 1047   5.954   2.336   2.086
36063W        W 1048  17.963  42.748  11.193
36064W        W 1049   1.655  37.399  14.996
36065W        W 1050  16.590   8.725   4.526
36066W        W 1051  35.075  12.700  12.353
36067W        W 1052   0.519  39.204  12.932
36068W        W 1053   6.619  11.378   4.559
36069W        W 1054  23.112  15.695   4.318
36070W        W 1055  21.922  14.173   0.011
36071W        W 1056  31.114  39.474   3.676
36072W        W 1057  25.201  39.001  13.291
36073W        W 1058  29.375  20.103   4.249
36074W        W 1059  22.758  23.261  11.027
36075W        W 1060  25.205   8.034   3.591
36076W        W 1061  43.019  28.575   3.436
36077W        W 1062  39.469  13.336   2.801
36078W        W 1063  37.850  18.588  14.495
36079W        W 1064   7.606  17.938   3.751
36080W        W 1065   3.326  21.896   1.848
36081W        W 1066   2.081  44.409   4.770
36082W        W 1067  38.393  38.901   2.240
36083W        W 1068   6.680  36.958  12.320
36084W        W 1069  37.930  14.741   2.346
36085W        W 1070  34.354  22.250   0.906
36086W        W 1071  21.082  18.887   0.374
36087W        W 1072   2.362   1.562   4.336
36088W        W 1073   2.451   6.944  10.558
36089W        W 1074   3.334   1.777   1.808
36090W        W 1075  33.059  12.419   3.693
36091W        W 1076  32.447  28.719  14.318
36092W        W 1077   7.840  39.925  11.170
36093W        W 1078  14.527  17.508  10.433
36094W        W 1079  41.465   9.377   2.344
36095W        W 1080  43.954   2.252  10.563
36096W        W 1081  29.461  18.972  14.302
36097W        W 1082  21.977  16.085  14.885
36098W        W 1083   2.746  38.806  12.780
36099W        W 1084  42.318  29.004   0.594
36100W        W 1085  24.734  13.388  10.939
36101W        W 1086  10.765  26.093  12.936
36102W        W 1087  23.092  38.128   0.543
36103W        W 1088  22.680  19.642  13.057
36104W        W 1089   8.920  40.488  13.948
36105W        W 1090  27.187  35.928  10.752
36106W        W 1091  19.665  22.767  14.424
36107W        W 1092  38.362  10.781   1.800
36108W        W 1093   3.496   4.921  13.447
36109W        W 1094  27.758  17.617  12.350
36110W        W 1095  18.694  16.239  10.892
36111W        W 1096  39.649  43.759  11.670
36112W        W 1097  24.646  26.012   2.775
36113W        W 1098  18.987  11.955  12.804
36114W        W 1099  24.747  28.218   2.301
36115W        W 1100  38.266   0.300   1.322
36116W        W 1101  30.165  14.346   3.918
36117W        W 1102  15.042   6.391  12.094
36118W        W 1103  33.619   1.861   0.443
36119W        W 1104  33.391  25.533   4.053
36120W        W 1105  34.617   2.986   3.851
36121W        W 1106  11.974  19.040   4.646
36122W        W 1107  17.365   2.004  13.795
36123W        W 1108   9.424  18.556  13.839
36124W        W 1109   4.531  38.491  12.139
36125W        W 1110  44.766  20.082   2.148
36126W        W 1111  33.766  24.125  10.670
36127W        W 1112  42.345  43.870   3.693
36128W        W 1113  25.986  14.666  10.869
36129W        W 1114  43.326  30.155  14.359
36130W        W 1115  32.375  37.095   2.957
36131W        W 1116   0.719  22.301   2.367
36132W        W 1117   2.678   6.411  12.892
36133W        W 1118   1.650  45.000  10.437
36134W        W 1119  37.660  42.845   4.104
36135W        W 1120  44.348  14.691  12.605
36136W        W 1121  13.846  39.004  10.583
36137W        W 1122   3.247  42.601   3.509
36138W        W 1123  23.737  33.891  13.101
36139W        W 1124  33.018  28.684   3.309
36140W        W 1125  28.072  19.111  13.591
36141W        W 1126  22.043  35.428   2.388
36142W        W 1127  15.231  14.732  11.525
36143W        W 1128  41.010  39.546   3.721
36144W        W 1129  19.528  20.743  11.570
36145W        W 1130  31.504  30.682  12.433
36146W        W 1131   8.917   2.042  12.000
36147W        W 1132  26.579   5.452  11.450
36148W        W 1133  13.795  24.964   4.459
36149W        W 1134  34.166  41.993  12.816
36150W        W 1135  33.404   1.213   1.987
36151W        W 1136  17.494  41.955  11.668
36152W        W 1137  37.373  35.296  12.995
36153W        W 1138  36.403  30.844  12.700
36154W        W 1139  20.158  28.658   4.302
36155W        W 1140  17.028   7.906   3.671
36156W        W 1141  10.668  26.770  14.354
36157W        W 1142  44.811  26.306  14.483
36158W        W 1143  35.509  40.360   2.613
36159W        W 1144   3.167   9.762  13.930
36160W        W 1145  31.494  14.059   0.674
36161W        W 1146  17.836  43.348   1.273
36162W        W 1147  12.702  30.151   2.177
36163W        W 1148  15.162  36.549   3.603
36164W        W 1149   9.702  33.745   0.419
36165W        W 1150  21.303   9.897  12.072
36166W        W 1151  28.061  11.136   4.786
36167W        W 1152  31.508  14.055   0.150
36168W        W 1153  38.565  19.210   0.069
36169W        W 1154  39.562  29.554  13.369
36170W        W 1155  22.048  30.968  12.565
36171W        W 1156  19.781  33.112  14.319
36172W        W 1157  15.074  29.630  13.856
36173W        W 1158   8.203  41.321  12.036
36174W        W 1159  13.083   3.920   5.022
36175W        W 1160  37.435  16.730   1.759
36176W        W 1161   9.217  15.856   1.330
36177W        W 1162  43.097  25.456   3.177
36178W        W 1163  43.282   6.785   4.080
36179W        W 1164  39.841   2.848  11.755
36180W        W 1165  22.411   4.227  11.933
36181W        W 1166  14.201   0.686   1.484
36182W        W 1167  20.089   4.580   3.314
36183W        W 1168  36.176  37.876  11.946
36184W        W 1169   4.976  17.078  13.022
36185W        W 1170  12.660   1.260   3.056
36186W        W 1171  38.063  15.803   3.234
36187W        W 1172  18.294  13.865   2.263
36188W        W 1173   1.805  11.719   4.179
36189W        W 1174   1.286   6.919   3.309
36190W        W 1175  32.409   5.383   0.393
36191W        W 1176  25.740  20.178  11.604
36192W        W 1177   1.104  21.923   2.902
36193W        W 1178  17.235  31.183   4.778
36194W        W 1179   8.682  44.552  13.898
36195W        W 1180  36.069  42.873   1.570
36196W        W 1181  43.837  16.660   0.367
36197W        W 1182   2.333  11.823  12.991
36198W        W 1183  32.472   6.170   4.414
36199W        W 1184  20.695  34.643   0.563
36200W        W 1185  22.265  39.491  14.743
36201W        W 1186   9.309  20.619  14.038
36202W        W 1187  16.716  17.752  12.737
36203W        W 1188   7.489  30.899  11.186
36204W        W 1189  13.750  28.076  14.569
36205W        W 1190  12.907  35.576   2.647
36206W        W 1191   3.373   6.821  10.623
36207W        W 1192   6.239  15.210   4.550
36208W        W 1193  37.879  29.000   2.302
36209W        W 1194   0.883  11.148   1.340
36210W        W 1195  42.183   4.989  10.334
36211W        W 1196   7.214  32.122   0.934
36212W        W 1197  33.074   2.836   4.572
36213W        W 1198  25.857  39.793  14.612
36214W        W 1199  31.827  28.064  11.961
36215W        W 1200  44.390  26.971  12.500
36216W        W 1201   4.149  10.810   0.046
36217W        W 1202  34.148  29.216   2.761
36218W        W 1203  42.580  14.740  13.849
36219W        W 1204  26.211  41.366   0.880
36220W        W 1205  38.114   5.998   2.222
36221W        W 1206  34.727  39.045  11.219
36222W        W 1207  32.016  30.149  11.686
36223W        W 1208  38.434   1.831  11.911
36224W        W 1209  22.064  12.366   4.081
36225W        W 1210  21.665  12.227   2.909
36226W        W 1211   6.977  33.049   2.906
36227W        W 1212  38.151  14.677   1.882
36228W        W 1213   8.981  26.940  13.410
36229W        W 1214  19.477  29.874   1.798
36230W        W 1215  43.333  25.411  10.177
36231W        W 1216  19.662  34.050  13.367
36232W        W 1217  40.246   5.086  13.471
36233W        W 1218  13.394  20.106  11.785
36234W        W 1219  12.841  10.211  13.507
36235W        W 1220  38.326  19.052  12.434
36236W        W 1221  10.897  23.238   1.726
36237W        W 1222  39.534  22.062   1.209
36238W        W 1223   7.175   7.432   2.373
36239W        W 1224  23.188  14.678   1.885
36240W        W 1225  36.384  21.524   0.830
36241W        W 1226   7.242  23.634   2.361
36242W        W 1227  36.016  25.071  10.762
36243W        W 1228  18.561  24.531  13.504
36244W        W 1229  43.544  17.655   0.118
36245W        W 1230  26.653  25.947  11.907
36246W        W 1231  10.392  29.637   3.957
36247W        W 1232  11.655  22.281   1.372
36248W        W 1233  40.943  32.037   1.289
36249W        W 1234  26.448  15.210   1.608
36250W        W 1235  34.792   8.633  11.250
36251W        W 1236  28.722  30.419  12.571
36252W        W 1237   6.865  40.807   4.183
36253W        W 1238  12.609  13.571   3.716
36254W        W 1239  32.573  29.860  14.716
36255W        W 1240  44.606   2.577  13.509
36256W        W 1241  38.991  21.863  13.062
36257W        W 1242  11.398   5.749   3.188
36258W        W 1243  19.683  37.791  14.572
36259W        W 1244  39.597  40.588  13.188
36260W        W 1245  28.733  26.441   3.055
36261W        W 1246  35.007  26.595  11.972
36262W        W 1247  38.918  25.934   1.269
36263W        W 1248  44.018  18.816  11.407
36264W        W 1249  21.618   3.417  13.956
36265W        W 1250  23.558  34.902  14.423
36266W        W 1251  32.075  29.752   4.646
36267W        W 1252   4.711  13.270  12.835
36268W        W 1253   7.570  15.161   0.092
36269W        W 1254  17.031   8.155   0.991
36270W        W 1255  22.093  33.755  12.886
36271W        W 1256  12.037  14.135  11.057
36272W        W 1257  27.563  19.592   4.382
36273W        W 1258  33.632  17.980  14.094
36274W        W 1259  18.864  30.727   0.094
36275W        W 1260  37.992  37.833  11.484
36276W        W 1261  10.747   4.478  14.967
36277W        W 1262  13.551  39.951   0.512
36278W        W 1263  29.618  16.445   0.820
36279W        W 1264  10.792  21.543   4.373
36280W        W 1265  26.752  25.231  14.419
36281W        W 1266  29.649  42.969  14.912
36282W        W 1267  42.055  35.670   3.666
36283W        W 1268  19.279  44.886   0.525
36284W        W 1269  39.893  11.622   3.248
36285W        W 1270   8.725  23.170   1.530
36286W        W 1271   7.035  33.783  10.360
36287W        W 1272  44.296  31.618   3.632
36288W        W 1273  19.531  22.718  12.529
36289W        W 1274  43.821  11.575   2.264
36290W        W 1275   8.001  12.671   4.503
36291W        W 1276  31.388  28.774  14.872
36292W        W 1277  42.234  34.098   2.317
36293W        W 1278  32.565  36.332  10.758
36294W        W 1279   7.326   0.597  12.484
36295W        W 1280   0.662  20.751  10.922
36296W        W 1281   9.228  27.944   4.175
36297W        W 1282  33.612  35.884  12.930
36298W        W 1283  43.874  28.603   0.796
36299W        W 1284  28.431  12.203  13.895
36300W        W 1285   3.048  22.626  12.838
36301W        W 1286  31.005  23.754   4.765
36302W        W 1287  31.478  23.555   2.516
36303W        W 1288  13.595  10.408   3.189
36304W        W 1289   4.818   9.817   1.273
36305W        W 1290   0.042  35.742   3.308
36306W        W 1291   8.191  21.378  11.951
36307W        W 1292  17.150  17.530   3.327
36308W        W 1293  43.825  32.599  11.063
36309W        W 1294  10.273  32.469   1.258
36310W        W 1295  10.114  30.679   1.810
36311W        W 1296   3.808  17.149   2.275
36312W        W 1297  37.288  23.569   0.783
36313W        W 1298   0.747  22.068   4.665
36314W        W 1299  41.867  18.167   3.093
36315W        W 1300  16.620  30.049  11.861
36316W        W 1301  20.760  39.991   2.298
36317W        W 1302  18.584   0.398  12.139
36318W        W 1303   3.947   9.301  12.434
36319W        W 1304   5.765  25.948   4.358
36320W        W 1305   1.295  20.526  14.707
36321W        W 1306   6.838  24.945   3.094
36322W        W 1307   6.359  44.631   2.696
36323W        W 1308  31.343  18.144   4.776
36324W        W 1309  37.336  43.183   2.213
36325W        W 1310  21.249  23.577   3.921
36326W        W 1311  22.945  31.929   2.753
36327W        W 1312  25.362   7.365  13.479
36328W        W 1313  25.296  37.007   4.318
36329W        W 1314  44.228   4.109  11.267
36330W        W 1315   3.202  40.010  14.711
36331W        W 1316  20.489  22.241   3.110
36332W        W 1317  11.555  32.883  13.622
36333W        W 1318  19.789  44.901  13.066
36334W        W 1319  37.018  10.958  10.906
36335W        W 1320  24.660  25.277   2.135
36336W        W 1321  34.887  18.341   1.848
36337W        W 1322  10.110  19.719   1.814
36338W        W 1323  38.506  31.114   0.498
36339W        W 1324  23.085  43.802   2.304
36340W        W 1325  37.959   3.333  10.643
36341W        W 1326   6.852  37.805   4.594
36342W        W 1327  37.430   8.696   1.003
36343W        W 1328  42.146  21.717   5.460
36344W        W 1329  17.317  11.873   0.504
36345W        W 1330  18.810   3.875   2.822
36346W        W 1331  13.381  13.989   2.788
36347W        W 1332  38.682   5.945  13.499
36348W        W 1333  31.588  13.768   1.893
36349W        W 1334   8.694   8.861  10.936
36350W        W 1335  44.341   2.737   1.497
36351W        W 1336  19.187   9.721  14.849
36352W        W 1337   5.603  38.071  10.764
36353W        W 1338  10.139  16.840  10.341
36354W        W 1339   6.996  43.007   2.823
36355W        W 1340  25.252  42.396  11.091
36356W        W 1341  24.794   4.957   3.654
36357W        W 1342  30.051  44.485   2.655
36358W        W 1343   2.816  30.512   4.527
36359W        W 1344  20.055  29.022  11.942
36360W        W 1345  35.945  25.206  12.574
36361W        W 1346  10.718   8.953  13.440
36362W        W 1347  30.764  42.832   1.414
36363W        W 1348  42.319  39.798  10.781
36364W        W 1349   1.375   2.118   0.680
36365W        W 1350  29.087  15.308  10.483
36366W        W 1351   9.829  23.202  13.968
36367W        W 1352  35.007  26.032  11.186
36368W        W 1353  14.095  41.420   2.429
36369W        W 1354  18.822  25.433  11.089
36370W        W 1355  10.881  35.002   4.444
36371W        W 1356  41.690  12.338  11.051
36372W        W 1357   0.173  18.994   3.149
36373W        W 1358  35.607   2.998   0.879
36374W        W 1359  26.526  42.870  13.829
36375W        W 1360  25.043  12.435  13.834
36376W        W 1361   6.331  10.275   0.466
36377W        W 1362  27.422   6.834  14.321
36378W        W 1363  16.608  11.738  12.367
36379W        W 1364  32.473  16.186   3.800
36380W        W 1365  27.033  19.343   4.964
36381W        W 1366  26.309   8.914   2.637
36382W        W 1367  27.997  33.010  12.884
36383W        W 1368  24.045  27.601  14.392
36384W        W 1369  24.441   1.016   4.135
36385W        W 1370   7.542  12.802  11.987
36386W        W 1371  11.221   6.627  10.588
36387W        W 1372  10.070  12.580  11.146
36388W        W 1373  11.390  34.124   3.020
36389W        W 1374   2.840   9.141  14.368
36390W        W 1375  22.604  29.239   1.061
36391W        W 1376  27.067   9.664  12.542
36392W        W 1377   7.253   7.969   2.779
36393W        W 1378   4.601  34.395  12.321
36394W        W 1379   7.583  23.078   2.990
36395W        W 1380  30.484   7.555   2.786
36396W        W 1381  22.267   2.975   0.452
36397W        W 1382  23.164  27.098   0.189
36398W        W 1383  37.162  17.340  11.561
36399W        W 1384  44.995  35.936  10.142
36400W        W 1385  11.680  33.499   1.885
36401W        W 1386   0.003  36.316   1.985
36402W        W 1387   1.512  21.962   1.886
36403W        W 1388  29.144  35.507   4.594
36404W        W 1389  22.007  29.511  13.411
36405W        W 1390  44.723  30.103  12.953
36406W        W 1391  40.043  23.696   2.874
36407W        W 1392  31.713  26.990   4.147
36408W        W 1393  31.974   3.678  14.303
36409W        W 1394   9.909  40.196   0.835
36410W        W 1395   0.486  31.160  13.470
36411W        W 1396  12.780  41.521  12.946
36412W        W 1397  38.597   3.886  13.348
36413W        W 1398  16.360  39.602  11.198
36414W        W 1399  26.298  41.220   4.072
36415W        W 1400   3.988  18.087   4.647
36416W        W 1401  11.106  25.579   3.948
36417W        W 1402  36.013  21.963  13.813
36418W        W 1403   0.282  26.737   3.142
36419W        W 1404  35.029  26.911   4.851
36420W        W 1405  31.859   1.336  12.591
36421W        W 1406  35.840  24.220   2.298
36422W        W 1407  38.293  28.664   2.800
36423W        W 1408  27.671   9.346  12.149
36424W        W 1409  10.690  17.719  14.445
36425W        W 1410  14.026   9.232  12.345
36426W        W 1411  11.111  14.847   1.694
36427W        W 1412   0.173  30.466   1.869
36428W        W 1413  30.400  40.994  13.560
36429W        W 1414  33.512  22.000   4.593
36430W        W 1415  38.969  42.618   1.585
36431W        W 1416   9.613   2.383  13.012
36432W        W 1417  38.480  26.892   4.045
36433W        W 1418  17.831   2.387   3.294
36434W        W 1419  34.465  30.441   1.713
36435W        W 1420   0.042   6.924   4.542
36436W        W 1421   2.067  10.680   4.338
36437W        W 1422  23.719  10.086  12.575
36438W        W 1423  12.665   6.411  12.009
36439W        W 1424  14.154  34.797   2.477
36440W        W 1425   9.214  44.949   4.755
36441W        W 1426  14.306  29.577  12.514
36442W        W 1427  15.656  18.310   3.839
36443W        W 1428   0.220  26.174   4.289
36444W        W 1429   1.298   5.078   2.674
36445W        W 1430   7.712  33.499  13.525
36446W        W 1431  19.443  21.921  14.897
36447W        W 1432  42.640  34.236  10.812
36448W        W 1433  44.816   8.355   1.618
36449W        W 1434  18.603  28.834   3.177
36450W        W 1435  32.032  18.956   4.627
36451W        W 1436  25.136   0.293  11.410
36452W        W 1437  21.478   6.893   0.434
36453W        W 1438  33.563  29.115   3.591
36454W        W 1439  33.201  16.751   2.883
36455W        W 1440  38.324  43.825   4.537
36456W        W 1441  13.297  30.670  10.596
36457W        W 1442  34.789   0.341   2.780
36458W        W 1443  44.567  11.576  12.948
36459W        W 1444  23.557  32.070   4.573
36460W        W 1445  12.859  11.843   3.183
36461W        W 1446  42.444  26.684  13.780
36462W        W 1447   6.135  11.366   2.876
36463W        W 1448   5.574  34.085  13.802
36464W        W 1449  43.323   3.793  11.737
36465W        W 1450  18.464  29.459   4.021
36466W        W 1451   5.240  29.988  14.100
36467W        W 1452  33.971  33.727   3.242
36468W        W 1453  23.629   2.485  11.702
36469W        W 1454  18.133  29.763   1.882
36470W        W 1455  41.298  39.162  12.001
36471W        W 1456   1.837  26.111  11.664
36472W        W 1457  20.984  28.641   2.171
36473W        W 1458  20.732  36.371   3.733
36474W        W 1459  43.418  25.468  12.535
36475W        W 1460  22.264   0.282   2.529
36476W        W 1461  32.497  13.671   2.935
36477W        W 1462  17.505  20.129  14.047
36478W        W 1463  18.766  31.973  13.271
36479W        W 1464   8.230  37.153  14.897
36480W        W 1465  29.277  27.310   3.830
36481W        W 1466  37.804   9.192  11.508
36482W        W 1467  27.242  18.824   0.287
36483W        W 1468  19.551  26.584  13.407
36484W        W 1469   1.239  22.637   3.550
36485W        W 1470  32.138  38.654   4.047
36486W        W 1471  44.485  36.632   2.763
36487W        W 1472  21.067  15.365   2.174
36488W        W 1473   0.397  20.549  14.874
36489W        W 1474  35.013  24.593   1.217
36490W        W 1475  44.126   9.877  10.285
36491W        W 1476  26.128  24.580   1.435
36492W        W 1477   7.634  42.823   4.362
36493W        W 1478  18.816  11.492   3.327
36494W        W 1479  41.937  22.962   1.792
36495W        W 1480  27.501   7.679   3.686
36496W        W 1481   5.721  44.767  13.458
36497W        W 1482  41.541   3.167   1.313
36498W        W 1483  10.087   6.106   1.337
36499W        W 1484  27.959  37.834  10.273
36500W        W 1485  42.747  29.400  12.833
36501W        W 1486  39.934  38.373   2.723
36502W        W 1487  15.915  37.986  10.522
36503W        W 1488  18.505  34.791   2.901
36504W        W 1489   6.032  17.276  13.522
36505W        W 1490  33.573  42.906   0.744
36506W        W 1491  10.336  38.538  10.747
36507W        W 1492  33.530  10.888  13.265
36508W        W 1493  21.462  44.477  11.852
36509W        W 1494  26.147  11.069  12.952
36510W        W 1495  20.059  14.724  12.514
36511W        W 1496  10.142  22.518  10.617
36512W        W 1497  36.431  36.817   0.680
36513W        W 1498  16.794  40.744  12.475
36514W        W 1499  36.978  44.140   2.548
36515W        W 1500  12.234  27.209   5.533
36516W        W 1501  42.019  29.441   2.840
36517W        W 1502  16.686  18.714  14.490
36518W        W 1503   3.873  30.429   3.698
36519W        W 1504  28.726   2.630   2.119
36520W        W 1505  18.572  22.416   2.615
36521W        W 1506  41.571  22.126  12.872
36522W        W 1507   3.815  30.232  12.495
36523W        W 1508  44.738  26.908   4.257
36524W        W 1509  12.699  21.147  14.748
36525W        W 1510   8.201  16.339   3.315
36526W        W 1511  11.595  17.980   3.853
36527W        W 1512  43.492  23.649   1.244
36528W        W 1513  23.459  26.510  12.125
36529W        W 1514  32.352   6.673   4.233
36530W        W 1515  34.766  24.521   3.961
36531W        W 1516   9.301  40.028   3.168
36532W        W 1517   3.346  13.184   1.957
36533W        W 1518  16.633   7.147   4.524
36534W        W 1519  10.907   1.423  10.225
36535W        W 1520  33.946  44.020  14.111
36536W        W 1521  10.588  44.238  12.699
36537W        W 1522   7.388   9.357  12.010
36538W        W 1523  43.009  22.246   3.294
36539W        W 1524  33.877  15.823  14.934
36540W        W 1525   5.687  39.596  11.641
36541W        W 1526  42.297   9.676   0.191
36542W        W 1527  39.379  33.094   2.596
36543W        W 1528  36.763  13.844  12.546
36544W        W 1529   2.158  30.510   1.680
36545W        W 1530  28.453  18.791  13.431
36546W        W 1531  21.298  35.538   4.669
36547W        W 1532  32.122  36.761   3.286
36548W        W 1533  17.858   6.925  14.320
36549W        W 1534  25.847  31.121   1.325
36550W        W 1535   6.395  32.340   3.654
36551W        W 1536  31.605   4.821  10.650
36552W        W 1537   2.114  19.891   1.628
36553W        W 1538  10.795  41.227   2.119
36554W        W 1539  10.739   4.476  11.017
36555W        W 1540  22.180  39.861  12.080
36556W        W 1541  20.123  32.457  13.746
36557W        W 1542  15.614  13.229  13.394
36558W        W 1543  44.216   7.227   4.089
36559W        W 1544  41.566  24.011   3.528
36560W        W 1545  33.596  38.397   4.562
36561W        W 1546  31.381   0.856  12.967
36562W        W 1547  34.414   2.368  10.470
36563W        W 1548  23.107  39.138  13.080
36564W        W 1549  31.370  10.174   2.731
36565W        W 1550   2.893  37.606  11.130
36566W        W 1551   0.731  38.623  10.801
36567W        W 1552  18.095   3.246   1.642
36568W        W 1553  25.623  43.949  12.441
36569W        W 1554  38.772  35.974   0.892
36570W        W 1555  12.283  43.714   3.615
36571W        W 1556  32.056  38.422  14.794
36572W        W 1557   2.150  27.083  12.560
36573W        W 1558  18.824  24.172  10.627
36574W        W 1559  35.493  39.603  12.056
36575W        W 1560  28.445   9.729  12.960
36576W        W 1561  32.725   0.335   0.151
36577W        W 1562  38.507  35.447  14.745
36578W        W 1563  11.427  24.284  13.903
36579W        W 1564  36.446  41.576   2.631
36580W        W 1565  42.328  31.023  13.337
36581W        W 1566  13.614  22.478   0.165
36582W        W 1567  34.417  34.964  13.414
36583W        W 1568  30.606  42.482   2.331
36584W        W 1569   3.468  29.302  11.630
36585W        W 1570  44.443  24.280   3.689
36586W        W 1571  30.051  25.723  14.924
36587W        W 1572  39.059  40.503   3.578
36588W        W 1573  12.517  25.537   3.351
36589W        W 1574  33.536  42.809  11.602
36590W        W 1575  29.026  33.465   0.652
36591W        W 1576  21.478  25.472   4.710
36592W        W 1577  14.540   3.307   1.238
36593W        W 1578   1.489   2.753  12.538
36594W        W 1579  44.014   4.377  14.892
36595W        W 1580   0.973   1.207   0.502
36596W        W 1581  17.846  15.667   4.601
36597W        W 1582  34.034  21.061   3.057
36598W        W 1583  35.850  28.953  10.741
36599W        W 1584   4.946  11.891   4.042
36600W        W 1585  21.805   6.470   0.393
36601W        W 1586   0.315  44.039  10.591
36602W        W 1587  13.597  23.666   1.365
36603W        W 1588   9.606  28.804  12.955
36604W        W 1589  35.010   9.597   3.374
36605W        W 1590  38.218   7.706  12.504
36606W        W 1591  35.853  34.516  13.856
36607W        W 1592  18.563  26.556   3.890
36608W        W 1593  33.733  12.842  10.288
36609W        W 1594   9.832  38.216  13.876
36610W        W 1595  33.032  20.837  12.045
36611W        W 1596  19.927  44.226  13.561
36612W        W 1597   4.338   3.780   0.934
36613W        W 1598  20.602  29.691   1.247
36614W        W 1599   6.504  19.141   3.646
36615W        W 1600  36.710   9.314   9.843
36616W        W 1601  20.593  20.892   5.569
36617W        W 1602  10.242  16.651   4.212
36618W        W 1603  23.918  40.210   4.320
36619W        W 1604  39.276  20.062  10.747
36620W        W 1605  40.988   7.447  11.209
36621W        W 1606   3.530  18.042   4.870
36622W        W 1607  22.730  20.144   9.781
36623W        W 1608  39.288  18.278  12.610
36624W        W 1609  37.465  42.044  12.965
36625W        W 1610  42.927  29.084   1.649
36626W        W 1611  16.134  25.643  13.385
36627W        W 1612  37.269  32.088   3.217
36628W        W 1613   9.855   1.714   3.167
36629W        W 1614   1.614   7.454  13.960
36630W        W 1615  22.903  36.248   0.818
36631W        W 1616  24.142  42.467   1.918
36632W        W 1617  30.558  25.926   3.206
36633W        W 1618   2.000   7.014   2.927
36634W        W 1619  19.850  10.816   1.544
36635W        W 1620  11.437   2.758   2.591
36636W        W 1621  32.109  41.890  13.046
36637W        W 1622  35.727  16.614   3.600
36638W        W 1623   9.809  13.887  11.155
36639W        W 1624  17.565  37.610  14.756
36640W        W 1625  39.385  21.954  12.444
36641W        W 1626  38.353  23.415   3.326
36642W        W 1627  27.926  12.650   0.276
36643W        W 1628  33.339  34.682   3.646
36644W        W 1629  27.517  11.624  14.004
36645W        W 1630  22.692  27.545   0.794
36646W        W 1631  19.041  14.932   0.283
36647W        W 1632  22.293  30.710   3.229
36648W        W 1633  43.495  26.097   0.316
36649W        W 1634  26.358  32.132   3.711
36650W        W 1635  29.189  30.171  12.592
36651W        W 1636   7.891  32.955   1.059
36652W        W 1637  25.017   5.440   2.271
36653W        W 1638  12.765  12.218  13.573
36654W        W 1639  12.341  20.467  11.972
36655W        W 1640  11.923  11.681   3.821
36656W        W 1641  17.547  11.176   4.180
36657W        W 1642  32.458   0.338   0.655
36658W        W 1643  27.470  43.827   4.760
36659W        W 1644   2.614  11.319   0.756
36660W        W 1645  13.045   5.698  12.983
36661W        W 1646  42.495   7.592   0.832
36662W        W 1647  27.817  29.447  12.072
36663W        W 1648  27.214  11.045  12.879
36664W        W 1649  18.212  26.109   3.831
36665W        W 1650  16.765   7.922   3.199
36666W        W 1651  16.355  21.925  12.473
36667W        W 1652   3.366  19.525  13.461
36668W        W 1653  22.013  18.071  12.415
36669W        W 1654  38.623   2.116  10.997
36670W        W 1655  29.604   5.066  13.701
36671W        W 1656  29.729  25.414  11.129
36672W        W 1657  33.053  42.290  10.874
36673W        W 1658  36.899   4.269  11.749
36674W        W 1659  32.278  16.918  10.981
36675W        W 1660  33.485  28.888   0.770
36676W        W 1661   1.275   4.224  13.484
36677W        W 1662  43.428  24.336   3.797
36678W        W 1663  16.212  33.102   3.736
36679W        W 1664  24.184  14.582   2.302
36680W        W 1665   1.728  25.170  11.886
36681W        W 1666  34.083  11.828   0.317
36682W        W 1667  30.379  19.507   0.328
36683W        W 1668  23.194  16.361  12.421
36684W        W 1669   5.246  21.783   1.977
36685W        W 1670  23.671  10.194  13.068
36686W        W 1671  43.229  12.579  12.980
36687W        W 1672  42.385  22.038  13.530
36688W        W 1673   1.392  19.648  12.958
36689W        W 1674  18.667  36.797  12.827
36690W        W 1675  18.458   4.413   4.909
36691W        W 1676  11.377  32.774   3.425
36692W        W 1677  14.624   8.309  13.485
36693W        W 1678  19.279  30.611   3.185
36694W        W 1679   1.980  36.054  12.455
36695W        W 1680  23.144  36.444  13.376
36696W        W 1681  22.178  24.653   3.033
36697W        W 1682   1.558  42.721  12.638
36698W        W 1683  11.370  13.591   0.304
36699W        W 1684  38.765  13.073   5.042
36700W        W 1685  32.889   1.537  11.980
36701W        W 1686   1.889   4.704  11.617
36702W        W 1687  18.035  12.961   3.743
36703W        W 1688  18.189  40.966  11.726
36704W        W 1689  20.214  22.777   1.349
36705W        W 1690  39.319  32.669  11.136
36706W        W 1691  42.917   5.434  12.517
36707W        W 1692  40.782  40.156   0.106
36708W        W 1693  41.438  23.035  13.122
36709W        W 1694  20.068   6.573   4.154
36710W        W 1695   2.951   7.928  13.524
36711W        W 1696  25.164  13.372   0.365
36712W        W 1697  25.993   3.032  14.980
36713W        W 1698  14.164  42.432   2.853
36714W        W 1699   3.990   2.554  14.898
36715W        W 1700  31.612  44.692   1.278
36716W        W 1701  29.567   0.534  14.841
36717W        W 1702  19.752  41.391  13.555
36718W        W 1703  11.809  22.280  10.806
36719W        W 1704   0.092  44.762   1.645
36720W        W 1705  13.351   7.285  10.792
36721W        W 1706  35.060  27.866   0.417
36722W        W 1707   6.360  14.805  11.154
36723W        W 1708  16.335   7.466   1.212
36724W        W 1709  31.544  38.034   0.897
36725W        W 1710   4.700  16.524  10.184
36726W        W 1711  37.949  23.056  10.416
36727W        W 1712  33.337  14.958   3.750
36728W        W 1713  10.439  39.247  13.073
36729W        W 1714  25.754  22.575   4.611
36730W        W 1715   1.310  30.164   0.440
36731W        W 1716   4.777  12.846   3.943
36732W        W 1717  35.637  10.049  15.000
36733W        W 1718  17.498  24.686   3.309
36734W        W 1719  29.070  10.237  10.644
36735W        W 1720  10.524  23.982   5.148
36736W        W 1721  40.363  43.073  11.612
36737W        W 1722  18.614   3.540   2.483
36738W        W 1723  25.543  43.088  14.541
36739W        W 1724  11.269   8.858   0.904
36740W        W 1725  19.760  24.761  13.802
36741W        W 1726  25.219  33.974   3.240
36742W        W 1727  30.458  32.967  14.361
36743W        W 1728  41.937  28.133  11.673
36744W        W 1729   3.018  14.349  11.534
36745W        W 1730  31.120  18.681   3.680
36746W        W 1731  41.946  35.739  10.538
36747W        W 1732   5.313  16.612   0.806
36748W        W 1733  23.531  22.124  14.020
36749W        W 1734  18.742   2.736  10.623
36750W        W 1735  40.888   2.945  14.380
36751W        W 1736  27.036  34.339   3.205
36752W        W 1737  22.759   1.398   9.628
36753W        W 1738  15.117  15.494  14.866
36754W        W 1739  10.609  28.614  14.758
36755W        W 1740   5.727  37.334   1.050
36756W        W 1741  32.354  26.655  13.926
36757W        W 1742  20.606  38.532  14.370
36758W        W 1743   8.805  29.930  14.870
36759W        W 1744   1.915  18.059  13.898
36760W        W 1745   1.333  20.299  11.259
36761W        W 1746  34.827  21.167  11.589
36762W        W 1747   3.406   4.297  12.353
36763W        W 1748  18.772  43.434   2.831
36764W        W 1749   9.361  19.241   0.266
36765W        W 1750  28.347  26.634   1.606
36766W        W 1751  26.611  17.086   0.454
36767W        W 1752  14.120   0.413  10.489
36768W        W 1753  15.602  25.985   5.474
36769W        W 1754  32.538   4.598   1.531
36770W        W 1755  27.433   2.167  14.042
36771W        W 1756  43.120  37.114   0.409
36772W        W 1757   0.349  16.678   2.368
36773W        W 1758  26.234  31.148  12.044
36774W        W 1759  33.422  14.647   3.329
36775W        W 1760  33.456  39.374   4.318
36776W        W 1761  20.250  10.160  13.895
36777W        W 1762  13.801  21.010  14.632
36778W        W 1763  37.893  35.541  13.915
36779W        W 1764   4.946  36.991   4.519
36780W        W 1765   5.191  28.681  12.434
36781W        W 1766  27.244  11.281   1.884
36782W        W 1767  20.107   9.609  13.052
36783W        W 1768  11.439  15.568  10.897
36784W        W 1769   1.964   2.838  11.911
36785W        W 1770   8.391   7.146   0.715
36786W        W 1771   3.427  17.095   1.259
36787W        W 1772   9.287  20.089   1.933
36788W        W 1773  43.893  27.348  13.789
36789W        W 1774  27.105  34.402   0.359
36790W        W 1775  19.261   2.245   1.140
36791W        W 1776  36.862  15.302  13.869
36792W        W 1777  18.249  34.274  10.846
36793W        W 1778  33.955   8.415   1.139
36794W        W 1779  42.834  43.003  10.540
36795W        W 1780  27.201   7.636  12.029
36796W        W 1781  40.380  23.016  12.105
36797W        W 1782   7.958  41.757  14.434
36798W        W 1783  40.479  21.019  14.328
36799W        W 1784   4.645   1.995  14.782
36800W        W 1785  44.473   9.383   2.749
36801W        W 1786   2.974   2.355  10.797
36802W        W 1787  38.988   3.860   3.759
36803W        W 1788  31.552  18.783   1.464
36804W        W 1789   3.840  19.887  10.698
36805W        W 1790  29.963   9.771   4.668
36806W        W 1791   8.232  44.002  14.767
36807W        W 1792  37.103  35.654   0.275
36808W        W 1793  13.738  27.701   0.255
36809W        W 1794  29.631  14.497  11.966
36810W        W 1795  31.893   4.180   3.746
36811W        W 1796  14.092  35.004   0.941
36812W        W 1797  36.977  31.980   3.660
36813W        W 1798  44.332   5.416  10.685
36814W        W 1799  29.136  10.195   0.509
36815W        W 1800  44.763  24.970  14.494
36816W        W 1801  20.217  17.926   4.865
36817W        W 1802   2.848  31.590   4.086
36818W        W 1803  32.338  31.676   2.289
36819W        W 1804  21.070  42.207  12.944
36820W        W 1805  21.149   4.911  10.854
36821W        W 1806  20.999  37.859   4.177
36822W        W 1807  30.019  35.507   4.527
36823W        W 1808  32.444  15.231  11.121
36824W        W 1809  37.283  13.821   3.652
36825W        W 1810  33.145   1.313   0.927
36826W        W 1811  14.886   8.828  11.188
36827W        W 1812   4.286  18.305   1.356
36828W        W 1813  31.951   5.371   2.695
36829W        W 1814  26.623  20.005  11.238
36830W        W 1815  41.909   3.960   2.368
36831W        W 1816  30.498   6.248   0.975
36832W        W 1817   5.900  39.494  14.508
36833W        W 1818   1.951   8.304   2.842
36834W        W 1819  31.646  22.218  13.650
36835W        W 1820  26.969   4.915  14.672
36836W        W 1821  36.579  15.212  14.766
36837W        W 1822   2.415  25.184  13.824
36838W        W 1823   1.638  26.659   3.452
36839W        W 1824  34.042   9.817   4.479
36840W        W 1825  25.349  31.629   3.054
36841W        W 1826   7.630  18.648   4.221
36842W        W 1827  32.816  44.382   3.302
36843W        W 1828  28.446  36.869   2.656
36844W        W 1829  38.328  24.835  10.234
36845W        W 1830  20.104  14.635  14.525
36846W        W 1831  43.423   6.112  10.731
36847W        W 1832  30.501  14.530   0.939
36848W        W 1833  39.500  19.072   2.965
36849W        W 1834  40.816  22.029  12.348
36850W        W 1835  42.335  32.887   2.730
36851W        W 1836  28.606  34.551   4.228
36852W        W 1837  36.524  19.779  13.063
36853W        W 1838  22.207  32.605  10.568
36854W        W 1839  20.947   9.549  13.444
36855W        W 1840  29.447  23.103   0.962
36856W        W 1841  14.493  29.293   3.194
36857W        W 1842  43.895   7.908  14.311
36858W        W 1843  27.194   3.843   3.665
36859W        W 1844   5.271  28.635  11.592
36860W        W 1845   6.756  15.806   1.539
36861W        W 1846  31.385  43.017  11.621
36862W        W 1847  10.858  11.075  12.898
36863W        W 1848  44.360  41.798  10.986
36864W        W 1849  34.503   5.295  12.482
36865W        W 1850  15.898  30.313   5.473
36866W        W 1851   8.668   2.527  12.912
36867W        W 1852  26.094  31.370  12.502
36868W        W 1853  14.610  15.994   1.573
36869W        W 1854  25.304  30.187   1.419
36870W        W 1855  43.425  18.965  13.075
36871W        W 1856   7.422  32.986  10.577
36872W        W 1857  30.512  11.945  11.206
36873W        W 1858  13.688  38.617  11.704
36874W        W 1859  15.820  17.786  13.531
36875W        W 1860  12.511   0.914   3.593
36876W        W 1861   0.039  27.999  14.427
36877W        W 1862  37.645  34.997  14.896
36878W        W 1863   9.208  41.411  11.695
36879W        W 1864  25.238  11.342   3.226
36880W        W 1865   7.422   6.799   3.096
36881W        W 1866  24.146  23.437  11.241
36882W        W 1867  12.689   0.812  10.576
36883W        W 1868  38.870  14.643   4.479
36884W        W 1869  33.557  34.211   2.039
36885W        W 1870  25.580  22.774   0.344
36886W        W 1871  12.360  17.143  13.468
36887W        W 1872  28.132  14.238  11.094
36888W        W 1873  16.508  30.001   0.828
36889W        W 1874  11.654  19.304   4.371
36890W        W 1875   6.685  26.036   2.883
36891W        W 1876  23.718  26.015   2.387
36892W        W 1877  31.111  32.970  13.313
36893W        W 1878  19.223  27.568  11.494
36894W        W 1879  30.577   8.521   5.023
36895W        W 1880  30.064  25.634   4.078
36896W        W 1881  43.855  43.184   1.703
36897W        W 1882  17.367  28.745  14.583
36898W        W 1883   1.702  41.807  14.815
36899W        W 1884  12.731   9.162   4.654
36900W        W 1885  42.384   4.401  14.363
36901W        W 1886  15.799  24.842   4.146
36902W        W 1887   1.898  20.451  11.470
36903W        W 1888   3.734  25.426  11.343
36904W        W 1889  38.970  25.932  13.757
36905W        W 1890  34.443  33.685  13.831
36906W        W 1891  20.637  33.808   0.948
36907W        W 1892   0.719  16.708  12.498
36908W        W 1893  34.097   5.046   0.018
36909W        W 1894   7.138  27.503   4.940
36910W        W 1895  10.560  12.701  11.134
36911W        W 1896  38.476  31.495   2.849
36912W        W 1897  27.660  18.269   4.177
36913W        W 1898  37.904  15.776   2.290
36914W        W 1899  22.276   7.464   4.356
36915W        W 1900  30.066  44.055  12.581
36916W        W 1901   9.203  22.437   1.861
36917W        W 1902  29.720   8.243   2.747
36918W        W 1903  32.631  43.491   3.636
36919W        W 1904  34.560   5.184   3.716
36920W        W 1905   4.146  14.020  10.831
36921W        W 1906  38.887  26.758  12.076
36922W        W 1907   1.923   4.500   1.486
36923W        W 1908  44.407  21.179   4.109
36924W        W 1909  43.436  41.316   1.255
36925W        W 1910  11.761  32.678   4.589
36926W        W 1911   1.549  10.736   4.468
36927W        W 1912  10.770   8.856  12.856
36928W        W 1913   8.470  31.924   1.233
36929W        W 1914   7.242   4.240   2.252
36930W        W 1915   6.684  40.550  13.047
36931W        W 1916  38.127   7.640  10.218
36932W        W 1917   0.665  36.160   4.537
36933W        W 1918   8.312  16.063   1.400
36934W        W 1919  40.933  11.639  12.366
36935W        W 1920  40.945   2.767   1.879
36936W        W 1921  36.952  17.158  14.414
36937W        W 1922  25.010  21.007   0.769
36938W        W 1923  32.141  43.821   3.260
36939W        W 1924  18.312  11.461   1.597
36940W        W 1925  41.047  33.923  13.820
36941W        W 1926  32.991  17.363  12.002
36942W        W 1927  33.774  31.458   1.003
36943W        W 1928  41.330  16.360   1.870
36944W        W 1929  37.640   5.314   2.708
36945W        W 1930   6.836   1.848  13.785
36946W        W 1931   3.251  31.025  11.135
36947W        W 1932  33.404  20.232   4.069
36948W        W 1933  32.658  14.842  12.952
36949W        W 1934  26.036  33.189  10.953
36950W        W 1935  39.446  16.164   1.057
36951W        W 1936  43.530  38.531  13.787
36952W        W 1937  35.871  23.174  13.413
36953W        W 1938  18.122   9.304   2.462
36954W        W 1939  42.020  13.119  14.356
36955W        W 1940  43.312  18.869  13.798
36956W        W 1941  21.592  41.034  13.364
36957W        W 1942  15.129   4.723   3.094
36958W        W 1943  19.089   4.404   1.157
36959W        W 1944  34.808  43.049  12.447
36960W        W 1945  23.193  33.527   0.221
36961W        W 1946  26.627   3.747  13.724
36962W        W 1947   9.818   8.200   1.007
36963W        W 1948  10.771   0.923  13.862
36964W        W 1949  43.864  40.794  10.860
36965W        W 1950  41.743  15.803   1.359
36966W        W 1951  44.629  16.333   0.766
36967W        W 1952   3.935  28.155  13.954
36968W        W 1953  29.974   8.609  12.578
36969W        W 1954   1.393   9.143   3.657
36970W        W 1955  18.634  12.920   2.889
36971W        W 1956  20.020  34.639  11.533
36972W        W 1957  34.948  40.879  12.929
36973W        W 1958  22.445   0.948  13.544
36974W        W 1959  20.028   1.205   1.264
36975W        W 1960  35.005  30.668  13.232
36976W        W 1961   2.411  10.218  13.906
36977W        W 1962  13.627  44.883  14.872
36978W        W 1963   8.439  22.779  11.538
36979W        W 1964  14.806  25.984  12.459
36980W        W 1965  36.031  38.622  10.417
36981W        W 1966  15.799   5.270   2.306
36982W        W 1967  25.213  36.543   1.547
36983W        W 1968   6.932  42.387  10.885
36984W        W 1969  43.488  25.294   4.901
36985W        W 1970  43.397  23.316   4.880
36986W        W 1971   4.189  32.487   0.748
36987W        W 1972  29.260  35.353   4.101
36988W        W 1973  40.597  32.422  11.595
36989W        W 1974  35.405  38.918  14.283
36990W        W 1975  22.874   1.503   2.666
36991W        W 1976  36.571   9.503  11.594
36992W        W 1977   0.253  37.146  12.435
36993W        W 1978  12.344  34.450   0.364
36994W        W 1979  37.131  11.811  14.700
36995W        W 1980  17.966  38.324  12.037
36996W        W 1981  13.559  29.498   2.845
36997W        W 1982   1.992  12.662  11.737
36998W        W 1983  16.960  33.007   0.023
36999W        W 1984  11.437  33.105   1.292
37000W        W 1985  20.680  33.649   3.681
37001W        W 1986   7.974  37.928   3.409
37002W        W 1987  14.061  12.201  14.779
37003W        W 1988   1.019  31.949   3.638
37004W        W 1989  33.497  33.556  13.541
37005W        W 1990  25.664   2.381  13.359
37006W        W 1991  25.585  27.633   4.109
37007W        W 1992  12.364  15.558   2.644
37008W        W 1993  17.708  33.639   2.665
37009W        W 1994  33.699  16.971  13.853
37010W        W 1995  11.406  26.511  11.883
37011W        W 1996  41.807  21.580  13.919
37012W        W 1997  26.047  27.736   4.258
37013W        W 1998  22.923  21.922   0.665
37014W        W 1999  36.498  42.345  12.851
37015W        W 2000  13.414   5.827  11.142
37016W        W 2001   1.975  26.477   4.144
37017W        W 2002   5.921  35.409  10.933
37018W        W 2003  24.797  31.102  13.030
37019W        W 2004  24.777   6.886   1.902
37020W        W 2005  43.720  43.034   2.618
37021W        W 2006  26.575  40.942   3.680
37022W        W 2007  14.133   0.016  14.416
37023W        W 2008  22.207  27.439  13.841
37024W        W 2009  43.348  12.145   4.250
37025W        W 2010  32.933  25.979   0.980
37026W        W 2011  38.992   4.692   4.364
37027W        W 2012  12.330   8.303  11.878
37028W        W 2013  37.603   0.770   5.004
37029W        W 2014  27.167   6.277  11.755
37030W        W 2015   2.599  20.721  14.562
37031W        W 2016   3.658   3.353   0.448
37032W        W 2017   0.040   2.470  12.012
37033W        W 2018  30.183  38.038   4.226
37034W        W 2019  32.943  36.882   3.750
37035W        W 2020  39.939  27.903   4.385
37036W        W 2021  29.786  39.558   2.699
37037W        W 2022  15.750  26.240  10.361
37038W        W 2023  39.372  40.600  11.105
37039W        W 2024  39.009  27.966   2.765
37040W        W 2025  39.953  30.367   1.470
37041W        W 2026  43.481  18.517   0.806
37042W        W 2027  32.019  19.477   4.768
37043W        W 2028  11.907  28.469   2.236
37044W        W 2029  43.191   3.136  13.479
37045W        W 2030  12.797  11.760  12.095
37046W        W 2031   1.690  17.113   4.563
37047W        W 2032  38.789  23.648  13.821
37048W        W 2033  16.013  32.026   3.261
37049W        W 2034  15.562  37.432   4.735
37050W        W 2035  33.301   5.087  11.003
37051W        W 2036  37.575   6.344  14.855
37052W        W 2037  40.698  18.197  12.029
37053W        W 2038  31.679  24.436  14.002
37054W        W 2039   4.920  23.899  11.452
37055W        W 2040  16.904  38.560   2.880
37056W        W 2041  36.915   0.713  10.709
37057W        W 2042  34.562   7.181   4.057
37058W        W 2043  22.534   3.680   1.195
37059W        W 2044  24.919   0.387   0.327
37060W        W 2045  28.453  37.594   3.153
37061W        W 2046  18.784  14.857  13.924
37062W        W 2047  39.367  28.211   0.388
37063W        W 2048  38.967  30.825   1.762
37064W        W 2049   5.214  23.878   3.300
37065W        W 2050   7.825  30.106   4.132
37066W        W 2051  25.199  43.770   1.310
37067W        W 2052  38.445  35.696  10.759
37068W        W 2053  29.826  31.040  14.433
37069W        W 2054  21.301  27.871   2.134
37070W        W 2055  34.480  42.100  13.860
37071W        W 2056  13.043  28.181  13.927
37072W        W 2057  40.910   9.808   1.456
37073W        W 2058   8.929  23.462  12.160
37074W        W 2059  40.251  31.792  10.248
37075W        W 2060  21.565  30.698   0.681
37076W        W 2061   0.887  32.462   3.626
37077W        W 2062   4.141   5.903  10.692
37078W        W 2063  29.658   0.373  13.830
37079W        W 2064   0.386  19.690  10.426
37080W        W 2065   2.336  31.954  12.074
37081W        W 2066  22.737  25.608   1.236
37082W        W 2067  34.619   5.983   4.659
37083W        W 2068  30.898  10.107  14.388
37084W        W 2069  15.825  35.490   0.795
37085W        W 2070  21.841  34.940  14.977
37086W        W 2071  23.079   6.784  14.410
37087W        W 2072  22.729  14.794   2.157
37088W        W 2073  42.852  42.040  11.637
37089W        W 2074  13.574  44.440   1.341
37090W        W 2075  43.841  42.908   2.137
37091W        W 2076  20.331  37.324   3.835
37092W        W 2077   9.681  36.870  14.006
37093W        W 2078  44.841  20.440  13.495
37094W        W 2079  16.453  35.146  11.521
37095W        W 2080   4.945  24.723  11.563
37096W        W 2081  18.039  28.953  12.017
37097W        W 2082  13.868  15.762   2.901
37098W        W 2083  22.127  22.726  10.041
37099W        W 2084  37.634   0.634  14.403
37100W        W 2085   9.080  20.671  13.576
37101W        W 2086  33.679   7.149  11.740
37102W        W 2087  40.774  18.314  12.997
37103W        W 2088  17.294  29.322   2.710
37104W        W 2089  10.183  34.552  11.239
37105W        W 2090  23.196  43.786  10.514
37106W        W 2091  27.154   2.776   1.107
37107W        W 2092  44.864  27.448  11.384
37108W        W 2093  14.821  32.922  14.362
37109W        W 2094  35.857  43.752  10.866
37110W        W 2095  31.899  25.506  13.084
37111W        W 2096  40.904  25.109   2.523
37112W        W 2097  14.141  15.402  11.070
37113W        W 2098  41.494  40.281   1.552
37114W        W 2099  18.649  17.210   2.268
37115W        W 2100  33.643   2.711  10.969
37116W        W 2101  17.068  35.016  10.646
37117W        W 2102   1.980   8.507  14.150
37118W        W 2103  34.858  24.907   2.021
37119W        W 2104  14.826   6.843  13.770
37120W        W 2105   2.446  20.973   1.843
37121W        W 2106  40.240  16.010  10.701
37122W        W 2107  37.933   0.754  12.853
37123W        W 2108  18.125  14.266  13.803
37124W        W 2109   6.967  28.512  13.116
37125W        W 2110  15.752  20.132   4.494
37126W        W 2111  31.559  34.022  10.506
37127W        W 2112  39.934  44.470  13.081
37128W        W 2113  43.947  27.001   4.794
37129W        W 2114  26.435  36.550  11.669
37130W        W 2115   4.486   1.143   1.328
37131W        W 2116  22.627  19.536   2.377
37132W        W 2117  10.822  20.188   0.400
37133W        W 2118   9.763  14.471   4.510
37134W        W 2119  23.868  39.023  13.285
37135W        W 2120  22.216   1.405   2.657
37136W        W 2121  44.641  17.745  11.116
37137W        W 2122   5.919   2.993  13.385
37138W        W 2123   4.819  39.053   1.979
37139W        W 2124  12.525  28.143  13.891
37140W        W 2125  43.422  42.712  14.507
37141W        W 2126   9.784  26.242   4.210
37142W        W 2127  44.062   1.698   0.244
37143W        W 2128  23.202  12.774  12.620
37144W        W 2129  12.800  30.200   4.137
37145W        W 2130  10.465  15.802  11.077
37146W        W 2131  34.241  28.551  14.680
37147W        W 2132  40.799  28.475   3.596
37148W        W 2133  26.631  41.297  12.163
37149W        W 2134  37.524   3.498  10.393
37150W        W 2135  25.020  42.339  14.852
37151W        W 2136  15.182  15.075   0.191
37152W        W 2137   6.614  37.999   3.745
37153W        W 2138  21.108  41.309   1.140
37154W        W 2139  39.275   5.877   1.354
37155W        W 2140  26.260  33.974  10.173
37156W        W 2141   5.497  32.882   1.731
37157W        W 2142  13.145   2.279  13.847
37158W        W 2143   4.461  37.154   2.881
37159W        W 2144  19.535   0.991   1.358
37160W        W 2145  21.716  26.246   0.919
37161W        W 2146  10.805   3.974  10.997
37162W        W 2147   4.760  16.727  13.480
37163W        W 2148  16.714  24.599   3.847
37164W        W 2149  33.782  10.729  13.933
37165W        W 2150  10.312   0.963   2.902
37166W        W 2151  26.125  21.084   4.170
37167W        W 2152  43.936   6.172  12.781
37168W        W 2153  13.830  35.516  12.382
37169W        W 2154  26.147  42.899   0.709
37170W        W 2155   6.840  13.427   3.108
37171W        W 2156  41.197   6.431   2.581
37172W        W 2157  40.164   2.678  13.996
37173W        W 2158  41.817   4.750   4.211
37174W        W 2159  30.610  31.230   1.296
37175W        W 2160  10.504   8.242  10.288
37176W        W 2161  13.815   0.667  13.928
37177W        W 2162   6.861  13.949   3.096
37178W        W 2163  29.731  39.894  13.059
37179W        W 2164   2.510  30.215   1.437
37180W        W 2165   6.252  26.673   2.868
37181W        W 2166   0.163   4.198   4.169
37182W        W 2167  34.414  38.658   4.912
37183W        W 2168  13.599  21.254  13.090
37184W        W 2169  32.604  29.416  13.273
37185W        W 2170  16.252  23.986   1.430
37186W        W 2171   1.306  13.353  11.907
37187W        W 2172   1.602  31.177   1.263
37188W        W 2173  34.178  23.010   3.960
37189W        W 2174  26.652  43.099   1.897
37190W        W 2175  22.573  17.655   1.801
37191W        W 2176  11.301   4.925   2.915
37192W        W 2177  23.547  41.278   1.744
37193W        W 2178   0.695  31.880   1.955
37194W        W 2179  28.507   1.468   0.367
37195W        W 2180  21.191   6.172  10.632
37196W        W 2181   5.290   1.927   0.565
37197W        W 2182  36.314  41.428   5.104
37198W        W 2183  42.651  25.892   5.203
37199W        W 2184  21.628  24.054  12.475
37200W        W 2185  37.516  39.413   0.850
37201W        W 2186  44.246   3.501  10.292
37202W        W 2187  24.366   3.937  12.824
37203W        W 2188  22.452  27.133   4.060
37204W        W 2189  16.176   8.159  11.222
37205W        W 2190  19.570  39.555  12.969
37206W        W 2191  44.516  28.756   3.450
37207W        W 2192  44.740  23.782  11.132
37208W        W 2193  16.361  44.989  12.598
37209W        W 2194  35.158  12.094   1.887
37210W        W 2195  29.841   7.003   4.603
37211W        W 2196  16.112  21.741   0.795
37212W        W 2197   5.271  32.593  11.571
37213W        W 2198   3.597  23.117   2.293
37214W        W 2199  12.706   8.193   4.264
37215W        W 2200  14.554  15.684   3.203
37216W        W 2201  39.037  41.424   0.188
37217W        W 2202  11.344  14.034   1.874
37218W        W 2203  35.986  42.185  13.539
37219W        W 2204  34.644  31.480   2.149
37220W        W 2205  34.842  36.936   3.751
37221W        W 2206   1.546   9.647   1.679
37222W        W 2207   0.516  29.439   3.278
37223W        W 2208  14.949  10.799  13.530
37224W        W 2209  30.409  20.995   4.094
37225W        W 2210  18.857  18.888  14.042
37226W        W 2211  38.015  28.190   4.218
37227W        W 2212  18.073  38.312   4.855
37228W        W 2213  17.573  15.424   2.042
37229W        W 2214  12.632  38.786  11.585
37230W        W 2215   5.177  18.945  10.236
37231W        W 2216   2.914   3.381   1.773
37232W        W 2217  32.283   4.537   2.782
37233W        W 2218  22.810   1.074  10.032
37234W        W 2219  15.639   8.793   2.968
37235W        W 2220  14.561   4.454   4.273
37236W        W 2221   1.901  14.330   3.396
37237W        W 2222  18.602  39.507  12.567
37238W        W 2223   7.206   9.812   0.080
37239W        W 2224   0.695  34.853  11.150
37240W        W 2225  32.140  11.302   2.289
37241W        W 2226  36.567  37.324   3.712
37242W        W 2227  32.590  16.144   4.838
37243W        W 2228   5.752   0.398   1.038
37244W        W 2229   7.263  37.907   2.805
37245W        W 2230  11.816  19.204   1.632
37246W        W 2231  33.041  35.513  10.677
37247W        W 2232  35.791  23.320   0.757
37248W        W 2233  29.936  30.031   9.843
37249W        W 2234  36.342  42.493  13.826
37250W        W 2235  19.468  26.650   0.403
37251W        W 2236   2.891  14.625  12.423
37252W        W 2237   2.491  30.533   4.965
37253W        W 2238  36.676  26.679  10.623
37254W        W 2239  22.931  11.344   4.487
37255W        W 2240  26.539  26.396  13.904
37256W        W 2241   1.434   3.456   5.029
37257W        W 2242  35.761  17.743  13.212
37258W        W 2243   5.314  11.161  14.751
37259W        W 2244  36.414  18.695   1.188
37260W        W 2245  12.054   1.216   1.898
37261W        W 2246  11.657  29.550   2.483
37262W        W 2247   6.641   2.420  11.302
37263W        W 2248  29.937  41.265   2.806
37264W        W 2249   7.142   9.768   4.455
37265W        W 2250  24.036  33.346  11.574
37266W        W 2251  31.538  32.460   3.283
37267W        W 2252  18.460  33.095   0.815
37268W        W 2253  40.894   6.879  11.600
37269W        W 2254  27.806  41.719  11.573
37270W        W 2255  35.457  40.901   4.249
37271W        W 2256  34.111   3.490  14.987
37272W        W 2257  22.071  36.584  13.169
37273W        W 2258  39.997  29.525  13.057
37274W        W 2259   6.377   7.789   1.799
37275W        W 2260   4.248  34.354  10.982
37276W        W 2261  33.398  18.714   1.765
37277W        W 2262  14.332   9.194   4.121
37278W        W 2263  12.738  16.142   0.213
37279W        W 2264   5.609  44.389  14.484
37280W        W 2265  24.595   5.117   2.355
37281W        W 2266  31.142  13.358  12.204
37282W        W 2267  13.575  25.484   4.478
37283W        W 2268   2.578  29.384  11.513
37284W        W 2269  32.351  22.012  13.145
37285W        W 2270   7.665   6.173   2.308
37286W        W 2271  37.558  17.258  13.260
37287W        W 2272  25.021  15.750   4.520
37288W        W 2273  40.364  24.471   3.478
37289W        W 2274  32.853  38.806   2.767
37290W        W 2275  23.518   9.154   3.779
37291W        W 2276  15.152  31.123  11.411
37292W        W 2277  14.343  40.082   1.733
37293W        W 2278  41.855  42.967   1.054
37294W        W 2279  18.812  23.148   1.731
37295W        W 2280  25.917  12.387  13.586
37296W        W 2281  22.034  44.893  12.571
37297W        W 2282  44.258   0.459   1.751
37298W        W 2283  12.348  39.288  13.620
37299W        W 2284  29.488  17.633  14.480
37300W        W 2285   6.272   8.876   3.120
37301W        W 2286   4.798   5.638   3.610
37302W        W 2287  13.392   2.802  12.438
37303W        W 2288  10.169  42.510   0.005
37304W        W 2289  44.021  44.951  12.529
37305W        W 2290  41.426  42.413  10.627
37306W        W 2291  33.664  24.580  11.956
37307W        W 2292   8.193  14.090  12.435
37308W        W 2293  24.092  40.955   3.783
37309W        W 2294  32.313  17.316   0.287
37310W        W 2295  30.690  39.369  14.423
37311W        W 2296   3.292  31.695   3.848
37312W        W 2297   7.893  35.895   4.115
37313W        W 2298  32.473   2.755  11.431
37314W        W 2299  30.211   6.753   0.023
37315W        W 2300  29.485   9.661  11.139
37316W        W 2301  26.454  16.172  13.248
37317W        W 2302  38.921  35.982  11.885
37318W        W 2303  33.208   1.179  14.334
37319W        W 2304  26.003  34.109   1.176
37320W        W 2305   5.502  27.902  12.063
37321W        W 2306  24.680   3.582  12.609
37322W        W 2307   1.341   2.257   3.607
37323W        W 2308  32.972  30.181  12.477
37324W        W 2309  43.399   6.258   0.420
37325W        W 2310  44.885  11.773   1.425
37326W        W 2311   2.261  14.161   3.724
37327W        W 2312  22.600  17.578  13.062
37328W        W 2313   5.374  41.861   0.904
37329W        W 2314  37.415  40.882   3.357
37330W        W 2315  18.716  13.555   0.342
37331W        W 2316   3.279  31.585  14.362
37332W        W 2317  16.797   0.646  14.335
37333W        W 2318  43.022   5.797  10.735
37334W        W 2319  26.774  38.934   1.488
37335W        W 2320  15.249  20.512   4.425
37336W        W 2321   0.350  14.155  13.895
37337W        W 2322   9.612  12.868   0.329
37338W        W 2323   4.568  16.758  12.998
37339W        W 2324  30.814  21.665  13.895
37340W        W 2325   3.704  18.803   0.867
37341W        W 2326  31.400   5.183   2.758
37342W        W 2327  20.778  21.067  13.029
37343W        W 2328  17.675  16.583   5.796
37344W        W 2329  37.042   8.769  11.439
37345W        W 2330  34.005  14.035  11.385
37346W        W 2331  31.861  28.007   1.904
37347W        W 2332   0.781  31.075  13.030
37348W        W 2333  31.075  15.931   2.721
37349W        W 2334  23.408   5.425   2.895
37350W        W 2335  32.736  29.596   4.232
37351W        W 2336  12.351   8.829  13.794
37352W        W 2337  13.661   6.374   4.953
37353W        W 2338  13.104  10.661   0.368
37354W        W 2339  30.593  30.078   1.956
37355W        W 2340  32.477  24.956  11.084
37356W        W 2341  14.688  43.405  14.121
37357W        W 2342   9.802  38.818   2.826
37358W        W 2343  40.528  10.900   1.853
37359W        W 2344  34.518  37.322  12.709
37360W        W 2345  29.636  21.552   1.750
37361W        W 2346   5.239  25.203  12.393
37362W        W 2347  15.403  25.067  14.850
37363W        W 2348  44.703  26.630   1.897
37364W        W 2349  40.953  33.816   2.786
37365W        W 2350  26.928  22.203   0.702
37366W        W 2351  38.504  20.752   0.886
37367W        W 2352  24.711   2.974   0.818
37368W        W 2353  43.014  22.125  11.548
37369W        W 2354   4.718  41.418  14.448
37370W        W 2355  26.215  25.121   4.068
37371W        W 2356  39.266  38.289   2.177
37372W        W 2357  21.293  40.844  14.830
37373W        W 2358  18.984  27.820  12.716
37374W        W 2359  27.198  10.780   1.754
37375W        W 2360   5.535   8.573  12.803
37376W        W 2361  38.541  28.553   0.407
37377W        W 2362   1.487  37.057  13.846
37378W        W 2363  42.024  35.321  13.428
37379W        W 2364  14.627  22.775   3.339
37380W        W 2365  44.278  37.474  14.266
37381W        W 2366   9.589   9.958   3.761
37382W        W 2367  34.954  43.043  14.460
37383W        W 2368   3.465  25.980  13.481
37384W        W 2369   6.628  21.634   3.352
37385W        W 2370  37.449  10.271   0.425
37386W        W 2371  20.977   6.514   5.014
37387W        W 2372   7.182  35.827   2.768
37388W        W 2373  36.749   2.736  12.128
37389W        W 2374   0.987  18.242   3.221
37390W        W 2375  32.560  17.647   3.642
37391W        W 2376  40.714   1.305  14.644
37392W        W 2377  42.541  31.455  13.089
37393W        W 2378  17.255  27.615   0.663
37394W        W 2379  32.940  10.165   1.045
37395W        W 2380   1.521  22.246  13.447
37396W        W 2381  24.860  32.184  10.419
37397W        W 2382  27.966  40.862  11.524
37398W        W 2383  37.012  11.311  12.561
37399W        W 2384   4.885  10.447   3.743
37400W        W 2385  20.771  13.557   2.135
37401W        W 2386   6.895  10.133  14.789
37402W        W 2387  42.806   7.441  14.651
37403W        W 2388   7.154  25.677  14.025
37404W        W 2389   5.712   9.928   1.192
37405W        W 2390  36.480  14.275  12.382
37406W        W 2391  23.665  18.015  11.914
37407W        W 2392  25.425  18.736   4.885
37408W        W 2393  28.132   6.442   2.784
37409W        W 2394  17.500  29.818  12.090
37410W        W 2395  40.085  42.887   4.931
37411W        W 2396  23.142  19.714   3.121
37412W        W 2397  42.518  15.492   3.730
37413W        W 2398  34.502  27.157   0.792
37414W        W 2399  39.922  29.504  14.953
37415W        W 2400   9.395  34.377   2.918
37416W        W 2401  12.106   1.562  14.786
37417W        W 2402  13.952   6.877   0.947
37418W        W 2403   9.332  26.371   3.101
37419W        W 2404   9.834  44.145  14.427
37420W        W 2405  37.265  25.559  13.563
37421W        W 2406   2.263  11.229  14.761
37422W        W 2407  40.055   5.962   2.942
37423W        W 2408  23.845   1.441   3.703
37424W        W 2409  21.980  24.223   0.723
37425W        W 2410  41.762  37.447  13.528
37426W        W 2411  29.380   9.144  11.020
37427W        W 2412  27.339  40.004   1.863
37428W        W 2413  44.899  15.768  11.167
37429W        W 2414  41.299   7.867  12.088
37430W        W 2415  35.791  30.305   2.812
37431W        W 2416  14.763  35.882  12.574
37432W        W 2417  20.974   0.494  13.144
37433W        W 2418  19.244  43.980   3.287
37434W        W 2419  39.488   5.310  11.917
37435W        W 2420  28.207  16.329   3.625
37436W        W 2421  29.319  11.295  12.535
37437W        W 2422  30.142   3.895  12.543
37438W        W 2423  16.231  25.287   1.978
37439W        W 2424  16.016   2.832  13.567
37440W        W 2425   6.388  21.067  12.032
37441W        W 2426  17.613  18.091   0.523
37442W        W 2427  37.071  40.522  14.450
37443W        W 2428  24.714  12.250  14.752
37444W        W 2429  32.685   2.578  13.463
37445W        W 2430  27.149  18.960  10.709
37446W        W 2431   5.816  29.643  10.598
37447W        W 2432   6.949  42.378  11.419
37448W        W 2433  34.235  20.194   1.385
37449W        W 2434  24.254  15.563  11.144
37450W        W 2435  21.042  40.439   0.108
37451W        W 2436  43.670   3.797   1.633
37452W        W 2437  18.602  27.584   4.865
37453W        W 2438  28.769   7.116  11.871
37454W        W 2439  36.704   7.839   2.756
37455W        W 2440  37.224   8.794  10.107
37456W        W 2441  23.735  12.697  12.870
37457W        W 2442  36.553  39.864   4.235
37458W        W 2443  13.651  24.948   3.590
37459W        W 2444  37.996   1.941  13.544
37460W        W 2445  42.948  28.479  13.968
37461W        W 2446  38.571  40.662  12.076
37462W        W 2447   2.906  35.325   0.957
37463W        W 2448  32.193  33.967   0.322
37464W        W 2449  39.544  34.395   2.681
37465W        W 2450   2.955  32.082   4.225
37466W        W 2451  34.108   0.369   1.664
37467W        W 2452  20.976  12.795  12.278
37468W        W 2453  11.828  43.049  13.073
37469W        W 2454   6.399  31.932  13.081
37470W        W 2455  34.550  28.870  14.983
37471W        W 2456  21.110  39.051   1.405
37472W        W 2457  12.602  20.941   1.236
37473W        W 2458  14.820  18.699  13.091
37474W        W 2459  24.490  35.290   4.163
37475W        W 2460   3.360  43.645  12.513
37476W        W 2461  39.081   6.755  13.909
37477W        W 2462  10.777   7.894  10.557
37478W        W 2463  30.916  15.076  12.889
37479W        W 2464  35.958  24.458   4.652
37480W        W 2465   7.390  27.592   2.819
37481W        W 2466   0.645  42.061  11.089
37482W        W 2467  21.553  24.625   3.386
37483W        W 2468   4.656  26.185   0.804
37484W        W 2469   8.230   8.808  12.540
37485W        W 2470  37.838   3.441  12.445
37486W        W 2471   5.952  43.221   1.416
37487W        W 2472  18.098   2.447   2.694
37488W        W 2473  13.925  10.614  13.563
37489W        W 2474  14.197   2.830   0.472
37490W        W 2475  10.357  30.869  13.562
37491W        W 2476  38.097  10.906   2.588
37492W        W 2477  36.753  18.129   0.179
37493W        W 2478   0.407  32.596  14.070
37494W        W 2479   7.787  34.068  11.395
37495W        W 2480   1.872  43.694  12.105
37496W        W 2481  36.619  11.816  11.940
37497W        W 2482  40.950  31.834   2.800
37498W        W 2483  16.248  39.100  11.162
37499W        W 2484  30.539  39.522   0.757
37500W        W 2485  12.377  36.238   1.420
37501W        W 2486  44.381  36.369  13.426
37502W        W 2487  16.298   1.727   2.411
37503W        W 2488  29.732  18.265  13.531
37504W        W 2489   2.275  29.478   0.283
37505W        W 2490  43.012  26.817  10.269
37506W        W 2491  29.355   1.691  13.984
37507W        W 2492  38.383  36.172  13.217
37508W        W 2493  11.716  23.584   0.862
37509W        W 2494  39.346   5.762   0.248
37510W        W 2495  22.186  33.789  14.292
37511W        W 2496  36.327   0.995   4.142
37512W        W 2497  22.946  34.412   3.314
37513W        W 2498   0.224  19.526   4.056
37514W        W 2499  39.535  34.369   3.527
37515W        W 2500  41.083  11.337   4.263
37516W        W 2501  22.096  31.963  10.802
37517W        W 2502  38.472   0.914   0.404
37518W        W 2503   0.329  10.963   0.732
37519W        W 2504  25.160  37.775   3.715
37520W        W 2505  32.991  22.016  12.414
37521W        W 2506  20.741  39.570  11.212
37522W        W 2507  26.078  17.645   4.729
37523W        W 2508  30.907  26.493   3.607
37524W        W 2509  31.421  18.732  13.113
37525W        W 2510  32.869  26.537  13.103
37526W        W 2511  18.578  15.471  12.035
37527W        W 2512  20.828  30.051  13.387
37528W        W 2513  43.023  21.705   4.528
37529W        W 2514  36.788  13.752   3.660
37530W        W 2515  34.328  32.276   0.813
37531W        W 2516  30.080  31.932  10.796
37532W        W 2517  14.255  17.113  10.687
37533W        W 2518   0.286   2.927  12.956
37534W        W 2519  30.551  38.418   4.443
37535W        W 2520  21.698  10.188   3.739
37536W        W 2521   7.690  34.820   5.441
37537W        W 2522  17.711  18.693  14.023
37538W        W 2523  34.580  16.526  14.587
37539W        W 2524   5.196  26.009   2.794
37540W        W 2525  41.885  25.585  13.769
37541W        W 2526  17.085  12.314   0.725
37542W        W 2527  27.546  25.427   0.080
37543W        W 2528  22.245   2.989   3.559
37544W        W 2529  26.771   9.336   5.108
37545W        W 2530  27.462   7.139   1.404
37546W        W 2531   4.894  34.967  13.855
37547W        W 2532   3.345  37.051  10.415
37548W        W 2533   8.885   0.239  11.384
37549W        W 2534  28.976  39.040   0.118
37550W        W 2535  35.630   3.013  13.975
37551W        W 2536  29.379   1.808   4.623
37552W        W 2537  39.059  33.023  14.879
37553W        W 2538  28.910  31.824   1.706
37554W        W 2539  12.288  24.159  10.410
37555W        W 2540  10.826  29.919  10.976
37556W        W 2541   7.327  22.623  12.468
37557W        W 2542   9.752   0.212   4.185
37558W        W 2543  37.346  38.933  11.934
37559W        W 2544  17.683  43.717   3.631
37560W        W 2545  43.397  26.190  14.359
37561W        W 2546  18.758  24.909   2.654
37562W        W 2547   8.390  19.258   0.235
37563W        W 2548  35.114  33.848  11.614
37564W        W 2549   3.736  21.633  12.382
37565W        W 2550  23.684  14.778  14.816
37566W        W 2551   3.908   0.512   0.778
37567W        W 2552  42.319  22.561  13.440
37568W        W 2553  16.083  13.568  12.557
37569W        W 2554   1.770  25.203  12.396
37570W        W 2555  22.685  36.681  14.593
37571W        W 2556  38.721  41.377   3.274
37572W        W 2557   0.209   2.179   2.623
37573W        W 2558  23.117  18.264  14.332
37574W        W 2559   2.896  22.556   1.223
37575W        W 2560   6.890  11.841   4.603
37576W        W 2561  32.359  16.175  11.634
37577W        W 2562  19.124  34.558   5.000
37578W        W 2563   7.237  19.597   4.473
37579W        W 2564   0.420  16.184  14.458
37580W        W 2565  35.513   6.057  12.823
37581W        W 2566  30.032  18.540  12.413
37582W        W 2567  29.502  34.033  10.372
37583W        W 2568  42.815  34.167  14.767
37584W        W 2569   8.917  37.028   0.453
37585W        W 2570  39.759  30.038  13.255
37586W        W 2571   8.161   7.712   1.822
37587W        W 2572  15.158  13.122   0.280
37588W        W 2573   0.262  28.261  13.907
37589W        W 2574   2.855   6.179   2.375
37590W        W 2575  36.548  37.246   1.417
37591W        W 2576   4.310  23.239  13.111
37592W        W 2577  38.385  16.338  13.338
37593W        W 2578  30.452   7.425  12.777
37594W        W 2579  27.565  37.782   2.251
37595W        W 2580  33.944  37.646   2.811
37596W        W 2581   8.890  22.143   4.214
37597W        W 2582   2.889  26.851   3.806
37598W        W 2583  42.522   2.123   2.302
37599W        W 2584  24.404   4.411  13.077
37600W        W 2585  18.695  17.224  11.729
37601W        W 2586  35.447  43.280  14.106
37602W        W 2587  42.385  24.231   1.801
37603W        W 2588  24.008  17.665   1.690
37604W        W 2589  34.496  29.989   1.935
37605W        W 2590   1.244  43.827   1.870
37606W        W 2591  40.565  23.931  13.916
37607W        W 2592  12.187  42.710   3.801
37608W        W 2593   2.303  36.271  14.401
37609W        W 2594  12.057   6.717   0.466
37610W        W 2595   3.714   0.695   1.501
37611W        W 2596   5.517  37.988   2.008
37612W        W 2597   8.353  33.217   2.983
37613W        W 2598  25.027  10.034  12.481
37614W        W 2599   3.462   2.327   4.911
37615W        W 2600  33.480  30.617   0.395
37616W        W 2601  11.730  32.592  14.027
37617W        W 2602  35.354  23.903  14.344
37618W        W 2603  11.290  20.571   2.392
37619W        W 2604  26.083   9.019   2.197
37620W        W 2605  13.489  13.543  10.931
37621W        W 2606  15.692  16.180   0.042
37622W        W 2607  32.745  33.214   1.038
37623W        W 2608  44.144  33.187   3.020
37624W        W 2609  19.906  26.813  11.512
37625W        W 2610  37.019   8.996   0.865
37626W        W 2611  20.711  28.443   3.095
37627W        W 2612  44.416  21.711   1.985
37628W        W 2613  41.872  34.358  11.307
37629W        W 2614  38.977   8.571   0.481
37630W        W 2615  11.779  23.044   3.137
37631W        W 2616  17.787  21.169  11.007
37632W        W 2617  39.463  28.452   0.848
37633W        W 2618  29.687  33.710   5.157
37634W        W 2619  37.428   4.894   4.952
37635W        W 2620  38.825   2.987  13.571
37636W        W 2621  36.466  18.096   4.582
37637W        W 2622  27.649  35.000   4.046
37638W        W 2623  20.228   8.934   2.427
37639W        W 2624  25.467  16.263  12.559
37640W        W 2625  11.254  20.318  13.134
37641W        W 2626  40.111  26.166   2.863
37642W        W 2627  19.598  23.252  14.622
37643W        W 2628  18.557  22.629   0.719
37644W        W 2629   6.697  39.466   3.724
37645W        W 2630  23.753   0.505  13.364
37646W        W 2631  41.567  21.674   3.246
37647W        W 2632  24.280  41.432   3.798
37648W        W 2633  44.820  14.082   1.767
37649W        W 2634   2.358  31.095  11.545
37650W        W 2635   1.758   4.850   2.401
37651W        W 2636  11.259  17.261   4.757
37652W        W 2637  43.808  41.675   1.790
37653W        W 2638  32.440   8.834   3.198
37654W        W 2639  30.000  44.735  14.274
37655W        W 2640   3.377  10.864  11.553
37656W        W 2641  36.178   8.040   4.164
37657W        W 2642  43.742   2.269   2.384
37658W        W 2643  40.547  11.709  14.455
37659W        W 2644  21.789  19.790   0.367
37660W        W 2645  22.475  11.747   3.280
37661W        W 2646   8.468  38.095  11.937
37662W        W 2647  17.839  20.854  13.470
37663W        W 2648  32.938  13.407  10.712
37664W        W 2649   2.693  23.259   4.128
37665W        W 2650  36.467  11.930   1.731
37666W        W 2651  10.145   0.498  14.372
37667W        W 2652  38.937   6.778  13.409
37668W        W 2653   0.840  19.518   2.816
37669W        W 2654  14.912  35.878   0.482
37670W        W 2655  21.210  25.397   2.358
37671W        W 2656  36.249  12.689   0.680
37672W        W 2657  26.439  38.146   0.460
37673W        W 2658   8.172  37.580   4.589
37674W        W 2659  32.589  20.200   0.263
37675W        W 2660  24.006  10.822  14.199
37676W        W 2661  23.850  27.930  12.446
37677W        W 2662  21.429  26.737  12.056
37678W        W 2663  35.312   4.734   0.753
37679W        W 2664   2.953   8.393  14.876
37680W        W 2665   2.254  12.119   1.168
37681W        W 2666  42.310   8.451   1.187
37682W        W 2667  31.688   1.483  14.393
37683W        W 2668   8.945  12.139  12.926
37684W        W 2669   5.183  31.478   4.569
37685W        W 2670  42.781  30.416  10.654
37686W        W 2671  15.292  35.112  14.920
37687W        W 2672  23.733  28.066  14.830
37688W        W 2673  34.796  40.024   3.567
37689W        W 2674  43.778  18.500   2.709
37690W        W 2675  40.791  32.346   2.755
37691W        W 2676  24.739  18.099   4.820
37692W        W 2677  22.953  25.006  13.954
37693W        W 2678  32.015  15.835   0.634
37694W        W 2679  35.445  37.089  14.561
37695W        W 2680  36.481   3.995  13.905
37696W        W 2681  17.792  24.956   0.571
37697W        W 2682  41.891  37.407  11.208
37698W        W 2683  22.708  13.323  10.774
37699W        W 2684   4.321   6.103   3.343
37700W        W 2685   7.871  15.989   3.684
37701W        W 2686  21.143  30.450   3.217
37702W        W 2687  20.066  14.740   2.897
37703W        W 2688  41.678  13.855  13.897
37704W        W 2689  42.419  44.009  12.613
37705W        W 2690  19.379  42.414  13.302
37706W        W 2691  43.442   7.290   1.171
37707W        W 2692  32.659  29.892   3.579
37708W        W 2693   1.722   4.787   1.891
37709W        W 2694  20.987  15.571   0.299
37710W        W 2695   3.141  34.850  11.536
37711W        W 2696  33.873  25.784   1.873
37712W        W 2697  18.413  17.417   2.696
37713W        W 2698  41.174  29.036  11.181
37714W        W 2699  22.532  21.621  13.490
37715W        W 2700  17.703   2.497  13.040
37716W        W 2701  38.742  11.752   3.359
37717W        W 2702  41.294  30.958  14.562
37718W        W 2703  25.493  23.247  13.114
37719W        W 2704  44.201  34.969  13.812
37720W        W 2705  32.547  41.378  10.738
37721W        W 2706   9.261   0.891   0.894
37722W        W 2707  20.667  19.581   3.818
37723W        W 2708  22.179  13.590   3.849
37724W        W 2709  35.970  18.680   3.159
37725W        W 2710  38.823   2.926   1.193
37726W        W 2711  27.995   9.855   4.120
37727W        W 2712  31.506   4.169  13.729
37728W        W 2713  37.478  14.473   2.369
37729W        W 2714  11.714   2.759   1.179
37730W        W 2715  19.834  11.245   0.262
37731W        W 2716   8.089  17.721  10.800
37732W        W 2717   0.246   9.672  12.945
37733W        W 2718  33.923   9.241   0.432
37734W        W 2719  26.056   5.441  11.489
37735W        W 2720  17.421  28.221  14.570
37736W        W 2721  30.328  33.018   3.235
37737W        W 2722  34.904  29.984  10.724
37738W        W 2723   2.423  22.016   2.680
37739W        W 2724  44.044  28.842  11.109
37740W        W 2725  11.231   0.454  14.925
37741W        W 2726  29.553  40.015   2.683
37742W        W 2727  28.509  41.049  12.605
37743W        W 2728  20.845  27.014   0.058
37744W        W 2729  37.427  14.888   4.331
37745W        W 2730  43.048  24.934  13.908
37746W        W 2731   9.885   7.318   3.726
37747W        W 2732  33.439  35.114   4.462
37748W        W 2733   7.248   5.962   1.765
37749W        W 2734  32.480   8.077  13.876
37750W        W 2735   0.745  44.043  14.410
37751W        W 2736   9.091  41.235   4.532
37752W        W 2737   0.020  32.504  12.469
37753W        W 2738  14.896   6.400  14.973
37754W        W 2739  16.568   4.480   2.355
37755W        W 2740   0.595   4.382  14.950
37756W        W 2741  10.179  25.100   4.672
37757W        W 2742  24.385  40.002   4.168
37758W        W 2743   9.738   8.379  10.676
37759W        W 2744  37.351  36.912   2.683
37760W        W 2745  24.843  37.467   1.352
37761W        W 2746  14.217   2.668  12.850
37762W        W 2747  10.299  44.045  14.269
37763W        W 2748  44.965  17.227   1.166
37764W        W 2749  16.425  20.539   1.580
37765W        W 2750  18.784  38.282   3.611
37766W        W 2751  17.887  11.470   0.435
37767W        W 2752  13.178  17.836  11.221
37768W        W 2753  21.851  27.082   3.112
37769W        W 2754  39.847  41.261   2.222
37770W        W 2755  38.527  43.747   2.215
37771W        W 2756  11.980  27.118  11.047
37772W        W 2757   8.368  24.489   3.964
37773W        W 2758  14.204  28.659  14.891
37774W        W 2759  41.805  21.344  12.090
37775W        W 2760   5.601  31.197   4.294
37776W        W 2761  40.995  13.956  11.611
37777W        W 2762  38.897   1.654  12.068
37778W        W 2763   8.444  16.528  12.917
37779W        W 2764  24.542   5.625   2.429
37780W        W 2765  15.807   6.614   2.816
37781W        W 2766  15.100  24.001   0.754
37782W        W 2767  42.461  42.359   3.662
37783W        W 2768  34.869  11.092   3.128
37784W        W 2769  40.015  19.556   0.745
37785W        W 2770  35.243  28.597   2.752
37786W        W 2771  41.737  43.431   3.207
37787W        W 2772   7.401  21.180   2.419
37788W        W 2773  19.972  11.794   3.812
37789W        W 2774  31.382  17.118  12.784
37790W        W 2775   9.992  39.530  14.390
37791W        W 2776   1.666   3.293   1.281
37792W        W 2777   1.052  40.354   2.194
37793W        W 2778   2.832  20.117  11.408
37794W        W 2779  43.285   0.533   4.579
37795W        W 2780  41.042   7.456  13.385
37796W        W 2781   0.280  22.599   3.658
37797W        W 2782  28.850  32.297   4.545
37798W        W 2783  26.959  44.997   9.737
37799W        W 2784  24.084   3.275  10.705
37800W        W 2785  34.070  37.567   1.920
37801W        W 2786   6.601  33.472   2.641
37802W        W 2787  15.873  29.000  11.577
37803W        W 2788  44.306  34.814  11.123
37804W        W 2789  42.068  42.869  14.498
37805W        W 2790  43.910  26.688  13.279
37806W        W 2791  12.221  29.875  14.893
37807W        W 2792  28.142  15.546  11.414
37808W        W 2793  21.587  36.687  13.960
37809W        W 2794  34.723  16.969   1.627
37810W        W 2795  36.537   7.842  14.802
37811W        W 2796   3.870   1.407  12.597
37812W        W 2797  42.490   1.246   1.703
37813W        W 2798   5.385  26.570   0.346
37814W        W 2799  41.190  15.670  14.356
37815W        W 2800   7.406   2.823  13.359
37816W        W 2801  11.436  15.301  14.822
37817W        W 2802  11.169  17.540  14.573
37818W        W 2803  30.138  28.860  13.077
37819W        W 2804  16.745  14.663  13.260
37820W        W 2805  23.444   7.104  13.935
37821W        W 2806   5.500  11.736  13.047
37822W        W 2807  18.698  21.136  13.975
37823W        W 2808  42.347  24.529   2.652
37824W        W 2809  26.676  21.449   2.637
37825W        W 2810  34.827  10.425  13.312
37826W        W 2811  39.801  30.554  13.504
37827W        W 2812   7.157  33.411  10.694
37828W        W 2813   0.876  17.818  14.273
37829W        W 2814   1.561  39.078   3.311
37830W        W 2815  33.605  12.425   2.845
37831W        W 2816  16.593  39.907   0.528
37832W        W 2817  36.049  20.185   4.239
37833W        W 2818  34.682   1.455  14.404
37834W        W 2819  21.944  12.847  10.703
37835W        W 2820  44.419  33.770  12.705
37836W        W 2821   9.647   9.132  14.899
37837W        W 2822  17.239  23.140  12.233
37838W        W 2823  44.536  27.728   4.650
37839W        W 2824  26.760   1.462   3.554
37840W        W 2825  12.856  15.403   2.775
37841W        W 2826  23.280  30.019  14.662
37842W        W 2827  25.010  35.293  13.001
37843W        W 2828   9.812  19.113  12.202
37844W        W 2829  21.128  30.071   0.321
37845W        W 2830   5.268   5.796  12.056
37846W        W 2831  27.021  11.447  14.725
37847W        W 2832  31.088  41.977   1.236
37848W        W 2833  25.033  11.724  14.533
37849W        W 2834  11.232  11.785   2.688
37850W        W 2835  23.045  29.757   4.130
37851W        W 2836  38.968  43.179   4.044
37852W        W 2837  18.825   8.165  12.876
37853W        W 2838  11.582  44.753  11.204
37854W        W 2839  24.018  15.618   4.577
37855W        W 2840   2.922  13.201   4.250
37856W        W 2841  25.498  42.476  13.894
37857W        W 2842  29.604   1.353  13.039
37858W        W 2843  37.724  23.235   0.633
37859W        W 2844  12.674  44.785   2.738
37860W        W 2845   5.706   0.992   2.905
37861W        W 2846  33.911  43.738   2.848
37862W        W 2847  27.932  24.379  11.953
37863W        W 2848  23.513   6.558   4.620
37864W        W 2849  33.995  28.778  11.127
37865W        W 2850  38.512  19.938   1.006
37866W        W 2851  29.682  22.632  14.858
37867W        W 2852   7.782   7.789  14.283
37868W        W 2853  17.696  42.359   3.955
37869W        W 2854  19.546  33.533  14.486
37870W        W 2855  34.628  35.092  14.987
37871W        W 2856   2.027  41.461   3.139
37872W        W 2857  31.150  15.149  13.353
37873W        W 2858   8.711   4.500   0.376
37874W        W 2859  17.589  42.401  11.986
37875W        W 2860  23.034   5.747  13.367
37876W        W 2861  43.898  14.403   0.891
37877W        W 2862   3.978  18.046   4.145
37878W        W 2863  41.217  17.103   3.124
37879W        W 2864   6.698  10.078  10.503
37880W        W 2865   4.573  36.108  13.047
37881W        W 2866  24.209  14.575  11.201
37882W        W 2867  26.095  26.156   2.280
37883W        W 2868  44.721  10.411   4.121
37884W        W 2869  30.213  32.845  13.904
37885W        W 2870  37.415  17.069   1.333
37886W        W 2871  20.573  43.502  13.371
37887W        W 2872   1.335  42.590  13.986
37888W        W 2873  42.385  25.506   1.440
37889W        W 2874  36.465  37.505   4.610
37890W        W 2875  42.410  29.410  12.403
37891W        W 2876   4.998  21.703  11.042
37892W        W 2877  21.921  27.082  14.125
37893W        W 2878   0.980   6.856  14.782
37894W        W 2879  39.722  14.411  12.219
37895W        W 2880  31.577  38.429  11.404
37896W        W 2881  26.350   9.072  11.170
37897W        W 2882  13.725   1.584  13.663
37898W        W 2883  29.698  42.528   0.177
37899W        W 2884  23.955  27.685  13.457
37900W        W 2885   1.026   7.587   1.670
37901W        W 2886  19.756  15.484  14.933
37902W        W 2887  38.484  13.699   1.515
37903W        W 2888   3.176  15.558  11.033
37904W        W 2889   5.328  36.046   2.774
37905W        W 2890  16.080  33.390  10.344
37906W        W 2891  33.350  41.100  13.420
37907W        W 2892  19.052  35.440   1.441
37908W        W 2893  33.490  43.281  13.443
37909W        W 2894  33.521   0.691   3.690
37910W        W 2895  19.724  29.542  10.210
37911W        W 2896  44.876  31.261   1.756
37912W        W 2897  43.317   8.146  12.552
37913W        W 2898   9.888   9.698   1.932
37914W        W 2899  28.590   9.655   1.175
37915W        W 2900   2.626  38.701   2.493
37916W        W 2901  35.106  43.799  14.990
37917W        W 2902  31.668   1.750   0.435
37918W        W 2903   6.193   5.274  14.491
37919W        W 2904  14.692  32.674   1.093
37920W        W 2905  15.899  24.305   0.686
37921W        W 2906  24.044  21.787  12.589
37922W        W 2907   9.974  32.399   2.276
37923W        W 2908   6.024  15.978   1.743
37924W        W 2909  18.099  17.999   4.991
37925W        W 2910  22.795  44.774   4.776
37926W        W 2911  36.097  14.673  14.460
37927W        W 2912  14.749   0.843  14.188
37928W        W 2913   9.963  12.372  12.892
37929W        W 2914  28.899   7.095   1.118
37930W        W 2915   5.722  33.050  10.762
37931W        W 2916   9.046  30.714  10.290
37932W        W 2917  18.629  22.634  10.727
37933W        W 2918  14.193  28.620   0.770
37934W        W 2919  19.452  17.652  12.086
37935W        W 2920  40.597   0.014  13.576
37936W        W 2921   2.102   4.752   2.782
37937W        W 2922  11.837   6.807   1.301
37938W        W 2923   0.015  28.737  13.882
37939W        W 2924  15.066   8.954  12.918
37940W        W 2925   1.788  33.681   3.637
37941W        W 2926  22.189  12.148  13.864
37942W        W 2927  44.500  19.113  12.520
37943W        W 2928   1.814   7.361  14.824
37944W        W 2929  37.971   9.970   3.773
37945W        W 2930  12.356  15.032  12.553
37946W        W 2931  26.891   8.361   2.747
37947W        W 2932   3.298   8.793   2.181
37948W        W 2933  22.558   1.703   3.037
37949W        W 2934  33.003  26.454  11.368
37950W        W 2935  16.861   6.920  13.350
37951W        W 2936  29.698   3.703  12.937
37952W        W 2937   1.486  35.396  12.865
37953W        W 2938  30.840  34.512  13.765
37954W        W 2939  39.039  35.649   1.439
37955W        W 2940   7.230  21.840  12.889
37956W        W 2941  32.390  33.985   4.372
37957W        W 2942   8.666  19.166   2.887
37958W        W 2943  21.190  32.347   1.799
37959W        W 2944  24.655  34.524  12.397
37960W        W 2945  29.928  18.761  11.390
37961W        W 2946  31.467  10.323   4.130
37962W        W 2947  34.869  40.366   1.826
37963W        W 2948  15.150  17.795   0.123
37964W        W 2949  21.105  15.101  14.230
37965W        W 2950  11.651  21.611  13.720
37966W        W 2951  10.149  25.650  13.299
37967W        W 2952  21.232  33.052   2.235
37968W        W 2953  20.811  18.251   2.280
37969W        W 2954  33.972  35.601  11.885
37970W        W 2955  25.141  40.841  10.727
37971W        W 2956  11.413  29.610   0.519
37972W        W 2957  39.283  43.385   1.409
37973W        W 2958  29.143   4.681   4.066
37974W        W 2959   4.750  41.504  11.265
37975W        W 2960  43.480  26.188   5.287
37976W        W 2961   1.198   8.082  10.739
37977W        W 2962  19.034  40.358  14.112
37978W        W 2963  39.945  28.222  12.685
37979W        W 2964  20.192  12.190   2.829
37980W        W 2965  43.268  37.600   0.571
37981W        W 2966  10.941  42.908  14.048
37982W        W 2967   1.451   4.115   0.047
37983W        W 2968  29.117  39.664   2.340
37984W        W 2969  29.619  33.605   1.369
37985W        W 2970  11.180  28.562  12.837
37986W        W 2971   8.435  37.988  11.121
37987W        W 2972  40.788  27.156  11.515
37988W        W 2973  42.247  39.808   2.898
37989W        W 2974  38.252  32.644   3.589
37990W        W 2975  44.770  13.027   0.366
37991W        W 2976   0.988  38.348  11.159
37992W        W 2977  34.438  20.414   4.062
37993W        W 2978  35.401  40.161   0.239
37994W        W 2979  25.907   1.369   0.915
37995W        W 2980   6.788  27.965   0.536
37996W        W 2981  27.010  38.211  11.942
37997W        W 2982  23.313  37.416   2.702
37998W        W 2983  31.771   3.011   4.197
37999W        W 2984   6.803  11.095   3.600
38000W        W 2985   1.327   9.181   4.541
38001W        W 2986   6.983   6.080  11.628
38002W        W 2987  13.884  25.274   4.848
38003W        W 2988  13.314  26.037  13.277
38004W        W 2989  24.069   9.399   2.437
38005W        W 2990  36.983  42.667  10.594
38006W        W 2991   3.951  25.048   5.103
38007W        W 2992  17.708  32.870   1.373
38008W        W 2993  22.571  36.458   3.903
38009W        W 2994  28.489  19.835  14.297
38010W        W 2995  12.171   5.722  10.847
38011W        W 2996  20.071  39.263  10.702
38012W        W 2997  15.586  15.633   1.415
38013W        W 2998  13.795  22.123  14.137
38014W        W 2999   0.416  43.220   3.711
38015W        W 3000  38.843   4.514  14.313
38016W        W 3001  35.517  35.355   4.121
38017W        W 3002  18.740  14.234  10.676
38018W        W 3003  30.497  23.718   1.740
38019W        W 3004  12.223  16.845   4.118
38020W        W 3005  15.567   3.629   3.853
38021W        W 3006  14.590   6.116  14.473
38022W        W 3007   2.713   2.808  12.968
38023W        W 3008  27.798  42.159  14.465
38024W        W 3009  43.134  41.847  14.224
38025W        W 3010   3.401  27.805  11.572
38026W        W 3011  11.892   5.607   3.276
38027W        W 3012  30.073  29.334  13.921
38028W        W 3013  44.298  22.773   3.684
38029W        W 3014  19.960   6.380  14.706
38030W        W 3015  25.895   4.208  12.396
38031W        W 3016  19.742   2.677   2.871
38032W        W 3017   3.646   3.923   4.154
38033W        W 3018  11.609   9.799   2.695
38034W        W 3019   0.510  19.933   4.627
38035W        W 3020  40.284  15.135   4.083
38036W        W 3021   2.810  44.172  13.100
38037W        W 3022  25.564  30.084  14.297
38038W        W 3023  18.435   0.502   3.291
38039W        W 3024   9.687  21.498   0.730
38040W        W 3025  33.261   9.372  12.616
38041W        W 3026  17.160  44.025   4.048
38042W        W 3027  12.846  37.993  12.887
38043W        W 3028  30.651  36.104   2.737
38044W        W 3029   6.131  39.541   3.326
38045W        W 3030  40.691  11.231  13.265
38046W        W 3031  36.779   8.389  14.278
38047W        W 3032  30.473  30.569  13.409
38048W        W 3033  27.029  21.272  11.170
38049W        W 3034  32.294  37.940   4.757
38050W        W 3035  20.810  19.205  14.843
38051W        W 3036  21.100  15.364  10.875
38052W        W 3037   2.881  14.172   0.312
38053W        W 3038  22.166  17.513  14.892
38054W        W 3039   6.696  16.747   3.884
38055W        W 3040  18.665   9.691   3.339
38056W        W 3041  19.215   3.198   3.629
38057W        W 3042  30.125  15.675  10.459
38058W        W 3043   1.521   0.808  11.418
38059W        W 3044  20.715  20.505   2.803
38060W        W 3045  39.564   5.473   0.772
38061W        W 3046  16.929  11.712  11.974
38062W        W 3047  37.903  33.016  12.374
38063W        W 3048  25.548  43.528  12.747
38064W        W 3049   8.515   4.305   1.450
38065W        W 3050   1.496  18.478  12.533
38066W        W 3051  29.217   4.975   2.222
38067W        W 3052  13.543  44.158  11.064
38068W        W 3053  44.453  32.903  14.045
38069W        W 3054   3.265  42.102  14.150
38070W        W 3055  20.254  11.106   0.003
38071W        W 3056  27.797  27.604  11.537
38072W        W 3057  25.474  30.271  13.003
38073W        W 3058  14.823   9.724   3.355
38074W        W 3059  33.644   9.929   0.983
38075W        W 3060  38.902   9.727   2.782
38076W        W 3061  33.954   4.785   0.823
38077W        W 3062   6.267   3.857   2.766
38078W        W 3063  35.498  23.552  11.206
38079W        W 3064  38.933  21.723   4.753
38080W        W 3065  23.997   2.912   1.635
38081W        W 3066  42.246  28.139  11.196
38082W        W 3067  13.995  15.233   1.906
38083W        W 3068  10.903  10.711   1.337
38084W        W 3069  17.511  41.285  13.989
38085W        W 3070  28.015   0.286  12.497
38086W        W 3071  14.156  22.152  14.540
38087W        W 3072  37.565  17.396  14.949
38088W        W 3073  38.888  34.548  13.841
38089W        W 3074  36.033  43.019   3.733
38090W        W 3075   7.447  32.842   3.095
38091W        W 3076   5.844  18.960   2.667
38092W        W 3077  43.367  41.517   5.043
38093W        W 3078   8.833  34.013   4.594
38094W        W 3079  16.940  25.185   1.344
38095W        W 3080   0.375  27.146   5.376
38096W        W 3081  20.566  23.307  13.448
38097W        W 3082  22.800  11.221   3.656
38098W        W 3083   0.462  25.014   3.724
38099W        W 3084   9.711   4.438  11.889
38100W        W 3085   6.623  30.861   4.223
38101W        W 3086  27.578  27.433  13.784
38102W        W 3087   0.737  23.756   0.394
38103W        W 3088   4.292  33.033   0.753
38104W        W 3089  26.471  37.991   1.357
38105W        W 3090  37.885  43.044  11.185
38106W        W 3091  36.925  41.897  14.819
38107W        W 3092   3.688   0.240   2.714
38108W        W 3093  38.093   3.323  14.267
38109W        W 3094  41.107  26.073  13.970
38110W        W 3095  13.412  28.698  14.320
38111W        W 3096  44.471  43.909   2.234
38112W        W 3097   5.299  24.716   1.579
38113W        W 3098  11.785  34.990   0.200
38114W        W 3099  43.969  43.378  10.407
38115W        W 3100   5.167  12.863   2.014
38116W        W 3101  37.306  20.556   0.468
38117W        W 3102   4.855  15.145   3.229
38118W        W 3103  18.791   6.472   3.625
38119W        W 3104  39.594  17.921   4.188
38120W        W 3105  43.440  44.344  10.563
38121W        W 3106  35.421  14.302  13.832
38122W        W 3107  23.274  40.448  14.333
38123W        W 3108  34.558  40.853  11.586
38124W        W 3109  22.774  27.937   1.377
38125W        W 3110  44.425  22.697  14.954
38126W        W 3111  24.506   9.871  11.189
38127W        W 3112  20.035  40.746  12.086
38128W        W 3113   5.673   6.255   0.394
38129W        W 3114  41.930  37.239   2.706
38130W        W 3115  11.527  21.541  14.211
38131W        W 3116  29.869  43.803  14.002
38132W        W 3117  27.845  23.224   1.548
38133W        W 3118  35.956  20.728  10.996
38134W        W 3119  13.281  38.009   0.042
38135W        W 3120  34.654  10.744   0.364
38136W        W 3121  26.665  17.630   4.032
38137W        W 3122  40.982  24.601   2.378
38138W        W 3123  43.227  35.028   0.711
38139W        W 3124   4.177   7.200   0.987
38140W        W 3125  32.616  25.450  11.003
38141W        W 3126  36.975  11.309  13.422
38142W        W 3127   1.420  21.782  13.994
38143W        W 3128   8.506   3.837   4.124
38144W        W 3129   5.056  22.148   4.677
38145W        W 3130  10.401  23.574   4.810
38146W        W 3131  24.665  43.049  14.512
38147W        W 3132  20.279   4.474   2.844
38148W        W 3133  24.994  29.453   1.813
38149W        W 3134  22.766   3.640   3.936
38150W        W 3135   2.185  32.377  14.063
38151W        W 3136  43.955  35.477   0.471
38152W        W 3137  39.769  33.554  13.315
38153W        W 3138  16.099  39.473  12.417
38154W        W 3139   1.141  35.917  14.598
38155W        W 3140  34.459  10.344  11.464
38156W        W 3141  27.042  15.814  12.875
38157W        W 3142   4.726  24.640  12.126
38158W        W 3143   3.075  11.573   0.776
38159W        W 3144  33.716  18.218   3.116
38160W        W 3145   9.193  25.837  11.230
38161W        W 3146  29.393  25.263   3.730
38162W        W 3147   0.100  27.697  11.012
38163W        W 3148  29.074  30.516   4.730
38164W        W 3149   1.436   8.864   2.175
38165W        W 3150  40.470   7.264  14.507
38166W        W 3151   8.397  33.218  10.709
38167W        W 3152  31.966  44.846   4.906
38168W        W 3153  23.736  27.724   2.666
38169W        W 3154  18.002  22.755  12.439
38170W        W 3155  25.756  36.909   0.066
38171W        W 3156  43.628  28.041   0.383
38172W        W 3157  41.729  14.215  12.895
38173W        W 3158   6.436   2.105   3.678
38174W        W 3159  20.086  27.809  13.751
38175W        W 3160   6.911  16.211   1.151
38176W        W 3161  43.290  25.600   9.680
38177W        W 3162  25.374   1.930  13.512
38178W        W 3163  43.821  44.870  13.281
38179W        W 3164  22.793  18.819   3.377
38180W        W 3165  25.198  33.892  14.384
38181W        W 3166  44.466  27.158  12.014
38182W        W 3167  23.423   7.917  13.459
38183W        W 3168   7.581  37.678   3.654
38184W        W 3169  20.548   0.453   0.229
38185W        W 3170  26.159  30.069  12.588
38186W        W 3171  11.728  31.461  14.623
38187W        W 3172   0.129  40.359  14.453
38188W        W 3173  40.894  41.510   3.816
38189W        W 3174   0.415  13.187   1.919
38190W        W 3175  21.313  29.578   5.039
38191W        W 3176  15.708  21.625   4.267
38192W        W 3177  10.396  23.335   0.879
38193W        W 3178  43.255  18.341  12.015
38194W        W 3179   1.230  41.071   3.200
38195W        W 3180  20.231  26.308  12.101
38196W        W 3181  21.714  36.924   1.500
38197W        W 3182   5.764  33.953  12.119
38198W        W 3183  19.663   5.911   3.093
38199W        W 3184  16.530  10.303   3.274
38200W        W 3185  21.595  21.052   1.995
38201W        W 3186  34.366  34.401  12.972
38202W        W 3187  18.092  27.709  14.117
38203W        W 3188  12.252  18.023   0.902
38204W        W 3189   1.948  35.423  12.112
38205W        W 3190  33.956  27.734  11.143
38206W        W 3191  28.033   8.961   2.214
38207W        W 3192  42.887   7.135  11.907
38208W        W 3193  33.027  18.153   1.859
38209W        W 3194  32.697  31.065  13.123
38210W        W 3195  16.622  37.400   2.855
38211W        W 3196   6.856  42.839  11.104
38212W        W 3197  11.255   3.344   0.359
38213W        W 3198  37.575  29.984  12.533
38214W        W 3199  44.272   3.896   0.444
38215W        W 3200   0.788   1.349   1.455
38216W        W 3201  29.462  25.957  14.849
38217W        W 3202  18.110  43.417   3.442
38218W        W 3203  11.789   3.654  14.420
38219W        W 3204   9.458  36.236   1.867
38220W        W 3205  40.636  37.957   2.935
38221W        W 3206   5.746   8.746   1.855
38222W        W 3207   9.894  22.563  14.950
38223W        W 3208   0.295  42.387   2.770
38224W        W 3209  24.595  23.750  14.493
38225W        W 3210  29.440  26.534   2.241
38226W        W 3211  27.283  26.804   4.247
38227W        W 3212  20.687   6.270   2.837
38228W        W 3213  31.847  34.645   0.740
38229W        W 3214  26.895  26.536  13.396
38230W        W 3215  20.491  23.272   1.172
38231W        W 3216   0.793   2.032   4.855
38232W        W 3217  37.566  15.595   3.169
38233W        W 3218  20.772  42.243   4.369
38234W        W 3219  15.449  21.457  10.518
38235W        W 3220  25.174  11.604   3.732
38236W        W 3221   1.330   4.192  11.202
38237W        W 3222   3.862   7.906  12.952
38238W        W 3223  28.661  10.976  11.991
38239W        W 3224   6.214  43.008  12.389
38240W        W 3225  18.528  13.838   3.581
38241W        W 3226  14.639  15.721   0.556
38242W        W 3227  30.172  18.044  13.897
38243W        W 3228  17.767  34.424   2.308
38244W        W 3229  27.278  21.731   2.005
38245W        W 3230  19.408   1.459   3.996
38246W        W 3231   1.313  32.209   4.594
38247W        W 3232  38.115  30.385  14.381
38248W        W 3233  41.601  39.384   2.890
38249W        W 3234  42.172  29.520  10.280
38250W        W 3235  44.575  10.818   3.829
38251W        W 3236  11.923  38.469   1.321
38252W        W 3237  35.730  26.538  12.561
38253W        W 3238  34.848  34.839   4.639
38254W        W 3239  24.657  36.554   1.753
38255W        W 3240   2.390  10.449   0.244
38256W        W 3241  16.579   8.740  12.765
38257W        W 3242   8.411  36.192  12.026
38258W        W 3243   2.978   6.800   2.446
38259W        W 3244  14.057  20.555   3.109
38260W        W 3245  18.216  34.673  12.287
38261W        W 3246  28.066   3.397   4.610
38262W        W 3247   7.905  38.833   4.983
38263W        W 3248  14.122  33.030  14.026
38264W        W 3249  32.885  35.969  11.563
38265W        W 3250  18.573  28.548   0.845
38266W        W 3251  16.872  27.945  11.459
38267W        W 3252  36.107   7.867   3.654
38268W        W 3253  13.321  31.301  11.823
38269W        W 3254  27.549  22.212  12.134
38270W        W 3255  31.180  31.443  13.131
38271W        W 3256  19.306  13.852   1.471
38272W        W 3257  18.631  32.881   3.272
38273W        W 3258  15.916  36.444  12.891
38274W        W 3259  33.331  27.746  14.737
38275W        W 3260  37.634  20.056  11.452
38276W        W 3261  13.331  38.518   0.320
38277W        W 3262  17.218  31.572  12.574
38278W        W 3263  34.546  17.859  14.820
38279W        W 3264  20.110  16.301   2.144
38280W        W 3265  36.518  41.312  10.459
38281W        W 3266  28.126   1.092   0.268
38282W        W 3267  42.856   9.686   2.595
38283W        W 3268  17.206  39.825   3.238
38284W        W 3269  38.999  36.408   0.688
38285W        W 3270  15.069   7.427  13.524
38286W        W 3271  31.823  41.104   2.476
38287W        W 3272  40.845  16.182  13.517
38288W        W 3273  17.565  24.788   4.200
38289W        W 3274   7.568  27.983   0.003
38290W        W 3275  14.602  29.711   1.049
38291W        W 3276   1.981  34.108  13.518
38292W        W 3277  22.174  11.413  12.069
38293W        W 3278  28.534   6.202   4.690
38294W        W 3279   1.238  43.009  11.065
38295W        W 3280  23.688   4.906   0.878
38296W        W 3281  30.873  15.566   1.448
38297W        W 3282  27.881  32.434  13.064
38298W        W 3283  21.138  12.120   0.601
38299W        W 3284  17.591  32.116   3.352
38300W        W 3285   8.913  35.582   0.628
38301W        W 3286  32.432  28.968   4.614
38302W        W 3287  30.993  39.647  13.572
38303W        W 3288  24.962  41.145  11.646
38304W        W 3289  42.430  20.717  14.097
38305W        W 3290   6.801  16.933  13.579
38306W        W 3291   4.561  42.289  12.598
38307W        W 3292  32.838  30.531   2.814
38308W        W 3293   6.818  18.043   1.747
38309W        W 3294  32.371  19.562   3.731
38310W        W 3295  26.872  11.656   1.840
38311W        W 3296  41.766   8.273   3.342
38312W        W 3297  33.506  30.692  14.320
38313W        W 3298  29.896   9.080   0.979
38314W        W 3299   1.325   3.498  11.993
38315W        W 3300   4.396  24.169   2.727
38316W        W 3301   7.306  22.063   2.379
38317W        W 3302  30.035  10.386  11.450
38318W        W 3303  37.907  34.755   5.538
38319W        W 3304  10.603   9.177   3.214
38320W        W 3305  37.039  40.353   2.412
38321W        W 3306   5.835   0.297  11.661
38322W        W 3307  43.596  21.744   0.223
38323W        W 3308  18.880  15.089   1.983
38324W        W 3309   0.428  41.733  14.765
38325W        W 3310   4.992  39.556  12.925
38326W        W 3311   6.328  28.531   1.932
38327W        W 3312  11.657  15.113   1.429
38328W        W 3313   7.914  18.257   1.280
38329W        W 3314   6.180  14.159  14.749
38330W        W 3315  17.650  36.467  10.739
38331W        W 3316  22.938   4.837  10.976
38332W        W 3317   6.191  26.087   3.639
38333W        W 3318  20.057  40.290   0.702
38334W        W 3319   2.296  10.732   0.981
38335W        W 3320  25.756  35.438  10.995
38336W        W 3321   4.464   4.874   1.321
38337W        W 3322   4.313  34.566   4.698
38338W        W 3323   0.410  40.835  10.648
38339W        W 3324   3.768  33.025   4.890
38340W        W 3325  21.143  42.086   0.673
38341W        W 3326  18.585  19.860  14.982
38342W        W 3327  31.574  42.580   4.826
38343W        W 3328  34.978  10.678   2.019
38344W        W 3329  42.887  43.964  11.584
38345W        W 3330   1.494   2.300   4.261
38346W        W 3331  16.233   7.198   0.242
38347W        W 3332  18.066  11.342  13.357
38348W        W 3333  20.067  25.019   2.664
38349W        W 3334  25.187   6.228   1.956
38350W        W 3335  27.978   5.431  12.617
38351W        W 3336   0.432  35.002   4.326
38352W        W 3337   2.453  18.179  12.187
38353W        W 3338  42.497  29.653  14.488
38354W        W 3339  21.589  25.146   1.619
38355W        W 3340   8.819  24.380  12.178
38356W        W 3341   4.246  34.605  13.961
38357W        W 3342  25.880   7.193  12.029
38358W        W 3343  35.061  18.961   0.347
38359W        W 3344  14.833  29.520  12.319
38360W        W 3345  27.081  12.133   3.258
38361W        W 3346  24.998  33.575  11.047
38362W        W 3347  27.874  44.036   0.416
38363W        W 3348  14.668  43.010   4.566
38364W        W 3349  34.180  13.117   2.291
38365W        W 3350  23.783  43.946  12.975
38366W        W 3351  35.001  20.636   1.795
38367W        W 3352  30.452  28.420  14.927
38368W        W 3353  28.826  35.673  13.115
38369W        W 3354  27.598  35.901   4.595
38370W        W 3355   8.172  43.930   3.927
38371W        W 3356  36.991  19.977   3.357
38372W        W 3357  44.080  40.062   3.654
38373W        W 3358  38.666  29.466   0.582
38374W        W 3359  28.213  26.697  10.666
38375W        W 3360   2.710  21.271  14.662
38376W        W 3361   3.852   5.870   4.121
38377W        W 3362  26.174   0.135  13.071
38378W        W 3363  15.616  32.532  12.194
38379W        W 3364  26.123   1.395   3.123
38380W        W 3365   7.748  15.415  10.048
38381W        W 3366  24.038   0.576   2.322
38382W        W 3367  32.839  26.498  13.934
38383W        W 3368  14.488  42.271   3.227
38384W        W 3369  18.471  31.365  12.008
38385W        W 3370   0.520  37.658   2.928
38386W        W 3371  40.465   6.179   2.191
38387W        W 3372  18.069  31.515   3.576
38388W        W 3373  40.668  44.544  13.373
38389W        W 3374  41.602  35.038   3.819
38390W        W 3375  44.858  21.051   0.799
38391W        W 3376  12.777   7.857   2.381
38392W        W 3377  44.363  35.941  10.099
38393W        W 3378  21.699  29.943  13.481
38394W        W 3379  18.318   3.238   3.704
38395W        W 3380  10.881   1.906   2.505
38396W        W 3381  25.328  28.743  10.352
38397W        W 3382  30.982   0.299   2.216
38398W        W 3383   1.416   0.322  14.990
38399W        W 3384  18.728   8.275   2.634
38400W        W 3385  18.703  30.217  14.932
38401W        W 3386  20.513  44.188   4.156
38402W        W 3387  34.192   6.741   4.045
38403W        W 3388   8.054  15.923   2.081
38404W        W 3389  11.040  21.681  14.365
38405W        W 3390  40.898  30.061  11.735
38406W        W 3391  39.879  18.105   0.211
38407W        W 3392  30.320  39.500   2.582
38408W        W 3393  17.359  23.568  11.113
38409W        W 3394  17.780  37.614  12.886
38410W        W 3395  37.633   0.233   2.616
38411W        W 3396  20.491  25.673   3.703
38412W        W 3397  31.595  42.333  10.674
38413W        W 3398   9.607   7.391   1.265
38414W        W 3399  41.589   3.703  11.354
38415W        W 3400   6.156   1.280   2.642
38416W        W 3401  17.237  26.398  14.344
38417W        W 3402  34.982  35.919  11.638
38418W        W 3403  42.700   4.493   1.942
38419W        W 3404  31.722  20.171  11.088
38420W        W 3405  25.040  23.032   4.588
38421W        W 3406   7.417   8.486   1.286
38422W        W 3407  20.055  22.301  13.962
38423W        W 3408   8.759  32.303   4.140
38424W        W 3409  44.888  31.639   1.346
38425W        W 3410  33.616  38.922  12.125
38426W        W 3411  17.631  28.710   0.939
38427W        W 3412   9.806  32.624  11.352
38428W        W 3413  32.102   1.867  11.490
38429W        W 3414  19.008  17.792   0.039
38430W        W 3415  34.406  33.030   1.321
38431W        W 3416  29.351  36.691   1.819
38432W        W 3417   8.409  37.351  12.524
38433W        W 3418  39.232   7.566  11.622
38434W        W 3419   8.857   0.493  12.971
38435W        W 3420  27.031  17.056  13.435
38436W        W 3421  17.564   6.547   0.553
38437W        W 3422   6.956  31.548   3.370
38438W        W 3423   1.520  26.427   4.412
38439W        W 3424  26.713  27.630   2.763
38440W        W 3425  32.871  21.988  13.082
38441W        W 3426   1.681  14.746   3.613
38442W        W 3427   2.475  37.943   3.767
38443W        W 3428   5.007  25.677  11.645
38444W        W 3429   9.904  16.031   5.091
38445W        W 3430  12.275  21.735   4.030
38446W        W 3431  30.791  25.038   9.732
38447W        W 3432   4.372  12.607  14.862
38448W        W 3433  16.589   5.943   2.182
38449W        W 3434   2.919  27.074   2.656
38450W        W 3435  30.473  15.820  13.830
38451W        W 3436  19.709   2.862  12.010
38452W        W 3437  42.999  15.075  12.997
38453W        W 3438  35.170  23.714   1.444
38454W        W 3439   2.369  38.830  11.056
38455W        W 3440  44.502   9.235  11.915
38456W        W 3441  18.721   0.891  12.153
38457W        W 3442   5.772  42.916   3.163
38458W        W 3443  12.317  21.986  14.298
38459W        W 3444   2.312  37.374   3.565
38460W        W 3445  22.680  41.262   4.741
38461W        W 3446  15.802  31.613  13.603
38462W        W 3447  13.585  26.061  14.472
38463W        W 3448   6.831  20.218  14.965
38464W        W 3449  42.231  23.664  13.906
38465W        W 3450  15.589  19.220  10.759
38466W        W 3451  24.493   8.861  11.972
38467W        W 3452  12.686  23.713  11.638
38468W        W 3453  26.687  24.059   4.432
38469W        W 3454  26.667  42.787  10.752
38470W        W 3455  44.877  30.408  11.614
38471W        W 3456  44.265   0.187  14.330
38472W        W 3457  14.120  22.681  13.920
38473W        W 3458   1.298   3.645  14.904
38474W        W 3459  18.622  36.395  11.988
38475W        W 3460   4.756  23.917  14.549
38476W        W 3461  34.724   2.413   4.894
38477W        W 3462  43.070   0.839   4.168
38478W        W 3463  42.560  22.670  11.959
38479W        W 3464  42.862  28.242   4.248
38480W        W 3465   2.531  23.594   0.456
38481W        W 3466  11.248  13.547  14.375
38482W        W 3467   6.516  28.065  13.715
38483W        W 3468  43.493  21.172   1.763
38484W        W 3469  25.973  32.893  13.515
38485W        W 3470   3.416  20.617  11.555
38486W        W 3471  39.835  22.143  14.328
38487W        W 3472  29.169  11.627  13.372
38488W        W 3473  42.432  14.425  10.676
38489W        W 3474  15.069   1.963   0.788
38490W        W 3475  40.819  15.756   0.336
38491W        W 3476  33.630  33.806   1.731
38492W        W 3477  25.460  17.060  10.701
38493W        W 3478  41.895   6.118   4.969
38494W        W 3479   3.640  30.405  14.839
38495W        W 3480   7.042   1.190   4.563
38496W        W 3481  16.257  30.867   3.558
38497W        W 3482  39.677  23.387   3.086
38498W        W 3483  41.305   0.709   3.651
38499W        W 3484  26.375  25.001  10.236
38500W        W 3485  32.421  44.542   3.608
38501W        W 3486  20.013  16.750  12.416
38502W        W 3487  21.929  23.706   2.686
38503W        W 3488  42.929  14.539   0.197
38504W        W 3489  31.908  24.676  14.872
38505W        W 3490  27.227  40.374  12.534
38506W        W 3491  20.783   2.742   0.290
38507W        W 3492  20.192  21.722   4.148
38508W        W 3493  41.920  40.304   2.235
38509W        W 3494  43.743  10.251   4.405
38510W        W 3495  27.163  40.018   0.985
38511W        W 3496  18.290  33.628  12.493
38512W        W 3497  25.051  41.290  14.124
38513W        W 3498  14.687   3.935   1.797
38514W        W 3499   7.241   3.248  12.113
38515W        W 3500  26.921  33.155  10.460
38516W        W 3501  21.122  41.278   4.127
38517W        W 3502  43.111   6.517  13.623
38518W        W 3503  30.536  22.224   1.471
38519W        W 3504  42.848  32.733   2.782
38520W        W 3505  27.003  42.889  11.148
38521W        W 3506  20.105   8.367  12.599
38522W        W 3507   2.057  20.937  13.951
38523W        W 3508  13.399  43.364  14.463
38524W        W 3509   8.324  15.309   3.353
38525W        W 3510   5.749  13.772   4.438
38526W        W 3511  31.140  27.608  11.981
38527W        W 3512  31.972  20.665  14.464
38528W        W 3513   5.988  34.535   2.455
38529W        W 3514   9.819  34.631  10.377
38530W        W 3515  19.328  24.922  11.395
38531W        W 3516  24.547  17.373   0.783
38532W        W 3517  29.361  22.833   4.169
38533W        W 3518  25.415  32.633  10.805
38534W        W 3519  17.992  16.401   0.470
38535W        W 3520  41.836   2.492  13.388
38536W        W 3521  15.561  33.801   1.962
38537W        W 3522  25.761  35.121  13.975
38538W        W 3523  38.105  33.539  13.923
38539W        W 3524  35.398  26.970   3.896
38540W        W 3525  21.221  41.945  14.214
38541W        W 3526  15.659   4.029   4.151
38542W        W 3527  19.533  40.793   2.259
38543W        W 3528  24.550  27.814  14.292
38544W        W 3529  21.472  23.190  13.936
38545W        W 3530  29.573  35.425   0.936
38546W        W 3531  30.535   7.561  12.236
38547W        W 3532   3.001  43.769   4.073
38548W        W 3533  33.713  32.382   2.169
38549W        W 3534  10.374  24.691   2.750
38550W        W 3535   8.940  25.504  13.653
38551W        W 3536  18.270   8.298  14.189
38552W        W 3537  29.915  25.326   3.680
38553W        W 3538  33.176  11.848  11.903
38554W        W 3539  22.100  20.238   0.375
38555W        W 3540  40.991   9.301  13.950
38556W        W 3541  42.486  18.596  13.814
38557W        W 3542  37.623  36.460   2.806
38558W        W 3543  28.476  22.198  11.872
38559W        W 3544  13.690  42.036  11.053
38560W        W 3545  29.899  40.387   1.232
38561W        W 3546   2.208  22.900  10.669
38562W        W 3547  35.458  42.262  14.292
38563W        W 3548  42.087   4.350   1.693
38564W        W 3549  23.442  22.412   0.864
38565W        W 3550  44.730  24.881  13.245
38566W        W 3551   7.155  22.827  13.172
38567W        W 3552  11.463   7.072   4.581
38568W        W 3553  37.761  18.442   4.459
38569W        W 3554   2.347  17.978  12.651
38570W        W 3555  39.402  42.015   1.397
38571W        W 3556  31.052  16.845   2.650
38572W        W 3557   5.365   3.696  12.521
38573W        W 3558  33.835  40.395  13.496
38574W        W 3559   8.783  21.730   1.203
38575W        W 3560  42.514  28.565   0.345
38576W        W 3561  32.538   8.166  11.112
38577W        W 3562   9.851  22.137   1.210
38578W        W 3563  38.500   5.807   0.214
38579W        W 3564   7.767  21.785  12.850
38580W        W 3565  39.027  35.479   0.928
38581W        W 3566  32.033   4.372  11.162
38582W        W 3567  22.552   7.010   4.280
38583W        W 3568   2.925  43.685   0.357
38584W        W 3569  43.400  15.123  11.664
38585W        W 3570  30.187  39.133  13.359
38586W        W 3571  10.837  15.728  12.849
38587W        W 3572  24.774  34.434  10.960
38588W        W 3573  33.106  10.160  14.979
38589W        W 3574  32.033   8.375  14.969
38590W        W 3575   0.699  40.778   4.076
38591W        W 3576  30.567  14.657   3.787
38592W        W 3577  38.052  18.577  10.527
38593W        W 3578  19.623   3.388  12.034
38594W        W 3579  29.232   3.439   3.353
38595W        W 3580   6.321   2.063  14.377
38596W        W 3581  40.456  42.800  12.076
38597W        W 3582   2.318  28.155  14.851
38598W        W 3583  42.257  37.622  13.437
38599W        W 3584  21.689  32.726  10.640
38600W        W 3585  17.264  13.886   3.741
38601W        W 3586  44.555  40.034   4.443
38602W        W 3587   7.297   3.782  10.819
38603W        W 3588  36.315  43.706  14.148
38604W        W 3589  21.467  42.262   2.012
38605W        W 3590   2.021  34.898   0.435
38606W        W 3591  20.954  39.400  10.462
38607W        W 3592  39.540  26.070   2.817
38608W        W 3593  34.449  10.645  11.036
38609W        W 3594  27.891  19.667  12.951
38610W        W 3595   2.377  42.861   4.759
38611W        W 3596  34.076  12.398   4.715
38612W        W 3597   1.023  17.152  11.172
38613W        W 3598  32.184  21.740   3.398
38614W        W 3599   3.868  18.308  13.629
38615W        W 3600  20.702  16.236   3.570
38616W        W 3601  15.291   0.178  11.692
38617W        W 3602  28.629   8.284   4.069
38618W        W 3603   3.915  15.316  10.611
38619W        W 3604   7.670  26.980  14.769
38620W        W 3605  25.484  26.659  14.778
38621W        W 3606  35.870  13.890   4.901
38622W        W 3607   0.335  16.050  11.079
38623W        W 3608  43.840  18.038   0.389
38624W        W 3609  25.107  29.944   1.000
38625W        W 3610   5.486   6.288  13.837
38626W        W 3611  42.934  34.195   2.798
38627W        W 3612  25.623  38.456  12.584
38628W        W 3613  15.727  41.418   1.950
38629W        W 3614  40.477  14.350  11.709
38630W        W 3615  24.084   1.431   3.238
38631W        W 3616  16.624   6.058   3.528
38632W        W 3617   5.370   5.615  14.527
38633W        W 3618  11.852   0.036   4.831
38634W        W 3619  29.082  30.391  13.051
38635W        W 3620  42.928  43.744  14.744
38636W        W 3621   0.184  39.545  12.147
38637W        W 3622  43.501  44.336   1.371
38638W        W 3623   6.829  42.362  13.378
38639W        W 3624  15.723  42.101   3.676
38640W        W 3625   9.362  39.517   1.916
38641W        W 3626  25.141  25.471   0.430
38642W        W 3627   8.559   1.709  14.860
38643W        W 3628  37.260  14.182   3.306
38644W        W 3629  34.282  42.474   2.787
38645W        W 3630  34.514  17.072  14.468
38646W        W 3631   9.198   4.857   2.923
38647W        W 3632   0.779  43.267  13.305
38648W        W 3633  18.103   2.268   4.138
38649W        W 3634  10.620  24.919   2.208
38650W        W 3635   2.664  36.414   0.188
38651W        W 3636  19.996  27.949   3.063
38652W        W 3637  32.106  38.074   2.236
38653W        W 3638   1.407  28.649   2.196
38654W        W 3639   3.875  28.681  12.378
38655W        W 3640   1.230   0.415  14.474
38656W        W 3641  11.422  16.080   3.158
38657W        W 3642  16.463  32.954   3.294
38658W        W 3643  12.293   5.829  14.871
38659W        W 3644   2.539  11.191  10.596
38660W        W 3645  44.739  43.071  10.996
38661W        W 3646  19.605  37.120   0.856
38662W        W 3647  24.769  12.656  11.714
38663W        W 3648   0.041   1.013   4.119
38664W        W 3649  19.610   6.327   4.247
38665W        W 3650  40.991  31.107   0.833
38666W        W 3651  42.644   9.743   3.587
38667W        W 3652   5.268  29.481   2.696
38668W        W 3653   0.995  39.271   4.096
38669W        W 3654   2.718   1.435  12.010
38670W        W 3655  26.950  26.423   1.664
38671W        W 3656  30.432  24.795   0.863
38672W        W 3657  33.741  10.134  10.706
38673W        W 3658  16.227   0.201   4.159
38674W        W 3659  23.485  30.066  11.256
38675W        W 3660  44.911  23.166   1.877
38676W        W 3661  28.622  39.025   0.872
38677W        W 3662  25.202  26.390  12.905
38678W        W 3663  33.234  35.461  13.009
38679W        W 3664  31.974  11.625  12.819
38680W        W 3665  30.023  14.705   2.691
38681W        W 3666  39.884  41.232   0.366
38682W        W 3667   9.588  43.420   2.613
38683W        W 3668  13.588  13.406   2.912
38684W        W 3669  22.199  23.708  11.679
38685W        W 3670   3.400  17.577   3.409
38686W        W 3671   7.215  34.936   0.518
38687W        W 3672   0.472   6.001   1.229
38688W        W 3673  38.848  39.646   4.000
38689W        W 3674  26.819  27.766  10.766
38690W        W 3675  24.875  29.650   5.079
38691W        W 3676  42.242  31.954  11.219
38692W        W 3677   7.428   9.438   0.362
38693W        W 3678  17.060  22.799  10.005
38694W        W 3679  39.879  41.168  12.652
38695W        W 3680   7.674   4.276   4.889
38696W        W 3681  23.435  35.339  12.190
38697W        W 3682  22.614   7.178   2.379
38698W        W 3683   6.423   0.551   0.516
38699W        W 3684  30.858  33.033   1.302
38700W        W 3685   9.568  18.740   0.059
38701W        W 3686  22.314  19.046  13.431
38702W        W 3687  31.912   0.536   1.970
38703W        W 3688  19.086  33.105   1.499
38704W        W 3689   2.292  22.966  12.570
38705W        W 3690   3.256  12.601  12.102
38706W        W 3691  16.510  24.271  13.905
38707W        W 3692   5.160  29.057   0.875
38708W        W 3693  16.172  33.486  10.863
38709W        W 3694  37.953  38.759  12.440
38710W        W 3695  41.266  20.541   0.733
38711W        W 3696  18.181  22.191  11.790
38712W        W 3697  14.159  24.515   0.575
38713W        W 3698  38.318  22.503   2.736
38714W        W 3699  42.804  27.198  12.434
38715W        W 3700  15.558   7.242  11.958
38716W        W 3701   8.683   3.113   4.368
38717W        W 3702  26.212  33.053  13.970
38718W        W 3703  26.624  20.645   1.698
38719W        W 3704  10.361  42.242  12.419
38720W        W 3705   8.789  10.251  14.749
38721W        W 3706  32.641  24.021  14.845
38722W        W 3707   2.038   4.956  14.011
38723W        W 3708  21.772  30.048   3.428
38724W        W 3709   2.803  34.660   4.577
38725W        W 3710  22.010  35.018  13.452
38726W        W 3711   6.185  39.234  12.728
38727W        W 3712   3.629  27.748  13.877
38728W        W 3713  21.228  17.839   0.263
38729W        W 3714  44.451  30.575   0.663
38730W        W 3715  30.597  37.076  10.711
38731W        W 3716  13.898  32.524  11.952
38732W        W 3717  19.062  31.129  11.613
38733W        W 3718  18.654  15.575  14.433
38734W        W 3719  25.159  20.042   0.103
38735W        W 3720  41.511  22.560   5.408
38736W        W 3721   9.294  33.542  12.965
38737W        W 3722  11.854  35.904   5.090
38738W        W 3723  14.696  20.963  13.466
38739W        W 3724   0.774  14.462  13.691
38740W        W 3725  34.326  21.412   4.347
38741W        W 3726   3.899  11.232   0.948
38742W        W 3727  31.525   4.670   1.885
38743W        W 3728  26.040   7.414  12.488
38744W        W 3729  24.091  37.282  13.043
38745W        W 3730  40.095  10.344   2.787
38746W        W 3731  41.388  20.981  14.200
38747W        W 3732  20.180  34.923  14.308
38748W        W 3733  28.647  23.580   2.345
38749W        W 3734  29.341  28.029  11.910
38750W        W 3735  14.113  24.159  10.736
38751W        W 3736  14.145   8.807   2.670
38752W        W 3737  24.633   4.931   1.730
38753W        W 3738   7.923  18.742   3.314
38754W        W 3739   3.152  40.101  13.842
38755W        W 3740  28.385  42.718   3.213
38756W        W 3741  10.969   8.295  11.229
38757W        W 3742  23.298   9.256  11.308
38758W        W 3743  16.566  22.570   0.686
38759W        W 3744  17.613  31.212   0.913
38760W        W 3745  10.931  21.085   4.105
38761W        W 3746  10.837  16.493  13.898
38762W        W 3747  19.514  43.485   0.381
38763W        W 3748  18.448  37.930   3.792
38764W        W 3749   2.835  19.413   3.677
38765W        W 3750  14.552  19.488  10.695
38766W        W 3751  15.703  31.161   0.951
38767W        W 3752  15.285  24.057   1.228
38768W        W 3753  22.224  39.775  10.533
38769W        W 3754  25.004  11.790  12.019
38770W        W 3755  20.094   0.165  10.659
38771W        W 3756  44.119  27.962   0.272
38772W        W 3757  33.677  32.807   4.256
38773W        W 3758  13.261  33.819  12.049
38774W        W 3759  35.777   9.771   3.635
38775W        W 3760   5.879  37.652   3.198
38776W        W 3761  42.842  32.687   3.644
38777W        W 3762  24.566  11.784  13.600
38778W        W 3763  17.376  35.358   3.773
38779W        W 3764   2.884  18.748   2.312
38780W        W 3765  44.430  29.115  13.126
38781W        W 3766  14.069   0.977   4.004
38782W        W 3767  23.199  42.917   4.623
38783W        W 3768  11.402  33.576  12.913
38784W        W 3769  32.132  29.470  10.551
38785W        W 3770  15.074  36.551  13.876
38786W        W 3771  23.721  32.183   2.771
38787W        W 3772  10.174  17.046   0.805
38788W        W 3773  18.671  32.599  13.999
38789W        W 3774  13.305   4.369   3.794
38790W        W 3775  28.058  25.415  13.032
38791W        W 3776  12.799   0.506   3.949
38792W        W 3777  38.111   7.538   0.221
38793W        W 3778  39.313  40.366  14.151
38794W        W 3779  26.447  16.146   1.336
38795W        W 3780  18.467  37.040  14.426
38796W        W 3781  39.407  31.084   0.240
38797W        W 3782  23.675  25.183  12.413
38798W        W 3783  31.549   6.302  14.002
38799W        W 3784  17.088   5.780  12.793
38800W        W 3785  28.125  29.967  10.639
38801W        W 3786  28.230  19.699   2.276
38802W        W 3787   1.721  16.611  10.742
38803W        W 3788  36.301  21.230   2.275
38804W        W 3789   7.287  26.694   4.789
38805W        W 3790  12.126  24.634  10.546
38806W        W 3791  11.781   7.725  10.421
38807W        W 3792   8.255   6.242  12.781
38808W        W 3793   3.215  19.103   2.121
38809W        W 3794  25.642  40.397  11.230
38810W        W 3795   2.840  12.233   3.499
38811W        W 3796   0.189  32.362   0.049
38812W        W 3797  33.103  40.099  13.848
38813W        W 3798  41.906  38.630  13.382
38814W        W 3799  37.469  39.946   4.131
38815W        W 3800  29.396  26.054   4.211
38816W        W 3801  35.590  27.857   3.754
38817W        W 3802  36.636  30.620   1.308
38818W        W 3803  30.391  19.673  12.422
38819W        W 3804   6.679  26.554  13.994
38820W        W 3805  13.454  19.341   4.914
38821W        W 3806  11.718   0.244  14.947
38822W        W 3807  14.377  25.078  12.084
38823W        W 3808  16.717  36.433  11.694
38824W        W 3809  22.210  17.519   1.292
38825W        W 3810  20.625  13.044   0.883
38826W        W 3811  20.508  14.533  12.373
38827W        W 3812  40.287  38.964  11.133
38828W        W 3813   9.309  22.643  14.317
38829W        W 3814  37.001   9.301   4.614
38830W        W 3815  17.508  37.753   5.051
38831W        W 3816   0.312  18.021   2.639
38832W        W 3817   6.628  19.161   0.388
38833W        W 3818  15.606   0.756  13.556
38834W        W 3819  24.908  19.889   4.216
38835W        W 3820   7.731  22.152  11.649
38836W        W 3821  17.974  38.059   0.463
38837W        W 3822  27.628  44.997  12.057
38838W        W 3823  20.863  40.498   4.815
38839W        W 3824   7.257  41.392  11.631
38840W        W 3825  32.420  17.100   3.839
38841W        W 3826  33.162  44.534   2.350
38842W        W 3827   0.535  16.101  13.102
38843W        W 3828  10.220  28.589   1.334
38844W        W 3829   7.558  18.053   4.528
38845W        W 3830   7.612  27.662   4.766
38846W        W 3831  14.514  30.511  11.370
38847W        W 3832  31.915  34.564  11.489
38848W        W 3833   7.871  26.501  14.926
38849W        W 3834  40.054  25.009  13.966
38850W        W 3835   9.754   3.299   3.230
38851W        W 3836  20.531   1.431   0.612
38852W        W 3837  14.865  25.080  11.641
38853W        W 3838   9.866  35.366  12.089
38854W        W 3839  21.361  43.257   4.473
38855W        W 3840  19.206  12.087   2.445
38856W        W 3841  18.354  22.216  13.268
38857W        W 3842  25.909  18.561   2.860
38858W        W 3843   1.234  42.324  11.733
38859W        W 3844  16.109  15.047  14.920
38860W        W 3845  28.053  27.671  12.547
38861W        W 3846  44.941  28.380  12.265
38862W        W 3847  18.170  41.289  14.714
38863W        W 3848  40.945  42.563   3.729
38864W        W 3849  35.852  43.992  12.960
38865W        W 3850  20.897   0.991  11.761
38866W        W 3851  22.934  43.451   0.523
38867W        W 3852  20.616  13.849  14.422
38868W        W 3853  36.454  16.096   0.265
38869W        W 3854  11.301  11.965  14.603
38870W        W 3855  32.888  12.872   2.381
38871W        W 3856  14.844  33.906   1.715
38872W        W 3857  10.308   9.870   2.171
38873W        W 3858  16.334  26.584  12.957
38874W        W 3859   4.426  44.449  13.362
38875W        W 3860   1.485  15.180  13.090
38876W        W 3861  35.579  15.178   4.533
38877W        W 3862   4.779  33.511   4.997
38878W        W 3863  17.966  33.221  12.418
38879W        W 3864  33.693  44.367  14.894
38880W        W 3865   2.641  16.647   1.456
38881W        W 3866  26.678   3.214  12.477
38882W        W 3867   7.095  25.144   3.493
38883W        W 3868  12.184   2.915   3.757
38884W        W 3869  22.706  22.219  12.132
38885W        W 3870   1.836  20.985  11.466
38886W        W 3871  21.744  40.946   3.591
38887W        W 3872  16.291  36.426   0.478
38888W        W 3873  43.665   6.698  11.528
38889W        W 3874  28.917  14.631   4.530
38890W        W 3875  28.967  20.572   1.389
38891W        W 3876   4.725  24.169   3.678
38892W        W 3877  12.037   6.310  14.291
38893W        W 3878  13.749  18.242  14.985
38894W        W 3879   3.268   0.908   2.263
38895W        W 3880  15.522  25.063   2.396
38896W        W 3881  42.522  31.418  14.532
38897W        W 3882  29.191  38.164  11.997
38898W        W 3883  13.123   7.593   4.170
38899W        W 3884   3.516  11.657  14.787
38900W        W 3885  43.966  40.250  11.110
38901W        W 3886  13.846  11.627   2.331
38902W        W 3887  23.766  24.533  12.030
38903W        W 3888  37.556  18.358  14.030
38904W        W 3889  22.750   7.241   1.429
38905W        W 3890  19.820  16.751   4.533
38906W        W 3891  12.201  33.413  14.253
38907W        W 3892  40.616  38.499  14.298
38908W        W 3893  19.025  38.102   1.977
38909W        W 3894  39.009  30.627  14.828
38910W        W 3895  18.846  37.526   4.608
38911W        W 3896  10.402  37.004  14.748
38912W        W 3897   3.366  21.728  13.203
38913W        W 3898  42.433  41.559   1.431
38914W        W 3899   8.300   9.838   2.423
38915W        W 3900  12.802  17.111  13.777
38916W        W 3901  44.386  26.251  14.819
38917W        W 3902  22.564  11.994  12.656
38918W        W 3903   7.577  39.957  13.567
38919W        W 3904  44.462  42.546   2.160
38920W        W 3905   1.199  27.734   2.632
38921W        W 3906  34.549  16.756  11.768
38922W        W 3907   4.271  39.957   4.206
38923W        W 3908  37.087  33.191   3.171
38924W        W 3909   3.867  33.532  11.449
38925W        W 3910  14.177   4.927  12.475
38926W        W 3911  14.105  29.064   2.179
38927W        W 3912  15.251  15.981  14.852
38928W        W 3913  24.097  43.691  14.546
38929W        W 3914   5.121   0.767   4.779
38930W        W 3915  20.618  22.262   0.855
38931W        W 3916  29.440  40.033  11.643
38932W        W 3917  35.480   5.609  12.026
38933W        W 3918  29.782   8.492   5.025
38934W        W 3919  26.977  34.336   2.688
38935W        W 3920  17.829  35.578   3.698
38936W        W 3921   6.154   6.478   2.445
38937W        W 3922  37.200  44.295  11.459
38938W        W 3923  35.469  17.421  12.918
38939W        W 3924  10.389   7.239   3.637
38940W        W 3925  31.153  38.968  12.909
38941W        W 3926   0.980  39.361  13.830
38942W        W 3927  43.806   7.906  12.414
38943W        W 3928  12.833  16.315   2.312
38944W        W 3929  31.372  32.194   1.327
38945W        W 3930  37.646  29.975  13.408
38946W        W 3931   2.170  17.633   1.988
38947W        W 3932  20.471  40.812  12.496
38948W        W 3933  17.451   1.843  10.995
38949W        W 3934  32.258  23.171  10.396
38950W        W 3935  15.273  14.819  13.421
38951W        W 3936  26.143  32.679  12.828
38952W        W 3937  35.759  32.680  12.540
38953W        W 3938  11.558  37.607  10.326
38954W        W 3939  32.393  17.409  11.147
38955W        W 3940  16.792   2.359   0.572
38956W        W 3941  12.643  44.366   5.047
38957W        W 3942  16.392  11.191   0.464
38958W        W 3943   5.446  36.253   1.472
38959W        W 3944   3.258  10.955  13.496
38960W        W 3945  10.816  15.737  14.411
38961W        W 3946  26.992  37.348   0.269
38962W        W 3947  11.385  35.833   1.682
38963W        W 3948  35.136  29.693  14.306
38964W        W 3949  35.753   5.150   3.173
38965W        W 3950  22.126  34.795   1.685
38966W        W 3951  34.362  42.796   0.551
38967W        W 3952  21.173   3.774   1.285
38968W        W 3953   0.778  22.768  11.514
38969W        W 3954  25.564  15.514  14.074
38970W        W 3955  30.346   8.622  12.978
38971W        W 3956  20.975  44.468  13.343
38972W        W 3957  39.430   1.188   2.690
38973W        W 3958  43.278  14.667   2.416
38974W        W 3959  16.277  11.357  13.070
38975W        W 3960   9.352  20.840   0.339
38976W        W 3961  27.067  39.835  14.992
38977W        W 3962  38.929   8.171  10.687
38978W        W 3963  10.304  21.344   5.110
38979W        W 3964  35.058  33.203   3.309
38980W        W 3965   6.763  23.470   0.363
38981W        W 3966   4.665  35.426   0.308
38982W        W 3967  22.657  11.946  14.050
38983W        W 3968   0.335  11.308  12.605
38984W        W 3969  25.668  20.632  14.726
38985W        W 3970  31.046   6.023  12.628
38986W        W 3971  10.407  41.522   2.328
38987W        W 3972  35.429  26.585  11.637
38988W        W 3973  38.885  38.385   0.839
38989W        W 3974  25.580  40.035   3.371
38990W        W 3975  25.288  41.549   3.738
38991W        W 3976   3.387  13.741  12.281
38992W        W 3977   7.455  11.590   2.852
38993W        W 3978  23.008  16.222   1.314
38994W        W 3979  13.352  12.910   4.553
38995W        W 3980  20.100  16.454  11.115
38996W        W 3981  33.611  44.259   2.516
38997W        W 3982  28.658  13.767   3.224
38998W        W 3983   3.735  35.112  12.682
38999W        W 3984  33.038   6.847  11.029
39000W        W 3985  38.053  21.537   1.244
39001W        W 3986  33.839  21.241   2.619
39002W        W 3987  23.306  44.840  10.727
39003W        W 3988  30.606  13.613   0.443
39004W        W 3989  33.117  25.358   1.882
39005W        W 3990  24.057   6.708  11.222
39006W        W 3991  37.862  39.604   4.104
39007W        W 3992  35.352  25.563   2.651
39008W        W 3993  11.913  31.657   1.340
39009W        W 3994  27.663   4.995  11.591
39010W        W 3995  36.561  18.818  11.526
39011W        W 3996   0.828  43.978   4.028
39012W        W 3997  41.490  11.570  13.450
39013W        W 3998  28.713  21.670   1.206
39014W        W 3999  25.665  15.598  11.688
39015W        W 4000   1.542  23.141  13.529
39016W        W 4001  27.024  19.671   3.059
39017W        W 4002  25.266  31.263  13.021
39018W        W 4003   7.313  21.577  11.070
39019W        W 4004  22.801   1.838   1.530
39020W        W 4005   9.748  40.305   2.211
39021W        W 4006   2.761  33.702  13.784
39022W        W 4007  22.350  37.504  10.707
39023W        W 4008  17.564  25.728   1.489
39024W        W 4009  29.114  16.879  11.941
39025W        W 4010  23.170   6.636   3.678
39026W        W 4011   7.123  22.006   0.050
39027W        W 4012  36.535  42.911   9.597
39028W        W 4013  31.672  40.510   3.162
39029W        W 4014  26.116  30.911  14.364
39030W        W 4015  19.409  30.638   0.138
39031W        W 4016  28.726  21.580  13.008
39032W        W 4017  18.288   9.224   3.784
39033W        W 4018  40.441  35.149  13.022
39034W        W 4019   9.852  14.147   0.801
39035W        W 4020  14.065   4.236  13.523
39036W        W 4021  35.966   9.301   3.617
39037W        W 4022  14.170  23.994  14.333
39038W        W 4023   7.415  20.282  14.433
39039W        W 4024  31.756  22.661  12.640
39040W        W 4025  30.359  36.850   1.515
39041W        W 4026  25.046  33.682   1.982
39042W        W 4027  25.377  17.622   4.224
39043W        W 4028  15.264  30.865   0.920
39044W        W 4029  19.119  25.835   2.149
39045W        W 4030  26.118  24.665  14.253
39046W        W 4031  34.410  22.338  10.522
39047W        W 4032   9.175  33.825   0.776
39048W        W 4033  20.374   7.377   2.717
39049W        W 4034   2.708   6.311   3.276
39050W        W 4035  32.862   1.812   0.900
39051W        W 4036  12.224  25.664   0.541
39052W        W 4037  25.956  44.005   0.238
39053W        W 4038   9.113  39.407  13.192
39054W        W 4039   1.953  26.614  11.640
39055W        W 4040  36.530  20.444   1.770
39056W        W 4041  31.047  23.645  10.473
39057W        W 4042  11.149  29.180  13.575
39058W        W 4043  13.222   3.206  12.086
39059W        W 4044  31.878  19.617  10.642
39060W        W 4045  23.648  31.202   2.700
39061W        W 4046  21.476  18.475   4.486
39062W        W 4047  26.056  18.152  14.812
39063W        W 4048  10.801  35.444   2.727
39064W        W 4049  44.822  23.063  12.345
39065W        W 4050   0.431   4.412  12.968
39066W        W 4051  39.861  22.158  12.557
39067W        W 4052  10.878  17.699   0.961
39068W        W 4053  40.698  23.043  13.776
39069W        W 4054   4.373  21.135  10.547
39070W        W 4055  21.999  20.852   1.748
39071W        W 4056  38.098  40.888  12.933
39072W        W 4057  26.101  21.241   4.752
39073W        W 4058  44.511  35.160  14.579
39074W        W 4059  38.862  36.392   3.215
39075W        W 4060   7.311   8.164   0.883
39076W        W 4061  38.981  20.695   4.701
39077W        W 4062   4.275  20.015   4.520
39078W        W 4063  40.801  32.024  10.286
39079W        W 4064  26.589   8.591  11.154
39080W        W 4065  30.070   6.081  14.266
39081W        W 4066  36.780  33.149   1.164
39082W        W 4067  19.226  44.886   1.058
39083W        W 4068   9.293  13.549   2.651
39084W        W 4069   9.359  32.547  11.118
39085W        W 4070   0.222  27.999  12.492
39086W        W 4071  22.082  21.609  11.292
39087W        W 4072   3.833  44.066  11.200
39088W        W 4073  28.625   3.916   1.807
39089W        W 4074   0.293  27.106   2.264
39090W        W 4075  41.708   8.851   3.831
39091W        W 4076  19.772   8.297   0.519
39092W        W 4077  17.294  26.681  14.777
39093W        W 4078  10.816  29.760   2.872
39094W        W 4079  35.778  32.975  13.814
39095W        W 4080  44.947  35.172  13.847
39096W        W 4081   8.085  42.876  13.935
39097W        W 4082   7.560   9.568   4.704
39098W        W 4083  40.863  20.651  13.583
39099W        W 4084  20.486   4.128  12.813
39100W        W 4085  27.982  19.842  12.477
39101W        W 4086  32.848  28.631   2.801
39102W        W 4087   3.331   5.873  14.452
39103W        W 4088   1.965  14.505  11.563
39104W        W 4089  29.924  14.085  11.079
39105W        W 4090   1.856  21.190   4.059
39106W        W 4091  43.377  11.082   3.262
39107W        W 4092  10.620  40.201  14.223
39108W        W 4093  10.356  11.589  11.113
39109W        W 4094  20.536   1.809  14.356
39110W        W 4095  43.013  36.068   3.108
39111W        W 4096  13.992   1.249   3.582
39112W        W 4097   1.913  20.687   3.872
39113W        W 4098  42.448  37.344   1.321
39114W        W 4099  43.376  12.849   3.635
39115W        W 4100  22.458  10.716   1.558
39116W        W 4101  39.056   8.808   0.046
39117W        W 4102   1.990  29.721   1.023
39118W        W 4103  38.593  42.023  14.282
39119W        W 4104  27.688  15.758  11.593
39120W        W 4105  24.776  32.466  11.581
39121W        W 4106   0.066   9.265   4.168
39122W        W 4107  34.855  25.174  10.664
39123W        W 4108   5.617  39.955  14.510
39124W        W 4109   5.290   6.912  13.177
39125W        W 4110  14.123   5.430   3.281
39126W        W 4111   6.832   4.169  10.779
39127W        W 4112  17.350   4.942   3.497
39128W        W 4113  43.555  41.210  10.748
39129W        W 4114  25.084  25.333   1.288
39130W        W 4115  29.466  23.470   3.726
39131W        W 4116  13.092   5.935  12.518
39132W        W 4117  31.699  16.588  11.097
39133W        W 4118  26.623  12.789  12.767
39134W        W 4119  15.093  43.358  13.344
39135W        W 4120  20.065  14.319  12.159
39136W        W 4121   6.436  16.751  14.444
39137W        W 4122  44.423  10.726   0.285
39138W        W 4123  40.677   7.846  11.333
39139W        W 4124  17.997  41.945   2.226
39140W        W 4125  25.601  12.865   1.165
39141W        W 4126  36.303  18.968  12.138
39142W        W 4127  25.245  36.037   0.023
39143W        W 4128  36.257  44.097  11.647
39144W        W 4129   4.441  22.081   0.888
39145W        W 4130   3.432  24.685  14.670
39146W        W 4131  13.639  27.188   0.412
39147W        W 4132   4.833  29.923   2.273
39148W        W 4133   8.956  42.773   4.658
39149W        W 4134  14.602  42.603  10.645
39150W        W 4135  17.111  19.528   2.416
39151W        W 4136  20.166  16.015  13.362
39152W        W 4137   9.840  37.647  11.988
39153W        W 4138  23.739  43.796  11.681
39154W        W 4139  38.582   2.175  12.843
39155W        W 4140  33.992  28.957  13.877
39156W        W 4141  37.568   8.752  14.998
39157W        W 4142  36.924  36.022  11.182
39158W        W 4143   9.427   6.124   9.778
39159W        W 4144  43.317  12.964  10.768
39160W        W 4145  26.951  21.007   0.304
39161W        W 4146   5.134   9.114   3.691
39162W        W 4147  31.928  21.526   1.472
39163W        W 4148  10.062   7.814  13.016
39164W        W 4149  12.165  14.671   0.391
39165W        W 4150   0.430  43.763   3.733
39166W        W 4151  39.879  44.117   2.113
39167W        W 4152   7.421   8.390  12.124
39168W        W 4153   9.283  11.319  14.222
39169W        W 4154  38.413  18.274  14.554
39170W        W 4155  38.221  38.824   0.792
39171W        W 4156   8.469   2.298   4.634
39172W        W 4157  25.561  42.257   4.543
39173W        W 4158   2.761  32.036   4.702
39174W        W 4159   9.747  37.851   1.223
39175W        W 4160   8.391  34.806  11.629
39176W        W 4161   2.738  26.642   0.930
39177W        W 4162  21.513  25.593  12.851
39178W        W 4163  28.176  24.978   0.775
39179W        W 4164  37.412  42.160   3.376
39180W        W 4165  10.401  30.649   1.340
39181W        W 4166   5.506   9.193   0.467
39182W        W 4167   0.291  43.321  12.546
39183W        W 4168  38.333  21.981   2.737
39184W        W 4169   0.018  21.666   0.267
39185W        W 4170  33.413   9.380   2.679
39186W        W 4171  36.835  12.180  11.653
39187W        W 4172  34.997  44.822   0.634
39188W        W 4173  29.670  32.081   1.074
39189W        W 4174  18.840  26.218   0.357
39190W        W 4175  33.046  29.730  13.358
39191W        W 4176   6.036   8.879  13.958
39192W        W 4177  38.870  35.162  12.968
39193W        W 4178  24.207   2.879  14.893
39194W        W 4179  20.156  26.090   0.777
39195W        W 4180  41.509  35.317  14.341
39196W        W 4181  14.561  25.726  13.923
39197W        W 4182  34.323  12.529   4.267
39198W        W 4183  36.800  14.797  10.767
39199W        W 4184  41.936  14.849   2.686
39200W        W 4185  12.616   8.896  14.936
39201W        W 4186  33.929  17.003  11.759
39202W        W 4187  12.394  19.240   3.576
39203W        W 4188  16.342  26.093  14.077
39204W        W 4189  42.048   9.833  11.237
39205W        W 4190   4.444  11.603  14.871
39206W        W 4191  11.321  44.991   4.118
39207W        W 4192   8.395   9.134  14.314
39208W        W 4193   2.430  35.590   2.714
39209W        W 4194  26.708  12.290   1.298
39210W        W 4195  28.365  42.076  11.414
39211W        W 4196  14.138  27.527   5.332
39212W        W 4197  39.819  26.758  10.340
39213W        W 4198  15.453  43.205  12.977
39214W        W 4199  39.742  44.838  12.797
39215W        W 4200  19.107  13.092   4.740
39216W        W 4201  26.476  12.582   1.718
39217W        W 4202   8.798   0.179   0.343
39218W        W 4203  34.252  34.486   3.629
39219W        W 4204   8.179  26.463   2.769
39220W        W 4205  32.001  24.204  13.429
39221W        W 4206   0.920  16.701  11.436
39222W        W 4207  31.361  15.663   4.632
39223W        W 4208   1.357  22.681   0.723
39224W        W 4209   0.160  31.550   3.811
39225W        W 4210   1.083  15.547   3.106
39226W        W 4211  25.785   3.488   0.223
39227W        W 4212  29.949  14.419   4.390
39228W        W 4213  27.668   6.492   5.030
39229W        W 4214  30.222  34.784  14.517
39230W        W 4215   4.237  23.191  12.171
39231W        W 4216  26.060  20.569   4.210
39232W        W 4217  33.457  13.134  11.439
39233W        W 4218  21.630   3.917   0.795
39234W        W 4219  15.140  38.356   2.447
39235W        W 4220  14.094   5.785   9.597
39236W        W 4221  14.700  19.915   2.721
39237W        W 4222  38.813   3.553   4.653
39238W        W 4223  14.561  25.583   2.869
39239W        W 4224  40.057  17.623   0.439
39240W        W 4225  27.185  17.024   4.269
39241W        W 4226   9.812  29.667   2.975
39242W        W 4227  17.348  18.545   0.489
39243W        W 4228   0.806   8.193   2.309
39244W        W 4229  42.024  32.579   0.789
39245W        W 4230   7.528  42.791  12.565
39246W        W 4231  20.598   4.540   1.880
39247W        W 4232  10.894  37.447   4.008
39248W        W 4233  11.294   4.963  12.965
39249W        W 4234  38.801   4.328   3.539
39250W        W 4235  33.672  20.112  14.277
39251W        W 4236  36.367   8.603   2.141
39252W        W 4237  37.076  25.124  10.536
39253W        W 4238  20.794  26.730  11.292
39254W        W 4239  40.056   5.650   0.865
39255W        W 4240  38.213  39.556   1.200
39256W        W 4241  40.321  29.664   2.350
39257W        W 4242  39.458  23.852   4.714
39258W        W 4243  34.006   0.989  14.041
39259W        W 4244  33.099  11.544   0.358
39260W        W 4245  33.192   0.577  11.931
39261W        W 4246   5.887   0.363   2.661
39262W        W 4247  19.226  43.399   2.584
39263W        W 4248  10.892  27.420   0.038
39264W        W 4249   1.054  36.443  14.038
39265W        W 4250  37.477  11.697  14.315
39266W        W 4251  12.857  22.221   2.551
39267W        W 4252  29.963  41.897   0.395
39268W        W 4253  25.009  19.578   1.386
39269W        W 4254  21.325   7.963   4.492
39270W        W 4255  14.329  27.519  12.121
39271W        W 4256  26.327  35.468  12.765
39272W        W 4257  11.240  41.899  10.751
39273W        W 4258  19.658   2.040   1.441
39274W        W 4259  12.565  33.052  13.469
39275W        W 4260   8.823  41.377   1.408
39276W        W 4261   4.692  34.199   3.879
39277W        W 4262   8.196  24.966  14.350
39278W        W 4263  35.071  42.038   3.627
39279W        W 4264  20.165  31.926   3.575
39280W        W 4265  22.945   0.437  12.793
39281W        W 4266  42.596  20.734   3.094
39282W        W 4267   7.660  15.786  14.417
39283W        W 4268   7.594   7.303  14.358
39284W        W 4269  43.542  11.743   1.510
39285W        W 4270  11.344  11.237   4.047
39286W        W 4271   1.660  44.806   1.679
39287W        W 4272  30.628  44.804   4.595
39288W        W 4273  23.586  40.833  13.438
39289W        W 4274   8.784  26.431   0.670
39290W        W 4275  21.632  40.527   4.151
39291W        W 4276  34.527  38.151   0.084
39292W        W 4277  32.081  11.662  11.419
39293W        W 4278  29.198  16.255   0.528
39294W        W 4279   1.353  22.984   2.724
39295W        W 4280   0.193  26.977   1.312
39296W        W 4281  27.269  17.560  14.283
39297W        W 4282  15.614  23.889   0.803
39298W        W 4283  41.549  15.238  11.202
39299W        W 4284  11.573  14.906   4.796
39300W        W 4285   1.773  42.285  13.401
39301W        W 4286   7.631  32.215  13.912
39302W        W 4287  18.867  38.528   1.321
39303W        W 4288  35.634  31.406  14.264
39304W        W 4289  20.612   5.261   4.295
39305W        W 4290  17.330   2.961   3.773
39306W        W 4291  18.334  24.832   5.127
39307W        W 4292  29.083  22.750   1.858
39308W        W 4293  42.039  32.368  13.590
39309W        W 4294  38.877  10.160   4.231
39310W        W 4295  16.720   8.947   4.074
39311W        W 4296   6.957  32.290  12.061
39312W        W 4297  29.083  11.658   0.318
39313W        W 4298  25.202  28.444   1.762
39314W        W 4299  17.796   6.320   1.942
39315W        W 4300   8.202   6.266  12.256
39316W        W 4301   0.785   4.908   4.147
39317W        W 4302   2.413  41.898   4.453
39318W        W 4303  31.871  44.391   2.990
39319W        W 4304  11.517  13.896   5.073
39320W        W 4305   3.667   0.715  14.340
39321W        W 4306  31.934   1.238   3.874
39322W        W 4307  35.306  24.646  11.375
39323W        W 4308  27.019   2.420  14.746
39324W        W 4309  18.133  12.673   4.634
39325W        W 4310  34.507  27.564  10.767
39326W        W 4311  24.546  30.980  12.594
39327W        W 4312   4.233  18.618  11.669
39328W        W 4313  43.907  28.960  14.565
39329W        W 4314  11.131  44.505   4.246
39330W        W 4315  28.001  16.607  14.874
39331W        W 4316   0.238  25.474   3.767
39332W        W 4317  26.628   8.289   2.296
39333W        W 4318  36.152  30.830   4.673
39334W        W 4319   3.827   6.345   1.896
39335W        W 4320  16.239  16.598   3.683
39336W        W 4321  31.459  18.192  12.443
39337W        W 4322  15.426  37.595   1.844
39338W        W 4323   2.993   4.430  10.462
39339W        W 4324   6.140  33.430   1.200
39340W        W 4325  33.077  23.732   4.792
39341W        W 4326   5.195  10.789   1.746
39342W        W 4327  27.048   8.748  13.388
39343W        W 4328  14.084  44.083   5.037
39344W        W 4329  23.707  12.688   3.096
39345W        W 4330  40.886  24.592  12.682
39346W        W 4331  16.471   9.002  11.524
39347W        W 4332  18.904   3.079  10.270
39348W        W 4333   3.328   3.201  14.362
39349W        W 4334  41.308  30.941   3.261
39350W        W 4335  11.309   8.666   2.007
39351W        W 4336  13.914   6.569  10.669
39352W        W 4337  31.030  27.537   2.662
39353W        W 4338  42.667  19.070   2.447
39354W        W 4339  14.434  38.168   5.046
39355W        W 4340  33.786  43.055  12.416
39356W        W 4341  42.041   9.402  11.505
39357W        W 4342  15.260  24.948  12.013
39358W        W 4343  24.138  12.744  13.582
39359W        W 4344   8.040  30.530   5.000
39360W        W 4345  41.030  20.125   3.414
39361W        W 4346  44.329  22.130  13.380
39362W        W 4347   5.477  24.092  13.811
39363W        W 4348   6.164  14.779  10.178
39364W        W 4349  10.818   0.516  11.978
39365W        W 4350  30.186   1.011   1.174
39366W        W 4351  27.679  14.437  12.476
39367W        W 4352  37.334  37.912   5.011
39368W        W 4353  28.150  30.646   0.155
39369W        W 4354  16.833  39.475   1.268
39370W        W 4355  10.276  32.448   0.365
39371W        W 4356  41.943  20.049   4.215
39372W        W 4357   7.309  44.196   0.762
39373W        W 4358  27.335  33.500  11.629
39374W        W 4359  44.888  12.082   1.844
39375W        W 4360  11.365  23.038   2.775
39376W        W 4361  23.021  24.003  14.845
39377W        W 4362   8.719   3.204   2.818
39378W        W 4363   9.589  42.478  13.865
39379W        W 4364  38.443  29.595   2.782
39380W        W 4365  16.949  33.055   1.939
39381W        W 4366  27.537  13.662  13.244
39382W        W 4367  37.020  38.467  12.041
39383W        W 4368  35.648  17.115   3.703
39384W        W 4369  24.471  16.786  13.432
39385W        W 4370  17.556   5.168   0.879
39386W        W 4371   8.858  14.131   0.729
39387W        W 4372  23.165  38.565   0.270
39388W        W 4373   2.271  35.042  14.952
39389W        W 4374  28.857  38.969  11.689
39390W        W 4375  38.427  35.560   3.583
39391W        W 4376  19.322  24.551   0.744
39392W        W 4377  11.588  19.120   3.258
39393W        W 4378  31.548  21.158  11.990
39394W        W 4379  26.175  34.819   1.732
39395W        W 4380  29.139  36.978  12.778
39396W        W 4381   3.157  21.071  11.620
39397W        W 4382   6.127  28.744  12.387
39398W        W 4383  33.678  34.509  14.439
39399W        W 4384  37.795   4.463   0.011
39400W        W 4385   4.833  27.691   0.483
39401W        W 4386  23.000   2.466   4.101
39402W        W 4387   5.323  37.065  11.964
39403W        W 4388  43.530  13.369  13.469
39404W        W 4389   7.621  33.458   4.682
39405W        W 4390  26.203  37.358   1.648
39406W        W 4391  14.616  16.959   1.739
39407W        W 4392  12.802  10.201  11.700
39408W        W 4393   9.497  10.150   4.261
39409W        W 4394  18.706  36.687   1.214
39410W        W 4395   9.155  44.477  14.314
39411W        W 4396   9.817  21.472   2.252
39412W        W 4397  22.849  34.819  10.960
39413W        W 4398   4.355  42.121   0.479
39414W        W 4399   4.275  13.451  12.672
39415W        W 4400  21.718  15.645  14.872
39416W        W 4401  28.684  42.824   0.760
39417W        W 4402   1.846  29.537  13.005
39418W        W 4403  19.751  32.097  12.646
39419W        W 4404  10.472   3.357  10.218
39420W        W 4405  25.362   3.063   3.740
39421W        W 4406  15.343   8.202  12.887
39422W        W 4407  12.733  32.853  10.701
39423W        W 4408   2.576  32.496   4.857
39424W        W 4409  10.226  17.283  11.206
39425W        W 4410  30.907  10.589   2.262
39426W        W 4411  26.601  41.453  14.903
39427W        W 4412  31.126  20.266  10.526
39428W        W 4413   8.153  37.982   3.900
39429W        W 4414   5.439  37.966   2.898
39430W        W 4415  29.375  44.907   3.649
39431W        W 4416   8.453  30.724  14.919
39432W        W 4417  14.783  30.555  10.927
39433W        W 4418  23.719  22.756   1.709
39434W        W 4419   2.474  19.766  10.666
39435W        W 4420  17.111   1.810  14.217
39436W        W 4421  28.663  28.600  14.632
39437W        W 4422   3.296   6.430  13.420
39438W        W 4423  13.283  29.998   0.210
39439W        W 4424  28.497   8.713   4.340
39440W        W 4425  21.594  33.844   2.447
39441W        W 4426  23.476  27.013  11.938
39442W        W 4427  24.650  44.231   4.315
39443W        W 4428  31.494  19.129   3.990
39444W        W 4429  21.115  33.571   3.399
39445W        W 4430  23.507  40.538   1.372
39446W        W 4431  20.958  16.872  12.965
39447W        W 4432  36.120  20.294  10.793
39448W        W 4433  10.931  21.303   0.987
39449W        W 4434   5.375  37.794  13.075
39450W        W 4435  14.999  27.935   1.834
39451W        W 4436  11.217  17.905  11.574
39452W        W 4437  23.523   6.929   0.334
39453W        W 4438  44.521   4.923   1.508
39454W        W 4439  22.215  30.005  12.557
39455W        W 4440  40.093  11.917  12.076
39456W        W 4441  22.288   3.076  12.918
39457W        W 4442  39.416  25.022  13.394
39458W        W 4443  19.588  42.990  14.729
39459W        W 4444  16.708  28.020  14.844
39460W        W 4445  22.090  18.994  12.092
39461W        W 4446  24.026  25.811   4.328
39462W        W 4447   0.866  32.468   4.538
39463W        W 4448  26.727  16.221  14.926
39464W        W 4449  21.076  33.566   4.939
39465W        W 4450  43.273  25.119  14.464
39466W        W 4451  40.214  27.698   2.258
39467W        W 4452  12.297   6.918   1.505
39468W        W 4453  33.026  38.447   0.109
39469W        W 4454  11.270   8.824  14.003
39470W        W 4455  22.291  21.058   0.183
39471W        W 4456   8.989  36.407   2.108
39472W        W 4457   0.838  23.696  14.888
39473W        W 4458   6.204  23.962   2.311
39474W        W 4459  31.023  12.384  11.835
39475W        W 4460  13.622  36.036   4.263
39476W        W 4461  14.836  31.166   3.639
39477W        W 4462  24.051   6.564   4.062
39478W        W 4463  24.645  23.489   1.759
39479W        W 4464   0.019   2.478   0.397
39480W        W 4465   9.365   5.122   5.621
39481W        W 4466  29.176  38.111  10.968
39482W        W 4467  43.342   1.207  14.332
39483W        W 4468  33.922  43.400  14.819
39484W        W 4469  23.893  43.118  13.526
39485W        W 4470  12.593   0.344  11.619
39486W        W 4471  44.149   2.921  13.391
39487W        W 4472  29.721  36.302   1.972
39488W        W 4473  40.852  12.644   2.030
39489W        W 4474  27.488  16.953   1.456
39490W        W 4475  25.316  18.567  12.417
39491W        W 4476   7.872   7.582   5.494
39492W        W 4477   1.837  18.708   3.753
39493W        W 4478  24.973  30.937   1.800
39494W        W 4479  24.012  10.135   9.971
39495W        W 4480  28.038   6.651  10.740
39496W        W 4481  40.314  13.255  10.681
39497W        W 4482  20.022  20.491  14.269
39498W        W 4483   1.223   3.220  12.440
39499W        W 4484  44.356  13.365   4.700
39500W        W 4485   2.805  10.652   0.952
39501W        W 4486  30.951   8.402   4.088
39502W        W 4487  26.435  16.632  10.533
39503W        W 4488  12.767  18.942  14.058
39504W        W 4489  36.437   3.371   2.654
39505W        W 4490  13.244  15.897  13.545
39506W        W 4491  28.758  24.430   3.230
39507W        W 4492  32.102  30.495  14.560
39508W        W 4493  30.222  29.067   3.612
39509W        W 4494  10.798  22.973  11.899
39510W        W 4495  23.797  16.645   1.483
39511W        W 4496  11.701   8.122  10.761
39512W        W 4497  41.887   4.642  14.347
39513W        W 4498  26.302  42.015   2.686
39514W        W 4499   7.393  32.399  13.033
39515W        W 4500  15.557   3.719   2.007
39516W        W 4501  30.962  38.520   2.067
39517W        W 4502   2.803  19.058   4.233
39518W        W 4503  27.724  35.559  14.369
39519W        W 4504  27.675  11.026   2.301
39520W        W 4505   6.348   8.427   2.875
39521W        W 4506  37.968   5.708  12.435
39522W        W 4507  10.785  31.943   0.731
39523W        W 4508  42.050  38.809   2.468
39524W        W 4509   1.944  23.069   1.898
39525W        W 4510   0.239  40.118   1.405
39526W        W 4511  23.073  21.225   4.850
39527W        W 4512  23.905  33.587   2.207
39528W        W 4513  10.215  19.313  11.051
39529W        W 4514  13.537  33.189   4.494
39530W        W 4515  34.543  38.087  13.361
39531W        W 4516  13.603  32.729  12.377
39532W        W 4517  19.512  32.467  13.472
39533W        W 4518  24.675  17.074  11.889
39534W        W 4519  40.915  20.417   3.823
39535W        W 4520  25.435  15.684   3.071
39536W        W 4521   0.786  43.781  10.571
39537W        W 4522   4.430  25.446  14.347
39538W        W 4523   2.279   4.860  13.519
39539W        W 4524  19.726  31.531   2.361
39540W        W 4525   4.617   1.645   4.172
39541W        W 4526   7.866  29.525   1.298
39542W        W 4527  22.996  10.299   2.280
39543W        W 4528  27.500   4.355   5.056
39544W        W 4529  23.426  38.079  11.164
39545W        W 4530  27.491  28.883   0.779
39546W        W 4531  13.195  17.772   2.960
39547W        W 4532  13.263  28.027  13.437
39548W        W 4533  24.691  29.390  12.555
39549W        W 4534  39.097  42.530   2.514
39550W        W 4535  30.623  35.409   1.061
39551W        W 4536  13.125  36.759   1.817
39552W        W 4537  26.455  22.313   0.530
39553W        W 4538  13.731  40.745   3.487
39554W        W 4539  34.960   6.972   0.485
39555W        W 4540  14.768  16.257   0.725
39556W        W 4541   3.048  19.300   3.169
39557W        W 4542  15.321  42.870   1.732
39558W        W 4543   6.606  14.058   0.735
39559W        W 4544  12.190   6.580   2.854
39560W        W 4545  25.222   2.310  14.349
39561W        W 4546  21.536  17.820  11.169
39562W        W 4547  32.692  43.368  12.793
39563W        W 4548  22.712  38.890  10.858
39564W        W 4549  25.851  24.618  14.820
39565W        W 4550  33.630  24.624   5.021
39566W        W 4551  44.400  20.050   3.846
39567W        W 4552  26.511  12.326   5.181
39568W        W 4553   1.060  25.132   0.307
39569W        W 4554  39.779  10.841  11.677
39570W        W 4555  35.491  16.398  12.979
39571W        W 4556  41.944  40.118   3.215
39572W        W 4557  17.815  21.648  11.730
39573W        W 4558  19.594  17.830  12.937
39574W        W 4559  11.464  19.142  14.327
39575W        W 4560  28.911   2.348  13.531
39576W        W 4561  41.660  21.604   4.189
39577W        W 4562  43.352  40.564  12.514
39578W        W 4563  27.713  43.506   2.126
39579W        W 4564   8.751  28.121   4.924
39580W        W 4565  38.604  21.305   4.697
39581W        W 4566   2.524  41.882  14.617
39582W        W 4567  27.036  40.376   2.994
39583W        W 4568  28.880   2.096   5.280
39584W        W 4569  28.849   8.883   1.613
39585W        W 4570   9.634   2.921  13.305
39586W        W 4571   8.566  18.759   1.838
39587W        W 4572  16.931  36.111  11.355
39588W        W 4573   8.713  13.901  11.148
39589W        W 4574  32.912  21.954   3.898
39590W        W 4575  11.872   6.705   1.831
39591W        W 4576  16.649  11.285  11.864
39592W        W 4577  41.743  28.215  10.672
39593W        W 4578  17.693   3.229   2.933
39594W        W 4579  27.218  44.396  11.838
39595W        W 4580  24.028  24.193  13.322
39596W        W 4581  23.600  33.057   2.337
39597W        W 4582   8.711  26.438  10.727
39598W        W 4583  36.474  18.694   3.312
39599W        W 4584   1.455   9.379   0.951
39600W        W 4585  39.495  28.568   2.887
39601W        W 4586  15.577  32.792   2.095
39602W        W 4587  11.577  30.033   0.277
39603W        W 4588   8.794  27.214  12.105
39604W        W 4589  13.234  26.558   1.426
39605W        W 4590  25.543  14.076   3.327
39606W        W 4591  20.252   2.850  13.557
39607W        W 4592  26.603  16.322   2.724
39608W        W 4593  41.115  19.160   3.720
39609W        W 4594   8.532  35.593   0.253
39610W        W 4595  19.053   1.637  11.151
39611W        W 4596   1.681  12.821   3.235
39612W        W 4597  40.154   3.228   2.244
39613W        W 4598  33.038  33.471   4.131
39614W        W 4599   4.550  11.632  12.216
39615W        W 4600  19.188  34.918   1.003
39616W        W 4601   7.605  44.351  14.500
39617W        W 4602  36.217   6.173  11.686
39618W        W 4603   1.873  39.504   0.424
39619W        W 4604  19.327   3.531  11.431
39620W        W 4605   9.828   1.936  10.730
39621W        W 4606  18.342   7.366  14.694
39622W        W 4607  37.139   9.240   0.415
39623W        W 4608  18.540  36.346  10.751
39624W        W 4609  16.791  32.439  13.386
39625W        W 4610  19.281  36.700  12.097
39626W        W 4611  37.736  37.516   9.548
39627W        W 4612  37.467  20.625  12.443
39628W        W 4613   3.902  11.462   1.975
39629W        W 4614  29.528  21.420   2.705
39630W        W 4615  31.585  25.657  11.796
39631W        W 4616  10.309  24.057  10.720
39632W        W 4617  16.540  10.665  10.644
39633W        W 4618  12.170  44.014   2.726
39634W        W 4619  22.148  34.772  12.908
39635W        W 4620  24.763  36.045   2.331
39636W        W 4621   4.956  39.443  12.067
39637W        W 4622  12.794  17.926   4.440
39638W        W 4623  24.140  12.171  10.430
39639W        W 4624  41.597  36.959   0.339
39640W        W 4625  33.000   0.799   3.586
39641W        W 4626  38.461  36.656  13.403
39642W        W 4627  25.490   9.454   3.598
39643W        W 4628   0.768   8.510   1.882
39644W        W 4629  21.018  24.021   3.696
39645W        W 4630  11.419  38.528   1.429
39646W        W 4631  23.292  11.209   3.592
39647W        W 4632  21.616   3.933  14.027
39648W        W 4633  34.367  21.794  10.727
39649W        W 4634  22.604   1.751  14.778
39650W        W 4635  26.957  29.832   0.770
39651W        W 4636  26.102  13.609   1.260
39652W        W 4637  20.468  27.593  12.394
39653W        W 4638   9.169  22.533   2.711
39654W        W 4639  11.768  29.449  10.789
39655W        W 4640   1.080  34.458   4.269
39656W        W 4641  44.945  32.961  11.574
39657W        W 4642  14.586   5.585  14.321
39658W        W 4643  14.592  10.552   2.715
39659W        W 4644  39.970  40.749   2.190
39660W        W 4645  27.238  20.107  14.841
39661W        W 4646  11.235  10.715  11.912
39662W        W 4647   8.478  12.218  10.691
39663W        W 4648  27.983  33.360   3.330
39664W        W 4649  30.177  20.694  12.966
39665W        W 4650  29.359  29.364   0.041
39666W        W 4651  30.403  43.797   1.272
39667W        W 4652  25.775   0.048   0.791
39668W        W 4653   6.949  16.277   4.118
39669W        W 4654  30.355  16.285   3.068
39670W        W 4655  20.617  25.227  10.604
39671W        W 4656  42.053  39.976  14.397
39672W        W 4657   3.740   2.252   3.286
39673W        W 4658  30.859  32.938  11.583
39674W        W 4659  31.193  21.596   3.310
39675W        W 4660  12.221  25.601   2.203
39676W        W 4661   2.361   9.719  10.996
39677W        W 4662  36.151  26.819  12.560
39678W        W 4663  14.323  19.398   2.692
39679W        W 4664   1.209  26.685  11.245
39680W        W 4665   7.182  39.991  12.063
39681W        W 4666  25.194  28.329   0.413
39682W        W 4667   0.545  15.428  10.286
39683W        W 4668   6.883  38.507  10.659
39684W        W 4669  34.446  25.033   1.707
39685W        W 4670  41.296  32.681  12.107
39686W        W 4671  40.236  23.953   2.455
39687W        W 4672   3.787   6.129  14.312
39688W        W 4673  18.765  27.553   1.754
39689W        W 4674  37.000  14.302  13.274
39690W        W 4675  44.528   1.987  10.686
39691W        W 4676  19.881  39.386   1.425
39692W        W 4677   7.761  15.596   4.485
39693W        W 4678  37.999  37.364   3.833
39694W        W 4679   8.491  20.826   4.383
39695W        W 4680   0.747  20.095   1.702
39696W        W 4681  20.031  31.173   2.152
39697W        W 4682  13.915  17.701  13.835
39698W        W 4683  43.556  39.785   3.675
39699W        W 4684   4.863  43.871  12.686
39700W        W 4685  11.009   7.180   4.312
39701W        W 4686  21.144   2.649   0.679
39702W        W 4687  29.173  32.361   3.680
39703W        W 4688  28.899  25.328  11.537
39704W        W 4689  30.200  43.398  13.280
39705W        W 4690  42.653   8.347  10.795
39706W        W 4691  15.360   6.931   3.424
39707W        W 4692  36.602  37.407  11.469
39708W        W 4693   9.630  30.470   3.996
39709W        W 4694  35.425  15.216  14.728
39710W        W 4695   0.847   1.883  11.464
39711W        W 4696  35.333   8.846  12.911
39712W        W 4697  14.640   4.297  11.089
39713W        W 4698   9.483  25.648   1.871
39714W        W 4699  38.528  42.607   3.639
39715W        W 4700  38.602  25.542  13.814
39716W        W 4701  31.666  28.370   0.077
39717W        W 4702   0.716  34.044  11.540
39718W        W 4703  14.608   9.666  11.539
39719W        W 4704  43.379  42.884  12.084
39720W        W 4705  44.519  19.029  10.696
39721W        W 4706  15.273  27.476   1.842
39722W        W 4707  19.196  21.754   1.660
39723W        W 4708  28.660  19.832  11.068
39724W        W 4709   7.624  23.155   2.411
39725W        W 4710   5.409  14.184  14.481
39726W        W 4711  17.363  23.059   2.792
39727W        W 4712  40.614  18.557   3.583
39728W        W 4713   5.864   8.433   2.227
39729W        W 4714  15.434   1.961  10.994
39730W        W 4715  31.360  33.963   1.188
39731W        W 4716  32.397  34.601   0.785
39732W        W 4717  22.740   7.779   1.360
39733W        W 4718  11.849  33.041  11.642
39734W        W 4719  34.214  19.816   4.170
39735W        W 4720  25.506  38.879   2.382
39736W        W 4721  31.119   5.872  12.140
39737W        W 4722  15.631  30.877  14.278
39738W        W 4723  18.539  13.079  13.550
39739W        W 4724  34.564  31.339  12.126
39740W        W 4725   3.310  26.011   3.245
39741W        W 4726  28.392  32.749  13.113
39742W        W 4727  35.838  14.872  10.791
39743W        W 4728  26.113  17.063  13.551
39744W        W 4729  23.728  35.419  14.546
39745W        W 4730  42.392  37.661  10.336
39746W        W 4731  22.119  29.888  12.047
39747W        W 4732   8.402   0.355  11.538
39748W        W 4733  42.077  39.608  12.703
39749W        W 4734  21.269  15.499   5.326
39750W        W 4735  39.299  21.998   3.017
39751W        W 4736  38.510  17.310  13.119
39752W        W 4737  18.790  25.064  10.702
39753W        W 4738  10.041  18.309  12.077
39754W        W 4739  33.511  42.062   1.751
39755W        W 4740  23.242  24.529   3.073
39756W        W 4741  23.436  37.686   1.272
39757W        W 4742  11.388  15.665   1.397
39758W        W 4743  43.740   5.239   1.197
39759W        W 4744  14.290  19.158  12.501
39760W        W 4745  30.068  36.894  12.004
39761W        W 4746  20.774  35.137  11.798
39762W        W 4747  11.801   5.906   1.134
39763W        W 4748  15.284  21.783   1.070
39764W        W 4749  35.383  38.918   3.517
39765W        W 4750   6.270  15.727  14.330
39766W        W 4751  37.243  24.605   0.507
39767W        W 4752   0.472  20.986  11.346
39768W        W 4753  35.026   4.710   4.766
39769W        W 4754  17.276  24.050   4.589
39770W        W 4755  44.049  26.506  10.699
39771W        W 4756   9.123  27.971   1.943
39772W        W 4757  20.194  23.339   0.757
39773W        W 4758  32.922   6.603  13.798
39774W        W 4759  25.501  23.639   2.380
39775W        W 4760  43.865  34.691  12.051
39776W        W 4761   5.494  44.040  10.480
39777W        W 4762   0.940  43.208   3.619
39778W        W 4763  26.281  13.688  13.859
39779W        W 4764  27.156  35.917  14.949
39780W        W 4765  28.255  21.278   3.400
39781W        W 4766   8.368  37.603   3.274
39782W        W 4767  17.505  43.130   4.822
39783W        W 4768  40.741   4.296  11.605
39784W        W 4769   1.633  41.613   5.026
39785W        W 4770  39.865  40.845   1.278
39786W        W 4771  19.464  15.281   0.417
39787W        W 4772   5.279  19.148   0.452
39788W        W 4773  24.187  18.633   3.466
39789W        W 4774  27.021  18.033  14.376
39790W        W 4775  35.876  15.048  13.325
39791W        W 4776   7.914  11.321   1.319
39792W        W 4777  23.563  22.533   3.554
39793W        W 4778   3.332  42.665   4.397
39794W        W 4779  27.191   9.490   1.296
39795W        W 4780  12.713  24.497   0.337
39796W        W 4781  19.824  38.602  13.213
39797W        W 4782   9.112  29.479   2.659
39798W        W 4783  18.682  11.205   1.893
39799W        W 4784  11.728   7.212  10.511
39800W        W 4785  12.099  23.921  12.590
39801W        W 4786   6.392  36.027   0.116
39802W        W 4787  42.772  41.517  11.589
39803W        W 4788   8.266   2.170  12.429
39804W        W 4789   2.240   6.852   1.388
39805W        W 4790  35.432  22.276   4.151
39806W        W 4791   2.712  28.592   2.216
39807W        W 4792  38.576  33.085   2.398
39808W        W 4793  40.771  27.746   4.112
39809W        W 4794  44.719   2.873  11.997
39810W        W 4795  23.309  10.775  12.410
39811W        W 4796  43.551   6.230  12.447
39812W        W 4797  12.791  12.768   1.841
39813W        W 4798  30.566  34.411   3.278
39814W        W 4799  23.145  15.787   0.398
39815W        W 4800  13.880  10.130  13.304
39816W        W 4801   1.319  24.079   2.580
39817W        W 4802   8.146  35.958   0.315
39818W        W 4803  25.988  38.512   1.749
39819W        W 4804  42.547  22.976   0.950
39820W        W 4805  26.512  30.966   2.561
39821W        W 4806  35.863   1.356  13.764
39822W        W 4807  30.287  11.106  13.563
39823W        W 4808  26.157  37.490   4.107
39824W        W 4809   6.806   2.997  11.901
39825W        W 4810  12.819  32.851   3.397
39826W        W 4811  13.161  10.944  11.953
39827W        W 4812  40.138  31.367   0.696
39828W        W 4813  43.804  28.051  13.892
39829W        W 4814  24.519   2.850  11.280
39830W        W 4815  39.618  44.986  11.150
39831W        W 4816  31.912  27.554  14.014
39832W        W 4817   0.043   7.824   0.356
39833W        W 4818  43.315  12.635   4.112
39834W        W 4819  28.629  12.324  11.300
39835W        W 4820  10.666  38.727   1.763
39836W        W 4821  42.259  44.561  11.691
39837W        W 4822  10.247  33.196   1.726
39838W        W 4823   0.184  25.594  13.957
39839W        W 4824  10.707  10.820  10.691
39840W        W 4825  16.074  11.632   0.894
39841W        W 4826  22.327  22.359  11.216
39842W        W 4827  11.817  30.486   4.124
39843W        W 4828  31.618  34.471  14.400
39844W        W 4829  33.925  19.152  11.228
39845W        W 4830  18.307   3.141  13.927
39846W        W 4831  35.123   6.657   1.690
39847W        W 4832  21.664  18.725   1.606
39848W        W 4833  38.927  13.137   0.422
39849W        W 4834  25.818  35.350  11.859
39850W        W 4835  37.862  14.283   1.138
39851W        W 4836  26.568  38.806   3.195
39852W        W 4837  32.011  26.570  14.929
39853W        W 4838  32.502   0.164   2.217
39854W        W 4839   2.305  31.826   1.997
39855W        W 4840  34.541  31.115  12.625
39856W        W 4841  19.836  28.416  11.357
39857W        W 4842  39.014  31.729   2.231
39858W        W 4843   1.923  21.052   0.918
39859W        W 4844   6.283   2.242  10.974
39860W        W 4845  27.972  21.207  12.121
39861W        W 4846  36.946  23.553  13.854
39862W        W 4847  16.238  23.743  11.462
39863W        W 4848  11.788   4.462  12.528
39864W        W 4849  17.408  36.204  12.611
39865W        W 4850   8.774  33.554   1.754
39866W        W 4851   1.057  22.553  14.533
39867W        W 4852  26.547  22.145  14.542
39868W        W 4853   8.652  12.786   0.187
39869W        W 4854  26.429  10.416  13.956
39870W        W 4855  12.285   9.866   1.493
39871W        W 4856   1.742  14.598  12.057
39872W        W 4857  38.539   7.446  12.876
39873W        W 4858  33.064  24.291  14.971
39874W        W 4859   1.576  40.351   2.284
39875W        W 4860   7.334  23.592  12.474
39876W        W 4861  28.604  39.981  14.523
39877W        W 4862   7.107   8.508  10.368
39878W        W 4863  29.076  44.185  14.868
39879W        W 4864  11.764  28.345   4.261
39880W        W 4865  34.270  25.580  13.985
39881W        W 4866  36.916   2.426  14.384
39882W        W 4867   3.341  38.503   1.785
39883W        W 4868  23.787  17.934  14.958
39884W        W 4869  20.403  35.877  12.029
39885W        W 4870  40.945  39.374   0.895
39886W        W 4871   9.045  42.899  12.373
39887W        W 4872  30.401   7.561   2.033
39888W        W 4873  22.194  41.926   3.649
39889W        W 4874   5.339  24.443  12.996
39890W        W 4875   3.887  36.580  14.892
39891W        W 4876  34.565  25.514   3.138
39892W        W 4877   0.960  15.203   1.356
39893W        W 4878  24.295  35.704  11.637
39894W        W 4879  13.362  31.043  10.968
39895W        W 4880  18.537   4.800   0.770
39896W        W 4881  34.911  24.901  12.492
39897W        W 4882  26.602  31.737   0.805
39898W        W 4883  29.180   8.817  11.379
39899W        W 4884  15.874  33.688  14.032
39900W        W 4885  30.248   0.987   4.200
39901W        W 4886  23.750  19.090  13.448
39902W        W 4887  18.983  21.651  14.802
39903W        W 4888   4.350  15.877  11.980
39904W        W 4889  21.022  38.737   2.261
39905W        W 4890  14.418  27.161   3.552
39906W        W 4891  43.001  20.702   3.394
39907W        W 4892  38.510  16.269   1.991
39908W        W 4893  39.886  15.223   3.190
39909W        W 4894   9.173  10.765  14.392
39910W        W 4895  41.970  41.390   2.943
39911W        W 4896  39.105  36.401  12.095
39912W        W 4897   9.399  41.120  13.983
39913W        W 4898  43.320  24.158   4.269
39914W        W 4899  23.920  33.956  14.059
39915W        W 4900   1.932  12.219  11.499
39916W        W 4901  22.786  17.796   0.896
39917W        W 4902   8.874  28.604   2.310
39918W        W 4903  19.870  10.213   3.603
39919W        W 4904  41.310  43.402   5.044
39920W        W 4905  13.584  37.371   2.913
39921W        W 4906  16.659  30.869   3.203
39922W        W 4907   4.890  19.129  11.560
39923W        W 4908  13.585   3.298  14.099
39924W        W 4909  18.687  10.225   2.004
39925W        W 4910  33.989  43.127  13.261
39926W        W 4911  36.162  42.803  10.698
39927W        W 4912  42.761   2.286  13.785
39928W        W 4913  43.371  39.587   2.338
39929W        W 4914  36.139  25.202   1.619
39930W        W 4915  41.439  20.686   1.195
39931W        W 4916  14.685  39.407  11.935
39932W        W 4917  15.866  24.062  12.670
39933W        W 4918  42.962   9.592   4.692
39934W        W 4919  33.613  44.502   2.956
39935W        W 4920  31.014  43.184   1.714
39936W        W 4921  41.521  18.469   0.776
39937W        W 4922  19.304  40.308   2.685
39938W        W 4923   3.939  20.187   0.643
39939W        W 4924  21.728  22.002  13.412
39940W        W 4925  26.205  35.992   0.375
39941W        W 4926  44.406  32.879  13.153
39942W        W 4927  38.529  33.567   3.223
39943W        W 4928  37.768  21.082   2.208
39944W        W 4929   2.961  17.106   1.478
39945W        W 4930  33.557   3.451  10.581
39946W        W 4931   7.249  17.212   4.494
39947W        W 4932  39.548  35.993  12.577
39948W        W 4933  36.445  10.669  13.918
39949W        W 4934   4.229   5.635  13.518
39950W        W 4935  26.894  29.909   3.459
39951W        W 4936  32.456  22.097  14.789
39952W        W 4937  29.996   3.170   2.726
39953W        W 4938  44.703  40.966   4.106
39954W        W 4939  25.950  41.422   2.335
39955W        W 4940   7.031  44.075   0.355
39956W        W 4941  43.496  26.514   3.085
39957W        W 4942  14.103   6.243  12.008
39958W        W 4943  30.906  15.062  14.838
39959W        W 4944  42.409  26.249   2.574
39960W        W 4945  26.931  13.639  11.963
39961W        W 4946  14.672  22.124   2.649
39962W        W 4947  41.529   6.117   0.569
39963W        W 4948  22.657  14.253  14.309
39964W        W 4949   9.654  36.792  14.906
39965W        W 4950  26.672  13.697  13.490
39966W        W 4951  29.433  34.907  10.664
39967W        W 4952  13.607  20.911  12.455
39968W        W 4953  31.090   4.985   0.859
39969W        W 4954   4.866  12.277  13.548
39970W        W 4955   2.269  21.525  13.944
39971W        W 4956  31.914   7.413   0.992
39972W        W 4957  12.358  17.856  11.992
39973W        W 4958  20.254  11.461   3.363
39974W        W 4959  29.987  17.785  14.401
39975W        W 4960  12.423  22.117  13.799
39976W        W 4961  33.554  13.238   2.736
39977W        W 4962   9.313  42.462   4.359
39978W        W 4963  14.769  15.124  12.023
39979W        W 4964  24.059   0.431   4.605
39980W        W 4965  37.550  36.539   5.046
39981W        W 4966   5.396  31.415  13.608
39982W        W 4967   6.440  15.638  10.566
39983W        W 4968  10.675  18.262   2.913
39984W        W 4969  25.243  19.660   0.923
39985W        W 4970   9.639  30.211  13.063
39986W        W 4971  22.679  40.001  12.120
39987W        W 4972  21.058  11.315   3.910
39988W        W 4973  24.970  35.704  12.188
39989W        W 4974  41.967  33.076   0.697
39990W        W 4975  33.816  11.779  13.006
39991W        W 4976  29.480  41.415  12.004
39992W        W 4977  24.646  39.863  10.866
39993W        W 4978   9.432   2.838  12.410
39994W        W 4979   4.702  31.210   2.832
39995W        W 4980  15.906  28.223  11.796
39996W        W 4981  41.999  11.810  14.677
39997W        W 4982  21.609  43.515   1.287
39998W        W 4983  29.004  14.223   3.865
39999W        W 4984  30.437  43.225  12.861
40000W        W 4985  27.117  18.207  11.917
40001W        W 4986  20.637  12.742   3.540
40002W        W 4987   1.207  13.145   0.583
40003W        W 4988  12.220  32.721   1.925
40004W        W 4989  26.370  33.589   1.845
40005W        W 4990   9.352  24.063  10.608
40006W        W 4991  43.849   8.746   4.180
40007W        W 4992  15.908  16.681  13.337
40008W        W 4993  41.688  41.767   4.362
40009W        W 4994  37.662  15.069   3.505
40010W        W 4995  20.701  25.550  11.949
40011W        W 4996   4.244  32.290  11.037
40012W        W 4997  20.123  38.758  10.468
40013W        W 4998  18.198  29.464  14.948
40014W        W 4999  32.403  17.085   4.375
40015W        W 5000  35.976  19.666   2.105
40016W        W 5001  20.978   6.855   0.456
40017W        W 5002  38.920  22.091  10.087
40018W        W 5003  10.101  29.890  10.699
40019W        W 5004  33.887  15.973  14.136
40020W        W 5005  10.806  23.455  13.481
40021W        W 5006  11.962  23.254   3.570
40022W        W 5007  34.119  34.044   0.356
40023W        W 5008  37.902  33.806  12.461
40024W        W 5009  42.967  19.273   3.894
40025W        W 5010   6.983   2.896  12.377
40026W        W 5011  35.742  33.104   2.493
40027W        W 5012  21.041   8.508  11.762
40028W        W 5013  30.935  28.358   0.252
40029W        W 5014  10.196  39.841  14.740
40030W        W 5015  40.484  43.451   1.811
40031W        W 5016  26.164  14.028  11.642
40032W        W 5017  41.397  42.032  13.149
40033W        W 5018   3.504   9.993   4.421
40034W        W 5019   0.377  27.170  12.192
40035W        W 5020  18.504  16.136  13.091
40036W        W 5021  36.454  41.826  10.590
40037W        W 5022   1.985  23.585   1.753
40038W        W 5023  38.969  35.427  11.644
40039W        W 5024   5.743  22.060  10.600
40040W        W 5025  41.993  37.865   0.784
40041W        W 5026  38.767  24.531   1.311
40042W        W 5027  23.621  24.146   2.046
40043W        W 5028   4.706   4.797  14.462
40044W        W 5029   4.212  21.188  14.237
40045W        W 5030  29.617  32.093  10.639
40046W        W 5031  22.582   8.349   4.872
40047W        W 5032  44.304  32.922   0.387
40048W        W 5033  22.772  20.811   2.225
40049W        W 5034  29.873  40.381   2.594
40050W        W 5035  12.534  23.259  11.415
40051W        W 5036  26.586  11.249  12.414
40052W        W 5037   1.809   9.853  14.715
40053W        W 5038  40.521  17.042  11.757
40054W        W 5039  25.537  43.765   0.470
40055W        W 5040  10.769  33.671  13.922
40056W        W 5041   4.209  41.868  13.862
40057W        W 5042  30.517  15.587   2.666
40058W        W 5043  24.193  35.877   3.823
40059W        W 5044  11.890   2.968  14.752
40060W        W 5045  32.957  16.372   4.068
40061W        W 5046  12.315  25.048   4.680
40062W        W 5047  37.566  35.163   3.279
40063W        W 5048   7.955  14.849   0.259
40064W        W 5049  43.821  27.444   3.523
40065W        W 5050  42.425  28.066   0.289
40066W        W 5051  17.689  12.098   1.221
40067W        W 5052   3.453  11.101   3.632
40068W        W 5053  26.361  44.508   2.684
40069W        W 5054  43.611  36.598  11.981
40070W        W 5055  11.194  15.235  13.426
40071W        W 5056   4.665  29.560   1.375
40072W        W 5057  15.078   6.388  14.447
40073W        W 5058  29.941  33.141   0.199
40074W        W 5059  21.119   2.467  13.332
40075W        W 5060  39.327   5.750  11.067
40076W        W 5061  18.814  10.921  11.011
40077W        W 5062   5.923   7.959   2.020
40078W        W 5063  40.407  27.392   3.345
40079W        W 5064  14.608  18.080  11.184
40080W        W 5065  26.627  26.088   4.237
40081W        W 5066  25.698   5.257   2.967
40082W        W 5067  44.354  24.874  11.177
40083W        W 5068  36.384  42.455  13.324
40084W        W 5069  35.031  17.307  13.152
40085W        W 5070  37.663  14.826  11.131
40086W        W 5071   4.584  32.584  14.846
40087W        W 5072  29.753   5.806  12.487
40088W        W 5073  12.634  27.475   0.221
40089W        W 5074   3.054  19.799   4.564
40090W        W 5075  27.258  25.460   4.389
40091W        W 5076  16.614   9.523  11.628
40092W        W 5077   6.348   4.751   2.305
40093W        W 5078   1.713  34.128   0.759
40094W        W 5079  39.479  25.373   3.301
40095W        W 5080   6.182  44.899  12.542
40096W        W 5081  24.013  29.597  10.238
40097W        W 5082  37.085  38.512   0.233
40098W        W 5083  44.188  35.356   1.476
40099W        W 5084  12.097  22.514  13.952
40100W        W 5085  26.890  34.103   1.547
40101W        W 5086  24.793  29.731   1.364
40102W        W 5087  31.124  37.352  12.544
40103W        W 5088  12.655  29.644  11.202
40104W        W 5089  11.671  16.210   0.821
40105W        W 5090   7.854  40.745   4.254
40106W        W 5091   1.126  16.104  10.255
40107W        W 5092  10.226  13.279   3.341
40108W        W 5093   7.763  36.307  13.064
40109W        W 5094  38.496  27.922   4.125
40110W        W 5095  16.749  44.557   1.859
40111W        W 5096  32.439  29.983   1.157
40112W        W 5097  37.922  10.352  12.048
40113W        W 5098  22.252  23.476  12.138
40114W        W 5099  43.012  20.256  14.213
40115W        W 5100  27.597  35.498  14.862
40116W        W 5101   7.323  38.521   3.950
40117W        W 5102  14.370  43.990  11.983
40118W        W 5103   7.635  11.860   4.083
40119W        W 5104   0.245   4.646   4.481
40120W        W 5105  18.526  38.437  11.192
40121W        W 5106   2.362  38.116  10.662
40122W        W 5107  12.672  34.811   4.256
40123W        W 5108   2.904  12.339  13.387
40124W        W 5109  35.508   1.419   0.016
40125W        W 5110  11.108  30.636   4.613
40126W        W 5111  13.094   2.504   4.123
40127W        W 5112  31.114  23.399   3.436
40128W        W 5113  29.596  27.983   0.375
40129W        W 5114   2.084  16.864   4.098
40130W        W 5115  37.842  33.460  11.171
40131W        W 5116  26.944   9.336   4.614
40132W        W 5117  43.899   1.195   0.169
40133W        W 5118   3.626   0.566   4.658
40134W        W 5119  24.983  30.388   0.260
40135W        W 5120  21.489  30.087  13.943
40136W        W 5121  18.163  19.422  13.536
40137W        W 5122  33.112  25.944   4.706
40138W        W 5123  29.058   8.808  12.286
40139W        W 5124  25.997  22.512   0.500
40140W        W 5125  34.592  41.017   4.489
40141W        W 5126  17.862  31.424  13.898
40142W        W 5127  14.085  16.345  11.233
40143W        W 5128   7.362  23.299  13.322
40144W        W 5129  32.073  34.192   0.786
40145W        W 5130  40.227   3.300   4.992
40146W        W 5131  22.424   8.723  12.149
40147W        W 5132   9.879  40.637  11.671
40148W        W 5133   9.351   4.814   3.417
40149W        W 5134  26.532   0.540   1.891
40150W        W 5135  25.378   2.022   3.099
40151W        W 5136  18.870  28.676  13.075
40152W        W 5137  33.536  29.547   0.158
40153W        W 5138  23.652   7.110  13.117
40154W        W 5139  32.372  12.183   0.806
40155W        W 5140  28.698  30.368  11.250
40156W        W 5141  29.314  13.598   3.136
40157W        W 5142  35.315   4.790  14.045
40158W        W 5143  14.593  23.596   1.644
40159W        W 5144  25.144  10.905   0.975
40160W        W 5145  11.090  21.700   2.897
40161W        W 5146   9.202  10.405   3.405
40162W        W 5147   8.951  33.129  13.042
40163W        W 5148  17.280  33.092   4.596
40164W        W 5149  10.937  13.792  12.525
40165W        W 5150  10.405   6.356  14.505
40166W        W 5151  38.547  41.166  12.629
40167W        W 5152  24.583  14.823  12.326
40168W        W 5153  34.200  36.520   0.343
40169W        W 5154  28.080  30.868   3.030
40170W        W 5155  10.140  40.720   4.104
40171W        W 5156  30.039   3.617  11.156
40172W        W 5157   4.374  26.767  11.013
40173W        W 5158  37.187  14.039  14.420
40174W        W 5159  18.726  40.441  11.177
40175W        W 5160  21.350  26.349   2.820
40176W        W 5161   4.096  37.218  10.731
40177W        W 5162  38.412  24.557   1.695
40178W        W 5163  17.149  40.428  14.752
40179W        W 5164   6.900  12.219  14.437
40180W        W 5165  41.297   6.438  12.994
40181W        W 5166  16.638  21.063  11.579
40182W        W 5167  19.986  40.657   0.323
40183W        W 5168  44.091  18.658  13.553
40184W        W 5169  13.304  12.208   1.203
40185W        W 5170  17.017  16.089   4.130
40186W        W 5171  15.308  25.189   1.948
40187W        W 5172  21.178  20.881  11.627
40188W        W 5173  26.126   3.334  10.766
40189W        W 5174  33.502   1.456  11.555
40190W        W 5175   0.232   2.863   4.097
40191W        W 5176  26.010  15.407   1.872
40192W        W 5177  13.273   8.923  10.600
40193W        W 5178  32.417  10.589   1.835
40194W        W 5179  35.523  34.210  14.371
40195W        W 5180  19.030  38.395   4.445
40196W        W 5181  38.955   4.421  13.833
40197W        W 5182  14.787  11.657   1.576
40198W        W 5183  35.299   9.353   2.962
40199W        W 5184  26.737  32.790   2.144
40200W        W 5185  43.154  11.200   1.487
40201W        W 5186  35.142  36.581  12.775
40202W        W 5187  14.076   0.064   0.826
40203W        W 5188  25.386   0.386  14.058
40204W        W 5189   3.194  28.360  12.599
40205W        W 5190  33.278  33.637  14.430
40206W        W 5191  34.474  19.432  11.892
40207W        W 5192  41.842  26.742   0.109
40208W        W 5193  21.936  10.337   2.833
40209W        W 5194  13.267   6.170  13.905
40210W        W 5195  33.640   3.739  13.450
40211W        W 5196  39.397  11.130   1.354
40212W        W 5197  20.162  27.125   2.776
40213W        W 5198  27.037  19.266   4.399
40214W        W 5199  31.621   2.426  12.761
40215W        W 5200  29.119  22.500  13.530
40216W        W 5201  33.764   3.048   0.828
40217W        W 5202   0.366   3.823  13.978
40218W        W 5203  20.561  40.927   3.072
40219W        W 5204   1.542  44.096  12.014
40220W        W 5205   2.477  21.662  13.357
40221W        W 5206  42.724  16.397   1.641
40222W        W 5207   1.789   7.234   2.119
40223W        W 5208  32.806   0.275  10.659
40224W        W 5209   8.925  40.829  12.424
40225W        W 5210  24.619  17.198   3.298
40226W        W 5211  25.425   9.810   2.392
40227W        W 5212   8.322   8.965   2.275
40228W        W 5213  26.310  16.651   3.997
40229W        W 5214  37.688   3.997  11.720
40230W        W 5215   0.342  42.763   1.743
40231W        W 5216   0.464   9.693  12.033
40232W        W 5217  39.363  41.672  14.658
40233W        W 5218  41.280  27.381  11.633
40234W        W 5219  30.035  41.665   1.388
40235W        W 5220  32.497  44.841  10.762
40236W        W 5221  23.260  39.505   2.438
40237W        W 5222  21.188  14.313  11.935
40238W        W 5223   3.496   2.254  10.761
40239W        W 5224  35.352  33.517  10.375
40240W        W 5225  12.886   6.744   2.113
40241W        W 5226   7.190  32.680   2.274
40242W        W 5227  25.091  44.322   4.066
40243W        W 5228  39.592  24.941  14.262
40244W        W 5229  19.302   4.301  12.587
40245W        W 5230  32.521  23.568   2.916
40246W        W 5231   9.549   7.357   2.727
40247W        W 5232   9.776   9.460   4.812
40248W        W 5233  23.926   9.951  11.460
40249W        W 5234   5.792   7.376  10.732
40250W        W 5235   0.211  13.649  14.117
40251W        W 5236  40.526  28.417   2.731
40252W        W 5237  38.846  21.479   4.281
40253W        W 5238  11.322  38.496   2.412
40254W        W 5239   6.300  26.209   2.071
40255W        W 5240  12.919  32.113   1.411
40256W        W 5241  25.053   8.579   0.354
40257W        W 5242  19.970  15.086  14.346
40258W        W 5243  35.429   7.392   2.818
40259W        W 5244  24.496  40.257   0.036
40260W        W 5245   6.178  15.927  10.181
40261W        W 5246  18.533  37.526  13.819
40262W        W 5247  22.106   0.568  12.064
40263W        W 5248   2.777  15.909  10.971
40264W        W 5249  11.980  21.680  12.190
40265W        W 5250  35.322  11.276   3.282
40266W        W 5251  36.135  25.576  14.305
40267W        W 5252  12.882  26.081  10.640
40268W        W 5253  32.707  22.476  12.443
40269W        W 5254  11.173  25.279  12.775
40270W        W 5255  26.214  44.861   1.288
40271W        W 5256  10.835  39.862   3.580
40272W        W 5257  39.597  35.047  14.349
40273W        W 5258   4.430   9.356   4.561
40274W        W 5259  19.797  30.876   1.744
40275W        W 5260  32.667   9.307   0.386
40276W        W 5261  17.320  24.381   1.763
40277W        W 5262  35.828  30.777   2.578
40278W        W 5263  15.714  16.742  10.606
40279W        W 5264  35.929  11.339  12.663
40280W        W 5265  41.897  14.880   1.258
40281W        W 5266  37.874  30.528  12.230
40282W        W 5267  30.563  34.082   2.871
40283W        W 5268  32.386  20.704  11.698
40284W        W 5269  25.751  24.325   1.741
40285W        W 5270  21.282  29.590   2.873
40286W        W 5271   6.201  38.791   2.253
40287W        W 5272   3.923  35.973  14.365
40288W        W 5273  16.171  39.792  14.785
40289W        W 5274  40.067  10.946  10.685
40290W        W 5275  15.297  21.943  10.798
40291W        W 5276  38.056  41.478   4.488
40292W        W 5277  35.474  33.582  11.355
40293W        W 5278   5.941  14.737   2.778
40294W        W 5279  43.562   9.749  12.066
40295W        W 5280  43.587  26.619   4.020
40296W        W 5281  14.561  40.600  13.370
40297W        W 5282  27.221  26.927   2.375
40298W        W 5283  30.164  37.012   4.302
40299W        W 5284  31.440  16.055  11.906
40300W        W 5285  35.804  29.950  11.968
40301W        W 5286  28.652  35.775  11.529
40302W        W 5287  35.349   8.324   0.069
40303W        W 5288  42.317   6.693  14.419
40304W        W 5289  20.582  40.882   1.119
40305W        W 5290   6.931  14.653   3.705
40306W        W 5291  39.855   2.669   1.200
40307W        W 5292  40.515  38.779  11.545
40308W        W 5293  35.341   2.635  14.518
40309W        W 5294  21.586   3.194  14.916
40310W        W 5295   8.626  31.107  13.825
40311W        W 5296  20.558  23.803  12.530
40312W        W 5297  16.298  27.726  13.693
40313W        W 5298   6.881  16.784   2.404
40314W        W 5299  25.274  39.225   3.160
40315W        W 5300  30.920   0.810  13.823
40316W        W 5301  39.564  32.500  11.564
40317W        W 5302  42.020  41.403   5.168
40318W        W 5303  41.046  16.856  14.259
40319W        W 5304  24.007  18.981  12.098
40320W        W 5305   4.713  10.577   1.836
40321W        W 5306  16.240  23.969  10.589
40322W        W 5307  27.003  31.419   0.838
40323W        W 5308  33.109  40.880   2.156
40324W        W 5309  21.524  30.375  11.150
40325W        W 5310   6.690  25.483  14.866
40326W        W 5311  41.483  30.466  14.580
40327W        W 5312  42.278  31.882  13.254
40328W        W 5313   5.842  39.375   0.862
40329W        W 5314   6.880  27.341   3.605
40330W        W 5315  22.509  18.185   2.292
40331W        W 5316  22.476  43.163   4.926
40332W        W 5317  44.082  25.655   3.348
40333W        W 5318  36.274  43.502  14.673
40334W        W 5319   3.679  28.949  11.104
40335W        W 5320  38.972   5.124  10.618
40336W        W 5321  21.529   2.155   1.451
40337W        W 5322   1.776  40.975   1.406
40338W        W 5323  15.651  14.904   0.437
40339W        W 5324  39.054   7.195   4.262
40340W        W 5325   1.204  19.067  11.630
40341W        W 5326   6.766  14.469  13.939
40342W        W 5327  27.585  44.789  14.985
40343W        W 5328  31.100  39.791  12.150
40344W        W 5329  25.947   3.355   3.683
40345W        W 5330   4.820  42.098  10.666
40346W        W 5331  33.134  34.996  13.879
40347W        W 5332  31.290  40.066   3.272
40348W        W 5333  36.073  23.331   3.677
40349W        W 5334   8.913  13.670  11.549
40350W        W 5335  42.946   4.692   5.204
40351W        W 5336  13.363  19.309  14.237
40352W        W 5337  36.145  16.916   3.617
40353W        W 5338  29.089  12.275  14.675
40354W        W 5339  18.525  13.720  12.915
40355W        W 5340   3.988   8.840   4.154
40356W        W 5341  15.489  18.457  11.906
40357W        W 5342  19.735  20.636   4.290
40358W        W 5343  14.743  33.096  11.912
40359W        W 5344  41.867  43.761  12.701
40360W        W 5345  32.700  14.627   1.774
40361W        W 5346  17.254  14.583  14.077
40362W        W 5347  13.312  13.412   4.590
40363W        W 5348  12.642  36.504   2.658
40364W        W 5349  18.128  44.311  13.978
40365W        W 5350  18.897  18.876  12.364
40366W        W 5351  40.831  38.448  10.644
40367W        W 5352  10.785  25.265  10.646
40368W        W 5353  17.036   9.761   3.975
40369W        W 5354  43.128  42.646   0.790
40370W        W 5355  33.428   5.799   0.200
40371W        W 5356   1.355  15.580  12.376
40372W        W 5357  38.472  16.791   2.830
40373W        W 5358  42.479  11.632  12.527
40374W        W 5359  36.522   0.186  11.896
40375W        W 5360  40.837  11.161   3.834
40376W        W 5361  29.577  20.090  13.400
40377W        W 5362  24.036  29.753   0.844
40378W        W 5363  43.304  42.221  14.518
40379W        W 5364   5.400  33.581   0.648
40380W        W 5365  37.933  44.561   4.854
40381W        W 5366   8.575  29.445   2.646
40382W        W 5367   9.299  36.498  12.097
40383W        W 5368   6.190  42.446   3.812
40384W        W 5369  38.554  12.075   0.778
40385W        W 5370  30.941  23.658  14.753
40386W        W 5371  38.399  12.643   4.626
40387W        W 5372  26.117  27.073  14.460
40388W        W 5373  18.432  11.369  12.056
40389W        W 5374   9.542  36.925  11.933
40390W        W 5375  38.382  11.792  14.327
40391W        W 5376   0.801  10.423   4.510
40392W        W 5377  13.264  16.134  13.098
40393W        W 5378  44.032  33.062   1.649
40394W        W 5379  10.303  29.138   0.751
40395W        W 5380   5.622  15.302   3.747
40396W        W 5381  33.862  34.091  13.320
40397W        W 5382  28.777  11.147   1.269
40398W        W 5383  10.267  29.127  11.170
40399W        W 5384   4.918  30.629   4.005
40400W        W 5385  34.861  36.428  13.918
40401W        W 5386  27.580  37.580   3.783
40402W        W 5387  29.210  44.363  14.395
40403W        W 5388  39.875  15.817   3.147
40404W        W 5389   2.078  38.633  11.923
40405W        W 5390  34.730  42.568   0.845
40406W        W 5391  26.200  34.845  13.991
40407W        W 5392  13.659  24.827   5.045
40408W        W 5393  21.453  15.650   2.356
40409W        W 5394  36.351   5.281   4.153
40410W        W 5395  19.237   0.294   1.387
40411W        W 5396  13.177  16.306  14.455
40412W        W 5397  32.490  16.863  14.327
40413W        W 5398  43.817   2.612   2.752
40414W        W 5399  31.500  42.546  13.424
40415W        W 5400  42.281  28.260  13.340
40416W        W 5401   6.739  23.080   2.899
40417W        W 5402  20.050  18.146   3.651
40418W        W 5403   7.785  33.844   4.372
40419W        W 5404  43.057  28.026   2.727
40420W        W 5405  32.403   8.342  12.471
40421W        W 5406  20.757  13.074  13.373
40422W        W 5407  32.052   0.348   4.792
40423W        W 5408  20.871  28.532  12.089
40424W        W 5409  35.177  35.898  12.140
40425W        W 5410  32.219  12.611  11.095
40426W        W 5411  28.158  25.591   2.729
40427W        W 5412  12.001  32.194   0.736
40428W        W 5413  42.631  39.472   1.732
40429W        W 5414   5.275  17.363  11.102
40430W        W 5415   3.454  38.357  14.998
40431W        W 5416  12.685  38.501  12.022
40432W        W 5417   2.934  25.051  12.983
40433W        W 5418  18.178   3.619  14.747
40434W        W 5419  42.029   9.899   4.249
40435W        W 5420  34.470  43.285  13.129
40436W        W 5421  18.850  40.793  14.324
40437W        W 5422  14.637  27.080   0.257
40438W        W 5423  38.080   0.210   3.868
40439W        W 5424   1.956  16.813  14.042
40440W        W 5425  28.452   1.700  12.331
40441W        W 5426  23.440  23.551   2.726
40442W        W 5427  24.067  30.546  13.771
40443W        W 5428  40.016   2.227  14.921
40444W        W 5429  19.230  23.067  11.503
40445W        W 5430  32.914   2.136  13.312
40446W        W 5431  14.759  44.962   3.596
40447W        W 5432   0.774  19.608  11.508
40448W        W 5433  43.915  31.928   1.038
40449W        W 5434  33.309  36.039  10.748
40450W        W 5435  35.450   6.128  13.871
40451W        W 5436   2.705   5.478   4.575
40452W        W 5437  37.859  31.724   1.408
40453W        W 5438  23.109  33.863   2.319
40454W        W 5439  32.086   3.867  10.768
40455W        W 5440  16.668   7.420   3.226
40456W        W 5441  33.593  37.135  13.380
40457W        W 5442  18.137  21.631  13.124
40458W        W 5443  26.613  44.886   3.737
40459W        W 5444   7.251   8.801   4.394
40460W        W 5445  29.622  37.018  14.776
40461W        W 5446   8.672   3.832  10.906
40462W        W 5447   6.397  37.849   2.210
40463W        W 5448  39.529  24.106   0.175
40464W        W 5449  39.340  29.078  13.643
40465W        W 5450  43.000  17.647   1.949
40466W        W 5451  28.154  18.647  10.615
40467W        W 5452  29.470  44.169   0.895
40468W        W 5453  21.655  28.253   0.365
40469W        W 5454   5.866  30.950   3.824
40470W        W 5455  35.625   3.968  11.282
40471W        W 5456  17.764   6.304  14.620
40472W        W 5457  44.227  29.717   4.568
40473W        W 5458  36.282  44.000   1.424
40474W        W 5459  37.094  31.591  14.816
40475W        W 5460  21.940   5.481   3.775
40476W        W 5461  34.910   7.258   2.819
40477W        W 5462  30.936  36.090   3.821
40478W        W 5463  23.187  18.607  10.546
40479W        W 5464  12.667  27.206  14.776
40480W        W 5465  44.615   6.655  13.113
40481W        W 5466  41.909  12.624   1.638
40482W        W 5467  26.045  21.832   1.956
40483W        W 5468  29.954   6.868   0.896
40484W        W 5469  27.602  17.617   0.719
40485W        W 5470  44.743  17.690   3.283
40486W        W 5471   4.746  30.598  14.071
40487W        W 5472  15.211  25.551  11.269
40488W        W 5473  12.733  19.639   0.754
40489W        W 5474  36.391  18.129  13.052
40490W        W 5475   6.319  37.323  12.690
40491W        W 5476   3.645  37.490   4.114
40492W        W 5477  18.552  18.510  14.969
40493W        W 5478  11.225  32.226  13.001
40494W        W 5479  19.061  18.106  13.404
40495W        W 5480  17.152  25.411  12.057
40496W        W 5481  23.440  13.268   3.560
40497W        W 5482  28.901  16.719   3.559
40498W        W 5483  17.092  39.440  11.632
40499W        W 5484  14.628  29.184  10.755
40500W        W 5485  35.368  28.972  13.954
40501W        W 5486  21.317  30.499  14.902
40502W        W 5487  41.641  16.299  13.867
40503W        W 5488  27.736   2.910   5.164
40504W        W 5489  20.615  30.133   0.192
40505W        W 5490  17.574   0.514   1.925
40506W        W 5491  10.160   6.221  12.349
40507W        W 5492   1.622  18.158  14.325
40508W        W 5493   8.244  13.141   1.996
40509W        W 5494  16.810  23.539  11.986
40510W        W 5495  29.541  44.092  12.398
40511W        W 5496  11.361  43.031  11.958
40512W        W 5497  12.320  10.349   3.667
40513W        W 5498  14.108   3.446   3.607
40514W        W 5499  22.822  37.379  11.575
40515W        W 5500  13.199   7.584   3.314
40516W        W 5501  41.931  29.358   4.586
40517W        W 5502  10.167  26.490  10.381
40518W        W 5503  43.555   8.127   0.277
40519W        W 5504   0.312  35.151   0.473
40520W        W 5505  35.429  33.077  11.253
40521W        W 5506  15.880  26.969   4.048
40522W        W 5507  29.999  28.222  14.626
40523W        W 5508  41.383  44.812   3.653
40524W        W 5509  35.537   5.425   1.240
40525W        W 5510  25.101  20.520   0.924
40526W        W 5511  17.487   8.085   3.751
40527W        W 5512  31.290   6.878   3.134
40528W        W 5513  17.091  19.223   0.313
40529W        W 5514   4.435  32.703  11.308
40530W        W 5515  29.956  11.168   4.637
40531W        W 5516  15.723  41.426  12.521
40532W        W 5517  44.946  33.617  13.867
40533W        W 5518  11.778  32.436   0.328
40534W        W 5519  12.894  26.229  14.006
40535W        W 5520  17.802  27.284  11.322
40536W        W 5521  34.008  41.877   1.617
40537W        W 5522  18.666  16.164  10.396
40538W        W 5523  21.626  41.377   1.105
40539W        W 5524  42.754  17.137  13.882
40540W        W 5525   7.710  28.154   0.873
40541W        W 5526  26.135   0.687   1.548
40542W        W 5527  13.628  35.604  11.454
40543W        W 5528  26.259  24.225  13.042
40544W        W 5529  33.610  44.795   2.211
40545W        W 5530  40.356  34.859  12.607
40546W        W 5531   5.583  21.210  12.624
40547W        W 5532  38.131  20.055  11.556
40548W        W 5533  29.626  37.887   1.282
40549W        W 5534  12.507  33.573  11.076
40550W        W 5535   7.688  27.576  12.452
40551W        W 5536   2.697  44.052  10.975
40552W        W 5537   8.697  41.118   2.720
40553W        W 5538  25.642   0.114   2.170
40554W        W 5539  29.942  12.120  10.902
40555W        W 5540  16.065  30.336   2.675
40556W        W 5541  22.693   4.447   1.449
40557W        W 5542  26.672  19.248   2.787
40558W        W 5543  11.597  18.288  11.927
40559W        W 5544  27.151  18.361   3.642
40560W        W 5545   8.659  37.446  14.902
40561W        W 5546   4.129  16.239  14.025
40562W        W 5547  38.495  12.052  14.810
40563W        W 5548   8.881  41.729   5.167
40564W        W 5549  37.036   4.305   3.086
40565W        W 5550  19.637  22.225  14.513
40566W        W 5551   0.302  41.632  11.088
40567W        W 5552  21.158  35.253  12.133
40568W        W 5553  24.282  21.521  11.710
40569W        W 5554  42.983  22.132  12.429
40570W        W 5555  35.786  18.985  12.050
40571W        W 5556  29.647  31.534  11.534
40572W        W 5557  33.352  12.079  10.686
40573W        W 5558  20.272  10.922   3.296
40574W        W 5559  16.713   9.196   2.636
40575W        W 5560  39.426  11.626   1.202
40576W        W 5561  44.183  15.818   1.897
40577W        W 5562   5.707   3.725   1.785
40578W        W 5563   9.683  33.934   0.905
40579W        W 5564  31.863  10.293   4.514
40580W        W 5565  29.108  10.628  12.242
40581W        W 5566  40.209   4.824  11.077
40582W        W 5567  37.575   5.904   2.297
40583W        W 5568   1.445  41.986   0.707
40584W        W 5569  21.638   0.239   3.237
40585W        W 5570   5.555  19.954   0.400
40586W        W 5571  35.545  40.971  11.286
40587W        W 5572   8.223   0.860   5.002
40588W        W 5573   8.735  15.621   0.904
40589W        W 5574  26.195   0.204   3.879
40590W        W 5575   0.247  21.660  12.589
40591W        W 5576   7.621  39.531   1.679
40592W        W 5577  28.517   7.542  11.667
40593W        W 5578  16.151  44.941   2.712
40594W        W 5579  34.303   1.399   1.604
40595W        W 5580  18.808  44.879   0.750
40596W        W 5581  19.584  31.426  12.325
40597W        W 5582   5.473   1.013   2.253
40598W        W 5583  26.507   4.199  14.452
40599W        W 5584   8.835   6.396  12.089
40600W        W 5585  19.598  27.954   1.688
40601W        W 5586  34.419  37.025  13.119
40602W        W 5587  19.732  18.983   1.696
40603W        W 5588  15.363  21.605  14.113
40604W        W 5589  14.538  39.254  12.418
40605W        W 5590  12.921  10.707   1.404
40606W        W 5591  24.895   2.768  13.967
40607W        W 5592  39.309  20.054  12.062
40608W        W 5593  39.103   7.948  12.050
40609W        W 5594  14.952   4.820  10.325
40610W        W 5595  11.261  44.386  10.453
40611W        W 5596  26.968   4.332   5.103
40612W        W 5597   1.762  17.540   1.648
40613W        W 5598  21.275  29.640  14.686
40614W        W 5599  40.426  39.477   0.574
40615W        W 5600  14.230  11.523   0.347
40616W        W 5601  19.714  23.195  14.121
40617W        W 5602  32.288  10.289   3.588
40618W        W 5603  26.553  40.275   3.205
40619W        W 5604  21.696  12.672   4.571
40620W        W 5605  23.892  30.413  10.043
40621W        W 5606  23.093  30.405  11.193
40622W        W 5607   4.016  34.499  11.441
40623W        W 5608  43.864   9.715  10.725
40624W        W 5609  32.743   1.885   1.802
40625W        W 5610  44.523   7.408   2.572
40626W        W 5611   1.483  20.522   4.085
40627W        W 5612  22.793  33.528   3.226
40628W        W 5613  34.513   3.720  13.093
40629W        W 5614   5.276  29.441  13.368
40630W        W 5615  40.068  29.876   0.737
40631W        W 5616  23.627  22.930  12.873
40632W        W 5617   6.166   2.043   3.227
40633W        W 5618  10.202   6.664   3.264
40634W        W 5619   4.787  38.877  10.139
40635W        W 5620  37.925  39.539  14.299
40636W        W 5621  21.591  19.515   1.689
40637W        W 5622  12.147  16.859   3.114
40638W        W 5623  39.969  16.871   1.270
40639W        W 5624   6.559   0.499   2.326
40640W        W 5625  44.795  25.394  14.916
40641W        W 5626   7.417  24.838  10.933
40642W        W 5627  25.812   7.189  11.103
40643W        W 5628   5.428  20.324  14.485
40644W        W 5629  20.985  37.437  13.072
40645W        W 5630  23.084   4.857  13.888
40646W        W 5631  28.469  28.060  14.600
40647W        W 5632   9.943  40.361   2.745
40648W        W 5633  11.814  18.178  14.473
40649W        W 5634  10.347   2.704   1.750
40650W        W 5635  37.622  20.736  13.979
40651W        W 5636  16.612  27.905   3.687
40652W        W 5637  29.582   9.996  10.755
40653W        W 5638  21.145  14.638  13.988
40654W        W 5639  15.261  27.435   0.960
40655W        W 5640  19.046  11.414  11.628
40656W        W 5641  38.519  15.470  12.722
40657W        W 5642  18.900  15.638   2.535
40658W        W 5643  30.960  42.736  11.744
40659W        W 5644  13.950  14.170   0.548
40660W        W 5645   9.359  37.278  14.028
40661W        W 5646  19.277  14.294  12.548
40662W        W 5647  40.395  27.501  11.649
40663W        W 5648  12.379   5.493  12.099
40664W        W 5649   4.383  23.926   4.557
40665W        W 5650  20.569  35.361   2.200
40666W        W 5651  12.272  11.046  12.063
40667W        W 5652  10.410  34.456  14.383
40668W        W 5653   4.552  27.134   4.240
40669W        W 5654   4.423  43.320   0.230
40670W        W 5655  38.003  16.603  10.801
40671W        W 5656   0.747   6.461  13.129
40672W        W 5657  10.321  28.283  10.743
40673W        W 5658  34.566  14.104   1.917
40674W        W 5659   7.764  22.953   1.861
40675W        W 5660   1.895  32.791  13.593
40676W        W 5661   8.823  25.173   4.148
40677W        W 5662  31.433   2.245  13.208
40678W        W 5663  35.188  23.428  14.250
40679W        W 5664  44.791  33.099   0.335
40680W        W 5665  36.066   0.567  11.250
40681W        W 5666  40.120  17.611  10.068
40682W        W 5667  18.474  40.529  12.958
40683W        W 5668  41.015   2.740  14.846
40684W        W 5669  30.378   8.458   0.274
40685W        W 5670  27.110  44.877  12.055
40686W        W 5671  27.903  25.808  10.645
40687W        W 5672   3.841  40.245  12.498
40688W        W 5673   8.388  25.491   4.203
40689W        W 5674  10.927  26.804   0.776
40690W        W 5675  26.460  33.710   3.354
40691W        W 5676  24.228  26.217   4.048
40692W        W 5677  41.043  18.675   1.846
40693W        W 5678   1.531  11.917   2.835
40694W        W 5679   8.296  19.398  13.830
40695W        W 5680   6.314  28.201   2.752
40696W        W 5681  26.646  37.368   2.225
40697W        W 5682  20.518   2.234  14.639
40698W        W 5683   2.804  21.059   3.797
40699W        W 5684  30.224  21.060  11.666
40700W        W 5685  25.146   2.364  13.381
40701W        W 5686  18.595  22.686   3.615
40702W        W 5687  14.722   3.807   2.728
40703W        W 5688  10.630  19.781   1.887
40704W        W 5689   0.690  15.650   3.423
40705W        W 5690  43.140  23.296   1.364
40706W        W 5691  20.280   7.571   0.723
40707W        W 5692  13.844  33.983   4.843
40708W        W 5693   7.710  12.801   2.648
40709W        W 5694   3.866  27.644  11.372
40710W        W 5695  43.035   3.289   4.354
40711W        W 5696  41.453  24.077   2.501
40712W        W 5697  43.123  19.653   3.269
40713W        W 5698  30.112  16.276  11.137
40714W        W 5699  35.363  10.597   4.293
40715W        W 5700   9.613  15.104   2.261
40716W        W 5701  10.655  19.226  11.280
40717W        W 5702  10.299  42.854   1.327
40718W        W 5703  20.132   7.538  11.957
40719W        W 5704  37.931  35.517   0.375
40720W        W 5705   3.879  33.766   2.245
40721W        W 5706  24.552   9.161   1.028
40722W        W 5707   2.264  35.781  13.598
40723W        W 5708  25.085  25.614   3.320
40724W        W 5709   7.162  18.904   1.082
40725W        W 5710  40.045   1.449  11.485
40726W        W 5711  12.199  40.522   1.019
40727W        W 5712  31.209  35.703  12.887
40728W        W 5713   8.972  32.939   1.153
40729W        W 5714  12.295  36.588   3.394
40730W        W 5715  30.312  27.729  13.647
40731W        W 5716   6.293  18.481   1.222
40732W        W 5717  10.308  44.778  14.819
40733W        W 5718  40.803  32.636   1.007
40734W        W 5719   0.451   3.294   4.364
40735W        W 5720  41.795  11.882  11.952
40736W        W 5721   3.441   0.321  11.982
40737W        W 5722  33.356  31.902   2.268
40738W        W 5723  36.441  27.186  12.282
40739W        W 5724  29.429  20.425   1.220
40740W        W 5725  21.791   9.625   0.882
40741W        W 5726  33.407  12.205   3.357
40742W        W 5727   0.265   9.705  14.266
40743W        W 5728  11.769   5.638  13.568
40744W        W 5729  32.038  33.457   4.557
40745W        W 5730  15.296  31.465   3.340
40746W        W 5731   1.072  22.174   3.756
40747W        W 5732  44.218   8.738   2.599
40748W        W 5733  11.621  35.983  14.820
40749W        W 5734  29.447   8.679   0.808
40750W        W 5735  25.938  31.579   2.400
40751W        W 5736  35.085   8.106  12.183
40752W        W 5737   8.870   6.923   0.718
40753W        W 5738  39.397   2.491   3.344
40754W        W 5739  23.456   1.156  13.825
40755W        W 5740  31.131  38.373  13.773
40756W        W 5741  20.665  33.703   3.153
40757W        W 5742  38.865  31.771   4.156
40758W        W 5743  16.405  35.044   0.210
40759W        W 5744  31.583  24.695   1.741
40760W        W 5745  30.857   7.169   3.237
40761W        W 5746   8.245  12.567  11.075
40762W        W 5747   3.175  31.688   0.462
40763W        W 5748   5.310  33.027   2.447
40764W        W 5749  44.482  12.195  12.242
40765W        W 5750   2.367   5.396  14.367
40766W        W 5751   0.586  17.825   4.573
40767W        W 5752  34.212   1.329   0.761
40768W        W 5753  14.189  26.423  11.455
40769W        W 5754   8.329  13.063  13.874
40770W        W 5755  17.535  31.068   1.636
40771W        W 5756  43.981  25.065  14.907
40772W        W 5757   5.427  36.353   2.353
40773W        W 5758  12.309  41.799   0.376
40774W        W 5759  40.290  44.804  12.704
40775W        W 5760   9.114  12.841   0.419
40776W        W 5761  25.141  33.633   4.414
40777W        W 5762  26.779  43.867   1.347
40778W        W 5763  41.382   9.505   1.674
40779W        W 5764  18.329  16.017   4.097
40780W        W 5765  29.368  41.151  13.459
40781W        W 5766  13.428  21.797  12.482
40782W        W 5767  44.658   8.171   0.632
40783W        W 5768  43.822  35.932   2.175
40784W        W 5769   5.381  18.460  12.084
40785W        W 5770  23.844  44.953   3.506
40786W        W 5771  20.301  28.208   4.055
40787W        W 5772  35.149  21.817  12.079
40788W        W 5773  43.335  13.127  12.093
40789W        W 5774  39.056  33.963   2.135
40790W        W 5775  41.417  12.111   2.359
40791W        W 5776  42.993   4.559  11.165
40792W        W 5777   7.938  21.718  12.289
40793W        W 5778  42.372  25.146  12.487
40794W        W 5779   4.060  22.112   2.094
40795W        W 5780  39.624   3.790   2.722
40796W        W 5781  32.402  17.829   0.472
40797W        W 5782  24.540  35.092   2.233
40798W        W 5783  44.985  41.199  12.903
40799W        W 5784  24.655  10.784   0.827
40800W        W 5785  32.481  33.674  13.963
40801W        W 5786   1.824   1.294   3.296
40802W        W 5787  29.538  19.596   1.736
40803W        W 5788  30.499  34.499  14.836
40804W        W 5789  42.845  34.112   0.328
40805W        W 5790   8.552  24.497   1.292
40806W        W 5791   3.355  39.315  14.466
40807W        W 5792  43.077   9.637  11.970
40808W        W 5793  11.374  27.010   2.349
40809W        W 5794  10.926   1.045   0.293
40810W        W 5795   4.362  16.769  11.353
40811W        W 5796  32.125  12.850   5.020
40812W        W 5797  12.218  27.454  12.443
40813W        W 5798  35.662  39.400  11.368
40814W        W 5799  26.382  29.307  11.944
40815W        W 5800  28.056  24.933  13.208
40816W        W 5801  20.032  18.323   1.604
40817W        W 5802  42.987  36.254  13.084
40818W        W 5803  11.802  37.670  11.170
40819W        W 5804  38.450  30.439  13.102
40820W        W 5805  17.907  33.217   1.751
40821W        W 5806  32.720  35.377  13.064
40822W        W 5807  29.480  17.853   1.953
40823W        W 5808   8.238   5.120   1.140
40824W        W 5809  19.841   8.285   4.621
40825W        W 5810   0.215  29.674  11.654
40826W        W 5811  12.336  33.082  12.987
40827W        W 5812   0.040  18.500  11.736
40828W        W 5813  18.079   8.321   3.525
40829W        W 5814  31.500   9.392  10.872
40830W        W 5815  24.193  42.476   2.438
40831W        W 5816  12.722  36.260   4.283
40832W        W 5817  24.242   8.195  11.993
40833W        W 5818  39.997  42.253   0.410
40834W        W 5819  23.290  21.669  11.555
40835W        W 5820   8.906  22.970   2.588
40836W        W 5821  42.108  21.250  12.914
40837W        W 5822  11.176  37.342   3.186
40838W        W 5823   0.352   0.011   2.514
40839W        W 5824   3.282   1.264   1.760
40840W        W 5825  33.125  18.575  11.123
40841W        W 5826  34.935  12.407   1.500
40842W        W 5827  15.782  13.810   2.212
40843W        W 5828  18.536  36.026   1.744
40844W        W 5829  44.057  24.080   4.756
40845W        W 5830   5.314  22.587   1.694
40846W        W 5831   5.687   1.086   3.438
40847W        W 5832  29.948  23.419  12.473
40848W        W 5833  29.208  21.718  13.144
40849W        W 5834  24.289  18.622  14.811
40850W        W 5835   0.987  34.568   4.771
40851W        W 5836  22.457  10.713  14.346
40852W        W 5837  32.049  28.995   0.833
40853W        W 5838  31.571  41.506   3.234
40854W        W 5839  21.949  32.911   4.689
40855W        W 5840  41.296  44.264  13.878
40856W        W 5841  34.771  33.982   4.340
40857W        W 5842  34.644  33.342   0.203
40858W        W 5843  30.331  36.010  14.905
40859W        W 5844  17.515   0.350   4.803
40860W        W 5845  16.591  36.046  10.977
40861W        W 5846   2.447  12.411  11.650
40862W        W 5847   2.767   2.489   0.842
40863W        W 5848   2.754  19.616   4.171
40864W        W 5849  12.505  32.539  12.999
40865W        W 5850  29.586   6.198  14.800
40866W        W 5851  20.859  37.489  11.141
40867W        W 5852   7.864  36.073  13.543
40868W        W 5853  29.120  27.935   2.640
40869W        W 5854  43.125   6.869  11.051
40870W        W 5855  11.040   6.657   0.247
40871W        W 5856  15.956  36.490   3.149
40872W        W 5857  13.642   7.793  14.038
40873W        W 5858  37.434  31.526   4.949
40874W        W 5859  26.215  22.655   2.285
40875W        W 5860   6.644  22.077   3.101
40876W        W 5861   8.806  40.522  10.725
40877W        W 5862   3.968  30.170  11.608
40878W        W 5863  40.053  23.150   2.823
40879W        W 5864   8.961   9.663  13.984
40880W        W 5865  22.390  14.773  12.058
40881W        W 5866  16.472  35.995  11.588
40882W        W 5867   5.402   3.820  13.566
40883W        W 5868  22.055  10.328   0.565
40884W        W 5869  31.968  30.061   0.884
40885W        W 5870   4.970  21.647  14.199
40886W        W 5871  15.485  31.569  13.162
40887W        W 5872  16.335   3.639  10.452
40888W        W 5873  30.508   3.757   4.603
40889W        W 5874   7.705  20.327   2.355
40890W        W 5875  31.650  36.952   4.354
40891W        W 5876  31.840  12.363   4.177
40892W        W 5877  29.936  22.520  14.399
40893W        W 5878  22.972  29.455   2.350
40894W        W 5879  20.846   2.220  14.211
40895W        W 5880  10.712  21.048  10.885
40896W        W 5881  21.301  43.286  14.843
40897W        W 5882   9.210  18.142  14.673
40898W        W 5883  27.968  41.549   0.012
40899W        W 5884  21.020   7.255  11.271
40900W        W 5885  26.471  34.811  14.841
40901W        W 5886   9.895   0.801   3.226
40902W        W 5887  44.738  25.531  13.749
40903W        W 5888  36.917  10.354   2.220
40904W        W 5889  35.004  11.200  12.423
40905W        W 5890  27.661  16.451   0.914
40906W        W 5891  26.787   4.498  11.148
40907W        W 5892  27.151  42.260   1.733
40908W        W 5893  41.477  31.874   0.868
40909W        W 5894   1.480  18.547  11.635
40910W        W 5895  20.668  15.360  11.589
40911W        W 5896   1.150  24.773  11.178
40912W        W 5897  12.602  27.553  10.675
40913W        W 5898  44.122  44.047   4.219
40914W        W 5899  25.016  12.651   0.313
40915W        W 5900  28.428  22.500  10.702
40916W        W 5901  38.288  19.203   3.254
40917W        W 5902  41.996  30.229   0.421
40918W        W 5903  33.553  27.698   2.200
40919W        W 5904  17.720  24.728   5.045
40920W        W 5905  38.351  41.439   2.895
40921W        W 5906  35.713   2.673  10.875
40922W        W 5907  42.488  31.426  12.588
40923W        W 5908   5.334  40.285  11.888
40924W        W 5909  40.036  23.430  12.004
40925W        W 5910  17.060  20.780  14.445
40926W        W 5911  20.681   3.966  11.600
40927W        W 5912  16.349   9.671  12.643
40928W        W 5913  22.016  29.992   1.767
40929W        W 5914  41.794  37.891   2.193
40930W        W 5915   3.817  32.394   3.615
40931W        W 5916  10.254  26.955  10.622
40932W        W 5917  16.108  18.055   0.405
40933W        W 5918  24.502  38.516  10.716
40934W        W 5919  39.305   1.033   3.176
40935W        W 5920  21.121  31.968   4.993
40936W        W 5921  18.169  28.090   0.272
40937W        W 5922  17.819  44.749   1.963
40938W        W 5923  30.084   0.673   3.765
40939W        W 5924  30.440   8.275  14.767
40940W        W 5925   5.189  33.496   3.162
40941W        W 5926   9.096  14.588   1.751
40942W        W 5927  29.045   2.468  14.418
40943W        W 5928  37.580   6.418  11.808
40944W        W 5929  26.611  40.538   2.750
40945W        W 5930   4.229  35.490   4.253
40946W        W 5931  29.375  42.564  13.318
40947W        W 5932   3.884   9.054   3.245
40948W        W 5933   5.264  42.955   3.140
40949W        W 5934   5.274  13.703   2.631
40950W        W 5935   5.374   2.094   3.599
40951W        W 5936  24.083  44.903   0.276
40952W        W 5937  32.136  39.508  11.604
40953W        W 5938   9.030   8.351   0.542
40954W        W 5939  19.934   4.227   3.830
40955W        W 5940  14.689   8.216  11.370
40956W        W 5941   0.246  14.059   2.424
40957W        W 5942  31.857   7.777   2.368
40958W        W 5943  29.069  39.745  14.531
40959W        W 5944   8.675  35.459  13.310
40960W        W 5945   9.867  41.474  12.866
40961W        W 5946   8.423  16.328   4.446
40962W        W 5947  32.286  39.871   3.254
40963W        W 5948  18.596  38.728   3.416
40964W        W 5949   4.450  33.117  13.901
40965W        W 5950   8.313  32.838  11.887
40966W        W 5951   9.599   5.973  14.768
40967W        W 5952  11.298  24.261  11.669
40968W        W 5953   8.408  43.805  10.600
40969W        W 5954  12.600  17.098  12.447
40970W        W 5955   3.079  26.449   3.469
40971W        W 5956   1.571  16.014  13.028
40972W        W 5957   2.774  18.543   4.174
40973W        W 5958  35.379  36.482  13.801
40974W        W 5959  14.083  13.557  12.529
40975W        W 5960  33.842   1.391   0.403
40976W        W 5961   8.292   7.906  12.061
40977W        W 5962  10.583  38.805  11.985
40978W        W 5963   1.486  14.703  14.325
40979W        W 5964   8.243  19.956  11.647
40980W        W 5965  39.789  24.242  10.561
40981W        W 5966  43.025  34.100  13.802
40982W        W 5967  16.996   7.755  13.924
40983W        W 5968  39.250  15.198   4.428
40984W        W 5969   8.424  15.890   2.434
40985W        W 5970   5.732  13.691   0.820
40986W        W 5971  11.068   3.344   1.300
40987W        W 5972  23.588   8.820  10.772
40988W        W 5973  15.917  19.877  10.205
40989W        W 5974   7.708   7.847   0.732
40990W        W 5975  28.051  28.672  12.486
40991W        W 5976  43.804  11.655   4.535
40992W        W 5977  41.323  31.961   0.384
40993W        W 5978   4.947  13.663   0.385
40994W        W 5979   0.132  34.606  11.973
40995W        W 5980  18.872  35.054   0.592
40996W        W 5981  13.595  32.416   0.761
40997W        W 5982  32.653  15.246   0.273
40998W        W 5983  23.579  32.214  14.873
40999W        W 5984  42.072  17.016  14.952
41000W        W 5985  14.320  25.233  13.951
41001W        W 5986  42.918  24.703   3.657
41002W        W 5987  42.005  27.889  12.986
41003W        W 5988  32.358   2.454   3.572
41004W        W 5989  42.052  27.549   3.608
41005W        W 5990  26.208  31.964   4.185
41006W        W 5991  38.232  23.917   3.349
41007W        W 5992  12.293  11.757   1.401
41008W        W 5993  39.033   9.067  10.281
41009W        W 5994  24.272   9.451   1.399
41010W        W 5995  29.599   5.635   0.892
41011W        W 5996   3.475  42.225   3.154
41012W        W 5997   1.755  13.037   1.413
41013W        W 5998  16.190   5.753   3.265
41014W        W 5999  40.249  13.696  12.027
41015W        W 6000  39.482  39.606  13.474
41016W        W 6001  39.391  43.898   0.997
41017W        W 6002  18.755   6.419   1.988
41018W        W 6003  34.794  26.580   2.866
41019W        W 6004  29.120  25.724  12.388
41020W        W 6005  17.525   9.901   1.274
41021W        W 6006  12.269  40.333  14.484
41022W        W 6007  23.518  44.269  11.644
41023W        W 6008  41.390  31.052   0.474
41024W        W 6009  19.735   8.309  10.875
41025W        W 6010   2.031  22.272   2.894
41026W        W 6011  43.183  22.669  12.811
41027W        W 6012  31.070   1.896  10.851
41028W        W 6013  31.846  25.993   1.995
41029W        W 6014  35.881  34.903   1.172
41030W        W 6015  35.523  18.612   2.888
41031W        W 6016  39.856  37.791  13.001
41032W        W 6017  27.192   1.253  14.106
41033W        W 6018  31.458  26.381  13.404
41034W        W 6019   1.487  12.793  12.591
41035W        W 6020  32.079  28.609   4.742
41036W        W 6021  12.831   9.174   1.812
41037W        W 6022   2.105   7.417   3.675
41038W        W 6023  20.611  37.928   3.238
41039W        W 6024  15.163  19.144   4.811
41040W        W 6025   0.934  36.009   1.283
41041W        W 6026  37.478  17.201  14.473
41042W        W 6027  28.955  43.298   4.546
41043W        W 6028   5.688  20.560  14.905
41044W        W 6029  33.625  11.153   2.716
41045W        W 6030  21.701  33.019  14.084
41046W        W 6031  25.185   4.789   2.653
41047W        W 6032  18.601  19.209  13.284
41048W        W 6033   7.794  10.910   3.888
41049W        W 6034   9.964   6.410   5.027
41050W        W 6035  37.051  20.840  13.933
41051W        W 6036  22.752  24.407   1.989
41052W        W 6037  21.120   7.186  11.806
41053W        W 6038  38.917   0.343  14.901
41054W        W 6039  40.331  41.745   1.143
41055W        W 6040  15.978   3.663   9.674
41056W        W 6041  20.586   7.024   1.470
41057W        W 6042   6.610  42.875   0.886
41058W        W 6043  19.136   4.214   3.136
41059W        W 6044  13.097  29.131  13.349
41060W        W 6045   9.005   6.467   9.769
41061W        W 6046  38.868  18.309  10.135
41062W        W 6047  28.145  27.602  11.099
41063W        W 6048  20.791  38.405   3.141
41064W        W 6049   1.297  18.493   4.553
41065W        W 6050  11.836   9.564   0.390
41066W        W 6051   5.175   7.671   0.403
41067W        W 6052  26.000  21.670  11.577
41068W        W 6053   0.831  34.283   0.691
41069W        W 6054  31.171  12.021  11.473
41070W        W 6055  30.323  30.102  11.626
41071W        W 6056  16.841  21.997  13.815
41072W        W 6057  19.777   9.054  13.426
41073W        W 6058   7.792  25.952  11.645
41074W        W 6059   6.068  19.818   0.410
41075W        W 6060  25.634  23.292   0.406
41076W        W 6061   2.250  28.012  11.076
41077W        W 6062  23.209  28.664   4.235
41078W        W 6063  26.944  18.003  10.922
41079W        W 6064  40.858  27.533   5.652
41080W        W 6065  37.540  23.047   4.075
41081W        W 6066  34.828  16.268  11.125
41082W        W 6067  20.884  15.312  12.893
41083W        W 6068  31.464  13.207   4.093
41084W        W 6069  37.738   1.000   3.587
41085W        W 6070  24.688  22.851   0.670
41086W        W 6071   6.945  26.879   4.022
41087W        W 6072  41.828   0.050   3.308
41088W        W 6073   2.575   5.008  13.991
41089W        W 6074  26.098  26.133   4.271
41090W        W 6075  33.233   2.395  14.090
41091W        W 6076  36.354  33.236  10.976
41092W        W 6077   5.727  30.222   2.039
41093W        W 6078   8.362  44.929   0.375
41094W        W 6079  37.913   9.816  14.452
41095W        W 6080  11.829  23.466  13.958
41096W        W 6081  18.539  34.539  13.068
41097W        W 6082  27.725  16.231   0.121
41098W        W 6083  15.751  13.289   4.349
41099W        W 6084  17.650  32.574  11.180
41100W        W 6085   6.373  38.346  12.975
41101W        W 6086  19.717  39.987  11.182
41102W        W 6087  26.076  28.414  14.584
41103W        W 6088  41.402   9.923   0.232
41104W        W 6089   2.365  39.410   3.631
41105W        W 6090  34.585  17.091   0.422
41106W        W 6091  20.995   1.314   1.239
41107W        W 6092   6.287  38.106   0.808
41108W        W 6093  27.595  20.608   1.362
41109W        W 6094   0.049  39.522   0.016
41110W        W 6095  12.122  36.903  11.209
41111W        W 6096  32.608  24.523   2.605
41112W        W 6097   6.326  20.153  14.823
41113W        W 6098  28.652  37.435  13.588
41114W        W 6099  19.680  34.946   4.273
41115W        W 6100  17.039  25.444   0.222
41116W        W 6101  24.084  21.088  12.420
41117W        W 6102  24.508  29.167   2.295
41118W        W 6103  38.797   7.244   0.708
41119W        W 6104  12.213  18.628  11.903
41120W        W 6105  14.750  22.552   3.781
41121W        W 6106  39.879   4.198   1.199
41122W        W 6107  35.354  16.545  11.261
41123W        W 6108   1.660   7.058  12.433
41124W        W 6109  37.916  15.716  12.129
41125W        W 6110  13.506   4.880   0.837
41126W        W 6111   0.003  36.095   5.051
41127W        W 6112  18.535  27.477   3.820
41128W        W 6113  12.722   2.717   0.034
41129W        W 6114  29.936  22.685   4.511
41130W        W 6115  16.497  40.467   4.100
41131W        W 6116  38.951  36.818  13.428
41132W        W 6117  24.504  42.090  12.445
41133W        W 6118  20.515   8.100  12.462
41134W        W 6119  36.130  18.271   3.464
41135W        W 6120  10.039  28.820   0.383
41136W        W 6121   6.135  38.080  11.576
41137W        W 6122  33.359  22.272   0.682
41138W        W 6123  44.758  33.397   2.698
41139W        W 6124  34.088  38.149   0.370
41140W        W 6125   3.817  21.213   0.478
41141W        W 6126  16.411  18.602   1.771
41142W        W 6127  36.964  42.552   5.157
41143W        W 6128  38.226  22.754  12.914
41144W        W 6129   5.489   4.115   4.466
41145W        W 6130  15.327  16.417   0.391
41146W        W 6131  41.430  13.099  14.867
41147W        W 6132  40.287  39.528  13.847
41148W        W 6133  10.146  23.544  12.592
41149W        W 6134   5.356  21.742   0.915
41150W        W 6135  14.746  21.516   0.778
41151W        W 6136   0.436   2.287   0.170
41152W        W 6137   8.206  36.103   3.262
41153W        W 6138  20.063  35.264  13.479
41154W        W 6139  32.670  40.958  14.728
41155W        W 6140  44.732  20.188   4.223
41156W        W 6141  42.581  33.147  11.235
41157W        W 6142  38.109  21.141   3.766
41158W        W 6143   0.419  41.219  14.859
41159W        W 6144   5.498  25.475  13.492
41160W        W 6145  15.560   4.448   3.251
41161W        W 6146  34.933  18.244  14.975
41162W        W 6147  33.165  19.718   2.798
41163W        W 6148   2.104  30.162  11.643
41164W        W 6149   4.491  22.248   1.837
41165W        W 6150  17.249  35.966   3.243
41166W        W 6151   9.311  30.421  14.376
41167W        W 6152  30.924  30.005  10.811
41168W        W 6153  36.876  10.131  11.621
41169W        W 6154   8.442  18.874   3.300
41170W        W 6155  27.269  17.141  10.763
41171W        W 6156  43.555   9.789   4.090
41172W        W 6157  37.322  13.737   2.760
41173W        W 6158  19.194  17.100  14.368
41174W        W 6159  26.160   6.345  11.564
41175W        W 6160  39.164  22.200   2.516
41176W        W 6161  27.892  19.875   1.823
41177W        W 6162  17.786  12.038   2.070
41178W        W 6163  34.914  18.710   5.032
41179W        W 6164  18.847  39.434   1.178
41180W        W 6165  43.061   0.859   3.612
41181W        W 6166  10.147  22.266  13.969
41182W        W 6167  20.553  35.895   4.923
41183W        W 6168  35.641   6.761   0.791
41184W        W 6169   9.003  15.712   0.463
41185W        W 6170  23.017   9.516  11.657
41186W        W 6171  35.408  26.720   0.824
41187W        W 6172  14.609  25.285   3.687
41188W        W 6173  22.240  40.783   2.202
41189W        W 6174  25.108  35.120  10.555
41190W        W 6175  30.336  30.156  14.400
41191W        W 6176  24.003  41.917   1.162
41192W        W 6177  15.089  27.739   0.049
41193W        W 6178  39.466  37.437   4.685
41194W        W 6179  39.995  26.346   0.743
41195W        W 6180  35.328  38.272  12.422
41196W        W 6181  41.852  42.100  14.004
41197W        W 6182  33.878  40.431   0.003
41198W        W 6183  14.772  23.282  12.642
41199W        W 6184   2.390  12.179   1.665
41200W        W 6185   0.858  22.520  14.058
41201W        W 6186  11.071  44.832  11.221
41202W        W 6187   4.540  41.922   2.976
41203W        W 6188  41.356  22.748   4.945
41204W        W 6189  11.193  44.367   3.748
41205W        W 6190  27.515   2.464  10.229
41206W        W 6191  28.849  29.100  14.665
41207W        W 6192   9.918   0.031  14.315
41208W        W 6193   2.418  37.101   4.736
41209W        W 6194  41.367   5.473  10.764
41210W        W 6195   9.139   5.695  14.862
41211W        W 6196  40.880  20.203   0.835
41212W        W 6197   0.475  17.837   0.339
41213W        W 6198  29.519  37.785  11.949
41214W        W 6199  11.776  24.444   2.612
41215W        W 6200   3.224   9.167   4.595
41216W        W 6201  18.997  13.982  14.003
41217W        W 6202   3.966   1.277   3.120
41218W        W 6203  30.093   2.024   3.530
41219W        W 6204  31.551  33.602  12.577
41220W        W 6205  20.530  27.256   2.421
41221W        W 6206  17.694  26.873  12.697
41222W        W 6207   1.374  44.530  12.992
41223W        W 6208  28.067  27.442   0.948
41224W        W 6209   7.397   2.431  14.566
41225W        W 6210  27.302  25.832   3.624
41226W        W 6211  11.866  44.061   2.316
41227W        W 6212   8.350  27.453   1.810
41228W        W 6213  28.579  41.739   2.203
41229W        W 6214   1.307  21.234  14.004
41230W        W 6215  34.065  42.771   3.165
41231W        W 6216  30.960  29.468  11.596
41232W        W 6217  16.309  32.992   2.586
41233W        W 6218   6.435  28.451  12.955
41234W        W 6219  16.318  27.490   3.548
41235W        W 6220   9.910  24.438  14.502
41236W        W 6221  37.902  38.856   0.023
41237W        W 6222  10.746   8.338  12.635
41238W        W 6223  17.808  31.014   2.658
41239W        W 6224  17.111  24.585   2.246
41240W        W 6225   0.791  42.727  10.337
41241W        W 6226  32.227   1.711   2.696
41242W        W 6227   7.228  21.996   1.342
41243W        W 6228   7.312   7.745  14.542
41244W        W 6229   5.488  26.430   1.213
41245W        W 6230   5.644  14.220   0.890
41246W        W 6231   4.103  17.102   4.931
41247W        W 6232   8.333  44.466   4.620
41248W        W 6233  44.299  17.699   1.693
41249W        W 6234  37.379  31.946  13.646
41250W        W 6235  32.753   6.800   3.124
41251W        W 6236  32.423  24.588   2.132
41252W        W 6237  21.030  44.543  14.353
41253W        W 6238  27.391  11.400   2.610
41254W        W 6239   6.174  23.223   4.160
41255W        W 6240  18.291  21.280   2.819
41256W        W 6241  26.459  23.741   3.601
41257W        W 6242  27.722  37.542   0.943
41258W        W 6243  36.405  14.316  14.667
41259W        W 6244   9.137  22.978  14.653
41260W        W 6245  32.109  10.933   4.079
41261W        W 6246  37.849  28.534  13.963
41262W        W 6247  40.734  14.878  12.897
41263W        W 6248   7.990  20.285  13.636
41264W        W 6249  13.561  44.266  13.351
41265W        W 6250  38.454   7.170   0.337
41266W        W 6251  32.862  14.793   1.031
41267W        W 6252  29.585   5.313   4.989
41268W        W 6253   2.923   2.318  13.074
41269W        W 6254  30.530  14.541  13.435
41270W        W 6255  18.256  36.444   1.366
41271W        W 6256   9.429  18.308  12.500
41272W        W 6257  27.887  10.344   5.147
41273W        W 6258  35.521   4.593   1.910
41274W        W 6259  13.056  24.070   3.742
41275W        W 6260  10.648  44.808  13.144
41276W        W 6261  21.276  40.492  13.478
41277W        W 6262   7.620   3.374  10.949
41278W        W 6263   6.288  10.355   4.553
41279W        W 6264  33.312   5.699  14.174
41280W        W 6265  24.115  22.486  12.011
41281W        W 6266  15.665  44.705  13.438
41282W        W 6267  22.507   4.359  12.558
41283W        W 6268  32.053  28.442  14.122
41284W        W 6269   0.757  23.051  10.726
41285W        W 6270  20.177  17.779   0.752
41286W        W 6271  11.378  25.223  13.663
41287W        W 6272   9.689  35.808   2.067
41288W        W 6273   8.728  16.018   4.145
41289W        W 6274  22.295  42.921   0.833
41290W        W 6275  12.112  30.764   0.016
41291W        W 6276  39.032  36.067  13.866
41292W        W 6277  30.409   7.417   3.291
41293W        W 6278  19.622  21.585  13.032
41294W        W 6279   3.428   5.978  11.773
41295W        W 6280  27.010  12.364  10.791
41296W        W 6281  19.658  43.373  14.394
41297W        W 6282  29.562   9.865  13.777
41298W        W 6283  29.138  24.640   3.557
41299W        W 6284  40.456  10.809   3.894
41300W        W 6285  30.574   8.872  13.970
41301W        W 6286  43.442  22.301  11.960
41302W        W 6287  14.813  43.532  11.477
41303W        W 6288  16.159  38.930  13.074
41304W        W 6289  30.452   1.472  10.177
41305W        W 6290   6.218  22.753  12.929
41306W        W 6291  32.649  16.114  13.532
41307W        W 6292  27.579  38.069   4.095
41308W        W 6293  33.857   9.373   1.877
41309W        W 6294   0.355  35.617   0.214
41310W        W 6295  23.746  28.351  14.405
41311W        W 6296  15.255  30.735  11.065
41312W        W 6297  30.109  42.928   3.403
41313W        W 6298  17.993  30.672   3.334
41314W        W 6299   7.636  20.569  14.854
41315W        W 6300  44.435  27.154   9.737
41316W        W 6301  12.673  20.004   2.379
41317W        W 6302  29.727   9.205  11.954
41318W        W 6303  18.211  20.487  14.455
41319W        W 6304   3.381   4.300   0.368
41320W        W 6305   9.283  16.858   2.324
41321W        W 6306  10.268  19.798   2.289
41322W        W 6307  40.029  25.605  13.070
41323W        W 6308  44.918   1.692  14.083
41324W        W 6309  11.296  43.075   4.169
41325W        W 6310  10.159  32.725   0.803
41326W        W 6311  12.313  29.082  13.955
41327W        W 6312  10.143  25.089   2.399
41328W        W 6313  29.682  37.434  10.702
41329W        W 6314   4.382   2.393  10.991
41330W        W 6315  14.072   8.342   2.948
41331W        W 6316  23.967  25.794  11.915
41332W        W 6317  20.083   9.959  10.371
41333W        W 6318  10.469  18.665   3.631
41334W        W 6319   3.150  15.477   1.870
41335W        W 6320   3.853  28.460  10.418
41336W        W 6321   3.750  42.469   2.235
41337W        W 6322  36.846  28.910  10.585
41338W        W 6323  24.797  37.406  11.733
41339W        W 6324  31.644  18.702   3.699
41340W        W 6325  30.604  39.937   2.708
41341W        W 6326   0.397  40.375  11.241
41342W        W 6327  18.337  20.636   1.656
41343W        W 6328  13.207  42.059  11.841
41344W        W 6329  19.810  37.364   0.406
41345W        W 6330   8.203   9.461   4.281
41346W        W 6331   6.829  16.471  13.832
41347W        W 6332  18.775  12.089  13.282
41348W        W 6333   8.259  10.418   3.273
41349W        W 6334   6.825  43.398   1.888
41350W        W 6335  42.053  26.083   2.186
41351W        W 6336  12.476   9.259  11.935
41352W        W 6337   6.860  29.402  13.256
41353W        W 6338  23.903  38.734   1.425
41354W        W 6339  37.052  11.165  14.129
41355W        W 6340  31.127  35.550  11.627
41356W        W 6341  10.227  22.548   3.630
41357W        W 6342  11.092  20.736  13.446
41358W        W 6343  34.040  34.953   1.254
41359W        W 6344  33.394  33.289  14.813
41360W        W 6345  28.518  27.779   3.122
41361W        W 6346  40.894  26.254  12.964
41362W        W 6347  27.146  33.258  12.796
41363W        W 6348   4.749  27.034  13.844
41364W        W 6349  44.905   0.456  13.342
41365W        W 6350  17.376  41.079  10.546
41366W        W 6351  42.177  15.991   0.860
41367W        W 6352  26.954  18.016  12.465
41368W        W 6353   1.512  12.568  11.594
41369W        W 6354  25.061  10.391  12.837
41370W        W 6355  39.788  25.342   0.333
41371W        W 6356   8.684  40.891   4.532
41372W        W 6357  10.120  16.151   4.238
41373W        W 6358  16.866   7.678   0.811
41374W        W 6359  12.652   8.038   1.895
41375W        W 6360  19.549   2.216  10.409
41376W        W 6361  43.451  21.949   3.191
41377W        W 6362  24.758   0.055  14.404
41378W        W 6363  17.438   9.249  14.773
41379W        W 6364  41.919  18.643   5.459
41380W        W 6365  41.043  28.036   1.494
41381W        W 6366  13.717  11.350   4.088
41382W        W 6367  11.779  41.898  12.949
41383W        W 6368  16.643  41.781   1.829
41384W        W 6369  44.811  43.293  10.496
41385W        W 6370  34.897  37.062  12.424
41386W        W 6371  22.979   7.625   3.956
41387W        W 6372  25.523  26.721  11.927
41388W        W 6373   4.984  25.543  13.517
41389W        W 6374  17.977  32.410  13.717
41390W        W 6375  37.883  38.796   4.528
41391W        W 6376   1.405  21.122   0.936
41392W        W 6377   0.178  38.491   2.382
41393W        W 6378  24.289   7.703   3.748
41394W        W 6379  26.986  36.609  14.319
41395W        W 6380  42.004  22.608   5.570
41396W        W 6381  35.811   1.754  12.089
41397W        W 6382  32.784  31.180  12.625
41398W        W 6383  43.821  36.542  10.363
41399W        W 6384  14.656  15.495   1.468
41400W        W 6385   2.021  20.415  13.912
41401W        W 6386  24.396   4.764  11.086
41402W        W 6387  19.617  38.963   1.306
41403W        W 6388  14.603   9.418   3.713
41404W        W 6389  28.038  43.119  14.430
41405W        W 6390  32.633  22.770   3.076
41406W        W 6391   9.173  10.918  11.121
41407W        W 6392  17.264  31.618   3.110
41408W        W 6393  17.000  37.033   4.634
41409W        W 6394   5.664  36.812  14.795
41410W        W 6395  19.443  22.971   0.035
41411W        W 6396   4.737  23.946  12.502
41412W        W 6397  41.297   9.290   0.818
41413W        W 6398  15.069   7.223  12.190
41414W        W 6399  17.836  21.134  14.047
41415W        W 6400  30.150  25.440  14.366
41416W        W 6401  14.775  19.003  11.118
41417W        W 6402  35.141  10.395  13.723
41418W        W 6403  16.785  36.983   3.091
41419W        W 6404  32.495   0.898   1.829
41420W        W 6405  15.469  37.395  11.160
41421W        W 6406   6.175  34.482  11.098
41422W        W 6407  15.075  43.785   4.070
41423W        W 6408  29.204  17.053   4.134
41424W        W 6409   6.735  33.363   3.646
41425W        W 6410  22.074  35.105   3.684
41426W        W 6411  12.988  30.485  14.013
41427W        W 6412  40.066  41.164   3.592
41428W        W 6413  13.291  13.611   1.728
41429W        W 6414  20.073  21.223   0.457
41430W        W 6415   1.663   7.313  12.885
41431W        W 6416   1.222  13.058   1.467
41432W        W 6417  41.409  42.808   1.272
41433W        W 6418  15.179   7.675   0.060
41434W        W 6419  20.192  30.509   3.581
41435W        W 6420  39.422  15.239  12.283
41436W        W 6421  40.894  18.812   4.017
41437W        W 6422  44.974  33.995   0.175
41438W        W 6423  33.168  19.177  13.779
41439W        W 6424  16.425   4.930  12.335
41440W        W 6425  42.854  27.112   4.107
41441W        W 6426  11.240  13.398  12.600
41442W        W 6427   4.403  15.497  10.578
41443W        W 6428  17.549  43.551  14.898
41444W        W 6429  17.828  36.070  11.886
41445W        W 6430  32.166  21.192  12.717
41446W        W 6431   1.989   8.919  10.910
41447W        W 6432  43.036  18.690   0.563
41448W        W 6433  43.843  24.540  11.505
41449W        W 6434  37.585  34.913   2.835
41450W        W 6435  44.379  28.895  10.140
41451W        W 6436  42.168  39.913   5.087
41452W        W 6437  27.982  19.249   2.324
41453W        W 6438  37.490  13.094  12.409
41454W        W 6439  10.658  27.721  10.615
41455W        W 6440  41.858  40.839  11.549
41456W        W 6441  42.034  41.281  13.870
41457W        W 6442  32.385  37.473   1.821
41458W        W 6443  39.237  22.549  14.759
41459W        W 6444  30.157   1.924   3.038
41460W        W 6445   0.301  23.492   1.988
41461W        W 6446  18.720   1.904  12.916
41462W        W 6447   5.135  12.411   4.194
41463W        W 6448  15.148  18.171   4.174
41464W        W 6449   8.219   9.841  12.618
41465W        W 6450  17.668  22.799  12.848
41466W        W 6451   1.320   0.405  10.392
41467W        W 6452  39.991   8.287   4.523
41468W        W 6453  38.645  25.289  14.935
41469W        W 6454  38.367  42.457  13.545
41470W        W 6455  21.672  17.692   4.099
41471W        W 6456  44.043  24.960   1.343
41472W        W 6457  25.146  17.304  11.982
41473W        W 6458  33.084  11.881  11.096
41474W        W 6459  20.753  33.038   2.423
41475W        W 6460  38.606  34.176   0.256
41476W        W 6461  31.026  20.632   0.922
41477W        W 6462  37.285   9.732   3.707
41478W        W 6463  28.413  14.137  13.648
41479W        W 6464  33.083  15.025   3.190
41480W        W 6465  26.617  27.080  14.411
41481W        W 6466  20.805  36.891   1.415
41482W        W 6467  21.197  38.894  11.570
41483W        W 6468  43.354  14.079   3.134
41484W        W 6469   2.743  30.985   3.284
41485W        W 6470  12.156  26.619   3.654
41486W        W 6471  41.160   8.633   2.618
41487W        W 6472   6.987   1.409  13.566
41488W        W 6473  32.939  10.618   0.132
41489W        W 6474  31.797  33.751   2.206
41490W        W 6475  36.414  22.733   5.005
41491W        W 6476  35.563   0.369   4.245
41492W        W 6477  36.370  37.079  14.324
41493W        W 6478  29.571   6.448   2.389
41494W        W 6479  43.921  15.346   4.233
41495W        W 6480  10.884  40.384  10.719
41496W        W 6481  19.782  30.414   4.869
41497W        W 6482  25.091  35.261   1.141
41498W        W 6483  23.166  16.804  10.716
41499W        W 6484  34.955  37.291  10.350
41500W        W 6485  13.810   1.967  14.036
41501W        W 6486  26.047  13.237   2.390
41502W        W 6487  24.443  14.623   3.693
41503W        W 6488   6.677  17.430   0.418
41504W        W 6489  32.191  19.054   0.501
41505W        W 6490  36.948   7.133  10.900
41506W        W 6491  23.021  22.714   0.715
41507W        W 6492   8.866   6.333   2.446
41508W        W 6493  17.591  43.460  11.051
41509W        W 6494  10.861  22.551  11.109
41510W        W 6495   8.306  26.101  10.751
41511W        W 6496  31.061   4.846   2.036
41512W        W 6497  24.236  21.140  12.918
41513W        W 6498  21.107  11.642   3.155
41514W        W 6499  44.029  20.802   4.261
41515W        W 6500  20.126  29.410   4.942
41516W        W 6501  23.692   1.209   0.318
41517W        W 6502  27.198   3.340   5.757
41518W        W 6503  26.393   7.799  10.741
41519W        W 6504   4.227  33.099   3.260
41520W        W 6505  40.792  35.662  13.862
41521W        W 6506  17.953   7.365   2.101
41522W        W 6507  22.689  12.338  14.853
41523W        W 6508   9.078  43.900  13.512
41524W        W 6509   7.451  34.670   4.583
41525W        W 6510  37.987  25.405   2.756
41526W        W 6511  19.551   5.001  12.886
41527W        W 6512  36.654  30.417   2.865
41528W        W 6513  20.314  42.128   4.143
41529W        W 6514  24.475  11.528   0.331
41530W        W 6515   6.961  24.022  13.858
41531W        W 6516  22.561  32.603   4.094
41532W        W 6517  16.184   8.384   4.607
41533W        W 6518   2.806  16.558  11.942
41534W        W 6519  35.641  18.001  11.161
41535W        W 6520  29.236  16.152   1.034
41536W        W 6521  43.304  29.889   3.737
41537W        W 6522  21.497  38.567  14.453
41538W        W 6523  43.030  29.094   2.197
41539W        W 6524  37.376  12.249  13.063
41540W        W 6525  19.089  13.763  14.485
41541W        W 6526  37.093  37.604   1.251
41542W        W 6527  25.478  14.253  11.358
41543W        W 6528  27.694   7.082   3.379
41544W        W 6529  32.957  33.271   2.887
41545W        W 6530  28.422   9.672   3.894
41546W        W 6531  37.956  27.747   2.786
41547W        W 6532  33.610   0.753  14.420
41548W        W 6533   3.416  22.846   0.405
41549W        W 6534   7.752   4.111  14.022
41550W        W 6535  39.274  23.452  13.820
41551W        W 6536  16.505  32.061   4.176
41552W        W 6537  24.438  36.358  14.676
41553W        W 6538  30.535  18.153   0.369
41554W        W 6539  16.073   1.344  13.909
41555W        W 6540  31.507   0.487   2.654
41556W        W 6541  36.973  34.377   1.733
41557W        W 6542   0.997   1.934  13.470
41558W        W 6543  34.001  30.200  11.604
41559W        W 6544  35.767  25.470   0.317
41560W        W 6545   8.302  17.484  12.551
41561W        W 6546  16.693  14.308   0.427
41562W        W 6547  29.537  31.793  11.962
41563W        W 6548  11.775  29.661  13.409
41564W        W 6549  15.224  41.276   1.872
41565W        W 6550  37.306  35.368  12.457
41566W        W 6551  42.506  32.390  13.338
41567W        W 6552  21.140  14.157  13.813
41568W        W 6553  33.959   4.915  12.959
41569W        W 6554  14.762  27.778   2.289
41570W        W 6555  25.702  37.524   1.655
41571W        W 6556  39.764  16.813  10.109
41572W        W 6557  32.963   2.016   2.252
41573W        W 6558  42.608  37.855   3.996
41574W        W 6559  14.546  26.723   0.616
41575W        W 6560  22.462   4.306  11.399
41576W        W 6561  10.345   8.995  14.374
41577W        W 6562  29.477   7.275   1.673
41578W        W 6563  44.522  13.743  14.349
41579W        W 6564  39.463  27.336   5.777
41580W        W 6565  11.894   3.635   1.330
41581W        W 6566  33.320  18.330  10.697
41582W        W 6567   7.762  33.656  11.047
41583W        W 6568  29.872  19.558   0.373
41584W        W 6569  15.588  23.524  13.306
41585W        W 6570  19.766  24.501  10.819
41586W        W 6571  41.470  41.293   2.824
41587W        W 6572  14.613  16.341  11.973
41588W        W 6573  10.731   5.617  12.012
41589W        W 6574  43.912   9.897   3.174
41590W        W 6575  26.709  37.564  10.593
41591W        W 6576  34.020  32.441   4.278
41592W        W 6577  39.854  27.024   0.253
41593W        W 6578  40.491  38.897   3.174
41594W        W 6579  15.620  32.992  10.405
41595W        W 6580   1.103  41.973  11.302
41596W        W 6581  21.179  23.125  11.406
41597W        W 6582  29.713  19.315   3.696
41598W        W 6583  31.610  27.961   3.704
41599W        W 6584  42.970  26.488  11.713
41600W        W 6585  35.071  15.902   4.020
41601W        W 6586  22.918   9.534  13.479
41602W        W 6587  22.149  14.198  14.520
41603W        W 6588  23.246  27.535   0.844
41604W        W 6589   8.663  17.614   2.250
41605W        W 6590  23.533  29.703   0.618
41606W        W 6591  14.082  27.852   1.531
41607W        W 6592  44.533  18.884  13.826
41608W        W 6593  19.991   4.435   1.307
41609W        W 6594  42.047  42.434   3.375
41610W        W 6595  24.865  10.709   3.226
41611W        W 6596  32.022  13.064  10.734
41612W        W 6597  19.575  33.293   2.443
41613W        W 6598  29.451   5.822  10.440
41614W        W 6599  24.660  20.309  11.481
41615W        W 6600  28.668  40.874   3.212
41616W        W 6601  14.184  22.053   2.785
41617W        W 6602  24.502  20.963   0.940
41618W        W 6603   4.458   9.292  10.913
41619W        W 6604  18.277  21.653   0.310
41620W        W 6605  44.983  20.492  12.593
41621W        W 6606  42.835  33.930   1.190
41622W        W 6607  27.753  31.358  12.461
41623W        W 6608   4.005  40.653   2.151
41624W        W 6609  44.735   1.403  12.182
41625W        W 6610   2.564   7.615  14.858
41626W        W 6611  44.571  44.346   2.627
41627W        W 6612  34.300   2.067   2.426
41628W        W 6613  42.457  17.079   0.924
41629W        W 6614  13.330  25.498   0.775
41630W        W 6615  24.695  24.795   2.322
41631W        W 6616   9.304   2.189   0.380
41632W        W 6617  38.497   7.319  12.334
41633W        W 6618  37.541  17.900  14.957
41634W        W 6619  20.089  34.464  10.668
41635W        W 6620  20.574   6.642   4.103
41636W        W 6621  34.006  27.028   2.548
41637W        W 6622  44.659  36.342   1.019
41638W        W 6623   5.658  12.830   2.834
41639W        W 6624  26.658  17.276  11.622
41640W        W 6625  25.442  16.801  14.782
41641W        W 6626  31.531  18.448  14.652
41642W        W 6627   3.317  14.582   5.077
41643W        W 6628   7.920   4.732   0.709
41644W        W 6629  21.071  12.116  11.581
41645W        W 6630  26.648  43.758   3.820
41646W        W 6631  13.650  29.922   2.544
41647W        W 6632  35.166   8.601   3.488
41648W        W 6633  14.846  22.134  12.102
41649W        W 6634   2.311  29.357  13.434
41650W        W 6635   5.816  15.751   4.003
41651W        W 6636  20.707  13.879  13.897
41652W        W 6637   2.951   1.369   4.562
41653W        W 6638  11.844   1.000   0.331
41654W        W 6639  34.639   8.833   3.047
41655W        W 6640   7.952  21.215  13.634
41656W        W 6641  42.935   3.983   4.194
41657W        W 6642  20.131  34.852   4.582
41658W        W 6643   0.344   4.477  14.467
41659W        W 6644  21.170   8.121  11.324
41660W        W 6645  38.451  33.436   0.452
41661W        W 6646  14.090  21.094   2.372
41662W        W 6647  18.646  41.262  14.286
41663W        W 6648  31.518   1.433   4.163
41664W        W 6649  24.366  40.937  11.208
41665W        W 6650  17.045   0.328   4.576
41666W        W 6651  24.531  24.203  13.989
41667W        W 6652  28.656  26.678  11.542
41668W        W 6653  19.389  42.397  12.244
41669W        W 6654  37.282  36.721   1.665
41670W        W 6655   4.987  27.860   1.425
41671W        W 6656  23.761  41.095  13.007
41672W        W 6657  29.513  16.973  10.768
41673W        W 6658   7.553  18.818  11.585
41674W        W 6659  11.954   1.730   1.925
41675W        W 6660   0.749  42.251  11.574
41676W        W 6661  38.455  16.761   1.808
41677W        W 6662  21.417  37.061  12.497
41678W        W 6663  35.926  39.071   3.383
41679W        W 6664  10.685  13.615   4.138
41680W        W 6665  31.211   3.983  10.970
41681W        W 6666  20.455  22.759   2.381
41682W        W 6667  37.317  36.948   5.233
41683W        W 6668   7.708  15.805  10.406
41684W        W 6669   8.344  36.983  10.947
41685W        W 6670  23.624  19.392   0.040
41686W        W 6671  38.561  11.918  11.266
41687W        W 6672  26.538  42.764  12.119
41688W        W 6673  10.916   8.427   3.788
41689W        W 6674   1.027  27.827   4.153
41690W        W 6675  28.637  18.381  10.626
41691W        W 6676  29.549  15.132   4.738
41692W        W 6677  23.812  21.827   4.009
41693W        W 6678   4.708   7.358   4.189
41694W        W 6679   5.664   5.165  12.959
41695W        W 6680  12.285  32.414  12.136
41696W        W 6681   0.890  11.593  14.406
41697W        W 6682  13.330  27.491   3.634
41698W        W 6683  28.154  44.816   1.737
41699W        W 6684   2.209  11.351  12.403
41700W        W 6685  35.288  11.055   4.043
41701W        W 6686  40.100  26.031  12.099
41702W        W 6687  15.135  39.852  13.509
41703W        W 6688  11.989  30.634   9.997
41704W        W 6689   8.508   5.901  12.041
41705W        W 6690  40.908  28.049  14.412
41706W        W 6691  27.762  15.810  13.417
41707W        W 6692  26.240  12.777  13.376
41708W        W 6693  35.975  32.059  13.934
41709W        W 6694  22.458  40.950   2.643
41710W        W 6695   8.111  27.183  14.943
41711W        W 6696  37.075  32.950   4.548
41712W        W 6697   9.246  14.774   4.810
41713W        W 6698   3.705  28.710   2.245
41714W        W 6699  22.943  21.448  12.937
41715W        W 6700  42.527  30.647  13.624
41716W        W 6701   2.272   0.986   2.414
41717W        W 6702  37.036  34.782   4.098
41718W        W 6703  15.240  23.684   4.120
41719W        W 6704  27.071  38.101   0.936
41720W        W 6705  21.973  41.420  11.454
41721W        W 6706  30.653  22.432   2.352
41722W        W 6707  22.604  32.010   1.824
41723W        W 6708   5.894  39.599  12.442
41724W        W 6709  24.944  22.135  14.488
41725W        W 6710  21.305  37.580  12.419
41726W        W 6711   8.680  23.751   1.230
41727W        W 6712  17.081  23.730   0.842
41728W        W 6713  33.942  40.988  14.322
41729W        W 6714  30.085  32.969  10.666
41730W        W 6715  24.194  43.433   2.469
41731W        W 6716  19.044  27.575  10.977
41732W        W 6717  17.057   4.257  10.489
41733W        W 6718   6.843  19.720  14.206
41734W        W 6719  22.956  10.003   3.305
41735W        W 6720  38.310  35.690   5.730
41736W        W 6721   0.309  26.247  10.929
41737W        W 6722  41.037  33.798   9.665
41738W        W 6723  42.334  37.619   0.031
41739W        W 6724  44.761  15.500   1.820
41740W        W 6725   0.420  30.529  13.981
41741W        W 6726  31.261   4.217   1.847
41742W        W 6727  18.733   3.344   3.424
41743W        W 6728  29.062   9.816   1.045
41744W        W 6729  17.829   1.275  14.362
41745W        W 6730  34.344  20.533  13.535
41746W        W 6731  17.706  23.561   2.427
41747W        W 6732  26.490   3.497   1.479
41748W        W 6733  41.341   8.846   4.750
41749W        W 6734  29.161  14.080   3.220
41750W        W 6735  29.928  17.048  13.997
41751W        W 6736  37.728   4.463  12.880
41752W        W 6737  32.199   6.390   1.770
41753W        W 6738  24.608  44.632   4.648
41754W        W 6739  40.629  26.153  13.409
41755W        W 6740  19.600  23.106  12.158
41756W        W 6741  44.620  27.559   5.127
41757W        W 6742  14.575  39.461   1.860
41758W        W 6743  40.385   8.115  13.602
41759W        W 6744   5.339  14.090  10.426
41760W        W 6745   7.179  43.018   1.821
41761W        W 6746  35.629  39.940  12.465
41762W        W 6747   3.644  32.604  13.899
41763W        W 6748  39.025  13.571   3.143
41764W        W 6749  27.270  22.132   3.773
41765W        W 6750  40.548   7.235  11.118
41766W        W 6751  34.703   7.111  11.045
41767W        W 6752  13.461  21.831  10.654
41768W        W 6753  42.389  12.638  14.923
41769W        W 6754  30.208   4.817   1.345
41770W        W 6755   2.977  38.074   4.240
41771W        W 6756  24.606  20.214  12.591
41772W        W 6757  20.114  29.204   2.532
41773W        W 6758  28.410  31.257   0.917
41774W        W 6759  28.601  11.173   4.122
41775W        W 6760  19.187   3.180  12.234
41776W        W 6761  15.078   8.089   3.140
41777W        W 6762   1.445  44.559  10.710
41778W        W 6763  12.711  12.931  15.000
41779W        W 6764  23.562  25.575  14.261
41780W        W 6765   8.269  40.442   2.378
41781W        W 6766  15.779  26.130   0.012
41782W        W 6767  38.537  11.316   3.178
41783W        W 6768  20.519  26.781   3.266
41784W        W 6769  28.680  23.169   1.958
41785W        W 6770  40.499   2.300  11.366
41786W        W 6771   3.591   3.505   3.177
41787W        W 6772  34.599   8.078   2.878
41788W        W 6773   4.079  15.220   3.563
41789W        W 6774  43.703   7.098   4.166
41790W        W 6775  39.884  25.067   1.001
41791W        W 6776  16.320  38.866  11.612
41792W        W 6777   4.609  42.567   2.456
41793W        W 6778   2.910   5.832   3.259
41794W        W 6779  37.602  14.509  14.392
41795W        W 6780   5.930  19.747  11.647
41796W        W 6781  17.297  35.949  10.170
41797W        W 6782  21.315   5.046  12.639
41798W        W 6783  16.090  19.770   2.258
41799W        W 6784  39.341   0.919   0.946
41800W        W 6785  19.130  18.058  12.081
41801W        W 6786  19.563  10.916  13.831
41802W        W 6787   9.338  27.959   3.337
41803W        W 6788  20.248  33.114  10.463
41804W        W 6789  19.501  42.080  10.749
41805W        W 6790  25.553  20.234   0.405
41806W        W 6791  16.084   2.360   1.837
41807W        W 6792   4.838  37.722   5.175
41808W        W 6793  15.141  40.314  11.025
41809W        W 6794  31.006  40.776  14.551
41810W        W 6795  20.637  21.684  14.414
41811W        W 6796  32.877  43.356   4.098
41812W        W 6797   9.043   7.176   2.728
41813W        W 6798  14.806  30.926  12.197
41814W        W 6799  31.506  12.718   4.336
41815W        W 6800  18.528   5.780  12.540
41816W        W 6801  33.329   5.585   0.941
41817W        W 6802  24.241  14.871  11.619
41818W        W 6803  39.351  31.616  11.938
41819W        W 6804   4.456  33.915  11.146
41820W        W 6805  25.566  10.508  10.657
41821W        W 6806  12.643  33.820   1.281
41822W        W 6807  29.311  29.062   2.267
41823W        W 6808  34.161  41.034  14.790
41824W        W 6809  17.602  11.555  13.282
41825W        W 6810   9.983  40.929   0.243
41826W        W 6811   0.018  15.303   2.273
41827W        W 6812  14.812  13.771  10.744
41828W        W 6813  36.891  33.040   1.654
41829W        W 6814  38.603  24.522  13.488
41830W        W 6815  18.183  15.562  11.455
41831W        W 6816  36.571  19.261  11.812
41832W        W 6817  14.871   5.496   3.652
41833W        W 6818  12.924  30.916   2.652
41834W        W 6819  27.999  43.736   1.737
41835W        W 6820  32.972  39.499  11.916
41836W        W 6821  34.435  16.765   2.451
41837W        W 6822   1.245   0.133   2.923
41838W        W 6823  11.898   1.971   1.438
41839W        W 6824  31.905  22.202   4.725
41840W        W 6825  32.998  23.292  12.826
41841W        W 6826   2.801  36.045   1.311
41842W        W 6827   3.477  34.204   0.999
41843W        W 6828  32.265  44.651  11.181
41844W        W 6829  37.588  29.078  12.278
41845W        W 6830  33.244  41.927  14.434
41846W        W 6831  10.741  40.718   2.218
41847W        W 6832  39.170  40.474   3.094
41848W        W 6833  33.051  24.486   4.843
41849W        W 6834   0.325  30.606   2.876
41850W        W 6835   8.770  38.279  11.416
41851W        W 6836   1.623   8.299   4.044
41852W        W 6837   1.399  40.588   3.131
41853W        W 6838   9.456  41.020   0.326
41854W        W 6839  32.239  38.240   0.248
41855W        W 6840  28.243  30.022   1.211
41856W        W 6841  37.415   7.020  12.579
41857W        W 6842  25.056  36.447   2.064
41858W        W 6843  31.842  38.310   1.849
41859W        W 6844  13.656   2.853   2.415
41860W        W 6845  35.588   5.394   2.710
41861W        W 6846  23.484   1.730  10.641
41862W        W 6847  33.435  20.539   4.814
41863W        W 6848   4.198  32.003  12.195
41864W        W 6849  15.760  29.966   3.368
41865W        W 6850  33.115  38.590   0.603
41866W        W 6851  22.034  30.922   1.869
41867W        W 6852  15.252  30.159  12.154
41868W        W 6853  19.179  40.121   0.544
41869W        W 6854  12.312  38.870   2.269
41870W        W 6855  24.484  29.469   1.765
41871W        W 6856  23.857  23.392  11.658
41872W        W 6857  12.194  11.351   0.433
41873W        W 6858   2.696   6.350  11.564
41874W        W 6859  10.707  35.572   3.716
41875W        W 6860   9.611   5.639  13.450
41876W        W 6861   4.024  27.394   0.817
41877W        W 6862   4.013  44.483   1.396
41878W        W 6863  17.118   6.304   0.501
41879W        W 6864  35.856   2.438   3.192
41880W        W 6865  24.396  30.921   1.897
41881W        W 6866  43.646  16.670  10.753
41882W        W 6867   8.432  14.611   1.328
41883W        W 6868   5.714   8.530  14.247
41884W        W 6869   2.311  38.409  11.516
41885W        W 6870  41.367  27.506  11.094
41886W        W 6871  36.515  37.627  11.023
41887W        W 6872  17.751  43.668   0.360
41888W        W 6873  28.483   9.222  13.446
41889W        W 6874  12.166  30.139  10.727
41890W        W 6875   0.107  37.975   3.739
41891W        W 6876   7.858  33.887   3.673
41892W        W 6877  24.740   4.361   3.133
41893W        W 6878  20.253  27.666  14.701
41894W        W 6879  41.665  27.699   0.530
41895W        W 6880  15.975  20.725   9.898
41896W        W 6881  19.596  25.018  14.201
41897W        W 6882   0.983  24.149   3.554
41898W        W 6883  24.257  21.241   4.109
41899W        W 6884  35.596  44.239   3.586
41900W        W 6885   2.118   0.049  10.712
41901W        W 6886  12.763  36.578  13.926
41902W        W 6887  27.154  31.028   0.430
41903W        W 6888  41.367  12.737  11.165
41904W        W 6889   8.331  28.216   1.423
41905W        W 6890  29.695  42.953   4.253
41906W        W 6891  33.050  35.087  10.979
41907W        W 6892  10.676  20.267   4.430
41908W        W 6893  35.266  21.084  14.292
41909W        W 6894   3.123   2.283   1.747
41910W        W 6895  17.147  17.167  14.917
41911W        W 6896  30.740  29.524   4.570
41912W        W 6897  28.530  35.012  12.421
41913W        W 6898  27.866  24.162   3.287
41914W        W 6899   2.994  34.319   0.889
41915W        W 6900  37.150  40.006  14.348
41916W        W 6901  38.904   4.937   0.841
41917W        W 6902  11.214  13.728  10.713
41918W        W 6903   1.971  13.413   1.712
41919W        W 6904  38.352  38.105   0.438
41920W        W 6905  21.885  32.820  11.454
41921W        W 6906  23.167   4.114   5.561
41922W        W 6907  16.284  30.475   0.686
41923W        W 6908  15.960   2.921  11.619
41924W        W 6909  16.891   1.463  14.539
41925W        W 6910  17.189  33.837  13.618
41926W        W 6911   4.152  26.363  12.997
41927W        W 6912  16.359  27.720   4.337
41928W        W 6913  43.421  33.601   2.675
41929W        W 6914  20.176  23.721   1.182
41930W        W 6915   6.763   2.795   0.328
41931W        W 6916  32.495  36.465  12.143
41932W        W 6917  22.610  20.221   4.167
41933W        W 6918  34.055  13.605  12.859
41934W        W 6919  17.265  20.214  12.871
41935W        W 6920  35.098   6.397  13.617
41936W        W 6921  20.406  11.716   1.782
41937W        W 6922   2.725  16.660  11.445
41938W        W 6923   0.398  23.511  14.523
41939W        W 6924  36.321  19.553   0.185
41940W        W 6925  23.919  28.481  10.267
41941W        W 6926  28.821  19.227   1.734
41942W        W 6927  19.969   3.589   3.214
41943W        W 6928  34.471  17.272   2.578
41944W        W 6929  23.715  34.455   3.616
41945W        W 6930  32.187  18.219   3.113
41946W        W 6931  28.447  30.630  13.355
41947W        W 6932  27.105   1.890   2.792
41948W        W 6933  43.493  33.007   4.540
41949W        W 6934  18.927  17.276   2.697
41950W        W 6935   9.231  32.474   0.036
41951W        W 6936  38.023  14.180   4.568
41952W        W 6937  20.993  27.586   4.667
41953W        W 6938  33.578   5.531  11.015
41954W        W 6939   4.844  29.633  11.470
41955W        W 6940  16.322  37.479  12.923
41956W        W 6941   3.898  16.763   1.878
41957W        W 6942  21.877  38.123  14.528
41958W        W 6943  39.522  24.419  10.977
41959W        W 6944   1.375  22.558   0.216
41960W        W 6945  39.941  36.369   2.915
41961W        W 6946   6.903  41.741   3.658
41962W        W 6947   4.085  28.905   4.757
41963W        W 6948  42.243  15.045   1.792
41964W        W 6949  29.218  13.787   0.446
41965W        W 6950   7.871  40.741  10.834
41966W        W 6951  28.645  11.540   0.826
41967W        W 6952  42.974   4.415   1.510
41968W        W 6953  23.444  29.181  11.739
41969W        W 6954  34.117  37.529   1.402
41970W        W 6955  17.491  15.208  12.941
41971W        W 6956  27.281  27.532  11.389
41972W        W 6957   8.659  27.932   3.526
41973W        W 6958   9.498  41.423   3.323
41974W        W 6959  22.660  21.521   3.286
41975W        W 6960  34.920  31.707  13.871
41976W        W 6961  38.874  13.821  12.911
41977W        W 6962   0.354  32.564   3.788
41978W        W 6963  44.579  21.666   1.065
41979W        W 6964   4.470  23.526   0.893
41980W        W 6965  12.696  30.820  13.761
41981W        W 6966  21.862  12.796  14.519
41982W        W 6967   8.222  40.492   0.325
41983W        W 6968  27.034  12.252   4.436
41984W        W 6969   8.840  29.130  12.110
41985W        W 6970  36.895  13.616  14.580
41986W        W 6971  41.299  44.209   0.524
41987W        W 6972  29.837  37.808  11.531
41988W        W 6973  32.581  29.047  11.142
41989W        W 6974  25.942  41.359   0.418
41990W        W 6975  33.659  27.476  13.894
41991W        W 6976   6.873   9.277   1.402
41992W        W 6977  43.984  38.911   1.039
41993W        W 6978  13.380   9.487  11.219
41994W        W 6979  36.318  23.802  13.022
41995W        W 6980   7.881  34.361   4.483
41996W        W 6981   5.675  25.031   0.929
41997W        W 6982  42.723  43.805  13.026
41998W        W 6983  10.966  43.937  11.948
41999W        W 6984  32.829  41.072   2.602
42000W        W 6985   8.646  30.488  12.238
42001W        W 6986  30.524  24.907   2.270
42002W        W 6987  33.999  34.134   0.843
42003W        W 6988  25.662  21.758   0.481
42004W        W 6989  27.894  40.808   4.227
42005W        W 6990   3.883  29.460  10.979
42006W        W 6991  34.741  32.603  12.155
42007W        W 6992   9.344  28.478   1.186
42008W        W 6993   6.618   4.934  14.454
42009W        W 6994  43.116  11.021   2.803
42010W        W 6995  14.740  40.100   2.558
42011W        W 6996  30.919  21.568  10.404
42012W        W 6997  25.151   6.706   4.657
42013W        W 6998  20.875   4.415   0.755
42014W        W 6999  27.551  34.964  11.425
42015W        W 7000  27.873  15.585   4.501
42016W        W 7001  36.355  44.432   0.513
42017W        W 7002  17.002  14.546   4.225
42018W        W 7003   3.751   9.128   4.583
42019W        W 7004   9.272   2.408  12.619
42020W        W 7005   9.219  24.563   4.606
42021W        W 7006  41.110  34.844  11.379
42022W        W 7007  10.931  42.251   2.258
42023W        W 7008  30.710   4.876   1.218
42024W        W 7009  31.979   2.532   1.391
42025W        W 7010   5.920  14.197   2.276
42026W        W 7011  40.881  16.086  14.385
42027W        W 7012  11.891  25.958   2.327
42028W        W 7013  12.097  35.805  11.973
42029W        W 7014  11.545  12.947  11.945
42030W        W 7015   0.869  14.118  10.734
42031W        W 7016  27.588  29.043   3.184
42032W        W 7017  28.172  31.938  11.117
42033W        W 7018  20.626  34.090   4.973
42034W        W 7019   3.587  43.822  12.950
42035W        W 7020  14.549  24.172   2.751
42036W        W 7021  29.538  14.596   4.693
42037W        W 7022   3.164   4.798  13.086
42038W        W 7023  44.366  26.939  13.470
42039W        W 7024  38.432   3.337  11.558
42040W        W 7025   0.355   1.390  10.914
42041W        W 7026  37.909   7.486  11.120
42042W        W 7027  42.486  37.140  14.986
42043W        W 7028  27.758  10.743   3.823
42044W        W 7029  19.517  31.073   2.140
42045W        W 7030  34.259  27.335  11.147
42046W        W 7031  39.446  21.719   4.901
42047W        W 7032  34.210  14.608   0.233
42048W        W 7033  28.549  43.262  14.480
42049W        W 7034   6.603   7.488   1.329
42050W        W 7035  17.992  15.182  11.151
42051W        W 7036   1.884   8.583   4.855
42052W        W 7037  31.666   5.764   0.248
42053W        W 7038  32.453  33.382   2.790
42054W        W 7039  11.574  33.821  11.235
42055W        W 7040  22.286  32.446  11.408
42056W        W 7041   0.773  33.301  11.003
42057W        W 7042  16.351   2.856  13.964
42058W        W 7043  32.436  28.580  12.813
42059W        W 7044  19.462   3.141   1.402
42060W        W 7045  35.776  24.708  12.567
42061W        W 7046   1.534   7.074  11.577
42062W        W 7047   7.019  38.440   1.104
42063W        W 7048  23.162   9.962  12.910
42064W        W 7049   4.363  20.877  13.844
42065W        W 7050   2.031   9.331   3.198
42066W        W 7051   3.847  22.595   2.043
42067W        W 7052   8.621  36.029   4.600
42068W        W 7053  38.786  38.105   1.258
42069W        W 7054  18.404  35.294   3.111
42070W        W 7055  10.348  35.702   2.665
42071W        W 7056  39.239  39.428  12.589
42072W        W 7057   5.931   7.171  14.909
42073W        W 7058  39.296  31.643   3.327
42074W        W 7059  38.602  33.550  13.863
42075W        W 7060  12.214  35.573  13.362
42076W        W 7061  27.144   7.841  12.486
42077W        W 7062   9.514  38.375   2.748
42078W        W 7063  14.601   3.887  11.915
42079W        W 7064  18.745  35.887  11.438
42080W        W 7065  22.307  44.744  13.835
42081W        W 7066  25.585   2.699   2.757
42082W        W 7067  13.171  25.668  10.503
42083W        W 7068  14.141   7.217  12.172
42084W        W 7069  19.829  23.953   5.009
42085W        W 7070  15.114  26.417  11.016
42086W        W 7071   2.807  42.736   3.151
42087W        W 7072  18.128  42.947  12.366
42088W        W 7073   6.689  20.729  14.482
42089W        W 7074  14.817  30.105  11.173
42090W        W 7075  36.898  11.631   4.115
42091W        W 7076  13.172  19.305  10.752
42092W        W 7077   5.956  22.510   1.199
42093W        W 7078  21.588  42.347   2.508
42094W        W 7079  19.551  38.580   1.834
42095W        W 7080  22.645  38.233   4.428
42096W        W 7081   6.845  40.708  12.513
42097W        W 7082  11.565  13.932   3.098
42098W        W 7083   9.146  23.104   4.894
42099W        W 7084   4.984  44.420   3.227
42100W        W 7085  35.462  28.103   2.882
42101W        W 7086   9.656  25.732  14.968
42102W        W 7087  10.111   0.490  12.588
42103W        W 7088  41.211   7.785   3.696
42104W        W 7089  20.834   5.677   4.122
42105W        W 7090  19.255  18.730   1.050
42106W        W 7091  16.156  26.075   0.934
42107W        W 7092  38.620  25.136  13.112
42108W        W 7093  40.548  10.649  11.657
42109W        W 7094   8.781  22.214  13.562
42110W        W 7095  43.766  33.216   2.637
42111W        W 7096  17.312  31.369   2.273
42112W        W 7097  12.122  28.780  10.160
42113W        W 7098  37.938  37.379  14.323
42114W        W 7099  33.928  44.674  12.420
42115W        W 7100   8.131  33.569   4.059
42116W        W 7101   3.998  15.846  10.690
42117W        W 7102   6.698  21.530   4.329
42118W        W 7103  28.525  40.765   0.675
42119W        W 7104  38.297  11.743   3.057
42120W        W 7105  24.453  33.360  14.370
42121W        W 7106  14.612  33.575   3.554
42122W        W 7107  18.138   4.219  11.516
42123W        W 7108  14.896  38.961  12.654
42124W        W 7109  22.134  32.523  13.445
42125W        W 7110   4.864   6.926   3.958
42126W        W 7111  33.846  10.876   0.516
42127W        W 7112  33.033  15.615  11.495
42128W        W 7113  37.635  21.773  13.284
42129W        W 7114  18.984  39.027   0.690
42130W        W 7115  40.070  24.614   0.792
42131W        W 7116  14.204  28.765  10.582
42132W        W 7117  14.708  14.248   4.044
42133W        W 7118  18.361   7.137  12.468
42134W        W 7119  17.739  41.813   1.782
42135W        W 7120  28.017  15.551   0.271
42136W        W 7121  43.516  27.711   4.214
42137W        W 7122  44.543   2.903   1.059
42138W        W 7123   3.415  16.386   0.920
42139W        W 7124  36.032  15.814   2.188
42140W        W 7125   3.880  27.138   3.116
42141W        W 7126  15.972  38.831   2.842
42142W        W 7127  12.035  20.878   0.320
42143W        W 7128  25.097  25.372  10.686
42144W        W 7129  16.240  42.373  12.105
42145W        W 7130  39.007  25.622  14.167
42146W        W 7131  43.305  32.105   4.382
42147W        W 7132  27.432  32.889  13.602
42148W        W 7133  22.042   7.294  12.017
42149W        W 7134  44.077  37.865   4.555
42150W        W 7135   0.335  42.768   4.568
42151W        W 7136  11.694  28.160  14.365
42152W        W 7137  26.687  18.563   3.553
42153W        W 7138  32.550  36.889  12.431
42154W        W 7139  26.004   9.483   3.628
42155W        W 7140  35.306  39.505   4.229
42156W        W 7141   7.619  37.940   0.367
42157W        W 7142  34.461  39.810   1.822
42158W        W 7143  23.751  10.751  10.736
42159W        W 7144  44.441   0.544  10.772
42160W        W 7145   7.661   7.926  13.775
42161W        W 7146   0.009  16.594  14.956
42162W        W 7147   8.366   7.078  12.424
42163W        W 7148  10.291  24.682   0.732
42164W        W 7149   4.364   8.700   0.734
42165W        W 7150   5.675   0.264   3.708
42166W        W 7151  16.852  37.496   9.769
42167W        W 7152  21.967  18.868   3.660
42168W        W 7153  29.930   4.505  12.114
42169W        W 7154   4.733  36.453  11.131
42170W        W 7155   2.470  32.499  11.615
42171W        W 7156  23.486  38.433  10.790
42172W        W 7157  42.483  15.113  10.999
42173W        W 7158  20.667  12.653   4.516
42174W        W 7159  28.493  36.479  13.182
42175W        W 7160  35.395  29.965  13.073
42176W        W 7161   9.563   3.930  11.549
42177W        W 7162   9.426   2.871   2.319
42178W        W 7163  16.296  34.900   1.147
42179W        W 7164  36.606  25.441   1.342
42180W        W 7165   9.679  19.687  13.352
42181W        W 7166  10.189   3.025   3.337
42182W        W 7167  44.435   2.480  10.587
42183W        W 7168  18.194  12.325   3.320
42184W        W 7169  19.164  28.536   5.495
42185W        W 7170  20.765  22.574  12.020
42186W        W 7171   9.951   6.690  12.524
42187W        W 7172  23.428  30.082   2.150
42188W        W 7173  33.324  18.059  10.230
42189W        W 7174  30.067   5.599  14.454
42190W        W 7175  22.060  26.467  10.485
42191W        W 7176  39.979  10.738  11.166
42192W        W 7177  22.534  38.939   1.954
42193W        W 7178  26.215  22.101  12.190
42194W        W 7179  40.316  11.121   1.347
42195W        W 7180  13.316  44.719   2.269
42196W        W 7181  21.306   0.017   1.871
42197W        W 7182  34.563  34.117   2.399
42198W        W 7183  28.835  15.091  13.826
42199W        W 7184  43.349  44.080  14.009
42200W        W 7185   7.665  16.966  12.994
42201W        W 7186  19.744   0.943   2.266
42202W        W 7187  28.448  30.074  14.388
42203W        W 7188  33.128  20.025   3.666
42204W        W 7189  10.652   2.035  13.678
42205W        W 7190  17.105  20.185   4.612
42206W        W 7191  18.734  16.521  12.348
42207W        W 7192   7.404  31.441   2.570
42208W        W 7193   3.699  44.153   4.145
42209W        W 7194  22.727  15.224  12.013
42210W        W 7195  30.680  16.686   4.219
42211W        W 7196   7.374  17.597  14.954
42212W        W 7197  15.592  15.760   2.333
42213W        W 7198   0.324   6.505   3.374
42214W        W 7199  18.175   2.691  12.867
42215W        W 7200  21.848   0.476   3.936
42216W        W 7201  25.178   9.409  10.699
42217W        W 7202  35.402  11.400   0.377
42218W        W 7203  15.340  19.586   2.647
42219W        W 7204  33.721  13.847  10.972
42220W        W 7205  27.014  39.531   0.983
42221W        W 7206  14.055  33.067  11.133
42222W        W 7207  12.556  27.540   1.491
42223W        W 7208  24.175  26.653  13.988
42224W        W 7209  10.280  40.230  11.870
42225W        W 7210  12.367  28.169  13.035
42226W        W 7211   2.360  26.115   4.193
42227W        W 7212  31.802  43.553   1.615
42228W        W 7213  30.798  21.982  13.472
42229W        W 7214  16.473  34.129   2.118
42230W        W 7215  15.669  25.431   4.959
42231W        W 7216   5.408  28.523   4.538
42232W        W 7217  41.018  19.423  12.550
42233W        W 7218  29.622  27.926   2.832
42234W        W 7219  22.957  15.797  10.701
42235W        W 7220  28.996  19.167  14.336
42236W        W 7221  30.352  22.171   0.975
42237W        W 7222  16.064  29.105   2.170
42238W        W 7223  27.543   9.203   1.011
42239W        W 7224  12.342  35.863  13.826
42240W        W 7225   3.971   7.830   4.087
42241W        W 7226   4.807  29.725   2.800
42242W        W 7227  29.324  31.187  14.089
42243W        W 7228  35.691  29.467   4.208
42244W        W 7229  28.648  33.420   1.251
42245W        W 7230  39.947  26.648  13.472
42246W        W 7231  30.640  19.297   1.391
42247W        W 7232  28.460  24.519  12.445
42248W        W 7233   4.911  40.964  11.383
42249W        W 7234   3.384  33.659  10.442
42250W        W 7235  19.201  39.931   1.880
42251W        W 7236  42.684  22.598  14.570
42252W        W 7237  11.820  23.236   1.430
42253W        W 7238  39.883  30.134  14.255
42254W        W 7239  33.571   9.443   0.773
42255W        W 7240  36.616   9.607   3.239
42256W        W 7241   4.429  25.034  11.929
42257W        W 7242  37.199  21.117  11.045
42258W        W 7243  29.372  42.821   5.165
42259W        W 7244  38.316   1.995  10.612
42260W        W 7245  40.393  44.126  13.972
42261W        W 7246  24.686  26.959   3.412
42262W        W 7247  21.613  37.671  13.853
42263W        W 7248  42.448  10.926   2.222
42264W        W 7249  20.284  30.574  14.939
42265W        W 7250  35.552  22.552  14.675
42266W        W 7251   1.879  15.225   1.956
42267W        W 7252  20.572  32.154  11.182
42268W        W 7253  20.951  34.107  10.629
42269W        W 7254   0.994  17.106   0.449
42270W        W 7255  44.220  30.506  10.438
42271W        W 7256  29.556  18.666  10.694
42272W        W 7257  39.742  23.457  11.115
42273W        W 7258   9.233  34.604   1.361
42274W        W 7259  19.977  31.038  11.607
42275W        W 7260  21.509   6.893  12.606
42276W        W 7261  23.062   2.969   3.933
42277W        W 7262  11.704  13.307  14.512
42278W        W 7263  34.782  18.120  10.713
42279W        W 7264   5.954  40.687  10.784
42280W        W 7265  34.449  23.658   4.364
42281W        W 7266  33.530  14.275   1.274
42282W        W 7267   4.666  23.626  13.001
42283W        W 7268  42.414  16.230  12.090
42284W        W 7269  23.219  10.056  14.527
42285W        W 7270  41.306   9.891   3.039
42286W        W 7271  41.245   0.252   3.414
42287W        W 7272   5.817  16.122  12.883
42288W        W 7273  23.229  16.240  10.693
42289W        W 7274   0.066  22.649  12.034
42290W        W 7275  44.058   8.448  11.761
42291W        W 7276  29.677  35.921  12.957
42292W        W 7277  43.358  20.542  14.519
42293W        W 7278  22.621  13.152   3.264
42294W        W 7279   3.423  43.454  13.291
42295W        W 7280  25.277  20.044   2.170
42296W        W 7281  21.766  29.594   1.996
42297W        W 7282  17.502   3.357  12.151
42298W        W 7283   3.109  35.646  11.182
42299W        W 7284  16.629  39.733  14.499
42300W        W 7285   8.687   2.422   3.194
42301W        W 7286  44.701   1.622  13.077
42302W        W 7287  24.202  23.027  10.946
42303W        W 7288  13.067   4.169   2.854
42304W        W 7289   1.387  36.530   2.689
42305W        W 7290  44.799  14.683   0.755
42306W        W 7291  16.558  22.364  12.981
42307W        W 7292  38.532   5.711   0.711
42308W        W 7293  36.847  44.993  12.249
42309W        W 7294  42.240  24.426   3.156
42310W        W 7295  25.618   5.914   1.819
42311W        W 7296  27.616  12.882  13.928
42312W        W 7297  29.154   4.040  11.618
42313W        W 7298  38.881  18.222  14.832
42314W        W 7299   1.971   9.599  14.296
42315W        W 7300   8.860  31.083   4.840
42316W        W 7301  22.619  41.337  12.570
42317W        W 7302  36.827  18.229  13.791
42318W        W 7303  18.517  38.496   4.600
42319W        W 7304  14.702  20.238   0.447
42320W        W 7305  25.880  18.169   3.789
42321W        W 7306  10.832  41.605  14.408
42322W        W 7307  13.578  26.758  13.569
42323W        W 7308   3.968   3.206  11.535
42324W        W 7309   0.468  21.561  14.006
42325W        W 7310  34.620  20.227  11.976
42326W        W 7311  34.688  35.019  13.849
42327W        W 7312  38.592  22.495   1.221
42328W        W 7313  11.861  35.663  13.844
42329W        W 7314  18.023   8.289  12.478
42330W        W 7315  22.477  16.188   1.356
42331W        W 7316  42.855  24.189  14.405
42332W        W 7317  32.305  11.957  13.010
42333W        W 7318  23.520  24.769   2.711
42334W        W 7319  11.820  13.338   0.432
42335W        W 7320  11.322  32.955   4.518
42336W        W 7321  43.708  28.048   1.473
42337W        W 7322   3.419  39.427  12.267
42338W        W 7323  38.262  13.942   2.428
42339W        W 7324  39.864   2.676   3.285
42340W        W 7325  35.411  25.160   1.334
42341W        W 7326  40.480  10.155  10.503
42342W        W 7327   0.193  36.358  10.407
42343W        W 7328   6.833   0.213   2.017
42344W        W 7329   3.697  31.554  13.843
42345W        W 7330  22.804  10.107   2.763
42346W        W 7331  23.677  44.338   0.710
42347W        W 7332   5.743  41.291   2.871
42348W        W 7333  26.636   9.981  10.796
42349W        W 7334  21.646   3.912   3.012
42350W        W 7335  39.805  42.117  10.615
42351W        W 7336  34.846  23.183   4.913
42352W        W 7337  44.310   5.680   0.786
42353W        W 7338  27.635  21.706   3.743
42354W        W 7339  10.087  41.927   0.839
42355W        W 7340  43.420   4.183  14.258
42356W        W 7341  43.792   4.175   2.643
42357W        W 7342  16.984  39.993   3.695
42358W        W 7343  23.142  25.435  11.453
42359W        W 7344  38.842   0.831  14.712
42360W        W 7345  28.215  13.868  14.388
42361W        W 7346   0.796  18.376   1.341
42362W        W 7347  40.577  34.673   2.744
42363W        W 7348  39.804  39.913   0.742
42364W        W 7349   7.352  17.054  14.267
42365W        W 7350  13.236  33.366   0.315
42366W        W 7351  31.116   0.876   0.935
42367W        W 7352  21.430  17.287   0.316
42368W        W 7353   3.377   7.286  12.272
42369W        W 7354   8.385  40.608   3.412
42370W        W 7355  24.796  36.364  13.771
42371W        W 7356  23.058  27.165   1.687
42372W        W 7357  21.123   2.641  11.543
42373W        W 7358  29.382  43.199   1.759
42374W        W 7359   4.439  39.365  12.069
42375W        W 7360   2.808  41.156   2.403
42376W        W 7361  17.688   8.205  13.493
42377W        W 7362   7.269   2.343  10.744
42378W        W 7363  40.431  11.288   0.864
42379W        W 7364  13.682  38.849  14.010
42380W        W 7365   5.162  28.524   4.080
42381W        W 7366  20.930   2.508  14.801
42382W        W 7367  35.153   5.806  14.909
42383W        W 7368  38.383   3.399  13.464
42384W        W 7369   2.740  20.246  12.834
42385W        W 7370   5.856  22.352  14.400
42386W        W 7371  40.446  38.512  11.987
42387W        W 7372  10.852  24.326   4.389
42388W        W 7373  20.274  18.371  13.955
42389W        W 7374   7.363   7.261  10.461
42390W        W 7375  26.423  12.574   3.119
42391W        W 7376  34.456  27.923   2.696
42392W        W 7377   1.414  27.615  14.075
42393W        W 7378  14.567  25.890  13.038
42394W        W 7379  23.108   1.112  14.565
42395W        W 7380  11.583  25.176  14.817
42396W        W 7381  36.375  27.486   0.269
42397W        W 7382  25.586  17.984  10.534
42398W        W 7383  40.892  19.506  11.244
42399W        W 7384  10.061  26.167  14.978
42400W        W 7385  34.184   0.022  14.014
42401W        W 7386   7.236   9.839   5.000
42402W        W 7387  14.024  44.923   3.243
42403W        W 7388   3.270   8.500   4.087
42404W        W 7389  44.131  39.036   3.659
42405W        W 7390   7.723  25.512  13.092
42406W        W 7391  35.402  22.592   4.564
42407W        W 7392  39.540  20.267   3.806
42408W        W 7393   4.617  12.248   4.235
42409W        W 7394  39.305  17.665   0.854
42410W        W 7395  43.347  27.442  11.586
42411W        W 7396  10.427  13.251   1.293
42412W        W 7397  29.138  42.882  13.695
42413W        W 7398  30.630  43.668   2.901
42414W        W 7399  13.351  29.283  11.945
42415W        W 7400  25.657  21.137  14.851
42416W        W 7401  10.365   5.934   0.902
42417W        W 7402  12.372  32.859   1.446
42418W        W 7403   3.950   6.945  13.929
42419W        W 7404  34.196  41.513  12.991
42420W        W 7405   1.763  15.221   2.886
42421W        W 7406   9.684  12.268  11.465
42422W        W 7407   6.499  38.078   1.752
42423W        W 7408  23.039  32.381   4.085
42424W        W 7409  43.923   8.588  13.040
42425W        W 7410   5.786  24.032  11.484
42426W        W 7411  33.262  29.601   2.696
42427W        W 7412  40.702  30.643  11.597
42428W        W 7413  20.392  16.951   9.776
42429W        W 7414  16.844  27.123  12.553
42430W        W 7415  34.005  11.179   4.203
42431W        W 7416   0.226   0.752   0.179
42432W        W 7417  10.836  40.438   2.858
42433W        W 7418  26.628  15.298  11.105
42434W        W 7419  14.446   0.986   1.803
42435W        W 7420   6.263   1.390  12.538
42436W        W 7421  27.519  11.178   3.613
42437W        W 7422  28.647   9.949  10.612
42438W        W 7423  40.860  17.574  12.472
42439W        W 7424  16.092   0.352   0.992
42440W        W 7425  22.971  21.474  13.853
42441W        W 7426   9.055  14.331   1.284
42442W        W 7427  29.035  35.674  14.513
42443W        W 7428   9.769  42.715  13.429
42444W        W 7429   5.329  30.970  14.702
42445W        W 7430  14.932  11.613  11.126
42446W        W 7431  13.083   9.775   0.295
42447W        W 7432  40.786  39.535   1.386
42448W        W 7433  27.770  21.211  13.357
42449W        W 7434  25.989  24.093   1.311
42450W        W 7435   7.366  22.117   1.874
42451W        W 7436   3.554  39.357  12.754
42452W        W 7437   8.423   9.694  13.963
42453W        W 7438  43.045  25.536   2.400
42454W        W 7439  25.085  16.242   2.015
42455W        W 7440  23.921   0.517   1.462
42456W        W 7441   6.955  33.983   2.222
42457W        W 7442  26.551  33.448  12.226
42458W        W 7443  37.232   3.561   4.161
42459W        W 7444   6.641   3.110  11.114
42460W        W 7445  24.578  33.388   2.768
42461W        W 7446  24.596  40.853   1.754
42462W        W 7447  33.361  28.404   0.832
42463W        W 7448   3.770   9.261  12.922
42464W        W 7449  28.011  28.692  13.526
42465W        W 7450   9.852  22.288   1.722
42466W        W 7451  37.087   7.107   2.279
42467W        W 7452  24.233  35.434  14.717
42468W        W 7453  27.899  25.951   3.760
42469W        W 7454  15.380  42.791  13.270
42470W        W 7455  12.635  22.948   0.144
42471W        W 7456  34.437  28.474  11.010
42472W        W 7457  42.537  14.997   3.796
42473W        W 7458  44.265  41.029  14.047
42474W        W 7459   3.491  20.123   2.039
42475W        W 7460  31.075  36.947  13.863
42476W        W 7461   2.473  42.998   1.029
42477W        W 7462  38.595   2.913  10.321
42478W        W 7463  14.526  39.372  11.426
42479W        W 7464  43.770  36.303   1.727
42480W        W 7465  42.808   9.854  14.956
42481W        W 7466  43.772  20.134   0.374
42482W        W 7467  19.128  37.810  10.595
42483W        W 7468  41.728  24.419   3.250
42484W        W 7469  31.069   2.513  14.441
42485W        W 7470  16.151  39.762  14.270
42486W        W 7471  14.721   6.440  14.072
42487W        W 7472  34.090  24.186  13.320
42488W        W 7473  31.614  22.584   2.221
42489W        W 7474  39.373  13.942   4.205
42490W        W 7475  34.887  38.657   4.657
42491W        W 7476  13.847  25.934  13.475
42492W        W 7477  17.982   1.988   0.925
42493W        W 7478  43.812  19.285   2.787
42494W        W 7479  12.966  30.061  10.980
42495W        W 7480  19.410  22.156   4.872
42496W        W 7481  41.265  23.534   4.605
42497W        W 7482  18.955  23.170   1.206
42498W        W 7483  23.545  10.195  11.735
42499W        W 7484  38.793  36.254  14.299
42500W        W 7485  19.765  35.319  13.039
42501W        W 7486   4.791  36.959  12.082
42502W        W 7487  29.381  43.362  12.940
42503W        W 7488  28.705  42.527   4.547
42504W        W 7489  35.957  23.251  11.124
42505W        W 7490  42.964  36.375   2.126
42506W        W 7491  23.646   7.417   0.238
42507W        W 7492   3.456  40.043   1.570
42508W        W 7493  27.184  31.931  13.438
42509W        W 7494  21.660  22.134  12.918
42510W        W 7495  40.495  42.896   3.078
42511W        W 7496  24.778  11.633   1.237
42512W        W 7497   4.342  37.615   4.996
42513W        W 7498  31.611  23.369  12.941
42514W        W 7499  26.531  14.373   4.391
42515W        W 7500  25.997  32.700   2.674
42516W        W 7501   3.417  14.641  10.706
42517W        W 7502   8.669  21.248  12.125
42518W        W 7503  37.332  28.014  13.934
42519W        W 7504  23.258  18.157   0.727
42520W        W 7505  43.442   3.867   2.878
42521W        W 7506  28.679  36.389  12.091
42522W        W 7507  37.558  42.051  12.081
42523W        W 7508   0.544  22.818   1.171
42524W        W 7509  43.458  14.362  14.968
42525W        W 7510  37.515   1.274   4.844
42526W        W 7511  36.593  44.156   2.878
42527W        W 7512  22.497  34.409   0.520
42528W        W 7513  43.868  21.153  12.611
42529W        W 7514   5.566   5.206   3.137
42530W        W 7515  38.683  32.021   4.638
42531W        W 7516  23.219  30.657  12.100
42532W        W 7517   3.877   8.920  13.982
42533W        W 7518  21.350  34.892  11.135
42534W        W 7519  27.036  13.781  13.119
42535W        W 7520  43.011  11.743  12.559
42536W        W 7521   8.704  35.395  10.895
42537W        W 7522  41.601   0.745   2.770
42538W        W 7523  15.246  18.820  12.837
42539W        W 7524  22.357  12.829  11.634
42540W        W 7525   9.255  30.952   0.269
42541W        W 7526  15.137   8.419  13.422
42542W        W 7527  22.515  28.536   3.743
42543W        W 7528   3.635  40.529   0.276
42544W        W 7529  34.932   6.908   3.310
42545W        W 7530  36.400  39.527   1.419
42546W        W 7531  38.424  27.970  14.020
42547W        W 7532  17.309  38.396  10.634
42548W        W 7533   0.910  34.965   4.169
42549W        W 7534  11.637  14.224  13.562
42550W        W 7535  14.575  11.084   0.921
42551W        W 7536   0.702  43.275  13.944
42552W        W 7537  15.152  40.279   2.226
42553W        W 7538  25.986  32.832  14.407
42554W        W 7539  34.384  20.772  12.651
42555W        W 7540   8.461  15.647   2.899
42556W        W 7541  35.084  27.432  11.565
42557W        W 7542  23.122  23.928  12.954
42558W        W 7543   6.805  33.141  13.346
42559W        W 7544  23.528  12.100  13.568
42560W        W 7545  22.619  20.505   3.179
42561W        W 7546  25.013  24.277   2.957
42562W        W 7547  24.753  12.771  14.809
42563W        W 7548  37.960  10.800  10.272
42564W        W 7549  39.406  13.597   3.730
42565W        W 7550   9.732   0.735   4.198
42566W        W 7551  22.643  40.292  11.565
42567W        W 7552   5.467  22.255   0.791
42568W        W 7553  36.409  16.010   3.712
42569W        W 7554  18.488  23.527   1.959
42570W        W 7555  42.980   8.683  12.966
42571W        W 7556  44.224  28.255  14.833
42572W        W 7557  28.476   4.410   0.635
42573W        W 7558  43.839   9.830  11.639
42574W        W 7559   2.553  10.419  12.557
42575W        W 7560  27.632   3.960   0.245
42576W        W 7561   3.706  28.129   1.220
42577W        W 7562  16.125  17.837   3.366
42578W        W 7563  26.861  44.692  13.127
42579W        W 7564  38.478  22.194   3.690
42580W        W 7565  30.499   7.149  14.860
42581W        W 7566  18.247  12.857   1.098
42582W        W 7567  10.468  37.908  14.727
42583W        W 7568  10.280  27.937   3.128
42584W        W 7569  44.834  16.779   3.267
42585W        W 7570   6.215  31.986   4.961
42586W        W 7571  35.521  28.643   4.491
42587W        W 7572   7.682   2.239   2.926
42588W        W 7573  11.300  28.122   0.674
42589W        W 7574  37.542   3.034  13.122
42590W        W 7575  26.276  40.775  12.062
42591W        W 7576   0.854   8.484  10.690
42592W        W 7577  19.638  42.333  11.234
42593W        W 7578  23.994  33.421  13.492
42594W        W 7579  27.393   9.629  12.941
42595W        W 7580  11.761  25.596  10.998
42596W        W 7581  16.145  24.913  12.559
42597W        W 7582   1.949  40.077   1.878
42598W        W 7583  39.450  30.374  14.653
42599W        W 7584  44.981   1.770  10.903
42600W        W 7585  18.267  17.493  11.545
42601W        W 7586   3.931  16.404   3.338
42602W        W 7587  37.557  22.769   0.500
42603W        W 7588  43.730   3.154  14.371
42604W        W 7589  28.437   2.480  13.483
42605W        W 7590  17.664  28.648  13.379
42606W        W 7591  35.316   2.726   2.911
42607W        W 7592  13.609  29.043   0.453
42608W        W 7593  38.389  27.664  14.494
42609W        W 7594  41.496   7.219   0.375
42610W        W 7595  44.963  12.824   3.634
42611W        W 7596   3.894  13.614  11.527
42612W        W 7597  34.986  26.993   0.662
42613W        W 7598  13.171  29.255  10.679
42614W        W 7599  27.255  16.320  12.037
42615W        W 7600  30.863  19.078   2.760
42616W        W 7601  13.254  22.322   0.509
42617W        W 7602   0.681  12.916  14.485
42618W        W 7603  16.670  26.032   0.905
42619W        W 7604  17.054   2.522  10.535
42620W        W 7605  23.757  25.753   2.815
42621W        W 7606  12.795  10.310  12.581
42622W        W 7607  37.228  43.030   4.948
42623W        W 7608   9.480   2.876   0.879
42624W        W 7609  16.982  11.952  11.142
42625W        W 7610  29.963  43.858  14.553
42626W        W 7611  24.036  32.928  13.383
42627W        W 7612  33.618  16.282  11.767
42628W        W 7613  26.626  37.793   0.881
42629W        W 7614  22.641  35.564   3.656
42630W        W 7615  23.835  26.420   3.306
42631W        W 7616   8.316   8.132  12.564
42632W        W 7617  20.224  10.653  14.014
42633W        W 7618  23.263  35.885   3.423
42634W        W 7619  33.389   3.947  13.862
42635W        W 7620  34.421  39.812   1.084
42636W        W 7621  24.717  26.202   4.287
42637W        W 7622  19.686   9.838   0.758
42638W        W 7623  25.493  27.703  14.314
42639W        W 7624  17.698  30.138  11.321
42640W        W 7625   0.731  26.443   0.753
42641W        W 7626  33.849  25.126   2.353
42642W        W 7627  32.538  29.907  13.348
42643W        W 7628  11.914  34.337   5.025
42644W        W 7629  34.828   4.469  12.516
42645W        W 7630  22.510  32.848   0.265
42646W        W 7631  25.958  33.624  11.198
42647W        W 7632   6.104  40.856   2.780
42648W        W 7633  23.500   8.208  14.781
42649W        W 7634  14.347  13.846  14.850
42650W        W 7635   5.049  20.790  12.020
42651W        W 7636  22.052   2.570  13.031
42652W        W 7637  30.622  11.442  11.029
42653W        W 7638  38.110  31.485  12.642
42654W        W 7639   2.274  22.271   0.827
42655W        W 7640  44.457  15.761  12.560
42656W        W 7641  13.219  27.395   4.128
42657W        W 7642  34.385  44.416  12.432
42658W        W 7643  41.892   8.327   1.531
42659W        W 7644  13.716  21.226  12.038
42660W        W 7645   9.864  22.007   4.085
42661W        W 7646   4.862  11.377  10.050
42662W        W 7647  15.510  22.261  14.808
42663W        W 7648  43.467  39.293   1.622
42664W        W 7649  13.907  40.472   4.892
42665W        W 7650  20.261  15.885  14.826
42666W        W 7651  32.694  16.342  12.015
42667W        W 7652  34.625  22.799  14.347
42668W        W 7653   7.941  34.796  14.761
42669W        W 7654  41.086   9.493  12.046
42670W        W 7655  23.118  40.449  12.733
42671W        W 7656  28.398   8.875   1.848
42672W        W 7657  44.903  17.437   4.169
42673W        W 7658   9.232  15.870  12.433
42674W        W 7659   2.177  10.312  13.398
42675W        W 7660  30.617  24.402   3.076
42676W        W 7661  39.931  34.612  12.431
42677W        W 7662  37.611   2.021  13.153
42678W        W 7663  14.630  14.220  12.650
42679W        W 7664   8.465  14.180   5.130
42680W        W 7665  35.541   5.074  12.436
42681W        W 7666  36.673  12.408   1.700
42682W        W 7667  17.068  38.986   0.289
42683W        W 7668  24.445  38.872   3.353
42684W        W 7669  43.827   4.469   3.069
42685W        W 7670  22.231  21.425  12.144
42686W        W 7671   6.645  30.413  12.088
42687W        W 7672  11.951   1.750  13.091
42688W        W 7673  30.331  16.327  13.074
42689W        W 7674  17.192  40.938   1.038
42690W        W 7675   2.718  34.467   1.281
42691W        W 7676  24.960  42.448  13.924
42692W        W 7677   4.485  25.092  13.963
42693W        W 7678  19.311  41.909   4.165
42694W        W 7679  21.369  44.901  14.506
42695W        W 7680  34.702  11.807   2.198
42696W        W 7681   6.248  37.711  12.381
42697W        W 7682   7.984  25.186  13.921
42698W        W 7683  41.313  23.107   2.283
42699W        W 7684  22.781  16.630  11.020
42700W        W 7685  24.392  34.438  10.570
42701W        W 7686  26.947   0.886  14.762
42702W        W 7687  12.176  34.069   2.709
42703W        W 7688   9.331  34.287   3.712
42704W        W 7689   4.749  14.612   2.199
42705W        W 7690   3.179  36.606   2.205
42706W        W 7691  24.198  20.549  12.536
42707W        W 7692  38.346  34.363   1.831
42708W        W 7693   8.713  27.210  12.628
42709W        W 7694  18.955  15.733   3.535
42710W        W 7695   6.882  26.349  14.463
42711W        W 7696   5.269  38.305  13.399
42712W        W 7697   4.717  24.083   0.942
42713W        W 7698  39.221  29.077   0.216
42714W        W 7699   6.690  20.217  11.427
42715W        W 7700  14.439  31.064   0.658
42716W        W 7701   9.456   6.410  10.726
42717W        W 7702  13.187   2.726   0.256
42718W        W 7703  33.901  25.627  11.950
42719W        W 7704  30.680   8.579  12.096
42720W        W 7705  38.429   5.320   0.388
42721W        W 7706  21.131  21.796   1.200
42722W        W 7707  25.130  23.109   2.811
42723W        W 7708  31.166  22.554   3.132
42724W        W 7709  26.080  12.174   4.917
42725W        W 7710  35.786  18.909   5.295
42726W        W 7711  14.464  33.548   2.239
42727W        W 7712  35.715  37.586  11.987
42728W        W 7713  44.635  19.775  10.321
42729W        W 7714  14.794  34.341   2.852
42730W        W 7715  29.636   9.586  11.618
42731W        W 7716  35.552  41.740   2.806
42732W        W 7717  20.683   6.182   0.878
42733W        W 7718  26.004  33.127  13.060
42734W        W 7719  23.707   2.242  12.441
42735W        W 7720  32.451  42.510   4.605
42736W        W 7721  19.739  25.293   5.121
42737W        W 7722  28.744  30.001  13.458
42738W        W 7723  10.249  16.583  12.600
42739W        W 7724  14.296  25.645  13.448
42740W        W 7725   4.689  37.096   2.047
42741W        W 7726  43.687   4.187  13.341
42742W        W 7727  42.079  16.720   0.920
42743W        W 7728  11.683  38.125  10.279
42744W        W 7729   7.972   6.823   3.658
42745W        W 7730  22.715  10.125   1.802
42746W        W 7731  22.339  35.745  11.903
42747W        W 7732  23.775  34.903   1.255
42748W        W 7733  25.400   7.301  12.947
42749W        W 7734  16.041   3.241  10.628
42750W        W 7735   4.880  10.372  11.149
42751W        W 7736  37.462  34.861   0.821
42752W        W 7737  10.778  16.925   2.765
42753W        W 7738  25.814   0.737   3.233
42754W        W 7739  16.600  36.091  14.809
42755W        W 7740  23.513   5.173  14.526
42756W        W 7741   6.433  15.271   3.301
42757W        W 7742  37.087  41.913   2.696
42758W        W 7743  11.868  22.067   1.863
42759W        W 7744  41.610  31.092  11.133
42760W        W 7745  41.670  34.922   2.190
42761W        W 7746  39.357  14.535  14.025
42762W        W 7747  15.969  18.336  14.351
42763W        W 7748  29.438   9.807  12.038
42764W        W 7749   2.179  35.560   3.190
42765W        W 7750  27.264  41.474   4.192
42766W        W 7751  35.505  38.053  13.463
42767W        W 7752  34.209  11.251  12.375
42768W        W 7753  33.093  43.367   2.791
42769W        W 7754  19.101   4.990   0.450
42770W        W 7755  22.021   4.347  13.539
42771W        W 7756  31.182  11.320  14.433
42772W        W 7757   7.553  20.301   4.153
42773W        W 7758  26.269  41.485   1.382
42774W        W 7759  11.263  11.114   4.877
42775W        W 7760  38.325  22.503  11.610
42776W        W 7761  40.473  12.085  10.479
42777W        W 7762   6.313  40.893   4.619
42778W        W 7763   3.555  18.768  12.375
42779W        W 7764   7.131  44.227  14.310
42780W        W 7765   4.265  41.473  11.563
42781W        W 7766   5.250  32.852   4.137
42782W        W 7767  11.766  15.678  11.290
42783W        W 7768  18.708  14.885   2.875
42784W        W 7769   7.173   3.190   2.244
42785W        W 7770  33.405  28.748  11.251
42786W        W 7771  13.829  13.212   4.655
42787W        W 7772  15.114  23.704  13.458
42788W        W 7773  29.594   5.290  10.650
42789W        W 7774  44.789  32.321  13.333
42790W        W 7775  16.263  37.999   1.200
42791W        W 7776   9.202  15.149  13.672
42792W        W 7777  11.342  17.253   1.952
42793W        W 7778   5.350  40.092   1.240
42794W        W 7779  43.396  40.890  13.505
42795W        W 7780   9.585   9.274  13.950
42796W        W 7781  13.605  35.677   0.349
42797W        W 7782  14.099   4.919  14.306
42798W        W 7783   1.984  35.677  11.668
42799W        W 7784  23.107  32.348   3.061
42800W        W 7785  14.397  35.869  11.620
42801W        W 7786  23.217  34.488  11.870
42802W        W 7787  23.460  37.486  12.458
42803W        W 7788  41.931  39.300  14.719
42804W        W 7789  37.580   6.874   3.115
42805W        W 7790  25.178   1.304   3.511
42806W        W 7791  39.471  14.150   3.751
42807W        W 7792  25.502  30.910   1.844
42808W        W 7793  26.682  39.321  11.059
42809W        W 7794  43.954  26.734   2.947
42810W        W 7795  32.427  25.133   3.303
42811W        W 7796  31.085   1.973   1.187
42812W        W 7797   5.679  43.883   0.746
42813W        W 7798  23.790  12.688  11.543
42814W        W 7799  12.508  39.825   3.033
42815W        W 7800  39.400  16.034   3.249
42816W        W 7801   0.784  10.187   4.961
42817W        W 7802  31.324  38.970  14.926
42818W        W 7803  25.668  38.945  11.151
42819W        W 7804  41.988   6.240  14.364
42820W        W 7805  10.377  39.011  10.964
42821W        W 7806  32.689  37.786  12.890
42822W        W 7807   7.381   9.850   3.458
42823W        W 7808  18.260  37.287   3.069
42824W        W 7809  14.922  11.453  12.540
42825W        W 7810  40.825  40.918   0.676
42826W        W 7811  29.084  14.206  12.108
42827W        W 7812  28.431   1.670   3.614
42828W        W 7813  32.000   7.875   0.839
42829W        W 7814  34.180   5.942  10.229
42830W        W 7815  43.830  44.328   0.730
42831W        W 7816   7.855  10.293   1.948
42832W        W 7817  22.237   8.657  14.936
42833W        W 7818  18.355   7.003  14.246
42834W        W 7819  20.065  25.073  11.906
42835W        W 7820  40.977  13.700   3.381
42836W        W 7821   2.797   3.279  12.053
42837W        W 7822  37.045  38.992   4.315
42838W        W 7823   0.262  33.335   4.185
42839W        W 7824  39.067  22.230  12.045
42840W        W 7825  17.294  34.622  12.440
42841W        W 7826  21.129  33.535   3.925
42842W        W 7827   8.477  31.048   0.771
42843W        W 7828   6.358   1.752  11.079
42844W        W 7829   5.060  41.004   2.719
42845W        W 7830  28.112  22.711   1.698
42846W        W 7831  12.315  42.013   0.833
42847W        W 7832  35.549  14.601   1.870
42848W        W 7833  33.090  28.018  14.274
42849W        W 7834   2.569   5.124   1.701
42850W        W 7835   8.167   2.176  12.948
42851W        W 7836   6.057  24.796   0.392
42852W        W 7837  43.558  44.480   2.721
42853W        W 7838  43.017  27.091   1.768
42854W        W 7839  43.500  18.342   4.755
42855W        W 7840  21.697   6.738  14.012
42856W        W 7841  41.818  24.228  12.578
42857W        W 7842  23.048   5.082  14.825
42858W        W 7843  21.077  24.282  12.751
42859W        W 7844  31.630  34.476   2.443
42860W        W 7845  25.950  18.140   3.224
42861W        W 7846  27.084  41.114  11.603
42862W        W 7847   2.659   1.886  11.711
42863W        W 7848  12.838  14.055  12.844
42864W        W 7849   3.175  24.950   4.358
42865W        W 7850  29.069  44.502  12.078
42866W        W 7851  34.989  29.505  11.627
42867W        W 7852   8.534  35.456   4.624
42868W        W 7853  23.913  13.104  13.884
42869W        W 7854   8.917  44.878   3.216
42870W        W 7855  37.453  12.180   1.418
42871W        W 7856  32.513   2.280  10.394
42872W        W 7857  30.433  39.336  13.803
42873W        W 7858  22.619  25.018  10.699
42874W        W 7859  29.477  23.675  13.378
42875W        W 7860   9.791  30.983   4.732
42876W        W 7861  34.831  17.979   1.446
42877W        W 7862   0.430  39.923  11.585
42878W        W 7863   0.292  21.600  11.993
42879W        W 7864   3.260  11.868  10.806
42880W        W 7865  22.717  21.423   0.887
42881W        W 7866  12.270  22.345  11.072
42882W        W 7867  33.618  41.906  13.953
42883W        W 7868  24.079  13.060   2.953
42884W        W 7869  19.550   4.136   0.401
42885W        W 7870  15.083  14.265   1.107
42886W        W 7871  20.807   0.598  14.434
42887W        W 7872  24.251  27.692   0.944
42888W        W 7873  30.605  32.933  13.425
42889W        W 7874  27.512  25.526  10.412
42890W        W 7875  19.444  11.202  14.305
42891W        W 7876   5.770  15.808   0.057
42892W        W 7877  30.556  40.005  12.303
42893W        W 7878  30.570  12.448  10.515
42894W        W 7879  33.068  18.252  11.520
42895W        W 7880  26.482  38.623  14.011
42896W        W 7881  19.692  25.476   0.576
42897W        W 7882  37.537   6.871  13.600
42898W        W 7883  32.175  44.187  11.408
42899W        W 7884  36.393  28.253  11.619
42900W        W 7885  14.513  38.580  11.717
42901W        W 7886  38.358  31.117  13.574
42902W        W 7887  35.527  41.506   0.042
42903W        W 7888  42.541  13.748  11.939
42904W        W 7889   0.942   0.655  13.973
42905W        W 7890  33.401   7.284  13.259
42906W        W 7891  22.248   3.832  12.300
42907W        W 7892  20.691  27.932  11.441
42908W        W 7893  41.961  34.006   1.886
42909W        W 7894  26.955  30.542  13.349
42910W        W 7895   6.332   0.043  14.269
42911W        W 7896  27.141   2.924  14.659
42912W        W 7897  35.572  24.463  10.967
42913W        W 7898  29.592  27.070   4.161
42914W        W 7899  36.121   0.283   2.461
42915W        W 7900   8.299  24.758  13.865
42916W        W 7901  30.025  15.259   4.034
42917W        W 7902  13.220  19.024  13.853
42918W        W 7903  16.139   4.854   2.260
42919W        W 7904  40.434  22.666  14.035
42920W        W 7905   8.705  25.260  14.902
42921W        W 7906  21.450  32.096  14.395
42922W        W 7907   3.674   6.192   0.364
42923W        W 7908  32.302  23.132   4.697
42924W        W 7909  17.723   4.210   1.815
42925W        W 7910  19.880  26.094   1.746
42926W        W 7911  28.691  15.480   2.421
42927W        W 7912  17.346  28.123   1.432
42928W        W 7913  13.182  21.974  12.910
42929W        W 7914  36.911  16.033   3.847
42930W        W 7915  31.450  33.575  14.423
42931W        W 7916  26.085  42.376   0.826
42932W        W 7917  25.444  42.319   2.698
42933W        W 7918  42.679  10.037  11.141
42934W        W 7919  38.765   7.464  11.414
42935W        W 7920  24.156  23.052  12.979
42936W        W 7921  36.422  30.274  14.999
42937W        W 7922  28.858  39.588  14.990
42938W        W 7923  30.571  30.914   4.632
42939W        W 7924   5.679  10.972   1.656
42940W        W 7925  12.101  25.094   2.277
42941W        W 7926   5.800  42.778  11.610
42942W        W 7927  17.212   1.070   3.036
42943W        W 7928  37.012   5.520  11.853
42944W        W 7929   7.181   7.972  13.033
42945W        W 7930  40.508   5.902   2.623
42946W        W 7931  21.510   7.622   4.095
42947W        W 7932  20.934  16.645   3.783
42948W        W 7933  31.635  30.497   1.349
42949W        W 7934  19.626   9.567   2.654
42950W        W 7935  11.308  13.318   1.214
42951W        W 7936   9.740   3.370  13.547
42952W        W 7937  35.913   6.167   1.772
42953W        W 7938  42.788  33.304   1.927
42954W        W 7939  31.645   0.324  12.120
42955W        W 7940  22.518  13.814   4.567
42956W        W 7941   9.907  41.081   1.657
42957W        W 7942  25.683  43.077   0.964
42958W        W 7943  33.341  36.991  12.965
42959W        W 7944  25.574  18.175  13.083
42960W        W 7945  29.445  42.698   1.930
42961W        W 7946  23.897  16.656  11.925
42962W        W 7947   2.005   0.427  12.090
42963W        W 7948  44.300  37.400   4.649
42964W        W 7949  23.879  42.408  13.708
42965W        W 7950  27.053  29.642   2.243
42966W        W 7951  22.650  32.321   0.263
42967W        W 7952   8.841  17.579  14.857
42968W        W 7953  28.877  10.162   2.770
42969W        W 7954  21.841  44.772   3.282
42970W        W 7955  20.296  43.415   0.843
42971W        W 7956  19.607  14.778   3.673
42972W        W 7957  43.777   0.861  13.443
42973W        W 7958  13.315  15.156  14.761
42974W        W 7959   6.756  37.521  13.079
42975W        W 7960  17.987  42.124  12.610
42976W        W 7961  42.436  18.665   0.213
42977W        W 7962  26.691   4.224  13.967
42978W        W 7963  15.069   1.850   0.281
42979W        W 7964  35.819  13.247   4.124
42980W        W 7965  41.727  16.324  13.344
42981W        W 7966  31.652  44.840   3.125
42982W        W 7967  42.870  21.134  12.508
42983W        W 7968  33.853  16.693  10.613
42984W        W 7969   3.865  24.458   3.848
42985W        W 7970  12.565  26.411  13.501
42986W        W 7971  10.436  28.384   0.323
42987W        W 7972  32.087  30.793   2.337
42988W        W 7973   7.158   7.690  10.685
42989W        W 7974  38.980   6.377   0.769
42990W        W 7975  10.615  43.020   1.914
42991W        W 7976   4.391  25.746  14.768
42992W        W 7977  15.848  35.500   1.412
42993W        W 7978  29.276  38.943  10.819
42994W        W 7979  34.864  17.688  11.142
42995W        W 7980  20.556   6.764   2.778
42996W        W 7981  44.256  27.724  14.838
42997W        W 7982  12.854   5.898   4.132
42998W        W 7983  12.601  35.334   4.267
42999W        W 7984  23.146  14.606  12.926
43000W        W 7985  29.632  35.126   2.857
43001W        W 7986   4.401  13.306  14.532
43002W        W 7987   1.770  19.955   1.221
43003W        W 7988   5.706   4.838  14.247
43004W        W 7989   9.338  30.995   0.903
43005W        W 7990  44.466   1.787   2.716
43006W        W 7991  35.907  12.724   1.379
43007W        W 7992  20.490  21.193  14.518
43008W        W 7993   2.449  42.324   4.144
43009W        W 7994  34.319  23.756   3.849
43010W        W 7995  42.884   8.630  12.107
43011W        W 7996   9.064  23.704   1.590
43012W        W 7997  13.188  43.402  13.006
43013W        W 7998  36.888  10.882   0.733
43014W        W 7999   3.441  44.355   4.570
43015W        W 8000   6.369  23.131   1.681
43016W        W 8001   1.967   3.422   2.384
43017W        W 8002  25.205   3.887   0.038
43018W        W 8003   1.291  33.838   3.824
43019W        W 8004  30.473   5.219  12.230
43020W        W 8005  20.156   1.506  13.777
43021W        W 8006  10.742   8.906   3.665
43022W        W 8007  29.667   0.298  12.850
43023W        W 8008  13.740  42.836  12.389
43024W        W 8009  26.639   4.663  11.626
43025W        W 8010   0.410  38.971  11.125
43026W        W 8011  17.075  38.504  12.148
43027W        W 8012  10.221  30.827  12.465
43028W        W 8013  40.050   1.648  12.017
43029W        W 8014   3.430  10.261  12.346
43030W        W 8015  26.077  16.318  12.046
43031W        W 8016  33.484  16.601  14.931
43032W        W 8017  15.327  27.605   0.475
43033W        W 8018  10.361   3.971  13.539
43034W        W 8019  23.679  11.428   2.602
43035W        W 8020  25.640  25.457  11.529
43036W        W 8021  26.980  27.515   3.576
43037W        W 8022  29.497  15.397   2.837
43038W        W 8023  14.844  31.174   1.469
43039W        W 8024  19.821  38.093   0.006
43040W        W 8025  15.272  44.687   1.091
43041W        W 8026  31.396  14.270   1.129
43042W        W 8027  26.927  22.944   4.302
43043W        W 8028  29.897  20.177   4.790
43044W        W 8029   6.688   6.845   1.924
43045W        W 8030   1.999   0.406   0.605
43046W        W 8031  41.451  20.952   9.913
43047W        W 8032  31.767  14.819  12.831
43048W        W 8033   2.331  37.610  10.596
43049W        W 8034  13.544   6.345   2.587
43050W        W 8035  33.014  43.530   2.310
43051W        W 8036   1.801  18.611  14.537
43052W        W 8037  11.245  13.802  11.215
43053W        W 8038   1.258   5.394  11.996
43054W        W 8039  30.548  11.311  13.962
43055W        W 8040  29.765  38.570  14.294
43056W        W 8041  21.170   5.284   2.184
43057W        W 8042  29.400  23.224  13.128
43058W        W 8043   4.001  35.064  14.922
43059W        W 8044  18.237  13.760   0.352
43060W        W 8045  41.286  42.475  13.459
43061W        W 8046   8.752  26.273   4.926
43062W        W 8047   6.083   2.989   0.936
43063W        W 8048  17.191  13.804  13.585
43064W        W 8049  25.004  28.168   2.739
43065W        W 8050  38.089  42.743  11.597
43066W        W 8051  19.586  17.855  14.460
43067W        W 8052  10.364  11.500   4.489
43068W        W 8053  33.469  32.490   3.131
43069W        W 8054  11.906   8.300  14.060
43070W        W 8055  16.253  17.925  11.879
43071W        W 8056  24.585  42.786   5.065
43072W        W 8057  29.641  16.606  14.409
43073W        W 8058  36.120  40.012  14.467
43074W        W 8059   1.907  19.470   1.373
43075W        W 8060  40.109  44.889  11.147
43076W        W 8061  44.351  26.954   2.689
43077W        W 8062  42.372  10.722   2.710
43078W        W 8063  21.547  39.081  12.508
43079W        W 8064  36.636  13.283   3.828
43080W        W 8065  32.424  21.567  14.813
43081W        W 8066  43.849  14.625  11.111
43082W        W 8067  37.471   9.952   0.835
43083W        W 8068  23.289   3.888  13.965
43084W        W 8069  33.496  35.423  12.006
43085W        W 8070  31.786  10.600  14.604
43086W        W 8071  13.007  19.269   4.668
43087W        W 8072  30.568  21.039   5.238
43088W        W 8073  19.772  17.472   2.741
43089W        W 8074  17.656  37.111   0.690
43090W        W 8075  25.228  16.565   1.206
43091W        W 8076  44.302  19.430  11.754
43092W        W 8077  17.623  22.674  14.236
43093W        W 8078  29.469  41.820   2.376
43094W        W 8079   9.845   6.613   2.862
43095W        W 8080  34.946  11.728   9.923
43096W        W 8081  40.535  29.564  13.836
43097W        W 8082  34.444  41.816   1.897
43098W        W 8083   1.558  26.855   0.945
43099W        W 8084   5.813  14.667   1.334
43100W        W 8085  33.217  17.935   2.319
43101W        W 8086   4.522  41.440   0.801
43102W        W 8087   8.614  32.995  12.668
43103W        W 8088  25.985  23.704  13.888
43104W        W 8089  30.978  27.753   3.150
43105W        W 8090   5.662  12.796  14.702
43106W        W 8091  34.025  19.315  13.869
43107W        W 8092  14.196  11.428  12.961
43108W        W 8093  12.578  19.339   4.099
43109W        W 8094   7.784   7.792   1.245
43110W        W 8095  42.713  16.569  13.031
43111W        W 8096  25.908  17.218  11.132
43112W        W 8097  15.510   4.280   3.731
43113W        W 8098  26.729  18.666  10.649
43114W        W 8099  41.495  12.938  13.152
43115W        W 8100   1.390  23.995   2.084
43116W        W 8101  41.587  25.401   2.266
43117W        W 8102  10.148  10.276  12.939
43118W        W 8103   7.355   0.328   4.507
43119W        W 8104  32.592  23.549  10.564
43120W        W 8105  14.240   6.013  12.508
43121W        W 8106  40.798  17.636   1.892
43122W        W 8107   4.977  17.981   2.348
43123W        W 8108   9.923  21.804   1.882
43124W        W 8109  37.785  33.967   1.817
43125W        W 8110  37.357   1.513  13.126
43126W        W 8111  36.557  34.066   2.220
43127W        W 8112  10.765  43.122   0.079
43128W        W 8113  36.260   0.949   1.698
43129W        W 8114  39.862  19.361  12.099
43130W        W 8115  43.933  25.158   3.395
43131W        W 8116   7.162  18.561   3.672
43132W        W 8117  18.121   1.207  13.399
43133W        W 8118  23.115  35.663  10.340
43134W        W 8119  24.973  27.057   1.725
43135W        W 8120   3.706  21.543   2.927
43136W        W 8121  39.549  14.253  11.756
43137W        W 8122   7.615  22.616   4.996
43138W        W 8123  41.395  19.551   0.234
43139W        W 8124  28.974  39.142  12.172
43140W        W 8125   9.060  38.802   1.426
43141W        W 8126  39.757  36.961   3.741
43142W        W 8127  43.963  43.419  13.256
43143W        W 8128  29.171  36.059  12.983
43144W        W 8129  35.774  21.101  14.218
43145W        W 8130  37.081  39.969  12.393
43146W        W 8131  34.210  16.882  10.950
43147W        W 8132  19.588  24.500  14.246
43148W        W 8133  25.556  15.706   4.512
43149W        W 8134  13.512  41.402   4.116
43150W        W 8135  31.522  20.869   2.723
43151W        W 8136  32.548  40.918   0.272
43152W        W 8137  11.636  44.042   0.348
43153W        W 8138  34.673   6.769  12.696
43154W        W 8139  13.747   6.106   4.040
43155W        W 8140  44.077  37.008   2.826
43156W        W 8141  25.386  36.542  11.584
43157W        W 8142  18.343  32.010   4.716
43158W        W 8143  43.662  23.200  11.531
43159W        W 8144  20.880  30.354  11.904
43160W        W 8145  12.589  32.475   4.759
43161W        W 8146  12.034  29.918   1.199
43162W        W 8147   9.096  26.017   0.902
43163W        W 8148  42.306  23.153   2.373
43164W        W 8149  44.929   4.203   2.607
43165W        W 8150  33.601  11.613  14.540
43166W        W 8151  23.710   0.023  13.529
43167W        W 8152  40.898  39.846   5.436
43168W        W 8153  32.040  14.116   4.255
43169W        W 8154   2.955   6.816  13.028
43170W        W 8155  40.788  37.394  13.807
43171W        W 8156   4.884   3.287  13.099
43172W        W 8157  26.976  36.645  11.550
43173W        W 8158   6.253  41.234   3.087
43174W        W 8159  13.414   4.990  10.294
43175W        W 8160  12.688  20.154   4.613
43176W        W 8161  15.133  36.626   1.799
43177W        W 8162  19.175   9.603  13.970
43178W        W 8163  36.262  34.360   2.888
43179W        W 8164  40.328  30.090   4.113
43180W        W 8165  38.252   8.383  11.856
43181W        W 8166  40.031  14.844   3.703
43182W        W 8167  13.860  43.001   4.898
43183W        W 8168  28.770  38.402  11.097
43184W        W 8169  14.834   1.281   4.603
43185W        W 8170  23.466  19.133   1.943
43186W        W 8171  17.863   3.299   4.985
43187W        W 8172  13.648  16.144  14.814
43188W        W 8173   2.913  41.967   4.600
43189W        W 8174  41.979   8.820  14.797
43190W        W 8175   2.824  26.151   2.286
43191W        W 8176   5.322  39.863   2.172
43192W        W 8177  43.514  40.502  11.112
43193W        W 8178  43.393  20.563   2.678
43194W        W 8179   3.773  10.159  11.972
43195W        W 8180  14.646  21.044  12.088
43196W        W 8181  22.734   8.648  13.028
43197W        W 8182  27.120  28.023  10.229
43198W        W 8183  36.390  24.190   4.675
43199W        W 8184  39.080  31.867   1.526
43200W        W 8185  37.469   8.404   3.301
43201W        W 8186  18.176   0.987   2.621
43202W        W 8187  38.834  11.460   2.405
43203W        W 8188  18.222  13.383  14.486
43204W        W 8189  43.562   0.903   4.354
43205W        W 8190   6.709  41.264  14.732
43206W        W 8191  25.231  27.083   4.075
43207W        W 8192  40.546  15.028   3.661
43208W        W 8193  26.558  29.509  11.489
43209W        W 8194  18.829  34.116   4.963
43210W        W 8195  19.030  14.671   1.748
43211W        W 8196  23.152  30.558   1.303
43212W        W 8197  14.844  10.735  14.028
43213W        W 8198  14.087  39.623   1.853
43214W        W 8199   2.544  34.901  14.544
43215W        W 8200  19.643  14.228   1.368
43216W        W 8201  42.253  37.784   3.605
43217W        W 8202   9.543  24.988   3.808
43218W        W 8203  27.992  29.025   4.470
43219W        W 8204  33.952  42.909   4.667
43220W        W 8205  28.041  28.695   2.774
43221W        W 8206   3.356   0.874  13.662
43222W        W 8207  13.833  34.566  14.352
43223W        W 8208  12.466   4.643  13.890
43224W        W 8209  22.585  35.482   2.614
43225W        W 8210   4.369  24.477  10.774
43226W        W 8211   0.345   1.360   3.787
43227W        W 8212  20.976  23.417  12.615
43228W        W 8213  44.466  23.464   1.947
43229W        W 8214  30.467  18.685   2.096
43230W        W 8215  21.259  33.545  13.026
43231W        W 8216  40.558   2.459   2.474
43232W        W 8217   3.654  19.250  13.825
43233W        W 8218  39.597  25.835   0.396
43234W        W 8219  42.853  31.677   3.660
43235W        W 8220  24.715  42.685  12.054
43236W        W 8221   6.895  25.057  11.253
43237W        W 8222  29.203  12.079   1.455
43238W        W 8223   9.730  41.136  11.548
43239W        W 8224  10.816  30.936  11.920
43240W        W 8225  20.790  27.497  13.357
43241W        W 8226  19.641   0.987  13.141
43242W        W 8227  11.872  20.000   0.299
43243W        W 8228   2.367  24.694   4.279
43244W        W 8229  11.010  33.864  14.336
43245W        W 8230   2.452   8.311   1.262
43246W        W 8231  20.117  43.558  14.544
43247W        W 8232  28.135  11.672   0.170
43248W        W 8233   4.468  21.097   2.992
43249W        W 8234  36.516  15.158   3.198
43250W        W 8235   8.561  27.718  13.450
43251W        W 8236  31.263  15.442  11.582
43252W        W 8237   2.957  44.993  14.954
43253W        W 8238   1.711  42.264  10.527
43254W        W 8239  29.018  29.376  14.239
43255W        W 8240  43.141  17.285   0.282
43256W        W 8241  13.603  39.364  13.967
43257W        W 8242  29.025  26.856   2.213
43258W        W 8243  15.301  17.144  10.560
43259W        W 8244   7.746  12.826   3.644
43260W        W 8245  39.456  16.370   2.090
43261W        W 8246  33.750  28.585  14.850
43262W        W 8247  42.064  39.344  10.674
43263W        W 8248  22.423  13.146  11.209
43264W        W 8249  11.253   4.949   2.397
43265W        W 8250  31.368   9.259  12.552
43266W        W 8251  21.655  35.029   3.394
43267W        W 8252  19.061   7.271  11.596
43268W        W 8253  24.619  18.361   0.888
43269W        W 8254  23.961  24.981  13.621
43270W        W 8255  42.032   0.015   0.328
43271W        W 8256   3.041  38.632  11.159
43272W        W 8257  11.353  41.849   2.227
43273W        W 8258  37.454   1.902   0.410
43274W        W 8259  31.468  11.866  14.014
43275W        W 8260  38.589  22.228   2.343
43276W        W 8261   7.351  27.453  12.105
43277W        W 8262   6.742  42.363   2.780
43278W        W 8263  30.517  28.693   0.383
43279W        W 8264  34.903  40.980   3.639
43280W        W 8265  31.311  37.790   3.570
43281W        W 8266  15.820  10.073  14.847
43282W        W 8267  37.699  28.651  10.705
43283W        W 8268  22.187  37.874   0.988
43284W        W 8269  41.798   4.815   1.833
43285W        W 8270  21.266  35.525   1.776
43286W        W 8271  42.844  15.908  11.233
43287W        W 8272   5.811  41.361  10.587
43288W        W 8273  10.367  33.137   4.734
43289W        W 8274  31.032   0.818  13.334
43290W        W 8275   8.743  20.664   2.437
43291W        W 8276  22.318   6.331   0.386
43292W        W 8277   6.290  29.008   1.712
43293W        W 8278  22.686  18.586   1.919
43294W        W 8279  37.091  29.749   4.424
43295W        W 8280  15.547  34.605   1.303
43296W        W 8281   8.119  22.136  12.578
43297W        W 8282  35.907  29.159   1.399
43298W        W 8283   3.384  32.641  14.437
43299W        W 8284  13.377   0.754   3.237
43300W        W 8285  19.653  31.464   1.825
43301W        W 8286  43.044  19.747  12.868
43302W        W 8287  11.249  14.701  11.466
43303W        W 8288  38.120  39.964   4.805
43304W        W 8289   4.189  21.533   2.774
43305W        W 8290   5.892  17.671  12.353
43306W        W 8291  44.709  20.488   3.787
43307W        W 8292  20.228   0.474   3.167
43308W        W 8293  20.741  28.609  10.720
43309W        W 8294  39.786  33.401  14.784
43310W        W 8295  18.015  35.546   2.796
43311W        W 8296   3.825  20.141  11.686
43312W        W 8297  11.551  29.990   1.310
43313W        W 8298  15.685   3.925   1.540
43314W        W 8299   2.043  19.618   4.744
43315W        W 8300  30.148  20.250   0.388
43316W        W 8301  35.386   1.592   1.354
43317W        W 8302  32.527   8.659  12.058
43318W        W 8303  44.559  18.644  13.357
43319W        W 8304  39.977  17.098   2.618
43320W        W 8305  41.809  18.624   2.840
43321W        W 8306  35.598   8.869   3.690
43322W        W 8307   6.320  42.793   1.339
43323W        W 8308  10.118  14.310  10.794
43324W        W 8309  33.673  33.679   4.499
43325W        W 8310  30.251   2.966   2.316
43326W        W 8311  18.284  38.301  10.753
43327W        W 8312  38.590  36.092   1.363
43328W        W 8313  23.070   2.979   1.457
43329W        W 8314  11.952  35.881   2.774
43330W        W 8315  34.625  21.150   1.151
43331W        W 8316   8.269   8.391  11.064
43332W        W 8317  42.579  21.393   3.206
43333W        W 8318  44.056  36.110  13.011
43334W        W 8319  34.648  12.949  11.515
43335W        W 8320  14.646   0.469   2.300
43336W        W 8321  20.757  10.310   0.432
43337W        W 8322  33.165   6.478   3.252
43338W        W 8323   3.940  19.273  11.263
43339W        W 8324  24.143  38.105   0.808
43340W        W 8325  10.255  38.474  11.732
43341W        W 8326  21.930  40.186  10.691
43342W        W 8327  30.874  12.305  14.658
43343W        W 8328   2.569  29.473  10.680
43344W        W 8329  44.673  28.195  12.664
43345W        W 8330  42.204   0.972   0.497
43346W        W 8331   6.221  12.570   1.291
43347W        W 8332  42.362   9.733  10.859
43348W        W 8333  43.751   8.158   3.293
43349W        W 8334   4.690   4.286  13.568
43350W        W 8335  20.897  14.199  11.536
43351W        W 8336  28.224  30.108  11.129
43352W        W 8337  11.407  19.618  10.801
43353W        W 8338  33.433  38.569  14.810
43354W        W 8339  35.414  28.437  12.056
43355W        W 8340  24.558  21.879  11.444
43356W        W 8341  38.046  12.248  13.968
43357W        W 8342  19.079  16.146   5.147
43358W        W 8343  40.346   7.893  11.713
43359W        W 8344  32.427   4.150  13.635
43360W        W 8345   1.927  15.105   3.914
43361W        W 8346  30.988  23.901   1.959
43362W        W 8347  16.483  12.919   4.839
43363W        W 8348  14.523  32.176   0.807
43364W        W 8349   5.312  41.359  10.603
43365W        W 8350   7.219  11.220   2.581
43366W        W 8351  13.614  18.262   3.278
43367W        W 8352  23.838  18.972  14.777
43368W        W 8353  23.608  28.214   4.598
43369W        W 8354  41.470  41.756   1.817
43370W        W 8355  19.595  19.189  13.666
43371W        W 8356  25.427  13.233   4.204
43372W        W 8357  22.942  24.423  12.927
43373W        W 8358  12.619   2.916  12.611
43374W        W 8359  29.825  29.121   2.316
43375W        W 8360  16.180   0.702   3.257
43376W        W 8361  27.229   1.954   1.733
43377W        W 8362  24.591   9.895  12.154
43378W        W 8363  11.368  23.433   1.216
43379W        W 8364   6.913  21.153   2.636
43380W        W 8365   4.831  10.286   0.343
43381W        W 8366  16.920  44.695   1.039
43382W        W 8367  17.329   7.737  13.310
43383W        W 8368  15.152  25.453   4.548
43384W        W 8369  30.519  12.137   3.743
43385W        W 8370  18.245  19.444  14.929
43386W        W 8371   2.322   2.946   5.054
43387W        W 8372  13.389  16.084   1.921
43388W        W 8373  39.370  31.463   1.310
43389W        W 8374  36.443  23.960  11.134
43390W        W 8375  19.056  34.475  14.933
43391W        W 8376  17.505  11.979   2.509
43392W        W 8377  14.237   5.324  10.290
43393W        W 8378  39.348  19.194  12.430
43394W        W 8379  20.406   2.424  13.345
43395W        W 8380  36.032   2.874  11.677
43396W        W 8381  24.635   6.960  14.021
43397W        W 8382  15.084  10.229  12.398
43398W        W 8383  43.996   9.083  12.956
43399W        W 8384  38.698  42.763   3.113
43400W        W 8385  14.097  10.414   1.656
43401W        W 8386  36.608   8.181   1.913
43402W        W 8387  13.171  21.840  14.750
43403W        W 8388  44.305  14.285   1.228
43404W        W 8389   2.462   2.240   2.802
43405W        W 8390   0.757  18.474  12.920
43406W        W 8391  23.689  42.789   4.446
43407W        W 8392   1.664  18.970  13.282
43408W        W 8393  17.742  31.663  14.366
43409W        W 8394  10.270  34.597  12.147
43410W        W 8395  20.552  23.820  11.632
43411W        W 8396   1.517   2.670   3.344
43412W        W 8397  20.276   8.274   2.823
43413W        W 8398  30.136  11.887  14.327
43414W        W 8399   1.903  13.353   2.225
43415W        W 8400  37.475  35.871  12.435
43416W        W 8401   7.693  44.721  14.915
43417W        W 8402   5.708   2.881  13.850
43418W        W 8403  32.989  16.328   3.551
43419W        W 8404  24.146  42.011   1.663
43420W        W 8405  37.165  26.728   1.440
43421W        W 8406   6.792  18.209   0.743
43422W        W 8407  30.421  24.142  14.237
43423W        W 8408   7.474   5.474   3.608
43424W        W 8409   2.304  25.618  13.565
43425W        W 8410  12.637  27.984   0.284
43426W        W 8411  42.040  19.086   4.162
43427W        W 8412   0.934  21.825   0.236
43428W        W 8413  24.324  19.550   3.663
43429W        W 8414   4.078  29.491  14.952
43430W        W 8415   0.304  35.044  12.664
43431W        W 8416  18.727  44.314  11.152
43432W        W 8417  18.120  33.498   0.998
43433W        W 8418  39.418  22.503  13.318
43434W        W 8419  20.107  41.521   1.815
43435W        W 8420  16.500  16.820  11.613
43436W        W 8421  29.214  17.696  13.566
43437W        W 8422  36.265  34.922   2.102
43438W        W 8423  31.959   9.826   1.887
43439W        W 8424   7.786  29.231  13.191
43440W        W 8425  10.787   3.744  13.760
43441W        W 8426  34.539  42.080  12.472
43442W        W 8427  23.512  21.147  12.224
43443W        W 8428  27.520  13.083  12.075
43444W        W 8429  13.568   0.021   1.909
43445W        W 8430  41.395  12.002   3.817
43446W        W 8431  28.281  41.731  10.419
43447W        W 8432  31.516   6.633  11.962
43448W        W 8433   3.235  36.146   2.426
43449W        W 8434  12.159  28.823   1.148
43450W        W 8435  23.570  41.682   2.906
43451W        W 8436  33.976  27.275   4.148
43452W        W 8437  24.074  43.495   4.040
43453W        W 8438  27.929   6.153  13.889
43454W        W 8439   6.039  18.848  13.132
43455W        W 8440   2.817  12.185   1.384
43456W        W 8441  34.114  38.227  13.596
43457W        W 8442   4.398  36.856  12.804
43458W        W 8443  25.537  44.083   2.519
43459W        W 8444   6.726   9.242   3.262
43460W        W 8445  24.636  41.317  13.480
43461W        W 8446  12.821  24.980   0.185
43462W        W 8447  40.896  40.929   0.170
43463W        W 8448  25.283  26.499   0.234
43464W        W 8449  23.552  18.294   3.266
43465W        W 8450  15.818  28.420  13.971
43466W        W 8451  13.734  11.163   4.590
43467W        W 8452  31.287  37.190  13.464
43468W        W 8453  21.496  34.952  13.870
43469W        W 8454  17.464  14.286  10.274
43470W        W 8455  22.329   5.867   2.128
43471W        W 8456  28.641  24.267  12.894
43472W        W 8457  24.450  25.406  11.209
43473W        W 8458   1.895  38.315   0.147
43474W        W 8459  41.458  39.249   3.755
43475W        W 8460  32.934  22.024  10.718
43476W        W 8461  26.670   3.208   4.465
43477W        W 8462  34.776  15.857   1.318
43478W        W 8463  32.827  13.780   4.634
43479W        W 8464  39.631  33.207   0.245
43480W        W 8465  14.524  22.616  12.071
43481W        W 8466  32.528   5.620  13.414
43482W        W 8467  31.416  30.612  11.177
43483W        W 8468   2.695  12.799  14.046
43484W        W 8469  28.175  23.107   4.681
43485W        W 8470  14.051   8.708   4.043
43486W        W 8471   6.564  43.533  13.889
43487W        W 8472  19.136  25.618   4.638
43488W        W 8473  35.199  32.904   2.423
43489W        W 8474   9.977  43.007  11.466
43490W        W 8475  11.775  12.588   3.528
43491W        W 8476  38.592  28.190   3.651
43492W        W 8477  34.581  35.999  14.043
43493W        W 8478  40.094  31.020   2.272
43494W        W 8479  43.496   1.408   1.365
43495W        W 8480  14.108  27.963   0.517
43496W        W 8481  16.601  13.260   1.293
43497W        W 8482  35.269  13.167  13.014
43498W        W 8483   5.414  26.988  14.277
43499W        W 8484   8.358  15.596   3.788
43500W        W 8485  24.038   8.365  12.615
43501W        W 8486  29.835  33.625   2.080
43502W        W 8487  40.994   5.416  11.557
43503W        W 8488  18.688  35.844  12.967
43504W        W 8489  32.666  14.368   1.303
43505W        W 8490   4.475   9.951  14.489
43506W        W 8491  26.951   5.749  14.480
43507W        W 8492  10.107   5.266  12.489
43508W        W 8493  12.534  11.587  11.664
43509W        W 8494  19.323  18.178   3.268
43510W        W 8495   5.415  24.703  12.473
43511W        W 8496  23.658  30.702   0.368
43512W        W 8497  33.827  28.533  12.076
43513W        W 8498  19.713   4.696   3.626
43514W        W 8499   3.013   3.341   3.975
43515W        W 8500  21.598  26.917  14.527
43516W        W 8501  38.932   9.166  13.940
43517W        W 8502  35.887   4.424   5.125
43518W        W 8503  22.159  10.787   2.133
43519W        W 8504  24.461  43.510  11.557
43520W        W 8505   9.875   8.844   0.278
43521W        W 8506  18.231  39.243  14.629
43522W        W 8507  43.427  28.379   3.668
43523W        W 8508   8.688  31.080   1.650
43524W        W 8509  18.220   7.486   2.551
43525W        W 8510  34.922  24.117  13.598
43526W        W 8511  22.100  30.756  11.954
43527W        W 8512   8.276   6.310   0.351
43528W        W 8513  39.413   2.291   1.191
43529W        W 8514  29.247   5.763  12.345
43530W        W 8515  10.917   5.997  10.667
43531W        W 8516  39.095  36.377   1.773
43532W        W 8517  34.842  41.789  10.730
43533W        W 8518  41.923  44.835  10.832
43534W        W 8519   0.855  29.420   1.252
43535W        W 8520  33.484  28.935  13.539
43536W        W 8521   5.481   1.874   1.281
43537W        W 8522  12.859  29.187  11.086
43538W        W 8523  43.279  11.802  11.194
43539W        W 8524  27.924  20.466   0.949
43540W        W 8525  39.438  12.343  11.613
43541W        W 8526  33.441  32.011   1.337
43542W        W 8527  27.496  23.052  14.502
43543W        W 8528  19.047  38.189  12.556
43544W        W 8529  20.218   5.430  14.988
43545W        W 8530  11.796  30.276  11.687
43546W        W 8531   3.225  20.740   3.806
43547W        W 8532  33.036  41.609   0.609
43548W        W 8533   8.710  33.975   0.966
43549W        W 8534  16.494  43.316  12.030
43550W        W 8535  33.206  31.237   3.728
43551W        W 8536  31.169  13.686   4.142
43552W        W 8537  30.719  35.575  11.979
43553W        W 8538   6.317   1.757   4.047
43554W        W 8539  24.970  42.527   3.345
43555W        W 8540  37.992  37.950   2.672
43556W        W 8541  31.996  38.908  10.426
43557W        W 8542  40.565  22.691  14.959
43558W        W 8543  18.049  34.469  11.282
43559W        W 8544  44.945  44.380  12.827
43560W        W 8545  34.584  26.453  14.099
43561W        W 8546  26.885  31.650  14.315
43562W        W 8547  33.961  29.489  13.877
43563W        W 8548  14.587  20.193  14.924
43564W        W 8549   1.298   1.063  12.063
43565W        W 8550  20.544  15.610  13.500
43566W        W 8551  25.573  14.736  11.172
43567W        W 8552  15.185   1.369   0.551
43568W        W 8553  18.947  23.561   3.979
43569W        W 8554  37.851  12.820  11.253
43570W        W 8555  18.020  13.390   4.018
43571W        W 8556  11.907  42.310   1.752
43572W        W 8557   7.009  21.997  11.126
43573W        W 8558   0.213  34.581   0.189
43574W        W 8559  44.334  24.607  11.618
43575W        W 8560   6.255  44.125   2.832
43576W        W 8561  20.703  41.348   2.361
43577W        W 8562  22.417  36.437   1.484
43578W        W 8563  14.526  37.525   1.446
43579W        W 8564  43.476  38.885  11.600
43580W        W 8565  10.768  30.436   1.017
43581W        W 8566  22.103   9.661  11.495
43582W        W 8567  42.058  17.562   2.372
43583W        W 8568  41.346  44.208   3.485
43584W        W 8569   1.870   0.654   2.262
43585W        W 8570  11.734  35.999   4.099
43586W        W 8571  30.611  12.968  10.445
43587W        W 8572  44.592   3.713  12.333
43588W        W 8573  33.518  33.311   1.739
43589W        W 8574  39.036  11.713  11.194
43590W        W 8575  35.114  28.004   4.133
43591W        W 8576   8.670  23.414   2.399
43592W        W 8577   0.944  32.192   4.089
43593W        W 8578   8.757  20.018  11.769
43594W        W 8579  31.606  41.578   1.767
43595W        W 8580  39.911   1.808   0.983
43596W        W 8581  18.700  39.343  14.447
43597W        W 8582  23.616   6.997  11.168
43598W        W 8583  25.957  40.760  13.918
43599W        W 8584  44.365   4.315   4.285
43600W        W 8585  22.197  12.387  10.733
43601W        W 8586   9.796   3.723  12.365
43602W        W 8587  31.075   4.473  13.602
43603W        W 8588  34.413  19.973  13.315
43604W        W 8589  36.823  36.047  12.701
43605W        W 8590  44.463  16.075  13.000
43606W        W 8591  29.721   5.312   3.079
43607W        W 8592   6.498  29.483   5.001
43608W        W 8593  43.418  31.230  13.965
43609W        W 8594   2.332  24.268  10.800
43610W        W 8595  15.086  24.527   4.196
43611W        W 8596   6.163  20.196  13.891
43612W        W 8597  34.015  24.638   2.349
43613W        W 8598  17.769  24.738   1.743
43614W        W 8599  26.960   1.909  12.120
43615W        W 8600  13.495  35.261   3.817
43616W        W 8601   4.184  16.396  12.939
43617W        W 8602  20.349  37.528  11.196
43618W        W 8603  32.639  38.969  11.082
43619W        W 8604   7.182  15.277   2.833
43620W        W 8605  31.456  11.702  13.014
43621W        W 8606  33.151  34.066   1.728
43622W        W 8607   5.247  36.090  11.926
43623W        W 8608  30.436  43.364  13.956
43624W        W 8609  32.227  35.318   3.129
43625W        W 8610  11.753   8.318  12.567
43626W        W 8611  35.212  35.055  13.820
43627W        W 8612   7.428  28.359  12.058
43628W        W 8613   0.993  37.103   3.639
43629W        W 8614  12.079  34.931  13.244
43630W        W 8615   9.172  44.433   3.485
43631W        W 8616  23.318  24.437  14.904
43632W        W 8617   3.456  10.236  13.935
43633W        W 8618  39.045  20.874  10.549
43634W        W 8619  22.827  18.507  13.973
43635W        W 8620  41.046  44.743   2.263
43636W        W 8621   6.255  19.806   1.807
43637W        W 8622  37.046   4.011  14.765
43638W        W 8623  40.359  34.156   4.858
43639W        W 8624  21.207   2.826   3.571
43640W        W 8625  33.038   5.863   4.511
43641W        W 8626  30.176  31.495  14.290
43642W        W 8627  24.805  43.868   3.673
43643W        W 8628   3.009  42.398   0.316
43644W        W 8629  42.564  42.873   1.302
43645W        W 8630  22.117   2.934   2.572
43646W        W 8631  14.702  14.225   4.550
43647W        W 8632   5.504  40.407   0.850
43648W        W 8633  40.314  36.689   3.158
43649W        W 8634  42.665   8.353   2.398
43650W        W 8635  40.053  35.830   3.097
43651W        W 8636  39.389  12.773   0.895
43652W        W 8637  29.147  26.923  14.027
43653W        W 8638  18.775  15.694  13.045
43654W        W 8639  24.423   1.587  10.132
43655W        W 8640  16.097  19.176  10.719
43656W        W 8641  33.648  32.487   1.227
43657W        W 8642  31.383  44.989  14.494
43658W        W 8643  19.878  14.632   4.651
43659W        W 8644  43.925  40.836   4.527
43660W        W 8645  33.328  39.837  14.270
43661W        W 8646  11.309  27.755  14.292
43662W        W 8647   3.843   5.854   1.073
43663W        W 8648  36.171  44.432   4.218
43664W        W 8649   7.233  32.422  11.402
43665W        W 8650  28.725  17.560  13.720
43666W        W 8651  32.890  28.675  12.470
43667W        W 8652  11.063  15.632  11.883
43668W        W 8653   9.458  36.982   1.257
43669W        W 8654  35.709   3.718  11.706
43670W        W 8655  14.675   3.512  13.745
43671W        W 8656  13.787  42.451  13.468
43672W        W 8657  17.707  32.925  12.084
43673W        W 8658  18.951   2.409  13.445
43674W        W 8659  12.886   2.250   4.662
43675W        W 8660  37.515  34.086  10.027
43676W        W 8661  42.879   0.424  11.161
43677W        W 8662  13.790  24.172   3.197
43678W        W 8663   7.424  31.814   2.227
43679W        W 8664  14.649  38.413   1.749
43680W        W 8665  29.627  11.725  13.079
43681W        W 8666  23.641   2.215   1.697
43682W        W 8667   7.968  25.716  12.092
43683W        W 8668   1.002  31.889  11.654
43684W        W 8669   8.600  10.674  12.812
43685W        W 8670  13.348  36.956  14.360
43686W        W 8671  44.337  11.321  12.544
43687W        W 8672   8.819  34.344  10.660
43688W        W 8673  11.328  16.859  14.781
43689W        W 8674  36.019   6.170  14.408
43690W        W 8675  16.533  44.322   0.976
43691W        W 8676  17.855   7.876   0.881
43692W        W 8677  10.830   8.792   4.540
43693W        W 8678  44.779  39.027  11.648
43694W        W 8679  30.829   9.245   4.865
43695W        W 8680  33.740  29.082   0.377
43696W        W 8681  29.998  29.007   4.718
43697W        W 8682  26.021  12.014  14.484
43698W        W 8683  20.725  27.144  12.562
43699W        W 8684  23.793  39.975   2.151
43700W        W 8685  11.555  32.638   2.237
43701W        W 8686  33.496   2.969   1.683
43702W        W 8687  42.897  41.792   4.960
43703W        W 8688  33.672  28.981   1.784
43704W        W 8689  26.245   9.738  14.377
43705W        W 8690   3.978  10.180  12.443
43706W        W 8691  31.634  43.652   4.564
43707W        W 8692  15.109  25.985   2.644
43708W        W 8693  29.859  39.494   1.379
43709W        W 8694  23.788  44.238   0.213
43710W        W 8695  25.982  36.471   0.288
43711W        W 8696  12.382  20.971  11.846
43712W        W 8697  42.888  28.674  12.466
43713W        W 8698  10.189  19.566  11.544
43714W        W 8699  30.182  44.714  13.359
43715W        W 8700  37.118  35.673  13.264
43716W        W 8701   6.362  42.790  10.915
43717W        W 8702  29.336  28.351   2.864
43718W        W 8703  42.033  38.366   2.132
43719W        W 8704  37.724  43.081   5.069
43720W        W 8705  24.221  11.210   1.356
43721W        W 8706  21.042  24.777   4.228
43722W        W 8707  15.244   1.468   1.929
43723W        W 8708  38.755  26.838  14.472
43724W        W 8709  24.741  21.536  12.066
43725W        W 8710  30.101  36.818   3.840
43726W        W 8711   0.851  41.090  14.573
43727W        W 8712   5.680   9.695  12.390
43728W        W 8713  25.156  33.163  12.016
43729W        W 8714  22.974  21.735  10.283
43730W        W 8715  25.503  35.881   4.801
43731W        W 8716  36.960  39.088  10.901
43732W        W 8717  11.315   2.909   3.458
43733W        W 8718   1.128  12.650   3.277
43734W        W 8719   1.392  21.999   4.138
43735W        W 8720  43.219  33.861   4.599
43736W        W 8721   1.629  11.444   1.766
43737W        W 8722  30.039   7.818  12.073
43738W        W 8723  42.857  37.370   0.775
43739W        W 8724  26.767  18.463  11.127
43740W        W 8725  31.491  10.411   3.188
43741W        W 8726  32.525  17.620  13.403
43742W        W 8727  19.334  37.116   0.365
43743W        W 8728  19.057  40.687  12.404
43744W        W 8729  27.955  28.936   2.311
43745W        W 8730  12.787  29.054   3.814
43746W        W 8731  16.303  23.290   0.847
43747W        W 8732  36.932  29.258   3.651
43748W        W 8733  26.049  33.635  14.819
43749W        W 8734   0.445  17.976  13.996
43750W        W 8735  13.226  15.556   0.591
43751W        W 8736  14.367  19.537  14.930
43752W        W 8737  43.323  12.906  12.590
43753W        W 8738  10.562  22.026  11.447
43754W        W 8739  15.119   9.571   9.975
43755W        W 8740   4.659  39.180  14.858
43756W        W 8741  43.343  41.035  13.993
43757W        W 8742   1.770  25.983  14.326
43758W        W 8743  22.798   9.334   1.124
43759W        W 8744  44.997  29.108   1.316
43760W        W 8745  13.626   8.389   3.228
43761W        W 8746  13.859  25.614  14.531
43762W        W 8747  14.869  24.540  10.699
43763W        W 8748  21.623   5.419  12.842
43764W        W 8749  17.886  21.449   3.081
43765W        W 8750   3.610  26.068   1.646
43766W        W 8751  11.354  29.385   1.399
43767W        W 8752  17.149  43.695  13.411
43768W        W 8753  15.261  30.879   0.038
43769W        W 8754  44.470   6.481  14.009
43770W        W 8755   5.159  41.985   1.342
43771W        W 8756  37.533  11.477   1.004
43772W        W 8757  26.546  34.464  13.948
43773W        W 8758  31.550   3.695  12.459
43774W        W 8759  32.467  14.255  14.326
43775W        W 8760   7.671   8.587   4.663
43776W        W 8761   3.976  12.436   2.298
43777W        W 8762  41.748  31.557  12.047
43778W        W 8763  26.171  39.709  11.250
43779W        W 8764  26.688  21.959  11.993
43780W        W 8765  33.014   1.267  11.544
43781W        W 8766  13.239  16.665   3.672
43782W        W 8767  42.805  11.588  11.176
43783W        W 8768   9.353  10.728  11.596
43784W        W 8769  24.253   3.640  13.608
43785W        W 8770   8.078  32.189  14.181
43786W        W 8771  15.230  22.752   3.769
43787W        W 8772  38.443   6.233  11.686
43788W        W 8773  34.423  11.763   3.640
43789W        W 8774  43.795  41.704  12.384
43790W        W 8775   3.939  23.521   0.792
43791W        W 8776   1.494  35.998  14.970
43792W        W 8777  41.522   0.652  11.239
43793W        W 8778  44.846  33.914  12.453
43794W        W 8779  34.798  14.372   2.575
43795W        W 8780   3.732  41.350  13.493
43796W        W 8781  32.088   6.406  11.175
43797W        W 8782   9.149   5.418  13.568
43798W        W 8783  25.002  38.781  14.248
43799W        W 8784  11.453  34.877  10.923
43800W        W 8785  21.117   8.194   2.157
43801W        W 8786  39.748   5.881   0.513
43802W        W 8787  32.558  31.206   4.508
43803W        W 8788  12.318   9.407   0.319
43804W        W 8789   8.781  25.135  10.780
43805W        W 8790  44.393  36.481  11.080
43806W        W 8791  38.318   9.765   1.687
43807W        W 8792  34.133  22.269   0.216
43808W        W 8793   6.276  22.205  10.709
43809W        W 8794  33.968   1.667  11.495
43810W        W 8795  30.676  10.238  13.127
43811W        W 8796  28.149  39.967   0.799
43812W        W 8797  34.014  35.825  14.762
43813W        W 8798  35.313  40.579  13.460
43814W        W 8799  31.109  25.290   2.336
43815W        W 8800  24.564  43.931   1.818
43816W        W 8801   6.294  23.218   2.656
43817W        W 8802  17.763  27.629   0.847
43818W        W 8803  17.824  10.773   4.919
43819W        W 8804  18.548  21.608  11.097
43820W        W 8805  14.362   3.850  10.930
43821W        W 8806  42.832  35.102   1.418
43822W        W 8807  27.160  16.689  11.124
43823W        W 8808  14.705  19.794   1.397
43824W        W 8809  38.678  35.731   4.900
43825W        W 8810  28.549  24.294  14.482
43826W        W 8811  20.745  30.171   1.345
43827W        W 8812  19.181  39.952  12.896
43828W        W 8813  30.941  20.626  14.887
43829W        W 8814  44.155  23.596  14.965
43830W        W 8815  21.117   1.904  12.681
43831W        W 8816  25.747  22.022   3.736
43832W        W 8817  17.323   1.234  14.359
43833W        W 8818  29.246   4.933  10.743
43834W        W 8819  44.283  28.894  11.751
43835W        W 8820   8.170  15.551   1.420
43836W        W 8821  21.959  14.406  11.487
43837W        W 8822  44.076  11.407   3.116
43838W        W 8823   2.975  39.523  14.732
43839W        W 8824  19.649   3.005   2.298
43840W        W 8825  22.777   6.722   1.660
43841W        W 8826  22.751  33.619   4.135
43842W        W 8827  33.268   4.821   3.644
43843W        W 8828  30.456   2.789   0.618
43844W        W 8829  42.221  22.642   0.769
43845W        W 8830  11.691  18.779  11.715
43846W        W 8831  36.713  28.804   3.478
43847W        W 8832  43.395  10.028   3.190
43848W        W 8833  30.492  30.357   0.974
43849W        W 8834  16.730  15.281   4.658
43850W        W 8835  23.359  18.194   3.732
43851W        W 8836  41.000   5.769   3.303
43852W        W 8837   3.336  37.994   4.872
43853W        W 8838  21.004  12.339   1.449
43854W        W 8839  34.952  44.389   1.334
43855W        W 8840  15.091  30.360   1.648
43856W        W 8841  44.846  36.768   2.228
43857W        W 8842  11.963  35.904   0.222
43858W        W 8843  27.257  34.047   0.707
43859W        W 8844  21.928  27.823  13.631
43860W        W 8845  30.700  17.968   3.416
43861W        W 8846  11.874  33.846  10.342
43862W        W 8847  18.689   6.948   2.088
43863W        W 8848  27.089  37.163  10.601
43864W        W 8849  44.432   4.842   0.582
43865W        W 8850  20.706  39.404  11.689
43866W        W 8851  44.947   8.941  12.041
43867W        W 8852  17.594  20.309   0.846
43868W        W 8853  40.233  22.745  14.532
43869W        W 8854  31.570  41.460  12.531
43870W        W 8855   7.813  19.015   0.741
43871W        W 8856  39.415   8.807   1.210
43872W        W 8857  23.222  34.636   1.677
43873W        W 8858  15.782  34.378  11.583
43874W        W 8859   7.131  32.344  13.483
43875W        W 8860  17.587  38.941   0.352
43876W        W 8861  42.450  18.438   3.667
43877W        W 8862  22.015  26.207  11.094
43878W        W 8863  11.569  26.988   4.254
43879W        W 8864  38.124  37.493  13.853
43880W        W 8865   5.304  15.783  12.808
43881W        W 8866  38.596  36.440   3.852
43882W        W 8867  18.233  41.619   1.093
43883W        W 8868  32.420  16.653   3.575
43884W        W 8869  40.312  11.397   0.369
43885W        W 8870  25.702   5.419  13.887
43886W        W 8871  20.227  25.040  13.709
43887W        W 8872   5.036  16.768   4.355
43888W        W 8873  21.016  26.221   3.239
43889W        W 8874  36.956  35.464   4.323
43890W        W 8875  33.190  40.553  10.712
43891W        W 8876   7.472  25.237  13.912
43892W        W 8877  39.421  15.626  11.959
43893W        W 8878  10.143  25.677   0.151
43894W        W 8879  34.037  26.913  10.891
43895W        W 8880  32.033   9.096   5.281
43896W        W 8881   7.192  44.800  14.860
43897W        W 8882  24.420   9.061   2.641
43898W        W 8883  14.107  26.891  13.387
43899W        W 8884  35.088  19.934  12.032
43900W        W 8885   0.322  24.294  14.309
43901W        W 8886  17.666  41.012   1.294
43902W        W 8887  14.765  33.719  13.251
43903W        W 8888  44.801  44.705  10.338
43904W        W 8889  34.621   2.925   4.749
43905W        W 8890  10.605  25.883  13.403
43906W        W 8891  36.964  16.819   1.261
43907W        W 8892  43.858  43.553  11.922
43908W        W 8893  35.398  21.641   4.860
43909W        W 8894  19.279  29.077  13.515
43910W        W 8895  37.201   4.505  14.807
43911W        W 8896  13.573  21.240   1.366
43912W        W 8897  37.252  42.565  12.940
43913W        W 8898  40.416  28.837  11.683
43914W        W 8899  12.661  32.171  13.901
43915W        W 8900  27.740  17.047   0.020
43916W        W 8901  29.413  43.473   4.126
43917W        W 8902  35.394  34.582   2.395
43918W        W 8903  29.138  38.808   3.252
43919W        W 8904  15.603  38.415  14.802
43920W        W 8905  41.237  15.515   3.206
43921W        W 8906   0.430  40.083  13.414
43922W        W 8907  19.494  11.180  11.631
43923W        W 8908   3.936  30.707  11.582
43924W        W 8909  41.966  29.205   0.262
43925W        W 8910  34.063  33.803   4.858
43926W        W 8911  44.066  37.987  10.258
43927W        W 8912  27.761   0.220   0.275
43928W        W 8913  38.931  21.975   4.294
43929W        W 8914  41.876  35.988   2.464
43930W        W 8915  31.266  13.227   0.292
43931W        W 8916  11.278  10.756   3.576
43932W        W 8917   3.872  38.573  14.779
43933W        W 8918  41.868   5.308   0.735
43934W        W 8919  31.580  18.186  13.334
43935W        W 8920  43.503  11.938   1.980
43936W        W 8921  27.416   1.517   0.078
43937W        W 8922  10.967  33.337  14.853
43938W        W 8923   1.871  41.772  11.937
43939W        W 8924  28.097   4.741   0.376
43940W        W 8925  19.699  23.615  12.916
43941W        W 8926  10.779  34.583   1.777
43942W        W 8927  18.140  22.478  14.383
43943W        W 8928  30.016  34.604   0.130
43944W        W 8929  20.570  15.740   1.444
43945W        W 8930  30.644  16.625  11.199
43946W        W 8931  16.295  27.184   2.265
43947W        W 8932  22.952  24.289   0.277
43948W        W 8933   6.349  40.487  14.509
43949W        W 8934  35.750  19.367  12.945
43950W        W 8935  41.824   3.892   4.370
43951W        W 8936  41.163  23.326   3.355
43952W        W 8937   4.321  20.078  10.553
43953W        W 8938  22.911   8.336   3.512
43954W        W 8939  13.126  32.366  11.098
43955W        W 8940   8.628  38.861   4.271
43956W        W 8941   7.097  18.761   2.143
43957W        W 8942  24.742  38.106   3.781
43958W        W 8943  20.279   1.982  12.550
43959W        W 8944   2.425  38.314  13.447
43960W        W 8945  43.818  38.441  12.984
43961W        W 8946  32.135   5.378   3.832
43962W        W 8947  21.555  12.272   1.545
43963W        W 8948  30.023  27.573   2.766
43964W        W 8949  10.264   8.123  11.659
43965W        W 8950  15.528   0.507   2.582
43966W        W 8951   1.312  27.671  12.013
43967W        W 8952  20.674  27.098   2.893
43968W        W 8953  19.532  21.256  11.621
43969W        W 8954   5.420  11.288  11.831
43970W        W 8955   0.230  30.372   4.886
43971W        W 8956   0.777  16.657   0.610
43972W        W 8957  21.784  16.054  10.495
43973W        W 8958  31.870  34.421  12.891
43974W        W 8959   0.142  21.268  14.320
43975W        W 8960  23.955  34.886   3.751
43976W        W 8961   5.134  14.038   9.826
43977W        W 8962  18.317  34.833   0.865
43978W        W 8963   5.428  15.379   4.234
43979W        W 8964   8.738  28.991  11.623
43980W        W 8965   9.973  24.003   2.212
43981W        W 8966   7.858  14.398  14.382
43982W        W 8967  15.677  12.632   3.129
43983W        W 8968  30.532  29.953   0.604
43984W        W 8969  36.978  33.670   3.979
43985W        W 8970  43.964  18.273   0.843
43986W        W 8971   7.453  24.348  11.864
43987W        W 8972  42.759   4.282  12.165
43988W        W 8973  37.074  19.117  14.094
43989W        W 8974   0.576  24.258  13.859
43990W        W 8975  40.558  14.434   0.527
43991W        W 8976  35.439  32.002   2.271
43992W        W 8977  16.071  38.783  10.801
43993W        W 8978  32.365  21.339   4.159
43994W        W 8979  36.155  21.545  11.941
43995W        W 8980   0.942   0.769  14.762
43996W        W 8981   8.324  33.884   2.427
43997W        W 8982  22.194  27.394   2.877
43998W        W 8983  26.164  21.928  14.253
43999W        W 8984  29.932   7.764   0.912
44000W        W 8985  31.151  42.703   4.506
44001W        W 8986   0.857   2.756  11.035
44002W        W 8987  20.284  32.014  13.486
44003W        W 8988  41.026  14.484   2.899
44004W        W 8989  22.934   1.066  12.104
44005W        W 8990   6.474  10.061   0.933
44006W        W 8991  15.685  37.044   0.029
44007W        W 8992  11.673   3.402  11.829
44008W        W 8993  28.694   7.961   0.253
44009W        W 8994   8.000  22.187  11.159
44010W        W 8995  43.937  43.482   4.693
44011W        W 8996  31.110  24.169   1.001
44012W        W 8997   6.430  20.737  14.030
44013W        W 8998  24.698  23.068  12.871
44014W        W 8999  32.974  41.765   3.131
44015W        W 9000  38.833  43.680  13.828
44016W        W 9001  27.596  22.049  13.748
44017W        W 9002  35.456  23.835   3.167
44018W        W 9003  28.649   6.791   4.155
44019W        W 9004  26.121  20.112  14.016
44020W        W 9005   5.318   8.299   3.860
44021W        W 9006  13.846  39.271   0.438
44022W        W 9007  27.717   3.709  12.404
44023W        W 9008  14.228   5.151   1.733
44024W        W 9009  18.835  15.258   3.327
44025W        W 9010  26.070  16.561  11.175
44026W        W 9011   0.252  40.308   1.889
44027W        W 9012  19.686  23.179  12.669
44028W        W 9013   4.958   4.041   4.520
44029W        W 9014  34.080  13.105  12.590
44030W        W 9015  38.120   7.851  14.810
44031W        W 9016   4.365  11.062   3.656
44032W        W 9017  13.378   7.871   4.597
44033W        W 9018  13.877  32.702  11.463
44034W        W 9019   8.040  40.001  10.408
44035W        W 9020  19.661  29.667   1.339
44036W        W 9021  23.015  37.602  11.977
44037W        W 9022  29.142  37.268   2.912
44038W        W 9023   2.295  18.818  10.751
44039W        W 9024  26.794  13.826   2.342
44040W        W 9025   7.375  42.841   1.381
44041W        W 9026  10.751   3.481   1.709
44042W        W 9027  35.961  12.201  12.599
44043W        W 9028  42.334  44.692   4.816
44044W        W 9029  30.532   4.914  10.172
44045W        W 9030  39.118  21.756  14.415
44046W        W 9031  40.377  16.027  12.165
44047W        W 9032  38.985  26.007   3.950
44048W        W 9033   8.838  41.877   3.625
44049W        W 9034  29.465   4.997   2.699
44050W        W 9035   6.751  32.951  14.359
44051W        W 9036  20.852  17.666  13.613
44052W        W 9037  42.825   1.308   2.145
44053W        W 9038   4.893   9.128  10.675
44054W        W 9039  10.784  38.621  11.572
44055W        W 9040  39.547  22.084  14.764
44056W        W 9041  38.848  20.006  14.540
44057W        W 9042  24.607   9.402   4.591
44058W        W 9043  27.599   7.179  14.852
44059W        W 9044  18.006  26.982   3.249
44060W        W 9045  17.419  43.625  11.487
44061W        W 9046  25.516  12.567   3.368
44062W        W 9047   9.731  33.352  14.641
44063W        W 9048  36.105   8.071   2.161
44064W        W 9049  28.760  27.841  13.719
44065W        W 9050  23.709  16.542  14.363
44066W        W 9051  35.628  20.773  10.600
44067W        W 9052  14.539  19.075  11.579
44068W        W 9053  30.854  36.063   4.733
44069W        W 9054  18.540  18.521  12.551
44070W        W 9055   8.353   3.243  11.514
44071W        W 9056  40.462  34.701   1.802
44072W        W 9057  20.489  38.911   0.857
44073W        W 9058  31.476  29.131  14.457
44074W        W 9059  11.769  44.196  13.569
44075W        W 9060  23.307  40.374   1.863
44076W        W 9061  16.172  11.313  12.061
44077W        W 9062  37.098   7.997  14.414
44078W        W 9063  20.254  34.442  11.950
44079W        W 9064  38.016  33.459   3.281
44080W        W 9065   4.653  36.460   3.237
44081W        W 9066  24.703  43.907  10.695
44082W        W 9067  19.216  12.392  11.629
44083W        W 9068   9.322  25.329  14.513
44084W        W 9069  32.309   7.258   3.065
44085W        W 9070  42.891  16.631  13.916
44086W        W 9071  32.667  29.954   0.238
44087W        W 9072  39.427  38.005  14.114
44088W        W 9073  38.096  28.479   2.359
44089W        W 9074   5.142  43.735   0.687
44090W        W 9075  12.165  15.358  10.158
44091W        W 9076  20.222   3.738   0.997
44092W        W 9077  41.868   7.175  10.817
44093W        W 9078  19.988  20.274   5.027
44094W        W 9079  16.222   0.884  10.966
44095W        W 9080   6.420  30.978   3.772
44096W        W 9081  16.589  36.968   2.066
44097W        W 9082  40.210   4.409  12.549
44098W        W 9083  32.479   0.855   0.872
44099W        W 9084  16.631  13.187   4.408
44100W        W 9085  27.913  15.079  11.485
44101W        W 9086   8.751  31.697  13.136
44102W        W 9087   1.556  42.475   4.531
44103W        W 9088  26.631   7.889  12.298
44104W        W 9089  40.008  12.198   0.014
44105W        W 9090  28.168  25.466   3.723
44106W        W 9091   0.816  14.642  10.730
44107W        W 9092  42.741  24.524   4.863
44108W        W 9093  13.310  33.698   0.807
44109W        W 9094  18.123  38.749  14.709
44110W        W 9095  24.216  12.625   0.984
44111W        W 9096  37.104  32.673   3.216
44112W        W 9097  25.083  11.354   1.563
44113W        W 9098  26.266  31.270   2.138
44114W        W 9099  11.909   8.615  10.653
44115W        W 9100  39.331   1.841  14.463
44116W        W 9101  13.760  35.081   1.759
44117W        W 9102  12.178  17.598  11.168
44118W        W 9103  38.358  35.254   0.241
44119W        W 9104  21.526   7.609  11.150
44120W        W 9105  41.829  22.947   0.545
44121W        W 9106   3.699  16.046  13.812
44122W        W 9107   1.172  27.394  12.598
44123W        W 9108  21.220  12.571   1.843
44124W        W 9109  27.532  41.550   4.658
44125W        W 9110  27.151   9.254   1.757
44126W        W 9111  10.193  33.239  14.894
44127W        W 9112  42.748   6.931  11.442
44128W        W 9113  42.177   9.812   3.766
44129W        W 9114  23.354  13.248  10.706
44130W        W 9115  10.751  41.293  10.667
44131W        W 9116   9.518  13.008   2.271
44132W        W 9117  33.288  32.060   4.559
44133W        W 9118   2.226  15.195  14.791
44134W        W 9119  37.944  21.202   2.777
44135W        W 9120  22.679  40.877   0.311
44136W        W 9121  26.082   4.890  12.880
44137W        W 9122  23.675  12.805   3.600
44138W        W 9123  19.253  22.786   4.595
44139W        W 9124  12.275  23.733  13.989
44140W        W 9125  33.462   0.197   0.465
44141W        W 9126  43.857  13.125   1.832
44142W        W 9127  29.030   9.614   4.634
44143W        W 9128  16.278  21.847   2.486
44144W        W 9129   3.238  31.338  13.893
44145W        W 9130  44.250  21.807  14.092
44146W        W 9131   3.783  22.760   4.722
44147W        W 9132  41.103  42.894   2.308
44148W        W 9133  13.620  23.724   4.299
44149W        W 9134  26.390  43.306   0.984
44150W        W 9135  18.015  33.824  12.113
44151W        W 9136  14.276  19.116  13.473
44152W        W 9137  10.224  38.749   4.408
44153W        W 9138  12.777  24.753   4.171
44154W        W 9139  12.259  44.733   4.947
44155W        W 9140  15.373  24.159   3.976
44156W        W 9141  24.002  30.464   3.631
44157W        W 9142  32.085  14.745  13.242
44158W        W 9143  44.054   6.148   4.146
44159W        W 9144   0.250  14.572  13.571
44160W        W 9145  26.128  13.193  10.655
44161W        W 9146  14.936  20.059  11.809
44162W        W 9147  33.039  15.873  10.598
44163W        W 9148   7.806   3.344   0.709
44164W        W 9149  42.559  36.262  10.554
44165W        W 9150  13.210  14.343  12.480
44166W        W 9151  26.775  25.926  11.035
44167W        W 9152  10.194  41.072  12.984
44168W        W 9153  11.738   8.269   4.668
44169W        W 9154  11.819   8.738   0.787
44170W        W 9155  31.054  30.617  12.148
44171W        W 9156  39.257  22.116   0.763
44172W        W 9157  34.426  40.609  12.468
44173W        W 9158  10.257  42.572  13.608
44174W        W 9159   0.925  41.914   2.740
44175W        W 9160  41.403  42.276   0.944
44176W        W 9161   2.261  43.344  12.105
44177W        W 9162  18.029  40.116  14.849
44178W        W 9163   2.172   4.645  14.867
44179W        W 9164  33.560  37.178  12.510
44180W        W 9165  23.222  10.909   0.400
44181W        W 9166  11.261  14.280   0.748
44182W        W 9167  38.620  17.554   0.327
44183W        W 9168  11.792  21.093   3.124
44184W        W 9169   7.472  35.899  14.484
44185W        W 9170  18.571  10.541   4.156
44186W        W 9171  31.474  25.148   1.974
44187W        W 9172   3.314  32.936  11.172
44188W        W 9173  20.807   2.261   4.144
44189W        W 9174  39.094  18.782   0.747
44190W        W 9175  18.738  34.141  13.304
44191W        W 9176  19.563  12.444   2.611
44192W        W 9177  39.914  34.169   4.069
44193W        W 9178  14.411  19.624   1.783
44194W        W 9179  21.635  10.320   0.270
44195W        W 9180  11.893   1.856   2.791
44196W        W 9181  19.171   9.772   4.202
44197W        W 9182  44.887  24.678   0.778
44198W        W 9183  27.598   5.774   5.338
44199W        W 9184  10.576  12.088  10.681
44200W        W 9185   1.290  25.760   3.233
44201W        W 9186  29.397  12.316  12.220
44202W        W 9187  33.478  25.622   1.600
44203W        W 9188  31.406  28.478   2.816
44204W        W 9189   6.445  33.983  14.998
44205W        W 9190  20.173   8.665  11.174
44206W        W 9191   9.968  21.023   0.700
44207W        W 9192   9.800  30.571  12.280
44208W        W 9193  42.557  19.989  12.856
44209W        W 9194  22.155  40.575   4.878
44210W        W 9195  40.799  15.150   4.953
44211W        W 9196  16.116  13.459   3.229
44212W        W 9197  35.472  30.008   0.928
44213W        W 9198  33.130  42.697   1.040
44214W        W 9199  11.141   2.542  11.882
44215W        W 9200  30.832  39.128  14.852
44216W        W 9201  15.820  23.658   4.738
44217W        W 9202  12.617   5.969  10.777
44218W        W 9203   3.645   5.560  12.958
44219W        W 9204  15.636   5.912  12.172
44220W        W 9205   9.411   3.350   4.106
44221W        W 9206  16.923  34.399   0.747
44222W        W 9207   0.145  38.538  12.228
44223W        W 9208  17.564   1.437   2.028
44224W        W 9209  42.488  36.527  12.370
44225W        W 9210  31.137  35.877   2.735
44226W        W 9211   6.863  18.111   1.237
44227W        W 9212  42.385  31.757   0.488
44228W        W 9213  27.151  13.844  12.394
44229W        W 9214  44.533   6.686   1.453
44230W        W 9215   3.214  17.739  14.223
44231W        W 9216  23.953  28.989  13.920
44232W        W 9217  41.511   7.734  12.570
44233W        W 9218  27.090  24.437  14.398
44234W        W 9219  39.439  12.876  12.535
44235W        W 9220  17.650   3.625  14.504
44236W        W 9221  18.175  41.594   2.665
44237W        W 9222  40.404  24.998  14.361
44238W        W 9223  26.038  39.456   1.339
44239W        W 9224  43.557  13.589   3.164
44240W        W 9225  11.478   5.441  12.792
44241W        W 9226  26.750  18.989  11.055
44242W        W 9227  39.372  40.135   0.930
44243W        W 9228   8.964  21.476  10.792
44244W        W 9229   7.417  18.530   2.562
44245W        W 9230  34.232  29.673   1.261
44246W        W 9231  21.934  15.261  11.471
44247W        W 9232   9.413   8.577   0.255
44248W        W 9233  12.159  44.814   2.473
44249W        W 9234  11.940  40.742   3.710
44250W        W 9235  16.231  31.870   4.568
44251W        W 9236  13.941   7.735  11.040
44252W        W 9237  42.345   0.604   4.528
44253W        W 9238  12.915  40.328   3.621
44254W        W 9239  11.290  16.714   4.075
44255W        W 9240  12.898  41.726  11.608
44256W        W 9241  22.459  25.576  10.714
44257W        W 9242  27.200  42.744   3.655
44258W        W 9243  15.591   9.593   3.823
44259W        W 9244  38.884  41.785   1.252
44260W        W 9245  24.566  16.324  14.977
44261W        W 9246  43.255  10.751   4.200
44262W        W 9247  13.070  44.330   1.346
44263W        W 9248  37.898  30.643  10.718
44264W        W 9249  38.515  40.819  11.581
44265W        W 9250   7.655  16.639  14.924
44266W        W 9251  19.111  14.602   3.707
44267W        W 9252  37.842  41.020   0.864
44268W        W 9253  35.630   4.352   0.919
44269W        W 9254  41.825   7.332  12.459
44270W        W 9255  36.395  26.233   2.305
44271W        W 9256  31.632  28.722   4.083
44272W        W 9257  31.182  39.894  13.984
44273W        W 9258   5.237   3.254  11.156
44274W        W 9259  10.550   5.525  14.838
44275W        W 9260  36.086  36.357  11.851
44276W        W 9261  37.483  16.680  10.773
44277W        W 9262  10.723   2.799   0.390
44278W        W 9263  22.448  33.843   3.797
44279W        W 9264  42.599  27.040  10.498
44280W        W 9265  14.892  31.957   0.490
44281W        W 9266  13.768  11.274  10.786
44282W        W 9267   1.959  42.937   1.696
44283W        W 9268   4.716  20.231   4.625
44284W        W 9269  38.862  13.807  13.766
44285W        W 9270  17.581   9.118   1.636
44286W        W 9271  11.747   9.424  11.628
44287W        W 9272  34.186  38.058  12.900
44288W        W 9273  11.236  10.045   4.601
44289W        W 9274  14.743  35.394  12.397
44290W        W 9275   6.903  29.028  11.017
44291W        W 9276  41.987  16.099  10.313
44292W        W 9277  22.036  11.659   3.600
44293W        W 9278   4.784  16.608  11.095
44294W        W 9279   9.168  38.572   3.653
44295W        W 9280  14.668   7.444  10.913
44296W        W 9281  36.544  29.629   5.106
44297W        W 9282  42.460  26.317   5.469
44298W        W 9283  14.639  37.048  12.061
44299W        W 9284  19.503  41.379  14.022
44300W        W 9285   5.253  13.550  12.163
44301W        W 9286  44.530  19.597   2.290
44302W        W 9287  34.505  12.771   4.690
44303W        W 9288  31.673  25.815   1.255
44304W        W 9289  16.546  35.094   3.269
44305W        W 9290  41.542  31.393   2.288
44306W        W 9291   6.324   0.902   4.190
44307W        W 9292   4.278   4.775  12.015
44308W        W 9293   4.083  21.816  14.021
44309W        W 9294  36.551  42.725   2.929
44310W        W 9295   4.983  30.371  12.646
44311W        W 9296  21.973  10.832  14.256
44312W        W 9297  37.151  37.857  13.885
44313W        W 9298  13.426  18.090  12.115
44314W        W 9299  14.761  26.910  12.883
44315W        W 9300  41.738  35.522  11.996
44316W        W 9301  23.609   4.656  10.581
44317W        W 9302  36.344  42.283   4.197
44318W        W 9303  16.213  38.203  11.931
44319W        W 9304  10.860  11.463   0.278
44320W        W 9305  21.555  42.427  12.877
44321W        W 9306  12.665  12.062   4.029
44322W        W 9307   8.676  42.258  11.111
44323W        W 9308  31.014  32.911  14.359
44324W        W 9309  16.135  20.980   4.494
44325W        W 9310  17.101   7.339  13.588
44326W        W 9311  28.486  29.702  13.047
44327W        W 9312  17.160  23.026   4.559
44328W        W 9313   9.228   0.566   1.382
44329W        W 9314  13.863   5.226   3.660
44330W        W 9315  19.063  17.182   4.901
44331W        W 9316  41.789  35.445   4.106
44332W        W 9317  33.004  16.349  14.930
44333W        W 9318   4.795   5.306   0.670
44334W        W 9319  25.054  24.226  13.522
44335W        W 9320  27.461   0.291   1.254
44336W        W 9321   9.679  17.292  13.951
44337W        W 9322  15.123  43.301   0.407
44338W        W 9323  24.176  25.564  10.420
44339W        W 9324  17.778  27.505   3.243
44340W        W 9325  22.792  38.924   0.247
44341W        W 9326  37.408  37.237   1.765
44342W        W 9327  13.812  16.617  14.863
44343W        W 9328  25.030  17.670   4.654
44344W        W 9329  38.392  20.651  14.863
44345W        W 9330  18.681  30.902  11.881
44346W        W 9331  32.716  35.655   2.284
44347W        W 9332  30.380  27.980   4.825
44348W        W 9333  17.158  10.185  12.677
44349W        W 9334  31.838  20.227  12.912
44350W        W 9335  25.536  38.073   0.445
44351W        W 9336  15.291  17.998   1.260
44352W        W 9337  16.675   2.428  14.068
44353W        W 9338   6.935  37.367   1.672
44354W        W 9339  16.323   8.543   1.890
44355W        W 9340  44.065  43.042   4.441
44356W        W 9341  15.946  35.005   1.591
44357W        W 9342  24.650  44.199  11.113
44358W        W 9343   9.330  25.224  13.496
44359W        W 9344  30.669  10.127   2.178
44360W        W 9345  16.115  39.282  14.823
44361W        W 9346  32.411  11.690   2.814
44362W        W 9347  36.025  16.723  13.999
44363W        W 9348  36.929  24.886  13.310
44364W        W 9349  15.281   9.668   4.489
44365W        W 9350  28.403  26.664   1.098
44366W        W 9351  36.007  36.556   3.306
44367W        W 9352  19.194   1.554   0.930
44368W        W 9353   0.292   2.286   4.722
44369W        W 9354   2.493  34.014  12.906
44370W        W 9355  18.557   5.162  14.296
44371W        W 9356  29.983  32.447  10.714
44372W        W 9357   7.687  24.530   1.936
44373W        W 9358  44.789  44.413   2.172
44374W        W 9359  35.580  41.812  12.051
44375W        W 9360  12.813  33.029   0.960
44376W        W 9361  40.488  35.376   1.361
44377W        W 9362   8.165  35.425   1.958
44378W        W 9363  22.597  16.712  13.308
44379W        W 9364   8.807   9.075   3.356
44380W        W 9365  31.506  12.173   4.536
44381W        W 9366  17.969  41.503   4.295
44382W        W 9367   0.459   4.982  10.643
44383W        W 9368   7.256  14.795  11.569
44384W        W 9369  29.911  29.691  12.997
44385W        W 9370  21.754  22.606  12.133
44386W        W 9371  14.549   7.362  14.635
44387W        W 9372  31.130  33.664  14.834
44388W        W 9373  14.324  29.119   3.643
44389W        W 9374  36.125  28.161  11.185
44390W        W 9375  17.359  44.962  13.879
44391W        W 9376  25.282  19.690   3.914
44392W        W 9377  18.729  12.246  12.406
44393W        W 9378  16.719  25.869   4.977
44394W        W 9379  30.946  19.786  13.758
44395W        W 9380  36.700  39.346   3.880
44396W        W 9381   8.579  15.630  11.443
44397W        W 9382  34.578  37.593   3.122
44398W        W 9383  31.514  36.311   0.919
44399W        W 9384   8.213   5.713   3.620
44400W        W 9385   2.563  39.901   1.612
44401W        W 9386  36.945  29.923  10.727
44402W        W 9387  16.332  14.683   3.600
44403W        W 9388  43.021  37.578   3.800
44404W        W 9389   2.181  29.125  11.727
44405W        W 9390  33.558  31.413  13.605
44406W        W 9391  44.063  15.106  12.924
44407W        W 9392  18.521   6.781   3.267
44408W        W 9393  22.988  11.574   1.625
44409W        W 9394  17.036  13.536   4.065
44410W        W 9395  40.268  23.997  10.678
44411W        W 9396   3.143  22.429  10.626
44412W        W 9397  25.668  29.117  14.047
44413W        W 9398  20.103  32.015   2.196
44414W        W 9399  34.013  21.788  13.618
44415W        W 9400   0.904   9.096   2.633
44416W        W 9401  32.233   3.354  13.948
44417W        W 9402  42.969  40.761   1.261
44418W        W 9403  25.619   2.691  14.898
44419W        W 9404  26.741  28.129   2.879
44420W        W 9405  33.137   8.892   1.930
44421W        W 9406  24.979  14.353  13.972
44422W        W 9407  12.678  21.262  12.717
44423W        W 9408  42.926  26.415  14.536
44424W        W 9409  36.913  35.445   2.366
44425W        W 9410  20.977  10.830   2.093
44426W        W 9411  42.047  13.657   3.245
44427W        W 9412   1.604  29.464   2.795
44428W        W 9413  32.206  15.341   2.273
44429W        W 9414  32.676  20.009   0.958
44430W        W 9415   3.702   3.560  10.985
44431W        W 9416  14.901  19.096   4.002
44432W        W 9417   4.459  27.668  11.266
44433W        W 9418  14.020  39.643  14.078
44434W        W 9419  24.490  44.949  10.669
44435W        W 9420  20.239  20.307  13.004
44436W        W 9421  33.587   5.902  11.923
44437W        W 9422   1.317  42.617   1.290
44438W        W 9423  33.129  32.159  13.471
44439W        W 9424  15.333  36.106  11.747
44440W        W 9425  42.413  22.175   2.479
44441W        W 9426  32.158  35.915   2.693
44442W        W 9427  37.739  33.095  14.469
44443W        W 9428  31.672  34.686  12.499
44444W        W 9429  26.169  39.446  12.127
44445W        W 9430   0.133  34.001  10.082
44446W        W 9431   8.195  39.001  14.524
44447W        W 9432  23.606  30.722   9.729
44448W        W 9433  18.314  36.625   4.525
44449W        W 9434  17.379  13.840   0.030
44450W        W 9435  26.391   5.154  14.788
44451W        W 9436   7.396  39.805   1.280
44452W        W 9437  44.267  41.934  12.429
44453W        W 9438   2.880  24.582  13.266
44454W        W 9439   6.839  15.219   0.314
44455W        W 9440  42.057  16.456  10.785
44456W        W 9441  25.579  40.314   1.316
44457W        W 9442  44.551  16.263  12.375
44458W        W 9443  32.303  25.981  10.537
44459W        W 9444   0.514  35.054   3.820
44460W        W 9445  24.499  37.094   3.816
44461W        W 9446  14.764  28.776   2.562
44462W        W 9447  34.322  17.099  11.429
44463W        W 9448  42.388  10.621  12.491
44464W        W 9449   3.154  20.510   2.184
44465W        W 9450  24.515  17.118   1.292
44466W        W 9451  35.825  17.453  14.385
44467W        W 9452   2.810  29.069   1.995
44468W        W 9453  37.019  15.089   3.082
44469W        W 9454   4.663   3.870  10.679
44470W        W 9455  31.367  41.037   0.875
44471W        W 9456  30.868  11.648  14.815
44472W        W 9457  19.192  44.016  13.357
44473W        W 9458  29.941  16.825  10.490
44474W        W 9459  43.358  26.162  11.876
44475W        W 9460  16.087   8.736   2.290
44476W        W 9461   5.612   8.836   0.851
44477W        W 9462  36.431  15.701  14.435
44478W        W 9463  27.690  34.299  13.502
44479W        W 9464  31.440   3.435  14.882
44480W        W 9465  39.517  25.594  12.911
44481W        W 9466  31.928   9.762   4.598
44482W        W 9467  25.557  16.555  10.743
44483W        W 9468  11.726  32.347  10.446
44484W        W 9469  19.610  38.871   3.372
44485W        W 9470  29.561  37.764  11.084
44486W        W 9471  22.600  21.534  11.172
44487W        W 9472  35.994  14.345   1.685
44488W        W 9473  38.286  27.313  12.451
44489W        W 9474  15.203  13.750  12.226
44490W        W 9475   8.954  28.152   1.064
44491W        W 9476   2.812   2.282   3.317
44492W        W 9477  43.029  13.285   3.635
44493W        W 9478  38.596  32.458  12.570
44494W        W 9479  16.543  43.294   0.852
44495W        W 9480  14.101  23.285   0.940
44496W        W 9481  31.747  21.292   4.649
44497W        W 9482  12.342   7.689   0.263
44498W        W 9483  20.539  30.022   1.806
44499W        W 9484  23.903  28.593   2.115
44500W        W 9485  20.593   9.411  13.792
44501W        W 9486   8.840  38.926   0.557
44502W        W 9487  20.500  12.609  12.066
44503W        W 9488  42.348  26.209  14.376
44504W        W 9489   2.075  31.152   4.324
44505W        W 9490  12.312  31.879  14.152
44506W        W 9491  36.348  10.885  11.655
44507W        W 9492  29.992  41.299  14.710
44508W        W 9493  24.476  17.660  11.225
44509W        W 9494   1.988  37.681   2.807
44510W        W 9495   0.734  14.258  14.214
44511W        W 9496  40.969  44.226   1.421
44512W        W 9497  41.735  28.190  11.187
44513W        W 9498   6.429  44.698   1.296
44514W        W 9499  43.775  38.906  14.722
44515W        W 9500   1.932   6.212  10.574
44516W        W 9501   4.050  39.163  13.867
44517W        W 9502  27.758  13.058  11.593
44518W        W 9503  39.998  40.899  12.142
44519W        W 9504   4.394  39.501  12.572
44520W        W 9505  34.605  15.689  14.397
44521W        W 9506  29.566  32.458   0.622
44522W        W 9507  44.045  16.379  10.580
44523W        W 9508   6.435  38.436  11.344
44524W        W 9509   0.096  33.020  12.507
44525W        W 9510   3.776  12.134  11.095
44526W        W 9511  36.786  23.284  11.148
44527W        W 9512  32.910   5.687  13.079
44528W        W 9513   8.904  37.866  14.749
44529W        W 9514   5.714  28.487   1.034
44530W        W 9515  21.187  43.042  13.242
44531W        W 9516  14.981   1.927   5.038
44532W        W 9517  12.580   2.673   1.357
44533W        W 9518  13.388  35.158  11.487
44534W        W 9519  16.102   0.478   4.837
44535W        W 9520  18.827   0.553   2.285
44536W        W 9521  39.674  35.562  14.303
44537W        W 9522  19.253  33.648   2.237
44538W        W 9523  24.431  23.222   3.505
44539W        W 9524  12.301   4.274  13.588
44540W        W 9525  14.200  20.263  12.141
44541W        W 9526   2.762   2.763  12.085
44542W        W 9527  33.927  44.603   1.270
44543W        W 9528  31.099   2.712  13.949
44544W        W 9529   1.894  27.538  12.439
44545W        W 9530  17.689   7.851   1.389
44546W        W 9531  33.995  36.841  10.635
44547W        W 9532   9.104  27.164   0.121
44548W        W 9533  19.656  21.042   2.228
44549W        W 9534  15.561   8.349  14.498
44550W        W 9535   8.810  18.304  11.221
44551W        W 9536  14.471  36.411   3.379
44552W        W 9537  14.119  42.539   1.920
44553W        W 9538   2.015  44.387   3.182
44554W        W 9539  17.515  20.800  10.716
44555W        W 9540   9.301  21.833   4.035
44556W        W 9541  31.382  15.792  13.983
44557W        W 9542   3.729   1.034   1.905
44558W        W 9543   2.229  19.445  13.054
44559W        W 9544  17.664  41.184   3.265
44560W        W 9545  27.879  23.031   0.127
44561W        W 9546  23.132  33.931   3.253
44562W        W 9547   1.255  38.051  11.870
44563W        W 9548   5.539  33.317  14.135
44564W        W 9549  33.939  32.038   1.182
44565W        W 9550   0.301  42.823  11.605
44566W        W 9551  13.037  35.870  13.344
44567W        W 9552   3.626   5.615   4.517
44568W        W 9553  30.882  40.991  12.166
44569W        W 9554  36.291  34.844   0.261
44570W        W 9555  32.169  24.688  13.512
44571W        W 9556  29.511  19.142  10.909
44572W        W 9557  36.420  43.908   0.512
44573W        W 9558  43.433  24.981   0.454
44574W        W 9559  22.158   9.443   2.659
44575W        W 9560   4.146  14.403   1.696
44576W        W 9561  35.571  12.839   0.521
44577W        W 9562  15.284  44.394   2.938
44578W        W 9563  29.459  35.142  11.577
44579W        W 9564  28.141  25.475  12.520
44580W        W 9565  44.759  13.612  12.993
44581W        W 9566  30.202  19.679  13.460
44582W        W 9567  37.021  44.882   2.047
44583W        W 9568  23.530  30.667   0.907
44584W        W 9569  16.055  18.080   4.396
44585W        W 9570  17.881  18.523   0.398
44586W        W 9571  39.465  34.415   1.836
44587W        W 9572   1.431  20.704  10.434
44588W        W 9573  42.439  24.139  11.058
44589W        W 9574   7.494  36.911  14.347
44590W        W 9575  30.268  17.347  13.073
44591W        W 9576   8.892  29.324   4.079
44592W        W 9577  27.922   8.006   4.449
44593W        W 9578  21.707  18.569   2.129
44594W        W 9579  32.832  24.281  11.995
44595W        W 9580  12.353  39.391   1.338
44596W        W 9581  11.870  32.303  13.563
44597W        W 9582   1.201   9.957   2.605
44598W        W 9583  26.030  44.000   4.564
44599W        W 9584  37.826  31.734  12.973
44600W        W 9585  30.691   1.909  13.504
44601W        W 9586  30.995   1.379   0.868
44602W        W 9587  35.560   7.423   1.855
44603W        W 9588  11.194   0.503   0.818
44604W        W 9589  29.425  22.312   4.183
44605W        W 9590   6.866   2.749   4.487
44606W        W 9591  18.862  12.831  10.178
44607W        W 9592  37.956  27.565  11.551
44608W        W 9593  18.736   8.642  11.155
44609W        W 9594  40.541  17.950  12.659
44610W        W 9595   1.835  27.896   0.573
44611W        W 9596  44.183  20.112  13.514
44612W        W 9597  42.968  33.161   0.008
44613W        W 9598  23.438  15.712  14.514
44614W        W 9599  20.701   7.915   2.152
44615W        W 9600  42.898  42.467   1.273
44616W        W 9601   0.288  16.263   5.074
44617W        W 9602  38.024  39.480  10.484
44618W        W 9603  16.174  33.971  11.613
44619W        W 9604   4.899  33.413  11.672
44620W        W 9605  21.628  13.268  10.690
44621W        W 9606  33.890  25.045  11.611
44622W        W 9607   9.833  24.600   3.621
44623W        W 9608  43.422  30.158  13.854
44624W        W 9609  13.632  20.637   4.100
44625W        W 9610  20.829  39.827   1.797
44626W        W 9611  17.606   2.407   2.389
44627W        W 9612  28.703  40.488  14.700
44628W        W 9613   2.381  24.060   1.234
44629W        W 9614  13.203  29.951  14.708
44630W        W 9615  20.811  37.854  13.421
44631W        W 9616  35.912  26.026   1.460
44632W        W 9617   7.783  14.897  11.500
44633W        W 9618   8.348  13.713  14.218
44634W        W 9619  22.439  41.581  11.648
44635W        W 9620  31.414  17.130   1.759
44636W        W 9621   0.977  20.572   4.284
44637W        W 9622  20.241  13.723  14.036
44638W        W 9623  34.866  44.031   4.258
44639W        W 9624   8.733  40.572   2.617
44640W        W 9625  34.851   9.330   9.957
44641W        W 9626   6.879  41.934  11.174
44642W        W 9627  29.523  37.489  13.532
44643W        W 9628  20.260  31.563   2.419
44644W        W 9629  22.239  33.502   0.032
44645W        W 9630  37.095  42.908   1.854
44646W        W 9631   4.174  14.901   2.625
44647W        W 9632  41.497  39.308   4.673
44648W        W 9633  22.178  21.531  14.019
44649W        W 9634   3.556   7.816   4.406
44650W        W 9635  20.052  30.615  12.486
44651W        W 9636   7.633   3.412   2.248
44652W        W 9637   7.419  36.545  10.731
44653W        W 9638  16.783  12.686   2.344
44654W        W 9639  24.724  18.103   3.793
44655W        W 9640  38.131  24.464  14.471
44656W        W 9641  15.133   2.742  12.815
44657W        W 9642  39.363  21.568  13.790
44658W        W 9643  39.369  11.750   0.207
44659W        W 9644  15.768  25.900   9.986
44660W        W 9645  31.171  20.039   2.342
44661W        W 9646   9.566  19.180   4.702
44662W        W 9647  21.255  25.957   3.686
44663W        W 9648  32.677   2.913  13.064
44664W        W 9649  14.798  32.178   1.259
44665W        W 9650  12.283   3.674  14.210
44666W        W 9651   5.291   1.497  13.454
44667W        W 9652  13.628  15.787  13.871
44668W        W 9653  34.283  40.046   2.277
44669W        W 9654   3.377   8.735  13.967
44670W        W 9655  20.112  40.362   1.625
44671W        W 9656  10.752   4.219  14.492
44672W        W 9657  24.707  44.394   2.056
44673W        W 9658  35.908  42.373   1.384
44674W        W 9659  40.518   5.239  11.658
44675W        W 9660  26.744  13.321  14.377
44676W        W 9661  42.934  20.194   4.020
44677W        W 9662  12.355  33.436  11.968
44678W        W 9663  36.603  17.591  10.775
44679W        W 9664  30.957   3.247   4.211
44680W        W 9665  10.250  32.364   2.706
44681W        W 9666  25.227   9.266   3.180
44682W        W 9667  41.832  33.799  13.512
44683W        W 9668   3.451  29.170  12.958
44684W        W 9669   1.792  24.571  13.043
44685W        W 9670  17.373   9.047   1.113
44686W        W 9671  32.993  28.160  12.463
44687W        W 9672   1.247  33.038  11.117
44688W        W 9673  31.848  22.551  13.258
44689W        W 9674  12.872  36.950   1.409
44690W        W 9675  24.274  25.070  14.891
44691W        W 9676  39.048  24.100   1.223
44692W        W 9677   4.822  16.096  11.165
44693W        W 9678  34.559  40.873  11.079
44694W        W 9679  43.473  24.881  10.148
44695W        W 9680  20.039  43.054  12.253
44696W        W 9681  35.932  15.265   2.383
44697W        W 9682   1.831  30.126  12.094
44698W        W 9683  24.091  12.285  13.864
44699W        W 9684   7.107   7.442  11.162
44700W        W 9685  18.026  39.268   4.460
44701W        W 9686  24.636   4.420   0.817
44702W        W 9687  24.287  10.995   1.849
44703W        W 9688  17.625  17.178   2.230
44704W        W 9689  10.699  18.852   4.173
44705W        W 9690   2.847   4.035   2.725
44706W        W 9691  29.299   4.693   0.924
44707W        W 9692  34.590  20.067  10.793
44708W        W 9693  38.278  28.916   1.504
44709W        W 9694  19.794  14.312   0.837
44710W        W 9695  39.316  42.598  12.137
44711W        W 9696   9.681  27.744   1.415
44712W        W 9697  11.786   4.942   4.099
44713W        W 9698  39.640  10.178   2.631
44714W        W 9699  35.959  30.035   0.688
44715W        W 9700  31.780   4.363   2.896
44716W        W 9701  15.182  32.710   4.354
44717W        W 9702   9.809  29.122  13.334
44718W        W 9703  36.025  23.603   2.397
44719W        W 9704  28.476  14.235  14.141
44720W        W 9705  36.411   2.458   2.121
44721W        W 9706  15.109   4.671  14.124
44722W        W 9707   1.074  30.766  12.609
44723W        W 9708  38.577  23.039  10.731
44724W        W 9709   5.747  44.816  11.502
44725W        W 9710  14.628  27.884   3.153
44726W        W 9711  38.861  31.376  11.937
44727W        W 9712  38.084  43.507  11.095
44728W        W 9713  40.373  37.296  14.730
44729W        W 9714  21.499   4.768   9.900
44730W        W 9715  43.017  13.344  12.903
44731W        W 9716   4.235   8.011   1.602
44732W        W 9717   8.890  15.371  13.291
44733W        W 9718  11.849  22.558   0.193
44734W        W 9719  27.422  40.462   1.661
44735W        W 9720  20.559  13.282  11.502
44736W        W 9721  33.861  27.032  13.665
44737W        W 9722  16.691  11.023   4.780
44738W        W 9723  26.920   2.362   1.780
44739W        W 9724  37.976  17.062   0.924
44740W        W 9725  11.449  17.370  13.908
44741W        W 9726  15.350  30.227  11.186
44742W        W 9727  21.330   2.335   2.294
44743W        W 9728   3.952   7.607   4.656
44744W        W 9729  33.475   1.989   1.330
44745W        W 9730  19.187  30.824   1.822
44746W        W 9731  23.273  14.573   0.921
44747W        W 9732  37.768   7.597   4.021
44748W        W 9733  32.606  12.520   5.563
44749W        W 9734  41.243   9.784   3.552
44750W        W 9735  31.180   9.936  12.967
44751W        W 9736  21.996  37.922  14.064
44752W        W 9737  16.484  21.485   2.811
44753W        W 9738  23.503  26.856  14.408
44754W        W 9739  25.158   3.755  11.528
44755W        W 9740  17.140  18.089   0.768
44756W        W 9741  10.686  29.969  12.906
44757W        W 9742  20.567   2.209  11.164
44758W        W 9743   6.083   5.737   1.359
44759W        W 9744   4.755  32.066  10.799
44760W        W 9745  34.084  42.939  10.566
44761W        W 9746  37.502  32.881   3.812
44762W        W 9747  42.963  29.445  10.673
44763W        W 9748  27.222  35.921  11.602
44764W        W 9749  10.742  21.677   1.319
44765W        W 9750  20.202   6.074  13.782
44766W        W 9751   2.812  42.794   4.480
44767W        W 9752  10.617  44.389   4.172
44768W        W 9753  43.880  17.800   1.969
44769W        W 9754  25.268  11.767  11.138
44770W        W 9755   6.914   1.568  13.065
44771W        W 9756   8.175  33.053  12.371
44772W        W 9757  25.238   5.808  13.519
44773W        W 9758  12.049   2.713   0.799
44774W        W 9759  19.343  12.053   0.809
44775W        W 9760  12.576  40.036  11.136
44776W        W 9761  42.457  10.629   4.488
44777W        W 9762   4.218   1.804   3.178
44778W        W 9763  36.059  21.574   0.371
44779W        W 9764   2.817  16.325  13.290
44780W        W 9765   1.461  26.229   1.808
44781W        W 9766   5.423  33.590  11.885
44782W        W 9767   5.247   9.353   0.016
44783W        W 9768  42.855  21.542  10.833
44784W        W 9769  42.858  41.706  13.442
44785W        W 9770  17.751   5.899  14.952
44786W        W 9771   4.874   9.708  13.506
44787W        W 9772   4.800  18.310  13.568
44788W        W 9773  41.503   2.691  10.600
44789W        W 9774  36.861  36.981   1.870
44790W        W 9775  44.283   7.793  12.637
44791W        W 9776   3.267  28.525  12.110
44792W        W 9777  27.203  28.788  14.815
44793W        W 9778   6.453  34.010  13.474
44794W        W 9779   6.776   9.498  11.734
44795W        W 9780  15.586  24.231  11.117
44796W        W 9781  24.903   9.784   2.359
44797W        W 9782  28.573  40.295  12.851
44798W        W 9783  38.090  13.653  10.961
44799W        W 9784  30.401  33.922   2.198
44800W        W 9785  14.556  10.846   4.553
44801W        W 9786   9.865  27.641  12.543
44802W        W 9787  17.831  39.919   2.095
44803W        W 9788  16.177  34.530  10.748
44804W        W 9789  33.346  24.593   4.036
44805W        W 9790   6.903  43.953  14.691
44806W        W 9791  17.748   2.621   4.699
44807W        W 9792  25.629  27.688  12.929
44808W        W 9793  38.289  27.977   2.409
44809W        W 9794  32.406  40.157   4.111
44810W        W 9795  16.698  42.811  12.718
44811W        W 9796   9.355  31.619   1.475
44812W        W 9797  34.132   2.873   3.715
44813W        W 9798   6.353  14.136   1.952
44814W        W 9799  30.864   9.113  12.424
44815W        W 9800  23.057   1.592   5.120
44816W        W 9801   0.941  44.139  13.878
44817W        W 9802  32.200  29.137  12.885
44818W        W 9803   3.867  14.350   0.258
44819W        W 9804  16.608  16.604   0.329
44820W        W 9805  26.728  25.783   0.875
44821W        W 9806  11.552  32.878   2.937
44822W        W 9807  11.665  22.486   4.931
44823W        W 9808  39.280   2.041  13.405
44824W        W 9809   3.916  12.743  11.600
44825W        W 9810   8.639   1.202   4.569
44826W        W 9811  20.644  23.495   4.521
44827W        W 9812  22.322  29.664   0.899
44828W        W 9813  16.017  11.291   0.093
44829W        W 9814  16.448   1.424   2.816
44830W        W 9815   9.970  37.359   0.369
44831W        W 9816  35.588  18.557   2.371
44832W        W 9817  24.017   3.799   3.677
44833W        W 9818  24.524   7.886   3.322
44834W        W 9819   2.002  40.225  12.535
44835W        W 9820  11.649  24.199   4.063
44836W        W 9821  18.900   8.633   1.773
44837W        W 9822  31.596  11.688  12.126
44838W        W 9823  29.889  11.417  11.406
44839W        W 9824  19.243  39.388   3.608
44840W        W 9825  23.272  24.825   1.301
44841W        W 9826  27.927  19.219   4.496
44842W        W 9827  37.633  41.363   1.673
44843W        W 9828  11.209  40.331   3.278
44844W        W 9829  24.555  17.356  14.855
44845W        W 9830  22.948  22.583  12.553
44846W        W 9831  14.317  21.580  12.510
44847W        W 9832  36.556   0.469  12.899
44848W        W 9833  41.778  37.897  13.794
44849W        W 9834  16.012  32.619   3.734
44850W        W 9835  15.218  43.910  13.384
44851W        W 9836   8.788  22.739  11.097
44852W        W 9837  41.003  15.199  14.421
44853W        W 9838   9.903  16.909  12.911
44854W        W 9839   3.518  17.385  11.381
44855W        W 9840  27.511  15.642   1.992
44856W        W 9841  10.386   3.511   5.063
44857W        W 9842   8.726   6.956  12.774
44858W        W 9843  11.879   6.767  14.959
44859W        W 9844   2.846   8.754   9.924
44860W        W 9845  16.153  18.149   0.931
44861W        W 9846  29.836  37.564   0.958
44862W        W 9847  12.168  10.758   4.052
44863W        W 9848  27.463  39.751   3.208
44864W        W 9849  14.156   9.416  11.562
44865W        W 9850  16.241  26.156   2.453
44866W        W 9851  24.073   7.685   1.275
44867W        W 9852  37.634   7.100   3.933
44868W        W 9853  13.820  11.912   1.897
44869W        W 9854  11.768   8.767  12.921
44870W        W 9855  28.673  14.459   2.532
44871W        W 9856  30.454  39.149   3.381
44872W        W 9857   6.384  18.734  12.450
44873W        W 9858  27.037   0.362  11.010
44874W        W 9859   0.370  11.105   1.232
44875W        W 9860   7.430  34.353  13.474
44876W        W 9861  13.588  15.616  14.736
44877W        W 9862  15.342  38.067   4.615
44878W        W 9863  34.469  35.827  12.598
44879W        W 9864  44.262  26.053  11.603
44880W        W 9865  10.844   4.676   2.242
44881W        W 9866  41.884  23.029  14.447
44882W        W 9867  44.215  17.797  10.286
44883W        W 9868  30.140  27.226  14.937
44884W        W 9869  26.742  32.833  13.964
44885W        W 9870  35.969  32.170   1.103
44886W        W 9871  42.892  12.822   3.863
44887W        W 9872  23.806   5.241   4.211
44888W        W 9873  22.390  24.559   1.565
44889W        W 9874  30.661  42.452  12.468
44890W        W 9875  43.437  33.179  14.297
44891W        W 9876  44.083  17.173   3.569
44892W        W 9877  44.061  21.020  13.526
44893W        W 9878  21.968  28.500   3.732
44894W        W 9879   0.247  42.305  11.618
44895W        W 9880  17.214   0.558  11.418
44896W        W 9881   7.711  17.949  14.751
44897W        W 9882  28.878   9.171  13.928
44898W        W 9883   6.855  33.092   0.957
44899W        W 9884  29.153   8.764   1.214
44900W        W 9885  18.595   5.213   2.674
44901W        W 9886  37.362  33.652   2.249
44902W        W 9887   8.664  12.029  11.459
44903W        W 9888   3.100  32.883  12.355
44904W        W 9889  14.849  16.291  14.826
44905W        W 9890  12.684  43.453  13.890
44906W        W 9891  43.467  42.823   0.397
44907W        W 9892  25.706  22.095  12.429
44908W        W 9893  19.540   8.745   1.280
44909W        W 9894  41.952  19.561   1.466
44910W        W 9895  36.232   2.696  12.131
44911W        W 9896  30.992   4.041   3.152
44912W        W 9897  15.317  24.995   4.713
44913W        W 9898   3.332  29.201  13.452
44914W        W 9899  34.890  41.877  13.616
44915W        W 9900  26.241  44.020  13.392
44916W        W 9901  14.594  43.027   2.874
44917W        W 9902  20.739  36.091  13.936
44918W        W 9903  28.113  37.665   3.579
44919W        W 9904  30.538  28.993  14.941
44920W        W 9905  41.264  38.492   0.066
44921W        W 9906   2.921  36.850  14.998
44922W        W 9907  15.363  22.203  10.350
44923W        W 9908  37.479  38.796   1.688
44924W        W 9909  25.164  26.141   3.986
44925W        W 9910  29.248  24.763  13.941
44926W        W 9911  38.293   4.240   3.664
44927W        W 9912  41.984   7.330   4.191
44928W        W 9913  19.263   1.394  13.898
44929W        W 9914  16.722  21.342  14.987
44930W        W 9915  23.271  16.632   1.477
44931W        W 9916  16.294  10.899  13.323
44932W        W 9917  31.943  17.332   2.577
44933W        W 9918  27.327  23.191  11.331
44934W        W 9919   8.668  42.348   3.776
44935W        W 9920  24.199   2.288  12.490
44936W        W 9921  34.058  26.610   3.659
44937W        W 9922  23.814  23.313   1.693
44938W        W 9923  38.441   0.531  13.432
44939W        W 9924  13.645  14.862  12.138
44940W        W 9925   4.022  44.428   3.224
44941W        W 9926   6.258   4.729  12.023
44942W        W 9927  11.203  33.645   3.784
44943W        W 9928  16.100   5.666  14.049
44944W        W 9929   3.686  37.878   0.662
44945W        W 9930  33.463   6.864   9.597
44946W        W 9931  17.285  33.433   4.201
44947W        W 9932  22.066   7.935  13.519
44948W        W 9933  39.756   7.447  13.805
44949W        W 9934  31.139  13.770   0.428
44950W        W 9935  29.094  27.755  12.288
44951W        W 9936  14.363   8.930   3.691
44952W        W 9937  14.075   8.928  10.698
44953W        W 9938  41.362  21.523  13.511
44954W        W 9939  31.825   3.897   2.683
44955W        W 9940  35.623   5.755   4.180
44956W        W 9941  40.419   2.676  13.549
44957W        W 9942   0.092  24.506  14.726
44958W        W 9943   0.443  31.523   2.780
44959W        W 9944  35.601  36.393   2.635
44960W        W 9945  29.693  38.268  12.030
44961W        W 9946   2.869  39.541   0.965
44962W        W 9947   2.784  42.475  11.286
44963W        W 9948  42.697  29.797  13.132
44964W        W 9949  17.180  24.617   0.033
44965W        W 9950  35.192  11.633   1.283
44966W        W 9951  10.346   6.973  14.812
44967W        W 9952  10.298  40.791   1.492
44968W        W 9953   0.570   2.469   4.309
44969W        W 9954  37.277  28.073   3.324
44970W        W 9955  13.915  32.839   2.108
44971W        W 9956  27.405   9.257  12.585
44972W        W 9957   7.314  24.041   4.661
44973W        W 9958  10.482   4.205   1.315
44974W        W 9959   0.581  30.560  11.011
44975W        W 9960  39.542   1.805   1.943
44976W        W 9961  27.581  24.649  14.466
44977W        W 9962  31.654  16.381  10.625
44978W        W 9963  41.845   9.866  14.952
44979W        W 9964  19.630  11.646   0.525
44980W        W 9965   6.212  41.768  12.790
44981W        W 9966   9.381  43.701   1.747
44982W        W 9967   9.305  28.182  10.666
44983W        W 9968  43.892  39.283  11.653
44984W        W 9969  36.197  43.197  14.262
44985W        W 9970  29.305  32.016   0.287
44986W        W 9971   6.924  21.723  10.692
44987W        W 9972  39.043  33.878   0.289
44988W        W 9973  42.265  35.604   0.706
44989W        W 9974  36.580  43.914  14.545
44990W        W 9975  25.423  38.547   4.073
44991W        W 9976   2.220   2.990   0.211
44992W        W 9977  29.991   8.695   4.567
44993W        W 9978  31.046   2.279  14.926
44994W        W 9979  43.462   0.981   0.382
44995W        W 9980  18.842  25.460  13.227
44996W        W 9981  12.213  44.568   1.021
44997W        W 9982  25.251  35.338  10.998
44998W        W 9983  18.645  23.121   4.183
44999W        W 9984  24.006  29.922  12.911
45000W        W 9985   3.604  20.404  14.363
45001W        W 9986  37.525  36.604  14.433
45002W        W 9987  27.165  35.111  14.092
45003W        W 9988  13.073   1.068  11.672
45004W        W 9989  32.704  27.240   1.258
45005W        W 9990   1.249   1.992  13.009
45006W        W 9991   6.332  12.236   2.642
45007W        W 9992   5.807   3.175  12.911
45008W        W 9993  23.959  34.383   1.229
45009W        W 9994  29.365  41.899  11.097
45010W        W 9995  19.973   7.775   3.728
45011W        W 9996  10.655  41.793  13.956
45012W        W 9997   4.783  33.841  13.017
45013W        W 9998  42.914  41.518  12.963
45014W        W 9999   4.848   7.198   1.648
45015W        W10000  25.528  24.699  12.556
45016W        W10001  31.108   9.739   9.980
45017W        W10002  12.252  40.412  12.682
45018W        W10003   8.959  27.535   2.751
45019W        W10004  25.033   3.978  12.004
45020W        W10005  11.639  28.444  13.946
45021W        W10006  10.887  11.713   3.784
45022W        W10007  42.493   8.946   1.100
45023W        W10008   8.885  34.401   0.705
45024W        W10009  36.523   8.010   4.559
45025W        W10010  16.017   6.270  12.121
45026W        W10011  36.418  32.911   1.512
45027W        W10012   0.103  30.941   2.078
45028W        W10013  19.744  15.063   3.240
45029W        W10014   5.385  41.945   2.347
45030W        W10015  44.545  18.389   4.020
45031W        W10016  14.276  39.982   0.734
45032W        W10017  39.954   7.193   0.416
45033W        W10018   9.302  25.609  12.945
45034W        W10019   0.909   7.980   0.397
45035W        W10020  22.225  38.560  12.901
45036W        W10021   3.207  11.757   4.216
45037W        W10022  38.766   7.234   1.238
45038W        W10023   7.732  21.222  14.086
45039W        W10024  25.663  26.188  11.599
45040W        W10025  38.321  25.305   4.145
45041W        W10026  15.750   9.623   1.377
45042W        W10027  38.481   0.785  12.966
45043W        W10028  19.676  44.479  12.764
45044W        W10029   3.285  17.216   2.424
45045W        W10030  36.469  20.243   0.396
45046W        W10031  29.050  17.558   4.040
45047W        W10032  11.619  39.127  14.883
45048W        W10033  39.425  38.019   3.453
45049W        W10034  14.626   7.271  11.922
45050W        W10035  38.318   0.845  11.662
45051W        W10036   5.476  26.527   5.109
45052W        W10037   0.821  14.190   1.709
45053W        W10038   3.912   4.696   2.535
45054W        W10039  28.521  41.920   0.786
45055W        W10040  26.489  34.295  14.884
45056W        W10041  11.113  41.612  11.898
45057W        W10042  13.960  40.528   2.966
45058W        W10043  32.246  22.726  12.465
45059W        W10044  35.064  26.787   1.480
45060W        W10045   2.030  16.462   3.300
45061W        W10046  25.971  19.796   2.724
45062W        W10047  19.100  16.096  13.130
45063W        W10048  31.566  23.665  10.832
45064W        W10049  12.966  43.972   0.198
45065W        W10050   6.450  38.792  14.470
45066W        W10051  21.062   5.294  13.014
45067W        W10052   7.136  34.660   0.966
45068W        W10053  35.408  43.051  10.647
45069W        W10054   8.354  35.636   4.170
45070W        W10055  16.157  31.393   1.263
45071W        W10056  37.412   6.840   4.338
45072W        W10057  27.883  35.614   1.774
45073W        W10058  34.892  41.486  13.264
45074W        W10059  11.256  11.959   2.207
45075W        W10060  38.376   9.673   2.706
45076W        W10061   1.576  33.969  14.546
45077W        W10062  22.102  17.281  13.280
45078W        W10063  18.267  25.573   0.412
45079W        W10064  21.390  30.797  13.481
45080W        W10065  40.427  40.583  14.989
45081W        W10066  16.901  13.717   0.147
45082W        W10067  21.986   0.554   3.441
45083W        W10068   4.401  41.496  14.864
45084W        W10069  39.873  35.940  11.840
45085W        W10070  41.966  10.230  11.548
45086W        W10071  36.853  37.916   4.393
45087W        W10072  30.233   8.919   0.435
45088W        W10073  12.095   5.478   0.910
45089W        W10074   4.461   2.878   4.197
45090W        W10075  44.306  26.497   0.256
45091W        W10076  35.976  17.775   2.652
45092W        W10077  37.720  41.275   3.552
45093W        W10078  41.867  38.871  14.431
45094W        W10079  16.746  12.293  12.088
45095W        W10080  38.312   7.217   0.938
45096W        W10081  23.455  44.078  13.376
45097W        W10082   6.635   0.419  13.990
45098W        W10083  39.661   6.221   0.133
45099W        W10084  39.253  15.159  11.803
45100W        W10085  39.718   5.822  11.921
45101W        W10086   3.996  17.147   0.920
45102W        W10087  31.535  36.888   3.871
45103W        W10088  18.516  36.904   0.326
45104W        W10089  23.452   1.760   3.637
45105W        W10090  23.527  20.605   2.726
45106W        W10091  19.051  21.782   2.687
45107W        W10092  38.906  40.095   0.662
45108W        W10093  18.699   3.684   4.367
45109W        W10094  40.831   3.909  13.792
45110W        W10095  38.041  28.445   0.350
45111W        W10096  12.652  13.692  13.182
45112W        W10097   8.597  16.765   1.789
45113W        W10098   2.369  16.703  10.200
45114W        W10099  27.130  32.551   4.729
45115W        W10100  36.386  16.740  11.119
45116W        W10101  30.675   9.220  14.375
45117W        W10102   7.977  36.366   2.366
45118W        W10103   8.251  20.080  12.460
45119W        W10104  31.589  18.649   1.953
45120W        W10105  43.588  16.924   3.637
45121W        W10106   2.255  22.706   3.289
45122W        W10107  13.175  19.915  12.211
45123W        W10108   4.360  28.416  11.598
45124W        W10109  17.594  38.969   3.725
45125W        W10110  35.840  28.640   0.787
45126W        W10111  44.138  29.335  11.133
45127W        W10112  28.837  11.240   3.192
45128W        W10113  40.836  20.710   2.851
45129W        W10114  22.279   3.302  11.918
45130W        W10115  11.692  33.517  10.811
45131W        W10116  43.076  10.815  11.274
45132W        W10117  22.231  15.595  14.785
45133W        W10118  15.585  15.219  12.397
45134W        W10119  29.093  41.035  12.087
45135W        W10120  34.279  38.972  14.541
45136W        W10121  24.950  18.581   4.719
45137W        W10122   0.536   0.303   0.228
45138W        W10123  38.281  18.305   0.453
45139W        W10124  13.562  15.657   3.328
45140W        W10125   6.250  40.257  10.644
45141W        W10126  11.394  31.534   3.616
45142W        W10127  12.316  43.369   3.235
45143W        W10128  26.121  31.650   3.728
45144W        W10129  34.899  30.339  11.968
45145W        W10130  40.289  17.010   2.229
45146W        W10131   3.874   4.928  10.688
45147W        W10132  17.031  28.385  11.170
45148W        W10133  21.815  13.387   2.781
45149W        W10134   0.889  28.343   3.303
45150W        W10135  37.411   1.809   3.408
45151W        W10136  35.113   4.840   4.189
45152W        W10137   3.347  42.381   3.972
45153W        W10138  20.196  15.424  14.026
45154W        W10139   9.887   0.273   2.068
45155W        W10140  33.978  22.242  13.860
45156W        W10141  24.631  33.626   1.434
45157W        W10142  36.399   6.880   0.301
45158W        W10143   3.366  14.294   0.107
45159W        W10144  25.499  29.433   1.863
45160W        W10145   8.865  42.725  11.296
45161W        W10146  10.853  40.775  13.778
45162W        W10147   2.665  42.062   0.101
45163W        W10148  36.574   0.962  13.058
45164W        W10149   5.954  16.352   2.127
45165W        W10150   4.719  44.776  14.604
45166W        W10151  15.536  32.734   3.528
45167W        W10152   2.018  44.343  12.134
45168W        W10153  40.332  12.776   3.443
45169W        W10154   6.083  12.204  14.023
45170W        W10155  14.494  44.265   2.216
45171W        W10156  41.003  10.853  12.068
45172W        W10157   3.237  32.526   4.251
45173W        W10158   2.271  29.378   2.718
45174W        W10159  25.778  36.461  14.776
45175W        W10160  23.733  28.510  13.923
45176W        W10161  15.590  21.134   3.639
45177W        W10162  43.253  21.052   9.661
45178W        W10163  14.202  14.763   1.886
45179W        W10164  15.808   7.522   0.333
45180W        W10165  28.652  35.264  12.838
45181W        W10166  22.018  43.508   3.240
45182W        W10167  29.628  33.466   3.357
45183W        W10168   7.757   2.480   5.118
45184W        W10169   9.497  41.292  13.512
45185W        W10170  19.301  32.619  11.579
45186W        W10171  30.669   7.710  10.259
45187W        W10172  44.433  25.745   1.357
45188W        W10173  31.758  41.865   4.397
45189W        W10174  18.068  40.804   3.730
45190W        W10175  16.206  30.257  12.061
45191W        W10176  30.953  14.507  14.967
45192W        W10177  24.745  44.436  12.397
45193W        W10178   7.451  26.208  14.790
45194W        W10179  38.949  40.678  10.354
45195W        W10180  44.722  11.828  14.812
45196W        W10181  41.393  40.261   1.038
45197W        W10182  26.918  36.963   3.689
45198W        W10183  32.840  31.077  12.085
45199W        W10184   2.381  31.659  13.346
45200W        W10185  11.213  21.340  13.046
45201W        W10186  33.706   6.662  10.542
45202W        W10187  15.576  22.157  12.970
45203W        W10188  18.802  25.724  11.980
45204W        W10189  10.400  12.875   1.671
45205W        W10190  22.229  33.339  14.555
45206W        W10191  10.440  28.130   1.269
45207W        W10192  28.351  42.415   0.772
45208W        W10193  21.835   7.042  14.403
45209W        W10194  36.026  31.879   4.596
45210W        W10195  10.915   2.524  14.894
45211W        W10196  10.237  34.042  13.035
45212W        W10197  22.173  40.172  12.483
45213W        W10198  19.273  11.642  10.888
45214W        W10199  13.903  35.155  10.670
45215W        W10200   4.243  15.278   0.502
45216W        W10201   7.627  30.665   0.810
45217W        W10202   9.292   0.774  12.833
45218W        W10203  15.690   9.584  14.823
45219W        W10204   1.887  42.203  12.905
45220W        W10205  40.155  19.950   3.335
45221W        W10206  17.017  17.866   4.284
45222W        W10207  22.430  43.566   0.475
45223W        W10208  37.794  12.265   2.852
45224W        W10209   4.610  11.993   2.193
45225W        W10210  21.171   8.796   0.849
45226W        W10211  13.190  17.552   0.985
45227W        W10212  28.699  24.996  10.583
45228W        W10213   9.244  17.634  11.986
45229W        W10214  32.031  22.031   2.137
45230W        W10215  26.167  12.767   2.666
45231W        W10216  44.537  19.506   4.576
45232W        W10217  18.427  40.372  13.450
45233W        W10218  37.582  26.966   2.268
45234W        W10219  31.967  31.720   4.290
45235W        W10220  33.384  23.050   0.490
45236W        W10221  44.923  32.776  12.054
45237W        W10222  23.064  39.405   1.429
45238W        W10223  22.531  21.193  13.855
45239W        W10224   2.537  17.595  14.954
45240W        W10225  29.995  12.186   0.965
45241W        W10226  15.777  32.132   9.970
45242W        W10227  21.496  31.452   4.934
45243W        W10228   5.612  27.737   1.141
45244W        W10229  39.852   7.117  10.491
45245W        W10230   7.307   4.141  13.123
45246W        W10231   6.794  28.448  14.013
45247W        W10232  10.186   4.711   1.887
45248W        W10233  24.002  10.173   0.792
45249W        W10234  44.291   5.792   4.483
45250W        W10235  26.396  23.313  11.361
45251W        W10236  41.874   5.197  14.361
45252W        W10237   3.944  16.636   2.386
45253W        W10238  25.621  24.477  14.353
45254W        W10239  34.599   4.162  13.919
45255W        W10240  37.988  32.056  11.905
45256W        W10241  30.519   4.739   3.098
45257W        W10242  27.960  23.208   0.605
45258W        W10243  38.886   6.754  12.903
45259W        W10244  36.581   9.994  13.295
45260W        W10245  26.273  23.927   0.859
45261W        W10246  40.164   6.559  10.343
45262W        W10247  37.879  14.019  14.843
45263W        W10248   6.888  30.881  10.730
45264W        W10249  36.464  40.365   3.272
45265W        W10250  38.559  34.125  11.646
45266W        W10251  25.669  28.007   4.473
45267W        W10252  17.222  12.093  14.203
45268W        W10253   4.233  36.945   1.814
45269W        W10254   4.862  29.151  14.548
45270W        W10255  43.476  22.183  12.466
45271W        W10256  38.391  26.940  10.393
45272W        W10257  26.129  22.170  13.189
45273W        W10258  16.764   6.881  10.394
45274W        W10259  29.224   2.530   9.766
45275W        W10260  18.178  41.450  14.225
45276W        W10261  25.511   5.421   1.973
45277W        W10262  36.406  29.802   0.923
45278W        W10263  30.574   6.022  11.179
45279W        W10264  12.437  35.703   0.130
45280W        W10265  43.247  39.923   0.944
45281W        W10266  34.692  21.227  13.336
45282W        W10267  44.882   0.756  10.607
45283W        W10268  41.028  12.869  14.521
45284W        W10269  43.498  12.062   4.744
45285W        W10270  30.584   0.038  13.353
45286W        W10271  19.219  39.694   0.270
45287W        W10272   1.429  38.240   2.987
45288W        W10273   8.228   0.188  12.837
45289W        W10274  11.749  29.686  14.485
45290W        W10275  20.544  12.723  13.052
45291W        W10276  21.672  29.699  13.009
45292W        W10277  18.280  10.958   4.112
45293W        W10278  32.424   7.356  12.424
45294W        W10279  14.417  43.176  14.888
45295W        W10280  21.171  39.206   2.123
45296W        W10281  38.983  30.500   3.755
45297W        W10282   2.930  16.381  11.050
45298W        W10283  12.467  10.768   1.065
45299W        W10284  38.105  19.155   1.219
45300W        W10285  36.005  26.128  10.979
45301W        W10286  23.623  21.991   1.790
45302W        W10287  42.204  21.412  14.793
45303W        W10288  24.162  22.754   0.552
45304W        W10289  34.016  44.789  14.954
45305W        W10290  17.808  27.319  11.844
45306W        W10291  36.536  16.058   2.264
45307W        W10292  17.221  37.653   4.017
45308W        W10293  40.549  40.259   3.625
45309W        W10294   4.250  11.425   3.264
45310W        W10295   8.609   7.238   4.674
45311W        W10296   5.616  36.708   3.457
45312W        W10297  41.473  13.577  13.518
45313W        W10298  10.190  42.372   1.454
45314W        W10299   7.736  11.176   2.768
45315W        W10300  31.554  31.960   4.047
45316W        W10301  21.268  41.515  10.883
45317W        W10302  42.407  26.890  12.562
45318W        W10303  44.843   5.887   4.531
45319W        W10304  43.280  20.237  12.059
45320W        W10305  24.727  33.986  11.236
45321W        W10306  13.992  25.161  11.175
45322W        W10307  30.667  21.788   1.749
45323W        W10308  16.092  16.565  13.813
45324W        W10309   1.341  15.933  10.700
45325W        W10310   5.196   4.171   0.717
45326W        W10311  34.538  36.153   3.611
45327W        W10312  28.643  16.675  11.958
45328W        W10313  44.838   4.792   4.840
45329W        W10314  42.824  25.732   2.834
45330W        W10315  29.496  25.762   1.062
45331W        W10316  30.349  27.056  14.485
45332W        W10317  23.623   5.165  10.471
45333W        W10318  25.706  34.227  13.078
45334W        W10319  32.674   8.062  14.801
45335W        W10320   9.587  44.370  10.662
45336W        W10321  17.424  36.280  13.114
45337W        W10322  38.449  12.448   5.123
45338W        W10323  18.166  22.637   4.616
45339W        W10324   9.148  17.332   0.173
45340W        W10325  28.182  37.621   4.516
45341W        W10326  38.061   0.652   3.370
45342W        W10327  16.653  37.771  12.648
45343W        W10328  16.272  30.984   1.578
45344W        W10329  33.109  44.858  10.723
45345W        W10330  37.984  40.086   4.320
45346W        W10331  13.338  21.565   3.156
45347W        W10332  35.856  26.031  13.898
45348W        W10333   2.522  16.646   2.203
45349W        W10334  15.267  30.019   4.524
45350W        W10335   9.704  34.609  11.660
45351W        W10336  38.178  24.884  12.981
45352W        W10337  30.902  33.673   0.735
45353W        W10338  21.907   1.027  12.001
45354W        W10339  40.782  22.518   4.586
45355W        W10340  18.431   1.392   4.590
45356W        W10341  43.824  37.369  11.620
45357W        W10342  19.014  37.899   3.287
45358W        W10343   4.920  28.618  14.368
45359W        W10344  15.170   9.583  14.804
45360W        W10345   0.258   1.335   2.740
45361W        W10346  15.197  20.357  12.988
45362W        W10347  19.443  28.977   3.103
45363W        W10348  38.716  13.513   4.084
45364W        W10349   8.196  10.361  12.498
45365W        W10350  23.426  35.540  10.724
45366W        W10351  20.740  44.942   1.161
45367W        W10352  39.242   9.695  13.965
45368W        W10353  14.362  20.705  10.666
45369W        W10354  36.110  41.417   1.851
45370W        W10355  39.775   6.833   1.645
45371W        W10356  28.630   5.490  10.353
45372W        W10357  37.790  16.835  11.208
45373W        W10358  35.152  12.340   3.727
45374W        W10359  23.531  32.906  14.418
45375W        W10360   7.997  14.397   5.236
45376W        W10361   7.703  18.238  10.754
45377W        W10362  35.884  22.682  10.439
45378W        W10363  15.035  20.638   1.250
45379W        W10364  34.939  40.509   1.328
45380W        W10365  37.011  34.364  14.415
45381W        W10366  40.811  19.137   1.922
45382W        W10367  23.532  18.816  10.966
45383W        W10368  37.812  22.090   4.348
45384W        W10369  22.081   5.870   4.661
45385W        W10370  36.522   2.929   3.894
45386W        W10371  39.002  28.467  14.345
45387W        W10372  29.514  24.606  13.220
45388W        W10373   6.929  35.865  13.105
45389W        W10374  43.563  13.346   3.663
45390W        W10375   8.462  43.833  14.324
45391W        W10376   9.893  43.028   2.828
45392W        W10377  17.587  11.710   0.045
45393W        W10378  29.055   6.476   0.088
45394W        W10379  31.611  43.802  10.640
45395W        W10380  29.021  27.084   0.116
45396W        W10381  40.649  25.588   1.391
45397W        W10382  36.443  17.105  14.222
45398W        W10383  19.218  17.246   3.114
45399W        W10384  24.037  39.541   0.508
45400W        W10385  20.112  39.114  11.922
45401W        W10386  11.245  41.479   0.605
45402W        W10387  37.418  41.674  14.660
45403W        W10388  30.593  26.588  14.464
45404W        W10389  15.112  26.214   3.096
45405W        W10390   9.913  16.685  11.265
45406W        W10391   4.949  18.193  13.086
45407W        W10392  18.606  20.010   2.348
45408W        W10393   9.746  43.918   2.774
45409W        W10394  32.114  35.010  12.145
45410W        W10395  24.904   5.955   2.322
45411W        W10396  31.485  22.088   2.145
45412W        W10397  21.059  29.480   4.387
45413W        W10398  16.683  10.233   1.026
45414W        W10399  29.051  15.640   0.125
45415W        W10400   6.242  26.427   4.649
45416W        W10401  31.650  37.391  11.633
45417W        W10402   8.612   6.228   0.975
45418W        W10403  12.780   9.759   4.615
45419W        W10404  21.625  26.562  13.344
45420W        W10405  10.917  36.331   4.260
45421W        W10406  15.332  13.754  13.468
45422W        W10407  34.033  13.417   5.303
45423W        W10408   0.323   6.920  12.470
45424W        W10409  17.674  10.322  12.813
45425W        W10410  12.991  12.172  12.570
45426W        W10411  19.461  24.482   2.302
45427W        W10412  36.517  22.528  12.588
45428W        W10413  21.061  15.535  13.499
45429W        W10414  22.063   2.236  13.517
45430W        W10415  10.671  10.299  10.773
45431W        W10416  16.246  35.383  13.052
45432W        W10417   4.620  42.446  11.146
45433W        W10418   2.806  16.141   2.387
45434W        W10419  34.068  14.790   1.758
45435W        W10420  20.574  16.349  11.714
45436W        W10421  31.360  44.057   2.903
45437W        W10422  24.866  32.573  10.775
45438W        W10423  36.750  11.236  12.980
45439W        W10424  17.096   3.453  13.807
45440W        W10425  44.995  15.409  12.579
45441W        W10426  37.428  40.666   1.349
45442W        W10427  10.617  10.773   0.877
45443W        W10428  12.687   4.888  14.705
45444W        W10429   5.866  11.323  13.055
45445W        W10430  24.584  42.582  12.566
45446W        W10431  21.184  12.146  12.723
45447W        W10432  16.313   5.184  14.079
45448W        W10433   2.459  42.533   2.357
45449W        W10434  35.104   6.697  14.941
45450W        W10435  15.585   2.128   0.955
45451W        W10436  25.926   4.003   1.969
45452W        W10437  39.462  43.041   4.170
45453W        W10438  21.708   4.085  11.004
45454W        W10439  23.560  11.043   2.264
45455W        W10440  14.840  28.291   2.245
45456W        W10441  42.129  28.062   4.193
45457W        W10442  23.920  28.128   1.893
45458W        W10443  32.354   7.577   0.629
45459W        W10444   6.154  17.566   1.336
45460W        W10445  34.946   8.137  14.778
45461W        W10446   2.986  22.666   1.725
45462W        W10447   0.129   0.197  14.437
45463W        W10448  22.330  20.658  12.901
45464W        W10449  44.732   3.677   3.722
45465W        W10450  40.301  23.203  14.305
45466W        W10451  14.076  27.342   2.726
45467W        W10452  26.529  42.743   2.260
45468W        W10453  37.104  31.127   2.196
45469W        W10454  36.015  21.173  12.464
45470W        W10455  13.662  17.594   2.777
45471W        W10456  17.822  34.570  10.478
45472W        W10457  32.178  16.424  12.050
45473W        W10458  18.204  21.275  11.284
45474W        W10459  10.006  28.236  11.147
45475W        W10460   3.282  28.130  10.703
45476W        W10461  26.980  13.694   1.094
45477W        W10462  43.492  20.150  11.090
45478W        W10463   8.903  36.363  11.807
45479W        W10464   8.150  34.935   2.156
45480W        W10465   2.458  23.605   2.212
45481W        W10466   2.893  43.241  14.417
45482W        W10467   3.479   5.138  13.909
45483W        W10468  24.653  25.065  10.846
45484W        W10469  19.764  39.301   3.583
45485W        W10470  42.423  37.619   0.910
45486W        W10471  25.093  43.430  13.667
45487W        W10472   2.240   1.166   2.946
45488W        W10473  34.525  10.844  13.298
45489W        W10474  30.552  21.135   3.623
45490W        W10475  31.930  37.272   3.246
45491W        W10476   2.828  13.066  12.017
45492W        W10477  12.858  30.573  12.080
45493W        W10478  42.323  13.787  12.396
45494W        W10479  20.501  43.910  13.699
45495W        W10480  18.557  24.458  14.048
45496W        W10481  23.736  27.153  13.364
45497W        W10482  24.582  24.191   0.393
45498W        W10483  25.208  13.590  12.601
45499W        W10484   0.699  13.640   0.846
45500W        W10485  30.685  10.830  12.802
45501W        W10486  37.516   2.291  12.458
45502W        W10487  42.508  12.280  13.963
45503W        W10488  27.314   6.323  10.073
45504W        W10489  24.170  20.362   0.782
45505W        W10490  11.835  27.386  12.035
45506W        W10491  23.482  14.180   2.181
45507W        W10492   5.646  13.273  13.949
45508W        W10493  42.454   7.358  11.617
45509W        W10494  18.547  19.205  14.303
45510W        W10495  10.754   3.700  14.277
45511W        W10496  36.520  38.003   2.548
45512W        W10497  17.943  10.664  11.217
45513W        W10498  41.989   4.630   2.699
45514W        W10499  39.297  29.023   1.605
45515W        W10500   0.893  40.322  14.005
45516W        W10501   3.509  25.433  10.622
45517W        W10502  26.733  13.580  11.148
45518W        W10503  30.874   1.362  12.388
45519W        W10504  36.891  43.173  13.267
45520W        W10505  35.244  27.638  14.935
45521W        W10506  44.792   6.144   0.271
45522W        W10507   6.114  14.335  11.115
45523W        W10508  18.129  38.350   0.877
45524W        W10509  21.005  34.627   1.005
45525W        W10510  38.901  29.423   0.000
45526W        W10511  20.638  22.999  13.011
45527W        W10512  36.642  10.898   1.667
45528W        W10513  17.557   3.616   3.788
45529W        W10514  32.889  17.651   0.434
45530W        W10515  25.567  19.745   3.362
45531W        W10516  44.773  18.815   4.645
45532W        W10517  39.988  36.150   1.312
45533W        W10518  44.806  44.347  14.813
45534W        W10519  25.591  30.494  13.470
45535W        W10520  21.735   8.727   3.708
45536W        W10521   3.486   8.355   3.595
45537W        W10522   6.009  44.063  14.456
45538W        W10523  38.292  30.590  12.567
45539W        W10524  25.708  29.052  12.522
45540W        W10525  39.564   8.438   4.171
45541W        W10526   1.718  39.820   2.278
45542W        W10527  17.286  18.725   2.704
45543W        W10528  30.261   5.513  13.165
45544W        W10529  42.551  23.181   2.818
45545W        W10530   3.250  21.236  13.036
45546W        W10531  30.015  18.945   2.182
45547W        W10532  13.266  10.525   1.776
45548W        W10533  20.656   6.488   1.413
45549W        W10534  40.920  27.719  10.862
45550W        W10535  15.613  33.460  10.130
45551W        W10536  39.943  10.179   0.390
45552W        W10537  19.114  36.210  11.292
45553W        W10538  15.323  15.614   2.768
45554W        W10539  33.087   1.970   0.446
45555W        W10540   0.872  38.126   2.322
45556W        W10541  17.690   4.204  11.724
45557W        W10542   2.528  37.047  13.827
45558W        W10543   0.150  13.680   0.981
45559W        W10544  41.765  41.579  14.185
45560W        W10545  10.772  10.867   3.465
45561W        W10546   7.889  21.259   3.249
45562W        W10547  14.201  44.708   2.214
45563W        W10548  30.581   2.451  12.976
45564W        W10549  30.698  21.859  12.095
45565W        W10550  28.485  31.915   2.255
45566W        W10551  27.364  37.980  11.434
45567W        W10552  44.290  18.841   0.517
45568W        W10553  33.076  28.482   4.689
45569W        W10554  16.827  11.010   0.718
45570W        W10555  21.683  27.921  14.573
45571W        W10556   3.416  23.135   0.930
45572W        W10557   8.873  29.467  12.994
45573W        W10558   3.966  36.577  11.559
45574W        W10559  15.268  41.605   2.676
45575W        W10560  24.120   8.597  14.048
45576W        W10561  38.994  30.365  14.346
45577W        W10562  17.074  14.338   1.408
45578W        W10563   7.341  42.417   0.058
45579W        W10564   9.885  24.696   1.860
45580W        W10565  39.027  24.798  11.957
45581W        W10566  26.536  34.876  13.435
45582W        W10567   9.448  31.380  13.533
45583W        W10568   9.325  32.917  14.726
45584W        W10569  30.399  31.462  14.974
45585W        W10570  10.338  27.961   3.743
45586W        W10571  20.575  16.248  11.165
45587W        W10572  35.013  15.052   2.426
45588W        W10573  44.251  18.547  14.118
45589W        W10574  14.597  41.077  12.865
45590W        W10575  43.759   4.785  12.740
45591W        W10576  43.410   1.446  10.648
45592W        W10577   2.264  39.546  12.033
45593W        W10578  10.923  35.090   1.610
45594W        W10579  36.383   4.704   4.698
45595W        W10580   7.580   6.790  14.829
45596W        W10581   7.211  40.881   0.353
45597W        W10582  12.348  14.036  12.623
45598W        W10583   6.882  37.251  11.945
45599W        W10584  35.817  30.455   4.194
45600W        W10585  33.016  14.297  11.014
45601W        W10586   6.425  10.807   2.295
45602W        W10587  24.885  26.048   1.794
45603W        W10588  29.743   2.728   4.790
45604W        W10589  23.983  44.501  11.743
45605W        W10590   4.632  12.580  11.131
45606W        W10591  21.518  15.391  12.585
45607W        W10592   7.043  26.551   1.134
45608W        W10593  35.938  15.818  10.566
45609W        W10594  29.495  40.654   4.285
45610W        W10595  12.106  25.490   1.380
45611W        W10596   4.767  32.621   1.447
45612W        W10597  10.453  17.640   2.488
45613W        W10598  13.281   4.620  12.099
45614W        W10599  27.645  41.280  10.672
45615W        W10600   9.572  44.083  13.458
45616W        W10601  31.530  42.894   0.442
45617W        W10602   5.636  13.755   1.755
45618W        W10603   3.214   7.902   4.817
45619W        W10604  26.349  41.945  11.635
45620W        W10605  21.111  44.121  11.771
45621W        W10606  29.154  19.481  11.698
45622W        W10607  30.192  19.933   2.344
45623W        W10608  16.611  28.228   2.615
45624W        W10609  21.778  27.957  12.664
45625W        W10610  18.324  24.194   4.499
45626W        W10611  25.062  24.705   0.877
45627W        W10612   2.699  38.965  14.426
45628W        W10613  23.146  41.553  14.884
45629W        W10614  25.545  10.373  13.898
45630W        W10615  39.898   2.146   3.314
45631W        W10616  15.525   5.310   1.861
45632W        W10617  32.188  29.214   1.760
45633W        W10618  28.109  44.443   2.372
45634W        W10619   4.506   1.941   4.593
45635W        W10620  16.686  11.452   2.510
45636W        W10621  41.902  15.074  10.294
45637W        W10622  20.116  37.343  12.924
45638W        W10623  43.782  19.542   1.312
45639W        W10624  30.653   8.497   2.924
45640W        W10625   3.743  39.104  14.751
45641W        W10626   5.168  41.774   0.417
45642W        W10627  43.824  10.824  11.586
45643W        W10628  44.948  37.135   4.493
45644W        W10629  25.247  34.664   1.772
45645W        W10630  28.075  33.015   0.880
45646W        W10631  17.001  28.526  14.945
45647W        W10632  25.051   3.740  11.018
45648W        W10633  19.080  11.096  13.935
45649W        W10634   2.026  27.244   1.815
45650W        W10635  36.631  18.753  13.864
45651W        W10636  20.793   4.306   2.813
45652W        W10637  13.613  17.435  12.645
45653W        W10638  22.778   5.482   1.769
45654W        W10639   1.787  29.463  13.517
45655W        W10640  44.303   4.711   5.112
45656W        W10641  36.819  30.553  13.110
45657W        W10642  28.642  16.984   0.509
45658W        W10643  34.133   7.429  12.563
45659W        W10644  41.601  18.924  10.305
45660W        W10645  13.107   9.846  11.474
45661W        W10646   2.942   3.780  13.812
45662W        W10647  37.111  18.152  14.803
45663W        W10648  24.216   9.148  11.671
45664W        W10649  44.558   1.984   0.863
45665W        W10650  17.236  23.016   3.664
45666W        W10651  15.362  32.428  14.763
45667W        W10652  40.233  19.029  14.503
45668W        W10653  36.087   3.727  12.050
45669W        W10654  42.294  28.193   5.177
45670W        W10655  16.607   5.760  12.990
45671W        W10656  18.600   4.596   4.033
45672W        W10657  19.432   3.391   3.149
45673W        W10658  43.919  35.021   3.224
45674W        W10659  11.718  30.167   3.692
45675W        W10660   1.696  19.040  11.757
45676W        W10661  40.206  42.467  13.996
45677W        W10662   4.475   4.900  14.950
45678W        W10663  28.629  40.060   0.017
45679W        W10664  14.158  17.760   1.133
45680W        W10665  21.608   9.458  12.968
45681W        W10666  30.459   8.895   3.210
45682W        W10667  24.642   3.524   4.219
45683W        W10668  21.435  17.046  12.969
45684W        W10669  28.089   0.936  14.569
45685W        W10670  26.423  20.761  11.667
45686W        W10671  16.029   9.754   2.339
45687W        W10672  44.827   1.355  11.164
45688W        W10673  21.225   3.753  13.384
45689W        W10674  31.084  33.015   2.735
45690W        W10675  11.904  37.751   2.731
45691W        W10676  41.741  11.338   1.821
45692W        W10677  16.019   4.184   0.238
45693W        W10678  34.644  29.025   1.830
45694W        W10679   7.884  14.764  11.011
45695W        W10680   1.389   2.940  14.333
45696W        W10681   1.819  25.758   4.913
45697W        W10682   7.119   7.455   2.890
45698W        W10683  18.419  44.483  10.747
45699W        W10684  12.188  14.692   2.994
45700W        W10685   0.127  24.127  10.802
45701W        W10686  26.273  35.534  10.965
45702W        W10687  30.448   6.361   3.299
45703W        W10688   7.190  14.147   1.760
45704W        W10689  13.100   8.036  12.566
45705W        W10690  38.532   6.769   0.768
45706W        W10691  41.483  44.984   4.631
45707W        W10692   0.233   5.829  14.031
45708W        W10693  40.226  29.993  12.958
45709W        W10694   5.024  29.725  14.631
45710W        W10695   4.457   3.831  11.159
45711W        W10696  41.842  43.739   2.800
45712W        W10697   6.855  35.934  11.159
45713W        W10698   4.173  11.634   0.374
45714W        W10699  19.250   2.037  13.980
45715W        W10700  30.597  32.286   4.980
45716W        W10701  35.826  15.555  13.237
45717W        W10702  16.689  27.418  13.884
45718W        W10703   6.614  12.590   4.943
45719W        W10704  22.613  25.958   0.863
45720W        W10705  19.774  24.356   0.622
45721W        W10706  25.664  29.369   2.776
45722W        W10707  18.005  16.385   4.262
45723W        W10708  29.059   2.276  13.025
45724W        W10709  11.298   3.756  10.988
45725W        W10710  37.618  42.543   1.129
45726W        W10711  13.879  37.014   4.201
45727W        W10712  30.220  25.121   4.049
45728W        W10713  25.732  15.127  10.332
45729W        W10714   4.286  13.286  13.152
45730W        W10715   7.723  28.775   4.115
45731W        W10716  42.920  36.530  10.842
45732W        W10717  20.660   6.156   1.880
45733W        W10718   7.356   9.187  14.324
45734W        W10719  40.494  13.825   1.837
45735W        W10720   0.112  21.677   1.227
45736W        W10721  16.271  14.960   2.199
45737W        W10722  44.236  26.307  12.035
45738W        W10723  35.542  25.654   1.289
45739W        W10724  40.773  33.948  12.177
45740W        W10725  26.460  14.343   1.470
45741W        W10726   5.900   1.758  12.836
45742W        W10727   1.395  12.163   3.406
45743W        W10728  30.119  40.840   3.741
45744W        W10729  13.872  38.011  12.055
45745W        W10730   4.481  15.724   0.424
45746W        W10731  23.012  18.718  11.023
45747W        W10732  28.994  13.108  11.162
45748W        W10733  30.977   9.322  10.707
45749W        W10734  21.888  10.283  13.342
45750W        W10735  30.386   3.880   2.760
45751W        W10736   4.660  35.040   1.123
45752W        W10737   4.421  12.797  11.559
45753W        W10738  26.665   1.885  13.965
45754W        W10739  18.751  42.265   0.928
45755W        W10740  19.428  26.400   3.408
45756W        W10741  35.424  21.315   3.251
45757W        W10742   1.544  44.059  14.808
45758W        W10743  33.340  30.455   3.059
45759W        W10744  26.609   0.028  12.849
45760W        W10745  22.521  42.924  13.635
45761W        W10746   2.667   0.398  10.711
45762W        W10747  26.694  13.197  12.422
45763W        W10748  32.511  23.142   1.794
45764W        W10749   5.957  26.992  13.010
45765W        W10750  18.028   9.617   0.406
45766W        W10751   6.923   3.672   4.988
45767W        W10752  42.381  14.656   4.733
45768W        W10753  20.335   0.897   4.446
45769W        W10754  12.401  23.829  11.115
45770W        W10755  12.639  44.882  14.716
45771W        W10756  10.167  44.975  12.591
45772W        W10757  18.641  38.824  14.474
45773W        W10758   6.940  34.636  10.721
45774W        W10759  31.526  40.865  13.880
45775W        W10760   1.311  14.825  10.715
45776W        W10761   6.436  16.229   4.747
45777W        W10762  25.023  33.017   2.101
45778W        W10763  40.752  35.609  12.970
45779W        W10764  28.883   9.539   2.017
45780W        W10765  14.414   4.773  11.222
45781W        W10766  13.915  25.069  10.681
45782W        W10767  35.647  18.766   0.670
45783W        W10768   7.409  14.332  12.955
45784W        W10769  27.993   8.445   1.267
45785W        W10770  22.239  39.533   0.262
45786W        W10771  38.754  41.869  11.515
45787W        W10772  39.081   9.076   1.516
45788W        W10773  26.712  42.848   3.738
45789W        W10774  33.879  17.216   1.924
45790W        W10775  35.012  36.766   0.233
45791W        W10776   7.764  16.061   1.666
45792W        W10777  38.762  10.896   3.366
45793W        W10778  31.331  24.970   3.316
45794W        W10779  42.303   1.887   1.516
45795W        W10780  32.680  35.981   2.702
45796W        W10781   8.886  39.732   3.254
45797W        W10782  38.259  18.639   4.536
45798W        W10783  34.613   6.916  11.529
45799W        W10784   1.480  33.630  13.811
45800W        W10785  12.566   0.537   2.399
45801W        W10786  35.893  15.371   0.918
45802W        W10787   4.486  18.639  11.209
45803W        W10788   7.190  32.408   4.921
45804W        W10789  42.766  26.632   1.845
45805W        W10790  38.656  27.968  11.294
45806W        W10791  35.054   6.882  11.833
45807W        W10792  27.790  43.532  12.039
45808W        W10793  19.060  24.238  12.605
45809W        W10794  21.543  32.888   2.602
45810W        W10795  21.711   1.487   2.807
45811W        W10796  35.921  17.625   4.315
45812W        W10797   7.572  13.748   4.146
45813W        W10798  12.180   7.173  12.312
45814W        W10799  31.923  15.369   2.724
45815W        W10800  24.035  17.444  12.413
45816W        W10801  28.985  20.596   0.870
45817W        W10802   4.663  13.547  14.943
45818W        W10803  18.535  18.649   2.331
45819W        W10804  14.607  30.204   4.157
45820W        W10805   0.901  11.663   1.430
45821W        W10806  22.047  20.119  12.544
45822W        W10807  10.666  37.992   1.328
45823W        W10808  28.817  34.977   2.993
45824W        W10809  37.772  29.511   2.266
45825W        W10810  29.814   6.804   0.405
45826W        W10811  12.539  38.477  10.730
45827W        W10812  21.784  27.372  14.705
45828W        W10813  42.495  25.012  11.104
45829W        W10814  15.299   8.979  12.216
45830W        W10815   3.258  30.404   0.917
45831W        W10816  29.156  13.371   0.119
45832W        W10817  23.118   4.570   3.872
45833W        W10818  31.411  30.821   0.179
45834W        W10819   1.701  29.742   1.463
45835W        W10820  14.772  16.664   3.202
45836W        W10821  11.097  26.616  14.592
45837W        W10822   5.994   8.241   1.263
45838W        W10823  42.584  44.348   1.072
45839W        W10824  41.194  29.194   3.102
45840W        W10825   3.353  27.165  11.327
45841W        W10826   1.827  28.944  10.941
45842W        W10827   3.505  34.461  11.507
45843W        W10828  39.081  44.549   1.987
45844W        W10829  15.723  35.012  14.340
45845W        W10830  28.474  12.646   0.317
45846W        W10831  19.068  32.946   0.487
45847W        W10832  18.740  40.063  10.852
45848W        W10833  21.747   2.828   4.604
45849W        W10834  11.790  37.867   0.921
45850W        W10835  26.573  17.003   0.971
45851W        W10836  15.131  43.717   4.582
45852W        W10837  32.605  18.091  12.598
45853W        W10838  25.741   8.403   4.236
45854W        W10839  23.427  42.808   3.620
45855W        W10840  39.268  34.780  13.511
45856W        W10841  39.490  33.494   3.308
45857W        W10842  25.770  20.282   4.578
45858W        W10843  42.009  39.830  11.606
45859W        W10844  16.833  19.000  11.118
45860W        W10845  12.208   8.166  12.369
45861W        W10846  32.630  39.657  11.550
45862W        W10847  20.776  38.618   4.057
45863W        W10848  43.398  18.586  14.240
45864W        W10849  10.288  41.848  12.062
45865W        W10850  18.330   0.706   0.311
45866W        W10851  22.668  34.961  12.332
45867W        W10852  21.730   0.294   2.191
45868W        W10853   5.613  16.293   1.713
45869W        W10854   3.235   8.456   5.013
45870W        W10855  27.916  25.085  13.666
45871W        W10856  17.190  42.302   4.115
45872W        W10857   6.793   4.050  14.467
45873W        W10858  24.785  10.052   2.824
45874W        W10859   8.203  17.404   3.045
45875W        W10860  21.158   7.927   3.885
45876W        W10861   9.366  40.105  11.998
45877W        W10862  33.177  24.127  12.341
45878W        W10863  14.317   3.809  13.988
45879W        W10864  43.602   1.773   4.239
45880W        W10865   3.409  28.794  11.597
45881W        W10866  43.984  28.523  12.016
45882W        W10867  34.982  35.925  14.433
45883W        W10868   3.130  29.445  12.053
45884W        W10869  11.659  17.159   2.379
45885W        W10870  32.641  29.443   3.303
45886W        W10871  22.149  12.871   2.355
45887W        W10872  31.949  25.470   2.920
45888W        W10873  17.678  31.993   0.257
45889W        W10874  35.965  28.043  14.983
45890W        W10875  42.252  39.018   0.408
45891W        W10876  31.993  24.727  10.709
45892W        W10877  37.930   3.539   0.959
45893W        W10878  44.714  21.208   0.248
45894W        W10879  25.845   0.615  11.965
45895W        W10880  24.029  31.076  12.595
45896W        W10881  26.229  16.998  11.472
45897W        W10882  32.917  32.177   2.192
45898W        W10883  25.508  24.404   4.106
45899W        W10884  17.358   2.956  13.868
45900W        W10885   8.781  23.153  11.416
45901W        W10886  33.609  37.395  12.029
45902W        W10887  18.023  11.061  11.999
45903W        W10888  24.884  43.849  13.970
45904W        W10889  28.610  26.267  14.824
45905W        W10890  24.705  10.128   0.040
45906W        W10891  19.272  17.518   9.698
45907W        W10892   1.124   5.941   4.179
45908W        W10893  26.174  22.464   0.028
45909W        W10894  10.782  34.674   0.875
45910W        W10895   3.677  32.643   4.523
45911W        W10896  42.590  21.619  14.471
45912W        W10897   7.245   0.551   1.839
45913W        W10898  16.591  43.853  11.676
45914W        W10899  42.287  11.134  12.429
45915W        W10900   8.533  22.601   3.233
45916W        W10901   0.441  39.349   1.579
45917W        W10902  34.716  14.649   0.072
45918W        W10903   4.935  35.021   0.101
45919W        W10904  21.208  17.241   2.779
45920W        W10905   3.862  31.099   0.291
45921W        W10906   4.321  37.390  14.904
45922W        W10907   4.433  36.478  10.627
45923W        W10908  41.430  34.897  12.924
45924W        W10909  42.997  11.043   3.648
45925W        W10910  13.302  42.257  13.408
45926W        W10911  12.073  15.949  12.604
45927W        W10912  28.071  29.306  14.825
45928W        W10913  26.513  14.179  14.884
45929W        W10914   9.279   2.721   0.360
45930W        W10915  18.498  38.068   0.629
45931W        W10916  22.124   2.990  12.307
45932W        W10917  17.304  31.581  10.896
45933W        W10918  21.844  42.069   0.784
45934W        W10919   9.216  32.951   0.256
45935W        W10920  42.757  40.958   0.761
45936W        W10921  21.788   7.192  11.007
45937W        W10922  18.480  21.175   0.228
45938W        W10923  29.528  15.417   0.664
45939W        W10924  18.006  37.893  12.459
45940W        W10925   1.022   5.943   3.293
45941W        W10926  29.938  36.714   0.997
45942W        W10927  40.502  20.962   1.928
45943W        W10928   9.029  24.218  11.198
45944W        W10929  13.738   3.759  12.614
45945W        W10930  25.126  33.436   3.951
45946W        W10931  21.557  36.426  13.072
45947W        W10932  25.159  17.789   3.773
45948W        W10933  24.109   6.336  12.951
45949W        W10934   4.093  40.244   0.302
45950W        W10935   0.177  37.663  12.547
45951W        W10936  16.782  17.006   3.945
45952W        W10937  12.337  10.219   2.759
45953W        W10938   1.972   3.840  13.612
45954W        W10939  24.645  16.636   0.394
45955W        W10940  18.678   2.466   3.724
45956W        W10941   3.976  23.276  13.791
45957W        W10942  11.421   7.572   4.650
45958W        W10943  28.062  14.140   1.864
45959W        W10944  25.674  43.302  13.187
45960W        W10945  33.808  13.184  13.062
45961W        W10946  19.546  41.760  11.656
45962W        W10947   2.383   6.559   0.862
45963W        W10948  42.420  44.824  13.104
45964W        W10949  11.664   5.215   0.762
45965W        W10950  44.298  28.742  14.987
45966W        W10951  19.910   5.240   4.960
45967W        W10952   1.035  38.510   2.632
45968W        W10953  36.641   8.460   9.476
45969W        W10954  37.587   9.655  11.330
45970W        W10955  13.063  16.025   3.646
45971W        W10956  12.660  16.823  11.198
45972W        W10957  25.067  44.844  12.313
45973W        W10958   5.715  26.265   3.411
45974W        W10959  33.831  32.013  11.731
45975W        W10960  16.755   2.656  12.988
45976W        W10961  36.897   6.301   1.677
45977W        W10962  42.361   2.387  12.907
45978W        W10963  35.845  24.196   3.180
45979W        W10964  38.887  24.799   1.752
45980W        W10965  28.401  25.018   3.666
45981W        W10966   9.930  37.016  14.482
45982W        W10967  17.339  25.710   4.216
45983W        W10968  16.668  38.849  14.349
45984W        W10969   5.743  28.415  11.539
45985W        W10970  26.205  44.361  14.946
45986W        W10971  11.278  19.145  10.530
45987W        W10972  32.658  18.827   0.285
45988W        W10973  19.792  22.948   4.560
45989W        W10974  37.872  26.148   1.378
45990W        W10975   0.973  27.421  13.861
45991W        W10976  29.584  30.330   1.243
45992W        W10977   3.876  30.834   2.628
45993W        W10978  24.297  19.156  14.919
45994W        W10979  34.335  20.944  11.555
45995W        W10980   3.547  33.992   1.912
45996W        W10981   5.764  14.281  10.716
45997W        W10982  11.243  31.709   0.805
45998W        W10983  19.050  11.968   3.251
45999W        W10984   8.595  18.309   4.591
46000W        W10985  39.353  41.292   2.077
46001W        W10986  37.488  27.668  12.164
46002W        W10987  36.919  12.748   3.352
46003W        W10988  38.060  15.012  12.012
46004W        W10989  21.285  38.554   1.197
46005W        W10990  20.667   5.447  11.567
46006W        W10991  23.042  29.474  11.955
46007W        W10992  12.051  44.874  13.010
46008W        W10993  25.382   8.923  11.405
46009W        W10994  38.410  34.811  13.052
46010W        W10995   0.230  43.420  14.118
46011W        W10996  26.846  14.196  13.389
46012W        W10997  35.081  16.111   0.685
46013W        W10998  39.746  41.749  11.451
46014W        W10999  18.759  26.457  10.763
46015W        W11000   1.039  28.605   2.879
46016W        W11001  26.036   7.493  10.509
46017W        W11002   3.460  19.251  11.505
46018W        W11003   2.314  18.570   1.658
46019W        W11004  27.931   4.271   4.191
46020W        W11005  36.882  32.124  13.467
46021W        W11006  25.472  35.493  10.564
46022W        W11007  41.279  43.856   1.594
46023W        W11008  37.350  19.654  11.582
46024W        W11009  18.586  41.391  12.186
46025W        W11010  41.282  43.188  14.414
46026W        W11011  11.089  11.670   1.369
46027W        W11012  35.693  30.633   4.886
46028W        W11013  10.493  32.797  12.915
46029W        W11014  24.789  25.047  11.357
46030W        W11015  29.671   1.923  13.657
46031W        W11016  32.180  33.693   0.787
46032W        W11017  39.397  34.296  13.596
46033W        W11018  24.861  25.194   0.829
46034W        W11019  22.031  12.593  14.076
46035W        W11020  19.178  20.906  13.965
46036W        W11021  27.113  34.021  13.372
46037W        W11022  13.004  11.801   2.570
46038W        W11023  20.628  12.215  12.932
46039W        W11024   6.343  33.891  14.506
46040W        W11025  40.513  27.275   2.295
46041W        W11026  41.423  37.956   5.196
46042W        W11027  36.031  39.558   1.803
46043W        W11028  17.138  42.513  12.217
46044W        W11029  43.960  39.258  10.724
46045W        W11030  18.368   7.100   1.191
46046W        W11031  38.183  37.779   9.612
46047W        W11032  12.750  28.659   4.163
46048W        W11033  39.284   1.800   3.799
46049W        W11034  17.745  32.318  13.220
46050W        W11035  42.277  23.995  13.493
46051W        W11036  39.442   8.870   2.234
46052W        W11037  19.760  25.579   3.324
46053W        W11038  27.935  44.365   2.842
46054W        W11039  25.134  31.691  13.360
46055W        W11040  22.203  41.872  13.773
46056W        W11041  21.805  25.105   4.060
46057W        W11042  22.186  16.514   4.648
46058W        W11043  21.137  34.103   2.641
46059W        W11044  12.307   5.763   1.883
46060W        W11045   0.904  30.692  10.433
46061W        W11046  38.400  28.893   2.334
46062W        W11047   2.665  32.928   0.804
46063W        W11048  28.045  43.238  10.695
46064W        W11049   0.495  41.577  14.242
46065W        W11050  17.678  27.698  13.339
46066W        W11051   1.102  14.732  11.171
46067W        W11052   9.719  44.594  13.472
46068W        W11053  11.898  27.989  13.049
46069W        W11054  28.924   7.729  11.028
46070W        W11055  25.288  24.939  14.027
46071W        W11056  20.171  33.537   3.159
46072W        W11057  22.678   4.878  14.467
46073W        W11058  40.837   0.898  11.631
46074W        W11059  27.548  30.769  13.934
46075W        W11060   8.216  18.239  10.849
46076W        W11061  14.216  19.778  14.477
46077W        W11062  29.243  15.760  13.392
46078W        W11063   1.756  43.716   4.223
46079W        W11064   0.915  26.945   3.061
46080W        W11065   3.196  26.953   0.447
46081W        W11066  33.971  35.134   9.809
46082W        W11067   9.848  31.925   2.148
46083W        W11068  27.089   5.155  12.520
46084W        W11069  18.705   2.905   1.154
46085W        W11070   1.950  34.669   2.704
46086W        W11071  33.651  36.912   0.937
46087W        W11072  15.337  38.435  13.396
46088W        W11073   0.968  42.098   0.523
46089W        W11074  26.043  40.720  11.197
46090W        W11075  24.239  18.721  11.296
46091W        W11076  15.833   1.580  11.602
46092W        W11077  44.893  11.456  13.528
46093W        W11078   3.373  16.218   1.411
46094W        W11079  20.262  32.049  10.731
46095W        W11080  24.504  33.124   1.433
46096W        W11081  15.588  28.729  11.898
46097W        W11082   6.934  39.081  11.610
46098W        W11083  36.592  24.637   2.261
46099W        W11084  11.441  24.163  11.153
46100W        W11085   1.437  37.889   0.010
46101W        W11086   9.937  11.263  10.536
46102W        W11087   7.080  29.505  11.038
46103W        W11088  23.251  18.806  10.055
46104W        W11089  41.510  29.722   4.935
46105W        W11090  43.519  12.315  13.884
46106W        W11091  21.050  44.767  12.499
46107W        W11092   6.384  28.809   4.258
46108W        W11093  27.574  43.811   4.247
46109W        W11094  22.090  13.247   3.249
46110W        W11095   4.793  13.758   2.369
46111W        W11096  24.552   4.431  14.901
46112W        W11097  28.985  19.478   0.064
46113W        W11098  23.735  30.434  10.539
46114W        W11099  31.383  19.819  14.663
46115W        W11100   4.829  18.607   0.288
46116W        W11101  30.385   7.758   3.690
46117W        W11102   1.509  10.340   0.950
46118W        W11103  21.762   4.799   0.875
46119W        W11104  15.533  20.278  13.859
46120W        W11105  42.016  11.421   4.249
46121W        W11106  30.246  26.418  11.675
46122W        W11107  18.099  41.309  12.102
46123W        W11108  22.552  27.648   4.805
46124W        W11109  24.396  36.166   5.237
46125W        W11110  33.110  42.247   3.294
46126W        W11111  29.050  13.277  12.480
46127W        W11112  37.211   0.847   1.863
46128W        W11113  43.493  28.514   0.268
46129W        W11114  40.553  42.041   4.561
46130W        W11115  24.479  28.486   1.261
46131W        W11116  12.069  35.366   1.844
46132W        W11117  42.992   4.443   4.459
46133W        W11118  33.548  43.916  10.315
46134W        W11119  34.600   1.645  13.914
46135W        W11120  29.719  23.133   4.684
46136W        W11121  14.720  27.866  14.698
46137W        W11122   7.449  21.159   0.391
46138W        W11123   1.796  19.059  14.279
46139W        W11124  30.613  32.036   2.649
46140W        W11125  36.044   7.399   4.978
46141W        W11126  33.929  35.432  10.954
46142W        W11127   3.431  40.059  13.413
46143W        W11128   6.408  11.880  12.065
46144W        W11129  25.118  33.411   1.363
46145W        W11130  27.503  35.989   1.692
46146W        W11131   3.717   0.715  11.431
46147W        W11132  30.691  13.541  12.060
46148W        W11133  19.274  44.019   0.501
46149W        W11134  27.064   2.274   3.737
46150W        W11135  33.101  12.880   3.915
46151W        W11136   2.369  43.709   1.862
46152W        W11137  19.141  40.403   1.692
46153W        W11138  19.191  12.328   1.305
46154W        W11139   4.032   1.157  14.993
46155W        W11140  24.667   4.676   2.629
46156W        W11141   9.170  40.495   2.969
46157W        W11142  21.227  39.539  11.365
46158W        W11143  42.894  14.727   4.681
46159W        W11144  41.539  25.280   1.751
46160W        W11145  40.138  39.758  11.550
46161W        W11146  41.958  12.561  11.460
46162W        W11147  22.002   1.873  10.992
46163W        W11148   9.619  27.252   2.756
46164W        W11149  18.152  30.943  11.776
46165W        W11150   1.364   3.303  13.377
46166W        W11151   8.978  10.838  12.507
46167W        W11152  31.865  24.419  11.108
46168W        W11153  34.085   7.781   1.683
46169W        W11154  18.224  37.527   2.192
46170W        W11155  31.926   6.931   2.333
46171W        W11156  42.784  24.577  11.145
46172W        W11157   3.443  13.368   3.341
46173W        W11158  11.221  30.644   0.782
46174W        W11159  43.018   5.722   0.885
46175W        W11160  19.302  11.311   0.296
46176W        W11161  43.991  13.597   0.195
46177W        W11162  27.039  40.602   0.359
46178W        W11163  20.354  39.313   3.752
46179W        W11164  19.784  31.403  14.978
46180W        W11165  41.287  38.652  12.199
46181W        W11166  38.562   6.488  12.136
46182W        W11167  20.760  28.572  14.343
46183W        W11168  37.508  14.570   1.394
46184W        W11169  22.769  26.097   3.650
46185W        W11170  37.011  36.188  13.146
46186W        W11171  29.875  42.457   3.153
46187W        W11172  32.678   9.743  12.897
46188W        W11173  15.572  24.516  11.551
46189W        W11174  25.269  28.074  11.581
46190W        W11175   3.476   8.714   3.225
46191W        W11176  28.014  21.232   2.942
46192W        W11177  12.537  12.781   4.727
46193W        W11178  34.991  25.280   2.917
46194W        W11179  23.742  42.001  14.490
46195W        W11180  21.282  18.017  13.829
46196W        W11181  14.718  14.723   0.286
46197W        W11182   9.657  23.600  14.249
46198W        W11183   5.388   4.497   1.558
46199W        W11184  14.234  10.801  11.608
46200W        W11185  18.336  24.010  14.253
46201W        W11186  11.881  29.751  11.696
46202W        W11187  40.998  25.785  13.524
46203W        W11188  17.322  40.942   4.901
46204W        W11189  12.616  14.628   2.356
46205W        W11190  10.432  17.597   1.905
46206W        W11191  41.127  17.029  14.754
46207W        W11192  41.743  32.033  11.089
46208W        W11193  41.290  17.258   0.210
46209W        W11194  30.423  29.165  10.132
46210W        W11195   5.189  14.378  14.931
46211W        W11196   9.184  35.560   0.194
46212W        W11197  33.162   7.356   0.829
46213W        W11198  12.914   5.264   1.168
46214W        W11199  38.873  32.153   1.922
46215W        W11200  44.368  34.399   1.392
46216W        W11201  16.546  12.712   3.713
46217W        W11202  42.329   0.490  12.707
46218W        W11203  16.522   4.234   1.907
46219W        W11204  14.884  26.622   0.990
46220W        W11205  31.195  31.883  12.622
46221W        W11206  12.708  16.466   1.329
46222W        W11207  14.434  20.097  11.697
46223W        W11208  17.869  43.938   1.742
46224W        W11209  15.925  34.361  10.307
46225W        W11210  43.968   2.963   1.806
46226W        W11211  22.774  19.108  11.379
46227W        W11212  13.770  10.370  12.482
46228W        W11213  17.837  44.765  12.543
46229W        W11214  20.662  22.467  12.945
46230W        W11215  22.616  24.095   3.760
46231W        W11216  19.295   9.008   3.547
46232W        W11217   1.568  43.506   3.325
46233W        W11218  36.490  22.793   0.555
46234W        W11219  36.354   4.666   3.595
46235W        W11220  29.696   4.933  10.167
46236W        W11221   9.846  36.499  14.323
46237W        W11222  22.681   7.877   3.619
46238W        W11223  40.220  32.943  10.978
46239W        W11224   2.002  39.740  12.422
46240W        W11225   6.645  41.558   2.362
46241W        W11226   6.051   2.716  14.206
46242W        W11227  24.274  42.940  11.941
46243W        W11228   9.591  34.901  14.609
46244W        W11229   2.510   3.257   4.125
46245W        W11230  34.624   7.277   0.807
46246W        W11231  20.944  44.566  12.009
46247W        W11232  34.071  43.726   1.959
46248W        W11233  32.016  41.339  10.771
46249W        W11234  30.557   6.610   4.307
46250W        W11235  39.254   7.626  12.513
46251W        W11236  42.426  38.126   4.968
46252W        W11237  35.358  23.728  12.983
46253W        W11238  20.773  35.606   1.797
46254W        W11239   0.941  22.974   0.885
46255W        W11240  41.283  39.080  10.979
46256W        W11241  39.035  16.300   0.703
46257W        W11242  44.066  36.392   2.141
46258W        W11243   4.430   3.842  13.476
46259W        W11244  13.284  14.782  11.397
46260W        W11245  30.179  40.580   4.695
46261W        W11246  24.945   5.111  12.007
46262W        W11247  28.900   5.209  13.007
46263W        W11248  10.671  30.451  13.590
46264W        W11249  10.817  24.952  12.478
46265W        W11250  31.490   8.682  13.527
46266W        W11251  35.042  12.891   1.383
46267W        W11252  27.893  32.842  13.360
46268W        W11253  43.255  23.088  10.706
46269W        W11254  33.493  22.479  11.960
46270W        W11255  31.906  33.075   1.232
46271W        W11256   9.868  43.887   3.291
46272W        W11257  23.111  17.365  11.896
46273W        W11258  43.814   4.692   0.273
46274W        W11259  30.086  30.740  13.108
46275W        W11260  44.442  15.096   3.200
46276W        W11261  15.915   2.137  10.169
46277W        W11262  32.403  23.573   2.384
46278W        W11263  17.994  19.072  11.767
46279W        W11264   7.761  24.973  12.558
46280W        W11265  15.123  22.675   0.480
46281W        W11266  24.438  26.503  13.373
46282W        W11267  26.126  35.051   4.587
46283W        W11268  28.159  11.138  12.949
46284W        W11269   2.413  33.514  11.694
46285W        W11270  35.516  18.804  13.412
46286W        W11271  15.418   2.259  12.060
46287W        W11272  22.168  29.548  12.906
46288W        W11273  23.070  30.298   4.211
46289W        W11274  18.374   8.742   3.667
46290W        W11275  33.767  30.399  13.444
46291W        W11276  43.483  30.925  10.943
46292W        W11277   1.885  30.627  14.925
46293W        W11278  38.805  16.799  14.875
46294W        W11279  14.876  41.920  13.882
46295W        W11280  23.955  21.161   4.529
46296W        W11281  11.601  36.282   1.865
46297W        W11282  15.369  22.279   1.269
46298W        W11283   9.359  20.555  11.467
46299W        W11284  19.372  29.084  12.461
46300W        W11285  43.273  11.649   4.529
46301W        W11286  19.695  17.528   4.016
46302W        W11287   9.901  11.683  13.834
46303W        W11288  40.752   3.835   4.597
46304W        W11289  29.604  43.029  13.443
46305W        W11290  40.740   7.810  14.524
46306W        W11291  16.280   3.756  10.956
46307W        W11292  43.849  22.835   0.670
46308W        W11293  23.170  11.191  11.546
46309W        W11294  11.923  20.142  11.231
46310W        W11295  18.280  34.439  14.455
46311W        W11296  17.607  35.216   2.745
46312W        W11297   1.385  33.352   3.660
46313W        W11298  31.523  28.435  11.074
46314W        W11299  44.009  36.632  12.293
46315W        W11300  20.755  43.613   1.519
46316W        W11301  40.456  39.790   4.588
46317W        W11302  33.981  27.183   0.857
46318W        W11303  36.312  43.135   4.691
46319W        W11304  14.503  39.349   0.898
46320W        W11305  14.352  26.026   2.296
46321W        W11306   8.744  29.821   3.637
46322W        W11307  43.383   7.987   4.291
46323W        W11308  18.233  18.129   4.522
46324W        W11309  38.142  39.617  13.429
46325W        W11310  30.862   1.588  13.122
46326W        W11311  14.244  26.519   2.928
46327W        W11312  30.064  41.571   3.195
46328W        W11313   8.599   3.079   1.697
46329W        W11314  41.037  11.372  10.635
46330W        W11315  30.391  24.601  14.476
46331W        W11316  28.026   0.209   3.305
46332W        W11317  30.948  25.541   4.431
46333W        W11318  13.438  38.777   4.128
46334W        W11319  30.615  10.894   3.395
46335W        W11320  37.136   4.930  13.483
46336W        W11321  44.863  17.274  14.755
46337W        W11322   9.167  19.423   4.407
46338W        W11323  35.998   0.326   1.028
46339W        W11324  42.076  20.731   2.265
46340W        W11325  41.042  37.611   1.101
46341W        W11326  20.576  19.881  11.712
46342W        W11327   0.773  43.324  12.764
46343W        W11328  44.492  32.149   2.285
46344W        W11329  14.237  17.222   2.639
46345W        W11330  39.232  38.895  11.142
46346W        W11331  38.573  16.998   9.594
46347W        W11332  16.882  38.369  13.445
46348W        W11333  26.504  23.096   0.027
46349W        W11334   2.918  21.252   4.664
46350W        W11335  35.686  23.969   1.735
46351W        W11336  11.254  28.594   3.369
46352W        W11337   5.391   3.796  14.092
46353W        W11338   8.799   7.383  12.451
46354W        W11339  43.786   9.130   3.332
46355W        W11340   8.928  25.069  12.614
46356W        W11341  29.461  40.429   0.764
46357W        W11342  18.733   9.101   4.638
46358W        W11343  22.167  35.536  10.641
46359W        W11344  30.011  24.959   2.296
46360W        W11345  43.411  25.549   0.257
46361W        W11346   0.021  35.362  10.655
46362W        W11347  43.855  13.728  11.669
46363W        W11348  16.766  40.237  12.431
46364W        W11349  20.831  18.172   3.175
46365W        W11350  44.005  15.569   3.770
46366W        W11351  42.421  25.373  14.959
46367W        W11352   0.392   2.934   1.293
46368W        W11353  31.816  15.748  12.473
46369W        W11354  15.287   7.543   1.858
46370W        W11355  22.084  10.917  12.121
46371W        W11356  20.102  25.955   1.278
46372W        W11357  36.613   6.806   3.296
46373W        W11358  32.867  40.312  13.448
46374W        W11359   9.138  33.115   4.125
46375W        W11360  11.143  26.064  11.050
46376W        W11361  14.576  10.100  11.022
46377W        W11362  21.136   8.472   1.743
46378W        W11363  11.148   0.514   2.877
46379W        W11364  20.864  44.024   2.403
46380W        W11365  24.925  28.423  12.090
46381W        W11366  19.556  43.743  14.054
46382W        W11367   7.564   8.124   0.280
46383W        W11368  26.971  36.399  13.804
46384W        W11369  12.344   7.659   2.143
46385W        W11370  23.504  28.946   0.893
46386W        W11371  19.333  21.236   1.224
46387W        W11372  12.762   1.029   4.034
46388W        W11373  35.664  23.656   0.189
46389W        W11374  16.356  19.440  10.322
46390W        W11375   8.611   5.259   0.774
46391W        W11376   4.816   9.667   5.105
46392W        W11377  43.704   0.492   4.083
46393W        W11378   1.906  20.261  13.029
46394W        W11379   4.683  31.636   0.468
46395W        W11380  32.049  17.769   3.343
46396W        W11381  13.749   4.950   1.859
46397W        W11382  38.035  41.976   4.650
46398W        W11383  27.472   6.639   3.138
46399W        W11384  24.638   7.436   4.171
46400W        W11385  24.336  40.843  12.299
46401W        W11386  19.096  27.214   5.492
46402W        W11387  41.761  28.829   5.430
46403W        W11388   7.939   9.770  10.359
46404W        W11389  17.669  23.024  10.779
46405W        W11390  12.476  11.139  12.573
46406W        W11391  26.033  34.134  14.713
46407W        W11392   8.986  44.197   1.377
46408W        W11393   2.402  24.476   4.761
46409W        W11394   1.566   2.906  11.622
46410W        W11395  27.091  17.886   4.601
46411W        W11396   3.663  21.065  11.603
46412W        W11397  11.281  34.542  12.147
46413W        W11398  42.999  25.908  14.597
46414W        W11399   1.292  28.245   2.579
46415W        W11400   4.371  26.791  10.490
46416W        W11401  23.821  29.097  10.295
46417W        W11402  44.013   9.429  11.941
46418W        W11403   2.752  37.127  11.199
46419W        W11404  10.119  38.438   0.378
46420W        W11405  36.907  17.293   2.288
46421W        W11406  26.489  44.423   2.185
46422W        W11407  31.558  21.997   1.627
46423W        W11408  41.823   1.269  12.137
46424W        W11409  22.036  22.434  13.041
46425W        W11410  16.801  44.470   2.696
46426W        W11411  29.703  43.339   0.293
46427W        W11412  13.399  39.804  10.785
46428W        W11413  24.176   6.330   4.511
46429W        W11414   8.602  15.687  14.508
46430W        W11415  18.189  20.870   4.967
46431W        W11416  36.829  36.016   1.065
46432W        W11417  15.722  34.899   0.338
46433W        W11418  40.065  30.344   0.967
46434W        W11419   6.247  27.479   4.542
46435W        W11420  34.082  20.470   2.906
46436W        W11421   6.436  37.908   1.277
46437W        W11422   8.946   0.039  12.030
46438W        W11423  10.628   3.487   3.631
46439W        W11424  26.560   0.449   0.360
46440W        W11425  36.560  43.112  14.923
46441W        W11426  13.704  23.715  12.025
46442W        W11427  40.837  22.748   4.143
46443W        W11428  42.000  14.864  12.384
46444W        W11429  33.651  12.673  12.377
46445W        W11430  28.358   6.658   2.350
46446W        W11431  28.133  18.749   5.158
46447W        W11432  38.170  30.312   1.729
46448W        W11433   1.752   5.612   2.818
46449W        W11434  27.490  43.490  13.146
46450W        W11435  23.336  13.075   4.051
46451W        W11436  31.984  22.124   4.155
46452W        W11437  25.665  14.177   0.459
46453W        W11438  12.527  29.512   5.048
46454W        W11439   4.400  36.448   1.726
46455W        W11440   8.042  18.901  12.121
46456W        W11441  17.809  31.636  10.738
46457W        W11442   3.399  33.058   0.403
46458W        W11443  20.451  32.124  14.474
46459W        W11444  21.027  26.462   1.468
46460W        W11445  25.190  31.446   1.753
46461W        W11446  11.354  36.819   4.608
46462W        W11447  43.404  13.836   2.681
46463W        W11448  39.541  32.770   2.228
46464W        W11449  38.232  28.046  12.947
46465W        W11450  36.879  30.891  12.459
46466W        W11451  39.037   1.261   1.419
46467W        W11452   2.507  43.259   3.047
46468W        W11453  30.959  41.467  11.984
46469W        W11454  38.537  11.151  14.021
46470W        W11455  43.939  14.190  14.860
46471W        W11456  22.028   2.770  10.679
46472W        W11457  29.109  43.758   1.772
46473W        W11458  43.731   1.337  12.515
46474W        W11459  40.539   3.035  13.969
46475W        W11460   2.402  30.105   3.670
46476W        W11461  38.709  36.425   4.354
46477W        W11462  18.216   0.467  14.832
46478W        W11463  13.576  26.976  14.859
46479W        W11464  40.618  14.214   9.712
46480W        W11465  22.732   8.772   3.731
46481W        W11466   9.942  13.741  12.426
46482W        W11467  10.207   4.789  13.816
46483W        W11468   0.322  40.426   0.531
46484W        W11469  36.275  38.636   1.426
46485W        W11470  43.393  14.420  12.562
46486W        W11471  33.381  41.758   2.280
46487W        W11472  18.694   9.448  11.521
46488W        W11473  42.205  22.138   4.654
46489W        W11474   2.180  23.473  11.209
46490W        W11475  24.485  22.584  10.828
46491W        W11476  30.131   0.164   0.451
46492W        W11477  37.379   1.548  10.780
46493W        W11478  21.121  25.957  11.514
46494W        W11479  31.313  17.179  10.182
46495W        W11480  12.921  28.179  14.889
46496W        W11481   5.257   7.999  11.158
46497W        W11482  43.343  39.087   2.161
46498W        W11483  21.243  15.708   9.971
46499W        W11484  39.488  44.700  14.763
46500W        W11485  11.266  25.488  10.844
46501W        W11486   5.171  14.011   0.738
46502W        W11487  10.839  44.817  14.645
46503W        W11488   2.301  26.378   0.341
46504W        W11489  33.061  36.494  10.697
46505W        W11490  41.285  36.254   3.066
46506W        W11491   4.580   5.513  10.809
46507W        W11492  28.464  25.130   2.746
46508W        W11493  30.857  37.023   1.344
46509W        W11494  17.714  21.633   4.011
46510W        W11495  31.438  29.066   2.280
46511W        W11496  15.231  28.485   3.238
46512W        W11497  32.416  15.236   3.735
46513W        W11498  34.098  30.578   2.302
46514W        W11499   2.343  26.277   0.844
46515W        W11500  38.114  29.900   2.405
46516W        W11501  38.029  27.661   4.139
46517W        W11502  21.539  41.333  12.898
46518W        W11503  36.284  28.034  13.970
46519W        W11504  34.115  19.121  10.710
46520W        W11505   8.633  33.795   3.260
46521W        W11506  37.446  38.842   2.207
46522W        W11507  42.770  24.925  11.531
46523W        W11508  10.821  14.312   0.437
46524W        W11509  39.551  18.982  14.880
46525W        W11510   2.835  34.188  11.128
46526W        W11511  41.798   6.093  13.010
46527W        W11512  40.810  30.449  11.146
46528W        W11513   7.399   9.407   3.787
46529W        W11514  30.447  25.656  13.733
46530W        W11515  31.899  42.524   1.880
46531W        W11516  34.954  23.646  12.061
46532W        W11517   0.383  32.598   4.682
46533W        W11518   3.432  26.824   5.041
46534W        W11519  19.092  13.772  11.604
46535W        W11520  27.052  43.934  11.143
46536W        W11521  23.676  10.434  12.179
46537W        W11522  15.795  21.618   1.221
46538W        W11523  28.190  31.940  13.395
46539W        W11524  27.919  24.437   2.456
46540W        W11525  23.967  20.036  12.529
46541W        W11526  15.688  31.198   3.703
46542W        W11527  40.781  28.608  11.002
46543W        W11528  31.391  33.627  13.917
46544W        W11529  38.139  43.089   4.703
46545W        W11530  42.080   7.417   1.294
46546W        W11531  42.779  23.267  12.477
46547W        W11532  17.086  27.122   0.508
46548W        W11533   1.989  28.692  14.437
46549W        W11534  44.112  34.402  10.852
46550W        W11535  12.584  38.401   0.974
46551W        W11536   3.203   1.742   4.161
46552W        W11537  42.565   7.841  12.947
46553W        W11538  17.000  10.601  10.886
46554W        W11539  13.133  41.975  12.963
46555W        W11540   8.965  14.584  13.002
46556W        W11541  30.531  18.748   4.530
46557W        W11542   9.017  23.212   3.800
46558W        W11543  39.878  26.625  14.891
46559W        W11544  17.179  27.155   2.425
46560W        W11545  12.705   0.991  12.932
46561W        W11546  24.694  28.249   0.259
46562W        W11547  18.840  37.363  11.527
46563W        W11548  41.883  18.136  10.649
46564W        W11549  21.218   0.869   4.648
46565W        W11550  18.683  24.769  10.094
46566W        W11551  18.013  14.162   0.100
46567W        W11552  16.081  17.675  14.962
46568W        W11553  25.009  34.899   4.529
46569W        W11554  27.384  11.767   1.798
46570W        W11555  31.911  37.287   1.669
46571W        W11556  41.741  44.520   3.317
46572W        W11557  44.000  36.061  10.451
46573W        W11558  42.005  36.970   1.809
46574W        W11559   7.135  15.665  13.571
46575W        W11560  19.271  31.603  11.560
46576W        W11561   9.901   8.807   1.638
46577W        W11562  27.285  41.052   0.287
46578W        W11563  39.823  20.152  14.413
46579W        W11564  18.137  36.797  12.672
46580W        W11565  37.987  15.046  11.462
46581W        W11566  20.615  36.869  12.574
46582W        W11567  10.270  29.430  11.617
46583W        W11568   2.715  22.262  13.021
46584W        W11569   9.087   2.259  13.066
46585W        W11570  19.666   1.312  11.451
46586W        W11571  37.816   6.835   2.642
46587W        W11572  16.809  27.095  13.486
46588W        W11573  40.496  28.921  14.545
46589W        W11574  44.345  37.135   0.067
46590W        W11575   9.901  39.391  11.180
46591W        W11576  43.920  16.785  14.012
46592W        W11577  35.172  12.856   3.677
46593W        W11578  20.132  30.157  14.523
46594W        W11579  39.829  36.924   4.938
46595W        W11580  16.400  25.273   1.485
46596W        W11581  42.764  22.182   2.106
46597W        W11582  41.846   9.348  12.440
46598W        W11583   5.353  20.970   0.423
46599W        W11584  10.291  39.980   2.888
46600W        W11585  34.661  30.778  11.826
46601W        W11586   4.303  10.794   0.546
46602W        W11587  10.133  30.988   2.833
46603W        W11588  41.848   0.580   3.220
46604W        W11589  22.766  13.327   0.823
46605W        W11590  21.651   7.523  14.327
46606W        W11591  17.149  17.182   4.759
46607W        W11592  13.235  44.888  12.485
46608W        W11593  38.841  41.076  14.276
46609W        W11594  28.521   2.354  12.901
46610W        W11595   1.476   1.758   3.599
46611W        W11596  38.582  20.036   2.380
46612W        W11597  14.194  12.452   2.652
46613W        W11598  40.918   6.528  10.739
46614W        W11599  24.161  13.556   3.021
46615W        W11600  40.074  43.822   4.052
46616W        W11601   7.874  40.531   2.746
46617W        W11602  41.770  18.038  14.292
46618W        W11603  33.905  27.568   1.797
46619W        W11604  41.144  39.505  11.253
46620W        W11605  15.609   3.214   9.911
46621W        W11606  14.128  37.331  10.749
46622W        W11607   0.858  23.134   3.777
46623W        W11608  27.666  27.355  11.107
46624W        W11609  32.769  33.610  14.389
46625W        W11610   7.764  24.295  10.681
46626W        W11611  11.976  28.486   3.740
46627W        W11612  32.960  37.258  14.170
46628W        W11613  32.650  43.484   3.082
46629W        W11614  36.467  18.986  12.626
46630W        W11615  29.057  40.507  12.075
46631W        W11616  39.496   4.717   0.386
46632W        W11617   8.945   4.476   4.971
46633W        W11618  25.099  26.175   0.732
46634W        W11619  35.824   4.301  14.355
46635W        W11620  35.912   1.549  11.265
46636W        W11621  39.707  23.742  13.864
46637W        W11622  11.161  39.959  14.909
46638W        W11623   6.149  44.495  12.891
46639W        W11624  22.590  37.412  11.139
46640W        W11625  20.410  27.947   2.340
46641W        W11626  40.064  35.844   0.449
46642W        W11627  36.802  11.832  12.533
46643W        W11628  26.640  11.714  11.265
46644W        W11629  32.860   4.697   3.943
46645W        W11630  20.124   0.657   0.525
46646W        W11631  17.086  24.034   1.283
46647W        W11632  14.284  18.981   1.401
46648W        W11633  18.309  11.664   1.082
46649W        W11634  28.003  37.647   1.364
46650W        W11635   8.176  34.057   3.271
46651W        W11636  38.213  23.010   0.462
46652W        W11637  16.998   5.836  14.254
46653W        W11638  25.573  12.830  14.282
46654W        W11639  43.900  26.731  10.214
46655W        W11640  38.520  36.609   1.325
46656W        W11641  32.789  18.951  11.138
46657W        W11642  25.992  32.815   1.757
46658W        W11643  35.172  24.083  10.758
46659W        W11644   7.640  27.117  11.181
46660W        W11645   2.045  43.060   3.744
46661W        W11646  31.136  13.385  13.119
46662W        W11647  26.481  27.354  10.709
46663W        W11648  14.030  40.425   2.476
46664W        W11649  29.614  25.917   4.764
46665W        W11650  29.878  26.807   4.531
46666W        W11651  34.854  34.513  10.515
46667W        W11652  20.770  11.233  11.685
46668W        W11653   6.699  13.193  11.232
46669W        W11654  22.175   6.263  13.437
46670W        W11655  25.550  28.626   2.217
46671W        W11656  35.075   9.723  13.083
46672W        W11657  27.515  31.487   2.709
46673W        W11658  28.650   3.303   0.790
46674W        W11659  25.577  42.994   2.298
46675W        W11660  23.442  30.429  14.950
46676W        W11661   2.670  26.129   1.440
46677W        W11662  15.567   6.664  13.204
46678W        W11663  37.506  38.444   4.291
46679W        W11664  40.312   1.943  14.628
46680W        W11665  17.091  13.853   2.763
46681W        W11666   8.903  12.649  14.276
46682W        W11667  22.099  14.367   0.460
46683W        W11668  19.603  34.885  14.267
46684W        W11669  44.233  17.608   3.338
46685W        W11670  12.689  42.473   0.241
46686W        W11671  20.254  38.406   0.158
46687W        W11672  13.243  13.010  11.575
46688W        W11673  18.069  22.132   0.425
46689W        W11674  14.306  12.393   0.618
46690W        W11675  14.767  24.255   0.324
46691W        W11676  43.806  13.107   0.901
46692W        W11677  32.502  32.844   3.676
46693W        W11678  40.916  36.989  13.067
46694W        W11679  24.184  36.066  11.184
46695W        W11680  39.359  38.178   0.864
46696W        W11681  33.677  20.104  14.793
46697W        W11682   9.645  22.706  10.674
46698W        W11683  30.888  11.292   4.406
46699W        W11684  21.129  26.211   4.381
46700W        W11685  33.563  41.900  14.861
46701W        W11686  16.101  18.225   2.480
46702W        W11687  16.021  32.257   4.169
46703W        W11688  11.459  12.444   0.985
46704W        W11689  33.904  36.137   3.282
46705W        W11690  30.588  22.348  12.116
46706W        W11691  14.737  39.006  10.165
46707W        W11692  37.700  44.327   5.247
46708W        W11693   6.972  36.412  11.605
46709W        W11694  16.664   2.423  11.092
46710W        W11695   5.180  22.218  14.839
46711W        W11696  41.327  22.072  13.340
46712W        W11697   0.220   3.972  14.460
46713W        W11698  43.530  21.706   4.469
46714W        W11699  18.461  42.293   4.705
46715W        W11700  24.475  21.140   4.572
46716W        W11701  28.053  27.392   4.832
46717W        W11702   9.144  36.109  12.917
46718W        W11703   7.735  39.643   4.641
46719W        W11704  11.217  29.536   3.261
46720W        W11705   4.426   4.276  10.912
46721W        W11706  16.751  37.373  14.393
46722W        W11707  43.960   4.998  13.756
46723W        W11708  37.972  13.119   0.319
46724W        W11709  15.239   1.849  14.774
46725W        W11710   6.506  23.720   3.693
46726W        W11711  38.566  32.106   0.515
46727W        W11712  24.168   1.832   4.418
46728W        W11713  23.661  35.673   0.005
46729W        W11714  11.888  21.775  14.563
46730W        W11715  13.559   6.906  10.513
46731W        W11716  26.558  30.146  14.843
46732W        W11717  21.048  18.172  14.287
46733W        W11718   1.368  38.947   2.461
46734W        W11719   5.032  37.411  14.324
46735W        W11720  10.257  28.179   2.633
46736W        W11721  23.650   0.093  12.106
46737W        W11722  19.865  25.885   0.010
46738W        W11723  13.545  32.616   4.329
46739W        W11724  24.637  43.578  14.520
46740W        W11725  32.865  13.145   1.922
46741W        W11726   1.776  27.046   0.494
46742W        W11727  41.499   9.802  11.193
46743W        W11728  37.227  19.419  11.140
46744W        W11729  36.280  43.331  10.575
46745W        W11730   6.517  18.587  14.525
46746W        W11731  27.099  36.362   1.788
46747W        W11732  37.526  38.082   2.931
46748W        W11733   0.885   5.708   4.576
46749W        W11734   6.197  24.652  13.075
46750W        W11735   3.863  11.987  12.385
46751W        W11736   0.338  35.030  12.144
46752W        W11737  24.439   6.345  12.376
46753W        W11738   6.156  32.927   1.014
46754W        W11739  39.074   9.800   3.304
46755W        W11740  19.743  35.575  14.957
46756W        W11741  25.270   7.695  10.878
46757W        W11742  20.820   8.283   2.893
46758W        W11743  10.829  26.087   3.780
46759W        W11744   0.064  20.248   4.622
46760W        W11745   5.751   0.322  14.164
46761W        W11746  14.668   7.517  10.403
46762W        W11747  13.264  10.749   4.546
46763W        W11748  31.192  32.503  12.479
46764W        W11749  32.571  21.914   0.839
46765W        W11750  21.710  40.466   1.251
46766W        W11751  19.041  38.868  14.908
46767W        W11752  10.464   9.899  14.862
46768W        W11753  14.998  37.787  14.405
46769W        W11754  33.841  27.588  14.893
46770W        W11755  26.048  20.567   0.519
46771W        W11756  44.903  24.564  14.204
46772W        W11757  29.486  33.916   1.775
46773W        W11758  15.910  12.156  11.582
46774W        W11759  27.396  44.427  10.814
46775W        W11760   8.292   0.497  12.414
46776W        W11761  25.025  29.189   3.699
46777W        W11762  29.084  41.558   1.463
46778W        W11763   6.558  23.949   3.167
46779W        W11764   3.037  40.709   2.323
46780W        W11765   5.705  41.455  14.764
46781W        W11766  10.441  13.735  12.486
46782W        W11767  33.064  32.665  12.548
46783W        W11768  40.053  20.316   1.329
46784W        W11769  10.721   6.404  10.391
46785W        W11770  27.263  15.637  13.371
46786W        W11771   4.544  14.750   1.752
46787W        W11772  13.690  37.125  14.723
46788W        W11773  13.846  25.620   0.800
46789W        W11774  38.979  35.877   3.128
46790W        W11775   7.382   1.817   1.290
46791W        W11776  38.772  21.776  11.136
46792W        W11777   1.169   4.441   1.861
46793W        W11778  36.063   2.203   4.511
46794W        W11779  13.777  30.089  13.801
46795W        W11780  33.951  12.240   3.317
46796W        W11781  28.014  37.323   3.158
46797W        W11782   6.207   7.242  12.400
46798W        W11783  43.039  10.172  14.577
46799W        W11784  31.030  34.017  10.735
46800W        W11785  30.576  38.024  11.126
46801W        W11786  15.659  19.903  13.493
46802W        W11787  37.148  30.044   1.961
46803W        W11788   9.213   4.422   1.760
46804W        W11789  40.976  11.646  13.408
46805W        W11790  14.192   7.728   0.447
46806W        W11791   7.375  41.024   4.225
46807W        W11792  36.091   6.855  12.343
46808W        W11793  42.943   9.345  11.576
46809W        W11794  17.619  36.426  12.213
46810W        W11795  34.005   2.987  11.191
46811W        W11796  37.341  22.479  12.534
46812W        W11797  15.572  29.144  14.451
46813W        W11798  12.507   4.249   3.273
46814W        W11799   3.019  11.780   2.777
46815W        W11800  36.593  10.249  14.287
46816W        W11801  43.731  23.935  14.912
46817W        W11802  14.773  19.005   0.763
46818W        W11803  33.475  28.920   3.136
46819W        W11804  35.972  37.415   0.217
46820W        W11805  40.610  12.337   3.441
46821W        W11806  34.968  36.443  14.832
46822W        W11807  29.576  30.968  12.371
46823W        W11808  14.852   7.277   1.323
46824W        W11809  33.153  12.160  13.522
46825W        W11810  15.574  13.740   4.529
46826W        W11811  23.430  18.677   0.664
46827W        W11812  17.658  17.257  12.653
46828W        W11813  18.675  35.469  10.663
46829W        W11814  23.649  25.512   4.168
46830W        W11815  16.292  19.273   3.927
46831W        W11816  21.013  13.511  11.599
46832W        W11817  27.668  34.567   4.349
46833W        W11818   0.227   8.781   4.032
46834W        W11819  26.558  28.149  12.894
46835W        W11820  35.607  38.100   2.572
46836W        W11821   0.923   8.856   4.500
46837W        W11822  33.444  38.540   4.092
46838W        W11823  21.694  37.853  12.140
46839W        W11824  23.915   4.367  12.216
46840W        W11825  28.691  27.003  13.412
46841W        W11826  10.349  21.749   4.110
46842W        W11827  36.495  29.750   0.090
46843W        W11828  19.846   1.672  12.492
46844W        W11829  23.955  18.639   2.555
46845W        W11830   1.054  26.961   0.033
46846W        W11831  25.738   5.955   5.041
46847W        W11832  12.794  26.804   2.806
46848W        W11833  17.163  39.012   2.842
46849W        W11834  30.257  25.403  11.069
46850W        W11835   4.777   1.536  11.201
46851W        W11836  31.936  29.589   3.826
46852W        W11837  19.073  15.664  12.302
46853W        W11838  24.948  27.656  11.659
46854W        W11839  25.659  29.085   3.214
46855W        W11840  31.356  22.001   1.163
46856W        W11841  24.770   7.729  14.870
46857W        W11842  22.017   7.231  13.961
46858W        W11843  36.876  22.369   4.109
46859W        W11844  28.709  12.710  12.643
46860W        W11845   1.376  27.241   4.521
46861W        W11846   7.478  29.726   4.097
46862W        W11847  35.047  12.235  12.583
46863W        W11848  19.115   2.678   3.538
46864W        W11849  23.944   2.766   0.340
46865W        W11850  43.472  33.440  11.480
46866W        W11851   5.950   6.138  14.010
46867W        W11852  25.236  29.304  12.532
46868W        W11853  19.452  39.522   2.692
46869W        W11854  44.313  16.248   4.540
46870W        W11855  33.172  12.055   0.333
46871W        W11856  23.967   7.749  11.986
46872W        W11857  27.843  43.240   1.664
46873W        W11858  20.185  23.123   3.953
46874W        W11859  44.467  21.619  10.647
46875W        W11860  33.405  23.150   2.843
46876W        W11861   5.382  27.860  14.860
46877W        W11862  38.184  24.985   4.590
46878W        W11863   2.162   7.279  12.938
46879W        W11864   0.463   9.174  11.999
46880W        W11865   3.013   8.220   3.691
46881W        W11866  33.895  27.375  11.511
46882W        W11867  16.992  34.630  11.012
46883W        W11868  26.985  37.607  12.591
46884W        W11869  18.572  19.096   0.644
46885W        W11870  36.374  28.186   2.326
46886W        W11871  38.176   9.754  10.658
46887W        W11872   1.299  33.645  12.553
46888W        W11873  12.868  23.674  12.642
46889W        W11874  17.983   1.287   3.420
46890W        W11875  21.044  19.262   1.743
46891W        W11876  39.483  19.589   2.782
46892W        W11877  29.656  29.999   0.810
46893W        W11878  22.544  26.739   4.354
46894W        W11879   0.737  17.121   4.348
46895W        W11880  26.249   2.403   3.091
46896W        W11881  20.416  13.018   1.349
46897W        W11882  31.937  44.441  13.277
46898W        W11883  25.047  18.885  14.304
46899W        W11884  24.567  30.390  14.477
46900W        W11885   7.857  16.218  11.594
46901W        W11886  24.666  32.609   1.413
46902W        W11887  42.762  39.809   4.288
46903W        W11888  36.507   7.366  10.743
46904W        W11889  30.912  38.527  12.873
46905W        W11890  29.860  22.439  11.972
46906W        W11891  28.344  22.269   1.934
46907W        W11892  42.298  12.832   4.530
46908W        W11893  14.633   4.527   3.762
46909W        W11894  39.598   7.800   4.781
46910W        W11895   0.672  31.834   5.051
46911W        W11896   1.771  16.604   0.082
46912W        W11897  34.273  23.159   0.820
46913W        W11898  39.878  19.692  13.144
46914W        W11899  39.070  16.969   1.216
46915W        W11900   4.483  40.975  13.448
46916W        W11901  36.596  25.766   2.227
46917W        W11902  37.351  23.362   4.439
46918W        W11903  25.432  26.681  12.441
46919W        W11904   7.307   5.677  13.431
46920W        W11905   4.141   3.767  10.758
46921W        W11906  11.220  19.024   2.900
46922W        W11907  27.548   2.769   0.768
46923W        W11908   0.993  41.403   2.865
46924W        W11909  41.978   1.393  11.148
46925W        W11910  34.097  10.300  13.952
46926W        W11911  12.760  20.199  12.104
46927W        W11912  17.056  31.573   4.469
46928W        W11913  37.237  14.373  14.033
46929W        W11914  32.583  12.982   4.130
46930W        W11915  27.601  23.795  13.357
46931W        W11916  28.126  40.067  10.278
46932W        W11917  32.898   4.368   1.211
46933W        W11918   7.704   6.251  13.016
46934W        W11919  10.237   6.354   4.596
46935W        W11920  11.915   4.148   1.449
46936W        W11921  13.021  42.601  13.899
46937W        W11922  41.451  11.782   0.973
46938W        W11923  31.043  20.608  10.891
46939W        W11924   3.699   8.867   1.307
46940W        W11925  25.064  40.348  13.841
46941W        W11926  16.393   9.890  10.635
46942W        W11927   4.680  30.038  14.036
46943W        W11928  36.804  33.923  13.774
46944W        W11929  41.935  38.425  11.111
46945W        W11930   0.702  36.554  10.658
46946W        W11931  34.481  14.428  13.892
46947W        W11932   4.666   5.721   4.538
46948W        W11933  43.078  25.225  12.888
46949W        W11934  11.992  34.577  12.447
46950W        W11935  39.525   6.651  12.476
46951W        W11936   7.375  40.744  12.443
46952W        W11937  20.444  31.390   4.474
46953W        W11938  27.225  28.434   0.728
46954W        W11939   4.822  32.813  12.943
46955W        W11940   3.385  35.663   0.991
46956W        W11941  38.056  33.121   2.437
46957W        W11942   4.705  29.911   4.626
46958W        W11943  43.999  15.882  13.967
46959W        W11944  25.982   9.184  12.030
46960W        W11945  29.537   3.681  10.893
46961W        W11946  23.638  37.951   0.842
46962W        W11947  41.239  39.792   0.890
46963W        W11948   8.800  17.280   0.818
46964W        W11949  33.378  32.181  13.971
46965W        W11950  42.985  24.197  12.986
46966W        W11951  18.286  37.992  11.168
46967W        W11952   2.891  26.692   2.288
46968W        W11953  11.576  30.406   2.785
46969W        W11954  41.783  27.508  12.318
46970W        W11955  22.778  25.792  11.515
46971W        W11956   2.376  40.380   4.082
46972W        W11957  40.968  13.757  10.296
46973W        W11958  36.665  17.374  13.422
46974W        W11959  44.354  39.008  12.490
46975W        W11960  10.937   4.707  10.598
46976W        W11961  14.169   5.195   0.100
46977W        W11962   0.449  42.015  12.948
46978W        W11963  38.455   2.829  11.637
46979W        W11964  36.897  27.169   2.339
46980W        W11965  42.233  25.111  14.552
46981W        W11966   6.271  18.928   3.225
46982W        W11967  30.403  33.395   5.243
46983W        W11968  23.162   1.783  12.966
46984W        W11969  21.311  32.617   3.581
46985W        W11970  34.876  41.372   1.391
46986W        W11971   4.926   3.792  13.354
46987W        W11972  30.163   1.205   3.749
46988W        W11973  31.500  42.794  12.946
46989W        W11974  37.911  24.196  11.880
46990W        W11975  16.699   6.597   3.597
46991W        W11976  44.528  10.217  14.311
46992W        W11977  43.415   0.409   3.640
46993W        W11978  37.829  32.407   2.210
46994W        W11979  20.051  15.182  10.783
46995W        W11980   2.857   3.895   1.802
46996W        W11981  35.534  38.547  11.217
46997W        W11982  37.526  30.504   1.335
46998W        W11983  19.312  40.052   3.167
46999W        W11984  40.032  18.665   1.699
47000W        W11985   0.544   1.850   1.263
47001W        W11986  14.090  18.878   4.026
47002W        W11987   7.796   4.166   1.314
47003W        W11988  22.233  28.035   4.330
47004W        W11989  23.575  38.427  13.092
47005W        W11990  36.818  16.367  12.674
47006W        W11991  38.665  24.519  11.005
47007W        W11992  13.633  13.172   4.183
47008W        W11993   7.693  44.442   0.993
47009W        W11994  32.862  25.575  13.042
47010W        W11995  19.804  42.267   4.559
47011W        W11996  30.985   1.265  14.778
47012W        W11997  34.582  13.673  13.031
47013W        W11998   6.183   2.668  11.250
47014W        W11999  44.839  37.851   0.887
47015W        W12000  23.961  32.990   1.363
47016W        W12001   4.594  15.255   3.680
47017W        W12002  32.072  29.697   0.278
47018W        W12003  19.113  30.887  14.103
47019W        W12004  35.803  27.081  10.453
47020W        W12005  40.266  33.141   2.649
47021W        W12006  34.310   6.712  14.571
47022W        W12007  38.205  42.767   3.264
47023W        W12008  21.234  32.222   4.563
47024W        W12009   9.446   7.502  14.148
47025W        W12010  14.219  38.944  14.712
47026W        W12011  18.518  15.208  12.915
47027W        W12012  15.261  44.259   3.964
47028W        W12013  41.224   5.388  13.510
47029W        W12014  37.985  17.947  12.843
47030W        W12015  10.556  16.059   4.511
47031W        W12016  28.538  44.975   2.805
47032W        W12017  30.432  15.740   4.635
47033W        W12018   6.724  20.163   2.717
47034W        W12019  20.293  20.122  10.567
47035W        W12020  31.014  39.928   1.763
47036W        W12021  21.925   1.530  12.075
47037W        W12022  12.668   7.816   1.148
47038W        W12023  25.004  43.266   1.351
47039W        W12024  38.926  21.228  12.402
47040W        W12025  43.245  40.524   4.845
47041W        W12026  22.031  32.654   0.364
47042W        W12027  25.442  34.899  14.389
47043W        W12028  14.743  23.072  13.493
47044W        W12029  31.855   7.385   1.884
47045W        W12030  28.906  27.750   1.320
47046W        W12031   6.391   5.153  13.402
47047W        W12032  33.227  26.555   1.792
47048W        W12033  37.967  10.478   3.830
47049W        W12034   9.726  17.028   2.120
47050W        W12035   4.226  24.282   0.260
47051W        W12036  16.826  26.988  14.111
47052W        W12037  38.805  34.459  10.796
47053W        W12038  22.989   8.158  14.776
47054W        W12039  32.870   6.463   0.418
47055W        W12040  11.276  33.918   0.655
47056W        W12041  16.067  25.546   3.576
47057W        W12042  43.267  12.742  14.065
47058W        W12043  38.151  18.244   3.210
47059W        W12044  35.015  17.256   2.658
47060W        W12045  10.729   3.123  10.597
47061W        W12046  23.433  38.825  14.014
47062W        W12047  29.322  22.158   1.000
47063W        W12048  15.112  26.724   2.298
47064W        W12049   1.647  36.957  12.885
47065W        W12050   9.631   5.127  13.468
47066W        W12051  31.794  33.675  11.703
47067W        W12052  18.591  28.788  11.156
47068W        W12053  17.020  42.429   3.634
47069W        W12054  28.584  27.214   0.352
47070W        W12055  25.636   4.874  13.110
47071W        W12056  19.465   1.468  13.418
47072W        W12057   6.993  39.274  12.093
47073W        W12058   1.551   5.186  12.418
47074W        W12059   5.792  18.034  13.353
47075W        W12060  12.705   1.895   2.332
47076W        W12061  16.908  32.349   1.593
47077W        W12062  42.937  14.316  10.623
47078W        W12063  21.056  39.537  12.853
47079W        W12064  31.983  39.982   4.333
47080W        W12065  26.235   7.143   0.169
47081W        W12066  36.808  14.732  13.067
47082W        W12067  18.637  27.482  12.900
47083W        W12068  30.499  34.849   4.626
47084W        W12069  35.079  19.192   4.887
47085W        W12070   1.442  17.507  13.635
47086W        W12071   4.168  29.608   1.424
47087W        W12072  31.063  17.186   1.268
47088W        W12073  20.033  17.658   3.469
47089W        W12074   1.317  28.186  11.985
47090W        W12075  32.869   6.309   4.713
47091W        W12076   0.980  16.312  14.812
47092W        W12077  15.578  38.444   0.886
47093W        W12078   0.391  44.813  11.778
47094W        W12079  13.575   9.701   0.398
47095W        W12080  40.528  23.534  12.019
47096W        W12081  37.958  32.594  10.673
47097W        W12082  27.720  14.560   0.462
47098W        W12083  11.316  28.192   4.926
47099W        W12084   2.274  14.678  14.837
47100W        W12085  30.245   3.162   0.346
47101W        W12086   3.967  20.908  12.031
47102W        W12087  41.634  42.688   1.733
47103W        W12088  16.125  25.460  11.731
47104W        W12089  16.206   8.234   2.327
47105W        W12090   0.975  18.667  12.451
47106W        W12091  33.949  11.676  12.516
47107W        W12092  36.529  24.709  13.572
47108W        W12093  12.791  41.559  11.129
47109W        W12094  22.049  26.949  12.096
47110W        W12095   0.293  37.369  13.462
47111W        W12096  12.991  39.244  11.563
47112W        W12097  33.839  14.851   3.634
47113W        W12098   1.694  11.275  11.811
47114W        W12099  15.060   3.669  12.909
47115W        W12100   3.948   5.177   4.503
47116W        W12101  43.304   1.166  11.067
47117W        W12102  19.175   1.932  13.480
47118W        W12103  28.952  19.278   0.703
47119W        W12104   3.458   1.341  10.670
47120W        W12105  32.506  42.729  12.016
47121W        W12106  20.135   5.188   4.128
47122W        W12107  32.348  24.059  10.518
47123W        W12108   6.751   7.981   0.575
47124W        W12109  18.582  32.111  14.780
47125W        W12110  24.501  41.348  14.383
47126W        W12111   8.779  44.063   2.246
47127W        W12112   7.508  17.183   5.011
47128W        W12113   7.408  31.118   1.069
47129W        W12114  44.073   1.809   4.450
47130W        W12115   9.075  19.954  12.939
47131W        W12116  40.267  14.100   1.438
47132W        W12117  24.535  25.534  14.023
47133W        W12118   5.307   1.183  13.867
47134W        W12119  20.185  33.551   0.882
47135W        W12120  26.697  27.692   5.066
47136W        W12121  21.283   8.967   1.723
47137W        W12122   3.675  34.874  11.271
47138W        W12123  44.429  11.112   3.388
47139W        W12124   7.168  38.902   2.705
47140W        W12125  19.597   3.846  13.876
47141W        W12126  40.431   5.002   0.844
47142W        W12127  16.250  27.238  11.237
47143W        W12128  35.167  40.017   1.294
47144W        W12129  42.018  34.872   1.728
47145W        W12130   4.912  28.145   2.355
47146W        W12131   1.856  37.844  12.584
47147W        W12132  37.550  26.447  13.825
47148W        W12133  32.668   7.862  12.442
47149W        W12134  23.941   5.991  14.650
47150W        W12135   7.333  23.948   1.248
47151W        W12136  43.244  24.693   2.336
47152W        W12137   8.712   0.278   3.497
47153W        W12138  13.765  16.316   1.119
47154W        W12139   9.224  44.148  10.306
47155W        W12140  17.755  12.205  13.300
47156W        W12141  36.111  21.617  14.258
47157W        W12142  21.063  20.271   0.331
47158W        W12143  36.856  38.034  14.431
47159W        W12144  26.253   6.213  12.063
47160W        W12145  18.129   7.329  13.346
47161W        W12146  32.394   1.994  12.962
47162W        W12147  33.856  17.712  14.476
47163W        W12148  29.181  11.415  14.463
47164W        W12149  36.050  23.119  14.364
47165W        W12150  22.520  21.663   0.474
47166W        W12151  40.161  38.469   1.810
47167W        W12152  28.143   9.988   1.308
47168W        W12153  25.204   5.472  14.276
47169W        W12154  33.052  35.755   1.871
47170W        W12155  12.574  23.456   3.260
47171W        W12156  34.397   2.293  10.975
47172W        W12157   1.692  21.472  11.485
47173W        W12158  18.215  13.852  14.750
47174W        W12159  29.050  14.657  14.041
47175W        W12160  39.285  26.327   4.288
47176W        W12161   1.973   2.709   3.600
47177W        W12162  28.790  11.855  14.499
47178W        W12163   5.170   2.751  11.133
47179W        W12164  36.629  35.098   4.202
47180W        W12165  28.220  31.078   0.451
47181W        W12166  25.483   3.509  14.791
47182W        W12167  43.971  15.028  12.424
47183W        W12168  25.244  18.662  13.861
47184W        W12169  25.296  28.725  11.188
47185W        W12170  33.612   6.006  13.837
47186W        W12171  31.041   2.487   4.681
47187W        W12172  17.774  29.379  12.016
47188W        W12173  18.765   7.581   4.021
47189W        W12174  27.430  18.881   0.808
47190W        W12175  43.059  23.918  11.657
47191W        W12176   5.346  37.044   3.182
47192W        W12177  32.886  41.837  11.602
47193W        W12178  34.294  27.998   0.139
47194W        W12179  10.231  37.082   2.209
47195W        W12180  15.686  36.386   3.595
47196W        W12181  34.141   3.792  13.515
47197W        W12182  35.651  44.979  13.872
47198W        W12183  26.866   4.439   4.245
47199W        W12184  28.252  11.370   1.785
47200W        W12185  25.542  14.762   4.538
47201W        W12186   6.180  28.600   1.425
47202W        W12187  20.809   9.813  12.040
47203W        W12188  39.730   5.811   4.274
47204W        W12189   4.913  26.194  11.537
47205W        W12190  13.070  37.047   2.251
47206W        W12191  39.083  28.977  14.252
47207W        W12192   1.861  18.168  11.478
47208W        W12193   7.342   9.316   1.682
47209W        W12194   0.106  42.432  14.620
47210W        W12195  16.063   3.522  12.150
47211W        W12196   8.091   0.535   1.768
47212W        W12197  42.467  22.881  13.853
47213W        W12198   2.432  21.138  14.248
47214W        W12199   9.870  21.501  12.535
47215W        W12200   4.944  34.503   4.243
47216W        W12201  35.027  24.071   3.341
47217W        W12202   3.241  16.889   0.823
47218W        W12203  35.081  39.248  12.158
47219W        W12204  37.329   3.378  12.523
47220W        W12205  15.028  11.838  13.379
47221W        W12206  16.312  41.502  14.766
47222W        W12207  15.712  13.671   2.708
47223W        W12208  30.679   9.300   1.772
47224W        W12209  15.142  43.341   1.661
47225W        W12210  33.971  15.098  11.514
47226W        W12211  21.453   0.780  11.909
47227W        W12212   7.467  30.392  13.801
47228W        W12213  36.205  28.922   1.006
47229W        W12214   2.771   1.666   0.443
47230W        W12215  26.199   8.252  13.690
47231W        W12216  13.313  36.400   0.867
47232W        W12217  29.425  40.632  12.438
47233W        W12218  24.674  33.134  13.025
47234W        W12219   4.269   2.533   2.372
47235W        W12220  38.948   1.595   0.407
47236W        W12221  18.199   6.915   4.113
47237W        W12222   0.459  20.720  12.398
47238W        W12223   1.700  39.027  13.524
47239W        W12224  25.096  17.962  11.141
47240W        W12225  11.360   0.729   0.348
47241W        W12226  36.232  21.540  10.463
47242W        W12227  35.004  23.594   3.151
47243W        W12228  42.908  31.921   3.169
47244W        W12229   3.330  30.424   3.841
47245W        W12230  29.545  42.181   1.857
47246W        W12231   9.307   7.226  12.206
47247W        W12232  29.572  26.895   1.887
47248W        W12233  15.332  19.292  13.415
47249W        W12234   2.769  42.981  14.835
47250W        W12235  12.187  24.213   4.268
47251W        W12236   9.402  35.837   2.781
47252W        W12237   8.250  33.776  13.124
47253W        W12238  31.065  34.307  14.172
47254W        W12239  10.434  30.363  11.581
47255W        W12240  38.917  44.917  12.501
47256W        W12241  19.339  26.096   1.713
47257W        W12242  24.496  25.079  13.588
47258W        W12243   5.139   6.176   0.298
47259W        W12244  35.864  28.958   2.968
47260W        W12245  26.195  19.746  11.938
47261W        W12246  20.201  21.164  14.971
47262W        W12247  44.433  43.185   3.267
47263W        W12248   9.847  23.163   3.569
47264W        W12249  27.792  28.016   1.307
47265W        W12250   3.126   5.757  12.103
47266W        W12251  40.283  42.451   2.909
47267W        W12252  14.803   4.520   0.744
47268W        W12253  34.575  36.629   3.358
47269W        W12254   9.233  26.036   2.706
47270W        W12255  11.313  27.954   1.168
47271W        W12256  42.951  28.460   2.448
47272W        W12257  22.925  27.445   1.257
47273W        W12258   3.369  26.523   1.855
47274W        W12259  18.001   7.752  13.839
47275W        W12260  39.895  18.339  11.049
47276W        W12261  30.028  20.778   3.698
47277W        W12262  43.920  24.123  10.219
47278W        W12263  14.052  21.788   1.852
47279W        W12264  29.935  36.464   4.375
47280W        W12265  18.288  35.952  12.656
47281W        W12266  44.506  39.688   3.639
47282W        W12267  35.509  10.641  12.187
47283W        W12268  13.203  12.137  10.770
47284W        W12269  36.393   6.527  14.461
47285W        W12270  28.178   4.970  12.451
47286W        W12271  12.196  24.552   0.254
47287W        W12272  12.676  21.725  12.992
47288W        W12273   3.922  39.717  12.590
47289W        W12274  39.106  13.265  10.299
47290W        W12275  37.684  26.703   4.992
47291W        W12276   3.259  24.273   0.650
47292W        W12277  43.257  13.889  10.674
47293W        W12278  40.143  15.641  13.100
47294W        W12279  15.525  32.515   2.672
47295W        W12280  15.297  15.616   3.695
47296W        W12281  28.724  39.601  11.464
47297W        W12282  15.859  37.465   4.213
47298W        W12283  32.494   2.339  11.738
47299W        W12284  15.832   8.714   3.445
47300W        W12285  39.889  11.902   1.025
47301W        W12286  16.833   4.320  13.853
47302W        W12287   9.731  12.579  14.092
47303W        W12288  35.659  33.341   1.763
47304W        W12289  25.105  16.256  12.926
47305W        W12290   4.807  32.242   2.568
47306W        W12291   0.550   4.834   2.768
47307W        W12292  14.426  11.706  10.972
47308W        W12293  41.599  33.897   4.934
47309W        W12294   6.613  22.091  14.886
47310W        W12295   9.170  30.348   1.842
47311W        W12296  38.005  39.521  12.139
47312W        W12297   8.187   8.338   3.402
47313W        W12298   1.447  20.961   3.826
47314W        W12299  39.340  34.848  10.197
47315W        W12300  33.279  31.070  12.453
47316W        W12301   9.473  19.706  10.202
47317W        W12302  25.851  25.488  13.608
47318W        W12303  10.203   3.746  10.440
47319W        W12304  23.643  30.684   3.310
47320W        W12305  18.652   7.234  12.006
47321W        W12306  36.874  16.579  10.995
47322W        W12307  12.506   1.469   2.077
47323W        W12308  42.267  17.898  14.381
47324W        W12309  33.612  29.177  11.060
47325W        W12310   6.325  38.305   2.578
47326W        W12311  21.220  11.231   1.851
47327W        W12312  17.245  32.409  10.611
47328W        W12313  44.339  18.489   3.580
47329W        W12314  26.803  30.023   2.914
47330W        W12315  35.263  14.639   3.823
47331W        W12316  29.449  36.462  10.826
47332W        W12317  20.995   2.156   0.812
47333W        W12318  25.635   0.246   1.667
47334W        W12319   4.346  21.131   2.480
47335W        W12320   6.727  20.284   3.235
47336W        W12321  31.695   2.690  13.254
47337W        W12322  37.954  12.258  14.848
47338W        W12323  43.995  36.740   4.130
47339W        W12324  13.068  43.029   1.420
47340W        W12325  10.221  14.210   0.043
47341W        W12326  16.256  39.660  11.935
47342W        W12327   3.161  31.110   1.281
47343W        W12328  14.574  42.463  13.254
47344W        W12329   4.371   3.857  12.161
47345W        W12330  11.840  31.360  14.130
47346W        W12331   3.418  30.716   4.268
47347W        W12332  20.780  16.688  14.329
47348W        W12333  27.582  11.784  10.630
47349W        W12334  27.241  38.956  12.738
47350W        W12335  25.324  34.476  11.039
47351W        W12336   7.693   0.522  14.455
47352W        W12337  26.809  13.752  14.740
47353W        W12338  24.846  17.515   1.261
47354W        W12339  22.626  43.854  10.191
47355W        W12340  18.204   5.159  13.879
47356W        W12341  24.883  20.332   3.444
47357W        W12342   3.274  44.272   1.918
47358W        W12343  43.343  27.277   3.332
47359W        W12344  36.045  35.888  13.530
47360W        W12345  32.431  16.222   1.795
47361W        W12346   8.774  24.410   2.220
47362W        W12347   3.834  32.592  12.098
47363W        W12348  17.765  44.130   4.680
47364W        W12349  11.222  33.585   4.631
47365W        W12350  20.083  23.131  11.406
47366W        W12351   7.240  37.579  11.729
47367W        W12352  14.972  40.552   2.676
47368W        W12353  42.243  38.840  11.161
47369W        W12354  44.282   6.165  11.152
47370W        W12355   2.299   8.646  13.281
47371W        W12356  36.434  34.811   1.117
47372W        W12357  19.581  11.456   3.659
47373W        W12358  23.051  16.701  11.591
47374W        W12359  39.056  23.617  13.390
47375W        W12360  29.208  36.195   1.860
47376W        W12361   1.463  21.739  13.477
47377W        W12362  11.762  27.172  14.744
47378W        W12363  11.309  21.211  13.611
47379W        W12364  25.702  19.581   4.301
47380W        W12365  28.761   9.109  11.382
47381W        W12366  18.612  26.478  14.843
47382W        W12367  44.683   0.446  14.524
47383W        W12368  37.356  18.301   4.878
47384W        W12369  31.023  18.717  11.354
47385W        W12370  29.968  38.113  14.436
47386W        W12371  21.291  22.534   2.194
47387W        W12372  20.572  28.134  10.441
47388W        W12373  34.442  33.148   2.734
47389W        W12374  17.358  31.543  10.383
47390W        W12375  12.397  27.702   3.192
47391W        W12376  36.712  32.628   0.473
47392W        W12377  41.530  19.805  10.655
47393W        W12378  31.470  13.616   4.885
47394W        W12379  23.573  18.110  14.513
47395W        W12380  27.975  32.221   4.991
47396W        W12381  24.761   6.444   2.211
47397W        W12382  35.317   0.981   0.883
47398W        W12383  41.371  38.207  11.468
47399W        W12384  30.436  20.692   2.285
47400W        W12385  28.601   0.767  11.746
47401W        W12386  36.248  44.375   3.290
47402W        W12387  24.500   2.503   4.190
47403W        W12388  24.185  32.543   1.266
47404W        W12389  22.865  19.483  10.245
47405W        W12390  14.240  25.733  14.887
47406W        W12391  30.133  37.272   4.770
47407W        W12392  41.266  19.165  13.888
47408W        W12393  18.545  15.876  11.692
47409W        W12394  22.435   2.189  12.968
47410W        W12395  29.908  37.390   0.001
47411W        W12396  19.644  43.077  12.583
47412W        W12397   4.012  11.513  12.152
47413W        W12398  35.376  21.039   1.699
47414W        W12399   3.968  38.807  12.664
47415W        W12400  41.000   5.864   3.821
47416W        W12401  32.903  39.888  14.595
47417W        W12402   8.136  27.434  13.569
47418W        W12403   7.177  38.453   2.405
47419W        W12404  37.890   5.842   3.658
47420W        W12405  30.528   4.122   2.314
47421W        W12406   6.216  44.891   1.804
47422W        W12407  14.592  33.295  13.506
47423W        W12408  42.890  21.088   0.699
47424W        W12409  41.521  18.190  12.397
47425W        W12410  17.754  43.323  12.420
47426W        W12411  37.923  42.119   2.908
47427W        W12412   0.874  13.307   4.637
47428W        W12413  12.853  13.780   3.287
47429W        W12414  13.073  39.650  12.412
47430W        W12415  21.532  23.542   0.238
47431W        W12416  32.807  36.368   1.393
47432W        W12417   0.583  12.362   1.160
47433W        W12418   6.069  23.402  14.569
47434W        W12419   9.678  33.571   2.780
47435W        W12420   6.660  15.765   1.027
47436W        W12421   3.683  12.882   0.443
47437W        W12422   4.020  44.923  12.062
47438W        W12423  20.651  24.812  13.459
47439W        W12424  21.440   9.316  13.475
47440W        W12425  39.964   0.994  12.384
47441W        W12426  35.540  21.639  13.032
47442W        W12427  36.603  39.827  12.360
47443W        W12428  13.858  17.749  14.916
47444W        W12429  22.883   2.022   2.760
47445W        W12430   2.305   5.976   2.290
47446W        W12431   5.796  26.947   1.733
47447W        W12432  33.938  13.997  12.546
47448W        W12433  36.023  38.583   3.219
47449W        W12434  10.808   4.949   2.697
47450W        W12435  15.260  40.951  14.815
47451W        W12436  25.038   7.273  14.917
47452W        W12437  36.031   8.677   0.725
47453W        W12438  13.298  33.350  11.796
47454W        W12439  19.220   9.422   3.810
47455W        W12440  26.692  16.838   1.456
47456W        W12441  33.492   6.468   4.017
47457W        W12442  18.143  18.458  12.173
47458W        W12443  16.177  17.743   1.878
47459W        W12444  12.676  13.129  13.594
47460W        W12445  38.505  39.771   1.873
47461W        W12446  11.640  15.616   3.232
47462W        W12447  15.496  24.046  14.777
47463W        W12448   2.760   0.807   2.335
47464W        W12449  31.569  16.703  13.945
47465W        W12450   7.870  44.266   0.054
47466W        W12451  26.185   0.404   0.734
47467W        W12452  23.548  20.853   3.719
47468W        W12453  12.477  25.984   0.912
47469W        W12454   2.303  40.198  13.007
47470W        W12455  39.824   7.084  12.635
47471W        W12456  44.788  28.995  14.338
47472W        W12457   4.183  10.283   2.252
47473W        W12458  19.321   5.228  13.904
47474W        W12459   4.888  17.968   5.104
47475W        W12460   9.260  42.357  11.211
47476W        W12461  13.673  40.611  13.334
47477W        W12462  18.071  30.404  13.809
47478W        W12463  31.758  27.035  12.495
47479W        W12464  20.950  22.965  14.122
47480W        W12465  21.817   1.210   2.386
47481W        W12466   6.883  42.850   2.334
47482W        W12467   9.777  15.869  12.891
47483W        W12468  13.027  18.113   1.167
47484W        W12469  19.701  11.620  14.464
47485W        W12470   0.232  42.241   0.950
47486W        W12471  39.721  31.449   3.600
47487W        W12472  20.830   3.860   3.083
47488W        W12473  21.684  22.989   4.964
47489W        W12474   0.778  35.376  11.179
47490W        W12475  42.320   8.663  11.815
47491W        W12476  32.120   5.789   0.480
47492W        W12477  24.301  16.830  11.599
47493W        W12478  29.442  25.541   4.273
47494W        W12479  17.304  13.743   2.312
47495W        W12480  33.025  40.840  14.364
47496W        W12481   7.324  34.201  13.977
47497W        W12482  11.377  26.119   0.260
47498W        W12483  16.281  20.744  13.369
47499W        W12484  24.332   2.897   2.029
47500W        W12485  17.138  16.686   0.266
47501W        W12486  22.975   0.803  14.991
47502W        W12487  34.004   8.427   1.635
47503W        W12488  27.803  41.015  12.039
47504W        W12489  32.868  38.232   1.564
47505W        W12490  18.818  26.007  12.583
47506W        W12491   0.498  21.287   2.835
47507W        W12492  40.371  43.329  10.753
47508W        W12493  43.356  28.187   4.125
47509W        W12494  12.883   7.756  12.164
47510W        W12495  41.516   6.177  11.477
47511W        W12496  17.622  42.273   4.459
47512W        W12497  32.934  14.660   3.841
47513W        W12498  29.585  28.137   3.915
47514W        W12499  30.905  28.642  14.813
47515W        W12500   6.814   5.207  12.626
47516W        W12501   9.751  23.195  12.493
47517W        W12502  25.041  20.390   4.290
47518W        W12503  16.345  44.091   0.555
47519W        W12504   4.399   2.862  10.728
47520W        W12505  28.644   8.057   0.775
47521W        W12506  19.278  38.214   2.941
47522W        W12507   1.334  29.532  13.759
47523W        W12508  10.706  37.800  12.857
47524W        W12509  15.137  23.123   1.263
47525W        W12510  16.660  20.406  10.300
47526W        W12511  37.025  27.679   2.993
47527W        W12512  13.537  13.393  11.427
47528W        W12513  16.361   3.035   1.928
47529W        W12514  25.029  42.871  11.127
47530W        W12515  30.429  17.692  11.176
47531W        W12516   5.457  27.646   3.942
47532W        W12517   6.849   7.137   4.590
47533W        W12518   9.039  28.921   1.602
47534W        W12519  13.826  30.904  11.719
47535W        W12520  24.222  17.048   2.393
47536W        W12521  20.500   6.948  14.123
47537W        W12522   2.722   9.240   4.596
47538W        W12523  17.558  18.654  13.004
47539W        W12524  13.135  24.688   2.619
47540W        W12525  12.957  31.628  12.001
47541W        W12526  16.789   1.893   2.197
47542W        W12527  40.958  13.844   4.257
47543W        W12528  23.585   6.963   3.661
47544W        W12529  20.096   7.594  12.958
47545W        W12530  26.239  16.808   3.115
47546W        W12531   6.488   1.293   3.287
47547W        W12532  27.802  29.887   4.495
47548W        W12533  19.726  15.724   0.403
47549W        W12534  27.727   6.592   4.154
47550W        W12535   0.508  36.848   3.647
47551W        W12536  20.557  10.069   4.246
47552W        W12537  44.308  29.617  10.740
47553W        W12538  30.885  29.602  12.112
47554W        W12539  35.443   5.693  13.568
47555W        W12540  20.200  43.239  14.961
47556W        W12541  44.409  21.908  11.106
47557W        W12542  27.630  23.141  10.701
47558W        W12543  15.074  22.432   4.639
47559W        W12544  10.257   4.412   0.840
47560W        W12545   0.224   3.219  12.549
47561W        W12546   3.175  15.749   1.432
47562W        W12547   1.514  39.340  13.160
47563W        W12548  37.007  41.884  13.912
47564W        W12549  23.689  17.934  10.980
47565W        W12550  27.166  29.499  12.815
47566W        W12551  31.410  21.893   2.895
47567W        W12552  33.035  39.125   0.393
47568W        W12553  41.257  36.516   1.674
47569W        W12554  28.451  41.478   1.738
47570W        W12555   4.650  32.566  10.861
47571W        W12556  13.233   0.732   4.111
47572W        W12557  17.840  17.267  14.469
47573W        W12558  26.065  31.300  14.701
47574W        W12559  17.816   0.033  12.983
47575W        W12560   8.394  40.557  13.346
47576W        W12561   8.706   3.202  14.854
47577W        W12562  35.438  11.698  14.482
47578W        W12563  42.951  41.008  14.842
47579W        W12564  39.008  43.769  11.053
47580W        W12565  10.090  16.569   0.193
47581W        W12566  43.764  32.109   4.611
47582W        W12567  28.580  40.060  10.569
47583W        W12568   6.318  29.558   0.422
47584W        W12569  17.591   1.403   3.116
47585W        W12570   1.193  40.314   3.553
47586W        W12571   3.037   8.320  13.963
47587W        W12572  41.848  19.069   1.735
47588W        W12573  20.132   3.939   2.340
47589W        W12574  32.361   9.046  14.051
47590W        W12575  21.438  20.734  11.198
47591W        W12576  12.856  19.952  11.176
47592W        W12577  12.099  26.870  11.505
47593W        W12578  42.380  33.817   0.346
47594W        W12579  39.344  21.021   2.766
47595W        W12580  42.411  12.214   2.797
47596W        W12581   9.167  19.077  13.348
47597W        W12582  29.910  32.954  14.321
47598W        W12583  15.198  42.025   0.686
47599W        W12584  24.749   0.417  10.626
47600W        W12585   1.724  10.678   1.309
47601W        W12586   0.855  25.019   0.773
47602W        W12587  23.608  43.278   4.189
47603W        W12588  25.020   3.232   1.630
47604W        W12589  36.398  39.605  11.086
47605W        W12590   3.369   9.243   3.233
47606W        W12591  21.575  36.219  12.105
47607W        W12592  10.587   9.394  14.852
47608W        W12593   8.840   1.456   0.194
47609W        W12594  28.222  44.553  14.396
47610W        W12595   1.956  24.287  13.679
47611W        W12596  12.628  30.513   2.877
47612W        W12597   0.065  37.814  13.453
47613W        W12598  28.619   3.066   5.140
47614W        W12599  29.456  19.487   2.604
47615W        W12600  12.122  44.982   1.909
47616W        W12601  15.566  26.028   4.147
47617W        W12602   2.278  24.878   1.935
47618W        W12603  11.645  34.373  11.186
47619W        W12604  36.597   2.934   0.811
47620W        W12605  16.364  35.295  13.892
47621W        W12606  14.501  14.171  10.636
47622W        W12607  28.019   7.064   1.136
47623W        W12608  10.229   0.885   4.337
47624W        W12609  44.249  23.036   1.148
47625W        W12610   1.902  24.643  14.391
47626W        W12611  18.650  39.629  10.560
47627W        W12612   7.253  33.521  13.101
47628W        W12613  29.588  16.204   4.646
47629W        W12614  16.068  11.272  14.577
47630W        W12615   4.710  33.299   0.243
47631W        W12616  44.389   1.391   1.381
47632W        W12617  28.955  42.590  14.121
47633W        W12618  41.697  15.577  14.470
47634W        W12619  37.665  26.589  10.502
47635W        W12620  40.378  30.244  14.957
47636W        W12621  21.521  14.586  12.406
47637W        W12622  24.534  19.179   1.243
47638W        W12623  15.574  33.110  12.954
47639W        W12624   4.836   1.922   1.319
47640W        W12625  22.530  18.686  11.181
47641W        W12626  33.671   4.034  14.733
47642W        W12627   6.088  39.136  14.882
47643W        W12628  40.333  12.343   0.916
47644W        W12629  31.040  42.029  13.991
47645W        W12630  10.574  27.265  14.336
47646W        W12631  22.950  16.670   2.715
47647W        W12632   2.742  17.419  10.557
47648W        W12633   3.947  15.179   2.245
47649W        W12634  36.993  17.302  10.451
47650W        W12635  38.383   3.297   0.071
47651W        W12636   1.343  18.359   0.642
47652W        W12637  40.429  13.332  12.533
47653W        W12638  20.290  25.144  12.735
47654W        W12639   1.015   8.215   2.837
47655W        W12640  28.567  42.205   0.331
47656W        W12641  17.237  27.941  12.078
47657W        W12642   8.632   9.259  10.579
47658W        W12643  18.678  44.266  10.328
47659W        W12644  10.264  24.091  14.366
47660W        W12645  33.384  16.827   1.280
47661W        W12646   6.097  20.983  14.356
47662W        W12647  42.417  17.639   3.160
47663W        W12648   1.102   9.342  12.821
47664W        W12649  20.573  36.459   2.154
47665W        W12650  22.562   1.148   2.916
47666W        W12651  37.904  23.710  13.783
47667W        W12652  34.080  25.681   3.262
47668W        W12653  36.925  35.833  11.679
47669W        W12654  10.443   4.684  10.509
47670W        W12655   1.454  29.197  12.139
47671W        W12656  36.522  20.717   1.296
47672W        W12657  11.257  21.072  12.590
47673W        W12658  19.226  10.130  12.916
47674W        W12659  11.081  36.548  12.475
47675W        W12660  17.231  36.917  14.929
47676W        W12661  16.876  21.017   2.726
47677W        W12662  11.200  13.035  12.967
47678W        W12663  17.341  15.172   3.255
47679W        W12664   8.626  26.637  12.582
47680W        W12665   3.444  22.680   1.197
47681W        W12666  25.555  25.518   2.636
47682W        W12667  29.471  10.294   4.993
47683W        W12668  28.835   7.435   3.959
47684W        W12669  23.512   3.358   0.668
47685W        W12670   9.772   5.303   4.927
47686W        W12671  40.660  26.085   2.796
47687W        W12672   1.189  29.820   1.361
47688W        W12673  17.131  27.437  14.305
47689W        W12674  19.977  11.966   1.628
47690W        W12675  12.427  12.667  11.474
47691W        W12676  39.314  20.572  10.870
47692W        W12677  14.796  15.219   0.549
47693W        W12678  25.962  41.314  13.890
47694W        W12679  21.822  31.975   3.802
47695W        W12680  28.403  37.866   0.276
47696W        W12681  25.129  27.550   3.929
47697W        W12682  30.527  41.914   0.765
47698W        W12683   8.799  39.217  11.885
47699W        W12684  43.816  26.515  14.172
47700W        W12685  30.130  17.781   0.749
47701W        W12686  23.981  42.915   2.189
47702W        W12687   5.635   6.967  11.914
47703W        W12688   7.347  37.488  10.767
47704W        W12689  33.185  18.687   4.429
47705W        W12690   6.936  28.605  12.094
47706W        W12691  16.268  33.580  14.366
47707W        W12692  19.662  36.942   1.392
47708W        W12693  31.437   6.756   2.205
47709W        W12694  13.863  20.047   3.071
47710W        W12695  23.009  18.327  12.377
47711W        W12696  11.405  33.598   2.313
47712W        W12697   0.409  16.575  12.070
47713W        W12698  44.586  43.683   0.358
47714W        W12699  37.521  41.807   2.949
47715W        W12700  10.519  24.905   5.031
47716W        W12701  17.592  25.196   0.985
47717W        W12702  18.283  42.946   2.346
47718W        W12703  32.858  17.835  14.463
47719W        W12704  11.681  37.358  10.754
47720W        W12705  34.527   7.296  11.890
47721W        W12706  29.820  13.095  10.920
47722W        W12707  42.772   9.376   0.941
47723W        W12708   6.715   9.125  14.096
47724W        W12709  23.179   8.923  12.887
47725W        W12710  25.146  11.292   4.571
47726W        W12711  43.830   2.260  14.810
47727W        W12712  21.010  26.179   2.356
47728W        W12713  14.280  19.667  13.507
47729W        W12714   3.014  15.677   4.061
47730W        W12715  11.386  36.702   1.336
47731W        W12716   3.249   9.797   3.048
47732W        W12717  17.569  38.320  11.074
47733W        W12718  30.064   5.127   4.265
47734W        W12719  26.536   4.256   3.658
47735W        W12720   4.380  32.028   2.705
47736W        W12721  39.929   6.796   0.801
47737W        W12722   6.242  40.777  12.897
47738W        W12723  27.528  29.400  11.582
47739W        W12724  34.994   5.456  11.838
47740W        W12725  18.502  42.916  13.890
47741W        W12726  28.144   2.732  10.739
47742W        W12727  11.185  14.120  13.812
47743W        W12728  39.278  33.594   4.312
47744W        W12729  23.977  34.401   0.301
47745W        W12730   2.857  27.038  13.227
47746W        W12731   4.944  36.370   1.347
47747W        W12732  16.635  15.619  11.157
47748W        W12733  33.484  34.104  13.716
47749W        W12734   6.191  41.495  11.514
47750W        W12735  31.225  44.300   2.350
47751W        W12736   7.492   1.929   2.561
47752W        W12737   2.938   8.264   2.712
47753W        W12738  44.017   8.948   3.737
47754W        W12739   8.804  15.519   4.059
47755W        W12740  11.393  15.397   3.629
47756W        W12741  17.773  36.424  14.360
47757W        W12742  38.374  30.181   0.048
47758W        W12743  20.143  36.748  11.588
47759W        W12744   3.872   0.007   0.565
47760W        W12745   6.225  19.750   3.643
47761W        W12746  32.887   1.000   1.237
47762W        W12747  38.910  40.250  14.686
47763W        W12748  43.084   3.497  12.089
47764W        W12749   8.264  23.531   4.143
47765W        W12750  28.083  17.970  11.950
47766W        W12751   8.111  17.424   2.525
47767W        W12752  25.064  12.356   3.209
47768W        W12753  21.775   1.023  11.500
47769W        W12754  43.871  36.822  10.801
47770W        W12755  15.262  31.810   2.207
47771W        W12756  10.439  38.484  11.236
47772W        W12757  39.198  10.858  12.281
47773W        W12758  25.753  38.440   2.241
47774W        W12759  11.400   6.748  12.013
47775W        W12760  42.817  15.403  11.261
47776W        W12761  21.961  42.690  11.500
47777W        W12762  34.011  29.111   3.839
47778W        W12763   5.234  28.520   0.781
47779W        W12764  19.643  13.780   4.675
47780W        W12765  24.683  19.794   0.071
47781W        W12766  38.818   9.880  14.243
47782W        W12767  29.611  39.754   2.243
47783W        W12768   0.518  43.821  11.000
47784W        W12769  17.711  29.402  13.865
47785W        W12770  40.299  14.194  10.711
47786W        W12771  15.341  31.064   2.925
47787W        W12772  42.898  40.800  12.444
47788W        W12773   1.424  32.492  10.569
47789W        W12774  25.700  21.711   4.795
47790W        W12775   7.621  29.228   1.652
47791W        W12776   6.432  35.798  12.542
47792W        W12777  26.686  35.076   3.551
47793W        W12778  14.065  38.090  14.313
47794W        W12779  39.405   7.726  11.145
47795W        W12780   1.814   9.175  12.055
47796W        W12781  38.429  11.320  12.744
47797W        W12782  16.721  37.675  12.152
47798W        W12783   8.278  10.367   4.532
47799W        W12784  36.900  39.804  11.917
47800W        W12785  22.256   3.906  13.307
47801W        W12786  42.308   5.681  11.858
47802W        W12787   7.866  22.284  13.011
47803W        W12788  33.220   0.518   0.076
47804W        W12789  24.672  19.822  11.927
47805W        W12790  33.928  19.512   3.774
47806W        W12791   7.820  27.192   0.705
47807W        W12792  43.758   5.875  13.918
47808W        W12793  35.570   6.895   1.795
47809W        W12794  17.222  12.921   2.163
47810W        W12795  41.248  16.475  13.411
47811W        W12796  25.461  11.155  14.909
47812W        W12797  33.594   4.780  10.652
47813W        W12798  21.398   8.171  11.922
47814W        W12799  34.015  25.040   5.050
47815W        W12800  42.902  38.961   4.487
47816W        W12801  32.954   9.489   3.362
47817W        W12802  15.811  26.412   9.886
47818W        W12803  16.881  20.161   0.317
47819W        W12804  33.528  26.874  13.249
47820W        W12805  17.709  29.051   1.952
47821W        W12806  31.072  10.873   0.780
47822W        W12807  30.506   4.418  11.937
47823W        W12808  22.111  13.930   2.242
47824W        W12809  17.263   0.933   3.814
47825W        W12810   0.486  36.655   0.979
47826W        W12811  43.062  17.932  11.698
47827W        W12812  30.602   6.099   4.266
47828W        W12813  37.492  17.608  10.897
47829W        W12814  36.833  36.560   0.379
47830W        W12815  42.259  24.574  11.279
47831W        W12816   4.918   6.932   2.094
47832W        W12817  21.942  21.124  14.259
47833W        W12818  13.580  17.298  12.118
47834W        W12819   4.326  43.677  13.879
47835W        W12820  16.563   1.421  13.650
47836W        W12821  26.486  22.685  14.292
47837W        W12822  13.268  39.653  11.714
47838W        W12823  21.581   6.644   3.012
47839W        W12824  21.642  41.025   4.557
47840W        W12825  16.361  12.298  13.143
47841W        W12826  29.413  10.273   1.880
47842W        W12827  13.671  38.937   1.962
47843W        W12828  30.690  31.906   4.634
47844W        W12829   7.958  17.573   0.021
47845W        W12830   2.395  26.492   2.253
47846W        W12831  16.646   6.386  11.200
47847W        W12832  29.902  31.145   3.104
47848W        W12833   3.162  25.973  12.878
47849W        W12834  13.614  15.684   2.446
47850W        W12835  20.092  10.384  14.450
47851W        W12836  29.059  22.718   3.322
47852W        W12837  10.650  42.927  13.584
47853W        W12838  44.241  22.192  10.715
47854W        W12839  19.335   1.151  14.387
47855W        W12840  27.411  14.718  11.059
47856W        W12841   6.202  43.922  12.204
47857W        W12842  28.011  37.978   0.946
47858W        W12843  33.981   2.948   4.674
47859W        W12844   3.586  11.758   0.887
47860W        W12845  35.540  27.600   1.293
47861W        W12846  10.675  13.304   3.106
47862W        W12847  12.217   2.117  12.787
47863W        W12848   2.966  32.122   0.235
47864W        W12849  26.076  38.939  10.368
47865W        W12850  39.022  19.979  10.287
47866W        W12851  11.110  13.241   2.324
47867W        W12852  17.672  12.809   1.855
47868W        W12853   0.938  40.080  13.537
47869W        W12854  29.640  39.009   1.517
47870W        W12855  17.675  11.717   0.852
47871W        W12856  16.318  21.657  14.964
47872W        W12857  15.996   6.085  14.369
47873W        W12858  22.696  27.561   1.723
47874W        W12859  13.822  42.978  11.897
47875W        W12860  10.133  15.118  12.514
47876W        W12861  18.159  11.876   4.253
47877W        W12862  14.507  41.756  12.541
47878W        W12863  27.292   2.912   5.471
47879W        W12864  37.948  16.595   1.849
47880W        W12865  26.945  19.629   2.567
47881W        W12866   9.660   3.271   0.492
47882W        W12867  33.084  39.160   4.588
47883W        W12868  18.072  16.844  14.255
47884W        W12869   7.421   6.805   3.626
47885W        W12870  40.757  23.716  11.172
47886W        W12871  23.061  33.680  14.322
47887W        W12872  21.010  33.623   1.254
47888W        W12873  23.764  33.887   0.394
47889W        W12874   0.586  21.566  10.710
47890W        W12875  32.553  35.511  12.101
47891W        W12876  21.257  13.428   0.879
47892W        W12877  21.573  11.478  13.823
47893W        W12878  13.944  20.352   2.661
47894W        W12879  37.884  44.779  13.399
47895W        W12880  22.137  35.077   3.174
47896W        W12881  30.461  40.654   4.256
47897W        W12882  24.825  25.646  13.612
47898W        W12883  39.432   1.784   4.688
47899W        W12884  20.291  35.957  14.170
47900W        W12885  33.425   3.777  12.593
47901W        W12886   9.664  30.176   0.314
47902W        W12887  44.410   5.253   4.390
47903W        W12888  40.504  11.718   4.444
47904W        W12889  33.893   5.637  10.553
47905W        W12890  22.052  36.604  11.000
47906W        W12891  29.471  24.143   2.573
47907W        W12892  40.640  38.491   1.486
47908W        W12893  31.109  16.299   0.895
47909W        W12894  44.542  19.757  12.041
47910W        W12895   5.705  21.317  14.422
47911W        W12896  32.403  18.377  12.197
47912W        W12897   7.395  31.616   0.327
47913W        W12898  40.514  26.935  11.077
47914W        W12899  12.488  12.434   2.151
47915W        W12900  17.676  18.239   5.193
47916W        W12901  44.882  22.499   4.030
47917W        W12902  31.203  21.159  10.195
47918W        W12903   7.470  41.296  14.110
47919W        W12904   9.264  39.248   3.300
47920W        W12905   7.217  30.190   1.232
47921W        W12906  10.081  43.794   2.374
47922W        W12907  19.262  42.466   2.726
47923W        W12908  19.098  32.124  14.953
47924W        W12909  17.135   5.842   2.252
47925W        W12910  22.752  34.217  13.511
47926W        W12911  21.567  24.285  12.949
47927W        W12912  35.606   7.825  14.297
47928W        W12913   0.590  29.701   2.828
47929W        W12914  17.115   1.403  13.531
47930W        W12915   4.901  18.775   3.560
47931W        W12916  37.002   8.381  12.454
47932W        W12917   1.802  10.699  14.848
47933W        W12918   0.854  28.567   0.941
47934W        W12919  29.816  30.360   1.964
47935W        W12920  28.526  26.075  11.406
47936W        W12921  11.998  42.982  13.963
47937W        W12922  25.539   6.183  13.333
47938W        W12923  43.261  24.560   0.188
47939W        W12924   3.924  40.979   0.336
47940W        W12925  23.128  39.506   0.330
47941W        W12926   2.389  12.199   3.160
47942W        W12927  25.413  17.728   0.470
47943W        W12928  17.725  18.707  12.511
47944W        W12929  15.068  42.932   0.763
47945W        W12930  28.838  19.208   4.602
47946W        W12931  15.504  27.563  12.567
47947W        W12932  21.777  31.156  11.080
47948W        W12933  18.690  39.355  13.512
47949W        W12934   4.192  25.644  11.316
47950W        W12935  43.495  31.827  10.666
47951W        W12936  12.373  24.855   3.154
47952W        W12937  14.067  20.082  14.917
47953W        W12938   0.963  38.527   3.643
47954W        W12939  32.514  20.199  13.438
47955W        W12940  20.865   0.076  12.140
47956W        W12941  10.663  31.860  14.523
47957W        W12942  14.926  14.362  10.432
47958W        W12943  10.184  28.365   1.821
47959W        W12944   8.273  13.557  13.738
47960W        W12945  27.927  24.596  12.421
47961W        W12946  44.511  32.613   4.587
47962W        W12947  17.845  19.451   3.210
47963W        W12948  13.708   5.116   3.174
47964W        W12949   9.385  20.753  12.538
47965W        W12950  34.075  33.437   1.341
47966W        W12951  43.512  31.935  12.197
47967W        W12952   2.341   2.403   1.523
47968W        W12953  30.813  23.615  12.659
47969W        W12954   6.034  13.777   2.585
47970W        W12955  25.599  17.158  11.577
47971W        W12956  41.269  14.254  11.911
47972W        W12957  30.869  27.031  11.357
47973W        W12958  24.379  43.533   0.382
47974W        W12959  33.905  20.700   2.024
47975W        W12960   8.848  27.149  14.434
47976W        W12961   5.785  30.043   1.024
47977W        W12962  29.466  18.658  10.178
47978W        W12963  34.418  20.738   3.641
47979W        W12964   4.788  31.114   2.300
47980W        W12965   8.611  21.318  12.951
47981W        W12966  33.296  18.370  13.503
47982W        W12967  29.039  35.144   0.888
47983W        W12968   6.899   7.660   4.629
47984W        W12969  39.586  31.496  12.378
47985W        W12970  25.751  38.890  11.652
47986W        W12971   3.767  35.506  14.207
47987W        W12972  43.652   8.295  12.097
47988W        W12973  30.221   7.785  13.507
47989W        W12974  39.981  14.139  12.592
47990W        W12975  21.639  39.179  11.618
47991W        W12976   5.711  44.707   1.765
47992W        W12977  14.235  40.211  10.285
47993W        W12978  29.719  41.659  11.590
47994W        W12979  43.737  23.630   1.718
47995W        W12980  12.896  17.555  14.043
47996W        W12981  38.541   2.364  14.723
47997W        W12982   4.837   1.934   0.263
47998W        W12983  39.371  44.038   4.257
47999W        W12984  34.043  18.105  14.895
48000W        W12985  39.025  41.770  13.954
48001W        W12986  44.959  15.207   3.293
48002W        W12987  36.457   0.937  11.506
48003W        W12988  38.402  31.243   1.930
48004W        W12989  18.280   9.195  13.277
48005W        W12990  22.236  19.073  14.861
48006W        W12991   0.245  31.494  11.281
48007W        W12992  28.200  16.277  13.132
48008W        W12993  35.895  24.421   3.798
48009W        W12994   6.082  42.467   2.155
48010W        W12995   0.105  25.146  13.502
48011W        W12996   4.163  35.305  12.966
48012W        W12997  43.842  30.961  14.072
48013W        W12998  22.765  21.021  11.169
48014W        W12999  22.516  29.195  12.227
48015W        W13000  24.779  27.710   4.252
48016W        W13001   0.896   3.395  13.609
48017W        W13002   6.444   6.047  13.833
48018W        W13003  43.816  34.579   0.511
48019W        W13004  39.217  24.491  14.950
48020W        W13005  36.026   8.871   3.369
48021W        W13006  24.953  40.992   1.280
48022W        W13007  39.588  28.704   0.413
48023W        W13008   8.271   6.771  12.915
48024W        W13009  13.660   8.612   2.743
48025W        W13010  27.567   0.731   0.966
48026W        W13011  43.826   2.198  12.888
48027W        W13012  27.080  28.227  14.848
48028W        W13013  19.461   9.890  12.058
48029W        W13014  31.041  41.071   2.350
48030W        W13015   9.621  27.454   2.283
48031W        W13016  18.134  39.509  11.427
48032W        W13017  19.166  31.398  14.051
48033W        W13018  31.841  16.310   1.690
48034W        W13019  13.702  35.516   4.238
48035W        W13020  44.056  39.098  10.059
48036W        W13021  38.597  41.415   3.799
48037W        W13022   0.889   1.457  11.168
48038W        W13023  10.304   4.958   0.986
48039W        W13024  12.282  29.628  14.455
48040W        W13025  37.089  13.284   1.973
48041W        W13026   6.191  11.646  14.013
48042W        W13027  34.053  29.017  14.958
48043W        W13028   9.571  13.758   3.681
48044W        W13029  27.067   3.465   4.254
48045W        W13030  36.491  43.169   2.658
48046W        W13031  23.457  10.066   1.367
48047W        W13032  36.008  11.540   9.887
48048W        W13033  13.799  30.513  14.435
48049W        W13034  13.398   6.230   1.043
48050W        W13035  12.821  38.989  12.843
48051W        W13036  30.170  32.733   5.030
48052W        W13037  38.744  22.063   0.882
48053W        W13038  34.645  11.687   1.349
48054W        W13039  10.834   2.599  10.667
48055W        W13040  34.996  16.800  10.472
48056W        W13041  30.398  29.208   3.149
48057W        W13042   2.244  19.075  11.817
48058W        W13043  19.705  22.448   4.567
48059W        W13044  17.249  40.810  13.964
48060W        W13045   8.888  34.579   3.753
48061W        W13046  23.631  17.193  10.639
48062W        W13047   6.316  21.966  13.582
48063W        W13048  21.109   8.330   4.213
48064W        W13049  19.786  34.918  10.028
48065W        W13050  22.051  42.295  14.041
48066W        W13051   6.303  30.261  14.329
48067W        W13052  35.952  38.353   3.682
48068W        W13053  11.039  28.992  12.561
48069W        W13054  29.509  44.501   1.368
48070W        W13055  24.174  13.598  14.732
48071W        W13056   5.752  25.144  12.331
48072W        W13057  20.540   1.313  13.004
48073W        W13058  23.247  42.585   1.785
48074W        W13059  29.485  18.264  11.002
48075W        W13060  17.183  28.467   3.300
48076W        W13061  41.991   8.642   2.953
48077W        W13062  38.032  13.047  14.432
48078W        W13063  16.637   7.925  11.222
48079W        W13064   6.706   1.981   4.296
48080W        W13065  29.040  43.050   2.124
48081W        W13066  44.283  15.525  11.203
48082W        W13067   8.417   8.347   2.764
48083W        W13068  31.979   2.675   5.087
48084W        W13069   4.974   2.091  13.061
48085W        W13070  24.012  29.585  14.859
48086W        W13071  43.923   3.929   3.101
48087W        W13072   6.307  28.611   3.751
48088W        W13073  23.739  20.199   4.850
48089W        W13074  29.178  44.996  12.107
48090W        W13075   1.050   4.537   0.746
48091W        W13076   8.190  31.047   3.136
48092W        W13077  25.029   3.734  14.055
48093W        W13078   0.114  34.914   0.894
48094W        W13079  33.536  29.051  14.903
48095W        W13080   4.204   8.972   0.312
48096W        W13081  33.417  26.095  12.625
48097W        W13082  17.096  20.122   2.899
48098W        W13083   7.188  39.967  14.480
48099W        W13084  29.998  20.398   2.218
48100W        W13085   6.649  12.299  11.204
48101W        W13086  13.322  15.243   4.640
48102W        W13087  28.469  32.394  14.384
48103W        W13088   2.307   9.649  14.869
48104W        W13089   2.997   2.278  14.900
48105W        W13090  31.098  23.248  12.953
48106W        W13091  19.103   2.775   2.374
48107W        W13092  36.817  19.538  13.421
48108W        W13093   4.756  28.707   0.918
48109W        W13094  44.234  37.817  10.758
48110W        W13095  19.033  38.354  11.203
48111W        W13096   4.672  18.559   1.074
48112W        W13097   4.481  17.824   2.269
48113W        W13098  29.936  44.087   4.911
48114W        W13099   8.374  16.824  12.033
48115W        W13100  15.766  40.292  13.518
48116W        W13101   3.256  21.653  12.698
48117W        W13102  33.871  14.327   2.965
48118W        W13103   8.782  41.255  11.439
48119W        W13104  32.405  29.082   1.321
48120W        W13105  39.826  32.478  11.122
48121W        W13106  17.835  24.049   2.568
48122W        W13107  13.767   2.900   1.914
48123W        W13108   9.337  40.455   1.914
48124W        W13109  26.942  32.610  13.511
48125W        W13110   8.215   3.438   1.520
48126W        W13111  34.052  40.450   3.812
48127W        W13112   0.301  36.372  14.506
48128W        W13113   1.477  16.992  12.427
48129W        W13114  21.635  26.471  12.516
48130W        W13115  37.052  22.322   0.132
48131W        W13116   5.377  38.449   0.361
48132W        W13117  13.756  15.436  12.951
48133W        W13118   5.940  44.973  12.051
48134W        W13119  10.699  18.324   1.730
48135W        W13120  15.780  30.644  11.084
48136W        W13121  35.055  16.275  10.651
48137W        W13122  31.863   1.771  12.922
48138W        W13123   5.033  23.973  11.991
48139W        W13124  40.205  30.196  13.450
48140W        W13125  12.863  13.842   1.889
48141W        W13126  35.511  24.537   4.394
48142W        W13127  17.832   9.835  12.914
48143W        W13128  20.063  17.545   2.150
48144W        W13129  18.563  34.382   3.579
48145W        W13130  44.004  36.514   0.347
48146W        W13131   7.995  20.465   4.499
48147W        W13132   1.717   3.344  13.783
48148W        W13133  18.478  28.966   4.196
48149W        W13134   5.573  20.757  11.943
48150W        W13135  18.549  26.671  12.512
48151W        W13136   6.350  11.643   4.175
48152W        W13137  12.350  29.909  11.569
48153W        W13138   5.023   6.758   3.156
48154W        W13139  31.034  11.576  13.829
48155W        W13140  27.930  19.475  12.066
48156W        W13141  36.796  26.200  11.432
48157W        W13142  20.490   5.934   3.788
48158W        W13143  28.218   9.182  13.012
48159W        W13144  15.179   6.813  14.809
48160W        W13145  20.073  10.407   1.257
48161W        W13146   0.177  17.732   1.272
48162W        W13147  10.824  41.997   4.063
48163W        W13148  33.681   3.838   0.213
48164W        W13149  38.885  21.034  11.559
48165W        W13150  23.687  15.739   0.519
48166W        W13151   5.193  30.358  10.357
48167W        W13152   1.901   0.449   4.639
48168W        W13153  19.012  18.467   2.350
48169W        W13154  14.035  34.062  13.069
48170W        W13155  31.585  39.714   3.623
48171W        W13156  10.982  37.846  10.988
48172W        W13157   6.876  32.125  13.006
48173W        W13158  29.456  12.874  11.177
48174W        W13159  30.981  10.579   5.162
48175W        W13160  39.037  37.099   3.181
48176W        W13161  19.031  19.775   1.797
48177W        W13162  24.491  31.582  13.875
48178W        W13163  23.500   8.221   0.941
48179W        W13164   8.726  29.407  14.851
48180W        W13165  19.455  26.182  13.734
48181W        W13166  33.503  22.250   1.195
48182W        W13167  24.159   8.405   3.282
48183W        W13168  20.418   3.499   2.330
48184W        W13169  27.566   5.192   2.759
48185W        W13170  15.035  37.032  11.687
48186W        W13171  27.523  34.485   3.361
48187W        W13172  30.899  43.841  14.766
48188W        W13173   0.930  38.381  14.929
48189W        W13174  10.921  11.779  10.902
48190W        W13175  16.565  18.638   0.009
48191W        W13176   4.169  44.045  14.663
48192W        W13177  28.285  29.995   4.664
48193W        W13178   0.783  13.680  13.289
48194W        W13179  42.937  44.275  14.815
48195W        W13180   1.886   3.206   1.880
48196W        W13181  20.108  24.477  14.964
48197W        W13182   7.330   2.970   4.633
48198W        W13183  35.556   6.167  11.236
48199W        W13184  44.614  28.227   2.182
48200W        W13185  39.344   2.821   1.203
48201W        W13186  26.900  16.272  11.321
48202W        W13187   2.974  31.472   0.044
48203W        W13188  40.471  32.151  13.589
48204W        W13189  23.663  24.948  10.744
48205W        W13190  18.382  13.365   4.409
48206W        W13191  22.574   1.379   1.698
48207W        W13192  29.802  17.629   3.324
48208W        W13193   6.671  13.655   0.354
48209W        W13194   6.451  25.614   1.577
48210W        W13195  44.844  16.802   2.386
48211W        W13196   8.420  15.497  12.105
48212W        W13197  16.043   4.722   3.164
48213W        W13198  36.564   1.341  14.505
48214W        W13199   0.903  36.361   4.113
48215W        W13200   1.974  15.143   3.375
48216W        W13201  22.964   7.599  10.790
48217W        W13202  35.152  28.006  12.133
48218W        W13203  33.920  22.718  14.048
48219W        W13204   8.405  13.088  12.999
48220W        W13205   2.497  39.654   4.560
48221W        W13206  39.431  18.469  13.614
48222W        W13207  30.820  34.222  12.932
48223W        W13208   6.956   1.431   3.093
48224W        W13209   2.197  17.699  11.372
48225W        W13210  30.144  40.641  14.941
48226W        W13211  11.027  33.841   2.056
48227W        W13212   0.894   1.673  10.441
48228W        W13213   6.968  35.855   4.157
48229W        W13214  27.377  33.956  12.533
48230W        W13215  27.988  22.018  11.758
48231W        W13216  43.713  40.309   1.836
48232W        W13217  35.010  19.057  12.547
48233W        W13218  18.013  13.095  13.615
48234W        W13219   0.032  16.201  13.107
48235W        W13220  24.144  33.096   1.840
48236W        W13221   8.393  39.501   0.462
48237W        W13222  24.123  36.827   4.785
48238W        W13223  18.769  31.128  12.358
48239W        W13224   8.470  12.282   0.253
48240W        W13225  12.898  27.176   3.784
48241W        W13226  25.096  15.179   3.590
48242W        W13227  12.107  21.623   2.669
48243W        W13228  23.562  16.654   1.945
48244W        W13229  35.814  44.957   4.051
48245W        W13230  39.481  15.778  13.695
48246W        W13231  13.185  20.299   4.654
48247W        W13232   7.380  22.551   4.513
48248W        W13233  39.002   2.504   1.446
48249W        W13234  13.879   6.054  11.563
48250W        W13235  44.049  18.462   3.155
48251W        W13236  21.619  34.106  11.110
48252W        W13237  16.563   6.451   1.300
48253W        W13238   0.310  31.769  12.194
48254W        W13239  27.006  13.216  10.944
48255W        W13240  28.146  21.172  14.375
48256W        W13241   0.968  25.144  13.887
48257W        W13242  19.674   4.500  12.905
48258W        W13243   1.083  21.726  10.789
48259W        W13244  24.101  15.137   0.446
48260W        W13245  17.520  37.051   4.628
48261W        W13246   6.830  33.906   0.342
48262W        W13247  21.923  10.119   1.476
48263W        W13248  42.611  20.045   5.016
48264W        W13249  33.602  10.924   4.045
48265W        W13250  26.287  43.791  10.322
48266W        W13251  35.654  38.630   4.304
48267W        W13252  12.047  41.034  12.159
48268W        W13253  37.996  39.344   3.660
48269W        W13254  20.338  41.542  14.388
48270W        W13255  29.721   1.853   1.764
48271W        W13256  15.095  38.380  14.986
48272W        W13257  31.568  19.720   4.648
48273W        W13258  29.927  11.669   0.878
48274W        W13259  30.735  22.573  14.758
48275W        W13260  40.362  33.830  11.228
48276W        W13261  37.082  23.011   1.296
48277W        W13262   9.325  29.206   4.594
48278W        W13263  32.502  30.374   3.232
48279W        W13264  20.884   0.148   2.171
48280W        W13265  44.109  27.936   3.579
48281W        W13266  43.505  31.629   3.223
48282W        W13267  32.442  17.362  11.959
48283W        W13268  36.861  23.291   2.635
48284W        W13269  22.569  30.166   0.897
48285W        W13270  14.216  35.283  13.557
48286W        W13271  23.233  34.667   4.574
48287W        W13272  16.302  24.022   4.820
48288W        W13273  33.356  38.364  12.955
48289W        W13274   4.262  31.131   1.029
48290W        W13275   2.699   7.775   1.428
48291W        W13276  10.598  39.435  10.497
48292W        W13277  29.044  36.072   3.692
48293W        W13278  18.541   0.289   1.898
48294W        W13279  42.482  23.045   1.895
48295W        W13280  36.150   5.667  12.936
48296W        W13281  42.984  15.690   2.822
48297W        W13282  15.772  38.950  14.023
48298W        W13283  44.778  30.989  12.851
48299W        W13284   4.515  39.374  13.084
48300W        W13285   2.936  36.492   3.594
48301W        W13286   3.486  43.167  12.329
48302W        W13287  28.092  32.924  11.869
48303W        W13288   4.301  29.031  12.348
48304W        W13289  26.567  36.058  11.997
48305W        W13290   3.693  25.013   4.534
48306W        W13291   7.706   9.696   4.213
48307W        W13292   2.464   6.152  10.281
48308W        W13293  44.435  31.306   0.055
48309W        W13294  19.455   7.895   3.664
48310W        W13295  37.503  44.080  12.776
48311W        W13296  37.464  16.869  14.904
48312W        W13297  25.603   6.614   2.199
48313W        W13298   9.761  15.657   4.327
48314W        W13299   6.383  21.787   4.699
48315W        W13300  23.209  19.877   3.638
48316W        W13301  32.040  32.617  11.191
48317W        W13302  36.137  36.828  11.051
48318W        W13303  37.433  29.702   2.681
48319W        W13304  36.322  29.928  14.630
48320W        W13305   2.498  35.317   2.249
48321W        W13306   5.349  43.430  13.055
48322W        W13307  41.923   2.198   4.258
48323W        W13308  31.299  19.157  11.955
48324W        W13309  28.686   2.708   2.626
48325W        W13310  33.300  39.848   3.211
48326W        W13311  42.916   1.883  10.327
48327W        W13312  39.607   2.496  13.478
48328W        W13313  43.482  39.562   0.619
48329W        W13314   6.860   8.191   2.322
48330W        W13315  28.465   9.353  12.600
48331W        W13316  21.658  26.629  10.742
48332W        W13317  37.658  10.531   0.816
48333W        W13318  29.936   5.160   0.409
48334W        W13319   5.478  32.669   2.825
48335W        W13320  20.506  15.292  14.418
48336W        W13321   4.828   4.894   4.613
48337W        W13322  10.921  20.755  10.494
48338W        W13323  31.384  28.088  14.356
48339W        W13324  36.066  27.623   3.853
48340W        W13325  30.886  22.158  11.640
48341W        W13326  34.166  31.579  10.705
48342W        W13327  35.763  26.219   4.346
48343W        W13328  19.573  17.876   3.638
48344W        W13329   1.830  41.363   0.092
48345W        W13330  44.963  16.864  13.552
48346W        W13331  14.923   7.248   0.431
48347W        W13332  29.901  26.069   4.347
48348W        W13333  21.832  11.729  11.119
48349W        W13334  40.997  26.489   2.734
48350W        W13335  41.033  29.827  13.544
48351W        W13336  35.685  37.468  14.789
48352W        W13337  27.752  20.621   2.310
48353W        W13338   5.735  14.800  11.883
48354W        W13339  25.239  16.011   2.724
48355W        W13340  27.686  17.260  11.740
48356W        W13341  37.600  40.830  13.054
48357W        W13342  10.447  23.815   0.649
48358W        W13343  29.563   8.901  12.827
48359W        W13344  34.934  13.238  11.084
48360W        W13345   6.649   4.322  13.467
48361W        W13346  26.104  37.694   4.620
48362W        W13347  26.634  23.867   3.099
48363W        W13348  44.729   3.962  14.621
48364W        W13349  12.031  41.567   1.826
48365W        W13350   0.388  36.295   2.877
48366W        W13351  13.353  19.358   1.066
48367W        W13352  40.804  34.353   1.929
48368W        W13353  39.771  12.138   1.459
48369W        W13354  30.253  30.093  13.548
48370W        W13355   9.756  21.232   4.526
48371W        W13356  13.719  17.097   4.014
48372W        W13357  13.855  40.309   0.677
48373W        W13358   4.021  31.572  11.936
48374W        W13359  32.142   0.836   4.561
48375W        W13360  27.056  32.802   1.158
48376W        W13361   7.330  40.544   4.924
48377W        W13362  42.917  42.024  13.045
48378W        W13363  21.630  38.911   1.405
48379W        W13364   4.373  15.398   3.182
48380W        W13365  28.953   4.982  11.743
48381W        W13366   4.429   1.317  10.870
48382W        W13367  31.116  19.634  11.944
48383W        W13368  22.191  19.305  14.393
48384W        W13369  43.023   9.431   5.193
48385W        W13370  22.280  43.194  14.503
48386W        W13371  16.744  21.480  13.953
48387W        W13372  26.622   4.745  10.299
48388W        W13373  17.592  18.001   2.787
48389W        W13374  31.614   3.979  12.882
48390W        W13375  19.247   8.197  13.167
48391W        W13376  28.477  28.345   3.991
48392W        W13377  33.563  42.347  13.019
48393W        W13378  40.286  36.862  11.201
48394W        W13379  21.974   4.659   1.813
48395W        W13380  18.753  34.056  11.489
48396W        W13381  36.830  44.921   3.907
48397W        W13382  17.884  40.060   0.744
48398W        W13383  17.173   8.241  13.437
48399W        W13384  43.032  35.651  12.669
48400W        W13385  29.570  41.720   1.613
48401W        W13386  22.865  34.158   2.863
48402W        W13387  17.026  10.664   2.583
48403W        W13388  37.118  39.488   3.596
48404W        W13389  35.382  43.739   3.314
48405W        W13390  27.135  17.424   3.228
48406W        W13391  44.460  34.082  11.704
48407W        W13392  27.429  22.560   2.893
48408W        W13393  10.185  15.321  12.031
48409W        W13394  44.464  15.066   0.457
48410W        W13395  12.179  29.411   2.203
48411W        W13396  37.853   3.436   0.165
48412W        W13397   2.472   6.892   2.651
48413W        W13398   8.310  30.513   2.193
48414W        W13399  42.590   9.911  12.163
48415W        W13400  23.905  20.301  12.081
48416W        W13401  21.828  22.984  14.368
48417W        W13402  42.855  10.811  14.704
48418W        W13403  16.606  17.737  14.742
48419W        W13404  28.178  11.279  14.349
48420W        W13405  37.542  31.493  13.363
48421W        W13406  41.236  11.942   0.528
48422W        W13407  22.506   3.834  11.612
48423W        W13408  24.755  18.069   2.869
48424W        W13409  28.906   0.059   4.835
48425W        W13410  43.837   2.786   4.121
48426W        W13411   4.844  21.194   2.610
48427W        W13412  24.154   7.321   4.219
48428W        W13413  20.299  22.704  14.888
48429W        W13414   8.353  32.861   2.609
48430W        W13415  17.206  24.270  10.749
48431W        W13416  14.207  14.639   0.379
48432W        W13417  36.422   7.596  13.342
48433W        W13418  26.005  40.250   3.142
48434W        W13419   1.794   1.269  14.922
48435W        W13420  19.595  14.225   2.320
48436W        W13421  37.471  20.187  11.904
48437W        W13422  12.652  27.348  13.371
48438W        W13423  28.067  29.947   3.228
48439W        W13424  43.843  20.227  12.460
48440W        W13425  37.874  15.878  10.106
48441W        W13426  39.506  33.866   1.253
48442W        W13427  38.821  16.840  11.215
48443W        W13428  28.525   1.989   1.328
48444W        W13429  23.156  25.246  14.353
48445W        W13430   8.139  13.860  13.344
48446W        W13431  39.654   8.151  11.983
48447W        W13432   8.423   6.641  10.494
48448W        W13433  36.555  21.223   1.296
48449W        W13434  42.265  20.158  11.889
48450W        W13435  31.432  10.623   2.183
48451W        W13436  39.548   0.859  11.202
48452W        W13437   5.273   3.604   3.688
48453W        W13438  43.005   3.393   4.883
48454W        W13439  15.835  42.868   1.734
48455W        W13440  44.899  37.476   3.557
48456W        W13441  21.926  27.503   1.480
48457W        W13442  38.912  10.936   2.351
48458W        W13443  24.393  33.226  12.536
48459W        W13444   1.717  42.292  11.928
48460W        W13445   4.321   7.682   0.806
48461W        W13446  41.420  36.526   3.503
48462W        W13447  30.193  34.309  10.822
48463W        W13448  43.153  22.560   0.487
48464W        W13449  15.070  42.411  13.106
48465W        W13450   6.774  30.301   0.956
48466W        W13451  33.871   8.797  11.318
48467W        W13452  39.873  23.843  11.437
48468W        W13453  22.758  11.199   1.947
48469W        W13454  13.557  39.898  13.903
48470W        W13455  30.790  11.635  11.511
48471W        W13456  44.679  36.629  14.410
48472W        W13457  10.983  15.260  12.590
48473W        W13458   0.969  29.287  13.461
48474W        W13459  17.118  42.769   0.397
48475W        W13460  14.727   1.270   0.312
48476W        W13461  32.928  28.170   0.293
48477W        W13462   6.959  40.901  10.703
48478W        W13463  15.981  14.302  12.085
48479W        W13464  19.714  22.265   4.076
48480W        W13465  21.020  20.685   0.677
48481W        W13466  37.359   1.343   3.668
48482W        W13467  32.034  42.850   0.630
48483W        W13468  21.044  29.449   3.834
48484W        W13469  24.021  27.731  11.989
48485W        W13470  31.535  14.775  12.292
48486W        W13471  41.860   8.806   1.330
48487W        W13472   7.827  19.969  10.304
48488W        W13473  17.092  16.272   0.563
48489W        W13474  18.538  40.869  13.425
48490W        W13475  29.222  18.525   0.484
48491W        W13476  27.218  12.666  12.136
48492W        W13477  43.877  20.658  13.877
48493W        W13478  38.765  25.667  13.347
48494W        W13479   1.310  37.296  10.710
48495W        W13480  26.898  33.650   1.825
48496W        W13481  26.547  44.129   4.601
48497W        W13482  39.628   3.051  14.820
48498W        W13483   6.809  31.956   3.703
48499W        W13484  33.397  43.071   5.009
48500W        W13485   6.466  28.655  14.933
48501W        W13486   7.359  15.215  12.422
48502W        W13487  42.827   3.884  11.801
48503W        W13488   9.744  31.824   0.723
48504W        W13489  12.164  32.369   4.451
48505W        W13490  30.459  14.322  10.785
48506W        W13491  40.114  22.240   1.248
48507W        W13492  23.308  12.553  11.425
48508W        W13493  31.445  39.369   4.046
48509W        W13494  38.549  13.342  14.414
48510W        W13495   2.653  24.045   0.222
48511W        W13496  38.027  39.923  10.759
48512W        W13497  29.539  12.366  13.002
48513W        W13498   4.438  33.969  12.626
48514W        W13499  40.039   4.139  14.814
48515W        W13500  19.214  15.211  12.513
48516W        W13501  18.183  37.056   4.247
48517W        W13502  10.377  24.543  14.720
48518W        W13503  44.741  21.778  13.930
48519W        W13504  24.395  44.822   3.657
48520W        W13505  13.174  17.169   1.814
48521W        W13506  44.806   7.007  14.779
48522W        W13507  27.021  20.023  14.359
48523W        W13508  36.869   7.865  13.310
48524W        W13509   6.646   2.261  14.036
48525W        W13510   5.746  23.255   0.256
48526W        W13511  34.390  39.916  13.009
48527W        W13512   0.306   7.175  12.914
48528W        W13513  37.997  30.199  10.965
48529W        W13514  31.610  14.881  10.779
48530W        W13515  23.570   0.214   1.867
48531W        W13516  36.395   4.360  13.551
48532W        W13517   4.734  32.910   3.777
48533W        W13518  19.260  14.338   4.125
48534W        W13519  17.930  28.250   2.883
48535W        W13520  15.680   3.188   4.101
48536W        W13521   3.942  13.283  13.565
48537W        W13522  34.182  40.941   3.602
48538W        W13523  18.804  27.072   9.545
48539W        W13524   7.482  44.472   4.559
48540W        W13525  43.313  34.571  14.760
48541W        W13526  36.602  30.814   4.055
48542W        W13527  25.292  43.806   2.164
48543W        W13528  21.695   9.261   2.791
48544W        W13529  23.590   0.194   0.571
48545W        W13530  39.291  38.732   1.916
48546W        W13531  34.896  42.977  13.139
48547W        W13532  40.011  43.838   3.049
48548W        W13533   2.360   0.469   2.362
48549W        W13534  44.348  16.763   1.624
48550W        W13535  36.774  13.780  10.774
48551W        W13536  39.755   1.710   1.461
48552W        W13537   9.758  22.295   4.521
48553W        W13538   5.009  21.564  13.676
48554W        W13539   8.624  27.621  14.315
48555W        W13540  16.132  21.534  11.113
48556W        W13541  34.789  23.541  11.594
48557W        W13542  18.993  24.712   0.397
48558W        W13543  25.878  17.572   1.426
48559W        W13544  14.653  10.179  12.943
48560W        W13545  42.300  29.238  13.737
48561W        W13546   0.216  11.469   0.690
48562W        W13547   0.524  18.978   0.695
48563W        W13548  32.600  38.866   2.320
48564W        W13549   8.934  31.405  14.420
48565W        W13550  31.530  20.998   1.723
48566W        W13551  25.193  23.610   1.152
48567W        W13552  29.431   0.466   1.176
48568W        W13553  20.756  43.521  13.906
48569W        W13554  22.830  18.118  14.724
48570W        W13555   7.236  43.342   2.233
48571W        W13556  38.586  26.077  13.071
48572W        W13557  21.289  35.536   3.869
48573W        W13558   4.816  39.985   1.905
48574W        W13559  44.492  44.231   4.975
48575W        W13560  26.582  21.137   1.895
48576W        W13561  42.854  22.483   0.889
48577W        W13562  27.704   1.791   0.775
48578W        W13563  11.960  30.962  10.418
48579W        W13564   5.788  14.777  10.993
48580W        W13565  22.190  35.546   3.903
48581W        W13566  17.288   4.998  12.160
48582W        W13567  23.814   5.688   3.189
48583W        W13568   6.642   8.819   1.648
48584W        W13569  37.474  43.288  12.509
48585W        W13570  35.061  31.599   2.884
48586W        W13571  26.087  12.853  14.344
48587W        W13572  10.990   3.515  10.177
48588W        W13573  37.392  25.679   4.994
48589W        W13574   4.722   5.767  10.280
48590W        W13575  39.869  11.628  13.715
48591W        W13576  10.838  37.993  13.332
48592W        W13577  24.366   2.229   3.762
48593W        W13578  21.514   3.508   2.702
48594W        W13579  13.943  21.646  10.659
48595W        W13580  28.883  32.458  13.195
48596W        W13581  25.005   8.590  11.204
48597W        W13582  32.430  15.099   0.909
48598W        W13583  20.890  25.243  11.345
48599W        W13584  43.402  17.025   0.720
48600W        W13585  30.688  32.512  14.369
48601W        W13586   3.184  15.105  14.021
48602W        W13587  34.550  27.185  12.447
48603W        W13588  44.899   2.658   1.373
48604W        W13589  17.722  39.739   3.160
48605W        W13590  19.647  16.471   0.905
48606W        W13591   2.666  21.313   2.378
48607W        W13592   1.410  17.516   0.393
48608W        W13593  31.539  22.536  14.549
48609W        W13594   8.688   8.488   2.185
48610W        W13595  22.091  39.880  13.335
48611W        W13596  23.052   8.605  12.473
48612W        W13597   6.304  16.816  11.685
48613W        W13598  37.810  34.813   9.462
48614W        W13599  34.676  23.557   0.469
48615W        W13600  40.219  37.015   4.613
48616W        W13601  11.301  38.656   1.916
48617W        W13602  20.772  33.315  13.904
48618W        W13603   4.872  38.065   2.385
48619W        W13604  21.488  20.653   2.559
48620W        W13605  43.385   5.241   4.850
48621W        W13606  19.798  19.692   3.365
48622W        W13607  10.145   2.427  12.959
48623W        W13608  15.191  28.295  12.444
48624W        W13609  15.242  31.165  10.316
48625W        W13610  39.811  43.385   4.052
48626W        W13611  26.150  37.476   0.777
48627W        W13612  29.773  16.309   0.346
48628W        W13613  18.606  39.706  11.682
48629W        W13614   6.642  27.748  14.469
48630W        W13615  32.599  28.548   4.858
48631W        W13616  18.569  25.445  14.999
48632W        W13617  43.731  31.528   0.755
48633W        W13618  38.311  25.867  11.604
48634W        W13619   1.700  15.709   0.289
48635W        W13620   6.179  39.472  10.273
48636W        W13621  44.201  40.418  10.687
48637W        W13622   7.199  37.006   0.237
48638W        W13623  28.530  36.217   2.235
48639W        W13624  29.972  30.635  12.122
48640W        W13625  28.862  24.106  11.206
48641W        W13626  24.688  14.211   3.395
48642W        W13627   3.966  14.053   1.323
48643W        W13628  40.693   2.845   2.798
48644W        W13629  11.448  32.208   0.695
48645W        W13630  36.345  12.806   1.683
48646W        W13631  23.451  14.236   1.302
48647W        W13632   0.245  30.469   3.863
48648W        W13633  21.525  22.161  11.994
48649W        W13634  40.459  26.761   2.295
48650W        W13635   7.218  40.019   0.812
48651W        W13636  29.131  28.876   4.073
48652W        W13637  14.167  17.806  11.203
48653W        W13638  39.853  43.342  10.763
48654W        W13639  12.749  18.631  14.482
48655W        W13640  38.490  21.599  10.719
48656W        W13641  15.875  44.521  11.357
48657W        W13642   9.310  24.715  11.923
48658W        W13643  27.069  34.447   1.909
48659W        W13644  41.127   2.237   3.310
48660W        W13645  42.478  18.288   0.835
48661W        W13646  12.261  36.787  14.836
48662W        W13647  34.902  31.431   4.202
48663W        W13648  34.061   5.944   4.708
48664W        W13649   4.787  17.734  11.769
48665W        W13650  43.515  33.771   1.941
48666W        W13651  37.919   2.231   4.217
48667W        W13652  24.975  16.853   3.416
48668W        W13653  28.981  37.998  14.255
48669W        W13654   7.117  22.069  12.445
48670W        W13655  38.916  13.347  14.004
48671W        W13656  41.102   1.410  14.302
48672W        W13657   6.359  32.836  12.489
48673W        W13658  11.671  13.109   2.221
48674W        W13659   7.266  33.629  11.178
48675W        W13660  41.096  33.369  14.379
48676W        W13661   2.301  40.609  13.910
48677W        W13662  10.268  28.798   3.582
48678W        W13663   8.580  29.052  13.071
48679W        W13664  28.333  33.370  11.671
48680W        W13665  22.735  28.673   2.761
48681W        W13666  23.360  21.711  10.641
48682W        W13667   5.722  32.607   1.284
48683W        W13668  21.742   4.437  14.006
48684W        W13669  31.178  35.483   2.398
48685W        W13670   3.171  43.160   4.324
48686W        W13671  34.014  11.276  12.869
48687W        W13672  33.940  28.628   0.838
48688W        W13673   5.554  18.933  12.042
48689W        W13674  13.194  38.552  14.408
48690W        W13675   3.273   7.307  10.817
48691W        W13676  40.522  28.229   9.497
48692W        W13677  32.481  33.163   2.330
48693W        W13678   1.423  30.909  14.958
48694W        W13679  36.362  11.207   2.566
48695W        W13680   4.074   8.100   4.525
48696W        W13681  38.541  30.638  14.537
48697W        W13682  41.807   5.969  13.947
48698W        W13683  20.039  15.285  12.725
48699W        W13684   1.213   1.640   0.699
48700W        W13685   3.517  34.005  14.359
48701W        W13686  21.262   0.401  12.285
48702W        W13687   2.678  39.220  13.794
48703W        W13688  20.191  24.270   1.001
48704W        W13689  29.997  36.485   1.467
48705W        W13690  20.777  30.626  11.452
48706W        W13691  29.531   5.830   3.092
48707W        W13692  29.516  30.964   0.381
48708W        W13693  31.967  11.690   1.310
48709W        W13694  15.566  13.713  11.279
48710W        W13695  24.571  36.882  14.524
48711W        W13696  40.374  26.538   4.530
48712W        W13697   2.944  25.877  14.920
48713W        W13698  42.495   5.365   2.447
48714W        W13699  28.121  30.213  10.178
48715W        W13700  12.049  16.789   0.363
48716W        W13701  37.577  28.710  13.018
48717W        W13702  19.733  44.265  11.508
48718W        W13703  34.317  12.649  13.234
48719W        W13704  31.516  10.343  14.128
48720W        W13705  28.604  12.098  14.932
48721W        W13706  26.035  20.797   2.843
48722W        W13707   3.415  43.081   3.299
48723W        W13708  38.996  19.354   3.651
48724W        W13709  42.241  43.312   3.167
48725W        W13710  35.173   7.586   2.395
48726W        W13711   9.832   3.692   0.763
48727W        W13712  18.653   9.820   1.204
48728W        W13713  34.083  37.721   4.290
48729W        W13714   6.683  16.660   3.309
48730W        W13715  29.220   1.787   1.711
48731W        W13716  32.371  42.437   4.113
48732W        W13717   0.729   6.919  12.176
48733W        W13718  26.584  25.088  13.925
48734W        W13719  39.991  42.787  12.777
48735W        W13720  19.138   6.822   4.020
48736W        W13721  19.550  10.149  12.514
48737W        W13722  16.075  31.617   2.762
48738W        W13723   0.141  14.522   2.700
48739W        W13724  30.080   1.170  13.173
48740W        W13725  35.590   9.670  11.791
48741W        W13726  20.208   6.899  13.324
48742W        W13727  26.695  39.982   3.621
48743W        W13728  35.933  39.771  11.631
48744W        W13729   8.307  12.948   3.014
48745W        W13730   6.796  44.385   1.431
48746W        W13731  23.074  32.394  14.974
48747W        W13732   3.757  15.033   1.365
48748W        W13733  26.038  10.029   0.374
48749W        W13734  41.970  35.107  14.318
48750W        W13735   7.670  13.019  12.634
48751W        W13736  42.937   2.504   4.643
48752W        W13737  31.997  36.284   3.118
48753W        W13738  34.351  23.972   0.665
48754W        W13739  26.163  20.911  14.736
48755W        W13740   3.940  32.194  11.487
48756W        W13741  26.725  15.863  14.230
48757W        W13742  12.029   7.621  13.029
48758W        W13743  28.949  23.160  10.411
48759W        W13744   6.146  27.604   2.216
48760W        W13745   6.528  25.458  11.524
48761W        W13746  32.371   4.797  12.888
48762W        W13747  27.191  24.118   1.614
48763W        W13748   6.188  29.599   4.557
48764W        W13749   4.153  35.964  11.808
48765W        W13750  13.165   2.102  10.605
48766W        W13751  42.852  21.225  14.207
48767W        W13752  21.212  23.639   2.925
48768W        W13753  27.137  21.994  14.379
48769W        W13754  23.065  43.326   4.086
48770W        W13755  24.953  18.651   1.766
48771W        W13756  11.124   4.256   1.820
48772W        W13757   9.149  23.993  13.793
48773W        W13758  19.505  33.970  14.831
48774W        W13759  26.189  17.481   2.785
48775W        W13760   9.042  28.096  12.069
48776W        W13761   9.915  30.146  13.499
48777W        W13762  33.941  29.592  14.823
48778W        W13763  43.835  44.437  14.670
48779W        W13764  40.304  29.100   3.995
48780W        W13765  18.050  10.413   3.247
48781W        W13766  13.211  23.467   4.068
48782W        W13767  29.774  31.978  12.453
48783W        W13768  28.097  12.826  10.174
48784W        W13769  19.107   7.295   4.276
48785W        W13770  37.929  38.381  11.527
48786W        W13771  42.441   3.661   2.628
48787W        W13772  23.134  10.892  14.845
48788W        W13773  28.563  25.545  11.177
48789W        W13774   4.421  20.090   1.671
48790W        W13775  44.182  44.710  12.948
48791W        W13776   3.301  37.104   4.271
48792W        W13777  44.040  23.677   3.674
48793W        W13778  18.534  21.586   0.778
48794W        W13779  33.777   0.279   4.906
48795W        W13780   8.128  10.215   0.500
48796W        W13781  34.644   3.360  11.400
48797W        W13782   6.816  33.862  14.302
48798W        W13783   6.573  35.497  13.078
48799W        W13784  24.594  39.496   1.212
48800W        W13785  31.428  19.295  12.447
48801W        W13786  20.705  36.100  13.008
48802W        W13787  37.102  13.823  12.153
48803W        W13788  29.932   9.712  13.457
48804W        W13789  29.305  43.281   3.195
48805W        W13790  10.686  29.862   2.380
48806W        W13791  27.001  10.660  10.617
48807W        W13792  20.062   8.839  11.677
48808W        W13793  16.060   9.284  14.403
48809W        W13794  18.320  43.428  14.577
48810W        W13795  23.272  11.384  12.058
48811W        W13796   6.837  38.520  13.122
48812W        W13797  35.993   8.458  11.371
48813W        W13798   4.133  38.838  10.945
48814W        W13799  20.939  42.455  10.697
48815W        W13800  32.858  34.489  14.836
48816W        W13801   6.874   7.502   0.776
48817W        W13802   3.290  17.812  12.229
48818W        W13803  29.102  21.336  12.078
48819W        W13804  24.968   3.431   0.712
48820W        W13805  34.603  44.275  11.970
48821W        W13806  14.113  38.377  13.478
48822W        W13807  30.487  23.436  14.918
48823W        W13808  12.613  36.421  10.769
48824W        W13809  20.129   2.913  12.328
48825W        W13810  23.122  37.410  14.727
48826W        W13811  37.050  26.541   4.180
48827W        W13812  34.916  40.541  11.212
48828W        W13813   4.462  30.550   2.917
48829W        W13814   5.993  18.090   0.467
48830W        W13815   1.335  31.464  11.529
48831W        W13816  15.597  22.615  12.075
48832W        W13817   3.949  14.113   3.319
48833W        W13818  30.214  43.919  11.856
48834W        W13819  41.925  28.506   0.873
48835W        W13820  27.920   9.467   2.212
48836W        W13821  44.833  35.530   4.700
48837W        W13822  34.320  35.407  14.661
48838W        W13823   0.820  27.377   0.242
48839W        W13824  34.167  30.087  13.490
48840W        W13825  36.659  14.087  11.168
48841W        W13826  34.405   0.672  13.927
48842W        W13827  16.789  13.041   2.731
48843W        W13828  26.998   9.941  12.085
48844W        W13829  22.059  25.662  12.609
48845W        W13830   8.166   0.721  11.968
48846W        W13831  43.932  13.683   3.903
48847W        W13832  14.398  15.427  14.223
48848W        W13833   4.437  22.474   4.102
48849W        W13834  38.955   6.366  10.184
48850W        W13835  29.880   5.598   4.256
48851W        W13836  26.085  20.480   1.020
48852W        W13837  40.031  31.634   3.200
48853W        W13838  32.416  22.087   4.631
48854W        W13839   7.590  43.833  13.912
48855W        W13840  37.150   9.525   0.879
48856W        W13841   0.533  27.956   2.240
48857W        W13842  42.681  21.771   2.810
48858W        W13843  34.934  22.467  14.009
48859W        W13844   1.230  43.760  11.539
48860W        W13845  35.675   2.508   0.701
48861W        W13846  18.360   4.117  14.728
48862W        W13847   4.913  15.348  11.969
48863W        W13848   1.984  16.330   1.258
48864W        W13849  44.486  41.379   0.414
48865W        W13850  17.171   5.846   0.223
48866W        W13851   3.424   3.480  13.347
48867W        W13852  21.187  38.940  13.509
48868W        W13853  41.318  44.326  10.783
48869W        W13854  33.247   6.875   4.238
48870W        W13855   9.446  25.104  11.623
48871W        W13856  44.039   7.866   1.628
48872W        W13857  32.182  33.585   5.044
48873W        W13858   9.767   7.839   0.224
48874W        W13859  28.396   7.500  12.566
48875W        W13860   0.575  40.254   4.171
48876W        W13861   3.946  17.526  10.209
48877W        W13862  11.718   2.182   3.147
48878W        W13863   4.557  27.403   0.814
48879W        W13864  25.704  15.115  12.073
48880W        W13865  30.589   5.449  11.182
48881W        W13866  38.185  21.162  12.102
48882W        W13867  38.289   8.111   0.827
48883W        W13868  38.910  29.205   4.340
48884W        W13869  32.699   9.280  14.413
48885W        W13870  12.765  10.734  12.879
48886W        W13871  14.089  35.796  14.410
48887W        W13872  23.667   2.883  14.888
48888W        W13873   6.729  18.828  10.827
48889W        W13874  28.423  26.502  14.076
48890W        W13875  26.258  29.372   9.669
48891W        W13876   6.907  37.365  13.557
48892W        W13877  16.676  40.228  14.636
48893W        W13878  42.088  37.091   5.118
48894W        W13879   3.440   0.758   3.590
48895W        W13880  43.739  18.480   1.267
48896W        W13881  29.626  10.848  11.013
48897W        W13882  12.962  24.093   0.047
48898W        W13883  24.917   9.127   2.741
48899W        W13884  44.667  39.130  14.923
48900W        W13885  21.192   4.862  14.335
48901W        W13886  18.025  38.495  11.198
48902W        W13887  18.006   3.333  14.303
48903W        W13888  11.459   5.954   2.400
48904W        W13889   4.244   0.291  10.637
48905W        W13890  32.341  22.678  13.388
48906W        W13891  32.943  13.382  13.820
48907W        W13892  39.452  11.791   2.728
48908W        W13893  12.663  14.412  14.870
48909W        W13894  35.963  10.869  12.453
48910W        W13895   7.864  21.566   3.672
48911W        W13896  21.185  10.565  12.658
48912W        W13897  42.419  31.922   3.815
48913W        W13898   4.875   7.842  13.232
48914W        W13899  28.467  36.840  11.131
48915W        W13900  29.549  15.815  13.854
48916W        W13901   1.691  33.121   1.199
48917W        W13902  43.731   6.564   4.160
48918W        W13903  21.220  23.322  12.161
48919W        W13904   8.725   8.640  14.933
48920W        W13905  36.967  43.433  14.831
48921W        W13906  19.562  42.124   0.397
48922W        W13907  43.850  41.140   2.791
48923W        W13908  25.204  12.419  11.885
48924W        W13909  22.212  16.851   3.691
48925W        W13910  19.638  33.610   1.885
48926W        W13911   3.269  37.053   2.515
48927W        W13912  22.759  44.469  13.694
48928W        W13913  15.640  18.926  12.119
48929W        W13914  31.938  17.100   1.625
48930W        W13915   9.555  11.144  11.804
48931W        W13916  14.976  35.528   3.810
48932W        W13917  39.713  30.364   0.559
48933W        W13918  20.849   6.985   4.350
48934W        W13919   0.968  15.178  13.120
48935W        W13920  27.469  11.121  13.329
48936W        W13921   0.750  41.363   4.733
48937W        W13922  38.804   9.194  13.030
48938W        W13923  27.088  31.017  13.951
48939W        W13924  24.504  35.696   1.093
48940W        W13925  13.178  32.517   3.978
48941W        W13926   9.451  19.271   3.566
48942W        W13927  20.641  18.167  10.229
48943W        W13928  36.618  15.134  10.416
48944W        W13929  22.972  12.192  11.315
48945W        W13930  24.496  22.043   4.646
48946W        W13931  30.854  28.126  12.035
48947W        W13932  10.427  42.827  14.055
48948W        W13933  24.045  15.947   3.184
48949W        W13934   2.794  23.640   4.677
48950W        W13935  31.943   4.983   1.827
48951W        W13936   2.315   4.176   4.081
48952W        W13937  30.365  23.957   2.999
48953W        W13938   3.018  29.108  11.444
48954W        W13939   6.069  21.999  12.556
48955W        W13940  38.827   5.688   1.530
48956W        W13941   8.423  40.081   3.377
48957W        W13942  32.665  43.819  13.550
48958W        W13943  28.073  13.450  13.424
48959W        W13944  32.910  18.515  12.993
48960W        W13945  25.049  24.620   1.854
48961W        W13946  20.101  19.305   2.712
48962W        W13947  16.361  37.307   4.152
48963W        W13948  42.088  13.304  12.462
48964W        W13949  43.795  18.494  12.579
48965W        W13950  31.879  32.023  14.505
48966W        W13951  35.630  41.239   2.568
48967W        W13952   0.702  27.182   9.620
48968W        W13953  15.563   0.972   4.269
48969W        W13954   7.680  37.891  14.492
48970W        W13955   7.818  25.585  11.214
48971W        W13956   9.758  19.310   2.732
48972W        W13957  30.678  14.365  13.897
48973W        W13958   1.990  18.627  13.504
48974W        W13959  30.151  22.775   3.674
48975W        W13960  41.749  39.885   2.779
48976W        W13961   7.287  14.637   1.610
48977W        W13962  30.625  15.369   0.705
48978W        W13963  14.503  35.372   3.639
48979W        W13964  26.087   8.254  12.916
48980W        W13965  17.030  14.145  11.167
48981W        W13966  41.863  31.964   0.365
48982W        W13967  29.505   0.500   2.094
48983W        W13968  33.504   5.898   4.716
48984W        W13969  21.021   6.977  13.387
48985W        W13970  13.883   1.418   0.461
48986W        W13971   7.974   9.119   3.091
48987W        W13972  41.633  19.521   3.637
48988W        W13973  44.927  18.612  11.254
48989W        W13974  10.371  21.338  11.786
48990W        W13975   9.728  33.147   1.909
48991W        W13976  21.164   5.967  13.457
48992W        W13977  14.640  39.109   1.366
48993W        W13978  15.028   9.116  14.563
48994W        W13979  25.979  24.959   3.645
48995W        W13980  41.456  27.938  12.438
48996W        W13981  14.264  11.296   4.681
48997W        W13982  22.599  31.473   3.777
48998W        W13983  39.241   2.959   4.048
48999W        W13984  18.791   1.704  10.695
49000W        W13985  42.522  26.185   2.045
49001W        W13986  22.306  28.879   1.863
49002W        W13987  15.857  38.886  12.223
49003W        W13988   7.255  33.683  14.043
49004W        W13989  44.850   0.172   3.389
49005W        W13990   2.447  27.039   2.382
49006W        W13991  23.981  21.004  11.014
49007W        W13992  23.944  44.776   1.870
49008W        W13993   0.208  29.193  14.624
49009W        W13994  39.793  20.486  12.097
49010W        W13995  23.465  11.835   1.728
49011W        W13996  40.854  39.105   2.805
49012W        W13997   9.128  18.646  14.778
49013W        W13998   9.656  38.932  13.309
49014W        W13999   7.306  42.405  13.125
49015W        W14000  40.063   9.867   0.007
49016W        W14001  18.891  22.700   2.299
49017W        W14002  32.299  20.287  14.350
49018W        W14003  31.412  36.321  14.318
49019W        W14004  10.272  24.437   1.247
49020W        W14005  36.534  36.037   4.620
49021W        W14006  19.891  29.245   3.029
49022W        W14007  22.700  41.687   4.414
49023W        W14008   9.660  21.257   3.104
49024W        W14009  15.814  21.135   2.291
49025W        W14010  28.407   4.124  14.883
49026W        W14011  21.316  13.269   1.374
49027W        W14012  41.523  28.926  12.298
49028W        W14013  40.078  44.150  14.402
49029W        W14014   0.307  42.396  12.495
49030W        W14015  14.370   3.595   4.460
49031W        W14016   6.433   7.783   0.925
49032W        W14017  15.330   0.236  12.578
49033W        W14018   6.833  28.207  12.719
49034W        W14019  11.498   7.725   3.257
49035W        W14020  16.533   4.290   1.021
49036W        W14021  32.727  31.013   2.716
49037W        W14022  20.639  18.605  11.527
49038W        W14023   3.256  42.318   2.638
49039W        W14024  18.859  35.860   4.933
49040W        W14025  40.701   0.345   0.204
49041W        W14026  13.204  41.748   2.769
49042W        W14027   4.557  32.086   0.749
49043W        W14028  30.070  22.915  12.476
49044W        W14029  12.725  27.915   4.361
49045W        W14030  27.003   5.915   1.227
49046W        W14031  12.664  27.508   4.820
49047W        W14032  44.781  40.073  14.777
49048W        W14033  36.014  43.539   1.851
49049W        W14034  41.440  32.217   3.463
49050W        W14035  25.280  25.108  11.437
49051W        W14036  36.051  10.146   2.370
49052W        W14037  16.467   7.907   9.838
49053W        W14038  30.041   0.008  11.106
49054W        W14039  37.561  30.646  14.823
49055W        W14040  21.106  25.816  13.754
49056W        W14041   7.724  13.299   3.866
49057W        W14042   0.887   2.174   0.413
49058W        W14043  11.224  32.255   3.405
49059W        W14044   5.308  22.629  11.162
49060W        W14045  17.801  24.473   0.833
49061W        W14046  19.494   6.314   0.907
49062W        W14047  31.107  14.085  13.864
49063W        W14048  19.324   0.632   2.233
49064W        W14049  39.135  21.156  11.122
49065W        W14050  35.796  15.653   4.551
49066W        W14051  10.850   4.195  13.505
49067W        W14052  25.976  12.835   3.186
49068W        W14053  34.299  19.073  12.213
49069W        W14054  12.277   4.319  10.672
49070W        W14055  41.263  14.054   2.380
49071W        W14056  13.362  13.333  14.302
49072W        W14057  31.433  21.494  10.557
49073W        W14058  26.434  34.624   4.597
49074W        W14059   3.899  43.039  11.047
49075W        W14060  35.247  39.339  11.678
49076W        W14061  13.528   2.508   1.659
49077W        W14062   9.414  35.853   0.950
49078W        W14063   1.370  42.254   0.260
49079W        W14064  44.797  37.554  11.583
49080W        W14065  23.068  42.986   0.321
49081W        W14066  14.579  33.850  12.519
49082W        W14067   9.680  38.210  14.724
49083W        W14068  25.588   7.150  12.450
49084W        W14069  30.003   2.854   1.316
49085W        W14070  14.341   8.330  13.935
49086W        W14071  29.706  33.527  11.727
49087W        W14072  42.954  44.683   1.286
49088W        W14073  23.641  43.709   4.471
49089W        W14074  32.396  13.241  11.885
49090W        W14075  41.486   0.826  14.902
49091W        W14076  35.070  18.073   4.661
49092W        W14077  18.522  15.891   2.757
49093W        W14078  39.468  42.513   1.272
49094W        W14079  14.766   5.883  12.630
49095W        W14080  28.924  41.924  13.216
49096W        W14081  31.424   3.793   4.587
49097W        W14082  38.518  28.770  10.725
49098W        W14083  31.024  11.524   2.534
49099W        W14084  14.649  34.057  14.575
49100W        W14085  41.086  44.058  12.111
49101W        W14086  27.703  38.487   1.501
49102W        W14087  28.958  28.697   5.015
49103W        W14088  18.089  36.271  10.513
49104W        W14089  34.423  40.325  11.219
49105W        W14090  36.052  23.124   4.144
49106W        W14091  16.460  37.024   3.719
49107W        W14092   0.037  39.436   1.940
49108W        W14093  21.009  25.030  10.876
49109W        W14094  31.868  29.908   2.352
49110W        W14095  13.971  27.122   4.565
49111W        W14096  39.311  24.180   2.545
49112W        W14097  44.734   8.939  13.290
49113W        W14098  37.590  36.542  11.657
49114W        W14099   9.962   0.709   0.261
49115W        W14100  41.949  36.874  11.862
49116W        W14101  12.208  21.173  14.900
49117W        W14102  16.884  42.791   4.042
49118W        W14103  35.520  11.085  11.882
49119W        W14104  43.809  23.270   0.306
49120W        W14105  19.707  20.459  11.997
49121W        W14106   5.371   9.035  12.979
49122W        W14107   3.826  19.664  13.030
49123W        W14108  19.585   5.166  11.927
49124W        W14109   7.955  42.264  14.351
49125W        W14110  21.255  33.562  13.918
49126W        W14111  24.980   4.750   1.058
49127W        W14112  26.603  17.086  12.684
49128W        W14113  32.809  16.714   3.222
49129W        W14114  19.300  17.655   2.713
49130W        W14115  39.040  38.985  14.063
49131W        W14116  11.225  42.017  12.207
49132W        W14117  38.219   9.299   3.776
49133W        W14118  13.615  23.987  10.532
49134W        W14119  42.420  16.140   2.261
49135W        W14120  38.148   7.120  11.558
49136W        W14121  33.483  28.655  13.984
49137W        W14122   3.107  26.079  12.020
49138W        W14123   6.182  43.352  14.678
49139W        W14124  24.259  34.481   3.598
49140W        W14125   1.848  22.323   4.164
49141W        W14126  33.904  32.375  12.630
49142W        W14127  11.351  39.565  14.536
49143W        W14128  36.078  39.659   2.667
49144W        W14129  16.150  36.410  11.466
49145W        W14130  17.532  35.626  11.743
49146W        W14131  43.568  42.449  14.948
49147W        W14132   6.440  37.404   0.371
49148W        W14133  24.483  39.587   0.278
49149W        W14134  38.279  23.722  14.923
49150W        W14135  17.050  31.553  14.899
49151W        W14136  42.986   8.765   2.324
49152W        W14137  15.824  39.267  13.337
49153W        W14138  29.479  35.849   2.148
49154W        W14139  33.224  25.112   0.092
49155W        W14140  16.163  36.874  10.741
49156W        W14141  42.310   1.421   0.783
49157W        W14142  38.951  38.528  13.066
49158W        W14143  40.541   7.845   5.070
49159W        W14144  21.111   1.832   1.350
49160W        W14145   9.763  20.724  11.727
49161W        W14146   3.457  27.375  12.496
49162W        W14147  32.500   6.638  14.755
49163W        W14148  30.605  39.976  13.569
49164W        W14149  28.575  30.158   4.044
49165W        W14150   0.520  25.537  11.134
49166W        W14151  25.629  38.902  13.589
49167W        W14152  13.806  29.107   3.705
49168W        W14153  41.268   0.392  12.162
49169W        W14154  27.730  24.105  12.373
49170W        W14155  25.378   8.789  10.307
49171W        W14156   7.958  25.604  13.556
49172W        W14157  17.622  30.915   4.466
49173W        W14158  18.009  40.388  13.120
49174W        W14159  12.765  31.580  14.649
49175W        W14160   4.980  29.073   4.265
49176W        W14161  16.963   1.337  14.012
49177W        W14162  44.125  44.973   1.899
49178W        W14163  12.816  25.089   3.037
49179W        W14164  43.895  25.807   0.996
49180W        W14165  43.199  15.294   0.034
49181W        W14166   0.364   6.245   2.904
49182W        W14167  18.252  32.377   0.232
49183W        W14168  41.326   3.263  12.486
49184W        W14169  26.514  39.317  14.414
49185W        W14170  12.155  20.680   1.423
49186W        W14171  33.563   2.520   2.862
49187W        W14172  23.508  27.108  10.484
49188W        W14173  11.609  42.443  13.852
49189W        W14174  37.030  41.809  11.182
49190W        W14175  44.898   8.937  11.159
49191W        W14176  18.234   1.602  12.127
49192W        W14177  16.759  24.201  14.414
49193W        W14178   7.750  41.285  14.557
49194W        W14179  42.025  16.087   2.610
49195W        W14180  12.110  33.814   3.689
49196W        W14181  37.279  28.757   4.031
49197W        W14182  20.295  21.180   1.462
49198W        W14183  36.394  34.610  11.652
49199W        W14184  17.730  21.125   4.876
49200W        W14185   2.901  10.642   0.281
49201W        W14186  13.575  35.106   3.321
49202W        W14187  18.765  21.568   1.290
49203W        W14188  40.566   7.466   1.278
49204W        W14189  44.751   7.639  12.965
49205W        W14190  24.569  20.043   0.517
49206W        W14191  41.476  43.551   4.447
49207W        W14192  29.655  14.291  10.282
49208W        W14193   4.080  44.548  12.996
49209W        W14194  37.888  18.702   1.375
49210W        W14195  27.715  23.565   1.166
49211W        W14196  15.806   9.206   2.233
49212W        W14197  40.512   2.574   3.382
49213W        W14198  35.579  18.784  10.695
49214W        W14199  34.641  19.276  14.953
49215W        W14200  16.307   4.436   1.441
49216W        W14201  31.151  10.199  11.197
49217W        W14202  11.407   9.229  12.201
49218W        W14203  26.499   4.224   2.785
49219W        W14204   0.772  42.752   2.455
49220W        W14205  32.491  33.065   0.238
49221W        W14206  19.001  25.738   2.656
49222W        W14207  23.571  21.919   0.998
49223W        W14208  31.123   8.623  10.267
49224W        W14209  21.727   1.212  12.450
49225W        W14210   2.222   1.312   3.903
49226W        W14211   5.199  28.049   0.317
49227W        W14212   2.529   6.397  13.970
49228W        W14213   5.273  30.217   0.411
49229W        W14214  30.607   6.311  11.608
49230W        W14215  17.990  22.871   4.205
49231W        W14216  29.123   6.272   2.569
49232W        W14217  19.544  24.074  12.561
49233W        W14218  39.639  13.684  11.135
49234W        W14219  18.840   7.837  13.479
49235W        W14220  27.702  12.478  14.844
49236W        W14221  42.295  30.680   3.213
49237W        W14222  26.640  24.280  13.423
49238W        W14223  35.985   3.612  11.209
49239W        W14224  40.938  22.665   2.746
49240W        W14225  30.679  13.310  12.871
49241W        W14226   2.415   1.239  12.383
49242W        W14227  23.075   8.281   2.243
49243W        W14228  42.767  38.018  12.074
49244W        W14229  14.058  41.337   1.282
49245W        W14230  41.416  22.214   2.322
49246W        W14231  31.191   9.356   1.787
49247W        W14232  12.651  12.323   3.028
49248W        W14233  15.120   7.540  10.683
49249W        W14234  15.606  19.307   1.237
49250W        W14235   6.873  30.070  14.403
49251W        W14236  29.449  12.098  10.744
49252W        W14237  10.214  34.242   2.392
49253W        W14238  27.711  43.564  14.426
49254W        W14239  11.845  42.745  12.636
49255W        W14240   5.851  28.180   1.421
49256W        W14241   4.212   7.371   4.260
49257W        W14242   8.723  14.439  14.217
49258W        W14243  10.283   8.235   1.910
49259W        W14244  30.982   9.382   3.863
49260W        W14245   2.256   4.302   0.923
49261W        W14246  16.862  18.750   5.462
49262W        W14247  15.617  40.656   0.671
49263W        W14248  23.548  33.608   4.447
49264W        W14249   0.249  16.700   1.801
49265W        W14250  22.698   0.884   3.696
49266W        W14251  32.848  29.486   0.466
49267W        W14252  25.381  39.035  14.478
49268W        W14253   1.239  43.787   2.682
49269W        W14254  44.240  31.588   0.846
49270W        W14255  11.257   9.076   3.669
49271W        W14256  28.005  40.471  14.011
49272W        W14257  43.796  38.251  12.509
49273W        W14258  44.580  17.346   0.208
49274W        W14259  21.725  25.567   3.275
49275W        W14260  27.326  13.516  12.792
49276W        W14261  39.965  34.577   1.792
49277W        W14262  35.600   8.843   0.511
49278W        W14263   7.818   6.420  13.507
49279W        W14264  35.021  30.133   0.245
49280W        W14265  24.564  37.023   1.511
49281W        W14266   4.004   7.146   2.495
49282W        W14267  20.931  12.892   1.430
49283W        W14268  44.250   0.316   2.271
49284W        W14269  10.384   8.152   4.175
49285W        W14270  38.671  37.571   1.245
49286W        W14271  24.398  19.859   4.069
49287W        W14272  18.319   5.391   9.840
49288W        W14273  10.425  24.920   1.443
49289W        W14274  44.899  35.905   1.222
49290W        W14275  18.854   2.596  11.096
49291W        W14276  12.371   2.024   1.940
49292W        W14277  35.557  42.601   2.298
49293W        W14278   1.169  26.821   4.240
49294W        W14279  17.796   3.533   4.262
49295W        W14280   9.303  20.331  14.458
49296W        W14281  28.889  42.707   5.038
49297W        W14282  21.460   8.914  11.512
49298W        W14283  31.655  30.656  14.302
49299W        W14284  38.936   8.553   1.310
49300W        W14285   1.019  23.812  12.481
49301W        W14286  36.888  30.111   0.242
49302W        W14287   9.206  22.207   4.637
49303W        W14288  17.340  35.909  14.295
49304W        W14289   2.944  12.238   2.438
49305W        W14290   4.673  21.199  11.722
49306W        W14291  40.774  40.704  11.620
49307W        W14292   9.307   0.003   1.369
49308W        W14293  39.329  42.576  10.929
49309W        W14294  14.256  43.714  14.018
49310W        W14295  14.071  20.723  11.153
49311W        W14296  44.968  32.423   4.398
49312W        W14297  12.136  43.511   1.914
49313W        W14298  25.589  37.001   4.747
49314W        W14299  39.814  13.703   2.759
49315W        W14300  23.220  33.125   2.670
49316W        W14301  38.798  24.048  13.459
49317W        W14302  11.017   7.383  12.928
49318W        W14303  23.603  14.905  12.815
49319W        W14304  11.805   4.658   4.536
49320W        W14305  28.628  29.846   3.181
49321W        W14306   3.033  30.263   2.714
49322W        W14307  44.655  16.028  13.932
49323W        W14308   6.419   9.207  14.515
49324W        W14309  35.563  36.154   2.169
49325W        W14310  13.744   0.857   1.315
49326W        W14311   0.979  20.710  12.336
49327W        W14312  38.727  27.262  13.575
49328W        W14313  43.787  34.536  14.990
49329W        W14314   6.316  44.388   1.749
49330W        W14315  22.928  31.946  13.117
49331W        W14316  16.049  35.041   4.116
49332W        W14317   9.254  36.701   1.751
49333W        W14318  32.436  20.806  12.224
49334W        W14319  11.801  44.952  11.667
49335W        W14320   4.508  35.920   4.139
49336W        W14321  18.762  35.572   1.852
49337W        W14322  19.023  39.955   1.385
49338W        W14323   4.231  37.747   4.518
49339W        W14324   2.668   7.252  13.009
49340W        W14325  43.216   3.372  10.648
49341W        W14326   7.897  21.299   4.133
49342W        W14327  38.944   4.681   2.890
49343W        W14328  21.501  41.089   3.141
49344W        W14329  44.546  13.290   1.397
49345W        W14330   3.843   2.453  13.969
49346W        W14331  16.654  37.401   3.396
49347W        W14332  42.918  27.635   3.977
49348W        W14333  20.517  34.841   1.023
49349W        W14334  43.755  34.920   4.598
49350W        W14335   5.207  26.768  13.862
49351W        W14336   0.724   6.690  11.727
49352W        W14337  35.608  20.808   4.315
49353W        W14338  36.579  30.702  10.937
49354W        W14339  27.206  19.099   1.903
49355W        W14340  16.152  36.409   4.523
49356W        W14341  20.206  37.011  14.716
49357W        W14342  38.370  22.556  10.746
49358W        W14343  19.749   7.896   3.231
49359W        W14344  30.659  27.407   0.046
49360W        W14345   6.325  19.047   2.509
49361W        W14346  30.212   9.418   2.837
49362W        W14347  22.392   8.263   3.412
49363W        W14348  24.189  21.431  10.724
49364W        W14349   1.274  23.112  10.909
49365W        W14350  26.121  11.558  14.249
49366W        W14351  24.059  34.724   1.642
49367W        W14352  36.509  34.407  14.359
49368W        W14353  12.807   4.945   1.598
49369W        W14354  12.389  28.742  14.339
49370W        W14355  43.214   1.858   1.305
49371W        W14356  34.517   2.896  13.341
49372W        W14357  43.385  36.585  10.635
49373W        W14358   9.656   6.978  12.989
49374W        W14359  23.051  31.988   0.449
49375W        W14360  34.318   4.765   1.537
49376W        W14361  16.824  43.795   3.280
49377W        W14362  22.766  16.789   0.795
49378W        W14363  23.922  26.920  10.732
49379W        W14364  10.227  27.536  12.919
49380W        W14365  37.583  15.104   0.361
49381W        W14366   7.735  20.629  12.915
49382W        W14367   6.122  26.637   3.893
49383W        W14368   2.764  32.614   1.487
49384W        W14369  11.173   8.337   1.619
49385W        W14370   0.833  24.211   0.007
49386W        W14371  31.137  19.998   3.850
49387W        W14372  21.737  35.957  12.989
49388W        W14373  39.961  17.404   2.185
49389W        W14374  23.519  24.557  11.573
49390W        W14375  20.955  31.617  12.084
49391W        W14376  24.232  33.983   1.438
49392W        W14377  31.138  12.147   3.152
49393W        W14378  24.902  28.513  12.612
49394W        W14379  29.716  12.535  12.538
49395W        W14380   3.502  18.068  13.360
49396W        W14381  24.199   2.884   0.789
49397W        W14382  30.545  44.209  10.068
49398W        W14383   3.424  37.493   2.272
49399W        W14384  31.522   7.516   2.801
49400W        W14385  34.147  29.118   1.857
49401W        W14386  11.262  12.562   3.344
49402W        W14387   9.067  17.385   3.565
49403W        W14388  10.150  37.038   3.986
49404W        W14389  30.826  19.338  10.729
49405W        W14390  12.641  14.873   1.907
49406W        W14391  21.657  11.732  11.583
49407W        W14392  29.917  13.173   0.606
49408W        W14393  37.055  23.998   1.047
49409W        W14394   8.920  25.923   2.290
49410W        W14395  32.901  44.615  11.157
49411W        W14396  19.287  25.118   3.909
49412W        W14397  39.871  10.861   4.604
49413W        W14398  39.870  12.005  13.339
49414W        W14399  40.300  33.591   4.029
49415W        W14400  16.730  23.785  11.523
49416W        W14401  32.094  43.714  11.523
49417W        W14402  23.945  43.335  10.752
49418W        W14403  14.604  26.094  14.360
49419W        W14404   6.215  15.147  10.590
49420W        W14405   4.185  22.034  11.435
49421W        W14406   2.667  36.956   4.294
49422W        W14407  29.473  35.122  14.378
49423W        W14408   5.915  20.643   1.442
49424W        W14409  36.769   8.661   1.777
49425W        W14410  33.754  30.461   3.381
49426W        W14411  26.588  22.428   3.615
49427W        W14412  37.060  16.140   3.177
49428W        W14413   3.948   1.769  12.130
49429W        W14414  20.688  37.065  14.516
49430W        W14415  17.487   2.379  11.540
49431W        W14416  22.116  21.116  12.907
49432W        W14417  30.891  33.631  12.007
49433W        W14418  13.508  29.576   3.749
49434W        W14419   2.866  37.705  14.906
49435W        W14420   1.296  14.543   1.698
49436W        W14421  26.456  40.482  10.580
49437W        W14422  38.832   1.809  12.554
49438W        W14423  39.051  13.200   3.762
49439W        W14424  43.190  29.712  12.954
49440W        W14425  13.886  37.143  13.468
49441W        W14426  42.392  40.261  13.042
49442W        W14427  37.538  30.630   2.926
49443W        W14428  27.860  25.068  11.056
49444W        W14429   7.315  33.310   3.296
49445W        W14430  22.747  44.413   1.218
49446W        W14431  26.067  36.305  13.007
49447W        W14432   1.250  26.999  13.470
49448W        W14433  19.178   8.827   4.552
49449W        W14434  13.618  39.325  10.909
49450W        W14435  10.509  10.093   4.165
49451W        W14436  44.001  35.313   1.964
49452W        W14437  38.064  32.087   0.440
49453W        W14438   3.767  39.517   3.105
49454W        W14439  16.298  17.166   0.333
49455W        W14440   4.910  24.301   2.834
49456W        W14441  31.941  44.675   3.512
49457W        W14442   1.004   0.693  12.862
49458W        W14443  36.874   0.925  14.724
49459W        W14444  30.368  23.912  13.775
49460W        W14445  20.712  36.636  11.157
49461W        W14446  30.361   9.275   2.350
49462W        W14447  24.763   4.173  14.467
49463W        W14448  42.426   3.312  14.806
49464W        W14449  27.091  23.011   1.745
49465W        W14450  32.492  24.807  13.937
49466W        W14451  20.666  11.826  13.733
49467W        W14452  35.926  24.919  11.649
49468W        W14453  31.140   2.351   4.161
49469W        W14454   7.256  26.668  14.648
49470W        W14455   6.645  21.218   1.721
49471W        W14456  24.946  14.718   0.340
49472W        W14457  36.927   0.049   1.547
49473W        W14458  15.730   9.662  13.466
49474W        W14459  10.284  13.434  10.543
49475W        W14460  43.747  35.013   2.314
49476W        W14461  43.729  14.832   2.590
49477W        W14462  34.363  28.587   1.780
49478W        W14463  19.123  43.766  13.788
49479W        W14464  14.582  24.473   4.305
49480W        W14465  26.727  20.093   2.596
49481W        W14466  10.374  35.094  14.897
49482W        W14467  29.168  31.582   1.347
49483W        W14468  24.419  43.837   0.887
49484W        W14469   1.494  23.204  12.005
49485W        W14470  28.645  12.059   2.875
49486W        W14471  10.416  16.880  14.887
49487W        W14472   3.933  12.769   4.576
49488W        W14473  17.109  41.278   4.551
49489W        W14474  14.818  25.017   1.922
49490W        W14475  11.486   2.955  11.974
49491W        W14476  25.059  21.187   1.735
49492W        W14477  42.059  39.393   2.636
49493W        W14478  30.141  31.935  14.964
49494W        W14479  38.079  12.297   3.341
49495W        W14480   3.014  44.146   2.345
49496W        W14481   3.838  37.998  11.026
49497W        W14482  31.968  33.881  12.671
49498W        W14483  39.525   8.730  14.785
49499W        W14484  23.859  42.802   9.873
49500W        W14485  31.394  24.016  10.466
49501W        W14486  10.342  12.634  14.317
49502W        W14487   6.411  21.074  14.762
49503W        W14488  41.444  33.456  14.766
49504W        W14489  39.035  44.500  12.197
49505W        W14490  35.442  15.349   2.194
49506W        W14491   6.652   6.722   2.418
49507W        W14492   3.743  36.931   0.910
49508W        W14493  28.980   4.323   3.693
49509W        W14494  23.352  14.008  13.265
49510W        W14495  42.817  10.368  13.501
49511W        W14496  12.382  17.332  14.003
49512W        W14497  22.624  33.545   1.475
49513W        W14498  26.006   7.640  13.483
49514W        W14499   2.991  28.936  11.917
49515W        W14500  35.720  11.202  14.456
49516W        W14501  17.804  10.055   2.927
49517W        W14502  36.706  27.104  11.848
49518W        W14503  16.028  32.581   2.799
49519W        W14504  21.267  30.207   1.319
49520W        W14505  27.493  23.113  13.981
49521W        W14506   2.442  14.456   2.780
49522W        W14507   1.089   3.318  14.561
49523W        W14508   0.618  14.856  13.338
49524W        W14509  38.820  14.282   1.306
49525W        W14510  12.792  34.580  12.569
49526W        W14511   2.784  35.519   1.444
49527W        W14512  40.979  40.069  11.663
49528W        W14513  17.549   3.126   0.831
49529W        W14514  13.756   5.824   1.814
49530W        W14515  36.829  35.147   3.731
49531W        W14516  21.738  14.398  10.878
49532W        W14517   6.090  19.427   2.767
49533W        W14518   9.913  16.061   1.954
49534W        W14519  40.881  28.792   3.200
49535W        W14520  11.338  44.332   4.677
49536W        W14521  26.988  35.877   3.267
49537W        W14522   4.476  12.109  14.920
49538W        W14523  35.806  19.536   1.635
49539W        W14524  35.318  19.026  14.431
49540W        W14525   1.280  44.122   3.684
49541W        W14526   5.638  40.542  12.216
49542W        W14527   3.244  29.191   0.286
49543W        W14528   3.416  39.084   2.385
49544W        W14529  22.257  44.522  12.172
49545W        W14530  29.550  42.652   2.775
49546W        W14531  38.341  38.375   2.218
49547W        W14532  30.607  17.268   0.343
49548W        W14533  38.480  22.209   4.227
49549W        W14534  38.846   1.268   4.323
49550W        W14535   7.777  35.320   3.243
49551W        W14536  29.140   5.861  11.320
49552W        W14537  39.334  22.513   1.636
49553W        W14538  22.212  24.095  12.416
49554W        W14539  32.993  17.100   1.976
49555W        W14540  27.972  27.532   1.455
49556W        W14541   5.439  19.695   4.432
49557W        W14542  26.069  25.268   0.380
49558W        W14543   0.435   8.403   3.708
49559W        W14544  18.805  36.312  12.822
49560W        W14545   2.525  20.321  11.757
49561W        W14546   1.385   4.454  10.726
49562W        W14547   6.974  43.428   3.281
49563W        W14548  26.086  22.571   3.718
49564W        W14549  13.442  44.049   0.449
49565W        W14550  16.627   1.499  12.084
49566W        W14551  41.110   6.290   1.331
49567W        W14552   0.473  36.030  11.562
49568W        W14553   6.878  25.408   4.581
49569W        W14554  11.535  33.315  11.286
49570W        W14555  29.728  11.376   1.266
49571W        W14556  24.813  44.471  11.516
49572W        W14557   5.876  13.239   0.517
49573W        W14558  23.569  16.706   4.086
49574W        W14559  10.355   7.203   1.777
49575W        W14560  16.239   3.754  13.296
49576W        W14561  44.875  13.272   3.107
49577W        W14562  42.810  14.800  12.071
49578W        W14563   7.188  22.684   4.045
49579W        W14564   2.395  34.507  12.736
49580W        W14565  44.570   9.848  14.895
49581W        W14566   7.859  38.751  14.232
49582W        W14567  15.540  17.099   1.877
49583W        W14568  19.907   8.751  10.075
49584W        W14569  35.594  12.346   4.108
49585W        W14570   3.265  23.684  14.764
49586W        W14571  42.057  24.147   3.578
49587W        W14572  35.368  40.410  14.792
49588W        W14573  40.542  41.055   1.893
49589W        W14574  28.426  19.336   1.313
49590W        W14575  15.783  14.628   0.005
49591W        W14576  14.791  19.242  13.060
49592W        W14577  38.894   2.015  11.702
49593W        W14578  28.646   5.913  13.590
49594W        W14579  26.023  29.909   4.030
49595W        W14580  15.427  16.561  12.407
49596W        W14581  34.486  22.624   4.244
49597W        W14582  20.975  11.219   0.627
49598W        W14583  39.100  20.338   0.488
49599W        W14584  25.438  44.590  14.432
49600W        W14585  18.762   4.518   1.655
49601W        W14586  43.702   4.748   1.905
49602W        W14587   0.858  22.469   0.966
49603W        W14588  44.672  20.598  10.738
49604W        W14589   2.400   8.048  13.344
49605W        W14590  35.187  40.858  13.922
49606W        W14591   4.413  20.205   2.192
49607W        W14592  20.731   0.848   1.723
49608W        W14593   4.482   3.378  10.650
49609W        W14594   3.419  25.491  14.364
49610W        W14595  38.083  28.161   1.942
49611W        W14596   7.769  27.861  10.422
49612W        W14597  12.424  20.528   0.249
49613W        W14598  35.330   0.298   4.701
49614W        W14599  26.238  31.633  11.220
49615W        W14600  44.181  32.814   1.229
49616W        W14601   3.268   0.946   4.625
49617W        W14602  35.762  16.246  11.167
49618W        W14603  41.759  11.131  12.409
49619W        W14604  21.515  19.652  13.960
49620W        W14605   3.427  32.553   0.321
49621W        W14606  10.815   3.221  14.450
49622W        W14607  13.439   2.285  11.009
49623W        W14608  27.048  30.564  12.157
49624W        W14609  29.731  19.175   4.689
49625W        W14610   1.365  36.204   0.412
49626W        W14611  39.274  36.853   0.406
49627W        W14612  15.782  27.610  14.516
49628W        W14613  37.122   4.391   0.742
49629W        W14614   0.275  16.318   3.163
49630W        W14615  10.458  13.662   0.377
49631W        W14616  32.086  22.549   3.854
49632W        W14617   4.411  15.590  14.510
49633W        W14618  36.360  41.836   3.889
49634W        W14619  20.204   8.965   0.792
49635W        W14620   6.760   1.567  12.535
49636W        W14621  17.745  36.318   1.205
49637W        W14622   7.428  14.690   3.549
49638W        W14623  13.176  18.950  11.997
49639W        W14624  31.503  13.571  14.987
49640W        W14625  29.833  28.520  11.179
49641W        W14626  12.181  33.640   1.446
49642W        W14627  28.043   2.514  12.999
49643W        W14628  10.258   9.803   0.761
49644W        W14629  43.498  35.793   0.372
49645W        W14630  15.112  33.457  11.546
49646W        W14631  30.184   4.035  12.047
49647W        W14632  20.535  18.656  14.532
49648W        W14633   4.797  16.542   1.459
49649W        W14634   9.603  36.166   3.596
49650W        W14635  41.839  12.132   1.592
49651W        W14636  20.035  27.445   2.347
49652W        W14637  10.199  11.217  14.916
49653W        W14638  13.833  25.206  14.132
49654W        W14639  20.345  33.505   0.000
49655W        W14640  40.824  22.130  11.839
49656W        W14641   0.402  42.228  14.978
49657W        W14642   2.972  13.561  11.982
49658W        W14643  12.740  41.755  12.494
49659W        W14644  43.819  42.220  12.364
49660W        W14645  33.658  34.909  14.773
49661W        W14646  34.463  10.748   1.865
49662W        W14647  16.482  35.859  12.141
49663W        W14648   3.037  29.642  13.413
49664W        W14649  37.783  10.804  13.784
49665W        W14650  44.520  24.942  14.964
49666W        W14651   6.188  12.797   4.600
49667W        W14652  13.642  27.643  13.827
49668W        W14653  35.568  44.260  14.594
49669W        W14654  22.217  32.987  13.688
49670W        W14655  19.623  16.170  13.099
49671W        W14656  23.164  17.685  12.974
49672W        W14657  23.965   1.824  13.485
49673W        W14658  43.742   0.482   1.789
49674W        W14659  40.331  11.598   4.904
49675W        W14660  25.902  36.482  11.619
49676W        W14661   1.777  42.042  12.407
49677W        W14662  41.996   1.326  11.651
49678W        W14663  28.717  28.529  11.681
49679W        W14664  25.218  19.959   2.674
49680W        W14665  31.281  36.487  14.859
49681W        W14666  39.973  44.402   1.691
49682W        W14667  20.047  36.061  11.097
49683W        W14668   9.696  29.612  11.417
49684W        W14669   3.803   3.253   4.580
49685W        W14670  19.506   5.392   2.228
49686W        W14671  20.540  18.259   4.556
49687W        W14672  42.993  31.489  13.823
49688W        W14673  28.621  28.173   1.160
49689W        W14674  16.811  34.867  12.351
49690W        W14675  14.337  17.505   3.631
49691W        W14676  17.879  25.964   0.297
49692W        W14677  22.539  38.247   1.240
49693W        W14678  42.024  44.322   4.206
49694W        W14679  29.483  39.947   0.344
49695W        W14680  20.836  42.100  11.056
49696W        W14681  24.985  29.047  10.619
49697W        W14682  19.056   0.477  12.450
49698W        W14683  15.600  10.801  12.054
49699W        W14684  44.204  40.854   4.073
49700W        W14685   1.738  44.934   0.781
49701W        W14686   0.889  34.142   1.178
49702W        W14687   0.525  35.178  13.616
49703W        W14688  38.555  37.779  13.829
49704W        W14689  10.628  27.194   2.731
49705W        W14690   7.871  18.466   2.851
49706W        W14691  23.555  21.233  11.207
49707W        W14692  30.678  13.162  12.389
49708W        W14693   8.428  10.736   4.924
49709W        W14694  41.382   5.452   2.758
49710W        W14695   5.285  44.198  14.101
49711W        W14696   1.086  33.427   0.372
49712W        W14697   7.596  37.360   1.418
49713W        W14698  22.121  15.554   3.274
49714W        W14699   1.238   7.245   0.787
49715W        W14700  25.483   7.726   1.359
49716W        W14701  22.731  18.710   4.156
49717W        W14702  21.268  38.093  13.341
49718W        W14703  34.388  25.085   2.228
49719W        W14704  18.042  15.622   3.179
49720W        W14705  11.094   5.753  14.331
49721W        W14706  14.695  10.701  11.199
49722W        W14707  34.496  38.585   3.349
49723W        W14708  17.717  28.976  11.042
49724W        W14709  17.912   1.440   1.647
49725W        W14710  26.169  38.924   4.096
49726W        W14711  32.491  11.473  13.085
49727W        W14712  43.320  38.552   2.172
49728W        W14713  21.730   5.468   4.545
49729W        W14714   1.425  13.263  10.840
49730W        W14715  10.115  44.300   1.589
49731W        W14716  11.231  30.978  11.591
49732W        W14717  41.969  36.943  12.372
49733W        W14718  24.009  23.727  12.586
49734W        W14719   0.392  33.065  12.098
49735W        W14720  23.668  20.343   0.962
49736W        W14721  18.275  42.033   3.187
49737W        W14722   3.846  27.602   4.499
49738W        W14723   4.318  25.648  13.896
49739W        W14724  13.408  35.476   0.832
49740W        W14725  14.694   3.334  11.101
49741W        W14726  35.666  41.683   3.345
49742W        W14727  23.045  20.200   1.409
49743W        W14728  32.319   5.757  11.562
49744W        W14729   3.300  43.761  14.753
49745W        W14730  35.587  33.223   3.307
49746W        W14731  30.523   8.432  14.244
49747W        W14732  21.718  35.025   2.865
49748W        W14733  30.019  40.064  11.098
49749W        W14734  13.330  18.232   2.182
49750W        W14735  42.921  40.775   1.800
49751W        W14736   4.578  24.242  11.213
49752W        W14737  38.123  35.569  12.048
49753W        W14738  23.484  38.918  14.563
49754W        W14739  17.201  25.409   1.739
49755W        W14740  34.603  20.268   1.757
49756W        W14741  15.077  17.800   2.683
49757W        W14742  13.632  37.940  14.028
49758W        W14743  18.144   4.128   1.222
49759W        W14744  15.902  13.925  12.905
49760W        W14745   7.201  13.848  11.562
49761W        W14746  26.032  23.697  10.613
49762W        W14747  22.626   4.068  12.978
49763W        W14748  35.084  23.648  13.425
49764W        W14749   8.083  14.828  13.448
49765W        W14750  26.438  44.219   0.487
49766W        W14751  43.017  36.116   9.710
49767W        W14752  28.461  35.941  11.964
49768W        W14753  32.243   9.597   4.969
49769W        W14754  21.456  35.494  12.929
49770W        W14755   8.788   1.276  12.436
49771W        W14756  30.205  31.116   4.164
49772W        W14757  26.960  24.031   0.233
49773W        W14758   2.627  44.611  13.334
49774W        W14759  41.841  24.001  13.026
49775W        W14760   2.906  15.994  12.883
49776W        W14761  38.158   9.674  14.932
49777W        W14762  43.438  11.428   1.107
49778W        W14763   5.684  13.038   3.716
49779W        W14764  41.055  12.381  13.907
49780W        W14765  22.683  16.019   0.449
49781W        W14766   6.921   2.505   1.404
49782W        W14767  25.171  18.626  11.578
49783W        W14768   5.348  18.121   4.027
49784W        W14769  17.316  32.939   2.891
49785W        W14770  42.446   0.319   1.741
49786W        W14771  36.549  32.185  10.030
49787W        W14772   7.153  40.278   1.242
49788W        W14773   5.478   0.784  11.228
49789W        W14774  24.104  18.045   4.157
49790W        W14775  13.660   7.342  14.260
49791W        W14776   9.838  42.300  12.607
49792W        W14777  12.471  39.145   4.016
49793W        W14778  40.358   4.397  13.878
49794W        W14779   9.503   7.231  14.966
49795W        W14780   4.626  24.771  14.521
49796W        W14781   2.882   6.485  12.426
49797W        W14782   3.729  15.759  13.327
49798W        W14783   6.311  18.425   0.706
49799W        W14784  32.589  39.785   3.775
49800W        W14785   8.669  38.454   1.324
49801W        W14786  15.190  40.536   1.186
49802W        W14787   7.832   3.833   3.392
49803W        W14788   7.269   0.220  14.537
49804W        W14789  29.469  43.537  13.794
49805W        W14790  22.311  18.063  14.714
49806W        W14791  39.519  34.112  14.122
49807W        W14792   6.141   9.803   2.192
49808W        W14793  43.939  40.320  13.853
49809W        W14794  25.621  21.123   2.936
49810W        W14795  19.290  10.738   4.328
49811W        W14796  13.743   1.383   4.042
49812W        W14797  25.563  44.379   3.683
49813W        W14798  34.606  41.262   1.866
49814W        W14799  32.381  34.414   4.079
49815W        W14800   5.935   0.854   2.447
49816W        W14801   0.723  10.020  10.274
49817W        W14802  13.776  38.763   0.526
49818W        W14803  29.948  35.689  13.521
49819W        W14804  25.677  22.298  12.910
49820W        W14805  11.833  15.390   4.739
49821W        W14806  19.557  32.197   0.298
49822W        W14807   6.650  26.987   2.944
49823W        W14808  24.738  18.538  13.948
49824W        W14809  25.019  14.106   2.147
49825W        W14810  38.561  22.057  13.330
49826W        W14811  39.332  13.532  13.791
49827W        W14812  39.579  16.781   2.744
49828W        W14813  36.206  35.367  13.565
49829W        W14814  23.015  40.423   4.433
49830W        W14815  11.479  28.756  12.467
49831W        W14816  39.488  39.652   5.079
49832W        W14817  40.081  42.884  13.740
49833W        W14818   9.888   2.488  13.439
49834W        W14819   8.144  37.897  11.576
49835W        W14820  36.915  13.342   0.032
49836W        W14821   6.531  20.056  12.577
49837W        W14822  32.858   1.316   3.341
49838W        W14823  36.321  31.073  10.680
49839W        W14824  22.633  41.195  14.227
49840W        W14825  38.798  20.511  11.626
49841W        W14826   3.103  16.915  14.925
49842W        W14827  38.988   6.593  10.651
49843W        W14828  31.628   6.788  13.340
49844W        W14829  35.202  13.700  12.355
49845W        W14830  22.521  39.948   3.890
49846W        W14831  34.065  25.610   2.324
49847W        W14832   1.293  10.157  13.318
49848W        W14833  44.168  15.779  11.667
49849W        W14834  27.191   9.388   0.370
49850W        W14835   5.856  18.758   0.706
49851W        W14836  26.687  42.989   2.804
49852W        W14837  35.219   2.250  11.665
49853W        W14838  27.426  28.483   1.935
49854W        W14839  20.142  39.614   3.388
49855W        W14840   4.289  33.609  12.975
49856W        W14841  22.971  13.322  13.911
49857W        W14842  38.847  17.341   4.679
49858W        W14843  33.631  42.772  13.316
49859W        W14844  43.732   7.446   2.913
49860W        W14845  18.077  37.944   4.480
49861W        W14846  40.805  25.299  14.410
49862W        W14847  39.563  12.824   2.809
49863W        W14848  21.675  43.258   1.793
49864W        W14849   8.799  36.421  10.415
49865W        W14850  12.785  44.578   2.267
49866W        W14851  17.320   4.444  14.751
49867W        W14852  40.178   0.936  13.275
49868W        W14853   2.768   0.920  12.088
49869W        W14854  44.440  41.855   3.706
49870W        W14855  24.321  44.474  10.818
49871W        W14856   2.232  25.255  12.018
49872W        W14857  25.102  27.900   5.189
49873W        W14858  28.930  12.883  13.486
49874W        W14859  36.498   2.405   4.711
49875W        W14860   6.736  38.327   3.341
49876W        W14861  44.565   9.429   4.096
49877W        W14862  14.188  35.816   2.228
49878W        W14863   5.009  19.572   2.217
49879W        W14864  37.575   7.850   1.369
49880W        W14865  19.480  31.018   1.365
49881W        W14866   8.298   1.644  11.025
49882W        W14867  24.768  20.784  10.872
49883W        W14868  36.589  24.589  13.069
49884W        W14869  24.057  11.772  12.667
49885W        W14870   8.602  16.648  13.380
49886W        W14871  18.350  14.422  12.169
49887W        W14872   1.913   8.293  13.151
49888W        W14873  21.282  13.908  12.846
49889W        W14874   1.936  44.036  13.522
49890W        W14875  30.086  44.648   0.296
49891W        W14876  37.964  33.918  11.436
49892W        W14877  28.203  33.902  11.473
49893W        W14878  17.722   6.314  12.640
49894W        W14879  21.313  11.700   0.367
49895W        W14880  22.791  23.008   4.626
49896W        W14881  41.029  43.952   3.813
49897W        W14882  16.302  13.787   0.523
49898W        W14883  28.601   3.895   2.832
49899W        W14884  36.509  27.820   3.687
49900W        W14885  25.091  16.832   4.768
49901W        W14886  30.154   4.857  12.438
49902W        W14887  40.653  18.495  12.533
49903W        W14888   2.301   8.094  11.684
49904W        W14889   6.946  34.186  13.328
49905W        W14890  17.219  42.968  10.055
49906W        W14891   9.879  41.754  10.973
49907W        W14892  27.567  19.664  11.756
49908W        W14893  29.056  12.948   1.598
49909W        W14894  35.729  41.481   1.076
49910W        W14895   4.838  27.937   3.391
49911W        W14896  40.216  17.922   2.813
49912W        W14897  12.943  28.459  10.307
49913W        W14898  42.739  36.505   1.646
49914W        W14899  32.073   4.569   4.500
49915W        W14900  34.014  35.656   3.318
49916W        W14901  37.606   7.867  14.908
49917W        W14902  11.178  40.585  12.880
49918W        W14903  35.653  17.174   4.217
49919W        W14904  40.549  40.481   0.498
49920W        W14905  15.786  42.274   3.171
49921W        W14906  11.702  34.861  12.030
49922W        W14907  43.999  18.973  12.617
49923W        W14908  15.563  22.990   0.682
49924W        W14909  10.649  34.488   4.665
49925W        W14910   9.776  38.847   0.339
49926W        W14911  40.270   7.695   2.854
49927W        W14912   2.290  33.469   3.642
49928W        W14913  13.394  28.717   1.656
49929W        W14914  19.184   0.527  13.371
49930W        W14915  18.256  19.563   1.327
49931W        W14916  19.921   3.383   1.278
49932W        W14917  30.399  31.829   9.949
49933W        W14918  14.133  26.491   2.410
49934W        W14919  36.578   9.745  14.924
49935W        W14920  14.792  29.486  11.806
49936W        W14921  34.992   3.480   0.363
49937W        W14922  37.718  33.789  11.963
49938W        W14923   4.244  40.905  13.904
49939W        W14924  26.578  38.560  10.654
49940W        W14925   1.586  13.754   1.683
49941W        W14926  34.958  12.091   3.148
49942W        W14927  18.615  37.420  11.999
49943W        W14928  10.828  20.099  12.129
49944W        W14929  40.793   1.329   0.182
49945W        W14930  28.452  37.134  12.486
49946W        W14931  32.631  11.407   0.202
49947W        W14932  21.590  11.742  12.441
49948W        W14933  25.847  32.050  14.049
49949W        W14934   9.868   9.889   0.449
49950W        W14935  18.109  44.515   2.347
49951W        W14936  10.218  20.538  11.571
49952W        W14937  17.692  26.724   0.775
49953W        W14938   5.517  30.641   5.085
49954W        W14939   3.784  28.144  11.569
49955W        W14940   2.712  40.334   3.572
49956W        W14941  43.471  26.275   2.218
49957W        W14942  30.384  18.349  11.528
49958W        W14943  23.910  36.347  12.932
49959W        W14944  43.537  14.630   1.966
49960W        W14945  39.387  31.176  11.619
49961W        W14946   9.862   8.239  11.151
49962W        W14947  44.011   9.800   4.342
49963W        W14948  12.284  27.536   4.485
49964W        W14949   3.319   6.436  14.825
49965W        W14950   5.186  43.488  13.556
49966W        W14951  25.336  17.264  12.489
49967W        W14952  20.260   2.775   3.012
49968W        W14953  26.688  32.435   4.967
49969W        W14954  20.776  17.004   2.644
49970W        W14955  33.562  19.214   1.779
49971W        W14956  22.487  10.911  12.988
49972W        W14957  40.275  35.642  12.080
49973W        W14958  22.714  25.508  14.245
49974W        W14959  28.980  30.053   3.713
49975W        W14960  19.843  16.309   3.652
49976W        W14961  17.520  10.065  14.381
49977W        W14962  36.622  24.010   1.475
49978W        W14963  20.007  37.446  12.099
49979W        W14964  44.980   7.687  11.381
49980W        W14965   9.306  14.833  12.381
49981W        W14966  16.472  30.155  14.380
49982W        W14967  29.433  26.252   3.707
49983W        W14968   9.342   8.401   3.049
49984W        W14969  41.388  41.560  12.942
49985W        W14970  38.382  24.231   0.810
49986W        W14971  27.579  40.918   1.538
49987W        W14972  11.286  39.673  11.059
49988W        W14973  34.167  37.468  10.812
49989W        W14974  44.500   5.393   1.235
49990W        W14975  11.243  38.027  12.993
49991W        W14976   4.484  35.972  14.991
49992W        W14977  31.566  35.554  11.978
49993W        W14978  38.785  24.198   3.195
49994W        W14979   9.977   7.658  11.663
49995W        W14980   8.198   4.704   1.428
49996W        W14981  30.507  36.544  14.068
49997W        W14982  29.997  33.684   0.869
49998W        W14983  29.681   0.658   2.960
49999W        W14984  29.933  20.983  14.702
50000W        W14985  37.941   8.720   3.241
50001W        W14986   8.047  19.568  14.964
50002W        W14987  11.528   9.710   0.790
50003W        W14988  23.041  10.924  11.971
50004W        W14989  10.382  35.637  12.920
50005W        W14990  31.898   8.405   4.028
50006W        W14991   8.863  10.669  11.452
50007W        W14992  19.079   6.674  14.948
50008W        W14993  41.531  20.218   2.292
50009W        W14994  31.788  44.419  11.202
50010W        W14995  16.634  31.109  14.432
50011W        W14996   0.946  12.158   3.163
50012W        W14997  28.459  10.123  14.775
50013W        W14998  36.496  40.338   0.743
50014W        W14999  20.326  38.574   3.343
50015W        W15000  34.816  25.448  13.941
50016W        W15001  40.481   8.722   3.184
50017W        W15002  19.307   9.746  10.749
50018W        W15003  30.032   5.912   3.870
50019W        W15004  33.113  42.996   1.475
50020W        W15005  22.523  15.746   2.406
50021W        W15006  14.647  44.930  14.380
50022W        W15007   6.407  36.507   3.663
50023W        W15008  19.138  37.474  11.918
50024W        W15009  33.075  39.182  10.941
50025W        W15010  32.002   9.861  10.178
50026W        W15011  40.551  23.987   3.714
50027W        W15012  19.135   4.328  11.406
50028W        W15013  39.013  15.151   0.374
50029W        W15014  27.649  43.446   1.214
50030W        W15015   9.902  12.882  12.138
50031W        W15016  23.942  24.999   4.564
50032W        W15017  26.461  39.547  13.949
50033W        W15018   5.755   2.701   0.607
50034W        W15019  19.234  40.405   1.199
50035W        W15020  30.419  11.395  14.947
50036W        W15021  33.542   7.007   5.420
50037W        W15022  23.937  44.651  14.847
50038W        W15023  42.673   9.160   4.858
50039W        W15024   0.867  20.840  14.834
50040W        W15025   7.302   3.347   5.076
50041W        W15026  25.133  24.427  13.057
50042W        W15027  30.215  39.349  10.686
50043W        W15028  39.366  24.315   2.035
50044W        W15029   1.761  10.051   1.912
50045W        W15030  40.319   8.867  11.638
50046W        W15031  37.363  43.967  10.889
50047W        W15032  18.951  28.544  10.849
50048W        W15033  13.783  14.178   5.071
50049W        W15034  40.809  32.353  12.936
50050W        W15035  30.363  10.726   3.824
50051W        W15036   9.254  18.240  12.998
50052W        W15037  11.789   8.804  13.935
50053W        W15038   5.426  23.996   4.211
50054W        W15039  31.984  41.503  14.778
50055W        W15040  37.337   0.502  13.986
50056W        W15041  35.926  37.547   3.071
50057W        W15042  29.530  30.149  13.008
50058W        W15043   7.019  41.880  11.667
50059W        W15044  31.398  11.080  11.553
50060W        W15045   4.921  40.137   4.204
50061W        W15046  26.510  35.154  11.518
50062W        W15047  32.100  29.223  11.008
50063W        W15048   4.071  32.904   2.532
50064W        W15049  14.190  16.217   1.843
50065W        W15050  34.164  36.601  13.010
50066W        W15051  33.090   5.566  12.613
50067W        W15052   8.130   8.764  14.093
50068W        W15053   7.896  42.899   4.825
50069W        W15054  13.658  19.550  11.657
50070W        W15055  36.946  16.183   0.057
50071W        W15056  42.230   5.847   0.281
50072W        W15057  24.692   1.358   3.281
50073W        W15058  19.590  32.910  13.842
50074W        W15059  11.174  27.473   1.379
50075W        W15060   4.824  39.554  13.956
50076W        W15061  40.615  15.250   3.193
50077W        W15062   8.421   2.231   0.184
50078W        W15063   1.872  27.698  14.288
50079W        W15064   0.258   0.845  13.423
50080W        W15065  37.350  35.990  14.898
50081W        W15066   1.055  22.078  13.536
50082W        W15067  16.177  19.927   4.709
50083W        W15068  44.649  43.029  14.644
50084W        W15069  29.001  26.566   0.895
50085W        W15070   5.500   9.716   0.268
50086W        W15071  37.210  40.938  11.163
50087W        W15072  37.646  25.297  11.974
50088W        W15073  26.611  30.867  11.056
50089W        W15074   7.921   9.774  10.882
50090W        W15075  21.747  43.319  13.521
50091W        W15076   8.776  34.538  13.247
50092W        W15077   6.810   5.725  14.915
50093W        W15078  42.502  44.238   4.008
50094W        W15079  38.785  18.854  11.083
50095W        W15080  43.071  39.556   3.662
50096W        W15081  43.795  24.133   1.868
50097W        W15082   1.502  40.953   4.680
50098W        W15083  22.664  34.900   0.441
50099W        W15084  44.877  20.328  14.862
50100W        W15085  27.086   9.297   2.881
50101W        W15086   0.437   6.878  13.630
50102W        W15087   7.248  27.632   3.855
50103W        W15088  11.884  32.858   3.345
50104W        W15089  20.747   4.842   3.738
50105W        W15090  24.096  43.436   4.554
50106W        W15091  27.954   2.854  11.598
50107W        W15092  35.540  24.102  14.773
50108W        W15093  20.331  14.816   1.857
50109W        W15094   9.065  12.791  11.180
50110W        W15095  36.352  11.855  10.116
50111W        W15096  36.994   2.516  14.895
50112W        W15097  21.721  33.287   0.098
50113W        W15098  34.533   1.423  12.517
50114W        W15099  34.076  15.744   4.112
50115W        W15100  15.030  42.043   4.477
50116W        W15101  38.812  27.670   3.669
50117W        W15102   9.915  36.842   0.357
50118W        W15103  37.332  35.880   0.985
50119W        W15104   6.393  13.259  12.511
50120W        W15105   8.472  22.960  14.026
50121W        W15106  44.905  14.995   4.721
50122W        W15107   3.210  17.625  12.689
50123W        W15108  22.184   5.168  12.443
50124W        W15109  23.781  13.794  11.289
50125W        W15110  14.544   0.808  11.547
50126W        W15111   0.364  12.238  13.572
50127W        W15112  17.001  20.172  11.052
50128W        W15113  33.143   6.181  14.014
50129W        W15114  27.148  14.759  13.947
50130W        W15115  11.276  43.698  14.279
50131W        W15116  34.358  31.965   4.566
50132W        W15117  42.338  30.452   0.096
50133W        W15118  30.664  11.879  14.401
50134W        W15119  17.628  42.809  12.340
50135W        W15120  30.510  23.671  14.450
50136W        W15121  36.449  25.688   0.873
50137W        W15122  10.181  32.960   0.331
50138W        W15123  18.159  17.436  12.452
50139W        W15124  43.511  11.681  13.497
50140W        W15125  26.166  19.618  11.015
50141W        W15126  15.533  34.809   1.878
50142W        W15127  38.852  24.807   4.161
50143W        W15128  33.002  36.668  14.877
50144W        W15129   2.452  16.894   2.672
50145W        W15130  21.077  34.613   0.022
50146W        W15131  28.616   4.421   2.855
50147W        W15132  34.633  16.118  13.616
50148W        W15133  15.973  12.091  14.923
50149W        W15134  38.616  40.478   0.060
50150W        W15135  44.283  42.352   3.772
50151W        W15136  39.303  30.025   0.518
50152W        W15137   6.436  37.786   4.271
50153W        W15138   4.825  21.717   3.949
50154W        W15139  16.111  19.041   0.410
50155W        W15140  19.759  14.973  14.812
50156W        W15141  20.513  14.094  12.069
50157W        W15142  19.686  18.014   4.836
50158W        W15143   9.867  11.776  11.182
50159W        W15144  18.103  20.141   0.823
50160W        W15145  37.950  40.718   1.258
50161W        W15146  30.964  14.370   2.809
50162W        W15147  37.946  44.775   1.954
50163W        W15148  22.201  14.303  10.661
50164W        W15149  31.788   4.977  14.836
50165W        W15150  25.647   1.744  13.955
50166W        W15151  36.479  16.244  14.295
50167W        W15152  17.745  38.801   4.183
50168W        W15153  29.640  10.344   1.352
50169W        W15154  43.787  23.603   4.677
50170W        W15155  31.608   0.170   4.557
50171W        W15156  39.304  14.592  14.905
50172W        W15157  21.601  34.578   1.866
50173W        W15158  38.809  11.723   1.953
50174W        W15159  22.536  38.051   1.738
50175W        W15160  39.560  36.978   1.921
50176W        W15161  27.399  40.255   3.347
50177W        W15162  33.541   7.367  13.744
50178W        W15163  21.558  15.274  11.108
50179W        W15164  42.529  39.365   2.898
50180W        W15165  20.457  10.653  12.135
50181W        W15166  10.825   1.289  12.844
50182W        W15167  11.441  26.537  14.955
50183W        W15168  34.963   0.001   3.445
50184W        W15169   8.134   2.720  14.019
50185W        W15170  43.396   2.200   2.016
50186W        W15171  41.488   8.188  14.324
50187W        W15172  39.381   5.139   2.137
50188W        W15173   7.483  32.102   4.540
50189W        W15174   9.795  35.162  14.234
50190W        W15175  14.082  39.046   2.883
50191W        W15176  14.224  30.475  12.427
50192W        W15177  33.948  11.701   4.249
50193W        W15178  38.835  36.950   4.059
50194W        W15179   4.291  11.856   4.752
50195W        W15180  30.939  15.144  10.444
50196W        W15181  28.402  33.479   0.776
50197W        W15182  28.953  39.921   0.400
50198W        W15183  20.078  25.154  14.298
50199W        W15184  13.656  41.409   0.225
50200W        W15185  44.739   3.013   3.980
50201W        W15186  20.069  37.861  12.962
50202W        W15187  15.877  17.393   2.152
50203W        W15188   0.519   7.772   0.080
50204W        W15189  10.488  25.500   3.062
50205W        W15190  38.201  18.626   1.785
50206W        W15191   4.983  27.496   3.803
50207W        W15192  20.069  25.452   1.978
50208W        W15193   5.519  41.288   4.158
50209W        W15194  36.516  44.772   3.513
50210W        W15195  41.966  41.840  13.571
50211W        W15196  19.113  27.981   1.835
50212W        W15197   8.673  11.865  14.944
50213W        W15198  38.769  36.474  12.465
50214W        W15199  37.465  26.154  14.247
50215W        W15200  36.768  23.691   0.763
50216W        W15201   2.476  41.159  13.063
50217W        W15202  41.842  35.305   1.330
50218W        W15203   0.191   9.308   3.289
50219W        W15204  14.627  13.132   4.318
50220W        W15205  44.314   3.672   2.322
50221W        W15206  16.381  33.077  12.099
50222W        W15207  26.881  43.388   0.744
50223W        W15208   4.896  12.718   0.881
50224W        W15209  17.686  11.661   2.923
50225W        W15210  43.880  19.815  12.787
50226W        W15211  37.803  20.507  11.651
50227W        W15212  26.230   0.634   3.515
50228W        W15213  36.984  17.513   4.451
50229W        W15214  30.645  43.182  12.012
50230W        W15215  26.402   0.215  13.836
50231W        W15216  20.283  33.348   4.206
50232W        W15217  29.873  37.857   3.844
50233W        W15218  37.455  20.975  11.464
50234W        W15219  32.711  44.808  14.826
50235W        W15220   5.836  22.428  12.795
50236W        W15221  12.657  44.773  12.482
50237W        W15222  26.233   4.934  13.377
50238W        W15223  31.902  10.730  10.493
50239W        W15224  10.653   1.779   1.596
50240W        W15225  36.640  16.648   4.382
50241W        W15226   6.755   6.857  14.347
50242W        W15227  38.883  32.592  13.968
50243W        W15228  31.897  42.369   0.835
50244W        W15229  30.406  10.308  14.049
50245W        W15230  35.950  29.025  14.874
50246W        W15231  44.378  30.948   2.839
50247W        W15232   2.548   3.840   3.115
50248W        W15233  44.901  39.942   1.792
50249W        W15234  39.105  12.659  10.922
50250W        W15235  25.616   1.223  13.900
50251W        W15236  44.014  42.670   1.697
50252W        W15237   0.608   5.489  11.078
50253W        W15238  13.838   3.893  13.105
50254W        W15239  41.504  34.913   1.699
50255W        W15240  26.921  19.212   3.248
50256W        W15241  18.613   3.127   1.618
50257W        W15242  21.011   2.290  11.893
50258W        W15243  26.808   7.245  13.607
50259W        W15244  28.004  14.577   3.357
50260W        W15245  44.377  39.373  13.309
50261W        W15246  28.905   6.529   4.540
50262W        W15247  20.284   8.180   2.276
50263W        W15248  42.037   5.767   3.293
50264W        W15249  11.072  14.573   3.520
50265W        W15250  19.659  11.616   1.043
50266W        W15251  34.330  18.964  14.095
50267W        W15252  43.948   3.321   4.883
50268W        W15253   1.005  26.801   9.836
50269W        W15254   5.838  30.430   0.676
50270W        W15255   1.241  31.900   0.790
50271W        W15256   7.271  11.567  13.872
50272W        W15257   2.220  44.321   3.705
50273W        W15258  24.974  27.724   2.971
50274W        W15259  41.380  14.261  12.506
50275W        W15260  23.547  14.916   2.774
50276W        W15261  20.281  13.032  11.868
50277W        W15262   3.990  33.200  11.901
50278W        W15263  43.986   6.158   3.247
50279W        W15264  34.260  36.825   2.622
50280W        W15265  20.303  28.583   0.542
50281W        W15266  15.682  32.227   3.697
50282W        W15267  39.549  17.343  10.646
50283W        W15268   1.599  44.417  13.555
50284W        W15269  35.335   6.919  14.512
50285W        W15270  20.826  37.413   1.418
50286W        W15271  32.936  42.904  14.510
50287W        W15272  27.164  16.490   4.425
50288W        W15273  31.918  20.562   3.619
50289W        W15274  12.529   7.338  11.946
50290W        W15275  41.962  17.735   3.366
50291W        W15276  15.348   4.499  11.487
50292W        W15277  13.065   3.793   2.202
50293W        W15278   1.777  21.352  13.782
50294W        W15279  35.438  31.846  12.095
50295W        W15280  42.385  11.590   0.972
50296W        W15281  32.391  34.011   1.182
50297W        W15282  29.552  24.695  14.373
50298W        W15283  23.007  14.877   0.496
50299W        W15284  30.385   7.600  13.986
50300W        W15285  15.846  28.957  10.816
50301W        W15286  37.344  42.960   3.708
50302W        W15287  29.185  43.664   4.869
50303W        W15288   8.739   4.321  10.722
50304W        W15289  17.328  18.323  14.199
50305W        W15290  30.467   1.672  12.507
50306W        W15291  38.946  13.874  14.755
50307W        W15292  31.358   6.141   1.603
50308W        W15293  28.555  21.995   4.641
50309W        W15294   5.334  39.833   4.191
50310W        W15295  11.483  12.955   0.841
50311W        W15296  13.529  44.984   2.857
50312W        W15297  23.171  39.247  13.812
50313W        W15298   6.820  10.011   2.645
50314W        W15299   6.748  18.881  13.698
50315W        W15300  10.827   5.080  14.935
50316W        W15301  23.221  27.644   1.751
50317W        W15302  20.197   9.432   1.470
50318W        W15303  37.502  30.439  10.462
50319W        W15304  11.275  42.737  11.007
50320W        W15305  35.477   8.091  12.585
50321W        W15306  28.178  15.340  14.410
50322W        W15307   9.840  13.826  14.255
50323W        W15308  32.158   2.243   4.273
50324W        W15309  30.013  13.125   4.089
50325W        W15310  15.409  40.078   1.324
50326W        W15311  40.496  37.019  10.744
50327W        W15312  40.837   7.984  13.304
50328W        W15313  21.706  27.163   1.818
50329W        W15314  40.258   9.174   3.398
50330W        W15315  39.601  38.506   1.210
50331W        W15316   4.584  16.185  13.815
50332W        W15317  13.534  42.463   3.783
50333W        W15318   0.514  21.468   0.959
50334W        W15319  40.963  27.184  11.011
50335W        W15320  44.804  26.841   2.912
50336W        W15321   6.196  40.536   1.321
50337W        W15322   3.690  17.195   3.230
50338W        W15323  41.515  37.434   2.226
50339W        W15324   0.715  43.107   2.845
50340W        W15325   0.005  33.056   3.793
50341W        W15326  23.038  10.342   0.873
50342W        W15327  31.859   1.756   3.651
50343W        W15328  35.537  30.174   3.471
50344W        W15329  39.431  28.553   3.865
50345W        W15330  42.141   3.473   4.163
50346W        W15331  32.529  20.459   0.713
50347W        W15332   4.727   0.509   0.350
50348W        W15333  36.733  40.573   3.739
50349W        W15334  43.464  25.754   2.172
50350W        W15335  26.584  30.820  12.281
50351W        W15336   1.911  23.978   3.262
50352W        W15337   2.171  27.648  12.877
50353W        W15338   0.040  41.908  13.323
50354W        W15339  40.741   5.866   0.411
50355W        W15340  28.185  16.934   0.259
50356W        W15341  16.182  13.257  14.589
50357W        W15342  44.391  41.281  10.178
50358W        W15343  14.999  27.401   1.421
50359W        W15344  21.465   4.724   4.271
50360W        W15345   5.433  29.685   3.171
50361W        W15346   5.226  26.043   3.304
50362W        W15347  26.009  33.092  14.867
50363W        W15348  17.706  33.481  14.866
50364W        W15349  14.211  37.040   0.259
50365W        W15350  24.027  39.452  14.052
50366W        W15351   5.036  31.894   4.098
50367W        W15352  36.401  37.048   4.896
50368W        W15353   1.513   0.546   4.306
50369W        W15354  21.181  43.507   1.845
50370W        W15355  35.871  14.043   1.238
50371W        W15356  19.539  34.473  12.495
50372W        W15357  32.224   7.932   4.566
50373W        W15358  36.824   5.782   1.838
50374W        W15359  19.992  26.771  13.205
50375W        W15360   6.290  14.667   4.143
50376W        W15361  27.564  18.641  11.563
50377W        W15362  12.676  29.755  12.647
50378W        W15363  11.685  28.397  10.675
50379W        W15364   6.799  25.935  12.373
50380W        W15365   8.186  44.890  14.853
50381W        W15366  42.052  19.171   5.428
50382W        W15367  19.239  16.138   1.011
50383W        W15368   5.880  38.602   0.315
50384W        W15369  10.013  43.432  11.221
50385W        W15370  20.614  10.808  13.001
50386W        W15371  34.513   6.567   1.359
50387W        W15372   6.780  21.766  11.544
50388W        W15373  30.489   3.001   5.200
50389W        W15374  37.052  31.409  14.294
50390W        W15375   9.991   2.917  13.703
50391W        W15376   3.780  44.737  10.511
50392W        W15377  37.999  29.165   1.146
50393W        W15378  20.736  30.323  12.389
50394W        W15379  25.308  42.566   0.210
50395W        W15380  11.014  41.256   0.216
50396W        W15381  29.540  42.041   0.117
50397W        W15382   2.947   1.867  14.450
50398W        W15383  25.976   5.373  13.412
50399W        W15384  20.699  35.562   2.664
50400W        W15385  20.614  32.719   4.140
50401W        W15386  18.644  10.379   2.508
50402W        W15387  40.864  13.292   0.933
50403W        W15388   7.657  43.016   3.507
50404W        W15389  18.104  25.228   3.196
50405W        W15390  21.813  19.075  13.616
50406W        W15391  22.084  30.174   5.065
50407W        W15392  13.689  31.246   2.395
50408W        W15393  30.921   6.511   3.078
50409W        W15394  39.800   3.666   2.212
50410W        W15395  18.854   6.808   4.969
50411W        W15396   5.798  37.982  12.394
50412W        W15397  31.009   3.787  11.409
50413W        W15398  22.750   9.183   0.299
50414W        W15399  12.675  30.140   0.436
50415W        W15400  25.680  44.510   0.905
50416W        W15401  27.695  27.884  11.115
50417W        W15402  30.011  15.563  13.854
50418W        W15403  15.137  38.530  12.374
50419W        W15404  39.921  22.122   2.118
50420W        W15405  24.760  31.812  14.291
50421W        W15406  30.069  29.960   3.588
50422W        W15407  32.990   1.303  13.382
50423W        W15408   6.875  16.606  10.963
50424W        W15409  17.294  39.296  13.956
50425W        W15410  14.734   9.873   5.202
50426W        W15411   8.654  35.339   3.315
50427W        W15412  28.865  17.581   0.491
50428W        W15413  16.648  30.138   1.367
50429W        W15414  18.784  40.054   3.973
50430W        W15415  27.175  44.445   0.864
50431W        W15416  20.644  40.398  14.733
50432W        W15417  17.559   2.855   2.127
50433W        W15418  38.097  19.441   1.643
50434W        W15419  20.006   9.308  10.577
50435W        W15420  32.686  36.791  14.340
50436W        W15421  18.092  32.051  10.568
50437W        W15422  18.710   7.447   3.508
50438W        W15423  22.000  19.130   1.739
50439W        W15424   8.249  12.361  11.584
50440W        W15425  13.734  37.925   1.675
50441W        W15426   3.349  43.882  11.093
50442W        W15427  21.670  44.704   3.743
50443W        W15428  42.718  19.343   4.780
50444W        W15429  17.508  37.755  12.459
50445W        W15430  32.036  29.991  13.401
50446W        W15431  18.145   3.000   4.676
50447W        W15432  44.375  40.871  10.978
50448W        W15433  23.070  30.110   9.949
50449W        W15434  35.160  26.716  14.706
50450W        W15435  24.002  34.141  10.760
50451W        W15436  32.080  27.681   3.705
50452W        W15437  15.118  33.338  14.245
50453W        W15438  35.745  40.427   3.896
50454W        W15439  28.630  39.496  14.354
50455W        W15440  14.161  15.729   0.271
50456W        W15441   1.468  19.500   4.690
50457W        W15442  16.862  43.835  14.393
50458W        W15443  25.055  36.368   3.114
50459W        W15444   5.795  31.836   5.220
50460W        W15445  13.794   6.814   3.304
50461W        W15446  21.943  14.083   3.055
50462W        W15447  28.408   4.948  13.039
50463W        W15448  23.157  17.060   4.946
50464W        W15449  30.645  15.702   0.293
50465W        W15450  23.995  23.001  11.948
50466W        W15451  42.331   4.550  13.865
50467W        W15452  23.128  12.113   4.066
50468W        W15453  41.470  28.737   3.025
50469W        W15454  30.433  32.069   3.132
50470W        W15455  39.400   0.770   3.681
50471W        W15456   9.439  11.662  14.772
50472W        W15457  40.031  30.870   0.879
50473W        W15458   6.810   3.982  13.074
50474W        W15459  32.528  32.962  14.691
50475W        W15460  42.425  38.153   0.946
50476W        W15461  15.679  40.536  11.837
50477W        W15462   8.931   8.281   1.255
50478W        W15463   4.326  38.578   0.612
50479W        W15464   5.915   9.792  10.847
50480W        W15465   6.121   5.414   0.960
50481W        W15466  35.340  16.149  12.533
50482W        W15467  37.530  34.795  13.744
50483W        W15468  34.051  29.960   2.187
50484W        W15469  30.576  25.768   4.126
50485W        W15470   3.425   9.329  12.545
50486W        W15471  16.160  27.178   0.915
50487W        W15472  28.975  34.195   3.139
50488W        W15473  33.402  35.025  11.344
50489W        W15474  34.386   8.390   0.420
50490W        W15475  13.101  37.400   4.546
50491W        W15476  36.282  32.653   4.476
50492W        W15477  10.179  35.112   1.432
50493W        W15478  10.988  31.465  13.908
50494W        W15479  33.452  25.322  10.277
50495W        W15480  29.975  28.153   4.501
50496W        W15481  25.990   1.924   1.862
50497W        W15482   0.027  34.431   5.448
50498W        W15483  33.096  39.075  12.191
50499W        W15484  11.800  12.331  14.556
50500W        W15485  26.223   0.058   0.300
50501W        W15486   8.910  16.289  10.848
50502W        W15487  13.261  22.865   2.241
50503W        W15488  32.561  25.647  14.446
50504W        W15489  23.142   7.603  11.672
50505W        W15490  14.981  29.653   3.254
50506W        W15491  14.434   4.909   5.030
50507W        W15492  40.049   1.690  12.953
50508W        W15493  39.004  16.165   1.934
50509W        W15494  26.341   9.572   3.252
50510W        W15495  19.659  30.388   1.888
50511W        W15496  19.598  40.318   0.277
50512W        W15497   1.823  35.322  14.609
50513W        W15498  36.090   0.363  12.670
50514W        W15499   0.835   6.408  12.180
50515W        W15500  42.576  22.468  11.034
50516W        W15501   0.889  11.287  11.487
50517W        W15502  40.480  31.189  13.419
50518W        W15503  41.829   7.528   4.704
50519W        W15504  41.987   8.382   3.793
50520W        W15505  12.705  21.308   1.598
50521W        W15506  12.111   9.235  14.892
50522W        W15507   3.788  14.563   2.860
50523W        W15508  10.122  19.653   0.935
50524W        W15509  40.549  10.382   1.831
50525W        W15510  14.236  12.894   4.587
50526W        W15511  39.311  37.551   3.647
50527W        W15512  39.011   6.855   0.974
50528W        W15513  43.067   9.879  12.406
50529W        W15514  38.058   3.672  11.606
50530W        W15515  35.034  40.021   3.127
50531W        W15516  36.994  21.140   4.563
50532W        W15517  30.899  21.602   0.849
50533W        W15518   2.908   2.204  13.578
50534W        W15519  20.356   3.130  14.810
50535W        W15520   9.282  42.038   0.300
50536W        W15521  39.881  23.113   1.276
50537W        W15522  15.046  22.192  12.990
50538W        W15523  21.795  10.044  12.062
50539W        W15524  44.317  19.482   0.709
50540W        W15525  35.523  41.743  14.399
50541W        W15526  42.996  45.000  11.420
50542W        W15527  15.061  28.618  12.018
50543W        W15528  41.105  23.679  14.334
50544W        W15529  43.249  44.347   2.305
50545W        W15530  42.104  17.341   4.540
50546W        W15531  26.252  13.319  14.484
50547W        W15532  27.645   0.164  12.890
50548W        W15533  24.247  39.252   2.313
50549W        W15534  16.404   5.888  11.628
50550W        W15535   3.304  40.427  11.556
50551W        W15536  13.494   5.604  13.303
50552W        W15537  16.124   0.694   4.232
50553W        W15538  28.520  19.969  11.568
50554W        W15539   7.120  44.757  11.593
50555W        W15540  20.754  36.313   4.658
50556W        W15541  18.786   9.156  13.404
50557W        W15542  23.595   9.360  12.019
50558W        W15543   1.486  39.822  12.409
50559W        W15544  10.805  13.766  13.978
50560W        W15545  11.725  30.505  11.110
50561W        W15546  43.876  14.942  13.473
50562W        W15547  23.108  30.043   0.170
50563W        W15548  12.936  17.068   4.890
50564W        W15549  43.389  30.009  12.316
50565W        W15550   7.261   1.855  10.954
50566W        W15551  16.606  26.605  13.543
50567W        W15552  39.536  16.246  12.968
50568W        W15553  40.216  14.211  12.133
50569W        W15554   8.626  37.339   4.523
50570W        W15555  44.423  16.790  14.267
50571W        W15556   3.191   9.248  11.086
50572W        W15557  29.158  15.312   1.005
50573W        W15558  20.658   5.314  10.819
50574W        W15559  15.288  21.555   3.564
50575W        W15560  10.536   9.817   3.011
50576W        W15561   2.734   9.357  12.105
50577W        W15562  40.080   0.233  12.881
50578W        W15563  17.293   8.291  12.451
50579W        W15564  41.815  39.586   3.322
50580W        W15565  33.974   7.603   0.845
50581W        W15566  40.499  31.137   1.000
50582W        W15567  25.967  19.210  10.737
50583W        W15568  39.124  40.012  11.597
50584W        W15569  25.005  39.323   0.937
50585W        W15570  24.852   1.961  12.097
50586W        W15571  15.270  28.354   1.300
50587W        W15572  43.516  11.358   2.765
50588W        W15573  24.237   3.710   1.043
50589W        W15574  36.435  25.654   4.140
50590W        W15575  42.497  29.142   5.044
50591W        W15576  34.417  27.391   3.887
50592W        W15577  14.671  35.010  14.183
50593W        W15578   4.617  41.841   3.497
50594W        W15579  32.330  19.641  11.569
50595W        W15580  36.557  31.123   0.419
50596W        W15581  34.442   8.263   1.849
50597W        W15582  34.068   8.891   1.388
50598W        W15583   0.954  44.229  12.892
50599W        W15584  34.427  29.200  14.007
50600W        W15585  20.972  37.108  11.735
50601W        W15586  13.113  28.195   0.366
50602W        W15587   8.473  20.779   0.484
50603W        W15588  10.190  36.379   0.510
50604W        W15589   9.998  23.985  11.113
50605W        W15590  27.558   0.219   3.026
50606W        W15591  15.877  19.064  14.919
50607W        W15592  36.662  15.632   1.454
50608W        W15593   8.838  24.278  13.094
50609W        W15594  30.984   6.493  12.849
50610W        W15595  43.523   2.898  11.305
50611W        W15596  43.772  26.067   1.829
50612W        W15597  41.918   6.121   2.910
50613W        W15598  42.273  39.580   4.194
50614W        W15599  12.094  12.489   1.791
50615W        W15600  36.046  11.270   0.493
50616W        W15601   1.893  37.774   0.259
50617W        W15602  37.259   7.415   0.524
50618W        W15603  11.175  16.070   2.693
50619W        W15604  20.555  16.767   0.499
50620W        W15605  10.773  42.005  11.949
50621W        W15606  32.469  17.546   3.138
50622W        W15607  21.437  33.710   0.326
50623W        W15608   9.257  14.352   0.393
50624W        W15609  10.364  21.157   1.915
50625W        W15610  19.552  15.249  10.990
50626W        W15611  24.103  11.490   1.815
50627W        W15612  25.475   9.415   4.515
50628W        W15613  12.656  32.463   1.725
50629W        W15614   4.932  41.436   3.029
50630W        W15615  34.041  16.406  13.054
50631W        W15616  11.309  42.507  11.461
50632W        W15617  27.465  16.128   2.149
50633W        W15618   2.930   8.707  10.456
50634W        W15619  44.962  16.387  12.613
50635W        W15620  12.676  18.335   0.813
50636W        W15621  29.655  40.578  14.362
50637W        W15622  42.854   9.105   3.819
50638W        W15623   0.365   6.420  12.486
50639W        W15624  26.472   6.877  14.070
50640W        W15625   5.455  21.243  10.294
50641W        W15626  40.436  25.668   3.536
50642W        W15627  40.224  15.165   2.815
50643W        W15628  44.992  22.843   4.417
50644W        W15629  36.549  18.181   3.150
50645W        W15630  19.469  15.897   3.201
50646W        W15631   5.376  17.948  12.106
50647W        W15632  41.774  31.374   1.286
50648W        W15633  24.304  15.846  13.452
50649W        W15634   6.422  17.110  10.189
50650W        W15635  10.260  12.108  11.125
50651W        W15636   4.952   0.546  11.121
50652W        W15637  15.359  25.619   0.729
50653W        W15638  12.136  25.832   3.069
50654W        W15639  29.063  25.518   0.811
50655W        W15640  10.210  32.704  14.871
50656W        W15641  33.923  33.362  13.793
50657W        W15642  25.022  26.520   5.362
50658W        W15643  22.798  15.570  11.289
50659W        W15644   2.408  18.550  13.843
50660W        W15645  20.811  18.247  14.737
50661W        W15646  39.820  20.106   1.757
50662W        W15647  27.079  19.241   0.523
50663W        W15648  38.275  15.634   9.907
50664W        W15649  42.118  31.201  14.816
50665W        W15650   8.252   4.048  11.139
50666W        W15651  13.713  33.181   3.113
50667W        W15652  15.111  35.844   2.404
50668W        W15653  28.145  42.937  12.907
50669W        W15654   6.899  18.688  13.094
50670W        W15655  22.889  20.747  10.602
50671W        W15656  43.407   3.590  14.741
50672W        W15657  10.122  27.206   2.764
50673W        W15658  27.034  15.124   3.914
50674W        W15659  39.395  32.164   1.893
50675W        W15660  25.045   8.181  11.525
50676W        W15661  17.172  22.568  12.787
50677W        W15662  37.234  33.611  12.008
50678W        W15663  31.917  17.259   0.665
50679W        W15664  39.913  37.074  10.665
50680W        W15665  43.991   8.758   2.145
50681W        W15666  25.297  30.056  13.841
50682W        W15667  31.550   5.232   0.981
50683W        W15668  19.580   0.724   3.699
50684W        W15669  28.210  41.311  10.745
50685W        W15670  14.856   1.302  10.670
50686W        W15671  30.889  10.684   3.803
50687W        W15672   3.754  40.672  11.580
50688W        W15673  32.701   5.882  12.468
50689W        W15674  24.753  15.624   1.418
50690W        W15675  21.588  43.047  11.493
50691W        W15676   9.289  12.749   3.108
50692W        W15677  44.835  13.810  11.663
50693W        W15678  43.986  34.111  11.891
50694W        W15679  16.641  38.521  13.877
50695W        W15680   2.951   1.393  10.722
50696W        W15681   5.454   4.749   2.276
50697W        W15682  40.416  27.597  12.668
50698W        W15683  25.272  36.571   4.036
50699W        W15684   3.327   2.553  11.609
50700W        W15685  32.807  15.569   4.294
50701W        W15686  44.722  34.438   0.183
50702W        W15687  20.730  15.125  13.360
50703W        W15688  42.778   2.840   4.261
50704W        W15689  24.599  16.834  14.906
50705W        W15690  39.982   9.843   2.821
50706W        W15691   3.888  42.653   1.788
50707W        W15692  44.293  26.148   3.170
50708W        W15693  44.481   6.872   4.559
50709W        W15694  21.456  21.299   2.829
50710W        W15695  31.851  41.593   0.325
50711W        W15696   3.229  19.714   3.872
50712W        W15697  44.213  27.678   9.950
50713W        W15698   5.740  31.674   1.626
50714W        W15699  38.073  42.012  11.137
50715W        W15700  38.344  23.729   4.146
50716W        W15701  27.689  40.496   1.210
50717W        W15702  18.161  15.304  13.367
50718W        W15703  24.169  14.332   1.800
50719W        W15704  37.772  10.852  11.992
50720W        W15705  12.291  35.344  12.063
50721W        W15706  32.077   4.792   2.322
50722W        W15707   5.795  30.041  11.964
50723W        W15708  30.394  14.240   4.684
50724W        W15709   0.754   6.155  11.719
50725W        W15710  40.057  29.664   3.391
50726W        W15711   0.730   7.240   0.761
50727W        W15712  17.631  18.229  11.257
50728W        W15713  39.520  29.245   1.209
50729W        W15714  39.285  42.118   2.805
50730W        W15715  13.767  35.119  14.342
50731W        W15716  33.316  11.580  10.721
50732W        W15717  27.789  16.974  10.393
50733W        W15718  23.648   6.281   1.303
50734W        W15719  27.011   8.453  13.857
50735W        W15720  18.320  23.672  12.187
50736W        W15721  37.922  20.379  11.176
50737W        W15722  24.197  12.309  14.828
50738W        W15723  33.114  18.839  12.008
50739W        W15724  16.499  32.986   4.159
50740W        W15725   2.902  40.562   0.904
50741W        W15726  18.879   9.818  14.424
50742W        W15727  34.922  27.490   0.775
50743W        W15728  30.495  38.750   1.935
50744W        W15729  14.703  16.034  13.046
50745W        W15730  34.015  17.207  12.220
50746W        W15731  14.788  11.290   3.825
50747W        W15732   7.509  11.443   0.658
50748W        W15733  43.029  37.821  12.493
50749W        W15734  29.079   8.724  12.979
50750W        W15735  13.617  20.258  13.862
50751W        W15736   2.569  33.064  10.645
50752W        W15737  37.378  13.128  13.428
50753W        W15738  27.052  11.219   3.382
50754W        W15739  32.979  14.169  14.816
50755W        W15740  16.493  13.108   2.307
50756W        W15741  14.885   5.887   0.358
50757W        W15742  15.988  19.194  11.854
50758W        W15743   2.845  39.420   1.810
50759W        W15744  24.497  16.833   1.734
50760W        W15745  30.967   9.630  12.587
50761W        W15746  44.161  18.739   1.392
50762W        W15747  39.286  11.344  12.491
50763W        W15748  26.161  27.561   1.478
50764W        W15749  14.797  38.650   2.190
50765W        W15750  20.767   6.299  12.110
50766W        W15751  27.180  16.514   3.398
50767W        W15752  43.868  18.036  11.102
50768W        W15753  21.482   2.591   4.989
50769W        W15754   9.972  39.143  12.922
50770W        W15755  15.343   7.958  11.900
50771W        W15756  35.902  11.690  14.734
50772W        W15757  16.528   4.919   3.140
50773W        W15758  13.986  35.741  10.775
50774W        W15759   6.736  36.024   2.014
50775W        W15760  43.286  31.678   0.571
50776W        W15761  42.409  34.208   9.260
50777W        W15762   0.954  32.893   0.434
50778W        W15763  42.948  40.685  13.345
50779W        W15764  36.500  39.438   4.776
50780W        W15765   9.744  29.410  14.916
50781W        W15766  17.764  13.201  13.142
50782W        W15767  23.638   8.159  13.063
50783W        W15768  23.179   4.009   9.757
50784W        W15769  19.539   6.200  14.998
50785W        W15770   1.939   8.767  12.937
50786W        W15771   8.901  10.606   2.999
50787W        W15772  33.379  26.070  11.234
50788W        W15773  29.591   3.254  13.357
50789W        W15774   8.359  35.634  12.866
50790W        W15775  18.592  35.432  12.067
50791W        W15776  13.754  12.724   1.453
50792W        W15777   3.483  30.118   3.011
50793W        W15778  24.165  24.042   4.573
50794W        W15779  20.235  24.321  13.055
50795W        W15780  23.608   8.690  13.140
50796W        W15781  27.884  19.855   3.607
50797W        W15782  13.191  18.325  14.407
50798W        W15783  17.669  38.478  14.691
50799W        W15784  24.258  29.949   3.762
50800W        W15785  12.201  32.698  12.589
50801W        W15786  26.110   5.088  13.855
50802W        W15787  10.713  33.148  13.740
50803W        W15788  34.936  16.537   1.424
50804W        W15789  19.598  41.496   1.651
50805W        W15790   0.332   3.973   2.146
50806W        W15791  23.163   2.077   1.902
50807W        W15792  32.102  34.117  14.048
50808W        W15793   5.693   5.275   1.218
50809W        W15794  20.338  36.567   4.726
50810W        W15795  41.071  26.463  11.577
50811W        W15796   0.697  32.578  14.902
50812W        W15797  39.649  33.447   2.009
50813W        W15798   0.312  41.289  11.489
50814W        W15799  40.793   9.197   0.879
50815W        W15800  13.575  31.365   1.667
50816W        W15801  17.809   0.768   4.810
50817W        W15802  27.877  41.745  10.725
50818W        W15803  31.927  37.377   4.102
50819W        W15804   5.512  31.075  14.234
50820W        W15805  25.250   3.054  14.866
50821W        W15806  24.769  28.832  14.406
50822W        W15807  22.750   8.114  10.773
50823W        W15808  42.267  10.721  12.990
50824W        W15809   5.535   2.842   4.203
50825W        W15810  20.201  10.352  11.576
50826W        W15811  16.969  39.211   1.703
50827W        W15812  11.443  17.369  10.760
50828W        W15813   9.220  11.790   3.151
50829W        W15814  21.939  33.300  11.213
50830W        W15815  35.368  43.060   1.396
50831W        W15816  16.238  42.062   3.827
50832W        W15817  34.055  10.460   0.298
50833W        W15818  15.473  15.552   0.914
50834W        W15819   5.089  33.671   0.218
50835W        W15820  34.920  16.587   2.340
50836W        W15821   5.251  32.190   2.809
50837W        W15822  17.446  28.176  13.444
50838W        W15823  24.588  33.069   2.352
50839W        W15824  40.982   7.067  13.016
50840W        W15825  16.990  37.419  13.635
50841W        W15826   1.430  32.673   0.360
50842W        W15827  26.751  41.521  11.610
50843W        W15828  30.553  16.277  10.839
50844W        W15829  44.111  17.075   5.296
50845W        W15830  40.924   3.917  13.285
50846W        W15831  33.750  20.507  12.071
50847W        W15832  43.901  31.043   1.461
50848W        W15833   7.781  16.210  14.053
50849W        W15834  29.103  23.549  14.893
50850W        W15835  11.852   7.096  10.990
50851W        W15836  44.749  29.041   4.124
50852W        W15837  27.191  14.095   0.857
50853W        W15838  23.847   8.562  10.330
50854W        W15839  23.052  19.481   4.160
50855W        W15840  44.744  27.611  13.258
50856W        W15841   5.113  15.238   3.693
50857W        W15842  25.314  24.693  13.540
50858W        W15843   9.817  24.472  13.437
50859W        W15844  28.633  14.775  12.491
50860W        W15845   4.893  19.054   4.444
50861W        W15846   1.505  17.013  13.415
50862W        W15847  34.918   4.389  11.984
50863W        W15848  40.239   0.467  10.758
50864W        W15849  35.024  42.385  13.509
50865W        W15850  44.766   7.611  12.458
50866W        W15851  32.114  29.760  10.994
50867W        W15852  28.169  29.741  11.859
50868W        W15853   1.166  41.401  12.381
50869W        W15854  27.444  10.632  12.491
50870W        W15855   2.455  10.430  14.380
50871W        W15856  33.317   7.626   2.304
50872W        W15857  34.985  12.194   0.597
50873W        W15858  43.924   7.118  12.905
50874W        W15859   5.451  25.182  11.018
50875W        W15860   9.718  15.333  10.759
50876W        W15861  43.744  42.024  13.293
50877W        W15862  14.922   9.878   1.267
50878W        W15863  23.674  37.753   2.887
50879W        W15864  17.828  35.888  11.406
50880W        W15865  30.348  10.244  11.800
50881W        W15866  41.545  12.869  14.420
50882W        W15867  24.639  31.844  13.453
50883W        W15868   0.428  43.080  12.103
50884W        W15869  14.790  31.645   3.886
50885W        W15870  37.463  34.670  11.342
50886W        W15871  11.134  36.824  12.017
50887W        W15872  31.935  31.767   4.817
50888W        W15873  15.275  25.440  10.277
50889W        W15874  10.158   6.219  14.954
50890W        W15875  16.092  42.805  11.453
50891W        W15876  20.244  15.854  11.132
50892W        W15877  10.780  43.855  14.386
50893W        W15878  13.541  27.547  11.651
50894W        W15879   7.880   8.205  11.950
50895W        W15880  22.044  10.658  11.166
50896W        W15881  19.716  16.516  11.539
50897W        W15882   3.197  39.827   0.679
50898W        W15883   9.215  41.792   3.114
50899W        W15884  22.725  22.142  13.474
50900W        W15885  41.517  20.019   3.651
50901W        W15886  27.731  31.626  11.096
50902W        W15887   7.595   9.365  13.897
50903W        W15888  23.318  14.352   3.674
50904W        W15889  24.352  41.901  12.899
50905W        W15890  35.437  31.379  14.726
50906W        W15891  31.067  33.394   0.301
50907W        W15892   0.914  20.321  10.968
50908W        W15893  16.122  40.625   0.837
50909W        W15894  13.417  40.936   1.148
50910W        W15895  33.526  16.712  11.475
50911W        W15896   3.475   7.283   1.708
50912W        W15897   0.185  41.415  13.349
50913W        W15898  43.453  26.475  12.465
50914W        W15899  14.030  29.148  11.561
50915W        W15900   7.213   4.241   5.169
50916W        W15901  14.247  23.737  12.562
50917W        W15902   4.615  10.462   4.504
50918W        W15903  13.719  29.011   2.824
50919W        W15904  27.144  23.526  13.442
50920W        W15905  32.168  18.624   0.236
50921W        W15906  12.983  16.498   9.811
50922W        W15907  36.947  29.714   3.927
50923W        W15908  18.146  16.054  11.276
50924W        W15909   0.900  41.918   1.832
50925W        W15910   9.006  38.503   2.707
50926W        W15911  24.607  30.188   3.056
50927W        W15912  22.032   3.267  13.650
50928W        W15913   0.356  23.185   3.574
50929W        W15914  24.156  33.141  14.764
50930W        W15915  24.807  34.556   2.212
50931W        W15916  20.640  39.395   3.323
50932W        W15917  32.000   4.833  13.270
50933W        W15918  35.670  36.057  12.181
50934W        W15919  31.055  43.082  13.958
50935W        W15920   2.427   8.198  11.198
50936W        W15921  39.465  27.562  11.150
50937W        W15922  16.742   5.723  11.973
50938W        W15923   9.400  28.798  13.442
50939W        W15924  18.396  28.513  12.872
50940W        W15925  39.062   6.418   3.187
50941W        W15926   6.495  15.884   2.406
50942W        W15927  36.887  38.531   3.628
50943W        W15928   3.900  19.137   3.004
50944W        W15929  33.313   2.461   1.349
50945W        W15930  36.628  35.351  14.537
50946W        W15931   5.027  26.721   2.434
50947W        W15932  11.329  41.363   4.585
50948W        W15933  40.008   6.755   3.115
50949W        W15934   1.357  18.236   1.156
50950W        W15935   5.715  15.675  13.654
50951W        W15936   4.948  21.251   3.128
50952W        W15937  39.915  27.704  12.778
50953W        W15938  33.102  41.844  11.130
50954W        W15939  20.578  39.989  13.495
50955W        W15940  20.773   8.964  11.088
50956W        W15941  15.007  32.001  11.683
50957W        W15942  40.740  22.645  14.440
50958W        W15943   1.796  43.203  11.924
50959W        W15944   9.113  10.142   3.864
50960W        W15945  33.468  26.937   0.867
50961W        W15946  12.684  44.038  11.140
50962W        W15947   5.863  33.095  13.809
50963W        W15948  11.370  20.682   3.950
50964W        W15949   1.219  29.669   0.287
50965W        W15950  22.429  24.273  11.996
50966W        W15951  12.754  39.474   3.322
50967W        W15952  29.469  37.544   2.225
50968W        W15953   2.679  25.148  10.318
50969W        W15954  27.388  36.410  10.761
50970W        W15955  34.368  36.001   1.879
50971W        W15956  30.016   2.278   4.716
50972W        W15957   7.487  34.439   2.753
50973W        W15958   5.414  23.721  10.772
50974W        W15959  24.969  29.465  12.976
50975W        W15960  40.762   2.368   1.599
50976W        W15961  11.585  24.971  12.857
50977W        W15962  16.451  29.672  10.243
50978W        W15963   5.421  19.942   3.107
50979W        W15964  29.537  24.033   3.090
50980W        W15965  28.950  20.802  12.091
50981W        W15966   3.752  27.917   4.099
50982W        W15967   1.510  30.625   3.139
50983W        W15968  19.824  20.754  10.265
50984W        W15969  44.928  13.296  10.774
50985W        W15970  11.326  33.115  13.211
50986W        W15971  44.186  38.560  11.292
50987W        W15972  41.694  15.768   9.689
50988W        W15973  28.218   5.276   1.974
50989W        W15974  11.775  29.235  11.640
50990W        W15975  34.025   6.243  12.657
50991W        W15976  29.529  15.764  11.670
50992W        W15977  22.779  19.138  14.800
50993W        W15978  11.591  35.768  11.740
50994W        W15979  26.945  15.701  10.978
50995W        W15980  43.026   5.277  11.626
50996W        W15981  21.952  24.488  12.605
50997W        W15982   8.798   8.802  10.428
50998W        W15983  34.982   4.771  14.925
50999W        W15984  22.288   8.699   2.232
51000W        W15985  42.930   0.521   1.614
51001W        W15986   1.959   4.406   0.297
51002W        W15987  31.105  43.972   1.217
51003W        W15988  19.058  28.038  10.768
51004W        W15989  11.882  21.106  11.875
51005W        W15990  27.594   5.652  12.322
51006W        W15991  15.956   7.618  11.181
51007W        W15992  30.229  23.279   2.917
51008W        W15993  44.698  12.123   0.311
51009W        W15994  18.210   0.123  12.447
51010W        W15995  19.670   9.797   3.112
51011W        W15996  35.015  41.509   3.792
51012W        W15997  37.088  10.621  12.248
51013W        W15998  40.266  24.170   4.118
51014W        W15999   8.323  36.575   0.849
51015W        W16000  43.454  13.049   2.276
51016W        W16001  29.504  21.272   0.753
51017W        W16002   6.938  10.903   2.305
51018W        W16003  20.731  33.575   1.751
51019W        W16004  33.955   3.371   3.837
51020W        W16005  15.652  28.982  13.149
51021W        W16006  33.357  32.614  10.950
51022W        W16007  37.585  32.415   4.031
51023W        W16008   9.165   3.172   0.590
51024W        W16009  44.348  26.060   0.947
51025W        W16010  20.821  17.046   4.119
51026W        W16011  25.555  15.227   3.269
51027W        W16012  25.086  35.527   1.961
51028W        W16013  31.384  15.341   4.228
51029W        W16014  40.595  21.741  11.072
51030W        W16015   6.931  28.068   1.487
51031W        W16016   3.961  33.006   2.016
51032W        W16017  22.098   1.574   4.680
51033W        W16018  28.606  20.523  11.678
51034W        W16019   8.753  38.616  10.673
51035W        W16020   0.911  27.842  10.224
51036W        W16021  26.497  15.733  13.778
51037W        W16022  26.612   8.930  11.577
51038W        W16023  18.120  18.136   2.242
51039W        W16024  23.984  15.775  10.756
51040W        W16025  26.189  22.137  11.685
51041W        W16026  31.428  23.955   2.210
51042W        W16027  14.765  44.613   4.695
51043W        W16028  25.625  33.950  10.919
51044W        W16029   2.452  29.973   0.978
51045W        W16030   0.025  24.110   4.620
51046W        W16031  13.788  26.561  11.167
51047W        W16032  36.531  21.447   2.714
51048W        W16033  36.460  10.149   1.293
51049W        W16034  31.218   4.461   4.239
51050W        W16035  22.546  26.091   1.360
51051W        W16036  19.759  29.568   3.606
51052W        W16037  18.269  26.735   1.646
51053W        W16038  32.862  27.603  14.561
51054W        W16039   5.916  18.716  12.659
51055W        W16040  15.041  18.570  10.702
51056W        W16041  39.759  30.381   1.956
51057W        W16042  11.194  16.527  12.746
51058W        W16043   1.461  12.996  10.396
51059W        W16044  36.062  43.004  14.758
51060W        W16045  21.772  33.583   4.191
51061W        W16046  12.732  38.898  14.788
51062W        W16047   9.241  14.331   2.179
51063W        W16048  29.098  16.490  14.745
51064W        W16049  19.732  22.566   1.370
51065W        W16050  44.065  33.982   0.744
51066W        W16051  17.022  10.669  10.373
51067W        W16052  15.238  23.209  13.540
51068W        W16053  15.119  38.163   4.116
51069W        W16054  25.717  33.466  13.957
51070W        W16055  40.539  16.002  13.077
51071W        W16056   9.406  13.185  12.989
51072W        W16057  15.662  32.049  10.490
51073W        W16058  14.802  36.307  11.271
51074W        W16059  33.451  24.239  11.285
51075W        W16060  30.038   3.928   4.776
51076W        W16061  43.246  32.476   1.589
51077W        W16062  41.906  17.189   1.627
51078W        W16063  13.236  27.919   4.202
51079W        W16064  30.688   9.885  13.885
51080W        W16065  25.373   2.254   2.637
51081W        W16066  44.900  40.435   0.911
51082W        W16067  38.794   8.153  14.281
51083W        W16068  32.668  34.912   2.903
51084W        W16069  40.392  25.226   1.103
51085W        W16070  38.545  33.961   2.100
51086W        W16071  19.882  30.145  13.448
51087W        W16072   8.872   1.153   4.099
51088W        W16073  42.751  34.838   0.728
51089W        W16074  25.704  20.560   1.770
51090W        W16075  39.531  14.651   3.646
51091W        W16076  29.602  30.246   3.142
51092W        W16077  28.355   2.927  10.281
51093W        W16078  22.612  36.413  12.498
51094W        W16079  15.335   9.416  13.059
51095W        W16080  10.637  37.040   4.208
51096W        W16081  17.581  23.034  11.290
51097W        W16082  24.429  10.889   2.980
51098W        W16083  41.845  37.513   4.408
51099W        W16084   2.813   5.989  12.596
51100W        W16085  36.542   9.149   0.385
51101W        W16086  20.546  42.305   1.252
51102W        W16087  16.155  11.639   3.738
51103W        W16088  24.902   0.320  12.431
51104W        W16089  28.636  43.020   2.453
51105W        W16090  10.770  44.833  10.796
51106W        W16091  16.734  35.048   2.798
51107W        W16092   8.437  22.107   0.492
51108W        W16093  30.033  26.199  12.886
51109W        W16094  23.545   4.806   4.101
51110W        W16095  17.511  40.111  14.911
51111W        W16096  42.919  41.841  12.555
51112W        W16097  40.748  43.333   4.187
51113W        W16098  16.513   0.907  13.546
51114W        W16099  31.943  19.695  13.797
51115W        W16100  24.166  36.826  14.842
51116W        W16101  37.416  18.599  12.491
51117W        W16102   0.769  29.191   2.863
51118W        W16103   6.604  23.123  14.928
51119W        W16104  30.605  15.183  12.493
51120W        W16105  28.980  14.526  11.157
51121W        W16106  44.842   7.387  11.986
51122W        W16107  23.193  15.741  11.596
51123W        W16108  26.959  19.234  13.996
51124W        W16109  13.101   7.130   1.262
51125W        W16110  33.189  40.521   3.431
51126W        W16111   5.327  30.518  14.955
51127W        W16112  25.036  26.166   4.985
51128W        W16113  13.111  43.604  10.487
51129W        W16114  19.275   1.786   4.895
51130W        W16115   5.011  33.966  14.495
51131W        W16116  32.197  44.330   2.084
51132W        W16117  25.218  29.505  10.720
51133W        W16118  35.449  14.348   5.094
51134W        W16119  29.297  25.085  11.718
51135W        W16120  43.621  41.868   1.326
51136W        W16121  21.259  31.562  11.647
51137W        W16122  10.292  32.905  12.451
51138W        W16123  13.246   0.988   2.334
51139W        W16124   2.079  35.895  11.215
51140W        W16125  31.157  25.896   1.305
51141W        W16126  30.578   9.143   4.170
51142W        W16127  25.797   5.809  13.098
51143W        W16128  35.185  31.537   1.246
51144W        W16129  41.251  25.574   4.069
51145W        W16130   3.172   9.773   0.742
51146W        W16131   6.444  28.710   2.875
51147W        W16132  17.253  38.266  13.081
51148W        W16133  21.735   5.928  13.049
51149W        W16134  19.121   2.261   4.186
51150W        W16135  18.330  40.341   3.800
51151W        W16136  20.711   8.097  10.574
51152W        W16137  31.165   7.197   3.698
51153W        W16138  25.832  43.502  14.045
51154W        W16139   9.615  15.202   1.307
51155W        W16140  25.742   6.882  10.684
51156W        W16141  12.162   1.534  11.596
51157W        W16142  25.204  17.721   0.946
51158W        W16143  30.938   9.205   1.329
51159W        W16144  26.008  15.383  14.396
51160W        W16145   0.278   1.335  11.408
51161W        W16146  43.744   8.430  12.583
51162W        W16147  27.151  43.764   3.933
51163W        W16148  16.238  32.976   1.146
51164W        W16149   5.346   3.455  12.965
51165W        W16150  27.221  31.067   2.215
51166W        W16151  26.493  16.084  10.484
51167W        W16152   6.383  16.079   2.879
51168W        W16153  30.024  32.467   4.586
51169W        W16154  36.097   9.771   1.342
51170W        W16155  21.212  35.939  12.892
51171W        W16156  19.082   4.955  13.521
51172W        W16157  19.043  25.887  11.563
51173W        W16158  30.180  12.282   3.231
51174W        W16159  30.956  18.068  14.324
51175W        W16160   1.946  19.765   3.893
51176W        W16161  28.685  39.067   4.143
51177W        W16162  16.716  41.999  12.077
51178W        W16163  31.018  17.546  11.230
51179W        W16164  39.308  30.959   1.163
51180W        W16165  39.508  27.579  13.055
51181W        W16166  42.513  25.331   0.912
51182W        W16167  34.747  20.025   3.920
51183W        W16168  33.275  17.310   0.651
51184W        W16169  18.064   0.608   4.100
51185W        W16170  34.528  18.991   3.251
51186W        W16171   2.761  23.266  10.736
51187W        W16172  20.513  24.109  10.229
51188W        W16173  18.912  27.964   5.090
51189W        W16174  10.843  38.598   2.609
51190W        W16175  27.063  34.686  13.798
51191W        W16176  44.026  16.666   4.452
51192W        W16177  19.685   4.881   3.137
51193W        W16178  12.677  41.959   4.328
51194W        W16179   7.060  37.525  14.452
51195W        W16180  33.828  42.501   0.500
51196W        W16181  32.109   1.711  13.425
51197W        W16182  15.221  21.193  11.483
51198W        W16183  29.758  29.018  10.927
51199W        W16184  11.292  13.175   4.717
51200W        W16185   5.839  14.199  13.798
51201W        W16186  30.485  18.684  12.666
51202W        W16187  43.579   1.287   1.857
51203W        W16188  40.367  12.232  10.996
51204W        W16189  17.008  14.130   3.317
51205W        W16190  19.959  38.767   2.992
51206W        W16191  31.078  40.992   3.666
51207W        W16192  40.408  44.441   1.971
51208W        W16193  13.530  16.070  11.077
51209W        W16194  17.260  23.146   0.743
51210W        W16195  12.601  38.898   1.226
51211W        W16196  41.265   2.249  10.444
51212W        W16197  13.761  17.228  13.988
51213W        W16198  23.260   9.450  10.822
51214W        W16199   1.745   9.438  13.336
51215W        W16200  32.948  26.924   0.765
51216W        W16201   0.305  26.618  14.773
51217W        W16202  31.978  27.537  14.570
51218W        W16203  19.010   1.789   4.003
51219W        W16204  10.822  36.470  11.479
51220W        W16205   5.841  36.863   0.807
51221W        W16206   5.846  31.869   1.009
51222W        W16207  39.372   1.303   4.439
51223W        W16208  20.966  29.551  10.998
51224W        W16209   7.341   7.755   3.242
51225W        W16210  36.657  29.056  12.090
51226W        W16211  32.983   8.900  12.109
51227W        W16212  31.708  11.849   4.910
51228W        W16213   8.150  37.559   2.784
51229W        W16214   7.548   7.427  10.918
51230W        W16215   7.390   4.918  14.883
51231W        W16216   1.732   1.594  13.935
51232W        W16217  14.156  31.367  12.501
51233W        W16218  21.294  44.872  12.954
51234W        W16219  41.515  30.717   3.655
51235W        W16220  16.524  13.667   4.159
51236W        W16221   9.762  40.143  11.635
51237W        W16222  43.454  27.627  13.766
51238W        W16223  21.316   2.945  13.387
51239W        W16224   3.158  33.403  13.090
51240W        W16225  28.558  28.456  12.403
51241W        W16226  37.346  24.431  14.069
51242W        W16227  20.331  24.131   5.034
51243W        W16228  26.559   8.906  10.729
51244W        W16229  39.805  40.080  13.858
51245W        W16230  17.544  32.943  10.810
51246W        W16231  20.259   5.134  13.854
51247W        W16232   9.413  19.532  12.010
51248W        W16233   6.190  31.884   1.785
51249W        W16234  12.260  39.339   4.693
51250W        W16235  22.624  17.260  14.939
51251W        W16236  28.129   9.611   2.656
51252W        W16237   5.987  31.198  11.137
51253W        W16238  38.625   2.269   2.900
51254W        W16239  26.006  13.764  14.327
51255W        W16240  36.644   8.112  11.142
51256W        W16241  12.199  22.746   3.668
51257W        W16242  22.973  34.476   0.329
51258W        W16243   7.607   4.277  13.568
51259W        W16244  17.572  14.377   0.280
51260W        W16245  21.466   1.303  11.989
51261W        W16246  16.906  27.952   1.673
51262W        W16247  12.213  43.645   1.018
51263W        W16248  27.700   4.751   0.718
51264W        W16249  33.646   7.679   0.421
51265W        W16250  12.682  17.725   1.265
51266W        W16251  30.161   3.384  12.625
51267W        W16252  37.438  16.719   4.096
51268W        W16253  44.205   4.866   1.921
51269W        W16254  28.004   7.704  12.089
51270W        W16255  13.046  32.737   1.916
51271W        W16256  21.442   8.257  14.960
51272W        W16257  10.310  12.160   2.749
51273W        W16258  13.747  38.543   2.780
51274W        W16259   4.027  20.192   3.679
51275W        W16260  22.154  20.950   4.256
51276W        W16261  28.201  39.322   4.843
51277W        W16262  43.894  17.287   9.859
51278W        W16263  23.270  27.750   4.007
51279W        W16264  26.398  34.955  11.999
51280W        W16265  22.056  15.571   1.156
51281W        W16266  33.263  39.513  12.630
51282W        W16267   5.695  25.223   0.445
51283W        W16268  31.260  30.411   3.810
51284W        W16269   1.799  32.436   3.031
51285W        W16270  11.788  30.512   0.354
51286W        W16271   0.471   1.271   0.307
51287W        W16272  11.703  25.160   1.400
51288W        W16273   7.681  32.817   2.254
51289W        W16274   0.797   4.419  12.037
51290W        W16275  30.163  43.379  10.401
51291W        W16276  36.358  41.272  13.487
51292W        W16277  10.104  30.504   4.187
51293W        W16278  13.164   7.764   1.402
51294W        W16279   5.404  22.563   0.353
51295W        W16280  33.855  41.446   1.381
51296W        W16281  18.839  44.898   1.731
51297W        W16282  28.357  38.771  10.172
51298W        W16283  18.282  13.203  13.117
51299W        W16284  37.521  40.934   3.884
51300W        W16285  28.042  23.934   4.801
51301W        W16286  20.387   6.880   4.563
51302W        W16287  31.580  20.239   4.536
51303W        W16288  25.700  26.921   4.882
51304W        W16289  23.205  33.138   0.905
51305W        W16290  15.322  43.039  10.052
51306W        W16291  20.320  27.688  14.203
51307W        W16292  44.420  42.009  14.918
51308W        W16293  38.605  43.702   3.142
51309W        W16294  40.278   5.246  14.354
51310W        W16295  14.632  15.850   1.076
51311W        W16296  41.999  30.488  12.887
51312W        W16297   4.778  26.638  13.317
51313W        W16298  16.593  25.459   4.679
51314W        W16299  37.599  15.518  10.361
51315W        W16300  40.953  40.590   3.670
51316W        W16301  33.841  31.508   3.292
51317W        W16302   0.763  38.559  11.587
51318W        W16303  37.346  11.892   4.100
51319W        W16304  36.780  21.759  14.008
51320W        W16305   3.341  14.598  13.817
51321W        W16306   4.338  43.781   1.659
51322W        W16307  43.525  31.406  14.489
51323W        W16308  38.349  33.036   2.857
51324W        W16309   2.235  24.177  11.603
51325W        W16310  38.480  17.238   1.536
51326W        W16311  28.033  24.869  14.864
51327W        W16312   5.264  33.230   4.506
51328W        W16313   0.300  19.208   2.196
51329W        W16314  33.344  37.929   2.435
51330W        W16315   0.824   6.450  11.287
51331W        W16316  28.437  18.122   3.572
51332W        W16317   6.867   3.710  13.584
51333W        W16318  23.597  14.476  13.121
51334W        W16319  39.455  18.765  12.808
51335W        W16320   9.903   5.751  12.587
51336W        W16321  13.175  31.890  13.546
51337W        W16322  33.998  12.857   4.493
51338W        W16323  18.939  24.497   2.260
51339W        W16324  22.654  31.764   1.351
51340W        W16325  41.779  43.551   4.885
51341W        W16326  27.178  24.949  14.381
51342W        W16327  34.964  16.077   2.251
51343W        W16328   4.502  10.690   2.331
51344W        W16329   6.692  41.367  10.641
51345W        W16330   0.774   7.327   2.251
51346W        W16331   9.132  40.353  12.982
51347W        W16332  28.690  30.374   3.012
51348W        W16333  32.064  26.611  12.637
51349W        W16334  14.932  34.348  11.078
51350W        W16335   4.825  25.528  14.983
51351W        W16336  30.576  28.039   1.450
51352W        W16337  21.344  35.037  14.905
51353W        W16338  32.845   3.535   0.434
51354W        W16339  20.240   9.662   1.943
51355W        W16340  41.245  43.429   2.333
51356W        W16341  13.384  18.088   3.717
51357W        W16342  42.278  34.032   3.174
51358W        W16343   9.814  30.039  11.114
51359W        W16344  30.446  35.475  13.292
51360W        W16345   1.307  36.412  14.695
51361W        W16346  26.259  10.825   2.762
51362W        W16347  17.884  16.810  14.761
51363W        W16348  11.214   5.771  11.032
51364W        W16349  22.073  43.935   2.231
51365W        W16350  13.749  36.021  11.131
51366W        W16351  13.650  37.455   3.677
51367W        W16352   2.848  30.630  14.094
51368W        W16353  17.951  25.497   1.221
51369W        W16354  19.172   8.389  11.991
51370W        W16355  31.493  17.688  13.972
51371W        W16356  20.030  12.407   2.384
51372W        W16357  30.776  17.571   3.733
51373W        W16358  10.714   9.344  12.653
51374W        W16359   4.191  33.459  14.360
51375W        W16360   4.046  27.936  13.096
51376W        W16361  35.599  29.259  13.211
51377W        W16362  35.478  33.657  13.417
51378W        W16363  16.466  38.658  12.104
51379W        W16364   3.441  20.639   4.281
51380W        W16365  19.701  29.434  12.151
51381W        W16366   6.991  17.566   1.737
51382W        W16367   7.859   0.477  11.630
51383W        W16368  38.892  44.524   2.877
51384W        W16369  21.543  43.788  13.537
51385W        W16370  13.193  42.418   1.083
51386W        W16371  21.496  33.683  10.249
51387W        W16372  16.884   8.790   4.945
51388W        W16373  16.114  36.810  13.178
51389W        W16374  41.025  41.269   4.716
51390W        W16375  18.703  39.616  13.964
51391W        W16376   2.856  10.473   1.857
51392W        W16377  14.423  23.146  14.917
51393W        W16378  29.688  29.648   2.320
51394W        W16379  23.144  40.415  11.365
51395W        W16380  14.248  35.163   2.818
51396W        W16381  40.691   7.358  11.622
51397W        W16382  20.661  32.501   1.718
51398W        W16383   5.447  21.268   0.023
51399W        W16384   5.483  11.743   3.084
51400W        W16385   4.177   8.985  13.493
51401W        W16386  16.577   8.672  13.254
51402W        W16387  31.446  33.879   4.104
51403W        W16388   5.813  20.659   3.848
51404W        W16389   0.872  15.575  14.044
51405W        W16390   7.634  28.567  12.495
51406W        W16391  33.056  27.736   4.181
51407W        W16392  39.176  35.804  13.396
51408W        W16393  19.270  12.253  11.132
51409W        W16394  13.865  19.462  12.531
51410W        W16395  36.181   6.160  14.965
51411W        W16396   5.713  43.981  12.023
51412W        W16397   8.267  14.223  14.048
51413W        W16398   4.014  41.390   0.699
51414W        W16399  19.188  24.256   3.286
51415W        W16400  19.591  22.985  10.733
51416W        W16401   7.465   2.825  12.447
51417W        W16402  20.180  32.517  14.259
51418W        W16403  12.584  44.362  13.613
51419W        W16404  21.697  19.725  13.025
51420W        W16405   1.922  32.537   3.529
51421W        W16406  33.031  20.552   3.659
51422W        W16407  18.050  22.999  11.119
51423W        W16408  43.574  16.432  11.740
51424W        W16409  17.282   5.435   0.510
51425W        W16410  25.928  25.271  11.985
51426W        W16411  33.438   6.195  14.837
51427W        W16412  43.735  43.520   2.783
51428W        W16413   8.199  26.006  12.456
51429W        W16414  29.771   0.003   2.170
51430W        W16415  42.775  20.216   4.526
51431W        W16416  37.359  30.298   0.846
51432W        W16417  11.866  23.788   4.286
51433W        W16418  31.522  23.087   2.301
51434W        W16419  41.494  29.915  12.465
51435W        W16420   8.574  22.210  11.146
51436W        W16421  39.999  30.445   3.766
51437W        W16422  21.691   9.344  14.392
51438W        W16423  13.109  39.677   1.713
51439W        W16424  12.601  20.285   3.791
51440W        W16425  18.690   5.862   1.777
51441W        W16426  10.704  14.189   3.604
51442W        W16427  38.744  34.941   0.077
51443W        W16428  27.102   0.287  14.493
51444W        W16429  18.390   6.875   4.606
51445W        W16430  15.599  43.195  13.539
51446W        W16431   5.503  34.192  12.504
51447W        W16432   5.336  11.593   3.540
51448W        W16433   8.861   5.235  14.079
51449W        W16434  29.224  36.557   3.717
51450W        W16435  40.591  11.858  13.097
51451W        W16436  35.670  29.637   1.256
51452W        W16437   7.750   6.766  13.059
51453W        W16438   0.710  23.390  12.083
51454W        W16439  31.567   3.751   3.725
51455W        W16440  13.232  38.254   1.760
51456W        W16441  12.172  16.783   1.717
51457W        W16442  43.236  12.900  14.547
51458W        W16443  16.076  13.325   0.508
51459W        W16444  42.834   6.200  13.033
51460W        W16445  23.615  13.288  13.510
51461W        W16446   1.986  34.077  12.997
51462W        W16447  30.489   0.335   3.629
51463W        W16448  41.009  21.652  14.367
51464W        W16449  24.361   9.065   4.176
51465W        W16450   9.695  17.177   2.620
51466W        W16451   9.379  31.266   3.653
51467W        W16452  34.564  34.157   1.866
51468W        W16453   9.115  37.461   4.612
51469W        W16454   2.613  15.129  11.824
51470W        W16455   5.670   8.705   1.351
51471W        W16456  25.783   9.893   2.792
51472W        W16457   8.374  41.140   3.200
51473W        W16458  16.011  34.335  13.976
51474W        W16459   8.875  27.020  13.919
51475W        W16460  38.090  30.864   2.196
51476W        W16461  33.051   5.237   3.888
51477W        W16462  10.117  30.048  12.972
51478W        W16463  35.303  18.038   1.217
51479W        W16464  14.269  12.726   3.088
51480W        W16465   0.864  36.449  11.564
51481W        W16466  30.672  17.671  10.723
51482W        W16467   8.964  33.338   0.829
51483W        W16468  30.008  15.585   2.421
51484W        W16469  30.587  20.752  11.270
51485W        W16470  28.967   4.759  12.195
51486W        W16471  26.874  16.219  13.548
51487W        W16472  39.688  18.843  11.108
51488W        W16473  25.344  31.125   1.383
51489W        W16474  23.578  38.807   1.857
51490W        W16475  24.693   0.209  11.091
51491W        W16476  10.613  22.108  12.380
51492W        W16477  25.464  21.062  13.425
51493W        W16478  22.957  31.150  12.319
51494W        W16479  30.880   9.690   0.212
51495W        W16480   4.882   6.984  13.950
51496W        W16481   0.798  24.452  10.276
51497W        W16482  31.570  16.687   4.113
51498W        W16483  11.547   5.982  12.002
51499W        W16484  29.462  28.546   1.000
51500W        W16485  14.519  42.420  11.532
51501W        W16486  44.296  37.078   0.995
51502W        W16487  44.221  34.544  11.596
51503W        W16488  41.554  32.284  13.364
51504W        W16489  21.468   8.849  14.460
51505W        W16490  32.048   9.923  11.059
51506W        W16491  28.086   5.849  13.454
51507W        W16492  41.515  39.262  14.384
51508W        W16493  12.065  11.709   2.787
51509W        W16494  20.447  26.975  14.022
51510W        W16495  25.603  18.419  11.321
51511W        W16496  18.683  23.646  14.444
51512W        W16497  38.269  15.668   3.703
51513W        W16498  24.874  36.052   0.941
51514W        W16499  27.950  22.460   4.132
51515W        W16500  37.874   7.680   3.210
51516W        W16501  15.015  34.554   4.662
51517W        W16502  15.926  35.461  14.148
51518W        W16503  27.137  34.818   3.382
51519W        W16504   9.720   8.568   0.672
51520W        W16505  41.954  20.989   2.719
51521W        W16506  40.536  32.089   4.098
51522W        W16507  26.657  24.514  11.143
51523W        W16508  28.809   9.954   3.242
51524W        W16509  30.423  17.856   1.538
51525W        W16510   3.402   9.604  13.015
51526W        W16511   9.847  15.744  14.349
51527W        W16512  21.767  40.916   5.024
51528W        W16513  37.516  11.703   3.647
51529W        W16514   1.597  28.095  14.074
51530W        W16515  31.951  17.316  11.672
51531W        W16516  28.355  42.905  14.820
51532W        W16517  27.481  26.262   0.971
51533W        W16518  22.060  17.678  11.179
51534W        W16519  37.342   4.451  13.246
51535W        W16520  10.693   8.948   0.837
51536W        W16521  10.871  18.038   4.793
51537W        W16522  32.457  16.091   0.784
51538W        W16523  19.656   6.844   4.073
51539W        W16524   1.493  37.823   2.682
51540W        W16525  10.392  40.562   3.682
51541W        W16526  10.231  12.486   4.670
51542W        W16527   3.450  40.088   2.576
51543W        W16528  18.393  22.940  11.495
51544W        W16529  38.707  27.620   1.631
51545W        W16530   2.935  36.799   0.514
51546W        W16531  31.184  10.382  11.984
51547W        W16532  18.317  13.381   0.014
51548W        W16533  31.424  44.833   4.121
51549W        W16534  40.323   4.345   1.407
51550W        W16535  28.442  13.210   0.417
51551W        W16536  17.210  24.467  11.222
51552W        W16537   8.690  37.190   3.870
51553W        W16538  15.823  26.599  10.731
51554W        W16539  15.282  21.961  12.571
51555W        W16540  18.085  36.306   0.794
51556W        W16541  37.916  20.184  10.722
51557W        W16542  37.494  34.971  12.183
51558W        W16543  31.057  10.046   5.142
51559W        W16544  16.008  20.568   2.611
51560W        W16545  22.029  32.709  11.947
51561W        W16546  18.964  44.442  10.711
51562W        W16547   8.439  30.053  12.051
51563W        W16548  29.360  27.393   0.363
51564W        W16549  37.390  30.818   0.761
51565W        W16550  42.049  40.500   4.490
51566W        W16551   5.701  22.744  11.972
51567W        W16552  10.121  22.306   2.276
51568W        W16553   4.926   7.889  14.959
51569W        W16554   5.422  44.283   2.261
51570W        W16555   3.030  39.566   4.596
51571W        W16556  10.539  14.279  14.622
51572W        W16557  43.326  36.664  12.891
51573W        W16558  28.487  18.614   3.839
51574W        W16559  22.750  24.185   1.486
51575W        W16560  10.679  20.292   0.884
51576W        W16561  37.642  30.601   0.342
51577W        W16562  20.803  29.212  11.437
51578W        W16563  40.860  32.893  13.000
51579W        W16564  30.928  15.541  13.979
51580W        W16565  41.476  33.566  11.444
51581W        W16566  37.343   9.171   1.240
51582W        W16567  27.538  28.074  14.667
51583W        W16568  11.786  35.628  13.033
51584W        W16569  33.486  14.558   4.631
51585W        W16570  34.037  43.948  13.127
51586W        W16571  30.497  21.742   1.221
51587W        W16572   7.215  25.972   4.137
51588W        W16573  20.957  11.542  13.426
51589W        W16574  17.228  10.348   1.185
51590W        W16575  25.280  21.226  12.837
51591W        W16576   9.208  22.631  12.929
51592W        W16577  32.508  34.151  10.698
51593W        W16578  34.004  23.673   0.938
51594W        W16579  27.999  12.222  11.921
51595W        W16580  30.078  27.243   4.239
51596W        W16581  13.140  33.943   1.222
51597W        W16582  37.400  31.025   5.088
51598W        W16583   2.055  23.744   3.710
51599W        W16584  34.994   1.893  12.895
51600W        W16585  37.387  32.023  12.629
51601W        W16586  30.666   2.201  13.931
51602W        W16587  14.298  22.491   3.065
51603W        W16588  21.070  44.948  11.095
51604W        W16589   4.513  20.173   3.522
51605W        W16590  25.504  19.009  12.036
51606W        W16591  12.166   3.103  12.498
51607W        W16592  12.163  13.822  13.063
51608W        W16593  16.859  25.849   3.492
51609W        W16594  17.393   3.592   4.607
51610W        W16595  25.755  38.153  12.188
51611W        W16596  35.910  34.448   2.424
51612W        W16597  28.109  42.847   3.694
51613W        W16598   0.799  29.515   4.618
51614W        W16599  13.368   7.395   0.259
51615W        W16600  17.599  12.302   0.743
51616W        W16601   2.739   3.301   3.177
51617W        W16602  28.078   4.366   3.631
51618W        W16603   4.383  43.187  12.250
51619W        W16604   5.925  12.065   2.382
51620W        W16605   7.798  16.808  14.457
51621W        W16606   2.208  31.471   1.635
51622W        W16607   4.716  36.342  14.354
51623W        W16608  37.910  36.433   3.253
51624W        W16609  16.611  13.770  10.496
51625W        W16610  36.151  22.072   1.295
51626W        W16611  43.091  43.049  13.281
51627W        W16612  22.163   0.937  12.480
51628W        W16613   2.035   9.287  11.585
51629W        W16614   7.184  41.522  13.266
51630W        W16615  39.432   4.377  12.092
51631W        W16616   7.935  39.278  11.927
51632W        W16617  14.834   8.661  14.353
51633W        W16618  42.808  44.444  10.677
51634W        W16619  23.024  18.019  13.880
51635W        W16620  10.261  14.198   3.188
51636W        W16621   6.144   8.360   1.763
51637W        W16622  10.007  24.470  12.873
51638W        W16623  36.936   3.726   0.494
51639W        W16624  28.761  17.213   4.320
51640W        W16625  31.404  13.163   0.814
51641W        W16626  29.967  24.971   0.995
51642W        W16627  39.789   4.006   4.506
51643W        W16628  33.139  12.189  14.022
51644W        W16629   2.229  44.691  11.591
51645W        W16630  38.824  11.317   3.747
51646W        W16631  41.581   7.257   1.231
51647W        W16632  12.777  34.903  13.762
51648W        W16633   3.269  35.495   0.495
51649W        W16634  30.416  14.808  13.879
51650W        W16635   7.966  30.145   3.253
51651W        W16636  27.276  18.708  11.997
51652W        W16637   7.657  27.146   1.866
51653W        W16638  41.332  41.010   0.465
51654W        W16639   9.750  43.965  14.909
51655W        W16640  37.032  29.313   0.847
51656W        W16641   9.200  31.342   2.666
51657W        W16642  43.825  16.041  14.537
51658W        W16643   2.186  33.946   0.909
51659W        W16644  26.945  27.373   2.208
51660W        W16645  18.330  33.447  12.995
51661W        W16646   9.338  34.782  10.527
51662W        W16647  29.201  26.570  11.624
51663W        W16648  27.442  20.771  13.427
51664W        W16649  27.778  31.775  10.449
51665W        W16650  11.317  41.816  11.257
51666W        W16651  25.028  18.713   2.326
51667W        W16652  34.175  24.264   1.708
51668W        W16653  40.583  33.441  14.384
51669W        W16654  36.328  14.758  14.924
51670W        W16655   5.371  34.517  10.572
51671W        W16656  13.811  15.027  10.893
51672W        W16657   0.304   6.149   3.822
51673W        W16658  43.501  21.863   1.197
51674W        W16659  26.099  32.900   4.057
51675W        W16660  11.681   0.903   1.706
51676W        W16661  17.043  16.230  14.985
51677W        W16662  14.515  40.390  12.390
51678W        W16663  19.559  27.174  11.550
51679W        W16664  19.760  38.276   2.219
51680W        W16665  43.400  23.630   4.352
51681W        W16666   3.884  13.000  10.867
51682W        W16667   7.344  37.539   3.165
51683W        W16668  36.120  32.856  13.455
51684W        W16669   5.451  28.895   3.783
51685W        W16670  10.632  38.209  13.823
51686W        W16671   9.690  22.741  12.768
51687W        W16672  25.027  31.414  14.472
51688W        W16673  23.147  16.429   2.126
51689W        W16674  34.623  43.843  11.321
51690W        W16675  30.580  16.207   4.434
51691W        W16676  41.488  37.622   1.367
51692W        W16677  44.277  39.603  11.818
51693W        W16678   9.252   4.340  11.689
51694W        W16679  10.765   9.412   2.764
51695W        W16680  23.074  33.908  11.941
51696W        W16681  28.950  24.763  11.952
51697W        W16682  32.064   3.969   3.149
51698W        W16683  38.624  20.304   4.753
51699W        W16684  10.417   9.364  11.133
51700W        W16685   3.824  10.627   0.426
51701W        W16686  26.571  36.369   5.005
51702W        W16687  37.195  25.758   3.102
51703W        W16688   0.975  30.290   1.310
51704W        W16689  29.024  20.066   2.963
51705W        W16690  31.442  14.390  10.801
51706W        W16691  17.038  34.416  13.848
51707W        W16692   7.193  20.264   1.762
51708W        W16693  38.598  18.235   4.435
51709W        W16694  41.884  43.444   0.827
51710W        W16695   6.645  42.298  13.879
51711W        W16696  20.434  35.040   1.816
51712W        W16697  16.350  42.761   1.718
51713W        W16698   0.774   3.295   1.238
51714W        W16699  34.273  21.175  10.715
51715W        W16700  37.063  20.002  14.219
51716W        W16701   0.328  21.171   4.699
51717W        W16702  24.734  26.457   3.218
51718W        W16703   9.822  35.016   2.750
51719W        W16704  32.778   5.920  11.360
51720W        W16705   5.771   0.764   1.884
51721W        W16706   5.348  31.130   0.197
51722W        W16707   7.652   5.028  14.454
51723W        W16708  42.459  28.574   0.853
51724W        W16709  37.524  41.947   3.825
51725W        W16710  32.208   5.812   2.662
51726W        W16711  14.823  13.658  13.181
51727W        W16712  43.626  20.148  13.511
51728W        W16713  43.194  21.390   0.374
51729W        W16714  32.038  29.449   2.201
51730W        W16715  41.618  25.992   0.084
51731W        W16716  26.076   3.915  14.981
51732W        W16717  37.937  19.055  13.813
51733W        W16718  11.458   9.321  13.101
51734W        W16719  39.390  11.112  10.610
51735W        W16720  37.421  14.160   1.955
51736W        W16721  26.098  22.501   4.225
51737W        W16722  19.668  16.827  14.553
51738W        W16723  13.726  19.661  12.997
51739W        W16724  36.848  43.591  12.973
51740W        W16725  26.705   4.894  10.793
51741W        W16726  22.634  39.374  11.642
51742W        W16727  37.348  15.816  14.863
51743W        W16728   8.359   1.238   3.276
51744W        W16729  30.358   2.701   9.824
51745W        W16730  25.561  16.321   0.879
51746W        W16731  36.927  11.576  13.850
51747W        W16732  28.434   5.828   2.632
51748W        W16733  37.457  27.633   2.637
51749W        W16734  12.590  44.232   4.524
51750W        W16735  22.398  12.801  14.387
51751W        W16736  19.823   5.377  11.057
51752W        W16737   5.631  39.422  10.404
51753W        W16738  27.075  34.425  11.949
51754W        W16739  11.233  32.556  10.665
51755W        W16740  39.258  38.695  10.279
51756W        W16741  20.098  26.567  10.660
51757W        W16742  13.763   1.045   2.321
51758W        W16743   7.646  26.328   4.693
51759W        W16744  20.183  16.712  11.587
51760W        W16745  16.675  22.246   0.293
51761W        W16746  21.725   7.780  12.760
51762W        W16747   3.538  27.634  10.666
51763W        W16748  25.574  38.885   2.894
51764W        W16749  16.679  19.798   1.446
51765W        W16750  31.841   9.838  11.559
51766W        W16751  15.840  23.020  14.424
51767W        W16752  16.751  27.608   3.247
51768W        W16753  37.701   7.647   2.720
51769W        W16754  28.176  33.014   2.701
51770W        W16755  21.094  29.897   4.078
51771W        W16756   5.341  41.713  11.920
51772W        W16757  31.937  42.323  13.261
51773W        W16758  34.894   9.455  11.752
51774W        W16759  40.375  39.037  11.970
51775W        W16760  31.587   0.952   1.774
51776W        W16761   7.630  13.277  11.627
51777W        W16762  14.638  34.838   2.720
51778W        W16763  43.524   6.196  13.590
51779W        W16764  38.320  33.523   2.288
51780W        W16765  14.664  31.995  10.824
51781W        W16766  30.681   2.571   1.043
51782W        W16767  43.369  22.837  14.163
51783W        W16768  44.390  14.406  12.140
51784W        W16769  33.634  10.139   3.706
51785W        W16770   5.134  27.426   0.140
51786W        W16771  41.377   2.822  12.806
51787W        W16772  24.048  29.508  13.814
51788W        W16773  19.597  17.842  10.664
51789W        W16774  16.569  31.355  14.900
51790W        W16775  19.286  41.561  12.502
51791W        W16776  24.150  17.831   2.821
51792W        W16777  37.499   5.341   0.770
51793W        W16778  20.553  37.552  10.725
51794W        W16779   3.116   0.249  13.774
51795W        W16780   7.566   3.963   4.461
51796W        W16781  26.084  17.832  11.914
51797W        W16782  34.966  34.230  10.086
51798W        W16783  42.778  15.583   1.457
51799W        W16784  36.669   0.889   4.531
51800W        W16785  22.951  44.243  13.236
51801W        W16786  35.360   3.154  14.480
51802W        W16787  29.888  29.576  10.656
51803W        W16788   8.704  34.993  13.537
51804W        W16789  11.191  30.589  13.337
51805W        W16790   5.925  28.762   4.519
51806W        W16791  40.207  19.703   3.779
51807W        W16792  26.049  17.083   0.830
51808W        W16793  27.965  36.022  12.054
51809W        W16794  10.781   4.922  12.778
51810W        W16795   8.771  23.053   2.048
51811W        W16796  38.945  10.734  11.380
51812W        W16797  11.366  18.917  14.837
51813W        W16798  42.949  27.817  10.988
51814W        W16799  27.078  36.559   1.295
51815W        W16800  20.936   5.565  12.003
51816W        W16801   4.832  22.564  11.963
51817W        W16802  12.542   6.795  11.370
51818W        W16803  27.452  19.161   4.687
51819W        W16804  37.088  18.277  10.641
51820W        W16805  19.277  29.295  10.355
51821W        W16806  29.405  28.967   1.314
51822W        W16807  14.123  41.049   3.678
51823W        W16808  29.691   5.167   1.800
51824W        W16809  29.487  29.091   4.500
51825W        W16810   2.993  23.170   4.603
51826W        W16811   5.890  24.098   4.439
51827W        W16812  33.841  35.929  11.503
51828W        W16813  13.151  36.359  10.721
51829W        W16814  43.941  22.029   2.791
51830W        W16815   3.863  18.526   3.221
51831W        W16816  42.210  13.250  11.090
51832W        W16817  12.836  42.007   1.010
51833W        W16818  32.960  26.792  12.276
51834W        W16819  29.967  15.056  13.799
51835W        W16820  19.303   8.637  12.418
51836W        W16821  31.582  12.882   1.673
51837W        W16822   1.494  30.594  11.192
51838W        W16823  22.840  10.717   1.194
51839W        W16824  34.398  31.323  13.076
51840W        W16825  31.799  28.002   2.784
51841W        W16826  36.558  25.008   4.959
51842W        W16827  41.345  27.594  10.571
51843W        W16828  15.330  14.149  11.521
51844W        W16829  23.109   4.210   4.730
51845W        W16830  39.411   0.519   3.230
51846W        W16831   7.726   8.696   2.369
51847W        W16832  41.481  38.647  11.208
51848W        W16833   0.348  40.984  12.534
51849W        W16834  20.478  39.040   4.160
51850W        W16835  26.144  23.737   3.080
51851W        W16836  20.738  37.608   2.853
51852W        W16837  36.903  30.573  12.034
51853W        W16838  34.217  35.443  13.368
51854W        W16839  25.104  30.312  13.420
51855W        W16840  44.314  33.828   3.704
51856W        W16841  36.882  14.566  11.211
51857W        W16842  13.175  25.737  12.884
51858W        W16843   4.597   8.006   1.218
51859W        W16844   0.804   0.317  10.556
51860W        W16845  28.749  13.333  11.592
51861W        W16846  26.402  14.100   3.007
51862W        W16847  10.376  32.198  14.800
51863W        W16848  10.620  31.664   3.333
51864W        W16849   4.524  28.833  13.593
51865W        W16850  42.260  33.470  13.509
51866W        W16851  14.188  10.792   2.012
51867W        W16852  34.260  15.235  11.121
51868W        W16853   0.289  39.147   1.099
51869W        W16854   8.428   1.784   4.547
51870W        W16855   3.530  28.617   1.276
51871W        W16856  25.301  11.299  14.424
51872W        W16857  43.755  24.496  13.025
51873W        W16858   7.186  40.938   2.854
51874W        W16859  35.608  33.513  12.428
51875W        W16860  11.793  27.671  14.505
51876W        W16861  23.622  21.339  13.962
51877W        W16862  15.815  30.742  12.558
51878W        W16863   2.016  27.141  11.618
51879W        W16864  11.468  34.342   4.290
51880W        W16865   4.468  36.639   2.759
51881W        W16866  30.082   6.524   4.566
51882W        W16867  31.059  35.251  13.110
51883W        W16868  21.071   5.386   3.670
51884W        W16869  27.224  30.663   1.188
51885W        W16870  35.464  44.658   2.323
51886W        W16871   5.607  34.566   4.585
51887W        W16872  19.783  23.455   1.871
51888W        W16873   1.705  36.151   2.801
51889W        W16874  24.434   2.499  14.017
51890W        W16875  19.721  24.440   5.169
51891W        W16876   7.736   2.385  13.150
51892W        W16877  14.587  14.780  11.671
51893W        W16878  33.625  44.797   0.774
51894W        W16879  24.629   1.317  11.924
51895W        W16880  34.638  29.248   0.375
51896W        W16881   9.149   4.391  14.021
51897W        W16882  27.468   4.478  10.792
51898W        W16883   7.359  15.526  10.673
51899W        W16884  10.631  41.033  12.017
51900W        W16885  25.650  20.019   1.823
51901W        W16886  42.550  19.285   5.475
51902W        W16887  10.670  22.080  13.374
51903W        W16888  15.843  36.425   0.742
51904W        W16889  18.254   1.378   0.314
51905W        W16890  37.525   3.397   4.558
51906W        W16891  41.976  33.405   4.702
51907W        W16892  22.364  41.891   1.506
51908W        W16893  33.083   8.819   1.431
51909W        W16894  32.917  34.082   1.058
51910W        W16895  43.502  13.773   0.255
51911W        W16896  17.166  18.123   0.243
51912W        W16897   1.333   8.169   2.384
51913W        W16898  10.204  25.506   3.498
51914W        W16899   7.137  43.503   2.742
51915W        W16900  32.733   0.810   4.143
51916W        W16901  19.823   1.144   3.861
51917W        W16902  27.942  14.568   4.783
51918W        W16903  10.653   0.352   2.761
51919W        W16904   5.825   7.516   1.766
51920W        W16905  28.425  23.948  11.578
51921W        W16906  32.461   1.932  14.326
51922W        W16907   3.083  39.414  12.979
51923W        W16908  38.924  44.246   4.100
51924W        W16909  41.525  26.411   2.830
51925W        W16910  35.953  24.011  12.746
51926W        W16911   8.300  32.927  13.070
51927W        W16912   4.372  28.897   2.767
51928W        W16913  11.652  36.527   0.902
51929W        W16914   4.358  17.778  10.421
51930W        W16915  20.897   8.366   0.823
51931W        W16916  38.799   7.435   4.674
51932W        W16917   5.860  36.474  12.425
51933W        W16918   1.031  39.926   0.017
51934W        W16919  18.106  24.194  13.815
51935W        W16920  21.979  41.562   0.800
51936W        W16921  31.507  44.692   4.709
51937W        W16922  44.229  34.570   4.978
51938W        W16923  36.303   6.647  11.108
51939W        W16924  43.035  18.789   1.951
51940W        W16925  44.363  27.266  13.968
51941W        W16926  23.106  24.746   4.111
51942W        W16927   7.110  16.554  13.365
51943W        W16928  31.079  26.675   0.943
51944W        W16929  15.630   4.644  11.065
51945W        W16930   8.750   7.493   2.280
51946W        W16931  26.080  44.265   1.873
51947W        W16932  42.429  40.214  14.021
51948W        W16933   3.732  40.946  13.936
51949W        W16934  22.893  28.500   2.083
51950W        W16935  12.638  29.241   4.259
51951W        W16936   2.164  13.423  11.571
51952W        W16937   1.251  35.036  12.569
51953W        W16938  22.202  39.598   1.305
51954W        W16939  30.821  25.122   0.311
51955W        W16940  36.994  22.519  12.093
51956W        W16941  15.532  24.144   1.679
51957W        W16942  40.454  15.571   4.321
51958W        W16943  25.901  14.671  14.458
51959W        W16944   7.694  20.513   1.383
51960W        W16945   2.973   7.806   2.434
51961W        W16946  14.203   5.781   5.531
51962W        W16947   6.887  27.943  14.057
51963W        W16948  19.186  12.610   0.863
51964W        W16949  18.163   2.294   0.214
51965W        W16950   2.981  31.950  13.396
51966W        W16951  35.482  31.497   0.208
51967W        W16952   7.386  15.392   2.327
51968W        W16953  41.006  34.828   1.886
51969W        W16954  36.856   1.895   1.175
51970W        W16955  44.428  27.226  10.657
51971W        W16956  32.000   2.863   0.893
51972W        W16957  14.587   6.402  11.855
51973W        W16958  38.627  27.609   0.367
51974W        W16959   7.358  17.077  11.244
51975W        W16960  20.557   0.272  12.946
51976W        W16961  43.870  14.097  11.183
51977W        W16962   6.305  31.842   3.570
51978W        W16963  17.324   4.851  13.443
51979W        W16964   0.968   7.692   0.836
51980W        W16965  12.316   0.757   0.415
51981W        W16966  38.800  29.863   0.244
51982W        W16967  21.823  14.847   2.657
51983W        W16968  30.029  41.871  10.538
51984W        W16969  14.262  43.008   0.719
51985W        W16970  33.870   1.208   3.245
51986W        W16971  38.529   1.290   1.214
51987W        W16972   1.472   2.233   3.048
51988W        W16973  29.566  14.115  12.738
51989W        W16974  31.536   0.772   2.242
51990W        W16975  26.684  26.532   0.360
51991W        W16976  30.473  30.734   1.418
51992W        W16977  24.096  32.512  13.683
51993W        W16978  22.236  36.871   3.518
51994W        W16979  22.771  21.268  10.725
51995W        W16980  38.509  18.259  12.852
51996W        W16981  19.923  12.925   2.358
51997W        W16982  32.514  20.691  10.750
51998W        W16983  43.810  31.883  14.447
51999W        W16984   2.735  27.563  13.275
52000W        W16985  41.363  13.344  10.766
52001W        W16986  11.859   7.129  13.279
52002W        W16987  31.508  42.291  12.964
52003W        W16988   5.694  11.887  13.911
52004W        W16989  18.175  11.141   1.175
52005W        W16990  31.138  41.186  12.557
52006W        W16991  44.546  19.631   3.193
52007W        W16992  43.255  44.996  12.763
52008W        W16993   7.291  35.757   0.374
52009W        W16994  22.646  35.051   1.878
52010W        W16995  25.612   0.207   4.145
52011W        W16996  14.788  12.121  11.524
52012W        W16997   4.637   0.289   2.420
52013W        W16998  30.790  22.538   1.816
52014W        W16999  33.899  41.412   4.895
52015W        W17000  11.780   6.853  12.441
52016W        W17001  42.976   8.060   3.696
52017W        W17002  23.217  40.130  10.930
52018W        W17003   7.765  32.148  11.464
52019W        W17004   4.125  20.991   3.401
52020W        W17005  27.532  43.825  10.634
52021W        W17006  25.147   5.717   2.731
52022W        W17007  44.730  17.134   2.855
52023W        W17008  23.445   6.233  10.610
52024W        W17009  12.060  18.559   0.942
52025W        W17010   3.171   1.887  13.256
52026W        W17011  20.610   4.400  13.854
52027W        W17012  12.234   6.871  13.502
52028W        W17013  29.681  41.926   3.289
52029W        W17014  19.250   5.697   3.304
52030W        W17015  17.025  12.869   3.656
52031W        W17016  43.080  33.827  12.230
52032W        W17017   0.721  17.175  14.971
52033W        W17018  23.012  15.023   4.900
52034W        W17019  40.361  35.017  13.872
52035W        W17020  30.385  12.232  12.136
52036W        W17021  10.865  24.607  14.884
52037W        W17022  16.003  23.256   3.281
52038W        W17023  42.022  19.828  14.447
52039W        W17024   3.839  31.049  10.637
52040W        W17025  31.093  36.858  12.086
52041W        W17026  35.606   8.451   2.863
52042W        W17027  14.540  28.112  13.913
52043W        W17028  21.205   6.045  10.069
52044W        W17029  12.313  32.897   4.142
52045W        W17030   4.232  44.939  14.724
52046W        W17031  33.552   7.240   3.595
52047W        W17032  31.443  33.494  12.044
52048W        W17033   6.561  40.104  13.370
52049W        W17034  14.999  36.333   4.347
52050W        W17035  44.411  35.082   3.089
52051W        W17036   1.260   3.480   3.582
52052W        W17037   4.288  41.891  12.874
52053W        W17038  33.732  27.385  14.433
52054W        W17039   5.006   9.757   9.951
52055W        W17040  32.094  16.298   4.639
52056W        W17041  11.799  17.756  12.023
52057W        W17042  40.832  25.763  12.095
52058W        W17043   3.196  12.860  14.244
52059W        W17044   1.069  26.559  14.182
52060W        W17045  12.415   9.351  10.978
52061W        W17046  19.678  21.136  13.854
52062W        W17047  40.512   6.323   0.360
52063W        W17048  14.607  21.171  10.656
52064W        W17049  40.769  40.324  11.264
52065W        W17050  35.357  36.999   4.137
52066W        W17051  35.384   8.211  14.000
52067W        W17052  10.768  15.159  12.078
52068W        W17053  37.350  14.252  11.934
52069W        W17054  18.129  26.964   5.420
52070W        W17055   2.309   4.106  10.930
52071W        W17056  28.127  23.147   1.995
52072W        W17057  27.979  43.695   4.564
52073W        W17058  37.984  44.745   2.470
52074W        W17059  40.782   5.317  14.440
52075W        W17060  25.255   8.079  14.498
52076W        W17061  19.209  36.795   3.491
52077W        W17062   0.503  14.859  10.332
52078W        W17063   7.884  35.377   4.148
52079W        W17064   6.853  16.108  13.484
52080W        W17065  12.237   1.329  10.735
52081W        W17066  37.110   1.114   0.830
52082W        W17067   7.453  19.093  11.168
52083W        W17068  20.102   0.798   3.565
52084W        W17069  31.991   8.771  13.352
52085W        W17070  10.635  19.044  10.797
52086W        W17071  12.275   2.814   4.332
52087W        W17072  25.209  33.995   4.015
52088W        W17073  30.401  21.709  14.257
52089W        W17074  11.396   3.809  14.073
52090W        W17075  11.378  19.521  11.301
52091W        W17076  43.597  37.922   4.333
52092W        W17077  31.455  40.554  14.468
52093W        W17078   8.868  44.561   2.351
52094W        W17079  12.618  40.605   1.762
52095W        W17080  34.089  20.229   1.894
52096W        W17081  42.993   4.006   3.111
52097W        W17082   5.058  35.340   1.248
52098W        W17083  21.515  11.069  10.612
52099W        W17084   3.889  23.568  14.743
52100W        W17085  12.339  21.838   0.735
52101W        W17086   3.194  40.472  13.174
52102W        W17087  29.655  29.023  14.770
52103W        W17088  32.067  40.632   0.448
52104W        W17089  16.579  18.734   4.079
52105W        W17090  22.911  16.072   3.076
52106W        W17091  19.990   6.192   3.376
52107W        W17092   0.696  12.661   4.148
52108W        W17093  21.844  25.607   1.520
52109W        W17094   3.807   0.230  13.363
52110W        W17095  16.601  15.988   4.949
52111W        W17096  10.399  33.993  10.478
52112W        W17097  10.334   1.447   0.471
52113W        W17098  23.897   7.988  11.097
52114W        W17099   1.399  29.644  12.732
52115W        W17100   3.720  12.766  12.062
52116W        W17101  41.471  37.740  11.657
52117W        W17102   7.731  12.878   1.260
52118W        W17103  20.069  33.071  14.907
52119W        W17104  44.983  20.847  14.766
52120W        W17105  43.045  33.784  11.668
52121W        W17106  29.533  38.756   2.676
52122W        W17107  29.938  29.500   2.766
52123W        W17108  33.761  12.268  10.423
52124W        W17109  32.921  44.332  14.491
52125W        W17110   5.655  22.526  14.864
52126W        W17111   7.710   9.086  14.875
52127W        W17112  39.775   8.466  10.625
52128W        W17113  13.177  21.547   0.184
52129W        W17114  28.125  10.151  13.018
52130W        W17115  28.518  42.902  11.895
52131W        W17116  16.375  40.486  12.207
52132W        W17117  43.089  28.692   4.086
52133W        W17118  23.417  11.898  12.043
52134W        W17119  41.452   7.317  14.316
52135W        W17120  13.081   0.905   3.644
52136W        W17121  34.661  19.877   1.338
52137W        W17122  10.954   6.917  13.553
52138W        W17123  32.065  18.392  13.406
52139W        W17124   6.357  20.582  12.634
52140W        W17125   4.581  11.458   2.848
52141W        W17126   3.595   9.325  11.418
52142W        W17127  41.714  17.545   4.262
52143W        W17128  21.649  17.350   3.719
52144W        W17129  26.062  39.316  12.868
52145W        W17130   7.685  29.930  13.929
52146W        W17131  28.711  31.795   4.467
52147W        W17132  30.860  40.894  11.262
52148W        W17133  37.980  18.068  14.777
52149W        W17134  18.998  12.051   4.883
52150W        W17135  14.230  17.568  13.421
52151W        W17136  12.270  31.257  14.976
52152W        W17137  24.750  28.980   1.864
52153W        W17138  21.063   3.963   4.550
52154W        W17139  17.846  40.335   1.581
52155W        W17140  31.016  24.695   4.336
52156W        W17141  18.245  39.897  10.772
52157W        W17142  12.113  40.584   2.821
52158W        W17143  39.766  16.753   3.215
52159W        W17144  27.719  10.792   2.811
52160W        W17145  43.381  23.377   2.262
52161W        W17146  36.103  24.666   0.900
52162W        W17147  43.241  29.588  14.840
52163W        W17148  37.126  23.536  12.118
52164W        W17149  26.569  15.796  12.353
52165W        W17150   7.326  31.089   0.009
52166W        W17151  34.188   4.282   0.780
52167W        W17152  44.172   5.658  11.131
52168W        W17153  21.624   6.658  11.660
52169W        W17154  14.809  19.475  12.549
52170W        W17155  24.438   2.401  14.733
52171W        W17156   8.685  23.015   4.667
52172W        W17157  40.597  17.678  14.958
52173W        W17158  23.664  10.714  14.888
52174W        W17159  39.413  39.979   4.645
52175W        W17160  26.656  20.492  13.946
52176W        W17161  11.819  18.666   3.165
52177W        W17162   1.220   0.083  13.040
52178W        W17163   3.689  31.709  11.513
52179W        W17164  19.992  31.219  14.485
52180W        W17165  40.521  35.800  13.414
52181W        W17166   6.589  22.018  12.376
52182W        W17167   4.817  20.831  10.787
52183W        W17168  41.277  30.929  13.576
52184W        W17169  16.300   8.875   3.675
52185W        W17170   8.729  43.219   0.284
52186W        W17171  33.798  20.637  14.406
52187W        W17172  39.980  27.590  11.932
52188W        W17173  22.408  36.845  14.167
52189W        W17174   1.870  36.031   0.318
52190W        W17175  10.263  36.874   0.755
52191W        W17176  18.269  29.853   4.332
52192W        W17177   1.867  26.688  14.818
52193W        W17178   7.632   6.815   0.352
52194W        W17179   2.343  24.194  14.821
52195W        W17180   8.710   6.352  10.176
52196W        W17181  17.616  21.246   0.398
52197W        W17182  31.922  14.247  14.410
52198W        W17183  18.839  41.032   3.695
52199W        W17184  38.018  18.770   2.265
52200W        W17185   3.132   3.823   0.461
52201W        W17186   6.659   9.618  12.915
52202W        W17187  21.539  28.970   1.322
52203W        W17188   9.323   7.427  13.673
52204W        W17189  34.967  36.986  14.742
52205W        W17190   3.878   4.949   0.097
52206W        W17191  12.582  42.791  14.831
52207W        W17192  10.902   2.481  13.504
52208W        W17193  28.137   4.665  14.033
52209W        W17194  35.837   0.884   3.279
52210W        W17195  14.520  20.687  12.462
52211W        W17196  33.798   3.424   4.811
52212W        W17197   7.657   2.024  10.641
52213W        W17198  44.379   1.049  11.985
52214W        W17199  43.293  41.593   2.201
52215W        W17200  26.594  32.196   3.239
52216W        W17201   6.793  11.399   2.304
52217W        W17202  17.220  28.014   0.011
52218W        W17203  43.092  11.596   1.871
52219W        W17204  20.543   7.683  10.240
52220W        W17205   4.263  41.260   1.655
52221W        W17206  16.436  19.217  11.613
52222W        W17207  10.368   8.788   2.273
52223W        W17208   8.172  43.445  13.445
52224W        W17209  34.687  36.318  11.529
52225W        W17210  21.605  42.812  13.490
52226W        W17211  28.052  42.404   0.096
52227W        W17212  33.881   3.331   0.414
52228W        W17213  35.563  42.000  11.237
52229W        W17214  25.933  13.228   0.834
52230W        W17215   2.885  44.913  12.006
52231W        W17216  33.663  24.617  13.948
52232W        W17217  42.435  31.428   2.748
52233W        W17218  20.068  38.380   4.637
52234W        W17219  27.184  11.655  13.326
52235W        W17220  31.476  17.802  12.093
52236W        W17221   5.270  25.195  13.854
52237W        W17222  20.463  12.334   3.264
52238W        W17223  22.517  42.036   0.259
52239W        W17224  41.360  38.933  13.032
52240W        W17225  19.492  11.825   4.052
52241W        W17226   8.243   2.008   1.220
52242W        W17227  23.145  23.106  10.717
52243W        W17228  21.977   7.891   3.253
52244W        W17229  44.964  15.514  10.719
52245W        W17230  31.184  32.445  14.208
52246W        W17231   3.220  15.928  14.082
52247W        W17232  23.533  15.075   4.084
52248W        W17233  25.159  23.872   3.271
52249W        W17234   7.711  37.838  10.624
52250W        W17235  35.952  12.669  12.872
52251W        W17236  14.181  30.645   0.495
52252W        W17237  13.876  37.614  14.437
52253W        W17238   0.312   5.899  11.624
52254W        W17239  10.205  22.168  14.835
52255W        W17240  14.224  22.991   1.367
52256W        W17241  10.238   5.424   2.264
52257W        W17242   4.712  30.719  12.946
52258W        W17243  14.084  29.653  11.462
52259W        W17244   3.230  30.970   3.103
52260W        W17245  40.007  41.497  14.931
52261W        W17246   0.039  27.771   5.465
52262W        W17247  30.407   0.796   2.306
52263W        W17248  15.499   9.255   2.662
52264W        W17249  25.155  14.344   1.708
52265W        W17250  44.783  26.615  13.513
52266W        W17251  44.381  32.158   1.784
52267W        W17252  35.950  30.215  11.569
52268W        W17253   1.311  43.386  14.534
52269W        W17254   0.813   6.705  12.643
52270W        W17255  11.158  35.070   2.637
52271W        W17256  18.545   6.650  12.525
52272W        W17257  10.388  18.232   4.766
52273W        W17258  37.456  37.033  11.519
52274W        W17259  32.057  30.017  10.550
52275W        W17260  19.993   3.385   0.702
52276W        W17261  24.978  31.364  12.597
52277W        W17262   3.219  17.824   0.744
52278W        W17263  31.109  15.344   0.503
52279W        W17264  38.341   9.751  14.134
52280W        W17265  36.880  31.601   2.305
52281W        W17266  35.520   6.451  14.298
52282W        W17267   0.433  26.408  11.406
52283W        W17268  13.741   1.775   1.406
52284W        W17269  36.396  19.535   2.668
52285W        W17270  10.847  30.430  11.009
52286W        W17271  43.493  34.514  12.467
52287W        W17272  27.560  33.159  13.099
52288W        W17273  40.936   3.636  11.889
52289W        W17274  10.044  13.890   3.530
52290W        W17275   6.168  22.404   3.083
52291W        W17276   9.632  23.802   4.647
52292W        W17277  37.982  33.743   4.848
52293W        W17278   8.811  27.437  11.637
52294W        W17279   0.813  18.506   2.781
52295W        W17280  38.195  10.664   9.655
52296W        W17281  18.013   3.582  13.839
52297W        W17282   4.218  38.926  14.879
52298W        W17283  32.184  31.624  13.455
52299W        W17284  36.095  30.928   4.157
52300W        W17285  24.686   7.909   4.764
52301W        W17286  16.512  28.762   1.958
52302W        W17287   7.887  42.572  10.896
52303W        W17288  31.608  32.025  11.206
52304W        W17289  20.716  26.683   4.665
52305W        W17290  38.650  28.343  11.642
52306W        W17291   2.772  40.766   3.255
52307W        W17292   2.350  21.473   3.577
52308W        W17293  28.696   8.681  14.675
52309W        W17294  36.147  27.956   1.915
52310W        W17295  12.135  42.262  12.933
52311W        W17296  34.389  12.017  12.493
52312W        W17297  12.826  30.650  10.314
52313W        W17298  39.156  20.602   1.817
52314W        W17299  43.874  22.261   3.244
52315W        W17300   7.142  28.586  14.401
52316W        W17301  42.497  40.577   3.315
52317W        W17302  35.838  22.785  10.997
52318W        W17303  29.572  28.707  10.025
52319W        W17304  37.046  28.673   1.380
52320W        W17305  18.704  29.907   4.055
52321W        W17306   3.766  30.669  14.357
52322W        W17307   6.303   2.779  14.960
52323W        W17308  34.017  13.299   4.772
52324W        W17309  17.240  30.295   3.717
52325W        W17310  26.173  38.038   0.894
52326W        W17311  31.938  40.392  10.505
52327W        W17312   9.799  13.311   1.843
52328W        W17313  30.655  35.922  14.524
52329W        W17314  11.818   4.855  13.104
52330W        W17315  23.000  16.878   0.346
52331W        W17316  12.535   6.677   2.474
52332W        W17317  31.171  35.080  14.841
52333W        W17318   4.558  21.578   3.119
52334W        W17319  31.645  42.704   1.452
52335W        W17320  19.339  17.656  11.086
52336W        W17321  39.431  29.106   2.606
52337W        W17322   7.799  22.709  13.353
52338W        W17323  19.796   5.200   3.530
52339W        W17324  36.535  24.676   4.566
52340W        W17325  38.001  19.196  11.600
52341W        W17326  17.673  24.497  13.738
52342W        W17327  35.755  30.529  11.957
52343W        W17328  21.177  26.003  14.240
52344W        W17329   0.097  12.308   3.811
52345W        W17330  32.144   3.309   2.905
52346W        W17331  16.392  10.459   1.440
52347W        W17332  43.854  18.120   5.094
52348W        W17333  25.782   5.334  12.910
52349W        W17334   9.992  23.624  14.961
52350W        W17335  39.414  16.997  14.107
52351W        W17336  19.495  41.241   0.766
52352W        W17337  41.044  18.613   0.015
52353W        W17338   2.888   9.656   0.275
52354W        W17339  24.590   7.187  12.736
52355W        W17340  42.311  32.218  12.840
52356W        W17341  25.161  23.094  14.483
52357W        W17342  27.313  36.594   3.496
52358W        W17343   2.673   8.440  13.572
52359W        W17344   6.747  16.263  10.590
52360W        W17345  42.843  31.645  12.311
52361W        W17346  12.128   8.258  14.529
52362W        W17347  32.166  12.376   3.779
52363W        W17348  15.928   5.692   2.810
52364W        W17349  34.672  43.772   3.866
52365W        W17350  43.487  30.744   5.001
52366W        W17351   9.401  33.393  10.816
52367W        W17352   6.204  28.039  10.764
52368W        W17353   9.606  39.190  11.914
52369W        W17354  44.395  38.316  13.973
52370W        W17355  40.938  28.083   0.367
52371W        W17356   5.526   9.212   1.873
52372W        W17357  17.620  40.780   0.277
52373W        W17358  41.864  31.466   3.853
52374W        W17359  36.309  17.780  11.893
52375W        W17360  31.218  18.047  14.777
52376W        W17361   1.565  17.803   2.069
52377W        W17362   3.753  44.242  14.467
52378W        W17363  14.367  10.578  10.285
52379W        W17364   0.310  18.884   4.597
52380W        W17365  19.411  13.212  12.935
52381W        W17366  13.478   8.693   1.925
52382W        W17367   1.748  13.611  12.068
52383W        W17368  42.411  14.005  11.517
52384W        W17369  17.379  10.688   4.251
52385W        W17370  27.484  38.475  14.965
52386W        W17371  13.417  40.302   3.666
52387W        W17372  25.164  21.266  14.745
52388W        W17373  28.264  26.462  12.502
52389W        W17374  19.769   1.762   4.717
52390W        W17375  18.190  32.968  14.333
52391W        W17376  24.503  19.730   2.753
52392W        W17377  38.910  31.898  11.894
52393W        W17378   7.862  21.607   4.544
52394W        W17379  37.318  22.804  12.966
52395W        W17380  17.177  20.408  10.628
52396W        W17381  34.326  25.741   2.756
52397W        W17382  38.930  10.089   3.720
52398W        W17383   1.086   1.566  12.006
52399W        W17384   7.506  34.936  11.528
52400W        W17385   7.582   7.392   5.092
52401W        W17386  24.445  44.857   1.900
52402W        W17387  42.084  25.813   1.181
52403W        W17388  31.811   2.433  12.255
52404W        W17389  33.032  30.702  10.454
52405W        W17390   7.077  20.325  11.774
52406W        W17391  27.629  18.982  12.505
52407W        W17392  24.677  17.609   3.617
52408W        W17393  29.533  16.571   3.375
52409W        W17394  29.926  34.438   3.583
52410W        W17395  35.649  29.375  13.691
52411W        W17396  25.667  11.124  11.620
52412W        W17397  21.836  40.827  14.874
52413W        W17398  18.242  32.614   2.194
52414W        W17399  37.473  24.097  14.696
52415W        W17400  27.700  43.538   0.379
52416W        W17401  18.831  34.936  12.847
52417W        W17402  32.480   8.268   0.466
52418W        W17403  10.260   1.489  12.982
52419W        W17404   9.805  19.639   3.684
52420W        W17405  14.673  39.426  10.484
52421W        W17406  23.042  44.943  11.155
52422W        W17407  20.193  21.529  14.179
52423W        W17408  33.665  31.043  11.045
52424W        W17409   0.645  41.389  12.417
52425W        W17410  12.250  21.159  13.885
52426W        W17411  24.721   5.405   4.165
52427W        W17412  31.686  22.150  11.880
52428W        W17413  29.959   4.762   2.692
52429W        W17414   7.922  19.173  11.708
52430W        W17415  37.204  33.108  12.089
52431W        W17416   7.730   1.928  13.636
52432W        W17417  10.542  28.432   3.850
52433W        W17418  16.523  36.250   1.089
52434W        W17419  23.016  13.419   2.213
52435W        W17420  19.355   6.770  13.099
52436W        W17421   8.228  16.979  12.497
52437W        W17422  33.521  43.903  11.900
52438W        W17423  39.026   7.089  11.666
52439W        W17424  41.436  43.277   1.015
52440W        W17425   0.958   5.700   3.742
52441W        W17426  30.221  31.477  10.300
52442W        W17427  20.218  44.972   4.090
52443W        W17428  23.179  21.931  12.932
52444W        W17429  19.659   6.216   2.709
52445W        W17430  27.068  21.217   4.200
52446W        W17431  17.309  14.166   1.858
52447W        W17432  22.438   2.423   0.832
52448W        W17433  23.015   7.787   2.359
52449W        W17434  15.868   5.318  13.137
52450W        W17435   3.894  26.003  13.832
52451W        W17436  36.606  41.789   1.308
52452W        W17437   1.663  44.971  10.944
52453W        W17438   1.286  30.741   1.352
52454W        W17439  14.979  23.031  13.042
52455W        W17440  41.542  27.985   1.399
52456W        W17441  13.790  41.027  12.387
52457W        W17442   1.203   3.090   1.443
52458W        W17443  32.328  22.957   1.352
52459W        W17444  10.765  41.282   0.702
52460W        W17445  38.457  34.930  10.023
52461W        W17446  35.421   0.764  14.768
52462W        W17447  12.187   0.548  14.952
52463W        W17448  25.021   5.550  10.480
52464W        W17449  28.539  13.662  13.474
52465W        W17450  14.350  15.736   5.026
52466W        W17451  13.211  31.407   4.522
52467W        W17452  10.768  16.650   3.227
52468W        W17453   0.976  27.556   4.637
52469W        W17454  10.655  20.858   2.696
52470W        W17455  26.869   0.634   5.041
52471W        W17456   5.478  34.847  12.340
52472W        W17457  36.061  29.106  13.474
52473W        W17458   9.934  37.937   3.545
52474W        W17459   0.241   5.084  11.114
52475W        W17460   7.909  26.099  14.598
52476W        W17461  26.252  17.314   1.796
52477W        W17462   1.223  10.618  10.708
52478W        W17463   9.709  37.929   2.530
52479W        W17464  24.191  28.443   0.489
52480W        W17465   7.580  19.103  12.084
52481W        W17466   3.169  21.107   5.115
52482W        W17467  15.650  43.792   0.707
52483W        W17468  28.186   8.316  12.993
52484W        W17469  30.940  16.066  13.874
52485W        W17470   0.406  11.343   2.264
52486W        W17471  33.646  11.170   1.831
52487W        W17472  32.606  38.195  12.044
52488W        W17473   3.418  26.743  14.882
52489W        W17474  22.451  15.569   0.282
52490W        W17475  28.502  28.727   1.134
52491W        W17476  28.949  23.178   4.184
52492W        W17477   7.242  16.804  13.815
52493W        W17478  35.805  18.729  14.346
52494W        W17479  22.498   2.742   2.879
52495W        W17480  20.795   5.165   0.816
52496W        W17481  37.048  41.328  13.898
52497W        W17482   8.170  43.753   0.832
52498W        W17483  16.434  40.033   3.799
52499W        W17484   0.266  21.560  11.120
52500W        W17485  35.783   4.150   1.748
52501W        W17486  19.463  10.630  13.379
52502W        W17487  18.384  16.695  13.088
52503W        W17488  29.216  34.211  11.399
52504W        W17489   5.879  42.245   4.310
52505W        W17490  35.496   9.329  13.051
52506W        W17491   7.160  20.647   4.139
52507W        W17492  10.089   6.008  14.290
52508W        W17493  32.134  18.290   1.387
52509W        W17494  13.722   0.344  12.324
52510W        W17495  30.528  26.230   1.835
52511W        W17496   6.999  28.703   3.148
52512W        W17497  17.692  10.355   1.974
52513W        W17498  28.469  39.441   3.093
52514W        W17499  43.834   6.650   3.288
52515W        W17500  44.321   0.397  12.530
52516W        W17501  25.076  24.967   0.408
52517W        W17502   6.204  41.629  14.961
52518W        W17503  28.504   5.700   2.137
52519W        W17504   8.622  40.335  12.931
52520W        W17505  36.650  17.581   4.872
52521W        W17506   6.879  18.705  14.177
52522W        W17507  25.703  32.936  13.948
52523W        W17508  16.698   9.359  11.164
52524W        W17509  36.942  34.452  11.961
52525W        W17510  36.187  30.662   2.916
52526W        W17511  15.804  30.102  13.605
52527W        W17512  44.628  23.657   9.905
52528W        W17513  15.575  43.818   1.229
52529W        W17514  30.015  29.208   1.010
52530W        W17515  35.900  40.975  14.366
52531W        W17516  35.893   1.199   4.470
52532W        W17517  13.129  21.496  13.018
52533W        W17518  37.486  22.701   5.082
52534W        W17519  30.524  43.688   2.399
52535W        W17520  19.503  21.192  10.350
52536W        W17521  18.817  18.173   3.095
52537W        W17522  43.322  29.614  13.858
52538W        W17523  36.531  22.447  11.216
52539W        W17524  42.865  30.667   1.484
52540W        W17525  36.871  11.184  11.638
52541W        W17526   8.645  22.129   3.388
52542W        W17527   1.770  36.605   1.388
52543W        W17528  11.117   9.299  13.994
52544W        W17529  15.369  17.325   4.477
52545W        W17530  42.039  19.520   1.960
52546W        W17531   7.314  30.686   3.672
52547W        W17532  34.953  41.372   3.280
52548W        W17533  34.534  34.474   3.180
52549W        W17534  33.671  12.622  11.471
52550W        W17535  15.240  33.146   3.579
52551W        W17536  39.890  20.731   3.701
52552W        W17537  34.385  34.431  12.099
52553W        W17538  20.503  35.258   1.351
52554W        W17539   5.906  18.578  12.166
52555W        W17540  29.944  34.023   3.897
52556W        W17541  41.306  13.802   1.470
52557W        W17542  43.709  43.853   4.025
52558W        W17543  30.158   0.375  14.044
52559W        W17544   8.771  36.894   4.299
52560W        W17545  19.726  10.430  11.235
52561W        W17546  31.065  25.649   3.937
52562W        W17547  15.879   8.812  10.776
52563W        W17548  25.617  35.830  13.375
52564W        W17549  33.350  11.729  13.884
52565W        W17550  35.421  27.138  14.909
52566W        W17551  40.497   8.947   4.147
52567W        W17552  39.595  38.692   5.230
52568W        W17553  37.886  23.984   4.273
52569W        W17554  21.087  32.480   4.038
52570W        W17555  21.019  33.134   1.378
52571W        W17556  35.894  20.917   2.161
52572W        W17557  13.795  44.978  13.422
52573W        W17558  17.500   1.751   0.780
52574W        W17559  44.712  39.897  12.039
52575W        W17560   9.034  13.169  14.290
52576W        W17561  13.698  26.902   1.319
52577W        W17562  39.972   5.620  12.822
52578W        W17563  34.724  13.900  12.556
52579W        W17564  28.693  38.866  12.921
52580W        W17565  19.148  36.369   4.375
52581W        W17566  20.496  26.275   3.257
52582W        W17567  38.847  37.109  10.789
52583W        W17568   2.351  16.729  12.611
52584W        W17569  19.682   4.161   4.284
52585W        W17570   7.904   8.325   1.361
52586W        W17571  32.562  27.505  12.878
52587W        W17572  33.613  18.117  13.191
52588W        W17573  40.410  38.277  11.528
52589W        W17574   4.728  31.342   4.354
52590W        W17575  34.408  42.698   4.566
52591W        W17576  30.403  18.552  14.841
52592W        W17577  31.598  43.768  12.005
52593W        W17578  17.766  15.605  13.102
52594W        W17579  28.156  38.371  13.535
52595W        W17580   7.904  36.947  11.302
52596W        W17581  38.465  13.091   0.714
52597W        W17582  24.667  20.543  13.932
52598W        W17583  26.244  25.144  12.892
52599W        W17584   7.957  34.523   1.926
52600W        W17585  25.461  22.572  13.294
52601W        W17586   8.713  40.398   1.448
52602W        W17587   7.960   2.969  12.474
52603W        W17588  35.172  39.941  13.870
52604W        W17589  13.818  18.205   2.341
52605W        W17590  15.885   3.674   0.722
52606W        W17591  15.192   0.943  13.258
52607W        W17592  13.407  31.953  14.993
52608W        W17593  28.518  39.362   1.274
52609W        W17594  40.763  21.181   2.303
52610W        W17595  12.082  13.561  11.741
52611W        W17596   5.445   8.822  14.609
52612W        W17597   1.509  13.657  12.557
52613W        W17598  11.329  17.074  12.051
52614W        W17599  16.364  34.575   3.331
52615W        W17600  26.205   2.418   1.258
52616W        W17601  19.021   0.338   0.893
52617W        W17602  30.431   8.853  14.940
52618W        W17603  38.050   1.680  11.593
52619W        W17604  38.345  13.727  11.383
52620W        W17605   1.726  22.975   0.468
52621W        W17606  19.236  33.850   3.109
52622W        W17607   6.130  25.644  13.877
52623W        W17608  42.327   1.865  12.675
52624W        W17609  42.448  32.860  10.821
52625W        W17610  10.839  19.264   0.726
52626W        W17611  10.354  11.148  10.845
52627W        W17612  37.941  36.870   3.992
52628W        W17613  22.143  11.863   2.174
52629W        W17614  41.858  24.617   2.441
52630W        W17615   8.267  24.659   3.424
52631W        W17616  36.055  18.891  10.857
52632W        W17617  33.958  13.587   2.361
52633W        W17618  18.638  26.544  11.252
52634W        W17619  21.505  15.025  11.599
52635W        W17620  18.357  10.115   3.906
52636W        W17621  16.711  11.117  11.380
52637W        W17622  26.622   1.827   2.586
52638W        W17623  15.255  11.137  11.827
52639W        W17624  16.095  35.907  14.424
52640W        W17625  23.003  17.069   1.315
52641W        W17626  26.615  23.825  11.455
52642W        W17627  39.809  23.048  14.401
52643W        W17628  37.512   1.193  13.540
52644W        W17629  34.913   2.886   2.555
52645W        W17630   9.867  20.582   0.431
52646W        W17631  34.246  40.858  12.041
52647W        W17632   9.354  14.535  11.118
52648W        W17633  31.700  15.186  13.329
52649W        W17634  21.486  28.445   0.814
52650W        W17635  34.837  37.936   2.393
52651W        W17636  21.570   7.525   4.601
52652W        W17637  26.561  28.129  14.779
52653W        W17638   2.875   7.140  12.208
52654W        W17639  14.122  33.523   2.655
52655W        W17640  13.719  42.379   0.923
52656W        W17641   8.680   8.781  14.037
52657W        W17642  27.657  33.806  14.237
52658W        W17643  19.348  40.046  14.404
52659W        W17644   4.483  26.384  14.401
52660W        W17645   5.324  30.390   1.428
52661W        W17646  20.054   0.519   1.746
52662W        W17647  36.833  41.302  11.233
52663W        W17648  10.742  13.351  12.330
52664W        W17649  39.457  36.503   2.110
52665W        W17650  35.966  28.356   4.524
52666W        W17651   6.718  18.656   0.490
52667W        W17652   1.685  22.593   2.021
52668W        W17653  23.988  20.581   5.285
52669W        W17654   6.662  29.376   1.837
52670W        W17655  25.705   4.863   2.630
52671W        W17656   4.278   5.674   2.292
52672W        W17657  24.047  13.348   1.488
52673W        W17658   0.840  12.078  12.889
52674W        W17659   4.474  22.759  13.172
52675W        W17660  41.305  12.250  12.520
52676W        W17661  36.293   3.926   4.122
52677W        W17662  22.933  26.486  12.359
52678W        W17663   6.159  31.863   3.086
52679W        W17664  26.085  36.131  14.009
52680W        W17665  24.070   9.411  12.971
52681W        W17666  41.401  38.790   4.677
52682W        W17667  38.079   1.401   0.914
52683W        W17668  20.153  19.948   4.609
52684W        W17669  35.331  32.023   2.785
52685W        W17670   3.342  28.274   5.012
52686W        W17671  12.349   2.842   0.395
52687W        W17672  11.483  41.492   0.123
52688W        W17673  25.612   7.634  12.636
52689W        W17674  13.086  22.927  12.195
52690W        W17675  32.501  13.622   3.461
52691W        W17676  38.008  11.762  12.071
52692W        W17677  19.121  36.205  12.103
52693W        W17678  36.634   4.747   3.140
52694W        W17679  17.232  19.806  11.322
52695W        W17680  31.089   6.293  11.844
52696W        W17681  18.700   2.896  14.190
52697W        W17682  36.078   1.828  13.758
52698W        W17683  19.456  43.839   4.133
52699W        W17684   5.118  36.107  11.043
52700W        W17685  10.924  10.158  11.215
52701W        W17686  34.565  25.411   3.929
52702W        W17687  26.313   6.205   0.414
52703W        W17688  11.422  20.323   1.795
52704W        W17689  36.995  12.403  13.396
52705W        W17690  24.502  11.902  10.756
52706W        W17691  37.594  15.328  14.901
52707W        W17692  36.617  39.327   0.692
52708W        W17693  20.409  34.639   2.711
52709W        W17694  36.337  13.148  12.113
52710W        W17695   9.303  30.908  13.368
52711W        W17696  34.956  19.329  11.026
52712W        W17697  29.686  35.998   3.092
52713W        W17698  15.102  35.370   0.348
52714W        W17699   3.617  13.081  13.913
52715W        W17700  33.989  30.990   1.113
52716W        W17701  22.812  32.737   1.074
52717W        W17702  11.031  15.031   3.743
52718W        W17703  18.226  30.902  13.038
52719W        W17704  20.322   0.229   2.736
52720W        W17705  18.869  15.352   4.821
52721W        W17706  14.189  14.170   2.250
52722W        W17707   5.893  37.590  12.842
52723W        W17708  24.171  35.926   4.687
52724W        W17709  38.880  35.762  14.528
52725W        W17710   9.607  21.554  11.672
52726W        W17711   6.249  22.642   0.775
52727W        W17712   9.288  13.131  14.948
52728W        W17713  34.231  11.349   1.354
52729W        W17714   3.835  39.368  11.890
52730W        W17715  23.252   4.155   0.810
52731W        W17716  11.735   6.361   2.734
52732W        W17717   9.307  11.308   1.481
52733W        W17718  16.521  17.049   0.797
52734W        W17719  41.366  14.356  10.869
52735W        W17720  18.853  14.814   4.693
52736W        W17721   3.859   6.517  10.150
52737W        W17722  15.262  33.439   3.163
52738W        W17723  15.410   2.771   4.105
52739W        W17724  37.082   4.477   4.033
52740W        W17725  14.572  17.956  13.489
52741W        W17726   6.191  17.240  11.165
52742W        W17727  38.884  19.021   2.451
52743W        W17728  25.121   4.846  12.518
52744W        W17729  18.603  23.530   0.440
52745W        W17730  18.540  35.464  13.492
52746W        W17731  18.467   9.004   2.744
52747W        W17732  15.707   2.699   9.833
52748W        W17733  17.291  30.466   2.200
52749W        W17734   8.418  37.814  13.378
52750W        W17735  30.079   7.334  12.389
52751W        W17736  21.263  15.736  11.217
52752W        W17737  18.428  41.705   2.151
52753W        W17738  19.816  16.706  13.228
52754W        W17739  43.263  20.864   0.432
52755W        W17740   9.835   8.901   2.153
52756W        W17741  14.153   6.471   4.803
52757W        W17742  44.999  17.617   0.391
52758W        W17743  36.895  32.606   2.339
52759W        W17744  20.265  44.876  14.895
52760W        W17745  44.483  20.588   3.335
52761W        W17746  32.296  11.748  10.628
52762W        W17747  12.713   4.963  14.209
52763W        W17748  27.577  38.877  11.419
52764W        W17749  13.562   7.808   1.024
52765W        W17750   9.010  35.557   3.028
52766W        W17751   4.917  35.215   3.643
52767W        W17752  30.913   1.440  11.072
52768W        W17753  31.975  28.373   4.273
52769W        W17754  12.158  33.258   3.709
52770W        W17755  32.944  11.048   0.421
52771W        W17756  22.494  18.996   1.608
52772W        W17757  25.639  30.044  12.570
52773W        W17758  25.655  10.570  12.895
52774W        W17759  24.662  22.080  13.095
52775W        W17760   4.996  40.918  13.420
52776W        W17761  37.024  28.594   2.229
52777W        W17762  10.548   2.924  13.622
52778W        W17763  18.051  33.608  13.508
52779W        W17764   1.831   3.655  11.605
52780W        W17765  27.079  41.810  11.157
52781W        W17766  17.017   6.208   3.220
52782W        W17767   1.965   6.497   3.666
52783W        W17768  24.463   0.425   0.110
52784W        W17769  16.324  26.694   4.110
52785W        W17770  15.062  36.346   2.245
52786W        W17771   3.903  31.852   2.794
52787W        W17772  11.074  38.910   1.483
52788W        W17773  41.948   8.837   2.429
52789W        W17774  13.574  38.329   0.787
52790W        W17775  12.580   9.379  12.663
52791W        W17776   7.503  44.813   1.317
52792W        W17777  36.916  44.082  14.912
52793W        W17778  20.609  38.555  12.079
52794W        W17779  30.856  20.083  12.025
52795W        W17780  17.597  14.553   4.646
52796W        W17781   9.705  11.155   1.800
52797W        W17782  16.915  36.549  13.047
52798W        W17783  40.659  28.574   5.023
52799W        W17784  13.131  40.594   1.855
52800W        W17785   9.400   2.616  14.480
52801W        W17786  44.936  40.540  11.139
52802W        W17787  29.974  27.391  13.807
52803W        W17788  42.853  32.542   2.282
52804W        W17789   1.082   7.176  14.377
52805W        W17790  16.548  39.302  10.776
52806W        W17791  33.339   0.314  13.011
52807W        W17792  13.825  36.556   2.528
52808W        W17793  37.559  13.674  13.402
52809W        W17794  44.758   7.696   0.796
52810W        W17795  24.586  26.158   0.713
52811W        W17796  31.382   8.847   2.695
52812W        W17797  33.515  20.800   3.761
52813W        W17798  24.234  37.980  10.735
52814W        W17799  40.269  24.013  14.357
52815W        W17800  17.118   4.926   1.108
52816W        W17801  44.366  25.958  12.460
52817W        W17802  33.493   3.027   5.000
52818W        W17803  39.135   2.283   2.945
52819W        W17804   2.997  16.787   2.331
52820W        W17805  28.162   8.215  12.103
52821W        W17806  17.197  42.499   1.332
52822W        W17807  24.549  29.550  13.905
52823W        W17808   4.210  27.527   2.631
52824W        W17809  34.886  41.837   2.179
52825W        W17810  12.442   6.483   0.726
52826W        W17811  36.397  30.607  13.464
52827W        W17812   1.895  30.878   0.371
52828W        W17813   9.274  26.961   4.111
52829W        W17814  37.975  34.557  13.611
52830W        W17815   3.369  11.311   3.171
52831W        W17816  23.915  31.546   0.378
52832W        W17817  38.752  42.277  14.720
52833W        W17818   4.430  13.056  10.985
52834W        W17819  16.167  19.460   4.471
52835W        W17820   1.005  29.309  11.078
52836W        W17821  41.547  19.495   1.773
52837W        W17822  30.063   8.845  12.096
52838W        W17823  31.978  24.143   0.491
52839W        W17824   0.104  29.878   2.529
52840W        W17825  35.854  23.539  12.987
52841W        W17826  34.924  12.785   4.145
52842W        W17827  13.669  25.559  12.202
52843W        W17828  33.942  22.058  10.492
52844W        W17829   4.160  10.744  13.731
52845W        W17830  31.041  29.154  14.798
52846W        W17831  17.043  23.485   2.700
52847W        W17832   2.759   6.045   1.850
52848W        W17833   2.258   0.933  12.758
52849W        W17834  44.407  14.644  14.710
52850W        W17835   6.810  16.739   4.796
52851W        W17836  43.061  35.108  11.964
52852W        W17837  21.683  42.659   0.378
52853W        W17838  41.089  18.657   0.551
52854W        W17839  44.984  17.339  10.219
52855W        W17840   6.038  42.331  11.800
52856W        W17841  37.328   9.207  14.898
52857W        W17842   2.008  33.010  10.576
52858W        W17843  10.132   6.413   0.919
52859W        W17844  40.923   5.790   1.335
52860W        W17845   8.859   7.995   2.190
52861W        W17846  35.145   2.866  14.090
52862W        W17847  37.585  28.266   1.837
52863W        W17848   9.397  17.793   0.004
52864W        W17849  39.388  10.337  12.053
52865W        W17850  18.016  41.544   3.161
52866W        W17851  23.272   9.165   4.222
52867W        W17852  27.633  24.380   2.862
52868W        W17853  18.659  39.436   0.711
52869W        W17854  16.752  28.787   4.948
52870W        W17855   5.668  35.588  14.102
52871W        W17856   0.272  26.220   2.390
52872W        W17857  38.108  36.866  10.258
52873W        W17858   4.335  28.622  12.639
52874W        W17859  44.579  13.836   4.683
52875W        W17860   6.924  11.849  11.980
52876W        W17861  40.712  28.915   2.699
52877W        W17862  33.590  14.977   1.618
52878W        W17863  40.053  24.090   3.638
52879W        W17864   2.992  13.971   0.782
52880W        W17865  38.576  30.078   3.792
52881W        W17866  36.401  11.977   0.825
52882W        W17867  17.369  25.494   0.623
52883W        W17868  33.790  28.446   2.449
52884W        W17869  36.121  11.774  13.297
52885W        W17870  41.758  10.783   4.030
52886W        W17871  12.641  39.788   1.501
52887W        W17872   5.511   2.798  14.326
52888W        W17873  41.382   6.389  12.086
52889W        W17874  14.285  20.693  13.606
52890W        W17875  43.193  18.758   3.257
52891W        W17876   1.959  19.694  10.650
52892W        W17877  41.530  38.752   3.709
52893W        W17878  15.800  20.794  11.200
52894W        W17879  11.607  24.945   2.389
52895W        W17880  26.823  44.240  11.530
52896W        W17881  30.225   6.378   3.993
52897W        W17882  41.772   2.031  10.125
52898W        W17883  10.344  29.594   4.467
52899W        W17884  11.553  20.251   4.241
52900W        W17885  39.917   2.248  10.547
52901W        W17886  38.303   1.852   1.853
52902W        W17887   3.747  21.747   4.593
52903W        W17888  18.317  18.155   3.160
52904W        W17889  32.569  12.215   3.432
52905W        W17890  41.811  37.472   3.429
52906W        W17891  33.844  20.661   3.323
52907W        W17892   4.628  17.433  14.287
52908W        W17893  13.122  18.770  13.429
52909W        W17894  10.330  18.695   1.350
52910W        W17895   3.297  27.578  12.030
52911W        W17896  35.759   5.875   1.386
52912W        W17897  18.588  15.004  13.453
52913W        W17898  25.964   8.162   3.664
52914W        W17899   7.188  39.131   4.541
52915W        W17900  10.984  16.720   0.685
52916W        W17901  30.445  33.899   0.687
52917W        W17902  16.162  24.688  13.915
52918W        W17903   3.546  23.585   2.548
52919W        W17904  25.729  36.083   0.527
52920W        W17905   5.327  25.098   4.678
52921W        W17906  21.512  17.973   3.684
52922W        W17907  23.192  18.968   4.174
52923W        W17908  15.562   0.000  13.011
52924W        W17909  17.327   1.849   4.235
52925W        W17910   7.495  33.304   2.218
52926W        W17911  25.481  34.120  14.005
52927W        W17912  20.071  36.083   4.696
52928W        W17913  39.577  15.133   2.316
52929W        W17914  14.536   5.443   4.227
52930W        W17915  44.934  12.891  13.463
52931W        W17916  25.989  35.902  11.174
52932W        W17917  37.299  10.804  14.484
52933W        W17918  21.503  34.022   3.432
52934W        W17919  25.540  33.979   2.824
52935W        W17920  27.550  12.552   2.341
52936W        W17921  42.936  23.552  12.038
52937W        W17922   4.796  30.253   2.650
52938W        W17923  30.014  15.397   2.994
52939W        W17924  40.560   2.887  12.156
52940W        W17925   5.495  35.345  12.162
52941W        W17926  30.163   2.332  13.989
52942W        W17927  34.820   4.308   1.656
52943W        W17928  38.485  40.307   4.234
52944W        W17929  21.464   5.706   3.743
52945W        W17930  20.568  38.052  11.546
52946W        W17931  39.848   7.096  13.183
52947W        W17932  22.478   9.186  10.716
52948W        W17933  29.036   5.678   0.835
52949W        W17934  34.455   2.714  11.257
52950W        W17935  34.681   9.316  14.239
52951W        W17936  24.732  10.902  13.483
52952W        W17937  25.023  33.856  12.602
52953W        W17938  43.591  14.620  13.834
52954W        W17939  33.229  22.477  12.435
52955W        W17940  23.299   1.877   1.432
52956W        W17941  23.452  34.441   1.225
52957W        W17942  12.799   9.327  13.597
52958W        W17943  33.644  34.572  13.489
52959W        W17944  28.651  33.426   0.290
52960W        W17945  35.624  11.051   0.710
52961W        W17946  16.669   0.760   1.425
52962W        W17947   0.526  31.660  14.685
52963W        W17948  19.610  42.019   2.832
52964W        W17949   4.427   6.715  13.912
52965W        W17950  27.819  24.944   2.296
52966W        W17951  16.503  19.384   1.197
52967W        W17952  33.119  19.557  14.340
52968W        W17953  26.442  14.803   4.642
52969W        W17954  16.865  28.296   1.275
52970W        W17955   1.192  33.250  11.594
52971W        W17956  42.362  25.637  13.971
52972W        W17957  14.284   7.220   0.607
52973W        W17958  37.617  29.684  12.074
52974W        W17959  12.595   9.318  14.061
52975W        W17960  15.834  39.272   1.224
52976W        W17961  41.910  29.124  11.623
52977W        W17962  38.485  20.954  13.800
52978W        W17963  35.889  28.650   4.114
52979W        W17964  27.269   4.358  11.230
52980W        W17965  28.197  31.099   1.357
52981W        W17966  39.407  15.328   1.830
52982W        W17967   0.419  27.910  12.961
52983W        W17968  13.247  44.336  12.820
52984W        W17969  42.023  23.059  12.934
52985W        W17970  13.495  37.564   1.395
52986W        W17971   3.025  27.176  12.778
52987W        W17972  39.841  33.380  13.784
52988W        W17973  20.228  37.582   2.050
52989W        W17974  39.655   4.223  14.500
52990W        W17975   4.196  29.104   3.715
52991W        W17976   0.727  44.851   4.273
52992W        W17977   6.774   2.635   3.604
52993W        W17978  25.641  11.660  12.369
52994W        W17979  12.170  33.336  13.745
52995W        W17980  30.469  15.295   4.343
52996W        W17981  17.363  29.594   1.242
52997W        W17982  11.538  39.016  13.151
52998W        W17983  38.707  18.655  12.036
52999W        W17984  20.981   8.139  12.241
53000W        W17985  13.755  21.689   4.863
53001W        W17986  30.006  18.833  10.888
53002W        W17987   2.977  23.499  11.615
53003W        W17988  20.587  39.783   3.648
53004W        W17989   3.795   7.864   0.719
53005W        W17990  25.358  10.131   0.739
53006W        W17991   5.434  31.745  14.921
53007W        W17992  38.358  26.600  14.250
53008W        W17993  33.028   5.640   5.456
53009W        W17994   2.320  22.957   3.763
53010W        W17995   6.227  37.533  10.631
53011W        W17996  44.661  11.416   4.896
53012W        W17997  22.595   2.297   3.652
53013W        W17998  19.196  28.599   4.567
53014W        W17999  30.144   4.825  13.783
53015W        W18000  33.934  23.125  11.432
53016W        W18001  18.754   3.034  11.319
53017W        W18002  43.050   8.912  14.973
53018W        W18003  42.042  12.885   1.210
53019W        W18004  42.808  35.045  14.739
53020W        W18005  36.857  13.687   1.692
53021W        W18006  23.860  31.076   3.581
53022W        W18007  10.803  39.307  12.730
53023W        W18008  30.914  36.585  12.896
53024W        W18009  34.551   0.675   4.955
53025W        W18010  10.886  18.760  11.168
53026W        W18011  11.886  14.193  12.846
53027W        W18012  40.436  10.327   3.602
53028W        W18013   2.556   4.168  12.060
53029W        W18014  32.584  41.770  14.811
53030W        W18015  36.945  42.569   1.482
53031W        W18016  43.085  38.065  13.369
53032W        W18017   0.216  41.789  11.564
53033W        W18018  44.813  12.845   2.199
53034W        W18019   7.379  16.532  14.250
53035W        W18020  27.608   3.707   2.046
53036W        W18021  11.234   0.914   1.374
53037W        W18022  43.446  40.109  14.913
53038W        W18023  23.663  15.610  12.717
53039W        W18024  42.107  17.357   0.645
53040W        W18025  32.930  37.634  10.396
53041W        W18026   1.894  43.441   1.729
53042W        W18027  40.387  26.007   1.572
53043W        W18028  23.540  37.910   1.737
53044W        W18029  35.466  21.572   0.912
53045W        W18030  14.662   8.342   2.267
53046W        W18031  35.084  14.214   3.562
53047W        W18032  11.742  37.372  12.410
53048W        W18033  11.804  33.111   2.223
53049W        W18034  16.501   4.316   4.026
53050W        W18035  11.261  17.746   4.992
53051W        W18036  30.217   8.350   2.726
53052W        W18037  36.601  29.593   4.576
53053W        W18038  25.585  14.178   0.954
53054W        W18039   7.609  14.713   3.010
53055W        W18040  38.278  17.823   4.304
53056W        W18041  35.847  31.429   4.154
53057W        W18042  29.462  42.568  11.580
53058W        W18043  31.990   7.711  13.017
53059W        W18044  29.641  17.917  13.991
53060W        W18045   1.357  32.512  11.080
53061W        W18046  35.390  32.761  12.990
53062W        W18047  44.712  22.568  12.599
53063W        W18048  36.449  16.540  12.100
53064W        W18049  32.890  14.579  13.319
53065W        W18050  38.560  17.326   2.043
53066W        W18051  11.900  27.498  13.892
53067W        W18052  26.921  15.805  14.692
53068W        W18053  26.751  25.191   2.229
53069W        W18054  28.056  18.093   3.907
53070W        W18055  42.544   7.815   3.604
53071W        W18056   4.401  35.572  11.554
53072W        W18057  42.296  35.081  14.908
53073W        W18058   6.249  33.004  14.135
53074W        W18059   2.333  35.503   1.779
53075W        W18060  37.315   8.716   4.626
53076W        W18061  36.840  28.101   2.201
53077W        W18062  13.297  12.731   1.168
53078W        W18063   6.668  17.623   1.332
53079W        W18064  44.509   3.875   1.888
53080W        W18065  25.503  12.039   2.664
53081W        W18066  10.133  20.294  12.006
53082W        W18067  35.770  18.224   0.455
53083W        W18068   0.318  17.967  11.721
53084W        W18069  19.821  34.474  13.591
53085W        W18070  10.228  44.562   2.737
53086W        W18071  12.730  36.973  12.611
53087W        W18072  28.009  18.313   1.326
53088W        W18073  22.771  12.706  11.146
53089W        W18074  36.628  14.199   2.191
53090W        W18075  19.360  35.626  13.107
53091W        W18076  36.895   8.515   0.678
53092W        W18077  34.591  43.048  10.445
53093W        W18078   0.838  28.310   4.170
53094W        W18079  42.015   9.460  13.892
53095W        W18080  22.229   2.008   3.902
53096W        W18081  15.192  11.757  12.908
53097W        W18082  15.933   5.192  12.286
53098W        W18083  29.545  29.799  11.072
53099W        W18084  37.750  30.144  11.864
53100W        W18085  42.432  39.617   2.198
53101W        W18086  15.542  26.367   0.475
53102W        W18087  33.590  26.636   4.505
53103W        W18088  32.370  41.820  11.598
53104W        W18089  17.132  41.866  14.834
53105W        W18090  17.267   2.256  13.342
53106W        W18091  42.025   1.875  13.953
53107W        W18092  23.689   7.264   4.070
53108W        W18093   4.971  34.121   0.502
53109W        W18094  14.873  12.835  14.894
53110W        W18095  33.974  20.525   3.788
53111W        W18096  15.495  25.180   0.979
53112W        W18097   7.112   6.669  11.701
53113W        W18098  13.641   9.249   4.933
53114W        W18099  42.580  25.378   3.142
53115W        W18100   6.788   0.168  11.745
53116W        W18101   2.768  35.111  13.436
53117W        W18102   7.353  36.896   3.842
53118W        W18103   9.294  37.991  13.149
53119W        W18104  26.611  32.796  11.585
53120W        W18105  18.075  12.065   0.850
53121W        W18106  19.177  30.566   0.933
53122W        W18107   1.314  11.829   0.851
53123W        W18108  21.304  20.091   0.780
53124W        W18109   7.840  41.907   4.124
53125W        W18110  36.300  44.265  12.873
53126W        W18111  42.191  27.616  12.025
53127W        W18112  28.465  29.140   2.379
53128W        W18113  26.154  15.544  12.486
53129W        W18114  15.205  33.679   4.798
53130W        W18115  13.804  20.857   2.765
53131W        W18116  10.684   1.317   4.968
53132W        W18117  17.118  19.145  10.695
53133W        W18118   2.826  21.767  12.972
53134W        W18119  38.898  32.212  10.550
53135W        W18120  30.890  44.077  12.938
53136W        W18121  13.691  18.451  12.393
53137W        W18122  29.954  35.800   3.759
53138W        W18123   6.598  17.819   2.864
53139W        W18124  10.669  38.376  14.321
53140W        W18125   6.414   2.502   4.449
53141W        W18126   7.164  39.983   4.186
53142W        W18127   3.588  15.324  12.645
53143W        W18128  11.373  19.523   3.534
53144W        W18129  39.993  19.283   2.721
53145W        W18130  19.460  15.187   4.142
53146W        W18131  28.107  33.881   0.573
53147W        W18132  30.190   1.282   2.291
53148W        W18133   4.071  13.715  14.393
53149W        W18134  20.710  10.339  11.444
53150W        W18135  44.050  43.369   2.379
53151W        W18136  22.521  18.555  13.449
53152W        W18137  15.030  32.202  13.861
53153W        W18138  42.275  19.161   0.284
53154W        W18139  42.588  44.471   2.899
53155W        W18140   4.944   7.189   0.346
53156W        W18141  31.153  27.687  12.934
53157W        W18142  26.987  37.926   3.396
53158W        W18143   2.497  11.840   2.798
53159W        W18144   0.797  13.841   1.326
53160W        W18145   1.238  33.095   3.219
53161W        W18146  30.080   5.216  10.936
53162W        W18147   1.729   3.257  11.095
53163W        W18148  28.917  29.324  10.554
53164W        W18149  39.291  16.398  11.583
53165W        W18150  31.124  25.753  14.079
53166W        W18151   5.478  44.253   3.136
53167W        W18152  29.645  31.600   9.733
53168W        W18153  44.581  14.426   2.801
53169W        W18154   8.746  34.906  12.524
53170W        W18155   4.405  22.151  10.419
53171W        W18156   9.074  40.425  11.156
53172W        W18157   6.417  13.200   4.337
53173W        W18158  27.129  37.839   3.926
53174W        W18159   8.898  13.237  12.112
53175W        W18160  37.303   9.212  11.342
53176W        W18161  19.171  10.574  11.168
53177W        W18162   2.765  11.786   3.244
53178W        W18163  28.804  40.816   1.877
53179W        W18164  27.630  39.762  10.902
53180W        W18165   7.580  43.230   4.023
53181W        W18166   6.879  17.423   3.118
53182W        W18167  16.782  34.358  12.458
53183W        W18168  16.606  18.266  10.795
53184W        W18169  22.464  33.318   2.769
53185W        W18170   7.882  21.566   0.706
53186W        W18171   8.875  42.959   2.902
53187W        W18172  17.563  16.297   0.784
53188W        W18173  17.712  38.926  14.403
53189W        W18174  34.285   3.315   4.946
53190W        W18175  24.058  19.999   4.459
53191W        W18176  41.114  27.801   1.963
53192W        W18177   7.832   2.932   0.377
53193W        W18178  34.549  19.612  11.003
53194W        W18179  29.028   8.756   4.554
53195W        W18180  44.844  24.005  14.757
53196W        W18181   1.701  11.342  12.335
53197W        W18182  16.200  32.444   1.272
53198W        W18183  22.081   5.763  13.839
53199W        W18184  16.386  27.427  11.697
53200W        W18185  29.034  40.874   4.169
53201W        W18186  21.607   4.486   4.722
53202W        W18187  42.365  39.426   1.283
53203W        W18188  23.163  37.364  13.302
53204W        W18189   6.671  30.693   0.469
53205W        W18190  24.407  40.296  10.547
53206W        W18191  42.804  24.765   1.347
53207W        W18192  37.864  10.353   3.304
53208W        W18193  20.732  42.840  11.668
53209W        W18194  24.259  30.582   5.550
53210W        W18195  24.318   4.625   4.495
53211W        W18196   0.840  28.472   1.473
53212W        W18197  40.087  43.073  12.371
53213W        W18198  24.029   4.325  12.718
53214W        W18199  20.759  39.388   0.869
53215W        W18200   0.250  20.513  13.947
53216W        W18201  11.203  36.610   1.848
53217W        W18202  14.174  11.596   4.265
53218W        W18203  37.952  33.442   0.318
53219W        W18204  37.027  21.191  12.609
53220W        W18205   2.946   5.907   1.334
53221W        W18206   5.830  24.538   4.709
53222W        W18207   0.072  44.723   3.563
53223W        W18208  36.389  19.805   0.628
53224W        W18209  35.494  27.146  11.678
53225W        W18210  16.967   8.855  10.741
53226W        W18211  17.126   0.030  11.010
53227W        W18212  33.009  23.142  13.867
53228W        W18213   3.835  40.223  11.291
53229W        W18214  19.735   5.604   4.099
53230W        W18215   7.411  36.952   4.372
53231W        W18216   4.108  42.797   5.032
53232W        W18217  30.355   4.374  12.441
53233W        W18218  35.463  44.211   0.087
53234W        W18219  14.272  34.595   4.972
53235W        W18220  25.988  10.420   2.158
53236W        W18221  22.013  25.678  14.902
53237W        W18222  18.929  30.527  13.785
53238W        W18223  14.096  12.875   0.563
53239W        W18224  37.521   9.227   4.629
53240W        W18225   2.433  32.801   0.352
53241W        W18226   3.260  22.994  14.072
53242W        W18227  41.465  27.532   0.965
53243W        W18228  35.035  37.965  13.261
53244W        W18229  27.563  25.974   0.521
53245W        W18230  31.269  11.132   9.927
53246W        W18231   4.965  12.179   0.299
53247W        W18232  42.601  35.304   0.458
53248W        W18233  39.859   6.517   1.252
53249W        W18234  41.189  40.023  11.205
53250W        W18235   9.926  11.778   2.412
53251W        W18236   3.292  36.627  12.667
53252W        W18237  17.744  40.342  10.817
53253W        W18238  27.224  24.934   4.193
53254W        W18239  39.898  37.910  13.962
53255W        W18240  16.104   5.046  12.750
53256W        W18241  43.000  33.422  11.301
53257W        W18242  10.948  40.556  11.442
53258W        W18243   6.740  40.524  11.687
53259W        W18244   5.141   1.636   0.980
53260W        W18245  18.018  41.969   4.079
53261W        W18246  21.367  41.148   0.727
53262W        W18247   7.277   2.771  11.911
53263W        W18248  37.376   3.399  13.479
53264W        W18249  19.147  32.903  11.995
53265W        W18250  28.096  35.251  12.540
53266W        W18251  11.271  34.559  12.994
53267W        W18252  15.373  26.165   9.757
53268W        W18253   2.570   3.656  11.050
53269W        W18254  20.674  34.692  14.188
53270W        W18255   1.808  18.586   0.550
53271W        W18256  27.143   4.303  10.219
53272W        W18257  11.378  39.005   2.341
53273W        W18258  15.814  18.098  14.808
53274W        W18259   8.277  35.820  13.358
53275W        W18260  11.675  40.142   0.093
53276W        W18261  37.754  17.198  14.007
53277W        W18262  20.056  22.809  13.987
53278W        W18263  16.761  37.004  11.443
53279W        W18264  26.125  10.802   0.988
53280W        W18265  10.477  32.536   2.274
53281W        W18266  31.423  32.953   0.864
53282W        W18267  39.442  20.198  11.217
53283W        W18268  11.773  13.071  14.982
53284W        W18269   9.807   5.843   5.006
53285W        W18270  38.929  22.165   3.331
53286W        W18271  26.262  36.005   2.290
53287W        W18272  11.706  40.641   0.230
53288W        W18273   3.415  17.678   1.972
53289W        W18274   3.892  24.990  14.789
53290W        W18275   3.967  15.556  12.894
53291W        W18276  33.869  43.345  11.441
53292W        W18277  35.657  25.609  14.144
53293W        W18278   7.264  26.475   0.667
53294W        W18279   7.652  29.793   2.526
53295W        W18280  36.110   7.258  11.991
53296W        W18281  13.687   7.668   0.546
53297W        W18282  37.246  41.731   4.197
53298W        W18283   1.379   5.670  12.435
53299W        W18284  40.905  43.693  12.444
53300W        W18285  43.664  25.216   9.786
53301W        W18286  29.631  24.114  13.013
53302W        W18287  35.223  31.113   1.743
53303W        W18288  32.582   1.682   2.277
53304W        W18289  19.954  43.526   3.637
53305W        W18290  13.782  39.536  11.432
53306W        W18291  24.048   7.130  10.914
53307W        W18292  15.616  36.037  14.610
53308W        W18293  40.436  14.283   0.034
53309W        W18294   6.785  44.423  13.540
53310W        W18295  14.178  41.579   1.815
53311W        W18296  20.832  21.688  11.965
53312W        W18297  10.838   7.572  14.348
53313W        W18298  17.544  21.092  13.089
53314W        W18299  43.252  44.533  12.552
53315W        W18300   4.987  13.675  13.030
53316W        W18301  27.427  37.034  12.045
53317W        W18302  17.529  22.635   0.682
53318W        W18303  31.864   9.285  14.916
53319W        W18304  40.425  26.633   0.832
53320W        W18305  19.674  12.824   0.921
53321W        W18306  44.335  36.969  14.073
53322W        W18307  33.860  30.527   3.878
53323W        W18308   9.426  41.548   0.376
53324W        W18309  23.572  38.917  12.836
53325W        W18310  18.705  23.834  11.899
53326W        W18311   2.376  39.825  13.370
53327W        W18312  42.335  43.538   2.694
53328W        W18313  32.668  32.372   3.563
53329W        W18314  44.645  44.021   4.192
53330W        W18315  19.346  28.043   3.790
53331W        W18316   5.314   2.001   0.034
53332W        W18317   2.229  10.151  12.913
53333W        W18318  39.935  32.946   1.910
53334W        W18319   8.336  11.982   1.236
53335W        W18320  37.610  27.196  12.939
53336W        W18321  23.066  30.484  13.993
53337W        W18322  41.076  40.332   3.239
53338W        W18323  27.629  14.162   4.895
53339W        W18324   7.275   4.444  10.820
53340W        W18325  33.843  12.333   4.243
53341W        W18326   0.414  33.077   0.433
53342W        W18327   1.089  19.695   1.699
53343W        W18328  42.869   0.001   1.690
53344W        W18329  29.225  20.230   3.407
53345W        W18330   3.335  25.625   3.748
53346W        W18331  35.946  25.633  10.921
53347W        W18332  13.099  31.905  11.553
53348W        W18333   8.338  15.352  10.412
53349W        W18334  35.816  13.915  10.512
53350W        W18335   9.134   7.072   4.634
53351W        W18336  30.747  25.248  11.415
53352W        W18337  33.063  37.934   0.272
53353W        W18338   1.624  18.449   2.414
53354W        W18339   4.771  41.519   4.588
53355W        W18340   4.367  26.697  14.009
53356W        W18341  14.190  20.469   1.772
53357W        W18342  41.051  22.867  10.427
53358W        W18343  34.540   9.380   2.274
53359W        W18344  41.473  19.521   0.773
53360W        W18345  41.181   3.536   2.953
53361W        W18346   8.148  14.946  12.914
53362W        W18347   1.357  21.452   4.045
53363W        W18348  18.486  33.882   2.336
53364W        W18349  12.835  25.536  14.407
53365W        W18350   7.862  14.200   3.735
53366W        W18351   1.694  31.182  13.880
53367W        W18352  31.667   0.295   0.332
53368W        W18353  26.623  25.694   2.275
53369W        W18354  36.183  37.286  14.762
53370W        W18355  38.400  30.679  11.503
53371W        W18356  25.712  30.156  14.800
53372W        W18357   1.413   5.479  10.804
53373W        W18358   1.379   7.744   0.294
53374W        W18359   0.789  18.045  12.132
53375W        W18360  31.245  36.649   4.378
53376W        W18361  30.688  41.916  14.784
53377W        W18362  37.509  16.773   2.737
53378W        W18363  23.682  25.766  11.132
53379W        W18364  10.392  27.535   1.846
53380W        W18365   3.006   4.885   0.830
53381W        W18366  14.619   2.549   0.844
53382W        W18367  23.826  26.463   1.148
53383W        W18368   2.931  23.274  14.741
53384W        W18369  40.781  43.502  12.932
53385W        W18370  32.524  22.161   1.311
53386W        W18371  16.695  30.743  13.566
53387W        W18372   0.368  14.667  12.449
53388W        W18373  36.070  11.835  10.861
53389W        W18374   0.265  36.519  10.927
53390W        W18375  34.903  21.138   0.713
53391W        W18376   2.731   4.645  13.335
53392W        W18377  31.138  15.170  12.426
53393W        W18378   9.964   7.662  12.538
53394W        W18379  28.739  26.645  10.749
53395W        W18380  18.823  11.007   4.114
53396W        W18381  37.061   1.457  14.490
53397W        W18382  43.629  15.648  11.966
53398W        W18383  15.741   2.690   0.321
53399W        W18384   1.114   5.563  11.227
53400W        W18385  19.659  12.068   2.191
53401W        W18386   7.390  10.233  12.067
53402W        W18387  31.120  34.605  14.584
53403W        W18388   3.679  35.543   4.206
53404W        W18389  36.462  14.689   2.894
53405W        W18390  33.435  12.840  11.009
53406W        W18391  44.290   4.418   1.386
53407W        W18392  39.503  18.181   3.294
53408W        W18393   1.737  10.760   2.854
53409W        W18394  27.711   4.386  14.391
53410W        W18395  25.236  30.703   0.585
53411W        W18396   3.984  18.110  13.133
53412W        W18397   5.844  20.179   3.278
53413W        W18398  13.648  13.666   3.843
53414W        W18399   4.492  24.418  12.524
53415W        W18400  19.680  24.662   3.903
53416W        W18401  18.050  14.256   4.767
53417W        W18402  42.088   3.088  12.071
53418W        W18403  28.206  18.797   2.193
53419W        W18404  38.867   9.124   5.102
53420W        W18405  18.596  40.808   1.724
53421W        W18406  10.965  15.678   4.532
53422W        W18407  37.830  34.387   0.434
53423W        W18408  32.455  28.521  10.921
53424W        W18409   4.382   8.840   3.303
53425W        W18410  43.936  16.151   2.228
53426W        W18411  11.894  31.183   2.477
53427W        W18412  33.372   1.700   2.217
53428W        W18413  24.735  42.515  14.452
53429W        W18414  20.296  33.695  11.309
53430W        W18415  30.291   4.873  11.867
53431W        W18416  13.362  44.228  11.926
53432W        W18417   0.269  11.122   4.367
53433W        W18418  17.565   4.491   2.242
53434W        W18419  32.735  16.498   2.683
53435W        W18420   4.906  21.124   4.471
53436W        W18421   9.193  42.761   3.291
53437W        W18422  13.862  31.334   3.251
53438W        W18423  19.680  12.373  11.397
53439W        W18424  14.304   3.020   2.864
53440W        W18425  13.227  42.044   3.165
53441W        W18426  17.585  29.245   3.939
53442W        W18427  17.597  13.708   0.940
53443W        W18428   6.133  12.357  11.210
53444W        W18429  13.743   4.145   4.018
53445W        W18430  12.953  10.852   2.330
53446W        W18431  24.453   0.803  11.974
53447W        W18432   8.158  11.836   4.106
53448W        W18433  44.332  40.021   0.032
53449W        W18434  13.256  19.602   2.946
53450W        W18435   2.224  29.213   4.628
53451W        W18436  23.352  28.071   2.785
53452W        W18437  41.817  20.490   2.630
53453W        W18438   2.107  29.217   1.614
53454W        W18439  29.370  29.778   0.404
53455W        W18440  13.135  25.808   1.988
53456W        W18441  17.168  12.708   0.403
53457W        W18442   5.969  31.970  11.570
53458W        W18443   5.457  20.017   2.304
53459W        W18444  41.413  41.778   2.649
53460W        W18445   1.791  21.828  12.832
53461W        W18446  42.643  14.362  10.170
53462W        W18447  32.120  41.170   0.434
53463W        W18448   2.424  37.402   1.195
53464W        W18449  35.893  21.354  11.559
53465W        W18450  33.321  20.992   5.056
53466W        W18451  25.069  13.341  12.098
53467W        W18452  35.156  19.673   3.234
53468W        W18453  10.929  24.048  11.186
53469W        W18454  31.302  33.529   2.183
53470W        W18455  20.102  13.123  10.591
53471W        W18456  21.439  31.643  12.246
53472W        W18457  30.428   8.846  12.473
53473W        W18458  35.006   5.698   2.095
53474W        W18459   5.784  33.360   4.712
53475W        W18460  35.075   8.234   2.641
53476W        W18461  10.319   4.202  11.186
53477W        W18462  11.247   7.890   1.255
53478W        W18463   0.537  22.153   3.743
53479W        W18464  12.106  27.310   1.416
53480W        W18465   7.303  39.027   3.536
53481W        W18466   3.489  13.911   4.206
53482W        W18467  30.900  41.087  10.786
53483W        W18468  10.734  42.479  13.344
53484W        W18469  21.729  16.881   3.944
53485W        W18470   9.676  38.049   4.366
53486W        W18471  39.909  19.971  11.339
53487W        W18472  20.002  16.516   4.104
53488W        W18473  15.609  27.449   2.531
53489W        W18474  33.033  44.540   1.407
53490W        W18475  30.104  35.204   3.057
53491W        W18476  12.282  40.422  10.959
53492W        W18477   4.851   0.552   0.861
53493W        W18478   1.228  43.932   3.192
53494W        W18479   1.439  35.958   1.271
53495W        W18480  23.895  10.297   1.284
53496W        W18481  21.145  44.767   3.748
53497W        W18482  40.468  40.283  13.268
53498W        W18483   6.684   2.399   4.029
53499W        W18484   2.010  25.203  14.885
53500W        W18485   5.306  43.232  12.157
53501W        W18486  35.324  13.293  12.064
53502W        W18487  29.515  33.283   0.471
53503W        W18488  19.117  43.752  12.911
53504W        W18489  13.078   7.723  12.978
53505W        W18490  20.506  24.472  14.412
53506W        W18491  22.548  20.659   0.384
53507W        W18492  25.415  20.271  11.984
53508W        W18493  40.356  20.253   0.735
53509W        W18494  12.300  20.937   4.284
53510W        W18495  26.223  30.739   2.192
53511W        W18496   4.775  35.092  10.245
53512W        W18497  28.979  28.455  13.878
53513W        W18498  13.676   0.560   4.675
53514W        W18499  30.665  41.402  14.967
53515W        W18500  24.930   0.191  13.921
53516W        W18501  34.668   7.987   0.247
53517W        W18502  40.823  34.444   4.731
53518W        W18503  24.530  10.361  14.603
53519W        W18504  14.200  22.531  13.059
53520W        W18505  10.637  44.118   0.416
53521W        W18506  11.307  18.643   3.242
53522W        W18507  37.097  27.055  12.810
53523W        W18508  19.399   6.128   5.143
53524W        W18509  29.197   6.127  14.203
53525W        W18510  41.806   0.814   3.685
53526W        W18511   9.796  30.952   4.199
53527W        W18512  38.265  10.270  12.475
53528W        W18513  32.637  31.412  14.915
53529W        W18514  30.138   3.433  14.902
53530W        W18515  15.630   3.199   0.311
53531W        W18516   0.503  12.899  11.695
53532W        W18517  30.124  40.877  13.022
53533W        W18518  10.404   4.401   3.120
53534W        W18519  37.828  29.225   0.280
53535W        W18520  37.031  23.205   4.060
53536W        W18521   9.345  27.885  13.156
53537W        W18522  37.910  38.000  10.488
53538W        W18523  34.809   6.913  14.559
53539W        W18524  21.153  35.595  12.527
53540W        W18525  28.043   2.471  10.303
53541W        W18526  31.255  19.102  10.938
53542W        W18527  38.480   6.631  10.320
53543W        W18528  12.128  31.094  11.639
53544W        W18529  25.956  33.462  13.501
53545W        W18530  10.161  36.634  12.116
53546W        W18531   3.725  14.089  12.514
53547W        W18532  10.233  28.837  10.728
53548W        W18533  27.203   0.534   2.667
53549W        W18534  20.741   7.507  11.659
53550W        W18535   7.801   3.160   1.233
53551W        W18536  14.249  24.715  11.234
53552W        W18537   3.379  32.447  12.966
53553W        W18538  36.076  24.665   2.394
53554W        W18539  42.434   4.401  13.000
53555W        W18540  26.526  38.536   4.770
53556W        W18541  41.249  35.405  13.001
53557W        W18542  40.833  31.813  13.691
53558W        W18543   4.213  43.778  13.395
53559W        W18544  42.426   6.968   3.397
53560W        W18545  37.788   5.446  12.906
53561W        W18546  43.032  44.227  12.913
53562W        W18547  14.737   2.066  14.901
53563W        W18548  33.953  29.052   4.344
53564W        W18549  30.682  30.135  14.801
53565W        W18550  12.288   0.018   4.542
53566W        W18551  32.408   2.724   1.178
53567W        W18552  11.683  41.223   0.998
53568W        W18553  42.969   1.837   2.214
53569W        W18554   8.607  36.891  13.609
53570W        W18555   7.816  25.158   5.033
53571W        W18556  40.371  44.942  10.722
53572W        W18557  11.850  22.577  13.477
53573W        W18558   2.485  40.042  12.539
53574W        W18559  43.818  14.788   3.078
53575W        W18560  11.133  25.663   0.441
53576W        W18561  32.956  20.754  12.557
53577W        W18562  34.620  30.596   3.149
53578W        W18563   6.926  37.858   1.471
53579W        W18564  32.539  14.151  10.912
53580W        W18565   0.253  37.224   2.778
53581W        W18566   3.114  40.061  11.211
53582W        W18567   7.719  32.556  10.675
53583W        W18568  26.518  40.526  12.487
53584W        W18569  10.501  30.195   3.158
53585W        W18570  39.390  40.881   1.003
53586W        W18571   6.481  27.706   2.641
53587W        W18572  32.961   9.949  10.722
53588W        W18573   0.318  12.553  11.307
53589W        W18574   4.736  31.911  12.102
53590W        W18575  17.257   2.775   4.748
53591W        W18576  12.354  25.622  14.554
53592W        W18577  26.676  28.871   5.037
53593W        W18578  39.832   2.931  12.612
53594W        W18579  44.177  35.442   0.949
53595W        W18580  15.729  21.829  11.413
53596W        W18581  19.138  26.007   1.225
53597W        W18582  39.982   0.419   2.487
53598W        W18583  35.090  30.444  10.654
53599W        W18584   9.458  33.785  13.551
53600W        W18585  30.611  24.678  14.009
53601W        W18586   4.148  44.415   4.046
53602W        W18587  38.931  24.329   4.375
53603W        W18588   4.963   3.750   2.264
53604W        W18589  10.386  31.967   2.990
53605W        W18590  43.982   1.799  12.530
53606W        W18591   8.983   0.795   4.602
53607W        W18592  43.072   6.811  14.820
53608W        W18593  19.259  41.900  12.036
53609W        W18594  31.059  11.394   0.725
53610W        W18595  38.856  27.317   1.226
53611W        W18596  10.718   9.847   0.532
53612W        W18597  27.397   9.878  11.091
53613W        W18598  16.625   5.915   3.046
53614W        W18599  44.681   3.113   5.017
53615W        W18600  42.495   5.470  12.816
53616W        W18601  31.078  24.434  10.358
53617W        W18602   4.353  34.663   3.275
53618W        W18603   2.798  24.827   4.900
53619W        W18604   3.442  35.994   4.136
53620W        W18605  15.658   2.039  13.041
53621W        W18606  36.050   8.653  14.732
53622W        W18607  44.344  35.861  13.379
53623W        W18608  15.436  43.807  10.743
53624W        W18609  41.011  18.137  12.460
53625W        W18610  32.065  17.783   3.866
53626W        W18611   7.015   1.702  14.798
53627W        W18612  11.732  23.106  11.077
53628W        W18613  16.364  38.597   1.796
53629W        W18614   1.476  27.485  10.718
53630W        W18615  15.690  16.591  12.852
53631W        W18616  12.356   3.269   3.339
53632W        W18617  30.999   7.206  14.479
53633W        W18618  38.274   6.923  12.084
53634W        W18619  24.523   9.337   1.823
53635W        W18620  13.447  24.528  14.801
53636W        W18621  37.023   0.502  13.146
53637W        W18622  38.806  35.351   3.878
53638W        W18623  41.037  18.578  12.088
53639W        W18624  17.391  29.934  14.582
53640W        W18625   4.660   4.044   4.102
53641W        W18626  24.615  38.592  13.991
53642W        W18627  23.255   8.547  13.502
53643W        W18628  31.157  26.220  12.980
53644W        W18629  11.470   3.872  11.941
53645W        W18630  27.406  13.058  11.213
53646W        W18631  38.378  39.423   2.236
53647W        W18632  42.733  32.152  11.210
53648W        W18633  24.537  23.017   3.964
53649W        W18634  32.836  20.808   3.222
53650W        W18635   3.614  26.143  11.997
53651W        W18636   1.621  18.917  11.269
53652W        W18637  10.906  38.875   2.182
53653W        W18638  34.411  14.243   4.672
53654W        W18639  36.868   6.635   0.373
53655W        W18640  15.800  11.131   3.171
53656W        W18641  44.980   1.883   4.400
53657W        W18642  25.390  22.478   3.050
53658W        W18643  35.244  29.628  13.428
53659W        W18644  26.305  43.269  14.960
53660W        W18645  11.298  19.802   3.089
53661W        W18646  18.270   8.524   2.709
53662W        W18647   1.592  15.561   3.255
53663W        W18648  10.912  39.273   4.061
53664W        W18649  42.798  42.361   0.420
53665W        W18650  18.382  25.703  13.170
53666W        W18651  37.474  25.638  14.469
53667W        W18652  43.819  19.447  12.433
53668W        W18653  42.445  39.927   1.426
53669W        W18654  29.650  18.211   0.694
53670W        W18655  23.036  42.507   3.835
53671W        W18656  19.391  28.589  11.618
53672W        W18657   7.654  26.529   2.364
53673W        W18658  34.178  16.154   3.595
53674W        W18659  35.978   6.116   2.847
53675W        W18660  21.625  41.532   2.895
53676W        W18661   6.366  42.879  11.412
53677W        W18662  10.774  14.391  13.648
53678W        W18663  10.801  22.590   1.060
53679W        W18664  14.089  40.502   1.967
53680W        W18665  30.709  27.904   0.782
53681W        W18666  14.701  38.815   4.287
53682W        W18667   9.247  13.326  13.844
53683W        W18668  28.932  15.345  13.367
53684W        W18669  40.124  12.540  14.638
53685W        W18670   2.146   9.852   0.710
53686W        W18671  22.639  21.306   2.298
53687W        W18672  33.123   5.608   2.423
53688W        W18673  33.210  40.165   9.724
53689W        W18674   4.382  20.352  14.588
53690W        W18675  43.663  27.444  10.722
53691W        W18676   5.885  27.046   0.755
53692W        W18677  17.994  42.945   0.941
53693W        W18678  26.985  26.091  11.531
53694W        W18679   6.373  23.147  12.397
53695W        W18680  33.549   7.572  12.006
53696W        W18681  30.411  34.552  12.850
53697W        W18682  44.503   8.501   4.901
53698W        W18683  27.997   9.209  14.257
53699W        W18684  31.091  21.980  11.197
53700W        W18685   7.134  24.947  14.407
53701W        W18686  30.959   1.241   1.814
53702W        W18687  14.240   8.860   4.508
53703W        W18688   4.796  16.073  14.811
53704W        W18689  19.398  20.783   0.033
53705W        W18690  17.307  38.589  14.354
53706W        W18691  16.171  31.915   1.276
53707W        W18692  23.574   1.384   5.095
53708W        W18693  13.556  27.719   9.793
53709W        W18694  21.788  28.999  12.262
53710W        W18695  23.042  27.029  11.162
53711W        W18696   7.390   4.114  10.441
53712W        W18697  10.119   9.255  13.958
53713W        W18698  22.893   8.203   1.741
53714W        W18699  30.151   1.521   3.354
53715W        W18700  24.640  19.129   4.635
53716W        W18701  16.801   8.107  13.040
53717W        W18702  42.361  19.284   1.634
53718W        W18703   9.128   7.501  11.464
53719W        W18704  31.369  14.682   0.801
53720W        W18705  29.438  41.104   0.302
53721W        W18706   2.066  34.522   3.446
53722W        W18707  41.014  41.203  12.022
53723W        W18708   9.554  22.560   9.816
53724W        W18709  42.287   5.781  11.363
53725W        W18710  32.578  19.806  12.010
53726W        W18711  39.552   9.640  10.808
53727W        W18712  14.227  12.209  10.794
53728W        W18713  14.620   9.657   4.199
53729W        W18714  32.534  40.064  11.205
53730W        W18715  44.994  41.113   2.736
53731W        W18716  19.069   9.168   0.858
53732W        W18717  28.331   0.509  14.358
53733W        W18718  15.060  32.012  14.341
53734W        W18719  22.934   2.778   1.942
53735W        W18720   4.923  12.619  13.157
53736W        W18721   6.860  29.613  14.693
53737W        W18722  31.562  27.206  13.874
53738W        W18723  41.465  36.583   5.403
53739W        W18724  12.051   1.651  11.112
53740W        W18725  22.259  12.632  13.616
53741W        W18726  37.116  42.103  14.377
53742W        W18727  12.198  10.611  12.875
53743W        W18728  33.981  34.404   2.293
53744W        W18729  11.763   6.859  11.437
53745W        W18730  13.333  21.148   4.118
53746W        W18731  26.992   5.575   0.306
53747W        W18732  43.332  43.356  11.153
53748W        W18733  18.335   7.713   0.904
53749W        W18734  23.072  24.295  14.421
53750W        W18735  10.340  11.715  12.879
53751W        W18736  10.086  26.687   2.776
53752W        W18737  10.469   4.874   3.339
53753W        W18738  16.276  11.816   4.237
53754W        W18739  12.039  17.860  11.584
53755W        W18740   0.352   7.600  14.604
53756W        W18741  32.651   9.767  11.962
53757W        W18742  31.929   6.431  12.173
53758W        W18743   2.298  23.535   4.574
53759W        W18744   5.746  13.166  11.740
53760W        W18745  25.654   4.032   0.285
53761W        W18746  17.030  41.308  13.043
53762W        W18747  14.838  17.302   3.700
53763W        W18748  41.570  37.972   4.204
53764W        W18749   8.918  41.670  12.961
53765W        W18750  19.210  35.417  14.873
53766W        W18751  14.173  18.384   4.130
53767W        W18752   2.570  40.138  10.975
53768W        W18753  21.755  39.622   0.419
53769W        W18754  17.123  11.601  12.511
53770W        W18755   4.510  15.233   0.962
53771W        W18756   5.903   4.969   2.438
53772W        W18757  29.654  43.896  11.929
53773W        W18758  15.703   2.012  14.578
53774W        W18759  28.449  21.832  14.443
53775W        W18760  22.384  16.820   1.662
53776W        W18761  25.707  10.209  11.513
53777W        W18762  12.532  13.959  11.130
53778W        W18763  22.566  32.006  12.196
53779W        W18764  37.936   2.676  11.715
53780W        W18765  28.371  28.764  12.027
53781W        W18766   2.495  41.363  10.104
53782W        W18767  24.985  32.693  11.972
53783W        W18768  15.085  22.175  11.223
53784W        W18769  15.763  32.056   4.635
53785W        W18770  36.801  20.176   4.558
53786W        W18771  16.477  11.128  14.933
53787W        W18772   2.947  36.099   1.845
53788W        W18773  39.262  44.084  10.714
53789W        W18774  17.329  30.358  14.310
53790W        W18775  43.341  16.546   9.823
53791W        W18776  39.165  24.923   3.692
53792W        W18777  19.317  15.671   0.769
53793W        W18778  37.493   5.918  13.616
53794W        W18779  38.404  19.152  14.000
53795W        W18780   1.969  36.635   2.673
53796W        W18781  21.991  44.937   4.583
53797W        W18782  25.698  42.028   0.953
53798W        W18783  39.790  31.581  14.433
53799W        W18784  15.936  32.186  11.891
53800W        W18785  30.639  40.783   4.753
53801W        W18786   1.789  21.059   4.986
53802W        W18787   2.692   2.676   2.324
53803W        W18788  38.359  19.571   4.253
53804W        W18789  28.701  41.545  10.640
53805W        W18790  34.149  43.431  12.359
53806W        W18791  36.623  27.163   0.952
53807W        W18792  32.376  25.942   0.895
53808W        W18793  26.041  18.670  14.723
53809W        W18794  18.053  34.752  11.773
53810W        W18795  14.153  38.244  12.454
53811W        W18796  32.023   0.883  11.542
53812W        W18797   6.879  23.404   0.962
53813W        W18798  23.418  21.718  13.694
53814W        W18799  13.197  22.173   4.411
53815W        W18800   3.777  22.133  14.298
53816W        W18801  36.953  35.562  12.783
53817W        W18802   7.966   8.414  10.620
53818W        W18803  43.008   4.397   3.907
53819W        W18804  14.538   2.732   3.240
53820W        W18805  24.121  34.973   2.792
53821W        W18806   3.312   1.826   4.950
53822W        W18807   1.400  19.011   3.793
53823W        W18808  14.300  26.196  13.968
53824W        W18809  34.560  15.594   3.199
53825W        W18810   9.309  33.008  11.476
53826W        W18811  17.534  11.192   3.670
53827W        W18812  11.806  18.502   4.713
53828W        W18813  44.495  20.774  12.072
53829W        W18814   0.728  28.023   4.578
53830W        W18815   3.403  42.492  11.616
53831W        W18816  28.099  25.811   2.224
53832W        W18817   1.246  22.022  11.239
53833W        W18818  43.970  42.557   2.639
53834W        W18819  39.665  19.596  11.095
53835W        W18820   6.925  10.747  13.975
53836W        W18821  36.929  42.336   3.205
53837W        W18822  19.218  42.790  12.535
53838W        W18823   2.868  26.731   3.092
53839W        W18824  15.310  12.262  12.830
53840W        W18825   5.787  20.264   0.789
53841W        W18826  43.409  35.551  12.319
53842W        W18827  34.463  11.149  11.115
53843W        W18828  26.549   5.735  14.160
53844W        W18829  19.895  17.737  13.429
53845W        W18830  38.405  39.911  13.055
53846W        W18831  32.941  23.786  12.058
53847W        W18832  33.296  20.103   3.178
53848W        W18833  28.356   2.472   0.416
53849W        W18834  34.392  25.986   1.438
53850W        W18835  39.270  21.971   1.649
53851W        W18836   6.450   7.137  13.421
53852W        W18837  15.275  30.119   3.264
53853W        W18838  13.150  14.769   1.842
53854W        W18839  26.246  40.954  12.967
53855W        W18840  24.415  29.024  11.751
53856W        W18841  14.129   4.373  11.082
53857W        W18842   2.061   1.476  11.173
53858W        W18843   4.349   6.181  14.816
53859W        W18844  18.015  37.771  11.591
53860W        W18845   3.653  39.569   0.667
53861W        W18846  44.075  16.383  11.520
53862W        W18847  21.595  42.868  14.920
53863W        W18848  28.370  39.993   1.890
53864W        W18849  15.112   9.265  14.061
53865W        W18850  38.421  29.655  14.302
53866W        W18851  31.184  29.887   0.403
53867W        W18852  40.485  42.320   0.276
53868W        W18853  38.330  24.233  14.887
53869W        W18854   2.095  35.860   4.532
53870W        W18855  17.354   2.177   3.278
53871W        W18856  43.407   5.029   2.254
53872W        W18857  10.780  20.540   2.290
53873W        W18858  32.966  17.106   1.466
53874W        W18859  33.405  36.933  10.538
53875W        W18860  11.714  34.215   0.777
53876W        W18861  29.723   2.529   0.013
53877W        W18862   4.709  32.374  11.573
53878W        W18863   4.975  32.467   3.918
53879W        W18864  32.537  12.186  14.408
53880W        W18865  19.354  39.446   1.289
53881W        W18866   2.557  15.579  14.948
53882W        W18867  27.328  37.516  12.215
53883W        W18868  37.599  40.850  13.957
53884W        W18869  14.700  42.786   2.397
53885W        W18870  18.102  19.816   0.232
53886W        W18871   3.478  15.247   0.922
53887W        W18872   6.353   1.568  11.581
53888W        W18873  36.545  41.802   4.846
53889W        W18874  18.909   1.221  11.467
53890W        W18875  16.273  14.231  11.679
53891W        W18876  38.625   9.268   2.416
53892W        W18877  17.184  19.907  11.836
53893W        W18878  19.525  11.815  12.631
53894W        W18879  28.892   8.895   2.618
53895W        W18880  44.726  27.304   2.674
53896W        W18881   6.633  40.213  12.079
53897W        W18882   9.945   0.670   1.646
53898W        W18883  40.736  28.227   4.524
53899W        W18884  24.758  18.831  12.530
53900W        W18885  41.778  26.367   0.457
53901W        W18886  18.390   9.727  11.864
53902W        W18887   4.970  40.050  11.569
53903W        W18888  28.096  39.760   2.845
53904W        W18889  43.292  29.215   0.696
53905W        W18890  30.104  15.353  12.470
53906W        W18891  19.721  44.851   0.889
53907W        W18892  13.816   0.378  11.341
53908W        W18893   7.825  12.074  13.543
53909W        W18894  44.348  29.543   1.761
53910W        W18895  37.299  21.853  14.137
53911W        W18896  21.137  24.956  10.391
53912W        W18897   8.131  18.203  12.984
53913W        W18898   3.953  40.524   0.717
53914W        W18899  17.660  25.925  13.901
53915W        W18900   0.743  10.890  13.429
53916W        W18901  40.266  43.481  13.019
53917W        W18902  29.013  35.395  11.559
53918W        W18903  37.297   8.779  13.877
53919W        W18904  36.497  21.466   1.840
53920W        W18905   1.014   8.975  10.693
53921W        W18906   6.704  30.201   3.381
53922W        W18907  15.570  44.224  10.394
53923W        W18908   3.949  16.178   3.820
53924W        W18909  43.521   5.143   4.372
53925W        W18910  35.895   6.209   4.231
53926W        W18911   3.433  15.652   0.449
53927W        W18912  10.808  42.727  10.712
53928W        W18913   7.641  37.753  13.980
53929W        W18914  26.934  21.787  14.815
53930W        W18915  24.546  20.546   3.099
53931W        W18916  11.645  12.052  14.972
53932W        W18917   9.170  30.329   2.638
53933W        W18918  15.538  20.313   0.481
53934W        W18919  43.346  36.541  13.390
53935W        W18920   5.294  15.311  13.040
53936W        W18921  14.877  31.479   2.342
53937W        W18922  33.141  29.260   4.227
53938W        W18923  12.251  23.667   3.607
53939W        W18924  36.552  44.990  12.678
53940W        W18925  32.429   2.720   2.213
53941W        W18926  15.048  23.060  11.587
53942W        W18927  22.551  30.878   4.146
53943W        W18928  36.598  34.383   1.386
53944W        W18929  35.330   1.783  10.496
53945W        W18930  34.922   3.771   0.823
53946W        W18931   2.775  15.839  10.436
53947W        W18932  21.832  39.313  14.956
53948W        W18933  14.548   4.648  14.401
53949W        W18934   6.045  41.514  12.370
53950W        W18935  27.645  10.357   4.165
53951W        W18936  18.063  17.573   3.338
53952W        W18937  37.321   4.440  12.563
53953W        W18938  38.771  27.160   2.971
53954W        W18939   9.560  18.741   0.911
53955W        W18940  15.298  40.555  10.580
53956W        W18941   7.596  40.595  11.997
53957W        W18942  40.944  21.665   0.760
53958W        W18943  24.534  40.806  13.498
53959W        W18944   7.674  41.946  13.981
53960W        W18945  43.822  28.632  11.553
53961W        W18946  14.763  42.930  11.036
53962W        W18947  36.994   7.517  11.350
53963W        W18948  25.941  44.814  14.948
53964W        W18949  31.138  35.299  12.095
53965W        W18950  32.123   3.691  10.243
53966W        W18951   4.314  42.716  13.942
53967W        W18952  42.435  43.842  12.064
53968W        W18953  26.653   3.725   4.527
53969W        W18954  24.671   2.182  11.614
53970W        W18955  38.829   4.094  11.948
53971W        W18956  17.814  19.207  14.013
53972W        W18957  12.342  33.165  11.543
53973W        W18958  36.031  24.267  14.735
53974W        W18959  21.505  16.321   1.646
53975W        W18960   2.594  28.435   2.711
53976W        W18961  38.737  20.119   3.134
53977W        W18962   6.108  30.516  10.105
53978W        W18963   1.265   5.381   2.259
53979W        W18964  26.740  17.611  14.284
53980W        W18965   1.494   4.694  12.496
53981W        W18966  22.865  27.330  10.165
53982W        W18967  31.115   9.355  11.193
53983W        W18968  26.019  29.437  10.120
53984W        W18969   7.298  28.187  12.528
53985W        W18970  30.922  28.580   1.949
53986W        W18971  29.567  18.136   2.532
53987W        W18972  32.942  15.294  11.094
53988W        W18973   8.748   1.267   3.603
53989W        W18974  36.580  29.221  13.582
53990W        W18975  10.923  24.822   0.786
53991W        W18976  31.216  22.626  14.948
53992W        W18977   5.452  15.080   2.398
53993W        W18978  28.910  12.173  12.150
53994W        W18979  17.388  21.849  10.437
53995W        W18980   5.188  19.485   4.036
53996W        W18981  21.983  10.416   4.122
53997W        W18982  38.478  28.606   1.859
53998W        W18983  35.787  38.387  11.631
53999W        W18984  28.947   9.459  13.486
54000W        W18985  20.693   4.820   0.453
54001W        W18986   6.761  32.360   4.049
54002W        W18987   0.768   4.733   0.352
54003W        W18988   6.490  34.839   3.741
54004W        W18989  29.978  10.897  11.440
54005W        W18990  19.181  17.319  12.833
54006W        W18991  20.299  10.785   0.946
54007W        W18992  41.753  23.666   0.785
54008W        W18993  29.522  28.575  10.762
54009W        W18994  14.897  44.762  11.795
54010W        W18995  41.733  29.153   3.188
54011W        W18996  27.935  33.868   3.207
54012W        W18997   3.536  37.487   0.248
54013W        W18998  38.787  41.076   4.780
54014W        W18999  20.699  37.402   3.309
54015W        W19000   2.539  29.547   1.854
54016W        W19001   9.576  39.654  12.120
54017W        W19002  27.402  34.686   4.996
54018W        W19003   0.887  27.735  13.425
54019W        W19004   7.381  43.253  12.901
54020W        W19005  17.400   6.896  13.401
54021W        W19006   8.388  10.216  12.959
54022W        W19007   2.963  42.950  10.645
54023W        W19008  23.150  20.287  10.582
54024W        W19009  14.089  38.460   3.920
54025W        W19010  12.605  42.028  12.939
54026W        W19011  10.774  29.611  14.313
54027W        W19012  44.847  37.542   2.618
54028W        W19013  41.433   8.857   2.230
54029W        W19014  21.540  35.312  13.431
54030W        W19015  10.667  32.110  12.421
54031W        W19016  43.887  26.407  12.853
54032W        W19017  26.391   1.974  12.127
54033W        W19018  34.592  21.220  14.742
54034W        W19019  30.883   6.994   1.808
54035W        W19020   8.726  10.124  13.331
54036W        W19021  11.948   7.973  11.795
54037W        W19022  31.941  17.066  14.991
54038W        W19023  37.504   5.248  13.282
54039W        W19024  29.685  23.240   1.812
54040W        W19025  32.632  34.470   1.228
54041W        W19026  14.667  23.505  13.202
54042W        W19027   2.267  21.231  13.533
54043W        W19028   5.359  21.708   3.757
54044W        W19029  11.006   7.203   0.984
54045W        W19030  23.664  21.389   0.909
54046W        W19031  33.037  11.909   3.688
54047W        W19032  28.036  19.577   2.744
54048W        W19033  21.487  38.558  13.328
54049W        W19034   4.931  31.125  14.405
54050W        W19035  41.387   5.611   3.588
54051W        W19036  29.185  36.937  14.100
54052W        W19037   7.458  36.656  11.607
54053W        W19038   1.645  33.918   4.511
54054W        W19039  29.556  38.548   1.737
54055W        W19040  22.146  41.067   0.785
54056W        W19041  29.902  30.982  10.524
54057W        W19042  15.072  26.675   3.282
54058W        W19043   5.789  12.811  14.171
54059W        W19044  31.926  35.439   2.740
54060W        W19045  37.114  22.491   1.394
54061W        W19046  31.587  30.680   4.102
54062W        W19047  15.300   3.458  14.967
54063W        W19048   5.371   0.347  14.993
54064W        W19049  12.722  25.005  14.444
54065W        W19050  41.665   1.845   3.967
54066W        W19051  32.335   4.287  11.606
54067W        W19052  34.506  32.906  10.627
54068W        W19053   5.788   8.009  14.253
54069W        W19054  27.409  12.313  13.217
54070W        W19055  32.943  16.277   1.684
54071W        W19056  19.332   8.932   1.757
54072W        W19057  14.423  34.881   4.553
54073W        W19058  41.932  11.387  13.742
54074W        W19059  12.829  15.321  14.510
54075W        W19060  11.527  30.093   3.189
54076W        W19061  10.934   7.232  10.140
54077W        W19062  19.336  24.807  13.231
54078W        W19063  16.619  14.124   2.667
54079W        W19064  30.312  15.818  12.309
54080W        W19065  15.707  33.893  10.433
54081W        W19066  20.670   3.008   2.798
54082W        W19067   2.232  15.386  12.055
54083W        W19068  29.695  20.536   0.363
54084W        W19069  19.067  44.626  14.363
54085W        W19070  38.491  23.999   0.331
54086W        W19071  26.029  28.340  11.875
54087W        W19072  23.230  24.605  11.984
54088W        W19073  41.305  23.525  10.030
54089W        W19074  24.522  43.781   4.593
54090W        W19075  22.227  31.408  14.833
54091W        W19076  43.782  32.760  12.125
54092W        W19077   6.682  15.682   0.020
54093W        W19078  18.768   1.376  12.940
54094W        W19079   9.411  32.037  11.026
54095W        W19080  32.153  37.257  12.591
54096W        W19081  42.228  38.607  10.264
54097W        W19082  15.590  10.801   1.487
54098W        W19083  36.055  10.178  11.218
54099W        W19084  16.812  40.311  10.710
54100W        W19085  43.989   0.871  14.767
54101W        W19086  42.036  33.679  13.053
54102W        W19087  23.164  31.886  14.960
54103W        W19088  24.749  19.246   0.785
54104W        W19089  44.318  39.827  13.055
54105W        W19090  34.815  38.586  14.930
54106W        W19091   4.073  23.183   4.484
54107W        W19092  25.501  12.668  13.802
54108W        W19093  10.845  11.038  13.835
54109W        W19094   4.348  25.991   2.340
54110W        W19095  37.969  42.393   0.789
54111W        W19096  31.971  30.878  13.956
54112W        W19097  13.766  22.092   2.428
54113W        W19098  42.427  30.865   2.733
54114W        W19099   0.822  16.293  12.219
54115W        W19100   8.368  27.185  14.034
54116W        W19101  38.716   4.542   1.626
54117W        W19102   0.678  29.228  13.871
54118W        W19103  39.931  24.552  11.884
54119W        W19104   1.381  34.652   2.202
54120W        W19105  43.489  20.075  13.002
54121W        W19106  43.985  35.643  11.484
54122W        W19107  21.285  19.709  14.421
54123W        W19108  14.616  34.758  11.082
54124W        W19109   0.016  41.735  12.029
54125W        W19110  27.000  36.783   0.842
54126W        W19111   2.603   1.298  12.895
54127W        W19112  27.844  23.754  10.126
54128W        W19113  10.838  27.555   0.542
54129W        W19114  30.548  43.224   3.491
54130W        W19115  38.545  23.085   1.936
54131W        W19116  15.550  14.237   1.338
54132W        W19117  25.681  11.439   0.348
54133W        W19118  11.102  44.744   2.266
54134W        W19119  27.419  23.388  13.037
54135W        W19120   1.919  15.897  13.439
54136W        W19121  31.839  35.994   4.084
54137W        W19122  32.092  35.431   4.784
54138W        W19123  27.992  25.309   4.595
54139W        W19124  11.701  43.604   2.203
54140W        W19125  34.557   2.183  12.956
54141W        W19126  23.092  19.779  10.631
54142W        W19127  31.174  23.908  11.764
54143W        W19128   4.812  31.617  10.040
54144W        W19129  30.315  27.086   4.706
54145W        W19130   9.394  16.241   3.380
54146W        W19131  15.969  43.257  12.210
54147W        W19132  34.813  22.709  12.063
54148W        W19133   4.106  39.904   0.769
54149W        W19134  42.544   7.849  10.707
54150W        W19135  43.035   3.367  12.995
54151W        W19136  28.097  19.188  13.074
54152W        W19137  43.337  18.639  12.427
54153W        W19138  32.385  16.048  11.124
54154W        W19139  41.918  19.869  13.525
54155W        W19140  26.780   7.944   0.713
54156W        W19141   2.233  17.834  10.870
54157W        W19142   8.616  38.996  11.012
54158W        W19143  21.090  34.463   1.871
54159W        W19144  13.641  30.243   2.102
54160W        W19145  13.349  10.644  13.629
54161W        W19146  25.473   4.678  11.582
54162W        W19147  43.293  30.498  14.766
54163W        W19148  10.739  20.352   2.763
54164W        W19149   8.256  33.053   4.218
54165W        W19150  35.092  32.407   2.268
54166W        W19151  12.792  33.870   3.366
54167W        W19152   7.808   0.419  12.546
54168W        W19153  42.688  15.788  14.126
54169W        W19154  20.961  17.133  14.541
54170W        W19155  34.280   6.099   1.244
54171W        W19156  16.558  41.489   0.296
54172W        W19157   2.946  18.145  12.033
54173W        W19158   2.232  18.821   0.705
54174W        W19159  23.169  18.349   1.878
54175W        W19160  32.844  39.300   2.606
54176W        W19161   4.845  39.257  12.531
54177W        W19162   6.189   6.200  14.489
54178W        W19163   0.020   8.851   1.302
54179W        W19164  20.766  34.982   3.394
54180W        W19165   5.552  40.113   0.384
54181W        W19166  10.826  28.134  10.884
54182W        W19167  11.238  43.657  12.586
54183W        W19168  22.509  14.832  10.720
54184W        W19169   4.763  11.836   4.538
54185W        W19170   0.045  26.570   3.627
54186W        W19171  27.124  28.619  13.048
54187W        W19172  14.302  22.165  10.856
54188W        W19173   0.358  35.638  10.373
54189W        W19174   9.405  15.597  11.054
54190W        W19175  21.106  23.241   2.638
54191W        W19176  22.526  29.024  14.012
54192W        W19177   7.055   1.661   2.629
54193W        W19178   6.711  36.544  14.484
54194W        W19179  27.995  44.906  14.679
54195W        W19180   4.355   8.146  13.705
54196W        W19181   7.220  16.808   0.185
54197W        W19182   3.045  42.520   1.677
54198W        W19183  21.892  40.514   0.319
54199W        W19184   0.931  26.441   0.257
54200W        W19185  15.974   8.945  11.648
54201W        W19186  23.100  22.117   4.053
54202W        W19187  44.216  27.749  13.973
54203W        W19188  28.407  43.887   2.199
54204W        W19189  17.251  25.079  14.773
54205W        W19190   1.728  10.220  13.009
54206W        W19191  21.628  32.352  13.486
54207W        W19192  43.824  36.827   0.879
54208W        W19193  14.552  42.692  14.858
54209W        W19194  15.775  24.222   3.066
54210W        W19195  26.687  15.465  11.981
54211W        W19196  16.671  37.928  11.699
54212W        W19197  39.975  27.137   1.621
54213W        W19198   6.115  11.297   4.644
54214W        W19199  22.764  13.833  14.033
54215W        W19200   1.003  42.872   5.038
54216W        W19201   0.523  43.137  14.853
54217W        W19202  32.624  34.971  13.849
54218W        W19203  20.025  38.488  11.222
54219W        W19204  11.759  36.930  14.946
54220W        W19205  19.582  27.649  13.875
54221W        W19206   9.331  27.183  14.229
54222W        W19207   0.923  21.163  13.074
54223W        W19208  31.389  35.951  12.471
54224W        W19209  28.688  22.523  12.788
54225W        W19210  13.147  10.920   2.795
54226W        W19211  35.528  34.070   2.405
54227W        W19212  32.285   9.218   4.629
54228W        W19213   4.725  33.675   2.157
54229W        W19214  12.844  23.225  14.774
54230W        W19215  31.988  36.399  11.993
54231W        W19216  35.205  27.521   4.300
54232W        W19217   6.305   6.928   3.659
54233W        W19218  13.134  24.471  11.919
54234W        W19219  11.824  15.034   4.370
54235W        W19220  39.940   3.198   1.109
54236W        W19221  13.524  14.736  13.020
54237W        W19222  28.252  26.470   2.826
54238W        W19223   8.205  28.933  14.066
54239W        W19224   2.484  13.575  11.191
54240W        W19225  33.597   8.793   1.620
54241W        W19226  38.614   3.963   2.689
54242W        W19227  28.163   9.791  11.490
54243W        W19228  41.411  27.498   4.587
54244W        W19229  31.546  17.603   3.106
54245W        W19230   4.920  25.572  10.728
54246W        W19231  40.523  41.036  13.033
54247W        W19232  26.672  44.426  14.079
54248W        W19233  26.432  29.947  12.114
54249W        W19234  11.155   7.934  14.545
54250W        W19235  18.048  40.055  13.561
54251W        W19236  20.647  33.209  11.239
54252W        W19237  10.648  23.422  11.685
54253W        W19238  21.455  26.896   2.193
54254W        W19239  25.508  10.891  13.903
54255W        W19240  44.840   1.142   3.164
54256W        W19241  24.899  37.798   1.755
54257W        W19242  16.986  30.247   3.035
54258W        W19243   2.658  40.212  14.097
54259W        W19244  33.366  12.027  14.820
54260W        W19245  36.079  41.944  12.110
54261W        W19246  22.079  36.598   0.255
54262W        W19247  26.960  22.461   4.089
54263W        W19248  37.034   9.311   2.360
54264W        W19249  30.176   5.824  12.163
54265W        W19250  15.265  24.904  10.680
54266W        W19251  23.958  43.434   1.411
54267W        W19252  37.443  16.547   2.246
54268W        W19253   1.021  41.050   4.435
54269W        W19254  20.206  18.765   1.801
54270W        W19255  15.716  35.762   9.382
54271W        W19256  12.220  20.726   2.402
54272W        W19257  24.721  39.916   2.020
54273W        W19258  15.150  34.838  11.126
54274W        W19259  24.401  29.058   0.475
54275W        W19260  34.689  29.536   4.197
54276W        W19261  13.908  26.882  14.442
54277W        W19262  14.103   6.326  10.247
54278W        W19263  33.457  16.023   4.797
54279W        W19264   1.074  35.847   2.153
54280W        W19265   5.191  21.364   2.268
54281W        W19266  44.061  27.760   4.458
54282W        W19267  37.513  10.253   3.694
54283W        W19268   4.740  38.991   2.504
54284W        W19269  13.886  25.103   3.157
54285W        W19270  15.847  27.010  14.328
54286W        W19271  27.498  10.369  11.125
54287W        W19272  15.580  38.926  14.505
54288W        W19273   4.751  32.774   4.279
54289W        W19274  33.587  39.734   3.614
54290W        W19275   4.779  18.768   2.629
54291W        W19276  43.096  14.153   3.654
54292W        W19277  34.269  18.265  10.672
54293W        W19278   4.315  31.023   0.519
54294W        W19279   6.211   6.092   0.426
54295W        W19280  43.902  34.119   0.268
54296W        W19281  44.175  40.961  12.036
54297W        W19282  43.938  38.402   0.806
54298W        W19283  11.705  22.821   3.598
54299W        W19284  35.618  13.731  12.036
54300W        W19285   7.413   6.842   1.196
54301W        W19286  21.601  31.806   3.339
54302W        W19287  26.587  31.711   4.454
54303W        W19288  27.288  44.357  11.329
54304W        W19289  25.542  42.840   3.697
54305W        W19290  17.351  38.753   2.421
54306W        W19291  12.817   3.220  12.988
54307W        W19292  23.280  43.376  14.698
54308W        W19293  44.417  11.886   4.566
54309W        W19294  17.096  25.540   3.812
54310W        W19295   6.158   8.753   0.287
54311W        W19296   9.140  31.594  13.978
54312W        W19297   2.330  26.497   4.548
54313W        W19298  15.628   9.348   0.313
54314W        W19299  44.888   6.483   2.784
54315W        W19300  39.307  13.050  13.010
54316W        W19301  13.100  21.290   4.532
54317W        W19302  11.358   6.568   5.445
54318W        W19303   8.295  33.655   1.966
54319W        W19304  21.223  13.130  14.114
54320W        W19305   4.469  31.324  14.228
54321W        W19306  36.972  40.850   1.159
54322W        W19307   1.828  16.709  14.554
54323W        W19308  26.959   3.014   3.204
54324W        W19309  20.987  16.145  11.453
54325W        W19310  37.032  10.425   3.573
54326W        W19311  34.482  26.874   4.773
54327W        W19312   5.416  35.452   3.678
54328W        W19313  39.432  43.826   0.011
54329W        W19314  12.275  43.215   3.719
54330W        W19315  30.521  29.952   4.378
54331W        W19316   5.910  14.248  14.306
54332W        W19317  22.432   0.274  10.581
54333W        W19318  22.665  25.099  14.570
54334W        W19319  36.041  14.998  11.240
54335W        W19320  10.279  29.947   2.745
54336W        W19321   0.901  37.608  10.685
54337W        W19322  26.399  22.561   3.163
54338W        W19323  36.871  28.345  14.802
54339W        W19324   9.235   0.997  10.738
54340W        W19325  28.039  28.133   0.403
54341W        W19326  11.079  42.443  12.933
54342W        W19327  29.044  37.264  11.503
54343W        W19328  30.548  39.510  13.336
54344W        W19329  19.011  10.512  10.061
54345W        W19330  19.829  43.633  10.588
54346W        W19331  40.703   0.257   4.070
54347W        W19332  40.502  11.853  12.557
54348W        W19333  16.083  11.815   1.815
54349W        W19334   7.016  28.007   4.156
54350W        W19335   8.912  30.417  12.661
54351W        W19336  14.395  17.825   3.236
54352W        W19337  27.240  24.650  14.854
54353W        W19338   7.598  39.280   1.229
54354W        W19339   4.939  21.693   4.947
54355W        W19340   2.346  35.790   1.308
54356W        W19341  13.161  15.714  10.900
54357W        W19342   3.348  22.414   2.033
54358W        W19343  13.109  23.108  14.351
54359W        W19344  22.761   9.551   0.654
54360W        W19345  39.173  37.302   0.731
54361W        W19346  27.626  23.028   2.887
54362W        W19347  22.573  15.090  11.186
54363W        W19348   4.902  10.046  13.924
54364W        W19349   6.026   6.433  10.286
54365W        W19350   2.986  10.668  13.110
54366W        W19351  20.177  39.068   3.349
54367W        W19352  35.262  41.907   0.333
54368W        W19353  43.964  31.051   0.122
54369W        W19354  23.567  13.348  11.185
54370W        W19355   3.440  30.602   2.831
54371W        W19356  22.429  22.121   0.733
54372W        W19357  25.246  24.195   0.784
54373W        W19358   7.137  36.751  12.007
54374W        W19359  23.784   8.397  14.411
54375W        W19360  13.565  31.159   4.165
54376W        W19361  25.960  30.449   1.779
54377W        W19362  43.227  27.954   4.569
54378W        W19363  39.536  28.086   1.194
54379W        W19364  16.162  37.003  12.705
54380W        W19365  14.716  22.451  10.983
54381W        W19366  42.911  17.245  11.663
54382W        W19367  34.892   3.727  14.027
54383W        W19368  23.060  37.080   1.773
54384W        W19369  15.230  34.301   0.368
54385W        W19370   6.486  32.094   0.481
54386W        W19371  11.275  14.856  12.470
54387W        W19372  14.314  38.202   1.062
54388W        W19373  22.196  12.207  13.338
54389W        W19374   8.497  36.388  11.493
54390W        W19375   8.034  28.196  11.932
54391W        W19376   9.639  29.692  12.359
54392W        W19377  30.405  34.994  13.495
54393W        W19378  25.764  35.138   4.218
54394W        W19379   9.923  27.972  13.508
54395W        W19380   9.783  28.998   0.844
54396W        W19381  38.868  41.840   2.634
54397W        W19382  34.069   9.589   2.341
54398W        W19383  42.171  16.260  12.537
54399W        W19384  27.960  24.127   1.195
54400W        W19385  21.319  22.392  14.801
54401W        W19386  20.659  28.698   1.345
54402W        W19387   7.124  10.278   4.180
54403W        W19388  40.213  15.570   0.398
54404W        W19389  10.801   3.782   1.288
54405W        W19390  31.570  22.061  14.214
54406W        W19391  42.251  26.677   1.199
54407W        W19392  12.146   6.331   2.360
54408W        W19393  28.016  21.107  13.853
54409W        W19394  28.447  17.574   3.622
54410W        W19395  23.253  14.188  10.722
54411W        W19396  44.147   4.360  13.449
54412W        W19397   8.775  26.246   2.783
54413W        W19398  20.582  11.872  14.865
54414W        W19399  26.078   6.233  12.527
54415W        W19400  28.740   5.895   1.190
54416W        W19401  38.621  16.046   4.335
54417W        W19402   0.386  12.277   4.305
54418W        W19403  10.774  43.206  10.892
54419W        W19404  28.130   2.595   2.855
54420W        W19405  37.971  40.283  14.841
54421W        W19406  13.562  32.641  11.062
54422W        W19407  37.912  32.583   1.216
54423W        W19408  30.528  35.165  14.373
54424W        W19409  27.414  37.235  11.047
54425W        W19410  26.203  10.100   4.303
54426W        W19411  17.877   0.824  13.641
54427W        W19412   2.752   2.847   4.735
54428W        W19413  19.844  37.534  11.251
54429W        W19414  24.008   5.158  14.362
54430W        W19415  37.949  20.778   0.779
54431W        W19416   1.813  12.073   4.741
54432W        W19417  11.401  20.859  10.319
54433W        W19418   2.170  38.930  11.507
54434W        W19419   5.945  36.125  12.829
54435W        W19420  23.607   7.090   2.313
54436W        W19421   0.199  39.672   3.188
54437W        W19422   1.621  14.147  11.818
54438W        W19423  36.100  33.691  12.541
54439W        W19424   1.699  12.245  11.965
54440W        W19425  25.930  22.569  10.761
54441W        W19426  14.363  43.301  11.507
54442W        W19427  11.003  26.720   3.173
54443W        W19428  17.551  22.669   1.703
54444W        W19429  24.046   2.135   5.094
54445W        W19430  35.531  42.041   4.466
54446W        W19431  13.859  14.167   4.565
54447W        W19432  30.465  42.581   0.140
54448W        W19433  32.629  41.496   2.831
54449W        W19434  33.607  33.504   5.006
54450W        W19435  39.488  19.810  14.832
54451W        W19436  41.234  28.573   3.854
54452W        W19437  38.072  42.541  12.440
54453W        W19438  26.205  17.135   1.327
54454W        W19439  44.925  44.445   4.422
54455W        W19440  21.612  33.395   2.170
54456W        W19441   4.211  40.978  14.878
54457W        W19442  31.801   3.462   1.544
54458W        W19443  44.940  31.481  12.409
54459W        W19444  14.130  13.951  12.024
54460W        W19445  43.712   1.308  14.702
54461W        W19446  17.066  15.339  11.020
54462W        W19447   0.722  13.628  10.684
54463W        W19448  19.642  21.117   4.563
54464W        W19449  18.762  35.497  12.555
54465W        W19450   3.798  21.159   1.024
54466W        W19451   4.163  41.790   4.171
54467W        W19452  40.928  27.489   3.235
54468W        W19453  10.285  32.488  11.187
54469W        W19454  15.606  35.642  13.262
54470W        W19455  31.149  36.812   3.171
54471W        W19456  11.257  20.754  13.937
54472W        W19457  41.073  18.876   1.035
54473W        W19458  23.635  24.210  11.217
54474W        W19459  27.606  20.864  11.969
54475W        W19460  41.562  36.368   2.620
54476W        W19461  12.561  29.181  13.002
54477W        W19462  26.703  34.534  11.177
54478W        W19463   8.273   1.209  12.915
54479W        W19464  28.049  40.518   0.833
54480W        W19465  44.689  39.782  13.421
54481W        W19466  39.208  41.388   3.001
54482W        W19467  29.406  12.913   4.081
54483W        W19468  20.860  28.553  12.943
54484W        W19469  44.573  37.134   2.728
54485W        W19470   7.854  30.661   2.621
54486W        W19471  24.553  10.887  12.095
54487W        W19472   3.006  38.101  11.083
54488W        W19473  23.904   9.792   4.550
54489W        W19474  24.676   0.253   3.617
54490W        W19475  28.119  12.328   0.778
54491W        W19476  24.798  12.184   2.148
54492W        W19477   3.917  43.631   4.296
54493W        W19478  21.276  14.125  13.311
54494W        W19479   1.721  23.509   3.316
54495W        W19480  42.952   9.461  10.318
54496W        W19481   3.035  10.398   1.392
54497W        W19482  13.683  40.458   1.157
54498W        W19483   0.518   5.403  13.915
54499W        W19484   5.442  16.015   0.412
54500W        W19485  17.620  41.900   3.599
54501W        W19486  14.515  39.857  13.929
54502W        W19487  13.549  19.148   3.064
54503W        W19488  33.093   9.809   2.883
54504W        W19489   2.347   6.790  12.952
54505W        W19490   7.401  42.371   4.192
54506W        W19491  38.492  42.692  13.089
54507W        W19492  19.014  41.433  12.955
54508W        W19493  23.636  11.146   4.002
54509W        W19494  34.810   2.026  13.376
54510W        W19495   8.969   8.566   3.427
54511W        W19496  11.853  19.617   4.773
54512W        W19497   9.651  23.759   4.122
54513W        W19498  40.001   4.804  12.344
54514W        W19499  19.670  26.960  12.032
54515W        W19500  37.805  31.881   4.979
54516W        W19501   6.704  27.542   3.146
54517W        W19502  16.505  37.414   2.338
54518W        W19503  21.771  35.105  12.990
54519W        W19504  20.035   1.444   3.141
54520W        W19505   0.274  17.084   4.142
54521W        W19506  10.165   6.314  11.849
54522W        W19507  26.231   1.797   0.890
54523W        W19508  14.265  30.337   1.397
54524W        W19509  29.636   3.501  14.795
54525W        W19510  43.302  18.195   1.245
54526W        W19511   6.853  33.476  11.459
54527W        W19512  32.002   8.100   0.388
54528W        W19513  22.524   3.046  10.632
54529W        W19514  11.206  18.176   3.065
54530W        W19515   0.112  30.759   0.102
54531W        W19516  11.103  19.126  12.075
54532W        W19517  15.240  31.381   3.870
54533W        W19518  36.073   3.080  13.700
54534W        W19519  41.028  34.591  14.519
54535W        W19520  39.576  41.550  10.988
54536W        W19521  14.256  38.559   2.926
54537W        W19522  44.340   3.462   0.157
54538W        W19523  42.565  32.769  11.604
54539W        W19524   1.171  20.634   1.137
54540W        W19525   6.567  37.045  11.357
54541W        W19526  22.300  11.179   3.668
54542W        W19527  18.285  26.626   3.012
54543W        W19528  30.124   3.818   3.383
54544W        W19529  36.721  28.944   1.057
54545W        W19530  35.358  32.001   3.663
54546W        W19531  21.503   1.207   1.222
54547W        W19532   3.744  35.151  12.159
54548W        W19533  20.741  31.327  13.983
54549W        W19534  12.471  22.213  10.612
54550W        W19535  24.100  10.173   3.362
54551W        W19536  29.452  14.359  10.755
54552W        W19537   4.971  38.472  12.975
54553W        W19538  31.059  27.050   1.811
54554W        W19539  27.720  29.697  14.795
54555W        W19540  15.642  28.084   3.282
54556W        W19541  35.817   0.891  12.587
54557W        W19542  26.957  15.907  11.965
54558W        W19543  12.149  41.554  13.985
54559W        W19544  26.489  38.081   2.719
54560W        W19545  38.405  41.863  13.817
54561W        W19546  39.933  36.804  13.901
54562W        W19547  40.972  10.682  13.097
54563W        W19548   3.057  37.679  12.029
54564W        W19549  27.434   6.246   1.276
54565W        W19550  24.253   4.411   3.286
54566W        W19551   6.957  11.696  14.291
54567W        W19552   3.391  26.896   3.134
54568W        W19553  11.547  37.128  12.007
54569W        W19554  20.270  30.602  11.619
54570W        W19555  14.037  19.968   1.853
54571W        W19556  31.159  14.652   1.773
54572W        W19557  22.002  17.584  12.639
54573W        W19558  12.196  16.606  12.021
54574W        W19559  36.248  26.964   4.100
54575W        W19560   8.295  27.255  11.848
54576W        W19561  29.720  24.186   1.613
54577W        W19562  35.224   6.657   4.132
54578W        W19563  39.794  19.146   0.312
54579W        W19564   9.232  10.836   1.670
54580W        W19565   3.963   4.912   1.164
54581W        W19566  18.832   5.428   5.547
54582W        W19567  32.393  28.915  12.436
54583W        W19568  12.200  20.659  14.800
54584W        W19569  39.980  24.265  13.264
54585W        W19570  42.779  15.637   3.299
54586W        W19571  24.755  32.087   2.829
54587W        W19572  10.036  43.711   4.282
54588W        W19573  24.470  38.587   3.789
54589W        W19574  22.258  44.721   2.654
54590W        W19575   9.687  23.311   0.289
54591W        W19576  27.030  19.634  14.735
54592W        W19577  21.592  35.942   1.887
54593W        W19578  31.546  12.278   0.081
54594W        W19579  32.979  39.288  11.425
54595W        W19580   0.386   1.489  13.929
54596W        W19581  27.548   5.847   2.382
54597W        W19582  32.035  28.299  11.177
54598W        W19583  21.053  31.182   2.880
54599W        W19584  32.964   0.766  11.487
54600W        W19585  16.511  16.796  14.015
54601W        W19586  23.498   1.899   5.071
54602W        W19587  12.406   0.486   3.263
54603W        W19588  35.083  33.548  12.555
54604W        W19589  24.064  26.235   0.728
54605W        W19590   4.582   9.407  11.401
54606W        W19591  32.718   2.940  14.655
54607W        W19592  23.141  24.770   0.277
54608W        W19593   7.113  17.042  10.790
54609W        W19594  32.531   4.391  12.120
54610W        W19595  25.300   2.530  10.659
54611W        W19596  28.209  43.041  13.525
54612W        W19597   6.338   4.235   2.417
54613W        W19598   4.406  35.567  10.673
54614W        W19599  31.056  27.479   4.424
54615W        W19600  10.609   5.879   2.731
54616W        W19601  43.763  31.042   0.963
54617W        W19602  23.653   2.444  11.197
54618W        W19603  17.190  26.273  11.146
54619W        W19604  34.191  10.648  10.198
54620W        W19605  32.852  30.642   0.807
54621W        W19606  13.267   9.436  10.696
54622W        W19607  41.424   3.875  13.148
54623W        W19608  13.305   4.400  10.668
54624W        W19609  27.244  29.454   0.092
54625W        W19610  27.505  19.911  13.989
54626W        W19611  30.965   5.877   4.578
54627W        W19612  27.035   6.891   3.190
54628W        W19613   8.104  21.025   1.941
54629W        W19614  35.407  22.720  13.798
54630W        W19615  44.326   5.138  11.112
54631W        W19616  40.021   9.676   0.492
54632W        W19617   3.938  13.249   2.125
54633W        W19618  39.831   5.335   2.304
54634W        W19619  41.264  34.287   2.133
54635W        W19620  16.627  31.277  11.154
54636W        W19621   3.926  42.023  10.786
54637W        W19622  19.802  16.929  10.608
54638W        W19623   4.854  43.250   0.542
54639W        W19624  23.044  16.154   4.515
54640W        W19625  25.957  21.674   3.361
54641W        W19626   5.720  11.667   0.299
54642W        W19627  25.198   8.281  12.028
54643W        W19628  40.113   6.462   0.028
54644W        W19629  22.881  34.421  13.985
54645W        W19630  33.226  26.680  10.520
54646W        W19631   0.609  39.041  11.654
54647W        W19632  19.589   8.697   3.846
54648W        W19633  43.681  26.625   5.072
54649W        W19634  21.645  12.784   0.930
54650W        W19635   8.139  41.368   0.307
54651W        W19636  13.786  29.776   4.178
54652W        W19637  12.145  26.418  12.451
54653W        W19638  43.703   8.221   2.393
54654W        W19639  20.135  12.136  10.684
54655W        W19640  18.105  24.218  14.915
54656W        W19641  22.056  33.449   2.428
54657W        W19642   4.027  19.703   5.074
54658W        W19643  24.333  19.137   3.337
54659W        W19644  32.293   4.822  11.966
54660W        W19645  28.452  43.839  12.051
54661W        W19646  15.321   1.053  10.840
54662W        W19647  30.906  37.031   0.357
54663W        W19648  11.766  43.744   0.750
54664W        W19649  18.411  10.857   2.716
54665W        W19650  36.946  18.661   0.984
54666W        W19651  22.953   8.168  13.366
54667W        W19652  21.745  13.657  11.578
54668W        W19653  23.146  21.630   1.066
54669W        W19654  39.911  13.175   3.069
54670W        W19655  34.356  39.803  14.322
54671W        W19656  43.233  15.136   0.840
54672W        W19657  28.509  34.363  14.800
54673W        W19658  25.171   1.614   0.225
54674W        W19659  26.227  26.051  10.327
54675W        W19660  32.842   7.355   4.088
54676W        W19661  36.575  33.359   1.942
54677W        W19662  30.929  19.748  14.274
54678W        W19663   6.747   7.626  12.021
54679W        W19664  13.806  38.170   1.228
54680W        W19665  37.656  33.534  12.884
54681W        W19666  34.009  21.618   2.892
54682W        W19667  22.566  38.596  13.534
54683W        W19668  31.105  24.204   0.507
54684W        W19669  16.690   9.676  14.343
54685W        W19670   9.165  11.757   1.691
54686W        W19671   7.779  19.821  12.487
54687W        W19672  23.506   0.030   2.605
54688W        W19673  32.966  20.519  10.593
54689W        W19674  14.676  11.702  12.927
54690W        W19675  40.577  24.772   0.872
54691W        W19676   6.407   7.904   2.318
54692W        W19677  42.611  13.124  11.606
54693W        W19678  41.994  35.562  12.514
54694W        W19679  17.869  14.843   3.800
54695W        W19680  38.471  44.509   4.101
54696W        W19681  22.813  40.268  14.217
54697W        W19682  12.127   8.652  12.529
54698W        W19683   5.855   8.578  14.860
54699W        W19684  24.514   0.346   0.658
54700W        W19685   6.111  14.251   2.799
54701W        W19686  18.120  40.795  12.199
54702W        W19687  33.051  18.036   2.837
54703W        W19688   3.364  40.425   5.038
54704W        W19689  34.296  19.456  11.398
54705W        W19690  32.594  37.914   1.275
54706W        W19691  18.571  36.056   0.750
54707W        W19692  17.374  22.304  12.044
54708W        W19693  16.859  37.482  13.036
54709W        W19694   2.713  19.309  11.790
54710W        W19695  13.593  34.981   0.698
54711W        W19696  42.244  19.802  11.116
54712W        W19697  13.320   1.074   2.836
54713W        W19698  44.058  21.512   2.318
54714W        W19699  37.832  23.469  11.680
54715W        W19700  30.017  19.844  13.956
54716W        W19701   0.257   0.165   3.717
54717W        W19702  29.843  20.733   1.257
54718W        W19703  24.513  15.855  10.785
54719W        W19704  14.390  32.301  11.144
54720W        W19705  19.552  22.237  12.337
54721W        W19706  15.030  42.491   0.467
54722W        W19707  27.659  35.460   3.794
54723W        W19708  40.871  42.639   0.209
54724W        W19709  20.713  37.721   3.709
54725W        W19710  40.448  14.414  11.190
54726W        W19711  35.967  38.330   0.227
54727W        W19712   8.923   4.853  12.018
54728W        W19713  40.262  37.804  14.476
54729W        W19714  21.432  19.781  12.450
54730W        W19715  28.493  25.182  12.809
54731W        W19716  17.553  27.223  13.060
54732W        W19717  26.108  13.856   0.781
54733W        W19718  24.193  19.304   0.809
54734W        W19719  36.825   3.225   0.429
54735W        W19720  13.251  43.361   2.869
54736W        W19721  38.418  27.465   2.396
54737W        W19722  42.261  40.981   0.616
54738W        W19723  42.034  19.380   9.834
54739W        W19724   3.779  12.331   0.146
54740W        W19725   3.929   5.235  13.335
54741W        W19726  14.689  11.777   1.098
54742W        W19727   8.114  26.561  12.462
54743W        W19728   3.828   4.155  11.599
54744W        W19729  22.263  33.572  10.774
54745W        W19730  20.941  13.152   0.476
54746W        W19731  10.590  34.807   1.340
54747W        W19732   4.913   6.783   0.697
54748W        W19733  13.724   6.370  14.276
54749W        W19734   9.738  15.255   0.791
54750W        W19735  15.064  32.339  13.375
54751W        W19736  40.026  21.306  14.342
54752W        W19737  18.425   9.218   3.247
54753W        W19738  41.358  30.405  10.592
54754W        W19739  19.224  43.039   1.278
54755W        W19740  10.595   8.896  10.962
54756W        W19741  29.626   5.506  12.073
54757W        W19742  25.124   7.242   4.083
54758W        W19743   8.865  10.524  10.952
54759W        W19744  18.313  12.391  12.076
54760W        W19745   0.052  34.364  10.480
54761W        W19746   2.446  36.065  14.876
54762W        W19747  43.151  15.324  13.471
54763W        W19748   9.732  28.140   2.958
54764W        W19749   5.163  12.880  14.783
54765W        W19750  37.308  44.580  13.917
54766W        W19751   7.892  22.600  12.480
54767W        W19752  14.046  40.564  12.167
54768W        W19753  41.065  15.098   3.523
54769W        W19754  12.358  26.762   3.206
54770W        W19755  23.619  13.516  13.974
54771W        W19756  30.267  25.064  10.665
54772W        W19757  37.023   9.144   1.841
54773W        W19758  12.579  26.664  13.958
54774W        W19759  35.629  21.135  12.860
54775W        W19760  38.006  19.081  14.334
54776W        W19761  26.504   8.393   0.942
54777W        W19762   8.751  12.300   1.466
54778W        W19763   3.819  40.214  11.795
54779W        W19764  15.706  37.220   2.054
54780W        W19765  41.504  23.721  10.479
54781W        W19766  32.982  22.742  14.834
54782W        W19767  14.885   2.336   0.448
54783W        W19768  34.514  30.116   2.433
54784W        W19769  19.677  34.376   4.967
54785W        W19770  17.236   0.042   4.107
54786W        W19771  28.135  37.952  12.930
54787W        W19772  27.306  10.127  12.471
54788W        W19773  17.086  30.209  13.883
54789W        W19774  23.792  20.861  11.502
54790W        W19775  24.891  35.551   0.759
54791W        W19776  31.659  37.145  11.029
54792W        W19777  26.437  25.641  14.484
54793W        W19778  38.869  40.306   2.737
54794W        W19779  31.309  24.553  11.345
54795W        W19780  26.043  34.043   4.627
54796W        W19781  16.097   6.726   3.230
54797W        W19782  13.301   2.631  11.962
54798W        W19783  28.902  36.765  11.420
54799W        W19784  10.688   9.174   4.180
54800W        W19785  33.689   1.335   0.903
54801W        W19786   9.788  16.181   1.456
54802W        W19787  24.079  19.841   0.135
54803W        W19788  40.409   4.509  14.878
54804W        W19789  37.570  26.546   4.140
54805W        W19790  10.745  22.579   4.798
54806W        W19791  26.428  34.493  13.054
54807W        W19792  23.732  33.108   2.860
54808W        W19793  21.234  25.037   3.806
54809W        W19794  29.335  42.291   4.057
54810W        W19795  32.108  36.900   0.024
54811W        W19796  44.294  10.828   1.443
54812W        W19797  36.125  23.121  12.067
54813W        W19798  24.742  11.199  12.970
54814W        W19799  35.187  26.071   0.304
54815W        W19800   0.330   7.673  11.990
54816W        W19801  18.383  15.188   1.907
54817W        W19802  39.080  10.593   3.630
54818W        W19803  42.806  41.746   1.770
54819W        W19804  28.025  15.633   2.846
54820W        W19805  13.619  29.004   4.598
54821W        W19806  16.332  21.984   1.190
54822W        W19807   5.318  43.908  14.518
54823W        W19808  31.103  29.923   3.712
54824W        W19809  39.407   1.359   0.651
54825W        W19810  20.957  39.926  12.521
54826W        W19811  18.034  18.737   2.315
54827W        W19812  17.981   8.743   9.946
54828W        W19813  10.826  31.595  14.942
54829W        W19814  28.515  26.083   2.407
54830W        W19815  12.706  42.603  14.301
54831W        W19816  13.438  11.813   3.649
54832W        W19817  28.983  31.151  14.837
54833W        W19818  12.660  11.288   4.594
54834W        W19819  24.720  31.528  11.851
54835W        W19820  44.409  31.032   4.590
54836W        W19821  26.525  43.839  11.620
54837W        W19822  11.668  33.579   1.386
54838W        W19823  16.648  33.489   0.718
54839W        W19824  21.472   4.796   1.765
54840W        W19825  26.867  21.148   1.227
54841W        W19826   2.616  33.076   3.819
54842W        W19827  22.395  34.613   4.131
54843W        W19828  21.128  12.711   3.704
54844W        W19829  30.804  36.571  13.555
54845W        W19830  40.647  29.118  14.080
54846W        W19831  34.140   0.838  11.217
54847W        W19832   7.919  21.496  10.518
54848W        W19833   1.387  26.672   2.054
54849W        W19834  36.957   5.887  12.199
54850W        W19835  19.949  29.873   0.962
54851W        W19836  43.513  31.029   4.552
54852W        W19837  15.788   6.386   0.182
54853W        W19838  40.219  30.412   0.456
54854W        W19839  39.744  44.998  13.278
54855W        W19840  39.262  17.550   4.341
54856W        W19841   6.740  38.859   0.943
54857W        W19842   2.904  42.967  11.157
54858W        W19843   0.768   9.703  12.981
54859W        W19844   9.441   9.102  12.511
54860W        W19845  14.557  34.126  12.956
54861W        W19846  31.984   3.442  11.448
54862W        W19847  33.654  37.367   0.696
54863W        W19848  27.464  33.429  12.429
54864W        W19849  38.831  11.595  13.498
54865W        W19850  33.860   8.196   3.521
54866W        W19851  24.657  13.139  11.862
54867W        W19852  15.037  13.882   4.201
54868W        W19853  34.291   9.762  11.149
54869W        W19854  23.899  29.755   4.090
54870W        W19855  20.315   5.353  11.198
54871W        W19856  27.388  35.858   3.592
54872W        W19857  33.240  25.892  14.923
54873W        W19858  40.342   9.524   3.027
54874W        W19859  27.390  21.107  13.014
54875W        W19860  36.880  28.640   0.213
54876W        W19861   0.953  41.952  12.852
54877W        W19862   2.543   7.870   4.298
54878W        W19863  27.822  27.599   1.947
54879W        W19864   4.376  19.393   3.240
54880W        W19865  12.005  35.127  12.460
54881W        W19866  44.978  15.046   3.808
54882W        W19867   8.348  26.710  14.959
54883W        W19868  29.179  42.060   1.445
54884W        W19869  34.155   4.411  12.969
54885W        W19870  36.686   7.796  11.647
54886W        W19871  24.100  17.312   2.861
54887W        W19872  21.586  18.587  14.456
54888W        W19873  41.381   2.280  10.941
54889W        W19874  19.289  19.386  11.736
54890W        W19875  13.136  24.673  14.418
54891W        W19876  17.439  10.417   5.065
54892W        W19877  31.210  32.561  11.555
54893W        W19878  14.842  40.215  14.857
54894W        W19879  12.757   7.299  13.935
54895W        W19880  24.029  27.751   2.228
54896W        W19881  32.525  40.991   3.089
54897W        W19882  15.215  34.050   3.954
54898W        W19883  18.942  15.699   1.182
54899W        W19884  15.634  37.483  13.596
54900W        W19885  22.406  18.071   3.696
54901W        W19886  14.811  30.086   3.627
54902W        W19887   1.511   8.806  10.647
54903W        W19888  37.213  25.038  11.890
54904W        W19889  39.415  40.919  11.527
54905W        W19890  27.280  19.796   0.690
54906W        W19891  23.728  10.136  13.571
54907W        W19892  35.871  12.677  13.422
54908W        W19893   4.725  37.065  14.845
54909W        W19894  44.325  14.138   2.212
54910W        W19895  36.347  29.439  12.364
54911W        W19896  40.571   6.338  11.666
54912W        W19897  37.087  12.470   2.325
54913W        W19898   4.453  34.105  13.965
54914W        W19899  13.761  19.598   2.834
54915W        W19900  22.570  14.800   4.736
54916W        W19901  27.103  25.731  10.680
54917W        W19902  28.401  12.674   2.298
54918W        W19903  12.348  34.095   3.205
54919W        W19904   5.693  14.782   3.257
54920W        W19905  14.623  17.977   2.813
54921W        W19906   2.974  30.543  11.724
54922W        W19907  21.178  35.559  11.059
54923W        W19908  37.687  15.795   0.745
54924W        W19909  33.478  16.556  12.618
54925W        W19910  44.968   0.921  12.990
54926W        W19911  33.813   4.100   3.307
54927W        W19912  23.971  11.413  13.331
54928W        W19913   4.942  23.576  14.938
54929W        W19914  28.622  17.057  12.578
54930W        W19915  44.729  29.536   2.468
54931W        W19916  33.529  22.171   9.984
54932W        W19917  16.228  35.795  13.912
54933W        W19918   8.273  11.031   1.621
54934W        W19919  19.202  37.108  13.106
54935W        W19920  23.459  31.111  12.019
54936W        W19921  43.482  34.320   4.520
54937W        W19922  33.066  16.060   0.363
54938W        W19923  29.520  32.050   2.476
54939W        W19924  15.805   0.893   2.827
54940W        W19925   4.874  42.333   1.602
54941W        W19926  36.592  42.752   1.803
54942W        W19927  34.495   7.450   3.568
54943W        W19928  39.446   8.145  14.838
54944W        W19929  41.001  17.377  14.370
54945W        W19930  17.113  35.263  13.497
54946W        W19931   2.714  32.556  12.491
54947W        W19932  33.409  37.040   3.468
54948W        W19933  33.898  30.534   4.394
54949W        W19934  18.743  13.433   4.941
54950W        W19935  36.130  20.252  14.714
54951W        W19936  15.753   4.639   0.393
54952W        W19937  10.267   9.795  13.920
54953W        W19938  41.781  42.437   1.298
54954W        W19939   6.182   3.166  11.972
54955W        W19940   9.757  10.098  14.540
54956W        W19941  11.812  30.548  14.419
54957W        W19942  19.064  43.301   4.045
54958W        W19943  39.535  31.018   4.518
54959W        W19944  33.357   0.679   1.931
54960W        W19945  20.971  27.712  12.499
54961W        W19946  36.780  21.637   3.594
54962W        W19947   9.904  28.285  11.953
54963W        W19948  37.042   2.313  12.025
54964W        W19949  34.635  40.361  12.886
54965W        W19950  22.587  14.086   1.315
54966W        W19951  36.598  19.370  13.853
54967W        W19952  33.699  32.094  10.143
54968W        W19953  14.817  19.526  11.133
54969W        W19954  23.202  31.613   3.732
54970W        W19955  24.240  31.547   0.767
54971W        W19956  36.453  11.439   0.810
54972W        W19957  35.899  24.866   1.941
54973W        W19958  32.462  10.308  13.707
54974W        W19959  35.671  20.006   2.357
54975W        W19960  20.836  41.891   1.495
54976W        W19961  23.260  21.266   0.250
54977W        W19962  11.427  42.107   2.652
54978W        W19963  22.305  32.988   2.357
54979W        W19964   3.143  34.864  14.746
54980W        W19965   6.905  44.200   3.697
54981W        W19966  41.682   9.796   3.838
54982W        W19967  33.845   4.875   2.816
54983W        W19968  44.851   6.531  14.947
54984W        W19969   6.230   8.270   4.348
54985W        W19970  31.177   4.810  12.441
54986W        W19971   5.180  32.972   1.330
54987W        W19972  25.722  31.188  12.157
54988W        W19973  26.487  22.218   2.210
54989W        W19974  15.790  13.184   1.828
54990W        W19975  14.449   8.420   1.797
54991W        W19976  33.652  20.789   2.840
54992W        W19977  11.248  29.674  14.108
54993W        W19978  37.186  37.491  11.635
54994W        W19979  14.812  22.009  13.412
54995W        W19980  29.626   0.252  11.531
54996W        W19981  10.281  21.244  12.289
54997W        W19982  33.063  38.571  12.056
54998W        W19983   1.546  24.799  14.729
54999W        W19984  18.007  17.883  11.309
55000W        W19985  36.936   7.764   1.912
55001W        W19986  32.054   8.820   1.895
55002W        W19987  29.647  24.049  10.656
55003W        W19988  15.064  44.931   2.752
55004W        W19989  37.520   2.365   3.613
55005W        W19990  36.527  17.767  11.306
55006W        W19991  44.221  40.564   3.633
55007W        W19992  10.578  26.654  12.451
55008W        W19993  42.048  12.453   3.812
55009W        W19994  44.385  40.989   0.054
55010W        W19995  19.659  13.336   4.416
55011W        W19996  30.641  19.667   4.327
55012W        W19997   1.691  17.077  14.885
55013W        W19998  11.362  33.324   4.165
55014W        W19999  39.980  43.864  11.057
55015W        W20000  37.408  22.514   2.694
55016W        W20001  42.772  23.884   0.794
55017W        W20002  10.343  13.799  14.755
55018W        W20003   5.899  21.053  13.021
55019W        W20004  16.340  31.800   0.787
55020W        W20005  44.358  27.640   1.866
55021W        W20006  35.960   5.791  13.438
55022W        W20007  43.603  38.023  13.360
55023W        W20008  26.607  16.009   5.033
55024W        W20009  23.667  27.431   3.536
55025W        W20010  24.596  25.498   1.687
55026W        W20011  36.132  42.774   2.585
55027W        W20012   6.012  27.886   4.231
55028W        W20013  33.742  26.591  10.602
55029W        W20014   7.770   6.231  11.192
55030W        W20015  24.248  25.625   3.351
55031W        W20016  31.982   3.896   0.738
55032W        W20017  35.146  42.234   5.054
55033W        W20018  27.110  39.545   1.913
55034W        W20019   3.208  29.698   1.182
55035W        W20020   3.773  40.857   3.324
55036W        W20021  33.950  28.003  10.708
55037W        W20022  24.529  14.655   4.685
55038W        W20023   4.963  33.138  13.891
55039W        W20024   6.227  21.489   3.081
55040W        W20025  27.144  31.383  11.684
55041W        W20026  31.941   5.356  11.001
55042W        W20027   6.799  15.695   0.521
55043W        W20028   2.841  37.794   0.443
55044W        W20029  26.606  11.462  10.671
55045W        W20030  29.940  37.673  14.156
55046W        W20031  25.356  41.891  12.647
55047W        W20032  29.635  20.711   4.890
55048W        W20033  16.259   8.192  13.815
55049W        W20034  17.204  36.372   1.866
55050W        W20035  12.335  42.049  12.389
55051W        W20036  11.078  22.179  13.704
55052W        W20037  10.792   1.778  14.624
55053W        W20038  31.622   3.187   2.889
55054W        W20039  35.974  18.595  13.250
55055W        W20040   4.430  14.116   4.138
55056W        W20041  32.421   6.548   2.830
55057W        W20042  26.098  38.438  10.495
55058W        W20043   9.971  44.734   4.224
55059W        W20044  35.972  22.877  11.514
55060W        W20045  30.635  28.551  11.839
55061W        W20046  35.138  41.837   4.168
55062W        W20047  34.463   0.004   3.296
55063W        W20048  22.239   6.868  11.147
55064W        W20049  44.941  26.028   5.033
55065W        W20050  37.223  39.486   0.031
55066W        W20051  33.572  40.328   3.136
55067W        W20052  10.661  19.992  13.904
55068W        W20053   9.059   0.334  14.535
55069W        W20054  25.319   9.618  12.550
55070W        W20055   9.173  42.533   0.194
55071W        W20056  27.513  26.082  12.934
55072W        W20057   9.690  16.659   3.350
55073W        W20058  32.484  16.994  13.492
55074W        W20059  30.106   6.863   4.189
55075W        W20060  32.370  15.707   4.058
55076W        W20061   8.842  18.576   0.208
55077W        W20062  23.639   1.388  13.394
55078W        W20063   2.548  19.223   3.252
55079W        W20064   7.402  31.434  11.187
55080W        W20065  39.061  16.430  12.048
55081W        W20066  11.085  14.768   3.009
55082W        W20067   1.493  41.031   1.842
55083W        W20068  36.993  27.635  14.455
55084W        W20069   6.281  27.109   2.039
55085W        W20070  29.104  35.660   0.849
55086W        W20071   2.470  27.483   4.354
55087W        W20072  12.808  39.545  11.160
55088W        W20073  29.462  34.061  10.915
55089W        W20074  28.841  35.906   0.459
55090W        W20075  26.454  14.662  11.667
55091W        W20076  23.214  43.454   4.566
55092W        W20077  29.095  14.081  12.962
55093W        W20078  28.510  18.502  11.637
55094W        W20079  43.644  42.975  14.914
55095W        W20080  26.116   1.973  14.873
55096W        W20081   1.365  14.312   0.063
55097W        W20082   6.894  20.599  11.151
55098W        W20083   8.788  43.842   4.596
55099W        W20084  24.683  14.644  11.507
55100W        W20085   8.713  34.527  13.765
55101W        W20086  20.106  32.370   3.329
55102W        W20087  22.542  11.268   4.147
55103W        W20088  13.888  22.129  11.706
55104W        W20089  40.342  33.956   5.346
55105W        W20090  44.433  36.205   0.451
55106W        W20091  40.411   6.268   3.573
55107W        W20092  18.748  42.462  13.893
55108W        W20093   6.476  40.722  10.777
55109W        W20094  22.504  39.063   3.284
55110W        W20095  41.765  37.177   1.363
55111W        W20096  19.724  21.085   0.814
55112W        W20097  40.475  20.047   2.183
55113W        W20098  27.673  38.966  11.945
55114W        W20099  43.421  16.566  13.798
55115W        W20100  12.331  44.652   3.350
55116W        W20101  24.065  32.465   3.004
55117W        W20102  24.150  10.146   4.239
55118W        W20103  27.538   2.828  13.377
55119W        W20104  25.090  22.117   2.842
55120W        W20105  25.143  14.432   0.770
55121W        W20106  20.734  32.781   0.917
55122W        W20107  37.772  34.537   1.104
55123W        W20108  31.664  39.266   2.239
55124W        W20109  43.379  22.859   1.399
55125W        W20110   5.325  34.348   1.729
55126W        W20111  37.099  24.292   2.782
55127W        W20112   2.899  36.161  13.711
55128W        W20113  38.632  11.253   1.790
55129W        W20114  13.865   0.421   1.764
55130W        W20115  31.814  44.914  11.277
55131W        W20116  18.629  14.595   0.302
55132W        W20117  44.202  29.088  14.157
55133W        W20118  40.365  41.971   0.676
55134W        W20119  23.755   4.278   3.335
55135W        W20120   0.279   4.943  12.599
55136W        W20121  30.404  37.177   2.955
55137W        W20122  14.736  36.343   3.801
55138W        W20123  11.433  21.077   2.684
55139W        W20124  38.619   7.778  11.956
55140W        W20125  43.855  20.759  11.334
55141W        W20126  13.548  39.331  14.920
55142W        W20127  43.862  44.420  11.480
55143W        W20128  23.293   1.591  14.575
55144W        W20129   2.898  23.009   0.252
55145W        W20130  38.934  27.635  11.892
55146W        W20131  27.670  13.608   0.658
55147W        W20132  36.658  28.661  12.471
55148W        W20133  41.825   5.433   2.295
55149W        W20134  24.239  18.119   4.645
55150W        W20135  33.630  10.640   2.779
55151W        W20136  41.586  21.566  11.136
55152W        W20137  41.980  42.583  13.909
55153W        W20138  21.141  15.069  13.720
55154W        W20139   0.804  18.085  11.571
55155W        W20140  31.479  29.574  11.591
55156W        W20141  37.732  20.681   3.406
55157W        W20142  28.088  18.801  11.604
55158W        W20143  23.024  35.754   4.889
55159W        W20144   0.196  18.688  10.081
55160W        W20145  44.797   8.139   3.326
55161W        W20146   6.579  15.571  10.066
55162W        W20147  20.557  38.474   2.150
55163W        W20148  35.434  35.677  11.603
55164W        W20149  27.925  40.544  11.116
55165W        W20150  15.022  40.979  11.535
55166W        W20151  16.077  28.943  14.442
55167W        W20152  41.305  23.638   2.744
55168W        W20153  40.883   6.649  12.082
55169W        W20154  13.389  41.055  14.657
55170W        W20155   9.839   8.866   2.769
55171W        W20156   2.655  28.161  10.247
55172W        W20157  19.795   1.778   1.902
55173W        W20158   4.664  18.573   3.123
55174W        W20159  30.161  33.429  12.663
55175W        W20160   3.440  24.670   0.924
55176W        W20161   3.953  31.545   1.210
55177W        W20162  30.111  16.801  14.492
55178W        W20163  15.737  43.707   0.134
55179W        W20164  40.864  26.123   0.780
55180W        W20165  29.676  17.101   3.257
55181W        W20166  19.715  14.214   4.389
55182W        W20167  22.988   3.701  12.937
55183W        W20168  25.028  44.324  12.819
55184W        W20169  29.082  19.326  10.680
55185W        W20170   9.950  16.136  12.486
55186W        W20171  35.941  33.730  14.964
55187W        W20172  11.642  34.045   4.682
55188W        W20173   8.700  20.311   3.757
55189W        W20174   0.958  34.694  14.766
55190W        W20175   3.273   6.155  12.404
55191W        W20176   0.619  16.590   2.884
55192W        W20177  22.468  37.921  11.121
55193W        W20178  17.139  20.693   1.330
55194W        W20179  36.816   1.397   0.505
55195W        W20180  42.850  33.478   1.436
55196W        W20181  16.268   9.737   0.544
55197W        W20182  21.118  33.148   2.756
55198W        W20183  23.277  24.228  13.340
55199W        W20184   5.828  39.952   3.216
55200W        W20185  24.012  44.161  11.077
55201W        W20186  12.195   2.081  14.719
55202W        W20187  25.554   0.894  14.721
55203W        W20188  35.244  32.419   1.394
55204W        W20189  10.173  36.099  13.043
55205W        W20190  43.956  31.825  11.971
55206W        W20191  36.597  18.153   3.677
55207W        W20192  19.743  40.906  13.054
55208W        W20193  29.395  22.600   3.709
55209W        W20194   6.409  23.528   0.735
55210W        W20195   5.651  17.500   1.204
55211W        W20196  22.432   4.866   3.395
55212W        W20197  34.377   2.787   2.429
55213W        W20198  43.743  20.630   3.863
55214W        W20199  29.619  23.938  12.102
55215W        W20200  13.948  22.113   1.417
55216W        W20201  29.688   4.663  13.381
55217W        W20202  43.675  32.234  13.494
55218W        W20203  19.639  10.016   4.025
55219W        W20204  34.567  16.261  11.584
55220W        W20205   8.934  23.127  13.802
55221W        W20206  33.176   2.251   1.814
55222W        W20207  41.557  28.894  10.822
55223W        W20208  22.193  10.158  10.208
55224W        W20209  44.494  21.251   1.761
55225W        W20210   3.264  29.648  14.490
55226W        W20211   5.867  22.989   3.812
55227W        W20212  18.219  16.794   5.001
55228W        W20213  13.774  30.907   0.281
55229W        W20214   0.950  29.509  14.255
55230W        W20215   0.704  31.487   0.154
55231W        W20216  31.563  34.093  14.043
55232W        W20217  39.540  24.092   3.657
55233W        W20218  25.454  12.947   0.333
55234W        W20219  38.499  12.021  13.860
55235W        W20220  43.104  30.066   0.001
55236W        W20221   5.650  23.581  11.212
55237W        W20222   0.123  25.004  14.878
55238W        W20223  12.304  18.316   1.786
55239W        W20224  23.632  39.261  12.445
55240W        W20225  21.691  24.599   2.851
55241W        W20226  41.942  16.039  11.171
55242W        W20227  17.207   4.872  14.414
55243W        W20228  23.966  35.940   1.758
55244W        W20229  19.162  35.814  12.676
55245W        W20230  12.708  17.045   4.348
55246W        W20231   0.154  31.436  10.778
55247W        W20232  15.549  12.189   2.915
55248W        W20233  35.035  17.676  12.789
55249W        W20234  16.242  42.398   2.936
55250W        W20235  32.629  25.311  13.581
55251W        W20236  19.809  35.694   0.874
55252W        W20237  24.016  16.870   1.919
55253W        W20238  43.503   8.897  12.964
55254W        W20239  22.961  39.988   1.785
55255W        W20240  44.394  28.034   5.084
55256W        W20241  30.174   9.241   1.851
55257W        W20242  31.644  36.451   0.433
55258W        W20243  27.642  17.160   4.025
55259W        W20244  16.783  40.597  11.140
55260W        W20245  13.970  35.060   4.768
55261W        W20246  22.166  29.548   4.220
55262W        W20247   7.408  43.842  14.511
55263W        W20248  16.688  12.670   4.230
55264W        W20249  41.780   9.411  11.048
55265W        W20250   2.845   1.297  14.511
55266W        W20251  25.885  44.253   2.870
55267W        W20252  43.354  14.823  11.216
55268W        W20253  17.764  30.570   2.372
55269W        W20254  44.725  20.682  11.235
55270W        W20255  22.222  35.305   1.701
55271W        W20256  44.318  38.541   1.733
55272W        W20257  41.029  41.003   1.684
55273W        W20258  43.073  40.598  14.079
55274W        W20259  11.319  22.551   0.305
55275W        W20260  17.279  11.282   3.177
55276W        W20261  14.174  21.648   4.561
55277W        W20262  29.258  33.458   4.986
55278W        W20263  23.718  42.408  13.212
55279W        W20264   6.814  13.658  14.323
55280W        W20265  11.902   8.427   3.661
55281W        W20266  13.261  16.169  13.973
55282W        W20267  26.166  25.641   1.941
55283W        W20268   0.525  25.075  11.963
55284W        W20269  27.872   4.566   1.716
55285W        W20270   9.427  42.282  11.758
55286W        W20271   5.216  40.937  14.881
55287W        W20272  34.882   2.406  11.212
55288W        W20273  17.476  36.834  14.428
55289W        W20274  10.904  41.673   4.471
55290W        W20275  33.371  21.951  14.288
55291W        W20276  23.464   9.899   0.364
55292W        W20277   3.844  26.281  11.565
55293W        W20278  11.561  25.228   3.636
55294W        W20279  20.206  21.680   0.223
55295W        W20280  22.098  41.309   2.752
55296W        W20281   1.982   2.701  12.436
55297W        W20282  10.776  29.631  13.308
55298W        W20283   2.858   5.628  14.392
55299W        W20284  34.913  21.550   0.007
55300W        W20285  23.569  33.419  10.339
55301W        W20286  26.396  28.065  10.735
55302W        W20287  38.846  24.576  13.955
55303W        W20288   4.221  12.736  12.031
55304W        W20289   1.781   7.647   4.663
55305W        W20290   7.466  11.529   0.137
55306W        W20291   9.302  24.593   2.677
55307W        W20292  34.571  37.678   4.090
55308W        W20293  17.566  40.533   4.095
55309W        W20294  22.674  32.083  14.780
55310W        W20295   0.612  12.550   3.137
55311W        W20296  18.027   9.603  13.484
55312W        W20297  11.037  28.631   3.823
55313W        W20298  21.104   9.500  11.700
55314W        W20299   0.315   0.004   0.684
55315W        W20300  29.341  35.543   2.920
55316W        W20301  40.890  25.946   4.748
55317W        W20302   8.277  16.329  11.873
55318W        W20303  21.707  20.636   1.252
55319W        W20304  19.127  29.861  14.980
55320W        W20305  31.884  43.981  14.898
55321W        W20306  22.625  26.090  10.697
55322W        W20307  20.117   9.143   1.950
55323W        W20308  24.012  42.260  12.482
55324W        W20309  35.897  26.990  11.434
55325W        W20310  20.192  21.963  10.237
55326W        W20311  40.597  23.626  14.333
55327W        W20312  25.935  32.179  14.946
55328W        W20313  20.643  34.142   2.849
55329W        W20314  18.115  19.366   1.800
55330W        W20315  36.000  23.023   1.578
55331W        W20316   4.203  31.168   4.052
55332W        W20317  39.808  31.341  11.924
55333W        W20318   7.742   0.443   0.853
55334W        W20319  26.490  26.481   5.395
55335W        W20320  44.284  36.146   2.768
55336W        W20321  42.819  19.573   2.363
55337W        W20322  25.578  43.259  13.677
55338W        W20323  29.501  20.602  13.504
55339W        W20324  35.021  11.437  12.866
55340W        W20325  39.640  20.402   0.454
55341W        W20326  34.976  34.622  11.824
55342W        W20327  18.517  43.900   2.858
55343W        W20328   0.986  28.139  11.582
55344W        W20329  40.884   3.299  11.485
55345W        W20330   3.103  12.351  11.685
55346W        W20331   4.972  44.831  12.796
55347W        W20332   8.291  44.760  13.307
55348W        W20333  20.955  11.681   1.733
55349W        W20334  37.858  43.492   0.493
55350W        W20335  26.416  13.283  12.870
55351W        W20336   1.380  12.404   2.920
55352W        W20337   0.462  23.797  12.402
55353W        W20338   5.996   7.343   3.604
55354W        W20339  12.064  32.875  13.525
55355W        W20340   7.670  39.325   3.293
55356W        W20341  21.417   5.423  10.871
55357W        W20342  35.435  23.321   3.220
55358W        W20343  29.895   6.672   3.210
55359W        W20344   9.820  13.191   4.161
55360W        W20345  29.584  13.405   4.091
55361W        W20346   4.004  11.999  13.793
55362W        W20347  28.406  26.174   3.772
55363W        W20348  14.717  25.172  14.514
55364W        W20349  11.321  31.910  13.408
55365W        W20350  30.652   3.163  12.377
55366W        W20351  15.904  26.557   4.952
55367W        W20352  12.353  22.572  13.491
55368W        W20353  16.679  23.708   1.330
55369W        W20354   5.900  31.411  14.348
55370W        W20355  28.457  15.371  13.579
55371W        W20356   6.342  38.339   0.330
55372W        W20357  40.285  13.089  13.961
55373W        W20358  44.972  35.212   4.325
55374W        W20359  37.605  38.383   1.413
55375W        W20360  41.476  35.226  11.582
55376W        W20361  35.588   9.692   1.372
55377W        W20362  12.792  38.888  14.277
55378W        W20363  17.082  34.979   4.960
55379W        W20364  39.394  20.836   4.423
55380W        W20365  21.186  37.757  10.397
55381W        W20366  29.030  17.090  11.451
55382W        W20367  21.437  18.005   1.126
55383W        W20368  22.077  20.547   0.825
55384W        W20369  37.589  44.975   4.957
55385W        W20370  29.698  23.558   3.278
55386W        W20371  12.188  24.428   2.928
55387W        W20372  31.101  10.662  10.965
55388W        W20373  13.244  25.259   0.282
55389W        W20374  18.713  35.963  10.430
55390W        W20375  37.388  44.809  10.604
55391W        W20376  31.472   7.537  13.070
55392W        W20377  38.408  29.106  11.110
55393W        W20378   6.759  26.598   4.687
55394W        W20379  39.379  13.617  10.615
55395W        W20380  21.052  12.664  14.864
55396W        W20381  22.777   3.959  10.633
55397W        W20382  21.996  25.673  11.071
55398W        W20383  11.166   1.041   0.803
55399W        W20384  36.256   5.268   3.283
55400W        W20385  10.353  28.466   3.119
55401W        W20386   0.026  37.592   1.328
55402W        W20387  24.373  29.702   4.948
55403W        W20388  31.693  35.525  11.485
55404W        W20389   1.267  13.134   3.388
55405W        W20390   1.359  21.240  13.476
55406W        W20391  32.575   1.990  11.344
55407W        W20392  27.189  10.959   1.248
55408W        W20393  44.272   2.960   0.258
55409W        W20394  21.619   1.986   2.790
55410W        W20395  32.837   5.175  10.765
55411W        W20396  38.437   9.351  11.541
55412W        W20397  31.905   6.236   0.340
55413W        W20398  11.347  40.512  10.473
55414W        W20399  30.081   4.364  10.685
55415W        W20400  43.408  10.772  13.604
55416W        W20401   0.949  22.691  11.030
55417W        W20402  23.306  15.268   4.528
55418W        W20403  42.558  29.155  11.985
55419W        W20404   2.977  31.988  14.308
55420W        W20405  35.552   9.123  12.521
55421W        W20406  21.982  11.157   4.501
55422W        W20407  42.012  13.627   0.639
55423W        W20408  28.123   6.643  13.883
55424W        W20409  37.136  26.764  14.985
55425W        W20410  32.463  16.786   0.281
55426W        W20411  13.326  24.499  13.974
55427W        W20412   3.969  15.000  11.020
55428W        W20413  28.378  27.140  14.319
55429W        W20414  28.130  39.829  10.738
55430W        W20415  16.639  43.419   4.915
55431W        W20416  32.475  41.288   2.165
55432W        W20417  39.330  18.184  11.596
55433W        W20418   0.227   7.151   2.108
55434W        W20419  27.556  21.654   2.857
55435W        W20420  39.939   6.773   2.596
55436W        W20421  43.728  28.157   4.476
55437W        W20422   4.685  22.731   3.728
55438W        W20423  13.929   0.502  14.436
55439W        W20424  38.994  22.091  14.820
55440W        W20425  36.484  14.336   0.689
55441W        W20426  31.135  22.244   2.570
55442W        W20427   3.941  29.161  11.477
55443W        W20428  13.746  36.436  13.962
55444W        W20429  13.098  22.253   4.919
55445W        W20430  34.565   5.738  12.084
55446W        W20431  18.280   6.575   3.680
55447W        W20432  24.529  33.940  11.747
55448W        W20433   4.490  40.424   4.150
55449W        W20434   5.375  44.083  12.414
55450W        W20435  28.044   3.859   3.401
55451W        W20436  24.293  37.360  11.615
55452W        W20437  10.427  41.331   0.302
55453W        W20438  30.461  42.374  14.673
55454W        W20439  29.206  36.377   2.791
55455W        W20440  38.802  44.013   2.771
55456W        W20441  42.490  30.635   2.250
55457W        W20442   3.242  43.330  10.983
55458W        W20443  27.113   0.494   0.824
55459W        W20444  39.879  25.771   1.695
55460W        W20445   3.842  23.199   2.735
55461W        W20446  14.743  40.226   3.067
55462W        W20447   0.807  23.072   4.749
55463W        W20448   5.210   5.148   0.404
55464W        W20449  24.432  39.417  10.720
55465W        W20450  37.513  16.977  11.647
55466W        W20451   7.229   0.044   1.732
55467W        W20452   1.847  17.791   0.506
55468W        W20453  10.585  16.581   4.589
55469W        W20454  13.975  25.871  12.482
55470W        W20455  11.737  15.767  12.264
55471W        W20456  25.644   4.636   1.328
55472W        W20457  43.358  38.085   0.818
55473W        W20458  34.187  18.985   2.607
55474W        W20459   5.950  30.610  14.167
55475W        W20460  42.267  19.619  10.236
55476W        W20461  30.905   6.180  14.746
55477W        W20462  24.728  44.876   2.321
55478W        W20463  43.506  15.282   1.278
55479W        W20464  29.690   0.037  12.004
55480W        W20465  36.242  20.747  12.711
55481W        W20466  33.186  17.541   2.692
55482W        W20467  32.133   1.526   4.965
55483W        W20468  32.012  37.022   3.723
55484W        W20469  15.436  11.354  11.148
55485W        W20470  17.191  37.578   1.367
55486W        W20471  40.263   6.793  14.458
55487W        W20472   0.396  17.267   3.656
55488W        W20473  21.580  33.648   0.842
55489W        W20474   2.892  10.335  12.188
55490W        W20475  41.964  27.249   3.176
55491W        W20476  35.333   1.479  11.371
55492W        W20477  29.429   2.268   1.734
55493W        W20478   0.026  29.589  14.323
55494W        W20479  10.226  23.026  12.670
55495W        W20480   0.202  19.396  12.139
55496W        W20481  20.955  43.546  13.000
55497W        W20482  10.207   7.357   2.246
55498W        W20483  33.292  35.850   0.875
55499W        W20484   6.351  26.077  13.603
55500W        W20485  10.441  11.028   4.316
55501W        W20486  23.239  27.056   3.628
55502W        W20487   1.752  12.760  10.760
55503W        W20488  16.405  36.001   4.751
55504W        W20489   7.459  14.290   4.086
55505W        W20490  17.788  14.313  10.684
55506W        W20491  27.886  22.707   4.556
55507W        W20492   9.681  24.427   2.357
55508W        W20493   5.330  11.214  10.910
55509W        W20494  22.044   6.281  13.964
55510W        W20495  19.776   0.755   0.936
55511W        W20496  17.130  40.133   1.332
55512W        W20497  35.364  23.210  13.253
55513W        W20498   4.289   4.803   4.948
55514W        W20499  20.575   3.022  12.019
55515W        W20500  40.820  28.996  14.962
55516W        W20501  10.206  15.103   0.990
55517W        W20502   2.413   3.269   4.654
55518W        W20503  31.957   5.888   3.313
55519W        W20504  29.530  31.502  12.405
55520W        W20505  31.303   5.687   2.826
55521W        W20506  18.194  10.118  10.083
55522W        W20507  15.722   8.700  14.833
55523W        W20508  27.204  18.430  10.755
55524W        W20509  18.441  42.224   3.952
55525W        W20510  40.027  32.576   1.408
55526W        W20511   8.611  34.351  14.239
55527W        W20512   6.188  37.011  13.961
55528W        W20513   5.972  40.976  13.350
55529W        W20514   2.815  19.861  14.853
55530W        W20515  33.356   8.198   1.284
55531W        W20516   4.870   8.678   3.953
55532W        W20517  12.136  34.526   1.918
55533W        W20518  26.868   2.340   0.279
55534W        W20519   0.185  11.840   2.268
55535W        W20520  24.439  15.137   3.218
55536W        W20521  33.143   7.217  11.972
55537W        W20522   8.120  31.848   3.991
55538W        W20523   3.327  34.130   3.323
55539W        W20524  28.130  43.476   2.427
55540W        W20525   7.417  18.915  14.754
55541W        W20526   2.040  17.362  11.025
55542W        W20527   5.736  27.248   2.869
55543W        W20528  17.357  34.348   4.122
55544W        W20529  24.220   5.675   1.884
55545W        W20530   9.601  40.248   4.144
55546W        W20531  13.170  23.215  12.602
55547W        W20532  41.532  33.818   0.373
55548W        W20533  11.453  38.112   4.633
55549W        W20534   3.653  14.333  12.954
55550W        W20535  24.496  38.635   2.913
55551W        W20536   0.218  41.336   4.618
55552W        W20537   7.396   6.730  13.534
55553W        W20538  22.151  20.145   4.556
55554W        W20539  12.838  29.412  10.161
55555W        W20540  33.778  32.298   0.739
55556W        W20541   2.405  37.798  13.521
55557W        W20542  35.065  21.084   5.040
55558W        W20543   5.228  44.555   4.161
55559W        W20544  11.808  33.346   3.183
55560W        W20545  20.863  43.457   4.515
55561W        W20546  35.200   0.317  12.576
55562W        W20547  38.928   4.533  11.239
55563W        W20548  17.122  22.232   2.331
55564W        W20549   3.857  16.559  14.322
55565W        W20550   9.984   8.590  14.374
55566W        W20551  17.583  34.983  12.801
55567W        W20552   4.026  29.603   4.135
55568W        W20553  36.891   8.961   2.770
55569W        W20554  26.273   4.407   3.231
55570W        W20555  26.433  40.792  13.556
55571W        W20556  40.804   5.693  14.926
55572W        W20557  19.896  28.794   3.274
55573W        W20558  43.938  39.807   4.499
55574W        W20559  28.572   2.949   0.238
55575W        W20560  38.787   1.031  11.454
55576W        W20561  30.005  18.922   4.033
55577W        W20562  21.739  33.612   1.725
55578W        W20563  34.044   9.613   0.846
55579W        W20564  31.350  29.978   2.324
55580W        W20565   5.677  26.597  14.862
55581W        W20566  20.545  22.530   0.400
55582W        W20567  30.401  31.013  10.611
55583W        W20568  31.137  26.792   0.059
55584W        W20569  43.353  19.319  12.143
55585W        W20570  36.506  12.477  11.367
55586W        W20571  33.321  16.658  14.036
55587W        W20572   8.352  34.837   3.802
55588W        W20573  42.591  43.963  10.663
55589W        W20574  20.557   8.306  11.945
55590W        W20575   7.200  33.401   4.395
55591W        W20576  31.642  44.691  10.355
55592W        W20577  18.216  12.341  10.666
55593W        W20578  25.987  32.394   3.996
55594W        W20579  29.437   6.952  12.023
55595W        W20580  17.223  33.769  10.244
55596W        W20581  29.616  10.080  11.411
55597W        W20582  14.225   1.705  13.763
55598W        W20583  30.669  31.421   4.864
55599W        W20584  20.721   0.237   3.104
55600W        W20585  25.994  42.544   3.346
55601W        W20586   1.371  15.319  14.898
55602W        W20587  24.453  13.712  10.647
55603W        W20588  35.743  27.561  14.996
55604W        W20589  19.967  33.274  13.645
55605W        W20590   6.221   8.844  10.462
55606W        W20591  20.755  10.595   1.202
55607W        W20592  31.611  26.437  12.862
55608W        W20593  13.613  10.752   4.948
55609W        W20594  33.319  38.121   0.756
55610W        W20595  22.505  28.544  13.831
55611W        W20596  17.140  20.492  13.932
55612W        W20597  12.632  37.376   3.181
55613W        W20598  20.468  31.976  11.660
55614W        W20599  15.726  14.392  13.034
55615W        W20600  16.775   7.900   4.130
55616W        W20601  20.562  20.753  13.593
55617W        W20602  41.221  37.128   3.845
55618W        W20603  27.631   4.615   2.768
55619W        W20604  12.239  40.877  11.243
55620W        W20605   3.865  24.865  12.091
55621W        W20606  35.578   2.311   2.696
55622W        W20607  22.121  16.046  13.992
55623W        W20608  36.091  19.543  13.262
55624W        W20609  29.074  17.098   2.366
55625W        W20610  34.557  32.163  12.473
55626W        W20611   3.872  19.034   0.376
55627W        W20612  10.374  14.618   0.315
55628W        W20613  36.620   6.487  14.928
55629W        W20614  38.527  11.185  11.751
55630W        W20615  23.495  39.496   1.030
55631W        W20616  27.223  10.803  11.058
55632W        W20617  20.163  26.786  11.951
55633W        W20618  26.762  15.759  13.323
55634W        W20619  13.313  33.700  12.552
55635W        W20620  27.383  43.152   1.932
55636W        W20621   2.360  44.846   3.769
55637W        W20622  12.818  34.439  13.493
55638W        W20623  17.807  25.837   2.590
55639W        W20624   4.828  27.065  10.575
55640W        W20625  39.366  19.028   1.199
55641W        W20626  17.592  38.304   2.413
55642W        W20627  21.234  23.760   1.401
55643W        W20628  29.018   6.362   1.581
55644W        W20629  38.069   1.264  12.062
55645W        W20630  15.211  42.556   2.614
55646W        W20631  26.012   5.936   4.611
55647W        W20632  43.390   2.388   0.460
55648W        W20633  23.379  22.468  12.866
55649W        W20634  31.825  27.325   3.400
55650W        W20635  15.095  39.275  14.876
55651W        W20636   7.546  18.438  10.266
55652W        W20637  36.211  15.177  11.687
55653W        W20638  32.163  17.251  14.451
55654W        W20639  34.032  37.338  13.224
55655W        W20640  31.930  41.000   3.867
55656W        W20641  19.819  42.015   4.118
55657W        W20642   5.198  34.143  12.929
55658W        W20643  11.667  13.518   0.897
55659W        W20644   2.715   3.767   4.042
55660W        W20645  17.112  10.024  12.175
55661W        W20646   9.703  21.043  10.578
55662W        W20647  27.274  15.884  14.302
55663W        W20648  10.588   7.689  12.908
55664W        W20649   6.361  40.359   4.700
55665W        W20650  11.682   6.147  13.562
55666W        W20651  44.752  43.914  14.474
55667W        W20652  21.636  15.561   1.883
55668W        W20653  21.256  40.367   3.081
55669W        W20654   0.391  12.214   1.965
55670W        W20655   9.169  43.989   4.291
55671W        W20656  16.086  21.901   2.952
55672W        W20657   4.965  11.245  13.590
55673W        W20658  21.605  24.703  11.031
55674W        W20659  18.311  24.905  14.287
55675W        W20660  33.781  26.754  12.808
55676W        W20661  32.424  28.976  10.665
55677W        W20662  14.572   8.513   2.791
55678W        W20663  26.448  10.305  12.211
55679W        W20664  41.840  31.112  14.058
55680W        W20665  14.392  10.677   3.279
55681W        W20666   7.777  15.744  10.926
55682W        W20667  20.311  20.218   0.375
55683W        W20668  18.147  12.391   4.189
55684W        W20669  34.382   4.925  13.940
55685W        W20670   0.568  36.985  11.554
55686W        W20671  33.355   3.448   0.325
55687W        W20672  20.221  25.545  14.005
55688W        W20673  42.256   0.513  14.359
55689W        W20674  41.048  15.174   1.281
55690W        W20675  39.377  24.516  12.693
55691W        W20676   6.195  32.669   2.319
55692W        W20677  18.081  23.656   2.788
55693W        W20678   9.324  39.015  14.710
55694W        W20679   1.777  19.244  12.874
55695W        W20680  34.025   6.827   5.481
55696W        W20681  14.519   7.267   3.183
55697W        W20682   9.104  26.570  13.772
55698W        W20683  10.430  18.565  10.692
55699W        W20684  12.764   1.109  12.139
55700W        W20685  41.543  38.924  12.552
55701W        W20686  11.251   0.359  10.662
55702W        W20687  26.873  24.548   4.586
55703W        W20688  42.127  15.967   1.832
55704W        W20689  13.316  12.710   3.100
55705W        W20690  41.740   4.001  14.915
55706W        W20691   3.498   8.991   4.141
55707W        W20692  21.721   5.686   1.695
55708W        W20693  36.345  37.144   1.895
55709W        W20694  11.081  43.244   0.496
55710W        W20695  17.996  34.316  12.023
55711W        W20696  37.047   5.667  11.369
55712W        W20697   2.496  26.448  12.529
55713W        W20698   3.711  44.895  12.494
55714W        W20699   1.477  41.803   1.215
55715W        W20700  14.170  28.161  13.380
55716W        W20701  29.196  37.707   2.645
55717W        W20702  36.545  34.092  11.439
55718W        W20703  27.831  36.430   3.338
55719W        W20704  19.296   2.452  14.858
55720W        W20705  18.775  34.950   5.001
55721W        W20706  37.157  11.893   1.078
55722W        W20707  34.862   9.973  14.450
55723W        W20708   0.249   1.202  14.350
55724W        W20709  35.370   3.461  11.988
55725W        W20710  23.319  38.561   0.770
55726W        W20711  21.674  44.847   0.890
55727W        W20712  42.394  30.233   3.474
55728W        W20713  44.031  41.460  13.919
55729W        W20714  12.107   2.682  12.856
55730W        W20715  24.619   9.750  13.976
55731W        W20716  24.735  13.877  13.903
55732W        W20717  39.441  22.074   4.101
55733W        W20718  38.384  18.083  10.101
55734W        W20719  20.003  40.861   1.823
55735W        W20720  18.525  32.161  10.846
55736W        W20721  44.101  34.890  14.780
55737W        W20722  41.830  29.010   9.735
55738W        W20723  16.565  25.674   0.232
55739W        W20724  26.661  44.403  13.543
55740W        W20725  19.060  17.116  10.549
55741W        W20726  12.749  22.203  12.835
55742W        W20727  37.919  32.642  13.183
55743W        W20728  31.705  19.228  14.009
55744W        W20729  27.127   3.542  14.041
55745W        W20730  17.055  38.077  12.528
55746W        W20731  26.458  21.828  12.835
55747W        W20732  11.617  14.796  12.098
55748W        W20733   4.215  23.067   1.469
55749W        W20734  16.802  40.987   2.200
55750W        W20735  13.840   7.355  13.227
55751W        W20736   3.641  43.342  10.661
55752W        W20737  21.209   7.177  14.327
55753W        W20738   5.007   2.843  14.346
55754W        W20739   7.594  37.404  14.401
55755W        W20740  22.255   8.670   0.856
55756W        W20741   5.702  42.052  12.061
55757W        W20742  18.846   1.801   3.264
55758W        W20743  18.198  23.960   3.623
55759W        W20744   8.328  39.275   0.945
55760W        W20745   8.243  31.051  10.730
55761W        W20746  23.641   8.277   3.272
55762W        W20747  38.819  35.464  12.542
55763W        W20748  18.699  36.529   1.704
55764W        W20749  44.517   1.710  10.014
55765W        W20750  14.245  19.228  11.989
55766W        W20751  32.339  37.547   4.414
55767W        W20752   1.332   5.888   0.192
55768W        W20753   1.893  25.199  13.762
55769W        W20754   2.659   9.162  10.299
55770W        W20755  18.796  25.992  13.114
55771W        W20756  11.272  21.718  13.381
55772W        W20757  18.660  13.196   1.765
55773W        W20758   4.594  18.223  10.463
55774W        W20759  39.539   0.357  11.525
55775W        W20760  44.952   4.659   2.954
55776W        W20761  14.091  42.748  11.507
55777W        W20762  12.774  31.840   0.982
55778W        W20763  41.997  41.361  13.362
55779W        W20764  31.375   9.890  14.402
55780W        W20765  19.567  22.024  10.156
55781W        W20766  19.278  17.048   5.359
55782W        W20767  15.257   0.494   4.364
55783W        W20768  13.536   7.212   5.007
55784W        W20769   8.614  27.586   4.876
55785W        W20770  38.350  20.782  11.070
55786W        W20771  10.113  31.703   4.100
55787W        W20772  15.837  13.115  11.879
55788W        W20773  37.209  18.741   3.710
55789W        W20774   6.926  21.137  12.839
55790W        W20775  31.687  21.093  14.761
55791W        W20776  31.576  24.170   0.799
55792W        W20777  22.730   8.779   4.621
55793W        W20778   0.505  20.700   0.349
55794W        W20779   2.539  17.194  10.969
55795W        W20780  23.631  29.632   1.978
55796W        W20781  23.445   1.977  12.065
55797W        W20782  36.967   3.211   3.819
55798W        W20783  22.002   7.828  11.131
55799W        W20784  32.973  31.429   0.350
55800W        W20785  30.596  24.298   0.714
55801W        W20786  19.540  42.413   1.913
55802W        W20787  42.340  14.600  12.114
55803W        W20788  34.991  34.912  14.270
55804W        W20789   3.199  22.128  12.933
55805W        W20790  11.716  17.059   3.306
55806W        W20791  35.582  23.165   0.280
55807W        W20792  23.671  37.347  14.468
55808W        W20793   9.897  33.536  13.740
55809W        W20794  19.733  34.900   2.227
55810W        W20795  34.497   4.732  11.111
55811W        W20796  14.354  21.279   1.009
55812W        W20797  16.611  15.695  13.889
55813W        W20798  44.713   5.770  14.908
55814W        W20799  33.465  36.910   1.431
55815W        W20800  42.847   1.021   2.597
55816W        W20801  41.007  40.805  12.947
55817W        W20802   0.346  38.921  10.612
55818W        W20803   9.858  19.828   2.726
55819W        W20804  15.194  22.228   0.778
55820W        W20805  28.125  29.540   2.276
55821W        W20806  32.686  17.692   2.705
55822W        W20807  25.232  20.858  11.151
55823W        W20808  37.634  23.795   2.174
55824W        W20809  21.539  43.289  11.961
55825W        W20810  25.988  16.867  10.767
55826W        W20811  10.335  18.058  14.020
55827W        W20812   4.986   3.394   2.960
55828W        W20813  27.692  12.741   3.568
55829W        W20814   8.979  25.614   1.825
55830W        W20815  40.050  32.044   0.105
55831W        W20816  13.830  29.524  11.889
55832W        W20817   5.864   5.785   2.376
55833W        W20818  39.090  19.602   1.857
55834W        W20819   9.895  18.063  12.502
55835W        W20820   7.721  21.584  13.339
55836W        W20821  33.447  13.278   1.104
55837W        W20822  39.747  30.708   4.137
55838W        W20823  24.718  39.543  12.935
55839W        W20824  14.195  25.517  11.517
55840W        W20825  33.456  16.395   0.416
55841W        W20826  13.225  23.951  13.103
55842W        W20827   6.358  13.847   3.203
55843W        W20828  11.416  22.059   2.712
55844W        W20829  14.581  11.661   2.578
55845W        W20830  29.400  39.385  13.820
55846W        W20831   3.842  37.592   1.528
55847W        W20832  20.733   9.836   2.058
55848W        W20833  11.462  41.391   3.268
55849W        W20834  40.045  38.066  14.889
55850W        W20835   5.325  27.628   0.614
55851W        W20836  42.255  27.358  11.584
55852W        W20837   1.367  34.121   2.306
55853W        W20838  26.986  43.023  14.732
55854W        W20839  41.989  32.234   2.187
55855W        W20840  31.810  13.080   0.431
55856W        W20841  24.780   2.431   5.417
55857W        W20842   0.019  34.333   3.170
55858W        W20843  12.876  21.630   0.904
55859W        W20844  24.941  23.438  13.859
55860W        W20845  36.505  17.532   1.373
55861W        W20846  42.410   1.492  11.380
55862W        W20847  20.937  10.071  13.322
55863W        W20848  19.226   7.231  14.041
55864W        W20849  41.847  18.620   4.187
55865W        W20850  31.599  20.482  10.695
55866W        W20851   6.081   5.158  14.997
55867W        W20852  39.978  42.906  14.944
55868W        W20853   9.896  42.979   3.747
55869W        W20854  13.558   0.796  12.526
55870W        W20855  28.565   7.254   4.368
55871W        W20856  16.220  21.497   3.299
55872W        W20857   3.177  40.025   4.795
55873W        W20858  25.235  15.767  14.432
55874W        W20859  26.883   8.921  12.045
55875W        W20860  35.734  28.131   3.340
55876W        W20861   1.720  26.347   4.882
55877W        W20862  25.463  14.662   0.423
55878W        W20863  36.631  12.878  13.981
55879W        W20864  25.776  27.972  11.584
55880W        W20865   4.775   1.365   3.753
55881W        W20866  13.595  22.171   4.756
55882W        W20867  27.922  15.586  14.778
55883W        W20868  41.904  17.096  11.449
55884W        W20869   2.643   1.188   3.610
55885W        W20870   7.884  36.791  10.803
55886W        W20871   8.428  44.474  11.200
55887W        W20872  43.061  28.971  13.410
55888W        W20873  39.693  22.587  10.772
55889W        W20874   7.411  19.778   0.631
55890W        W20875  41.999  11.911  11.012
55891W        W20876  31.437  22.738  11.719
55892W        W20877  43.851  27.073   2.047
55893W        W20878  30.175  41.766  12.958
55894W        W20879   1.584   3.282  10.294
55895W        W20880  20.676  34.622   4.763
55896W        W20881  27.948  26.475   3.675
55897W        W20882   8.151  30.635   0.756
55898W        W20883  38.613  11.809   3.865
55899W        W20884  21.500  11.133   4.685
55900W        W20885  16.580  30.354  12.952
55901W        W20886  39.991   9.272  14.248
55902W        W20887  26.356  20.819   4.562
55903W        W20888  13.305   6.384   0.517
55904W        W20889  12.307  23.008   3.256
55905W        W20890   3.782  34.141   3.572
55906W        W20891   0.583  10.704  12.962
55907W        W20892  19.145  34.793   3.041
55908W        W20893  37.197  13.129  11.144
55909W        W20894  15.807  24.197   1.189
55910W        W20895   6.938  34.423   1.940
55911W        W20896  23.656  20.569   0.393
55912W        W20897  43.907  22.784   3.277
55913W        W20898  16.266  10.361  11.745
55914W        W20899  15.355  40.872   4.743
55915W        W20900  41.045  25.275  12.139
55916W        W20901  38.138  27.155  11.878
55917W        W20902  44.857  31.789  11.947
55918W        W20903  32.610  41.418   3.349
55919W        W20904   1.691   5.948  14.805
55920W        W20905  12.737  43.472   0.195
55921W        W20906   4.349  37.056   3.772
55922W        W20907  14.701  30.389  11.825
55923W        W20908  17.192   3.709  14.266
55924W        W20909  44.143   6.651  12.925
55925W        W20910  44.600  20.169  11.088
55926W        W20911  15.720  10.902  12.894
55927W        W20912  42.783   9.235   4.346
55928W        W20913  27.955   4.618  10.717
55929W        W20914   8.845   3.674   2.668
55930W        W20915  32.204  16.713   1.800
55931W        W20916  11.772  29.991   4.939
55932W        W20917   5.439  37.668  11.081
55933W        W20918   4.471  30.836   1.969
55934W        W20919  17.158  37.784  10.513
55935W        W20920  12.676   4.692   4.521
55936W        W20921   3.078  18.322  10.811
55937W        W20922   4.502  17.281  12.982
55938W        W20923   3.113  39.775  14.233
55939W        W20924   3.294  17.138   0.376
55940W        W20925  44.542  43.936  11.145
55941W        W20926   2.708  20.036   2.811
55942W        W20927   0.843  15.754  12.537
55943W        W20928  24.057   8.753  13.573
55944W        W20929  39.786  20.741   2.822
55945W        W20930  43.856   6.920  11.972
55946W        W20931   9.128  19.607   0.809
55947W        W20932  24.479  42.734   3.557
55948W        W20933   2.678   5.150  12.120
55949W        W20934  12.942   6.415   0.856
55950W        W20935  19.098   3.183   1.782
55951W        W20936   0.807  26.995  10.850
55952W        W20937  10.865  40.238   0.839
55953W        W20938   3.910  17.786  13.540
55954W        W20939  43.584   7.890  11.158
55955W        W20940  13.322  44.307   0.030
55956W        W20941  41.046  20.318   0.338
55957W        W20942  12.824   1.719  13.541
55958W        W20943   5.155  28.023   3.792
55959W        W20944   2.850  31.498  13.558
55960W        W20945  19.230  22.750   1.371
55961W        W20946  14.275  14.588  12.609
55962W        W20947  36.556  12.504  14.937
55963W        W20948  11.600  31.911   3.330
55964W        W20949   4.996  17.306   0.679
55965W        W20950  19.465   5.098   2.696
55966W        W20951   0.983  37.124  11.973
55967W        W20952  18.060   7.514   1.276
55968W        W20953   9.601  22.324   3.244
55969W        W20954  20.241  13.678   0.038
55970W        W20955   6.716  20.723   0.023
55971W        W20956  34.176   2.143  14.756
55972W        W20957  22.169   7.286   1.319
55973W        W20958  28.463  13.263  13.840
55974W        W20959  31.235  23.061  12.051
55975W        W20960  33.139  36.772  12.084
55976W        W20961  36.896  14.779  14.001
55977W        W20962  14.841  25.294  12.111
55978W        W20963  40.515  43.894   3.760
55979W        W20964   0.174  14.577   3.715
55980W        W20965  34.449   5.089  10.737
55981W        W20966  34.114  11.754  11.109
55982W        W20967  24.530  42.278   3.279
55983W        W20968  12.341   6.231   4.560
55984W        W20969  13.104   8.012   0.933
55985W        W20970  26.140  35.627   1.373
55986W        W20971  12.688  34.141   2.179
55987W        W20972   5.762  10.004  13.303
55988W        W20973  24.229  19.611  14.662
55989W        W20974  19.689  22.075   0.786
55990W        W20975  27.587   8.276  11.134
55991W        W20976   5.914  23.574  10.730
55992W        W20977  43.276   7.204   2.805
55993W        W20978   0.845  43.237  11.824
55994W        W20979  36.062  13.753  13.494
55995W        W20980   6.218  25.909   4.597
55996W        W20981  34.497  27.258   3.404
55997W        W20982   1.452  17.595   4.618
55998W        W20983  32.947  22.222  14.947
55999W        W20984  23.748  15.246   0.078
56000W        W20985  11.714  25.422  11.553
56001W        W20986  24.259  44.991  14.396
56002W        W20987  28.965   6.536   1.093
56003W        W20988  38.883   5.888   3.841
56004W        W20989  10.790  23.156  12.410
56005W        W20990  21.294  23.621  11.163
56006W        W20991  27.325  37.470   5.061
56007W        W20992   2.872  32.414   1.992
56008W        W20993  14.843  32.923  11.452
56009W        W20994   9.437  21.611  14.985
56010W        W20995  13.515  40.675   0.724
56011W        W20996  42.113  21.128  13.903
56012W        W20997  11.659  11.216   3.580
56013W        W20998  14.320  32.895  12.623
56014W        W20999  38.520   3.317   0.556
56015W        W21000  44.328  34.911  11.984
56016W        W21001   3.781  39.087   3.991
56017W        W21002  39.670  34.880   2.799
56018W        W21003  40.959  37.156   4.280
56019W        W21004  36.932  22.227   0.974
56020W        W21005   5.229  43.273   0.921
56021W        W21006  26.045  27.000  13.020
56022W        W21007  41.525   1.167  11.154
56023W        W21008  29.642   4.963  11.120
56024W        W21009  14.375   4.273  10.628
56025W        W21010   4.659  32.312  12.429
56026W        W21011  21.423   7.698   0.422
56027W        W21012  34.482  37.812  14.142
56028W        W21013  11.348  17.237  13.385
56029W        W21014   1.234  44.868  11.228
56030W        W21015  23.477  21.514   1.448
56031W        W21016  44.003   3.312  11.725
56032W        W21017  17.533  32.693   2.289
56033W        W21018  17.204   6.704   1.688
56034W        W21019  28.864  35.482   3.094
56035W        W21020  11.673  27.165  11.583
56036W        W21021  30.430   7.120  13.777
56037W        W21022  43.690   5.344   3.021
56038W        W21023  26.664  17.151  14.034
56039W        W21024   9.150   0.631  11.969
56040W        W21025  42.423   1.260  13.360
56041W        W21026  24.789  24.995  14.951
56042W        W21027  22.107   4.853  14.788
56043W        W21028  28.431  14.765  11.999
56044W        W21029  18.556  20.712  10.706
56045W        W21030  26.932  29.232  13.698
56046W        W21031   8.851  40.203   4.180
56047W        W21032  28.599  26.658   4.398
56048W        W21033  24.929  27.419   1.299
56049W        W21034   7.850  36.909   3.137
56050W        W21035  18.103   8.413  11.107
56051W        W21036  23.143   6.774  11.180
56052W        W21037  28.982  34.794  12.413
56053W        W21038   5.382  33.950  14.857
56054W        W21039  17.502  38.571   4.592
56055W        W21040  23.278  20.475  13.888
56056W        W21041  31.279  14.868   4.050
56057W        W21042  15.150  17.996  12.528
56058W        W21043  42.797  35.800   0.763
56059W        W21044  39.179  33.534   3.813
56060W        W21045  43.692  12.593   0.957
56061W        W21046  34.195  14.089   4.234
56062W        W21047   8.341  27.061   4.101
56063W        W21048  17.340  17.805  11.130
56064W        W21049  39.214  26.210   0.349
56065W        W21050  38.499  12.587   0.735
56066W        W21051  42.481  15.635  10.912
56067W        W21052  14.057  43.174   3.671
56068W        W21053  16.276  31.685  11.109
56069W        W21054  28.959  13.389  13.577
56070W        W21055   4.408  14.858   3.115
56071W        W21056  35.065  26.439  13.790
56072W        W21057  27.948  16.687  12.923
56073W        W21058  36.518  35.860   5.096
56074W        W21059  33.472  16.841  12.006
56075W        W21060  26.957  30.441   1.639
56076W        W21061  28.150  27.283  12.177
56077W        W21062  18.428  34.427  11.668
56078W        W21063  10.918  33.591   3.354
56079W        W21064  18.735  27.133   5.123
56080W        W21065   5.300   7.142  11.536
56081W        W21066  15.425   9.957   1.172
56082W        W21067  24.250  39.058  12.066
56083W        W21068  18.345  15.588  14.846
56084W        W21069  35.410   6.428  12.519
56085W        W21070  18.151  20.560   1.183
56086W        W21071  19.649  16.270   4.533
56087W        W21072   8.945  26.884   1.149
56088W        W21073  40.067  28.460  11.605
56089W        W21074   8.673  13.758  13.495
56090W        W21075  22.939  18.631   0.776
56091W        W21076  40.127  14.636   2.777
56092W        W21077  12.904  18.234  11.454
56093W        W21078  44.160  12.152   2.836
56094W        W21079  13.130  39.795   4.115
56095W        W21080  24.179  14.243   0.412
56096W        W21081  12.252  39.707  13.338
56097W        W21082   3.194  38.849  14.277
56098W        W21083  15.810  41.891  14.058
56099W        W21084  44.127  22.288  12.939
56100W        W21085  20.524  29.906  14.745
56101W        W21086  29.125   0.447  11.456
56102W        W21087  30.065  17.092  12.655
56103W        W21088  14.342  20.227  12.639
56104W        W21089   4.284   8.823   1.666
56105W        W21090  29.428  25.254  13.831
56106W        W21091  20.214  23.213   2.301
56107W        W21092  23.192  32.884  10.936
56108W        W21093  41.820  20.710  14.003
56109W        W21094  11.776  43.708  13.433
56110W        W21095  23.942  32.901   0.181
56111W        W21096  11.971  19.225  14.259
56112W        W21097  27.394  31.088   0.881
56113W        W21098  17.269  30.420  11.265
56114W        W21099  13.836  44.424  14.998
56115W        W21100  42.415  29.415  11.531
56116W        W21101  26.631  19.611   4.386
56117W        W21102  31.501  11.810  14.915
56118W        W21103   2.667  17.649   4.018
56119W        W21104  11.407   5.941  13.935
56120W        W21105  37.465  20.960   0.159
56121W        W21106  44.445  18.436   2.805
56122W        W21107   3.361   7.785   1.826
56123W        W21108  24.935   5.258  14.705
56124W        W21109  39.761  38.414   2.241
56125W        W21110  22.467  38.430  10.585
56126W        W21111   2.010  13.830   3.277
56127W        W21112  25.438   2.858   3.231
56128W        W21113   8.856   2.224   0.890
56129W        W21114  33.781  25.435  12.885
56130W        W21115  40.486  24.968  11.555
56131W        W21116  40.939  34.474  12.109
56132W        W21117  18.429  25.170   2.238
56133W        W21118  41.289  21.522  12.008
56134W        W21119  11.831  42.279  13.401
56135W        W21120  34.992  16.388  12.868
56136W        W21121  28.770   0.931  13.092
56137W        W21122  28.203  21.254   1.881
56138W        W21123  29.097   0.228  13.942
56139W        W21124   3.924  33.377  13.297
56140W        W21125  28.014  33.414  12.082
56141W        W21126  23.262   8.823   4.597
56142W        W21127   1.538   2.606  12.057
56143W        W21128  17.281  15.774  13.497
56144W        W21129  14.842   7.169   2.220
56145W        W21130   6.691   1.382  11.192
56146W        W21131  16.024  22.530  10.926
56147W        W21132  28.542  42.480   1.651
56148W        W21133   7.266  24.768  13.937
56149W        W21134  11.418  33.343  11.806
56150W        W21135  35.642  27.983  11.193
56151W        W21136  39.824  41.333   4.602
56152W        W21137  42.361  27.215   2.816
56153W        W21138  12.279  18.585  12.446
56154W        W21139  37.953  27.706   0.978
56155W        W21140  37.711  10.651  10.699
56156W        W21141  17.173  12.513   4.982
56157W        W21142  43.808   5.347   2.531
56158W        W21143  37.633  23.276   2.143
56159W        W21144  13.257  11.374   3.399
56160W        W21145   8.875  23.873   5.145
56161W        W21146  44.713  28.123  10.501
56162W        W21147  12.819   0.742   1.200
56163W        W21148  40.700  15.305   2.675
56164W        W21149  21.109   7.186  12.888
56165W        W21150  24.384  17.648   0.340
56166W        W21151  26.710  40.103   0.288
56167W        W21152   4.909  16.441  14.424
56168W        W21153  33.525  30.039  11.484
56169W        W21154  31.342  11.496  10.277
56170W        W21155   6.938   3.851  11.165
56171W        W21156  18.250  42.752   4.810
56172W        W21157  32.330  21.671  10.564
56173W        W21158  15.439  41.410   0.019
56174W        W21159   6.651  39.205  11.182
56175W        W21160  37.102  41.825  11.982
56176W        W21161   3.285  31.573   2.423
56177W        W21162  29.770  29.406   0.458
56178W        W21163  37.171  24.781   2.870
56179W        W21164   2.418  34.918  13.043
56180W        W21165  10.461  24.170   2.104
56181W        W21166  10.179  20.997   0.226
56182W        W21167  21.710  39.369   0.893
56183W        W21168  31.707  44.966  14.922
56184W        W21169  30.958  25.599  13.567
56185W        W21170  29.256  36.807   0.570
56186W        W21171   9.346  42.024   2.670
56187W        W21172  28.713  20.634   2.156
56188W        W21173  11.185  34.569  11.273
56189W        W21174  26.888  44.885  11.099
56190W        W21175  12.929  33.134   2.379
56191W        W21176   0.657  42.757   3.707
56192W        W21177  15.067   0.585  10.783
56193W        W21178  32.051  19.338   2.427
56194W        W21179  35.351   4.055   2.358
56195W        W21180  16.155  35.570  11.637
56196W        W21181  20.186   4.208   1.856
56197W        W21182  31.348   9.743   5.456
56198W        W21183  34.156  38.087  11.983
56199W        W21184   8.457  27.865   0.497
56200W        W21185  16.124   3.417   4.816
56201W        W21186   1.772  25.655   3.811
56202W        W21187  29.605  30.424  12.415
56203W        W21188   8.910  11.089  12.980
56204W        W21189  23.654  17.800   3.060
56205W        W21190   0.439  23.792   2.402
56206W        W21191  17.774   4.791  12.230
56207W        W21192  22.635  34.568  11.396
56208W        W21193  44.782  15.194   0.860
56209W        W21194  27.093  19.012  13.545
56210W        W21195   3.290  10.562  10.556
56211W        W21196   6.677   1.215   1.730
56212W        W21197  27.507  24.481   0.413
56213W        W21198   3.930  22.789   0.379
56214W        W21199   7.215   4.863   1.209
56215W        W21200  40.222  26.240  11.601
56216W        W21201  23.578  41.802   3.409
56217W        W21202  21.244  37.013   1.725
56218W        W21203  13.611   9.390   0.830
56219W        W21204   6.655  23.722  12.993
56220W        W21205  40.252   8.751   3.737
56221W        W21206   1.238  38.868   4.682
56222W        W21207  31.686  28.254  10.612
56223W        W21208  26.517  21.504  13.991
56224W        W21209  24.535  24.480   1.800
56225W        W21210  29.725   7.287   5.036
56226W        W21211  39.759  29.500  14.470
56227W        W21212   3.451  28.211  14.245
56228W        W21213  32.331   5.756  13.883
56229W        W21214  17.432  27.672   1.213
56230W        W21215  13.220  36.670  13.555
56231W        W21216  24.848   3.196  14.403
56232W        W21217  11.138  12.018   0.920
56233W        W21218  41.115  10.354   2.821
56234W        W21219  27.258   9.416   4.208
56235W        W21220   7.172  32.062   4.127
56236W        W21221  17.593  36.053  13.873
56237W        W21222   2.773   2.822   1.820
56238W        W21223  32.181  34.751  12.582
56239W        W21224  42.261  29.654   1.314
56240W        W21225  40.035  21.955  12.996
56241W        W21226  38.995   7.886  14.702
56242W        W21227  14.600  31.845  14.518
56243W        W21228  29.196  40.831   3.296
56244W        W21229  14.624  38.758  13.021
56245W        W21230  17.970  20.608   2.140
56246W        W21231   5.309  37.864   4.973
56247W        W21232  10.225   6.453   5.471
56248W        W21233  35.003  18.726   3.590
56249W        W21234  26.067   8.378  14.758
56250W        W21235  35.391  33.067  12.585
56251W        W21236  20.753  15.074  11.119
56252W        W21237   7.194   4.875   2.629
56253W        W21238  34.114  30.543   3.030
56254W        W21239  10.773   1.599  12.016
56255W        W21240  38.453  20.978   9.853
56256W        W21241  33.000   3.195   3.761
56257W        W21242  44.333   9.067   0.158
56258W        W21243   2.158   1.478   2.537
56259W        W21244   7.626  12.355   1.384
56260W        W21245  23.634   1.365  10.971
56261W        W21246  24.894   9.774   3.263
56262W        W21247  34.005   9.644  11.585
56263W        W21248  34.676  18.635   0.898
56264W        W21249  30.655  19.680   2.218
56265W        W21250  31.181  29.651  14.757
56266W        W21251   0.264  23.684  13.065
56267W        W21252  40.924  31.684  11.027
56268W        W21253  29.217  10.454   4.544
56269W        W21254  10.374  10.394   3.747
56270W        W21255  33.112  13.546  11.502
56271W        W21256  26.071   6.711  13.778
56272W        W21257  40.783  23.250   4.126
56273W        W21258  33.992   2.457  11.232
56274W        W21259  29.675  38.774  11.108
56275W        W21260  37.829  36.519  14.029
56276W        W21261  42.849   7.278   1.874
56277W        W21262  18.342  26.215  10.976
56278W        W21263  21.193   1.687   2.738
56279W        W21264   3.837  25.913   0.356
56280W        W21265  42.427  14.399   0.112
56281W        W21266  24.819  10.072   0.586
56282W        W21267  34.554  26.064  10.959
56283W        W21268  43.049   3.819  14.364
56284W        W21269   1.567  34.308   1.839
56285W        W21270  30.473   8.628   4.242
56286W        W21271   7.464  17.564   0.820
56287W        W21272  37.359  24.692  10.602
56288W        W21273   3.200  42.363   0.784
56289W        W21274  42.474   5.658  12.338
56290W        W21275  24.471   6.929   4.127
56291W        W21276  31.072  36.998  14.836
56292W        W21277  10.779  13.296   4.570
56293W        W21278   0.520  42.828  13.399
56294W        W21279  44.045  30.124   4.821
56295W        W21280  33.128   9.687  14.724
56296W        W21281  37.042  30.839   4.662
56297W        W21282  15.153  32.536  14.289
56298W        W21283  31.195  41.260   1.780
56299W        W21284  44.301  28.501   2.504
56300W        W21285  10.884  42.329  12.441
56301W        W21286   0.469  33.933  14.947
56302W        W21287  24.968   3.479  12.051
56303W        W21288   6.103   4.237  11.995
56304W        W21289  37.997  29.697   1.191
56305W        W21290  22.617  29.845   0.449
56306W        W21291  22.480  31.997  11.167
56307W        W21292  28.564  14.606   1.259
56308W        W21293  31.374  31.580  11.048
56309W        W21294  11.091  30.601   2.734
56310W        W21295  24.531  41.388   3.284
56311W        W21296  26.733  13.373   3.664
56312W        W21297  34.450  25.238   2.712
56313W        W21298  30.066  27.831  14.153
56314W        W21299  29.089  29.558  11.061
56315W        W21300   5.904   3.743  14.036
56316W        W21301  10.887   3.318  13.469
56317W        W21302  24.837  26.549   4.693
56318W        W21303  36.059   9.774  11.553
56319W        W21304  10.162  19.054  13.948
56320W        W21305  10.261  20.658   0.946
56321W        W21306   6.862  38.279  12.019
56322W        W21307  40.388   6.537   4.013
56323W        W21308  12.152   4.413   0.862
56324W        W21309  41.908   1.852   0.016
56325W        W21310  38.274  36.623   0.378
56326W        W21311   9.408  40.819   4.633
56327W        W21312  29.407  27.047   2.937
56328W        W21313  14.697  10.257  10.536
56329W        W21314  24.086  40.278  11.748
56330W        W21315  11.039   3.245   4.611
56331W        W21316  21.152   8.436  13.519
56332W        W21317  34.452  12.594  14.349
56333W        W21318  17.478  24.244   5.034
56334W        W21319  44.843  22.034  13.489
56335W        W21320  18.545   7.908  13.966
56336W        W21321   7.771  23.736   2.329
56337W        W21322  44.841  13.996   2.767
56338W        W21323  24.618  37.611   3.228
56339W        W21324  23.507  18.222  12.364
56340W        W21325  20.578  31.695   2.871
56341W        W21326  40.691  43.710  13.883
56342W        W21327  31.313  35.028   1.289
56343W        W21328  31.679  37.717   1.376
56344W        W21329  35.420  15.283   1.219
56345W        W21330   7.182  11.195  14.222
56346W        W21331  15.317  32.040   2.675
56347W        W21332  14.105   5.431  14.239
56348W        W21333  21.498  29.202  13.022
56349W        W21334  17.165  25.999   0.765
56350W        W21335   9.502  20.579   3.868
56351W        W21336  39.123  27.213  12.224
56352W        W21337  38.873  32.516   0.959
56353W        W21338   2.336   0.698   0.874
56354W        W21339  44.629  33.083   1.286
56355W        W21340  31.095  17.681   1.008
56356W        W21341  19.092  14.257   2.331
56357W        W21342   3.214  38.520  12.620
56358W        W21343   0.943   6.746  13.529
56359W        W21344  43.976   1.818   2.490
56360W        W21345  33.499  26.543   1.348
56361W        W21346  12.429  16.574  12.484
56362W        W21347  25.256  40.850   0.382
56363W        W21348  40.938   3.832  11.425
56364W        W21349  16.256  41.774   4.264
56365W        W21350  22.304  23.923   2.373
56366W        W21351  36.280  28.985   3.263
56367W        W21352   6.650  37.502   3.651
56368W        W21353   0.437  20.539   2.090
56369W        W21354  12.969   2.880   1.067
56370W        W21355  30.098   4.146  11.152
56371W        W21356  18.882  30.688   1.341
56372W        W21357  31.948   3.572  12.967
56373W        W21358  23.249  42.274  11.455
56374W        W21359  21.254  27.583  12.093
56375W        W21360  36.846  39.449   4.395
56376W        W21361   4.325  19.690   2.241
56377W        W21362  24.003   0.463  12.334
56378W        W21363  23.534  17.044  11.956
56379W        W21364  27.644   8.342   1.629
56380W        W21365  40.198  32.875   4.493
56381W        W21366  36.162  36.243   4.963
56382W        W21367   7.373  27.101   2.663
56383W        W21368  31.869  19.030   0.918
56384W        W21369  11.108  36.463   0.422
56385W        W21370  35.662  17.705  10.740
56386W        W21371   8.799  13.606   4.778
56387W        W21372  17.291  31.556   4.015
56388W        W21373   9.853  38.415   3.152
56389W        W21374  13.690  16.806  12.782
56390W        W21375  23.294   5.304   4.090
56391W        W21376  44.751  14.993   1.743
56392W        W21377   5.173  44.718   1.711
56393W        W21378   4.715  31.549   3.839
56394W        W21379  26.614   2.390  14.295
56395W        W21380  19.693   1.483  12.959
56396W        W21381   9.153  43.115  12.826
56397W        W21382  23.714  32.852  13.017
56398W        W21383  15.694  21.304  11.311
56399W        W21384  38.772   6.808   4.036
56400W        W21385   3.502  26.672  14.362
56401W        W21386   8.346  10.090  11.008
56402W        W21387  41.414  10.171  11.574
56403W        W21388   5.185  31.593   0.361
56404W        W21389   6.449  43.793  14.501
56405W        W21390  37.978  27.123   4.942
56406W        W21391  29.416  25.190   2.901
56407W        W21392   3.675   3.987  10.716
56408W        W21393  38.714  31.446  12.988
56409W        W21394   4.487  25.172   2.996
56410W        W21395  41.821   1.706   0.871
56411W        W21396   3.967  14.169   2.309
56412W        W21397  22.661  18.578  10.666
56413W        W21398  39.487  33.442   1.528
56414W        W21399  14.318   5.516  10.768
56415W        W21400   7.584  35.389   1.533
56416W        W21401  34.157   7.325  10.243
56417W        W21402  34.139  23.036   2.281
56418W        W21403  32.667  37.356  12.591
56419W        W21404  13.525  16.627   4.133
56420W        W21405  38.698  38.543   4.531
56421W        W21406  40.301  28.006  13.017
56422W        W21407  39.614   2.694   3.794
56423W        W21408  16.136  11.296  14.076
56424W        W21409  44.011   9.113  13.864
56425W        W21410  11.911  29.595   0.380
56426W        W21411  22.327  30.161   1.370
56427W        W21412  19.318  37.929  14.937
56428W        W21413   9.837  24.761   2.716
56429W        W21414  39.612  42.432   3.782
56430W        W21415  23.737  24.589   1.333
56431W        W21416  15.916   1.846  11.156
56432W        W21417  12.466  24.025   0.186
56433W        W21418   8.370  13.630  14.726
56434W        W21419  10.466  36.857   4.952
56435W        W21420  17.667  35.091  14.307
56436W        W21421  40.174  12.128   4.481
56437W        W21422  12.384  10.899   3.157
56438W        W21423  30.349  24.867   4.915
56439W        W21424  32.655  42.023   2.777
56440W        W21425   3.358  32.075  11.347
56441W        W21426  12.617  19.496   2.336
56442W        W21427  18.744  16.940   0.018
56443W        W21428   7.405   4.929  10.667
56444W        W21429  34.636  28.938  12.108
56445W        W21430   0.353  18.676   1.464
56446W        W21431  44.393   9.768  10.705
56447W        W21432  41.447  44.475   4.937
56448W        W21433  32.530  31.004  11.559
56449W        W21434  25.998  30.361  13.169
56450W        W21435  31.908  34.333   1.963
56451W        W21436  30.552   2.242  14.794
56452W        W21437   3.172   2.868   2.174
56453W        W21438  37.064   5.185  13.996
56454W        W21439  39.807   5.958   1.955
56455W        W21440   2.374   2.002   4.589
56456W        W21441  41.008  29.749  12.395
56457W        W21442  24.261  18.150   0.047
56458W        W21443   3.140  20.238  12.399
56459W        W21444   9.002  40.475  12.022
56460W        W21445  12.625  39.871   0.997
56461W        W21446  35.495  18.820  12.456
56462W        W21447  25.324  14.603   5.009
56463W        W21448  19.093   4.917   0.966
56464W        W21449  15.668   9.402   4.300
56465W        W21450  20.316  31.516  10.726
56466W        W21451  34.906  36.157  13.479
56467W        W21452  17.516  41.901   4.110
56468W        W21453  25.153  36.079  13.485
56469W        W21454  28.619   6.494   0.351
56470W        W21455  44.024   7.815  11.429
56471W        W21456  17.341  26.656   2.977
56472W        W21457  11.694  18.450  14.039
56473W        W21458  23.688  16.781  12.886
56474W        W21459  34.487  43.536   1.212
56475W        W21460   9.482  28.913   3.028
56476W        W21461  41.733  40.658  10.574
56477W        W21462  43.198  41.223   4.190
56478W        W21463  14.583   7.301  13.635
56479W        W21464  34.898  22.022   1.655
56480W        W21465  41.634  42.880   4.051
56481W        W21466  38.140  18.141   4.683
56482W        W21467  16.102  38.156   1.662
56483W        W21468   5.645  36.535  14.292
56484W        W21469  37.256  35.175  13.495
56485W        W21470  20.861  24.118   4.997
56486W        W21471  17.737   7.025  10.826
56487W        W21472  44.963   0.676  13.819
56488W        W21473   3.469  16.757   2.152
56489W        W21474  22.142  41.911  11.365
56490W        W21475   9.623  30.100  11.586
56491W        W21476  12.906  26.622  11.049
56492W        W21477  21.134  40.471  11.509
56493W        W21478  10.598   6.097   5.382
56494W        W21479   5.735  43.684  11.590
56495W        W21480  42.879   2.724  11.752
56496W        W21481  44.946  33.642  14.763
56497W        W21482  33.501  25.942   4.342
56498W        W21483  16.353  42.847  11.886
56499W        W21484  33.347   4.318  13.476
56500W        W21485   7.955  31.507  13.442
56501W        W21486  37.609  11.420   1.861
56502W        W21487   6.452  11.085  11.670
56503W        W21488  41.893  13.759   4.639
56504W        W21489   6.453  31.335   0.995
56505W        W21490  36.813  33.868  10.497
56506W        W21491   5.823  28.779   2.010
56507W        W21492   5.759  42.426   2.897
56508W        W21493  16.047  36.266  14.033
56509W        W21494  34.317  30.563  12.609
56510W        W21495  43.404  42.192  12.908
56511W        W21496  37.032   1.512  12.419
56512W        W21497   5.698   2.058  13.655
56513W        W21498  16.901   7.584   4.548
56514W        W21499  31.777  18.237  11.087
56515W        W21500  38.583  30.933  13.137
56516W        W21501  20.121  43.085   3.414
56517W        W21502  16.091  29.633  13.741
56518W        W21503  27.722  38.325   3.188
56519W        W21504  14.812  26.585   2.772
56520W        W21505  38.647   2.464  10.599
56521W        W21506  27.911  27.173  14.532
56522W        W21507  19.589  13.178   0.258
56523W        W21508  10.596  35.006  13.404
56524W        W21509  42.507   4.932  10.768
56525W        W21510  39.786  18.124  14.238
56526W        W21511   3.472   7.197  13.936
56527W        W21512  17.417  11.583  11.981
56528W        W21513  28.106   5.921   4.577
56529W        W21514  23.954   0.457  12.885
56530W        W21515  27.902  16.999   3.219
56531W        W21516  41.357  29.181  12.988
56532W        W21517  43.004  43.191   0.797
56533W        W21518  43.355   3.262  12.470
56534W        W21519  41.877  36.916  12.865
56535W        W21520  13.734  44.404  10.410
56536W        W21521   6.896  29.277   1.017
56537W        W21522   8.845  28.791   3.988
56538W        W21523  37.382  41.762  12.496
56539W        W21524  12.599  35.846  11.939
56540W        W21525   5.223  21.183  14.553
56541W        W21526  11.298  15.230  12.110
56542W        W21527   8.192  32.166  12.404
56543W        W21528   4.894  20.064   2.352
56544W        W21529  22.716  42.536   2.585
56545W        W21530  18.266   5.644  14.985
56546W        W21531  28.043  24.563   1.514
56547W        W21532   9.473  18.296  14.274
56548W        W21533  10.618  30.979  12.769
56549W        W21534   5.014  24.976   3.355
56550W        W21535   9.413   0.403   4.546
56551W        W21536  33.868   7.250  14.442
56552W        W21537  30.519  41.393   0.906
56553W        W21538  24.366  20.174  13.453
56554W        W21539  18.073  13.696  11.285
56555W        W21540   1.265  16.946  10.708
56556W        W21541   7.206   4.619   9.901
56557W        W21542   1.403  37.810  14.499
56558W        W21543   9.652  11.219  14.980
56559W        W21544  39.559  40.991  13.984
56560W        W21545  17.184  24.551  13.554
56561W        W21546   0.488  34.145   3.174
56562W        W21547   5.396  25.561   3.096
56563W        W21548  12.527  24.045   1.936
56564W        W21549  30.074  13.868  12.408
56565W        W21550  40.476  24.950  11.031
56566W        W21551  15.082  43.706   1.309
56567W        W21552  31.582   2.939  13.808
56568W        W21553  31.242   6.828   1.382
56569W        W21554   1.952  18.771  12.590
56570W        W21555  36.508  33.385  10.057
56571W        W21556   3.705   1.576  14.991
56572W        W21557  27.579  26.748   4.663
56573W        W21558   9.405  15.231  13.209
56574W        W21559  34.895  31.022   2.112
56575W        W21560  22.638  10.595   2.039
56576W        W21561  15.479  43.726   1.792
56577W        W21562  12.662   3.174   3.767
56578W        W21563  44.570  26.754   3.762
56579W        W21564  39.231  34.116   3.162
56580W        W21565  18.438  24.641   2.333
56581W        W21566  12.572   0.042  11.174
56582W        W21567   1.984  39.045   0.878
56583W        W21568  42.592  25.966  12.383
56584W        W21569  29.490  27.100  10.909
56585W        W21570   5.182  37.357  13.834
56586W        W21571  16.313  37.619   4.559
56587W        W21572  25.444  21.623   3.280
56588W        W21573   8.411   7.980   3.120
56589W        W21574   1.880   7.793  12.940
56590W        W21575   1.424  12.249   3.915
56591W        W21576  12.258  36.027  11.551
56592W        W21577   9.963   4.715   3.280
56593W        W21578  40.329  22.330   0.241
56594W        W21579  13.142  10.083   2.381
56595W        W21580  19.248   4.991   4.683
56596W        W21581  14.214  15.053  14.518
56597W        W21582   5.979  12.703  11.606
56598W        W21583  37.139  36.743   3.718
56599W        W21584  28.388  21.733   3.197
56600W        W21585  33.206  41.005   3.651
56601W        W21586  21.438  10.350   9.829
56602W        W21587  22.730  24.602  10.417
56603W        W21588   7.932  20.062  12.049
56604W        W21589  13.664  31.548  10.275
56605W        W21590  29.616  33.524  10.365
56606W        W21591  32.536  31.143   0.348
56607W        W21592  41.275  11.391  11.101
56608W        W21593   3.693   6.225   2.897
56609W        W21594  36.513  16.188  11.249
56610W        W21595  33.020  35.267  12.128
56611W        W21596  41.898   5.179   0.232
56612W        W21597  33.311  17.117   3.776
56613W        W21598  20.246   7.117   5.019
56614W        W21599   0.279  42.955  11.005
56615W        W21600   5.920  25.490   0.821
56616W        W21601   4.878   8.260   2.653
56617W        W21602  12.352   1.380  13.062
56618W        W21603  41.616   1.233   1.329
56619W        W21604  37.060  41.390  14.888
56620W        W21605  11.705  33.007   0.329
56621W        W21606  20.330  15.888  13.871
56622W        W21607  36.103  40.576   2.017
56623W        W21608   2.668  14.166  12.258
56624W        W21609   9.728  32.523  14.945
56625W        W21610  36.850  15.685  14.921
56626W        W21611  19.884  39.980   1.083
56627W        W21612  18.046   8.202   1.823
56628W        W21613  34.493  44.700   0.518
56629W        W21614  18.068  29.596  13.527
56630W        W21615  42.459  27.620   2.172
56631W        W21616   8.834  41.761  11.749
56632W        W21617  14.581  41.164  13.869
56633W        W21618  18.076   0.391   4.572
56634W        W21619  21.033  13.654  12.473
56635W        W21620  37.332  25.898   2.296
56636W        W21621   3.904  13.147   3.394
56637W        W21622  13.891   1.849  14.571
56638W        W21623  43.407  37.406   1.528
56639W        W21624  26.251  36.081  11.583
56640W        W21625  36.242  14.810   4.138
56641W        W21626  23.731  40.002  12.151
56642W        W21627  20.672  16.138  13.575
56643W        W21628   7.627  14.600  11.896
56644W        W21629  10.423  12.839  11.782
56645W        W21630   5.673  15.676  13.136
56646W        W21631  30.741  42.367   3.673
56647W        W21632  21.909   4.311   0.956
56648W        W21633  44.206  22.525   1.468
56649W        W21634   4.287  39.415   4.178
56650W        W21635  21.713  40.785   0.821
56651W        W21636  19.138   5.468  13.494
56652W        W21637  14.120  14.242   3.257
56653W        W21638  14.255  16.251  13.137
56654W        W21639  22.063  37.332   0.937
56655W        W21640   0.592  37.816  13.414
56656W        W21641   1.895   3.025   3.212
56657W        W21642   0.484   6.849   0.549
56658W        W21643  38.872  13.291   1.357
56659W        W21644  17.057  11.426   3.616
56660W        W21645   9.588   7.196   4.210
56661W        W21646  15.123  39.780  14.815
56662W        W21647  21.013  30.919  13.820
56663W        W21648  24.812   7.128   2.796
56664W        W21649  40.932  37.591   2.103
56665W        W21650  28.966   9.686   1.540
56666W        W21651  41.467  38.968   3.217
56667W        W21652  43.598  18.323  10.747
56668W        W21653   3.750  27.134  11.007
56669W        W21654  10.785  25.718  12.123
56670W        W21655  17.883  13.148  12.039
56671W        W21656  11.860   5.438  12.366
56672W        W21657  14.889  36.367  13.018
56673W        W21658  37.921  27.098  10.585
56674W        W21659  41.409  21.115  11.261
56675W        W21660  36.323  18.571  10.556
56676W        W21661   6.478   2.260   1.982
56677W        W21662  41.966  37.994  10.807
56678W        W21663  37.907  17.327  10.134
56679W        W21664  19.220  18.084  10.386
56680W        W21665  21.677  39.531   2.275
56681W        W21666  29.283  15.224   2.381
56682W        W21667  10.724   1.309  11.098
56683W        W21668  25.049   8.277  14.931
56684W        W21669   7.369  26.542   4.274
56685W        W21670  41.478  15.484  13.487
56686W        W21671  27.249   1.396  11.056
56687W        W21672  15.982  34.087   0.877
56688W        W21673   0.165  24.972   2.855
56689W        W21674  39.339   6.474  12.960
56690W        W21675  37.565  16.072   1.187
56691W        W21676  24.700  26.095  12.495
56692W        W21677   3.909  36.203   1.782
56693W        W21678  19.583  14.249   4.916
56694W        W21679  37.287   1.017  14.362
56695W        W21680  16.394  32.321   0.757
56696W        W21681   3.936  27.165  10.505
56697W        W21682  28.136  34.445   2.220
56698W        W21683  26.031  41.951  12.050
56699W        W21684  32.433   0.054  14.335
56700W        W21685  13.376  16.745   2.700
56701W        W21686   3.691  32.207  12.436
56702W        W21687   2.953  25.754  14.237
56703W        W21688   4.801   5.283  10.381
56704W        W21689  39.450  15.649  11.080
56705W        W21690  30.101   6.612  12.829
56706W        W21691  28.469   0.441   1.232
56707W        W21692  12.855  40.290  11.510
56708W        W21693  26.719   5.004  11.278
56709W        W21694  16.825  39.345  11.196
56710W        W21695  36.516  23.089   0.095
56711W        W21696  44.528  37.501  12.011
56712W        W21697   0.947  37.565  14.289
56713W        W21698   3.193  16.118   4.316
56714W        W21699  16.842  16.295  12.569
56715W        W21700  11.349   9.036  14.479
56716W        W21701  27.249  40.865  14.380
56717W        W21702   7.288  35.355  13.618
56718W        W21703  14.549  13.092   1.331
56719W        W21704  21.989  42.895  12.359
56720W        W21705  17.499  42.337  14.321
56721W        W21706  15.692   0.460   4.082
56722W        W21707  23.872  24.483   4.524
56723W        W21708  22.637   5.810   2.560
56724W        W21709  43.650   5.697  14.830
56725W        W21710  17.044   3.374  10.703
56726W        W21711   3.486  21.806  10.785
56727W        W21712   5.939   4.219  12.854
56728W        W21713  44.919  18.192   0.826
56729W        W21714  41.056  40.531  10.438
56730W        W21715  40.457  21.828   0.938
56731W        W21716  35.062   9.926   4.877
56732W        W21717   5.008  33.408  10.456
56733W        W21718   8.383  29.658   1.985
56734W        W21719  13.876  18.706   3.275
56735W        W21720  27.940  32.364   4.191
56736W        W21721  41.108  28.103  14.867
56737W        W21722  38.266  33.559  13.437
56738W        W21723  34.576  28.658   3.159
56739W        W21724  44.610  16.809   0.194
56740W        W21725  30.326  21.774  13.754
56741W        W21726  20.913  33.745   0.164
56742W        W21727   6.315   8.251  12.970
56743W        W21728  42.441  22.053   4.183
56744W        W21729  16.575  12.277  11.179
56745W        W21730  42.803  31.877   5.025
56746W        W21731  43.867  24.730   3.094
56747W        W21732  13.937  33.933  14.083
56748W        W21733   4.382  21.155   4.436
56749W        W21734  37.875  12.254  12.950
56750W        W21735   3.312  41.226  10.954
56751W        W21736  32.982  26.241  13.515
56752W        W21737  23.009  27.113  10.662
56753W        W21738  43.368  12.637   1.360
56754W        W21739  39.224  17.685   5.398
56755W        W21740  12.596   1.457   2.587
56756W        W21741  27.703  14.814  10.620
56757W        W21742  30.159  24.091  10.523
56758W        W21743  32.883  31.705   3.093
56759W        W21744  28.389   4.784   1.712
56760W        W21745  12.091   2.451   1.348
56761W        W21746   8.496  10.885   3.213
56762W        W21747  31.902  17.185   5.149
56763W        W21748  15.243  20.823  12.765
56764W        W21749  33.826  36.639  14.473
56765W        W21750  24.144  14.670   0.707
56766W        W21751  22.088  42.982  10.130
56767W        W21752  42.318   5.823   2.633
56768W        W21753   4.229  36.920  14.711
56769W        W21754  41.787  28.016   3.653
56770W        W21755  37.418  14.447   4.649
56771W        W21756  16.790  24.468  12.023
56772W        W21757  14.818  32.394  11.430
56773W        W21758  19.411  29.286   2.673
56774W        W21759  22.029  31.055  11.505
56775W        W21760  41.997   3.251   5.068
56776W        W21761  13.149  41.271   3.783
56777W        W21762  25.727  32.316   0.766
56778W        W21763  26.876  28.022  13.435
56779W        W21764   6.416  39.733   2.404
56780W        W21765   5.655   4.417   1.145
56781W        W21766  18.656  19.105  12.772
56782W        W21767  27.613  44.823   3.343
56783W        W21768  43.077  23.426  11.540
56784W        W21769  38.341  32.320  13.062
56785W        W21770  33.828  31.110  11.647
56786W        W21771  16.095   5.781  13.032
56787W        W21772  14.860  39.140   3.849
56788W        W21773  22.105  10.719  14.769
56789W        W21774  20.178   3.933   4.187
56790W        W21775   2.237  39.835  11.239
56791W        W21776  17.539  28.837  12.022
56792W        W21777  42.516  24.047   3.356
56793W        W21778  35.973  41.747  14.852
56794W        W21779  18.385   6.352  11.819
56795W        W21780   2.661  44.761  14.179
56796W        W21781   0.971  14.054   0.701
56797W        W21782  19.846  32.010   4.835
56798W        W21783  28.157  12.849   0.685
56799W        W21784   4.871  12.361   3.761
56800W        W21785  16.723  19.636   0.386
56801W        W21786  25.934  10.923  13.424
56802W        W21787  36.902  38.151   4.849
56803W        W21788  40.810   1.200   4.311
56804W        W21789  28.520  13.166  13.337
56805W        W21790  19.889  15.037   1.720
56806W        W21791   9.173   1.001   3.670
56807W        W21792  27.553  39.240   1.929
56808W        W21793  27.521  16.671   4.080
56809W        W21794  28.719  42.002  11.991
56810W        W21795  35.295  39.536  12.551
56811W        W21796  30.996  21.666   1.351
56812W        W21797  14.706  42.533  12.742
56813W        W21798  16.800  20.011  12.153
56814W        W21799  27.567   5.695   2.904
56815W        W21800   3.880   8.424   1.588
56816W        W21801  34.084  19.600   3.274
56817W        W21802   5.711  21.054  13.971
56818W        W21803   0.977  12.236   4.142
56819W        W21804   1.272  38.870  13.266
56820W        W21805  34.526  20.066  11.298
56821W        W21806  22.947  12.216   4.536
56822W        W21807  17.712  30.407   1.360
56823W        W21808  19.287  44.285   2.693
56824W        W21809  10.045  38.855   2.107
56825W        W21810   2.127  42.285   3.745
56826W        W21811  11.116  38.436   0.612
56827W        W21812  10.318  44.104   3.414
56828W        W21813  42.757  14.214   5.461
56829W        W21814  17.828  28.152   3.667
56830W        W21815  16.091  41.992  12.445
56831W        W21816  34.165  17.114   0.133
56832W        W21817  21.508   8.088   3.156
56833W        W21818  41.608   5.331  14.821
56834W        W21819   9.662  18.314  11.548
56835W        W21820  34.909  44.941  13.540
56836W        W21821  13.233  42.791  10.842
56837W        W21822  10.264   4.920  10.089
56838W        W21823  27.644  41.872  13.668
56839W        W21824  26.242  19.126  11.155
56840W        W21825   5.212  27.583   2.895
56841W        W21826  41.478  42.472  14.915
56842W        W21827  36.038  26.555  11.223
56843W        W21828  24.012   2.809  13.857
56844W        W21829  38.229  36.314   4.269
56845W        W21830  38.877  20.998  13.420
56846W        W21831  15.490  34.793  11.514
56847W        W21832  39.133  23.475  11.985
56848W        W21833  14.639  30.473  12.783
56849W        W21834  10.624  35.378   4.210
56850W        W21835  39.965  23.258  13.384
56851W        W21836  13.928  31.037   0.754
56852W        W21837  32.447  30.432  13.361
56853W        W21838  36.543  39.826   2.814
56854W        W21839  37.598  29.218   2.690
56855W        W21840  11.559  23.440  11.427
56856W        W21841  32.134   9.829  12.005
56857W        W21842  19.308  26.126   4.579
56858W        W21843  10.255   9.543  12.499
56859W        W21844   0.834  37.369   0.642
56860W        W21845  23.712  23.079  13.747
56861W        W21846   0.682  36.349  12.924
56862W        W21847  41.339  36.215   4.405
56863W        W21848   4.652   7.291  13.103
56864W        W21849  41.989  32.383   1.266
56865W        W21850  41.819  29.885  14.049
56866W        W21851  12.292  20.713   3.818
56867W        W21852   2.704  42.048  12.095
56868W        W21853  35.755  11.265   2.956
56869W        W21854  16.757   4.941   3.596
56870W        W21855  22.750  22.043  11.210
56871W        W21856  32.003  35.723   1.315
56872W        W21857  25.615   3.305  13.764
56873W        W21858  19.575   5.446  11.495
56874W        W21859   4.649  28.584   2.118
56875W        W21860  34.450  23.203   2.691
56876W        W21861  13.550  35.811   3.759
56877W        W21862  24.191  19.979  11.785
56878W        W21863  24.207   2.780  10.613
56879W        W21864  38.941  24.521  12.399
56880W        W21865  28.584  24.976   1.186
56881W        W21866  32.573  39.535  13.093
56882W        W21867  38.368  28.996   0.613
56883W        W21868  35.907   3.835  10.761
56884W        W21869  22.489  24.272   0.556
56885W        W21870  35.640  40.338  13.083
56886W        W21871  12.274  31.742   0.904
56887W        W21872  40.702   8.954   3.595
56888W        W21873  37.615  21.452  14.240
56889W        W21874  27.389  27.480  11.885
56890W        W21875   4.734  33.051  10.715
56891W        W21876   2.548  29.829  14.069
56892W        W21877  11.388  31.719  12.934
56893W        W21878   6.947  36.952   3.459
56894W        W21879  43.193  28.924   0.293
56895W        W21880   6.217   9.109  13.498
56896W        W21881  21.371  14.797  14.874
56897W        W21882  31.534  36.052  13.829
56898W        W21883  40.847  23.174  14.315
56899W        W21884  23.435  26.646   0.269
56900W        W21885  21.673  29.601  13.894
56901W        W21886   8.434  11.810   2.258
56902W        W21887  25.596  33.642   4.108
56903W        W21888  13.311   3.140  12.836
56904W        W21889  43.477  34.132   2.754
56905W        W21890  43.726  32.640   1.416
56906W        W21891  17.772   4.562   4.331
56907W        W21892  39.461  23.048  14.807
56908W        W21893  37.083   6.147   3.142
56909W        W21894  42.267  30.327  10.763
56910W        W21895  15.718   9.155  13.359
56911W        W21896  19.711  34.062   4.151
56912W        W21897  42.253  16.244   1.380
56913W        W21898  41.615  26.868   3.125
56914W        W21899  37.894  11.312  10.189
56915W        W21900  21.691  27.827   0.076
56916W        W21901   8.299  38.519   3.151
56917W        W21902  33.830  40.815   2.711
56918W        W21903  37.275   2.550  11.524
56919W        W21904   9.503  17.135   3.172
56920W        W21905  12.272  11.408   3.166
56921W        W21906   6.917   2.446  12.603
56922W        W21907  41.077  17.543  14.844
56923W        W21908  24.565  27.028   0.970
56924W        W21909  25.170  43.510  13.140
56925W        W21910   0.862  42.807  12.150
56926W        W21911  34.161  29.524   4.193
56927W        W21912   4.185   9.790  14.896
56928W        W21913  16.147  26.538  13.888
56929W        W21914  26.521  27.880   4.198
56930W        W21915  35.612  33.966  11.703
56931W        W21916  26.200  26.332   0.451
56932W        W21917  24.199  32.418   0.227
56933W        W21918   4.711  23.101  12.005
56934W        W21919   3.543  38.992  13.903
56935W        W21920  41.980  43.928  13.542
56936W        W21921   9.404   0.075   2.735
56937W        W21922  22.119  25.195   1.728
56938W        W21923  38.761  14.561   5.005
56939W        W21924   4.513  21.525  13.416
56940W        W21925  10.793  29.083   2.742
56941W        W21926  17.511  44.765   1.231
56942W        W21927  34.814  28.534   3.601
56943W        W21928  37.380   4.193   0.203
56944W        W21929  10.708   4.566   1.009
56945W        W21930   1.270   1.470  10.777
56946W        W21931  34.170  31.870   3.178
56947W        W21932   0.616   4.668   3.687
56948W        W21933   8.894   8.189  11.979
56949W        W21934  34.001  22.992   3.053
56950W        W21935  43.483  33.419   3.665
56951W        W21936  16.809  20.596   3.015
56952W        W21937   2.581  25.011  13.360
56953W        W21938  27.472   3.909  11.095
56954W        W21939  40.940  42.767   1.493
56955W        W21940  42.872  37.896   0.832
56956W        W21941   6.283  40.245  12.925
56957W        W21942   2.491  32.288   0.420
56958W        W21943  31.308  44.264   0.381
56959W        W21944  26.959  38.820  13.157
56960W        W21945  11.373   7.223   3.960
56961W        W21946   9.417  27.918   2.438
56962W        W21947  10.333  26.042   3.592
56963W        W21948  26.180  12.243   2.808
56964W        W21949  16.273  32.433  10.464
56965W        W21950  41.628  39.496  11.465
56966W        W21951  37.944   1.056  14.346
56967W        W21952  20.493  20.278   4.917
56968W        W21953   7.203  43.505   4.248
56969W        W21954  33.923  20.855  12.421
56970W        W21955   5.337  32.143   3.723
56971W        W21956  28.952  37.258  12.387
56972W        W21957  30.960   7.732  14.384
56973W        W21958  25.547   9.821   4.820
56974W        W21959  32.546  29.155  14.017
56975W        W21960  30.102  21.913  11.168
56976W        W21961   2.465  28.618  12.698
56977W        W21962  11.883  40.106   1.929
56978W        W21963  44.395  17.652   1.179
56979W        W21964  23.247  28.422  13.070
56980W        W21965   1.113  31.498  11.046
56981W        W21966  26.478  24.539  13.880
56982W        W21967   2.465   9.118   0.777
56983W        W21968  36.619   2.449   2.620
56984W        W21969  16.643  32.155   1.193
56985W        W21970  11.282  36.997  13.820
56986W        W21971  22.546  24.187  14.930
56987W        W21972  22.792   2.290  10.922
56988W        W21973  26.189  29.042   4.990
56989W        W21974  40.724  41.486   3.313
56990W        W21975  39.547  17.667   1.300
56991W        W21976  24.396  18.561   1.659
56992W        W21977  29.499  26.574  13.300
56993W        W21978   3.651   5.036  12.951
56994W        W21979   4.524  24.729   4.680
56995W        W21980  25.490  41.023   3.071
56996W        W21981  18.108  25.669   1.691
56997W        W21982  34.085  15.929   1.441
56998W        W21983  39.809  39.848  11.101
56999W        W21984  15.609  22.814  11.070
57000W        W21985  18.299  29.506  12.125
57001W        W21986  41.251  17.507   1.040
57002W        W21987  37.286   3.998  10.558
57003W        W21988  16.535  27.547  12.450
57004W        W21989  12.796  16.201   0.760
57005W        W21990  41.954  41.914   3.187
57006W        W21991   1.681  27.578   2.800
57007W        W21992   5.373  35.519   0.860
57008W        W21993  11.257   6.951  13.113
57009W        W21994   3.038  38.705  14.768
57010W        W21995  22.055  43.785   1.216
57011W        W21996  24.258  11.833  14.053
57012W        W21997  28.615  23.651   0.749
57013W        W21998  37.625  29.998   3.743
57014W        W21999  26.459   3.261   1.935
57015W        W22000   1.002  25.930   0.444
57016W        W22001  41.503   8.480  13.877
57017W        W22002   3.069   9.701   4.575
57018W        W22003  19.892   4.720   4.987
57019W        W22004   5.795  16.846  11.661
57020W        W22005  22.135  26.453   4.194
57021W        W22006  18.237  11.271   2.157
57022W        W22007  37.075  31.566  10.692
57023W        W22008  11.837  23.133   4.043
57024W        W22009  10.224  33.618   4.956
57025W        W22010  15.127  36.543  11.601
57026W        W22011  40.225  34.866  13.409
57027W        W22012  34.398   1.873  10.663
57028W        W22013   8.601  12.084  13.931
57029W        W22014  39.019  39.957  14.261
57030W        W22015  15.925  25.593   5.394
57031W        W22016  43.553   6.310   2.314
57032W        W22017  18.746  12.890  13.986
57033W        W22018   6.371  43.285   1.118
57034W        W22019   0.422  20.845  14.443
57035W        W22020  34.442  10.477   5.384
57036W        W22021   0.010  14.237   4.085
57037W        W22022  29.843  15.796  12.532
57038W        W22023   8.552  22.445  13.979
57039W        W22024  21.937  35.539  12.783
57040W        W22025  41.128  18.624   4.936
57041W        W22026  32.443  30.690  11.155
57042W        W22027  20.896  31.111  12.324
57043W        W22028  29.297  20.976  11.746
57044W        W22029  34.793   7.388  11.462
57045W        W22030   9.190  16.709   3.275
57046W        W22031  25.762  41.846   4.765
57047W        W22032  23.481  17.503  14.964
57048W        W22033  27.205   8.166   0.093
57049W        W22034  29.574  31.173  12.834
57050W        W22035  28.000  28.048  11.683
57051W        W22036  26.696  42.928   0.202
57052W        W22037  15.885  11.834   4.581
57053W        W22038  28.486  32.069  13.848
57054W        W22039  10.328   7.169   3.107
57055W        W22040   9.481  21.209  12.318
57056W        W22041  17.482  25.216   3.330
57057W        W22042   8.651   1.772  10.657
57058W        W22043  42.472  41.064   2.236
57059W        W22044   7.805  43.434   3.188
57060W        W22045  39.095  18.714  13.919
57061W        W22046  27.524   9.310  14.060
57062W        W22047  26.575   1.657  14.854
57063W        W22048  42.106  29.011  11.150
57064W        W22049  41.511  25.630  12.442
57065W        W22050  20.441  18.548   0.958
57066W        W22051  17.952  19.763   2.801
57067W        W22052   9.367   0.173  11.087
57068W        W22053  42.617  13.763   1.499
57069W        W22054  20.665   4.433  11.864
57070W        W22055  18.514  33.563  10.655
57071W        W22056  22.431   0.873   0.013
57072W        W22057  38.306  20.029  12.385
57073W        W22058   5.209  16.845  11.281
57074W        W22059  16.714  20.516  10.824
57075W        W22060  20.046  15.575  14.489
57076W        W22061  31.957  32.539   2.925
57077W        W22062   1.272   8.147  14.545
57078W        W22063   6.842   0.320   0.985
57079W        W22064  38.482  15.244  10.190
57080W        W22065  29.448  41.896   3.761
57081W        W22066  33.670  31.405   0.011
57082W        W22067  33.274  44.906   4.048
57083W        W22068  42.781   6.634   3.284
57084W        W22069  17.242  40.373   2.342
57085W        W22070   8.416  32.862  14.784
57086W        W22071  15.229  17.344   2.844
57087W        W22072  42.972  38.701  11.510
57088W        W22073  37.759  18.638   2.725
57089W        W22074  32.668  27.867   2.752
57090W        W22075  22.504  39.690   0.880
57091W        W22076  19.767  28.190   4.920
57092W        W22077   1.603  19.734  11.037
57093W        W22078  12.870  31.907  11.048
57094W        W22079   5.385  41.740  10.969
57095W        W22080  37.846  33.910  14.763
57096W        W22081  43.273  41.522   1.690
57097W        W22082  37.794  23.080  12.891
57098W        W22083  28.653  35.391  14.750
57099W        W22084   3.447   0.192  12.894
57100W        W22085  32.471  15.241   4.726
57101W        W22086  12.518  30.036   1.293
57102W        W22087  27.553   5.116  14.766
57103W        W22088  40.293  28.213   2.301
57104W        W22089  35.408  20.136   0.489
57105W        W22090  37.952  24.928   0.261
57106W        W22091   5.132  39.317   3.529
57107W        W22092  32.139   6.775  12.527
57108W        W22093  39.388  39.969   1.424
57109W        W22094  26.532  38.055   4.599
57110W        W22095  13.822  30.389   0.213
57111W        W22096  33.689  14.229  12.163
57112W        W22097   0.735  17.137   0.896
57113W        W22098  20.770  23.566   3.674
57114W        W22099  42.743  17.744   0.118
57115W        W22100  41.208  23.071  13.592
57116W        W22101   3.450  18.763   0.370
57117W        W22102   8.343   4.826  12.593
57118W        W22103   3.921  20.135  13.283
57119W        W22104  12.306   3.290   4.099
57120W        W22105   0.887   3.096   1.888
57121W        W22106  24.654   5.886  14.907
57122W        W22107  27.227   5.312  14.411
57123W        W22108  37.451  12.609   4.781
57124W        W22109  15.308   8.597  12.553
57125W        W22110  40.072  31.571  14.867
57126W        W22111  34.060   7.377  13.458
57127W        W22112  34.359   5.453   0.339
57128W        W22113  38.465  15.229  10.694
57129W        W22114  17.054  32.515   3.701
57130W        W22115  21.214   1.267  13.951
57131W        W22116  37.052  30.923  11.091
57132W        W22117  43.985  15.803  12.922
57133W        W22118  41.851  30.002  11.133
57134W        W22119   1.982   2.894   0.931
57135W        W22120  13.074  30.926  14.704
57136W        W22121  37.766  12.768  12.067
57137W        W22122  21.744  18.093  10.776
57138W        W22123  23.247   0.878  12.876
57139W        W22124  39.014  26.240  13.341
57140W        W22125   5.144  12.720   2.894
57141W        W22126  44.762  15.867  13.411
57142W        W22127   7.653  22.575  10.968
57143W        W22128  14.619  31.519   0.502
57144W        W22129  42.562  39.173   5.439
57145W        W22130  26.936  12.136  13.425
57146W        W22131  20.242  17.463   3.018
57147W        W22132  17.222   3.415  14.695
57148W        W22133  40.583  44.597   2.431
57149W        W22134  32.416  30.888   0.940
57150W        W22135  14.597  37.943  12.487
57151W        W22136  39.983  23.734   4.008
57152W        W22137   4.179  27.066   3.889
57153W        W22138  12.672  13.758  14.553
57154W        W22139  40.741  34.780  13.304
57155W        W22140  29.207  40.456   3.913
57156W        W22141  15.428   7.717   1.024
57157W        W22142  37.311   6.905   0.426
57158W        W22143  11.386  39.532   0.926
57159W        W22144   1.220  24.075   4.007
57160W        W22145  20.586   7.383   4.508
57161W        W22146   0.063  10.585   2.175
57162W        W22147  10.839  23.544  14.991
57163W        W22148  23.697  17.806   3.914
57164W        W22149  15.283  26.223   2.206
57165W        W22150   3.953  11.796   3.861
57166W        W22151  21.655  10.336   1.859
57167W        W22152  17.161  17.516  12.564
57168W        W22153  31.189  42.027   2.221
57169W        W22154   2.635  40.376  13.586
57170W        W22155  28.381  22.313   1.052
57171W        W22156  43.939  24.543   1.625
57172W        W22157  10.532  39.336   0.869
57173W        W22158  32.957   8.385  12.564
57174W        W22159   3.526  32.860  14.908
57175W        W22160   1.203  12.777   0.966
57176W        W22161  34.277  23.735  14.435
57177W        W22162  38.666  13.492   4.594
57178W        W22163  14.347  29.036  14.009
57179W        W22164  35.452   9.332   3.479
57180W        W22165   8.498  43.613  14.982
57181W        W22166   5.416   1.927   4.114
57182W        W22167  36.104  16.370  14.997
57183W        W22168  38.405   9.702   0.801
57184W        W22169  26.208   3.415   3.181
57185W        W22170   4.323  13.593   2.201
57186W        W22171  12.528  11.079   1.474
57187W        W22172  15.540  15.548  13.026
57188W        W22173  19.852  42.882  14.294
57189W        W22174  42.497  11.980  11.072
57190W        W22175  39.000  44.514  13.692
57191W        W22176  10.835  20.559   4.008
57192W        W22177  21.542  26.234  12.043
57193W        W22178  12.792   8.336  11.681
57194W        W22179  43.965   1.725  13.816
57195W        W22180  42.082  23.210   0.913
57196W        W22181  37.592  19.775  13.130
57197W        W22182  24.792  39.076  12.017
57198W        W22183  10.862  25.674   2.086
57199W        W22184  36.969  20.720   1.687
57200W        W22185   7.460  11.161   1.533
57201W        W22186  33.296   4.370  12.750
57202W        W22187   6.888  41.989   3.197
57203W        W22188  16.733  15.386   4.126
57204W        W22189  30.048   2.705  10.251
57205W        W22190  39.249  27.115  11.006
57206W        W22191  43.276  35.577   0.838
57207W        W22192   4.913  13.577  11.035
57208W        W22193   3.285  19.659  14.892
57209W        W22194  28.054  29.752   0.724
57210W        W22195  37.895  34.428   2.139
57211W        W22196  28.375  12.689   4.153
57212W        W22197  14.598  18.577  14.773
57213W        W22198   9.618  29.274   2.679
57214W        W22199   0.167   8.290   4.191
57215W        W22200  17.643  36.359  11.247
57216W        W22201  23.759   6.144   4.811
57217W        W22202  23.139  29.207   4.108
57218W        W22203  38.291   8.774   3.648
57219W        W22204  14.343  33.090   0.365
57220W        W22205   1.563  44.609  12.171
57221W        W22206   0.966  13.114  10.539
57222W        W22207  10.176   2.870  10.349
57223W        W22208   6.343  17.621  10.389
57224W        W22209  36.633   2.351   3.153
57225W        W22210  20.029  14.586   0.471
57226W        W22211  12.210  12.274  11.208
57227W        W22212  16.076  17.076  14.006
57228W        W22213  43.744  21.114  12.110
57229W        W22214  23.546  27.617   2.183
57230W        W22215  22.129  26.460   1.366
57231W        W22216  26.740  18.824   0.285
57232W        W22217  23.163  40.407   2.380
57233W        W22218  40.311  40.067  13.902
57234W        W22219  14.753  29.035  12.107
57235W        W22220   1.454  43.586   0.003
57236W        W22221   1.936   0.661   1.719
57237W        W22222  23.763  24.437  10.767
57238W        W22223  38.826  33.551   2.314
57239W        W22224  12.782   9.116  10.663
57240W        W22225  18.161  10.628  12.238
57241W        W22226  20.514  40.079   0.921
57242W        W22227  25.758   6.001   4.186
57243W        W22228  19.652  39.884   0.567
57244W        W22229  44.688  18.079  12.980
57245W        W22230  29.821  42.919  14.434
57246W        W22231  34.707   1.083   1.527
57247W        W22232  21.652   9.621  11.168
57248W        W22233   9.710   9.660   1.433
57249W        W22234  17.753  27.571   1.878
57250W        W22235  18.160  29.136   3.760
57251W        W22236  20.752  14.533   1.692
57252W        W22237  10.286  10.334  13.802
57253W        W22238  18.602  12.563   4.425
57254W        W22239  42.586  30.189  14.323
57255W        W22240   2.952   6.177   3.734
57256W        W22241  18.260  30.718   1.826
57257W        W22242  27.518  29.731   1.833
57258W        W22243  17.227  26.088   2.341
57259W        W22244  11.971  13.693  12.574
57260W        W22245   3.326  37.036   1.998
57261W        W22246  33.044  37.129  14.674
57262W        W22247  40.031   1.029  11.172
57263W        W22248   1.556  16.600  13.782
57264W        W22249  24.590  18.073   2.378
57265W        W22250  27.147  15.183  11.110
57266W        W22251  19.191  42.850   3.776
57267W        W22252  40.419  42.108   5.053
57268W        W22253   1.198  42.690   3.650
57269W        W22254  28.673   5.698  14.989
57270W        W22255   1.262  27.521   1.648
57271W        W22256   3.399  30.582  11.996
57272W        W22257   3.043  17.400   1.032
57273W        W22258  25.647  11.435  14.058
57274W        W22259  10.314   4.357  14.738
57275W        W22260  43.969  28.496   1.720
57276W        W22261   4.318   2.102   0.183
57277W        W22262  10.143   7.805   0.892
57278W        W22263   6.766  19.550   4.727
57279W        W22264  23.217  41.769   2.155
57280W        W22265  38.989  30.119   2.269
57281W        W22266  11.806  37.884  14.603
57282W        W22267  14.752  30.987  14.872
57283W        W22268  42.222  22.213  11.979
57284W        W22269  13.399  42.977   5.195
57285W        W22270  40.694   0.795   2.830
57286W        W22271  20.511  25.479  11.045
57287W        W22272   1.726  41.437  11.512
57288W        W22273  17.394  31.981  13.968
57289W        W22274   2.951  34.059   2.664
57290W        W22275  36.874   3.658  13.839
57291W        W22276  21.262  36.895  10.743
57292W        W22277  15.640   4.889  12.937
57293W        W22278  41.628  10.634   4.950
57294W        W22279   6.432  41.613  14.476
57295W        W22280  16.089  37.995  14.410
57296W        W22281  36.312  25.703   1.684
57297W        W22282  41.465   9.936  12.048
57298W        W22283  16.849  13.159   1.781
57299W        W22284  13.090  16.798  14.512
57300W        W22285  10.709  14.793  13.961
57301W        W22286  44.310  19.525  14.422
57302W        W22287  40.033  30.432   2.912
57303W        W22288   3.659  43.099  12.840
57304W        W22289   8.933   4.730  10.974
57305W        W22290  34.866  35.953   0.968
57306W        W22291   2.835  12.395   1.918
57307W        W22292   0.969  43.373  14.947
57308W        W22293  40.544   9.313  11.594
57309W        W22294  11.401  20.845  13.057
57310W        W22295  20.364  21.493   2.692
57311W        W22296  37.567   0.040  13.802
57312W        W22297  10.041   8.511  13.494
57313W        W22298  42.947  27.406   2.183
57314W        W22299  35.777   4.784  11.990
57315W        W22300  32.043   6.809   3.759
57316W        W22301  12.170  17.625  13.297
57317W        W22302   0.811  15.039  12.013
57318W        W22303   7.057   7.227   1.230
57319W        W22304  27.124   5.225  10.680
57320W        W22305  32.115  14.904   0.521
57321W        W22306  33.541  40.636  14.335
57322W        W22307   8.918   9.112   4.840
57323W        W22308   3.789  38.567   4.026
57324W        W22309  36.802   8.807   9.809
57325W        W22310  33.401  14.295  14.558
57326W        W22311  20.737  26.220   2.798
57327W        W22312  34.060  20.097  10.816
57328W        W22313  40.977  11.819   2.663
57329W        W22314  10.562  38.004   2.262
57330W        W22315  20.617  36.322   3.227
57331W        W22316  33.657  10.003  12.937
57332W        W22317  26.059  26.976  12.083
57333W        W22318  38.105   6.470  14.874
57334W        W22319   8.601  32.829   3.252
57335W        W22320  22.655   2.397  13.398
57336W        W22321  37.705  35.558  11.086
57337W        W22322   8.359  19.143  10.576
57338W        W22323  30.685   0.749  12.347
57339W        W22324   3.955  12.976   2.558
57340W        W22325  42.676  10.512   3.077
57341W        W22326  17.769   0.922   2.931
57342W        W22327  24.596  16.685   2.594
57343W        W22328  24.967  44.262  14.302
57344W        W22329  31.096  31.173  13.558
57345W        W22330  34.130  25.237   4.191
57346W        W22331   3.054  13.651   1.376
57347W        W22332  24.414  13.830   0.615
57348W        W22333  13.356  10.162  13.401
57349W        W22334   2.349  15.174   1.274
57350W        W22335  41.076  26.399   4.557
57351W        W22336  37.418  24.177  13.320
57352W        W22337  43.861   9.735   0.397
57353W        W22338  16.277   4.109   4.834
57354W        W22339  24.813  13.314   4.925
57355W        W22340  43.392   1.341  11.534
57356W        W22341  27.489  32.650  12.174
57357W        W22342   5.271  34.804   1.973
57358W        W22343  29.609  32.094   1.972
57359W        W22344  28.689  37.385  11.978
57360W        W22345   5.454  29.872   1.375
57361W        W22346  17.125  31.384   1.759
57362W        W22347  17.648   1.429  12.967
57363W        W22348  25.451   3.791  13.751
57364W        W22349   4.614  10.284  11.622
57365W        W22350  28.760  32.858  13.501
57366W        W22351   2.867  33.518   1.244
57367W        W22352   0.779  13.042   3.250
57368W        W22353  16.263   7.734   3.263
57369W        W22354  18.758  36.556   2.695
57370W        W22355  22.005  30.276  11.746
57371W        W22356  29.173  29.653   2.347
57372W        W22357  34.850   2.759  11.600
57373W        W22358  35.921   6.919  10.927
57374W        W22359  43.492  38.989   4.478
57375W        W22360  34.258   6.393   2.266
57376W        W22361  22.250  10.193  11.258
57377W        W22362   1.423  16.072   0.584
57378W        W22363  24.249   4.909  13.227
57379W        W22364  44.110  39.344  14.787
57380W        W22365  43.576  30.768   1.767
57381W        W22366  34.910  27.899   2.969
57382W        W22367  34.346  21.812  14.134
57383W        W22368  43.859   9.517  12.429
57384W        W22369  35.365   5.240  13.813
57385W        W22370  40.506  41.843  11.183
57386W        W22371  43.292  18.780   1.190
57387W        W22372  27.175   4.946   3.855
57388W        W22373  39.832   7.300   3.799
57389W        W22374  15.349   1.364  12.548
57390W        W22375   9.756  29.128   4.289
57391W        W22376  20.022   8.936  14.421
57392W        W22377  21.692  36.805  13.426
57393W        W22378  25.464   8.377  10.620
57394W        W22379  27.074  44.917   4.092
57395W        W22380  42.543  40.707  14.061
57396W        W22381  16.906   2.682  14.758
57397W        W22382  14.409   2.978  12.451
57398W        W22383  33.679   2.463   1.725
57399W        W22384  21.095  29.725   1.430
57400W        W22385   4.264  16.388   1.457
57401W        W22386  27.915  15.595  10.899
57402W        W22387   3.670  29.639   1.373
57403W        W22388  26.723  40.725   1.063
57404W        W22389  15.636  25.258   4.399
57405W        W22390  32.390  20.557   4.833
57406W        W22391  27.986   3.890  14.477
57407W        W22392   0.313  37.115  10.081
57408W        W22393   4.864  26.042  12.554
57409W        W22394  44.908  39.298   2.986
57410W        W22395   9.724  18.197   2.766
57411W        W22396  23.973  32.466  10.690
57412W        W22397  41.748  29.035   2.685
57413W        W22398  17.167  24.531  14.540
57414W        W22399  42.669  32.294  14.391
57415W        W22400  13.845  42.965  13.383
57416W        W22401  20.269  17.222  11.575
57417W        W22402  39.503  34.914  12.540
57418W        W22403  29.973  39.383   2.227
57419W        W22404  31.004  32.150   0.886
57420W        W22405   0.357  21.727  14.517
57421W        W22406  10.734  40.088   4.473
57422W        W22407  37.902  23.989  13.250
57423W        W22408   6.860  39.500  10.399
57424W        W22409  25.528  44.895  14.010
57425W        W22410   1.983  22.786  12.936
57426W        W22411  17.276  44.762  12.566
57427W        W22412   1.469  32.441  12.021
57428W        W22413  44.263  28.117  10.784
57429W        W22414   1.656  44.777   2.197
57430W        W22415  40.703  19.179  14.398
57431W        W22416  17.076  29.129  14.369
57432W        W22417  33.092  32.427  13.021
57433W        W22418   0.894  34.652  12.565
57434W        W22419  22.988  28.933   2.339
57435W        W22420  27.234  14.944   4.963
57436W        W22421   8.144  43.497  11.452
57437W        W22422  21.022  20.346   5.505
57438W        W22423  17.723   9.421   4.431
57439W        W22424  36.989   6.795   1.425
57440W        W22425  18.769  29.012  10.709
57441W        W22426  43.024  29.557  13.439
57442W        W22427  11.820  16.493  10.731
57443W        W22428   7.382  38.411   1.469
57444W        W22429   4.844  29.420   3.687
57445W        W22430  27.647  11.147  14.347
57446W        W22431   2.810  33.190  11.995
57447W        W22432  12.132  19.751  12.579
57448W        W22433  40.610  18.736   0.754
57449W        W22434   6.219  44.549   3.605
57450W        W22435  13.872  25.108  12.062
57451W        W22436   1.732  13.271   3.583
57452W        W22437  25.102  26.217  14.826
57453W        W22438  22.552  12.293   1.830
57454W        W22439   1.324  12.988   4.961
57455W        W22440  31.425   5.794  12.899
57456W        W22441   0.997  33.793  11.126
57457W        W22442  36.078  19.665   4.163
57458W        W22443  38.880  33.172   3.227
57459W        W22444  33.915  21.139  14.334
57460W        W22445   4.830  38.262  12.525
57461W        W22446  10.334  38.926  11.472
57462W        W22447  37.654   6.007   0.433
57463W        W22448   7.654  29.451  12.237
57464W        W22449  23.710   6.340  11.918
57465W        W22450  17.500   5.422   3.452
57466W        W22451   8.699  20.674  11.080
57467W        W22452   8.869  23.313  10.938
57468W        W22453  14.780  43.118   3.364
57469W        W22454  10.448  34.946   4.801
57470W        W22455   8.653  16.306   2.675
57471W        W22456  29.010  36.389   0.377
57472W        W22457  40.003   1.237  14.763
57473W        W22458  36.782  16.950  12.994
57474W        W22459  35.558  42.087   2.366
57475W        W22460  35.161  17.775  10.717
57476W        W22461   8.923   4.193  11.189
57477W        W22462   1.169  23.267  14.856
57478W        W22463  42.034  38.905  13.870
57479W        W22464  35.649  19.732   3.371
57480W        W22465  20.828  41.356  14.383
57481W        W22466  20.515   5.643  14.497
57482W        W22467   6.403  24.244   2.726
57483W        W22468  22.705  19.120   2.671
57484W        W22469  37.915   3.828  14.149
57485W        W22470  35.875  35.906  11.714
57486W        W22471  37.435  28.983  13.993
57487W        W22472   0.972  44.966   3.816
57488W        W22473  25.387  11.436  11.939
57489W        W22474   4.870  17.779   1.869
57490W        W22475  24.590  32.621  13.916
57491W        W22476  24.546   7.487   1.111
57492W        W22477   6.332  29.589  11.432
57493W        W22478  19.231  12.430   3.418
57494W        W22479  15.051   0.963   4.246
57495W        W22480   6.408  13.208   0.515
57496W        W22481   4.242  37.593  13.668
57497W        W22482  19.546  18.374   0.829
57498W        W22483  27.619   9.797  13.362
57499W        W22484   1.214  24.641  13.926
57500W        W22485   2.722  23.313   3.233
57501W        W22486  42.297  11.612   4.649
57502W        W22487  24.675   5.446   1.854
57503W        W22488  41.703  33.486  10.235
57504W        W22489  35.952  26.925   1.433
57505W        W22490  29.497  44.375   4.867
57506W        W22491  11.723  16.233  12.015
57507W        W22492   5.277  21.827  10.517
57508W        W22493   5.943  41.581  11.036
57509W        W22494   3.705  40.056  14.864
57510W        W22495  15.846  39.775  11.634
57511W        W22496  18.082  17.820  14.331
57512W        W22497  43.080  39.584  14.050
57513W        W22498   0.884  35.083  12.902
57514W        W22499  42.860  24.553  13.539
57515W        W22500  39.539  15.700  14.465
57516W        W22501  18.249  14.760  13.067
57517W        W22502  37.996   1.202  10.730
57518W        W22503  13.404  35.484  14.906
57519W        W22504  36.006  43.211  12.568
57520W        W22505   8.634  26.054   1.873
57521W        W22506  12.426  12.281   1.414
57522W        W22507  25.688  24.497   2.741
57523W        W22508  27.126  41.982  13.436
57524W        W22509  37.934  37.770  10.964
57525W        W22510  18.198  28.958  14.939
57526W        W22511  11.601  42.392  12.953
57527W        W22512  14.938  15.092  10.736
57528W        W22513  21.100  22.808   1.276
57529W        W22514  22.776  22.031   1.651
57530W        W22515   4.807  27.410  10.981
57531W        W22516   1.289  13.857  12.088
57532W        W22517  44.490  36.184   5.006
57533W        W22518  10.665   7.158   1.364
57534W        W22519  30.052  14.830   3.721
57535W        W22520  21.762  31.905   2.807
57536W        W22521   3.749  24.253   0.884
57537W        W22522  19.269  18.729   2.790
57538W        W22523  15.353   5.308  12.999
57539W        W22524   6.057  15.220  11.098
57540W        W22525  11.649  25.696   1.374
57541W        W22526  24.333  14.400  12.492
57542W        W22527  17.172  30.763   5.103
57543W        W22528  37.486  21.542  10.686
57544W        W22529  23.738  32.846  11.635
57545W        W22530  38.897  12.619   4.789
57546W        W22531  41.148  35.111  13.423
57547W        W22532  12.630   6.259   2.145
57548W        W22533  26.912  43.831   0.342
57549W        W22534  17.121  17.540   1.591
57550W        W22535  39.119  39.245  14.688
57551W        W22536  22.289  19.151   0.744
57552W        W22537  39.193  42.601  14.702
57553W        W22538  14.316  24.396  13.336
57554W        W22539  34.553  11.744  13.360
57555W        W22540   7.664   7.877  10.679
57556W        W22541  29.249  31.078  13.588
57557W        W22542  17.168  44.385   4.451
57558W        W22543  27.654   3.071   4.657
57559W        W22544  39.600  13.203   4.465
57560W        W22545  18.572  10.226   1.481
57561W        W22546  41.763  41.770  12.538
57562W        W22547  17.276   2.184   0.521
57563W        W22548   0.841  11.589  11.888
57564W        W22549   3.556  19.511  11.008
57565W        W22550   5.994  36.403  13.895
57566W        W22551  37.604  10.799   2.640
57567W        W22552  25.130  25.678   0.906
57568W        W22553   9.637  22.531   2.271
57569W        W22554  25.198  38.427   2.241
57570W        W22555  29.041  42.826  11.168
57571W        W22556  15.029  20.168  13.977
57572W        W22557  13.637  24.201   4.078
57573W        W22558  16.300  15.712   0.304
57574W        W22559  16.541   8.402   5.008
57575W        W22560  19.656   7.581  12.160
57576W        W22561  26.243  33.013   2.214
57577W        W22562  39.118  29.636  11.193
57578W        W22563  11.180   4.885   9.947
57579W        W22564   5.693  16.916  13.502
57580W        W22565  34.926  13.335  14.390
57581W        W22566   8.701  25.572  10.536
57582W        W22567  29.328  13.181  13.254
57583W        W22568  18.923  22.861   4.993
57584W        W22569  21.017  37.108  13.594
57585W        W22570  10.730  39.006   4.581
57586W        W22571  22.387  18.418  11.603
57587W        W22572  28.631  37.528  10.589
57588W        W22573  42.044  20.191   2.242
57589W        W22574  19.061  23.419  13.479
57590W        W22575   6.875  23.261  13.066
57591W        W22576  35.724  19.279  14.179
57592W        W22577   8.233   5.710   2.700
57593W        W22578   3.603  11.702   1.402
57594W        W22579  19.089  12.878  11.829
57595W        W22580  29.613  26.076  13.703
57596W        W22581  29.178  22.832  13.964
57597W        W22582  41.070  37.412   0.627
57598W        W22583  16.047  42.318  11.638
57599W        W22584  25.755  24.314  11.181
57600W        W22585  32.371  30.365  10.760
57601W        W22586  10.647  16.975  13.846
57602W        W22587  28.759  12.261   0.551
57603W        W22588  33.373  14.793  12.432
57604W        W22589   6.954  31.891   0.287
57605W        W22590  30.660  30.817  11.895
57606W        W22591  12.286  26.715   4.145
57607W        W22592   3.616  20.536  13.417
57608W        W22593  34.389  19.719   2.606
57609W        W22594  37.760  12.578   2.271
57610W        W22595  21.825  40.940  11.546
57611W        W22596  10.242  16.580  13.109
57612W        W22597   4.864   0.435   3.281
57613W        W22598  35.207  11.683   2.198
57614W        W22599  27.699  33.867   2.730
57615W        W22600  33.546  42.094  11.074
57616W        W22601  23.766   0.496  10.995
57617W        W22602  42.380  44.740  14.601
57618W        W22603  25.568  34.033  12.628
57619W        W22604  21.523  22.016  14.250
57620W        W22605  17.556  12.860  14.410
57621W        W22606  42.920  18.466   4.555
57622W        W22607  11.123  27.077   2.797
57623W        W22608  11.348   6.564  12.667
57624W        W22609   7.290  23.083  10.436
57625W        W22610  37.896  30.923   4.989
57626W        W22611  22.145  42.231   1.181
57627W        W22612  28.625  10.388   1.708
57628W        W22613  27.865  30.649  12.340
57629W        W22614  39.372  31.572   2.801
57630W        W22615  27.980  31.509  11.954
57631W        W22616  15.633  36.442   4.502
57632W        W22617   2.961  11.411  13.500
57633W        W22618  42.118  33.132  12.480
57634W        W22619  22.586  42.842  10.972
57635W        W22620  31.150  14.545  14.090
57636W        W22621  44.420  23.198  14.743
57637W        W22622  18.678  15.978  12.195
57638W        W22623  11.041  32.585   3.774
57639W        W22624  43.455  40.445  12.014
57640W        W22625  29.577  44.524  11.993
57641W        W22626  33.186  24.623  13.401
57642W        W22627  10.220   0.784  10.556
57643W        W22628  34.994  13.293   1.679
57644W        W22629   2.890   1.886   1.525
57645W        W22630  26.081  39.272   4.483
57646W        W22631  17.224  16.070  13.074
57647W        W22632  16.641  26.044  10.636
57648W        W22633  40.991  33.881   1.933
57649W        W22634  26.051  13.315   1.856
57650W        W22635  27.976   6.704   3.198
57651W        W22636  33.371  16.835  10.441
57652W        W22637  20.805  27.832  14.030
57653W        W22638  27.187   9.028   5.011
57654W        W22639  28.070  21.181  11.191
57655W        W22640  20.504  10.792  11.629
57656W        W22641  25.360  32.390  11.659
57657W        W22642  25.593  27.195  12.125
57658W        W22643  35.059   3.875  12.031
57659W        W22644  15.133   2.717  13.329
57660W        W22645  22.443  36.851  11.741
57661W        W22646  34.885  17.547  13.601
57662W        W22647  11.868  11.244   4.096
57663W        W22648  13.338   1.394   0.671
57664W        W22649  35.482  22.505   2.834
57665W        W22650  37.805   2.799  14.438
57666W        W22651  38.001  36.857  11.209
57667W        W22652  17.075  13.895  10.662
57668W        W22653   5.324  27.177   3.209
57669W        W22654  35.192  32.247   3.239
57670W        W22655  36.143  25.277   5.107
57671W        W22656  12.325   0.481   3.790
57672W        W22657  24.554  21.693  10.445
57673W        W22658   4.317  10.369   0.223
57674W        W22659  11.935   5.961  11.580
57675W        W22660   4.047   9.555   0.351
57676W        W22661   5.438  18.580   0.967
57677W        W22662  43.616  18.191  14.926
57678W        W22663  19.207  21.402  13.893
57679W        W22664   6.423  26.997  13.819
57680W        W22665   9.839  13.606  11.591
57681W        W22666  21.221   4.613  13.882
57682W        W22667  31.951  35.541   4.317
57683W        W22668  15.456  41.339   3.065
57684W        W22669   8.959  21.653   1.700
57685W        W22670  40.335  41.381   3.975
57686W        W22671   9.126  30.081   1.410
57687W        W22672  35.531  20.534   1.735
57688W        W22673  29.048   0.489   3.832
57689W        W22674  36.024  18.267   2.444
57690W        W22675   3.807   2.413  11.142
57691W        W22676  28.628  28.892   1.763
57692W        W22677  41.979   6.973  12.068
57693W        W22678   0.724  24.249  12.493
57694W        W22679  25.711  36.296   3.863
57695W        W22680  27.096  22.617  11.615
57696W        W22681   4.666   4.757  12.977
57697W        W22682  34.078  35.094   4.192
57698W        W22683  19.721  24.094   2.502
57699W        W22684  44.747  37.601   1.785
57700W        W22685  22.545  23.459   1.723
57701W        W22686  20.787  28.210  12.560
57702W        W22687  27.834  39.286   0.691
57703W        W22688  34.854   1.417   0.084
57704W        W22689  22.126  32.992  14.927
57705W        W22690   9.109  19.613   1.689
57706W        W22691  28.126  20.987  14.883
57707W        W22692  35.048  17.045  14.471
57708W        W22693   3.933   8.613   4.611
57709W        W22694  30.314   2.421   1.381
57710W        W22695  43.115  28.614   1.489
57711W        W22696  28.330  12.211   3.281
57712W        W22697  13.747  14.600  11.172
57713W        W22698  42.281  18.131  13.890
57714W        W22699   7.875  27.951   1.356
57715W        W22700  23.455  18.250   1.243
57716W        W22701  33.389   9.233   3.175
57717W        W22702  21.471  16.209   1.123
57718W        W22703   1.453  28.163   1.438
57719W        W22704   6.985   1.260  10.604
57720W        W22705  33.493  35.342   0.740
57721W        W22706  37.820  12.982   4.696
57722W        W22707   3.545  26.564   1.354
57723W        W22708  37.344   4.449   4.657
57724W        W22709  23.085  24.267   0.782
57725W        W22710   4.420  40.056  11.533
57726W        W22711  20.259  39.412   1.050
57727W        W22712  38.895  21.274   2.658
57728W        W22713  21.148   5.676  13.960
57729W        W22714  27.604   2.433  14.442
57730W        W22715  25.040   0.568   5.178
57731W        W22716  11.759  14.777  11.601
57732W        W22717  35.206  36.156  13.062
57733W        W22718   3.443  20.742  10.697
57734W        W22719  20.098  12.761  10.963
57735W        W22720  12.491  19.775  12.985
57736W        W22721   7.367  28.048  10.709
57737W        W22722   8.914   2.451  14.398
57738W        W22723  12.785   7.231   4.287
57739W        W22724  12.687  38.160   3.770
57740W        W22725   0.676  35.075   5.193
57741W        W22726   6.902  34.784  14.709
57742W        W22727   5.680  29.050   0.033
57743W        W22728  11.257  10.872  10.535
57744W        W22729   2.427  24.436  13.478
57745W        W22730  25.015  25.138  13.604
57746W        W22731  10.716  40.325  12.833
57747W        W22732  25.646  42.248   2.230
57748W        W22733  38.410   1.548   4.221
57749W        W22734  21.578   5.968   4.571
57750W        W22735  23.900  21.818  13.833
57751W        W22736  17.993  41.912   4.606
57752W        W22737  23.741  24.638  13.279
57753W        W22738  29.454  11.171   2.305
57754W        W22739  13.847  33.576  11.114
57755W        W22740   1.966  29.203   3.812
57756W        W22741   9.127  17.191  12.898
57757W        W22742  26.874   9.002  11.129
57758W        W22743   4.823  34.277  11.871
57759W        W22744  15.825  31.571  14.482
57760W        W22745  15.653  34.632   2.350
57761W        W22746  13.803   0.870   2.820
57762W        W22747  38.318  16.256  12.474
57763W        W22748   0.326  26.241   3.322
57764W        W22749  40.008  12.345   3.585
57765W        W22750   8.760   1.335  13.826
57766W        W22751  25.651  20.868  12.992
57767W        W22752  43.789  40.009  11.912
57768W        W22753  27.924  16.017  10.325
57769W        W22754   1.238  37.792   2.221
57770W        W22755  10.234  15.288   2.809
57771W        W22756   4.614  10.775  11.870
57772W        W22757   0.409  25.973  12.806
57773W        W22758  40.095  32.252  12.427
57774W        W22759  25.122  27.240   2.207
57775W        W22760  16.818  31.157   5.086
57776W        W22761  41.496  42.054   2.222
57777W        W22762  20.985   4.776  10.095
57778W        W22763   4.338  31.702  13.527
57779W        W22764   6.836   9.863  13.811
57780W        W22765   1.887  32.121   3.851
57781W        W22766  24.957  35.611  10.661
57782W        W22767  27.718   5.453  10.403
57783W        W22768  13.941  18.292   0.456
57784W        W22769  24.013   7.904   3.229
57785W        W22770   3.277  33.421  11.895
57786W        W22771  37.327  16.198   4.136
57787W        W22772  35.915  41.644  11.691
57788W        W22773  37.022  28.504   3.118
57789W        W22774  35.589   2.981   1.407
57790W        W22775   7.692  42.426   4.728
57791W        W22776  27.506  35.436   4.814
57792W        W22777  41.107   0.474   2.703
57793W        W22778  26.233   0.304  14.303
57794W        W22779  18.635  19.158   3.330
57795W        W22780  14.247  20.228   3.503
57796W        W22781  40.795   5.344   4.588
57797W        W22782  29.916   6.877  13.716
57798W        W22783   3.515  42.332   1.678
57799W        W22784  29.274  27.971  13.778
57800W        W22785  16.169  39.885   0.829
57801W        W22786   3.768  16.475   2.838
57802W        W22787  16.909   1.852  10.973
57803W        W22788  41.039  24.116   2.801
57804W        W22789  29.735  36.629   0.086
57805W        W22790  17.813  39.447  14.424
57806W        W22791  30.486  36.321   5.035
57807W        W22792   8.783  26.723  11.175
57808W        W22793   3.949   8.792  13.048
57809W        W22794  16.900  33.132   1.020
57810W        W22795   0.028  35.292  10.124
57811W        W22796  27.654  15.432   0.654
57812W        W22797  13.997  16.344  14.436
57813W        W22798  43.519   5.772   2.621
57814W        W22799  33.931  27.693   0.903
57815W        W22800  26.487  20.798   1.212
57816W        W22801   7.336  29.935  11.109
57817W        W22802  37.409  26.206   4.912
57818W        W22803  33.127  28.180   3.352
57819W        W22804   7.613  12.719   1.750
57820W        W22805  42.955  39.890   2.315
57821W        W22806  19.558  13.333  13.474
57822W        W22807  31.507  22.173   3.902
57823W        W22808  44.198  27.465  14.408
57824W        W22809   7.037  16.742   4.321
57825W        W22810  29.865  26.914  14.600
57826W        W22811  27.010  36.647  13.345
57827W        W22812  22.185  42.057  10.882
57828W        W22813   3.112  44.335  10.961
57829W        W22814   1.316  22.411   1.703
57830W        W22815   7.546  24.195   2.699
57831W        W22816  18.646   8.725   2.302
57832W        W22817  16.642  43.317   3.180
57833W        W22818  30.504  25.410   1.488
57834W        W22819  21.088  36.428  12.867
57835W        W22820  16.089  43.016   5.179
57836W        W22821  31.674   6.242   3.576
57837W        W22822  13.690  15.293   3.723
57838W        W22823  15.639  33.367   2.818
57839W        W22824   6.939  23.301  10.778
57840W        W22825   2.359  40.104  10.490
57841W        W22826  33.455   6.477  11.374
57842W        W22827  26.443   0.708  13.989
57843W        W22828  39.380  16.263   1.584
57844W        W22829  36.955  20.851   4.014
57845W        W22830  43.487  27.245  13.410
57846W        W22831  34.678  36.851   0.936
57847W        W22832  16.199   4.113  10.582
57848W        W22833  16.115  33.145   0.635
57849W        W22834  17.309   2.951  14.889
57850W        W22835   0.651  21.291  14.593
57851W        W22836  27.973  17.025   1.743
57852W        W22837   7.122  13.350  11.496
57853W        W22838  22.196  16.620  12.151
57854W        W22839  36.345   7.386  12.460
57855W        W22840  35.980  24.477  10.636
57856W        W22841   6.274  24.589  11.183
57857W        W22842  44.467  33.173  11.522
57858W        W22843  29.566  42.840  12.027
57859W        W22844  21.693   7.327   0.769
57860W        W22845   5.414  11.029  13.781
57861W        W22846   4.124   2.252   1.955
57862W        W22847  16.837  10.210   3.692
57863W        W22848  12.860  18.489   0.346
57864W        W22849   5.816  22.738   3.334
57865W        W22850  30.400  36.032   2.281
57866W        W22851   3.763  12.258   3.659
57867W        W22852   0.623  15.985  14.961
57868W        W22853  39.786  31.115  10.679
57869W        W22854  28.553  43.537  11.624
57870W        W22855  18.290  23.056   3.806
57871W        W22856  10.957  32.344   0.450
57872W        W22857  18.524  24.551   0.033
57873W        W22858  15.178  36.334   1.364
57874W        W22859  23.943  21.867   2.282
57875W        W22860  39.047  28.605   0.213
57876W        W22861  15.179  41.348  11.051
57877W        W22862  12.594  19.928  13.874
57878W        W22863  35.227  26.603  10.687
57879W        W22864   9.872  30.629   1.332
57880W        W22865  21.575   7.651   2.066
57881W        W22866  42.825  10.562  14.252
57882W        W22867  10.591   0.941  11.461
57883W        W22868  37.407   6.449  10.254
57884W        W22869   7.768   8.162   2.246
57885W        W22870  13.258  23.924  10.131
57886W        W22871  19.114   4.749  14.509
57887W        W22872  14.982  12.628  12.067
57888W        W22873   1.734  24.696  13.906
57889W        W22874   5.596   4.343   3.158
57890W        W22875  14.256  43.411  14.440
57891W        W22876  26.340   8.118   0.492
57892W        W22877  20.086  44.479  14.429
57893W        W22878  37.345   0.472  11.623
57894W        W22879  37.963  12.186  13.455
57895W        W22880  35.221  35.252   3.243
57896W        W22881  13.319   0.460   1.802
57897W        W22882   2.552  17.718  13.530
57898W        W22883   6.209  21.987   2.207
57899W        W22884  39.796  35.484   2.150
57900W        W22885  15.400  28.758  12.377
57901W        W22886  12.580   9.428  14.868
57902W        W22887  21.532   5.848  14.555
57903W        W22888   3.458   6.033  11.272
57904W        W22889  22.490   5.377   1.294
57905W        W22890  29.586  29.660  11.614
57906W        W22891  22.600  44.306  10.496
57907W        W22892   2.304  20.238  13.486
57908W        W22893   1.758  44.094   3.878
57909W        W22894  41.112  35.087   0.263
57910W        W22895   3.881  28.799   2.951
57911W        W22896  38.274  10.371  11.159
57912W        W22897  29.460  34.412   1.968
57913W        W22898  28.768  31.982  12.387
57914W        W22899  28.923  14.746  13.010
57915W        W22900  37.943  31.689   3.650
57916W        W22901  29.113  26.191   4.881
57917W        W22902  23.649  23.107   4.426
57918W        W22903  28.202  36.001   1.886
57919W        W22904  44.280  42.919   2.453
57920W        W22905  26.523  37.403  11.081
57921W        W22906  27.173  39.861  11.359
57922W        W22907  14.060  36.831   0.718
57923W        W22908  22.214  42.482   4.517
57924W        W22909   5.295  11.559  13.878
57925W        W22910  40.163   4.947  14.765
57926W        W22911  28.119  44.788   4.166
57927W        W22912  31.662  13.096   4.649
57928W        W22913  43.292  28.686  12.974
57929W        W22914  22.780  35.870   2.169
57930W        W22915   9.893   6.391  14.551
57931W        W22916  10.335  20.306  11.094
57932W        W22917  42.175  27.650   0.452
57933W        W22918  24.088  12.250  12.866
57934W        W22919  32.347  34.987  13.390
57935W        W22920  38.719  27.042   2.491
57936W        W22921  44.514  29.603   3.324
57937W        W22922  22.696   0.162  11.918
57938W        W22923   6.766   3.467  12.102
57939W        W22924  13.750  39.981   2.385
57940W        W22925  40.961   2.691  10.654
57941W        W22926   1.854  27.637  13.775
57942W        W22927   5.132  26.742   3.731
57943W        W22928   3.242   5.903  13.525
57944W        W22929   1.860   2.300   1.361
57945W        W22930  27.482  16.594  13.829
57946W        W22931  28.101  35.819   0.999
57947W        W22932  15.483  40.048  13.892
57948W        W22933  29.145   2.002   3.255
57949W        W22934  42.643  44.315  11.920
57950W        W22935  42.435  20.047  14.884
57951W        W22936  24.460  22.666   2.423
57952W        W22937  42.008  18.331  14.634
57953W        W22938  26.717  35.129   4.056
57954W        W22939   8.291  25.137  13.480
57955W        W22940  35.657  14.269   4.622
57956W        W22941  26.090  28.671  11.509
57957W        W22942  22.142  29.182   0.784
57958W        W22943  34.543  36.896   0.429
57959W        W22944   2.823   1.205   1.232
57960W        W22945  31.557  10.055  12.125
57961W        W22946  33.002   2.805   1.856
57962W        W22947  38.832   6.057   2.859
57963W        W22948  35.375  43.838   4.277
57964W        W22949  33.660  10.610   4.981
57965W        W22950   0.723  24.213   1.362
57966W        W22951  30.601   8.483   2.404
57967W        W22952  25.612  17.133   2.297
57968W        W22953  37.964   6.806  13.330
57969W        W22954   2.608  14.363  10.729
57970W        W22955  34.537   0.790   2.787
57971W        W22956  37.811  32.235  12.866
57972W        W22957  15.136   6.760   0.318
57973W        W22958  44.896  26.378  14.977
57974W        W22959  15.848  39.534  11.159
57975W        W22960  43.063  33.615   3.887
57976W        W22961  34.619  31.498   2.656
57977W        W22962  23.505  12.284  13.054
57978W        W22963  35.838   3.343   2.757
57979W        W22964   7.863  14.354   0.309
57980W        W22965  35.074  30.789  12.728
57981W        W22966  19.081  20.625   0.440
57982W        W22967  42.063  16.987  11.933
57983W        W22968   7.255  24.346  10.978
57984W        W22969  11.204  29.732   2.291
57985W        W22970  31.612  17.622   3.611
57986W        W22971  41.023  23.693   4.182
57987W        W22972  12.667  43.485  13.026
57988W        W22973  26.675  17.821  11.738
57989W        W22974   4.627  18.204  10.975
57990W        W22975  11.180  20.543  11.284
57991W        W22976  36.004  18.261  14.437
57992W        W22977  10.522  32.082  10.971
57993W        W22978  38.517   3.285  14.575
57994W        W22979  20.684  24.854  13.972
57995W        W22980  12.425  28.242  11.102
57996W        W22981  31.664  18.128   4.350
57997W        W22982  40.929  10.624   3.726
57998W        W22983   0.315  19.751  10.922
57999W        W22984  24.376  30.158   5.210
58000W        W22985  40.293  26.188  14.305
58001W        W22986  24.984  14.637  10.715
58002W        W22987  19.224   3.738   1.885
58003W        W22988  29.686  32.006   3.928
58004W        W22989  10.892  17.426   2.709
58005W        W22990  11.602  22.806   2.297
58006W        W22991  10.617  14.575   0.827
58007W        W22992  36.803  33.399   3.568
58008W        W22993  15.089  26.454  10.095
58009W        W22994  28.528  38.566  11.546
58010W        W22995  28.953  28.144  10.692
58011W        W22996  13.712  31.188  12.161
58012W        W22997  17.773  27.999  13.809
58013W        W22998  35.096  34.977   2.733
58014W        W22999  17.824  17.184  11.666
58015W        W23000  28.529  25.643  11.674
58016W        W23001   7.315  42.738  11.528
58017W        W23002  23.198  29.968   3.026
58018W        W23003   9.820  12.230  13.386
58019W        W23004  10.739   6.586   5.495
58020W        W23005  24.117   1.504   0.206
58021W        W23006  26.346  44.656  13.185
58022W        W23007   1.054   7.868   4.250
58023W        W23008  36.480  14.109   1.669
58024W        W23009  21.221   4.687   1.317
58025W        W23010   5.896  13.608   1.321
58026W        W23011  44.689  36.339  10.257
58027W        W23012   0.521  15.044   2.271
58028W        W23013  42.236   9.801  12.959
58029W        W23014   5.891  36.436   2.133
58030W        W23015  31.527   8.407   4.947
58031W        W23016  35.963   6.899   1.168
58032W        W23017  44.589  15.900  12.023
58033W        W23018   8.897  16.886   3.656
58034W        W23019  34.338  39.074   0.468
58035W        W23020   0.992  12.770  11.175
58036W        W23021  35.289  19.113  12.103
58037W        W23022  30.407  15.380  12.038
58038W        W23023  44.440  41.779   4.581
58039W        W23024   8.006  33.413  14.452
58040W        W23025  14.170  24.552   2.341
58041W        W23026   7.208  32.516   4.400
58042W        W23027   2.456  36.082   0.875
58043W        W23028  23.521  41.621  13.001
58044W        W23029  42.496  43.755  13.520
58045W        W23030   1.296  44.273  12.482
58046W        W23031  18.064  40.161   3.253
58047W        W23032   5.147  35.300  13.511
58048W        W23033   3.327  12.888   4.138
58049W        W23034  32.483  33.184  10.502
58050W        W23035  30.535  11.830  10.204
58051W        W23036  44.954  26.478   5.409
58052W        W23037  25.737  17.257   4.630
58053W        W23038  25.067  25.697  14.896
58054W        W23039  13.428   2.147  11.914
58055W        W23040  15.624  12.416   3.759
58056W        W23041  25.118   7.587  14.486
58057W        W23042  36.423  27.117   1.434
58058W        W23043  38.500  25.522   5.697
58059W        W23044  38.784  24.063  12.198
58060W        W23045  18.932   8.342  14.997
58061W        W23046  17.624  20.797   1.751
58062W        W23047  15.708  37.447   0.969
58063W        W23048  17.864  43.182  14.287
58064W        W23049  36.953  23.667   3.803
58065W        W23050  23.506   7.800   0.615
58066W        W23051  29.358  19.534   0.432
58067W        W23052  29.444   3.967  13.950
58068W        W23053   0.860   4.689  13.409
58069W        W23054  17.504  21.594   2.726
58070W        W23055  10.421   8.865   1.732
58071W        W23056  23.514  30.885  10.676
58072W        W23057  37.695  36.008   1.360
58073W        W23058  41.860  14.298  10.678
58074W        W23059  22.537  37.316  14.006
58075W        W23060   9.807  24.630   0.924
58076W        W23061  28.620  10.182   2.260
58077W        W23062  33.455  32.120  12.829
58078W        W23063  39.606  30.151  12.331
58079W        W23064  20.316  27.628  11.603
58080W        W23065  28.203  29.598  11.010
58081W        W23066  14.315  26.642  12.964
58082W        W23067  37.639  27.879  12.610
58083W        W23068  33.431   4.803   1.764
58084W        W23069  36.135  28.853   1.876
58085W        W23070  30.370  36.747   4.694
58086W        W23071   2.336   2.497   3.257
58087W        W23072  34.965  28.233  12.577
58088W        W23073  44.920  33.279  11.988
58089W        W23074  38.923  43.252   3.121
58090W        W23075  39.260  29.458  14.329
58091W        W23076  35.138   1.584  14.232
58092W        W23077  22.159  26.120   0.176
58093W        W23078  34.194   8.986  13.510
58094W        W23079  30.578  11.977   1.842
58095W        W23080  44.997  36.801   0.835
58096W        W23081  29.204  36.915   1.366
58097W        W23082  28.048  26.699  14.350
58098W        W23083   1.754  24.453   3.170
58099W        W23084  28.063   2.985   3.237
58100W        W23085  32.185  12.927  14.418
58101W        W23086  44.892   4.923  13.552
58102W        W23087   1.759   4.324   1.021
58103W        W23088  13.862   9.679  14.477
58104W        W23089  35.176   6.076   3.556
58105W        W23090  33.166  28.789   1.191
58106W        W23091  22.658  29.402   4.207
58107W        W23092  20.955   1.640   0.848
58108W        W23093   6.226   0.618   0.984
58109W        W23094   4.291  17.291   4.485
58110W        W23095  43.506  28.691  11.976
58111W        W23096  31.997  28.650   0.409
58112W        W23097   8.344  25.171   2.490
58113W        W23098   8.166  38.752   1.788
58114W        W23099   4.797  43.919  14.124
58115W        W23100  44.457  44.775   0.354
58116W        W23101  24.667  43.739   2.834
58117W        W23102  14.298  37.385   3.279
58118W        W23103  31.677   2.173  11.502
58119W        W23104  25.065  16.642   0.716
58120W        W23105  41.468  24.502   2.781
58121W        W23106  19.229  27.079   5.002
58122W        W23107  32.646  17.956   0.058
58123W        W23108   1.764  34.494   1.373
58124W        W23109  19.953  43.138  11.768
58125W        W23110   6.963  36.905   4.641
58126W        W23111  17.454  33.963   2.325
58127W        W23112  26.499  27.225  13.044
58128W        W23113  12.272  42.251  14.191
58129W        W23114  10.736  25.591  13.977
58130W        W23115   1.313   1.998  12.184
58131W        W23116  16.743  22.244  12.507
58132W        W23117  42.365  34.327   0.247
58133W        W23118  15.860  25.539   0.769
58134W        W23119  20.644  32.018  12.157
58135W        W23120  11.822  18.703  12.215
58136W        W23121  19.121   6.307  13.100
58137W        W23122  36.436  37.691   1.673
58138W        W23123  34.361  13.577   0.290
58139W        W23124   6.987   6.656  10.748
58140W        W23125   1.470  17.233   1.286
58141W        W23126  25.925  24.032  11.578
58142W        W23127  28.517  24.989  11.402
58143W        W23128  32.837  21.212   4.317
58144W        W23129   7.165   4.841   0.342
58145W        W23130  43.770  10.529  12.569
58146W        W23131  10.147  24.169   3.766
58147W        W23132   4.271   1.339   3.968
58148W        W23133  16.397  28.003  11.674
58149W        W23134   6.694   9.246  10.871
58150W        W23135  18.583  44.064   1.904
58151W        W23136  12.583  29.199  14.417
58152W        W23137   9.793  20.745   4.650
58153W        W23138  18.849  26.961  14.755
58154W        W23139  19.617  31.121   0.386
58155W        W23140   6.341  18.139  14.320
58156W        W23141  32.953  34.770   4.681
58157W        W23142  27.613  23.279  13.501
58158W        W23143  10.265  26.778  12.071
58159W        W23144  11.029  30.174   3.107
58160W        W23145  36.530  44.654   2.916
58161W        W23146  44.067   6.774  14.069
58162W        W23147  15.131   4.763   1.560
58163W        W23148  43.754  12.239  11.562
58164W        W23149  31.616  19.430   3.090
58165W        W23150   2.733  23.872   5.135
58166W        W23151  20.040  19.259  13.900
58167W        W23152  20.109  16.070   0.268
58168W        W23153  22.740  14.599   0.134
58169W        W23154  41.255  13.820   3.811
58170W        W23155  18.765  27.953   1.433
58171W        W23156  22.295   3.483   3.832
58172W        W23157  34.975  11.929   2.601
58173W        W23158  12.633  30.619   2.351
58174W        W23159  25.772  21.558   0.960
58175W        W23160  15.660  44.018  11.347
58176W        W23161   0.585   0.495  12.543
58177W        W23162  30.828  10.201  11.627
58178W        W23163  32.649  32.035  11.048
58179W        W23164  29.497   4.114   2.962
58180W        W23165  14.367  38.035  11.997
58181W        W23166  18.441   7.382   0.202
58182W        W23167  16.341  28.659   1.386
58183W        W23168   9.943  24.672   4.114
58184W        W23169  12.600   7.689   4.102
58185W        W23170  21.684  22.740  10.769
58186W        W23171  35.036  23.234   1.295
58187W        W23172   0.904  33.157  10.515
58188W        W23173  17.515  42.615   5.036
58189W        W23174  26.104  22.660  12.984
58190W        W23175  10.990  12.610   0.865
58191W        W23176  21.170  43.243   1.389
58192W        W23177  19.159  31.907   0.411
58193W        W23178  35.050   8.886   1.251
58194W        W23179   1.720  22.006  10.615
58195W        W23180   3.136  43.303  11.938
58196W        W23181  35.133  17.286   1.921
58197W        W23182  42.495  32.157   2.324
58198W        W23183  26.318  34.479  10.827
58199W        W23184   0.212  15.248  14.454
58200W        W23185  15.814  35.532  12.806
58201W        W23186  40.561  41.769  13.555
58202W        W23187  13.218   5.500  10.302
58203W        W23188  38.916   0.031   0.935
58204W        W23189  41.590  14.170   4.589
58205W        W23190  33.999  37.351   2.370
58206W        W23191  41.293  43.056   1.840
58207W        W23192  32.741   8.749   0.427
58208W        W23193  23.407  40.516  10.629
58209W        W23194  18.087  14.336   2.249
58210W        W23195  35.348   0.792  12.396
58211W        W23196  44.276  43.692  11.584
58212W        W23197  29.698   6.916   1.339
58213W        W23198   0.961  29.497   0.707
58214W        W23199  38.888  33.023  12.898
58215W        W23200  32.919   5.253   1.669
58216W        W23201  29.760   6.552  12.108
58217W        W23202  16.766  32.946   3.715
58218W        W23203  23.472  39.327   4.091
58219W        W23204  37.464  35.265  13.957
58220W        W23205   4.761   1.513   1.843
58221W        W23206  31.187  14.040   5.064
58222W        W23207  20.263  20.371   3.688
58223W        W23208  33.203  20.065  14.526
58224W        W23209  12.031   2.174  11.102
58225W        W23210  11.482  19.091  12.426
58226W        W23211  36.890  29.510  11.136
58227W        W23212  18.724   4.930  14.768
58228W        W23213  15.689   5.810   1.906
58229W        W23214  17.303  30.094  11.676
58230W        W23215   0.905  19.499  12.843
58231W        W23216  25.716  32.767  11.641
58232W        W23217   2.355  44.415   1.381
58233W        W23218  30.667  11.181   2.711
58234W        W23219  24.012   8.637  12.147
58235W        W23220  19.538  17.093  10.195
58236W        W23221  40.033  10.414  10.682
58237W        W23222   3.805  40.012   4.401
58238W        W23223  27.706  33.219  14.926
58239W        W23224  40.107  40.047  10.691
58240W        W23225  41.758  21.228   2.322
58241W        W23226  21.292  22.053   1.902
58242W        W23227  38.731  22.203   4.701
58243W        W23228  12.333  42.295   2.141
58244W        W23229   9.351   7.860   1.303
58245W        W23230  32.373  29.084  11.598
58246W        W23231  18.705  28.344   3.346
58247W        W23232  41.019  11.583  14.335
58248W        W23233  16.657  42.547   1.367
58249W        W23234  18.556  40.786   2.242
58250W        W23235  26.632  11.369   4.733
58251W        W23236  20.755  20.792   3.237
58252W        W23237  14.612   2.525  13.970
58253W        W23238  23.574   6.614  11.494
58254W        W23239  26.173   8.355  14.192
58255W        W23240  19.598  20.203  14.297
58256W        W23241  40.302  15.087   0.565
58257W        W23242  33.133  17.700   4.631
58258W        W23243  32.002  13.033  13.123
58259W        W23244  13.631  38.428  12.177
58260W        W23245   0.950  18.678   0.729
58261W        W23246   3.341  43.656   2.637
58262W        W23247  27.080  15.130  12.121
58263W        W23248  16.190   4.695  11.321
58264W        W23249   5.641  13.315  14.771
58265W        W23250  22.583  20.009   3.404
58266W        W23251   6.255  15.620  11.919
58267W        W23252  39.360   3.884  10.629
58268W        W23253   6.927  36.927   1.934
58269W        W23254  42.311   3.613   2.124
58270W        W23255  26.582   8.871   0.242
58271W        W23256  22.749   4.574  12.980
58272W        W23257  39.101  38.425  14.957
58273W        W23258   8.548  12.589  13.886
58274W        W23259  25.229  37.124   2.737
58275W        W23260  22.780  13.842   0.862
58276W        W23261  10.557  24.397  13.598
58277W        W23262  25.004  14.882  14.046
58278W        W23263  12.045   9.136  10.644
58279W        W23264  35.132   9.210  10.376
58280W        W23265  43.198   4.276  10.509
58281W        W23266   7.957  28.321   4.153
58282W        W23267  24.169  28.980   4.389
58283W        W23268  20.675  28.932  14.725
58284W        W23269   4.892  15.282   4.161
58285W        W23270  22.766  21.644  14.314
58286W        W23271  26.512  39.315  13.490
58287W        W23272  30.364  41.272   1.415
58288W        W23273  33.605  10.881  12.040
58289W        W23274  18.080   9.244   4.792
58290W        W23275  14.071  39.349  14.981
58291W        W23276  44.117  31.356  12.106
58292W        W23277  13.743  12.232   2.927
58293W        W23278  34.261  29.571  13.428
58294W        W23279  38.861  40.491   4.563
58295W        W23280   3.827  27.383   0.267
58296W        W23281  24.776  17.269   1.722
58297W        W23282  27.174   4.837  11.025
58298W        W23283   7.881   4.465   0.271
58299W        W23284  35.888   6.317  13.565
58300W        W23285   0.322  43.307  13.591
58301W        W23286  22.719  38.436   4.916
58302W        W23287  29.468  37.572  10.230
58303W        W23288  16.010  41.169   2.315
58304W        W23289  24.215   2.001   0.990
58305W        W23290  12.374  27.773   1.923
58306W        W23291   2.494   9.393   2.056
58307W        W23292   3.804  21.049  13.018
58308W        W23293  31.100  28.600   1.451
58309W        W23294  39.126  44.354   4.593
58310W        W23295  33.938  36.080   4.221
58311W        W23296  12.194   4.765   3.854
58312W        W23297  38.002   4.456   3.295
58313W        W23298  30.130  14.504   1.292
58314W        W23299  27.579  22.735  11.427
58315W        W23300  44.756   9.859   2.748
58316W        W23301   5.343   9.367  10.731
58317W        W23302  26.271  37.107  13.772
58318W        W23303  17.093   8.427   3.683
58319W        W23304   0.629  39.542  11.891
58320W        W23305  24.617  12.836   2.647
58321W        W23306  33.641  44.069  12.786
58322W        W23307  42.009  14.227  13.796
58323W        W23308   5.178  25.656   4.089
58324W        W23309  35.001  37.390   4.077
58325W        W23310  27.348  22.714  12.441
58326W        W23311  22.286  21.446  10.753
58327W        W23312  14.197  11.350  14.412
58328W        W23313  31.666  10.169  14.925
58329W        W23314  30.348  44.172   2.324
58330W        W23315  40.460  35.902   1.411
58331W        W23316  43.352  35.712  13.054
58332W        W23317   0.450  20.332  14.406
58333W        W23318  37.928  11.314   4.297
58334W        W23319   7.406   7.191   5.516
58335W        W23320  43.571  24.025  13.862
58336W        W23321   1.657  27.931  14.998
58337W        W23322  28.001   5.302  11.193
58338W        W23323   8.682  16.672  14.002
58339W        W23324   7.223  10.193  12.535
58340W        W23325   7.616   5.106   0.936
58341W        W23326  11.274  18.344   3.688
58342W        W23327  34.914  22.241  11.915
58343W        W23328  26.007  21.319  10.273
58344W        W23329  16.770  26.322   3.683
58345W        W23330  22.579  14.769   3.304
58346W        W23331  11.808   3.721   0.815
58347W        W23332   3.788  43.946  14.006
58348W        W23333   5.556  34.467   2.737
58349W        W23334  25.624   0.912  12.322
58350W        W23335  29.539  28.154   3.303
58351W        W23336  27.955  17.800   0.391
58352W        W23337  14.420  40.575   4.858
58353W        W23338  31.115   6.681  13.317
58354W        W23339  33.567  25.015  13.121
58355W        W23340  43.909   8.798   0.339
58356W        W23341  44.311   7.120  13.270
58357W        W23342   0.460  20.259  12.632
58358W        W23343  15.166   2.836   4.554
58359W        W23344  22.864  18.981  10.389
58360W        W23345  18.152  28.061  11.796
58361W        W23346   3.989  25.107  13.889
58362W        W23347  40.104  18.681   2.207
58363W        W23348   1.702   2.338  10.974
58364W        W23349  13.238   3.940  10.460
58365W        W23350   4.748   1.756  10.468
58366W        W23351   2.607  23.904   2.784
58367W        W23352  23.098  42.218   2.763
58368W        W23353   7.943   1.783   2.763
58369W        W23354  32.587  12.430   0.377
58370W        W23355  31.355   6.759  13.779
58371W        W23356   5.364   2.842   1.459
58372W        W23357  24.390   1.295   2.819
58373W        W23358  19.402  25.663   2.964
58374W        W23359  32.341  26.497  13.064
58375W        W23360  17.763  35.559  14.019
58376W        W23361  34.498  10.864  11.558
58377W        W23362  29.980  29.313  11.523
58378W        W23363  25.943  42.453   1.380
58379W        W23364  36.100   3.729   1.986
58380W        W23365  19.743  14.479  14.892
58381W        W23366  32.646  40.567  13.054
58382W        W23367   2.164  27.724   4.766
58383W        W23368  15.847   3.729  10.664
58384W        W23369  13.868   6.565  11.486
58385W        W23370   9.249   9.414   3.198
58386W        W23371  32.970  20.945  14.432
58387W        W23372  30.019  13.283   2.632
58388W        W23373  29.000  44.397   0.851
58389W        W23374   4.895  28.054   2.868
58390W        W23375  35.041   2.356   2.681
58391W        W23376   3.501  17.917   4.324
58392W        W23377  22.485  32.541   0.703
58393W        W23378  11.229  29.126  10.745
58394W        W23379  15.673  23.964  13.551
58395W        W23380  19.153  39.521   3.115
58396W        W23381  13.979  21.010  12.809
58397W        W23382  26.465  20.974   2.394
58398W        W23383  23.746  20.361  12.862
58399W        W23384  27.351   3.281  11.107
58400W        W23385   1.912   9.836   3.327
58401W        W23386  32.277  40.006  11.656
58402W        W23387  34.026   9.479  13.596
58403W        W23388   9.566   8.394   4.440
58404W        W23389  17.308   0.751   2.634
58405W        W23390   3.581   6.711   3.157
58406W        W23391  33.076  40.247   1.021
58407W        W23392  41.390  31.688  14.393
58408W        W23393   3.388  10.774  12.563
58409W        W23394  13.948  24.698  14.752
58410W        W23395  14.364  29.169  14.905
58411W        W23396  12.819  13.790  11.967
58412W        W23397   7.013   8.063  12.025
58413W        W23398   7.360  21.369  13.017
58414W        W23399   7.028  13.713   2.172
58415W        W23400  39.770  27.600   1.976
58416W        W23401  32.555  13.806   2.440
58417W        W23402  32.619  37.001  13.861
58418W        W23403  37.618   1.898  11.098
58419W        W23404  36.125  32.090   0.607
58420W        W23405  10.085   9.046   4.984
58421W        W23406  35.959  10.246   1.169
58422W        W23407  44.856  36.556  11.755
58423W        W23408  16.132   9.596   4.278
58424W        W23409   8.281  39.844  14.305
58425W        W23410  16.751  43.529  13.038
58426W        W23411  15.118  20.955   1.664
58427W        W23412  33.585  39.414  14.453
58428W        W23413  11.576  10.612  11.107
58429W        W23414  16.940  22.576  11.686
58430W        W23415  44.267  38.195  13.097
58431W        W23416  40.149  21.792   4.147
58432W        W23417   0.346  33.556   0.723
58433W        W23418  23.078  39.514   1.944
58434W        W23419  12.737  36.424   3.147
58435W        W23420  31.086   1.608  11.959
58436W        W23421  37.369  24.172   0.206
58437W        W23422  39.421  38.078  13.614
58438W        W23423   7.747  30.570  13.338
58439W        W23424   4.857   8.254   3.169
58440W        W23425  38.882  33.566   0.847
58441W        W23426  34.406  33.168  13.837
58442W        W23427   2.254  40.919   3.272
58443W        W23428  42.745   9.146  11.163
58444W        W23429  14.986  10.373   1.847
58445W        W23430  32.010   6.914  12.051
58446W        W23431  12.793  43.466   3.078
58447W        W23432  29.026  22.255   4.551
58448W        W23433  29.549  11.083  11.644
58449W        W23434  44.854  34.867   0.448
58450W        W23435  42.982  19.777   4.738
58451W        W23436  23.767  28.978  10.793
58452W        W23437  21.152  32.464  12.320
58453W        W23438  11.767  34.846   3.193
58454W        W23439  24.244  17.340  14.284
58455W        W23440  34.011   3.931   2.675
58456W        W23441  10.934   5.376  13.977
58457W        W23442   7.129  21.856   2.976
58458W        W23443  38.409   5.040  13.220
58459W        W23444  28.713  13.660   0.332
58460W        W23445  34.899   0.734   1.864
58461W        W23446   7.187  39.254  11.198
58462W        W23447   8.683  11.741   3.142
58463W        W23448   2.319  15.296   2.459
58464W        W23449  33.453  41.141  14.402
58465W        W23450  28.080  17.624  11.553
58466W        W23451  25.646  14.721   3.188
58467W        W23452  33.691   9.655   3.556
58468W        W23453  13.781  23.692  14.562
58469W        W23454   3.260  13.072   0.780
58470W        W23455   4.451  34.575   4.194
58471W        W23456   3.299  41.847  12.712
58472W        W23457  30.137   3.307  11.615
58473W        W23458  21.862   9.219  11.619
58474W        W23459  35.467  40.593   4.707
58475W        W23460  25.116  22.308   2.351
58476W        W23461  36.171  39.348  11.470
58477W        W23462  37.386  34.762   0.290
58478W        W23463  26.131  32.576   4.440
58479W        W23464  25.827  19.486   1.667
58480W        W23465   2.010   5.334   0.273
58481W        W23466   1.895  15.029   5.011
58482W        W23467  14.084   7.881  14.954
58483W        W23468   5.263  42.776  11.490
58484W        W23469   9.221   2.390   3.204
58485W        W23470  37.810  16.664  13.984
58486W        W23471  19.891  32.443   5.120
58487W        W23472  36.446  16.993   2.255
58488W        W23473  27.081  25.692  14.922
58489W        W23474  34.862  33.706   3.362
58490W        W23475  20.150  35.248   0.151
58491W        W23476  34.971  24.219  14.456
58492W        W23477  17.588   3.087  14.470
58493W        W23478  42.611  28.600  12.047
58494W        W23479  13.160  31.394  14.316
58495W        W23480  16.160  29.636  10.710
58496W        W23481  39.505  36.189  13.506
58497W        W23482  12.282  27.954   4.825
58498W        W23483   4.269  40.701   1.698
58499W        W23484  31.850  10.947   4.551
58500W        W23485  10.572  28.414   2.180
58501W        W23486  26.738  23.655  14.309
58502W        W23487   1.021  11.879  11.003
58503W        W23488  34.592  25.578   2.324
58504W        W23489  12.213  10.430   2.291
58505W        W23490   3.710  41.394   1.175
58506W        W23491  31.670  31.297   0.039
58507W        W23492   3.688  25.251   2.640
58508W        W23493  36.093   7.088  11.474
58509W        W23494  30.018  39.831   4.348
58510W        W23495  30.932   9.863   3.769
58511W        W23496  37.655   4.489   2.367
58512W        W23497  38.693  17.064  10.513
58513W        W23498   8.114   1.365   1.794
58514W        W23499  37.808  34.070  13.793
58515W        W23500  41.593  18.512   3.763
58516W        W23501  43.941  30.693   2.135
58517W        W23502  39.124  40.482   2.316
58518W        W23503  16.955   9.296   3.745
58519W        W23504  26.040  20.030   0.474
58520W        W23505  40.098  13.715   0.672
58521W        W23506   8.199  35.187   2.851
58522W        W23507  23.496  24.057  14.612
58523W        W23508  36.947  22.799  12.527
58524W        W23509  25.593  14.372   1.426
58525W        W23510  40.547  35.707   2.912
58526W        W23511  23.931  33.101  10.126
58527W        W23512   8.794  23.644  14.010
58528W        W23513  24.487  15.658   3.168
58529W        W23514  28.036  14.079   4.539
58530W        W23515   2.763  38.656   0.222
58531W        W23516  30.905  35.652   1.951
58532W        W23517  15.066  24.787  14.527
58533W        W23518  20.976  21.700  13.427
58534W        W23519  16.244  18.921  10.278
58535W        W23520   8.288  43.251   2.287
58536W        W23521  22.167  11.224  14.620
58537W        W23522  37.113   2.912   0.782
58538W        W23523  26.415  33.123  14.448
58539W        W23524  10.223  29.180   4.084
58540W        W23525   4.956  22.624   1.266
58541W        W23526  18.297   9.865   4.364
58542W        W23527  15.675  16.188  12.111
58543W        W23528  21.213  21.243  11.207
58544W        W23529  36.562  44.766   1.797
58545W        W23530  31.839  23.692  14.553
58546W        W23531  22.975  20.698  14.513
58547W        W23532   1.269  23.764   3.359
58548W        W23533  37.499  21.013  10.618
58549W        W23534  19.968  15.096   4.070
58550W        W23535  32.363  22.197   3.201
58551W        W23536   3.318  11.210  11.111
58552W        W23537   1.901   8.736   1.886
58553W        W23538  28.454   7.962   1.888
58554W        W23539   9.841  42.007  11.640
58555W        W23540  32.332  22.629  10.290
58556W        W23541  31.370  36.387   3.410
58557W        W23542  41.543  25.141   0.327
58558W        W23543   8.238  36.404   3.723
58559W        W23544  20.903  21.179   4.600
58560W        W23545  40.763  15.450  11.513
58561W        W23546   1.596   4.701  11.144
58562W        W23547  31.041  43.368   3.676
58563W        W23548   0.244  28.309   4.765
58564W        W23549  42.417  41.938  13.312
58565W        W23550  41.541  31.208  12.604
58566W        W23551   7.834  13.227  12.132
58567W        W23552  18.342  16.570   2.287
58568W        W23553  32.436   5.715  12.887
58569W        W23554  25.602  28.499  11.573
58570W        W23555   5.198  28.837  11.122
58571W        W23556  30.724  30.112  13.384
58572W        W23557  28.110  20.643  10.494
58573W        W23558  33.607  44.040  10.843
58574W        W23559   1.382   9.659  12.114
58575W        W23560  30.115  27.622   2.205
58576W        W23561  34.521  12.162  11.993
58577W        W23562  39.988  41.973   1.967
58578W        W23563  30.921   8.231  14.543
58579W        W23564  35.499  42.530  13.792
58580W        W23565   7.877   8.391  13.837
58581W        W23566   9.736   4.093   4.540
58582W        W23567   3.796  41.832  12.581
58583W        W23568  20.751  32.316  14.885
58584W        W23569  11.764   0.632  10.238
58585W        W23570  24.956  34.799  13.029
58586W        W23571  37.930  16.358   1.388
58587W        W23572  11.319   5.269   4.598
58588W        W23573  11.339   0.498   4.084
58589W        W23574  11.442  32.015   3.832
58590W        W23575  28.438  38.929   4.595
58591W        W23576  11.841  20.014   1.941
58592W        W23577  21.916   5.406  14.537
58593W        W23578  17.646   2.431   0.250
58594W        W23579  30.942  39.475   4.663
58595W        W23580   7.321  12.709   3.276
58596W        W23581   1.125  40.974  13.017
58597W        W23582   6.228  11.384  13.444
58598W        W23583  16.757  16.823  12.584
58599W        W23584  17.841   7.742  13.289
58600W        W23585   7.959  28.490  14.999
58601W        W23586  15.528  44.731  11.677
58602W        W23587   7.936   9.306   0.292
58603W        W23588   9.807  20.211   4.750
58604W        W23589   0.614   4.906  13.009
58605W        W23590  33.859  38.079   0.817
58606W        W23591  22.983  26.749  14.290
58607W        W23592  23.168  21.372   3.344
58608W        W23593   4.776  22.154   5.152
58609W        W23594  29.767   9.879  12.990
58610W        W23595   1.669  40.543  10.983
58611W        W23596  28.213  17.120  12.995
58612W        W23597  32.017  22.780  11.962
58613W        W23598  44.375   9.143   2.296
58614W        W23599   9.698  21.233   0.274
58615W        W23600  25.042  36.926   1.844
58616W        W23601  33.028   0.413   4.286
58617W        W23602  39.840  12.379   2.726
58618W        W23603   1.598  43.588   1.286
58619W        W23604  40.881   8.784  14.037
58620W        W23605  26.664  44.537   5.516
58621W        W23606  26.439  21.597   1.707
58622W        W23607  39.351  16.336   4.196
58623W        W23608  32.426  17.248   0.791
58624W        W23609  28.243  37.787   2.697
58625W        W23610  29.690  44.280  12.884
58626W        W23611  41.997  20.654  10.833
58627W        W23612   9.321  19.601   3.935
58628W        W23613  13.311   7.263  13.207
58629W        W23614  21.439  24.534  12.489
58630W        W23615  16.670  29.115   4.081
58631W        W23616   0.441  28.570   3.479
58632W        W23617   8.827   8.954   1.941
58633W        W23618  29.206  40.875   4.658
58634W        W23619  23.096  34.094  12.792
58635W        W23620   1.976  39.112  12.028
58636W        W23621  14.616  31.802  13.619
58637W        W23622  26.117  12.680  10.609
58638W        W23623  40.438   5.152   0.213
58639W        W23624  21.043   8.209   3.343
58640W        W23625  17.645  26.440  14.039
58641W        W23626   2.317  34.464  14.262
58642W        W23627  20.217  31.768  11.174
58643W        W23628  27.057   2.953  13.348
58644W        W23629  16.168   7.249  13.917
58645W        W23630   3.547  13.129  11.247
58646W        W23631  11.969  38.477  13.116
58647W        W23632  17.759   6.453  14.127
58648W        W23633  37.855  36.802  10.719
58649W        W23634  22.679   6.886   3.776
58650W        W23635  33.639  19.882  11.968
58651W        W23636  43.781  25.717  11.053
58652W        W23637  22.740  14.824  11.620
58653W        W23638  22.693  41.354   3.713
58654W        W23639   6.816  44.343   0.894
58655W        W23640  40.613  32.442   5.330
58656W        W23641  33.985  33.961  14.867
58657W        W23642  28.951  11.531   4.245
58658W        W23643  27.050  30.661   2.600
58659W        W23644  34.024  18.557   2.843
58660W        W23645  38.860  41.355  11.289
58661W        W23646  35.114  10.756  11.203
58662W        W23647  40.616  37.489  11.918
58663W        W23648   4.892   4.008  11.952
58664W        W23649  19.407  16.689  12.318
58665W        W23650  32.657  31.508  11.774
58666W        W23651  19.070   3.875   1.323
58667W        W23652   5.337  35.304  12.642
58668W        W23653  22.504   7.208   4.748
58669W        W23654  12.898   8.141  10.223
58670W        W23655  40.442  29.587   4.854
58671W        W23656   4.499  26.050  11.246
58672W        W23657  39.398  15.069   0.045
58673W        W23658   2.255  22.104   1.330
58674W        W23659  26.172  26.195  12.352
58675W        W23660  32.924  16.799  12.122
58676W        W23661   8.347  32.380  11.096
58677W        W23662  34.056  30.074   0.634
58678W        W23663  32.981  22.326  12.006
58679W        W23664  23.490  19.555  12.425
58680W        W23665   2.013   4.028  12.416
58681W        W23666  36.229  16.259  13.340
58682W        W23667  21.066  38.337  14.231
58683W        W23668  40.847  23.564   3.712
58684W        W23669  15.277  40.831  11.080
58685W        W23670   5.934  23.548  11.628
58686W        W23671  30.727  11.287  12.510
58687W        W23672  35.655  44.073   1.047
58688W        W23673   2.691   8.466   3.303
58689W        W23674  33.072   0.332   3.781
58690W        W23675   3.285   6.432   2.205
58691W        W23676  31.151  34.569   3.704
58692W        W23677  11.074  24.199   1.639
58693W        W23678  34.181  38.972   3.155
58694W        W23679   8.768   3.412  11.196
58695W        W23680   6.326  20.719  13.143
58696W        W23681  19.590  33.159  12.032
58697W        W23682   6.808   3.326  12.606
58698W        W23683  40.720  33.357   2.788
58699W        W23684   9.207  40.277   3.813
58700W        W23685  23.741   7.311  12.135
58701W        W23686   2.366  23.697  14.954
58702W        W23687  29.724   1.409   4.611
58703W        W23688   0.356  28.660  11.106
58704W        W23689   3.986  10.211   3.720
58705W        W23690  10.412  27.848  14.404
58706W        W23691   4.870  39.228   0.823
58707W        W23692  22.202  44.550   1.765
58708W        W23693  20.037  13.104   4.647
58709W        W23694  19.153  14.309  12.065
58710W        W23695  29.795  28.358   1.375
58711W        W23696  41.928  13.115   1.838
58712W        W23697  34.764  41.757  14.119
58713W        W23698   7.375  11.597  12.063
58714W        W23699  29.842  18.284  11.614
58715W        W23700  38.205   0.839   4.408
58716W        W23701  11.345  31.040  13.548
58717W        W23702   0.395   3.333  11.673
58718W        W23703  20.142  38.017   2.443
58719W        W23704  34.993  29.233  11.158
58720W        W23705  12.123  30.463   2.803
58721W        W23706   3.256  19.293   4.153
58722W        W23707  42.992  30.129   4.714
58723W        W23708   3.961   8.328   2.746
58724W        W23709  27.978  12.029  14.807
58725W        W23710  28.205  21.948  12.229
58726W        W23711   2.374  11.208   1.204
58727W        W23712  38.406   8.875  12.971
58728W        W23713  22.717   8.308   4.381
58729W        W23714  25.892  33.472   0.800
58730W        W23715  15.884  29.920   1.830
58731W        W23716  33.287  20.707  13.041
58732W        W23717  16.775  39.559  12.039
58733W        W23718  10.630   0.958  10.270
58734W        W23719   0.529  43.822  13.987
58735W        W23720  44.497  23.669  14.538
58736W        W23721  33.469  36.930  14.909
58737W        W23722   4.827  18.072  14.571
58738W        W23723  35.738   7.407  11.676
58739W        W23724  25.221  44.400  13.306
58740W        W23725  17.841  11.359   1.805
58741W        W23726  35.681  39.354   2.837
58742W        W23727  10.806   7.281   3.327
58743W        W23728  25.195  20.209   3.841
58744W        W23729  44.566  14.515   1.890
58745W        W23730   0.573  15.943   0.710
58746W        W23731  11.120   5.188  12.494
58747W        W23732  29.290  23.711  12.913
58748W        W23733   4.866  26.408   3.412
58749W        W23734  40.488  18.856  10.662
58750W        W23735  18.430  28.585  14.684
58751W        W23736  10.655  11.360   9.889
58752W        W23737  16.188  31.567  12.643
58753W        W23738  21.139  21.224  12.054
58754W        W23739  11.714   6.440   3.740
58755W        W23740   6.767  28.364   3.824
58756W        W23741  28.373  40.500   1.953
58757W        W23742   0.531  35.873   3.174
58758W        W23743  42.907  26.985  14.505
58759W        W23744   8.318  37.130   3.068
58760W        W23745  23.921  10.695   2.119
58761W        W23746   2.277  12.913   4.124
58762W        W23747  21.074   4.646  12.417
58763W        W23748  18.168  20.265   2.487
58764W        W23749  44.827  16.788   1.451
58765W        W23750  40.313  30.810   2.683
58766W        W23751   6.842  37.964   0.962
58767W        W23752  13.213  12.917   0.181
58768W        W23753  22.515  28.193  11.426
58769W        W23754  44.210  41.643  10.526
58770W        W23755  13.882   4.875  14.785
58771W        W23756  28.008  14.454  13.499
58772W        W23757  18.293  30.896   0.980
58773W        W23758   2.163   7.964   4.600
58774W        W23759  21.569  24.075  11.147
58775W        W23760   2.815   7.615  11.250
58776W        W23761  38.941  38.065  13.990
58777W        W23762  44.691  19.206  12.036
58778W        W23763   7.847   7.679   3.107
58779W        W23764  37.486   6.976  10.159
58780W        W23765  22.786  22.018   1.139
58781W        W23766  15.774   3.540   5.566
58782W        W23767   7.912  18.970   4.542
58783W        W23768  38.856  38.564   2.393
58784W        W23769  30.041  18.675   2.641
58785W        W23770   0.457   7.906  11.534
58786W        W23771  39.298  19.206  14.095
58787W        W23772   7.153   2.789  13.811
58788W        W23773   8.704  28.926  13.882
58789W        W23774  29.261  31.005   4.396
58790W        W23775  40.422  20.774  13.310
58791W        W23776  23.435  24.730   4.543
58792W        W23777  26.507  29.607   2.796
58793W        W23778  22.037  38.935  12.571
58794W        W23779  23.002  20.498   4.323
58795W        W23780   0.255  44.457   0.721
58796W        W23781  41.987  21.726   1.168
58797W        W23782  14.803  24.591  13.186
58798W        W23783  24.070  33.656   4.495
58799W        W23784  10.700  30.263   2.686
58800W        W23785  12.645  37.137   0.995
58801W        W23786  33.644   2.811  13.405
58802W        W23787  27.435  25.207  13.538
58803W        W23788  43.477  17.639   1.698
58804W        W23789  18.120  15.559   2.689
58805W        W23790  42.539  39.474  13.442
58806W        W23791   0.732   9.345  10.447
58807W        W23792  40.436  38.779  10.686
58808W        W23793   8.145  25.682  14.789
58809W        W23794  34.119  21.628  12.106
58810W        W23795   1.309  36.265  11.852
58811W        W23796   2.888  24.317   4.932
58812W        W23797  29.095   6.979   4.329
58813W        W23798  35.408  23.233  13.783
58814W        W23799  21.683   3.904  13.129
58815W        W23800  19.085   6.397  14.508
58816W        W23801  42.698  27.100  11.551
58817W        W23802  27.594  14.762  14.225
58818W        W23803  26.051  44.281  12.981
58819W        W23804  21.581   6.204   1.866
58820W        W23805  18.227  15.291  12.406
58821W        W23806  41.940  44.856  11.362
58822W        W23807  35.411  37.526   0.357
58823W        W23808  26.702  36.099   0.145
58824W        W23809   0.846   6.199   2.385
58825W        W23810  24.261   5.373  12.988
58826W        W23811  15.766  18.606   2.641
58827W        W23812  29.498  35.533  13.759
58828W        W23813  12.171  38.775  13.544
58829W        W23814  24.983   0.873  10.770
58830W        W23815   5.656  20.508   1.894
58831W        W23816  42.226   5.284   3.429
58832W        W23817   3.945  43.591   0.383
58833W        W23818  36.023  19.674  14.731
58834W        W23819  14.896  36.836  11.235
58835W        W23820  34.320  37.711  13.646
58836W        W23821   9.747  25.468  13.697
58837W        W23822   2.130  35.237  13.844
58838W        W23823   2.018  16.490   0.770
58839W        W23824  37.864   6.714  11.441
58840W        W23825   3.445  13.268  13.451
58841W        W23826  12.329   7.337  14.252
58842W        W23827  19.407  40.972  12.652
58843W        W23828  23.648  33.543  11.313
58844W        W23829   0.330  29.723   0.532
58845W        W23830  27.411   4.345   4.177
58846W        W23831  13.802  31.646  13.518
58847W        W23832  14.259  27.487   0.394
58848W        W23833  18.246  16.844   0.578
58849W        W23834  32.879  38.005  12.466
58850W        W23835  24.229  20.348   0.253
58851W        W23836  40.851  39.457  10.288
58852W        W23837  25.553  16.885   5.026
58853W        W23838  44.870  26.550   9.684
58854W        W23839  33.112  43.326  10.846
58855W        W23840   6.026   6.850   3.193
58856W        W23841  21.968   0.132  11.279
58857W        W23842  12.709  27.254   2.574
58858W        W23843   0.338   9.771   3.964
58859W        W23844  25.219   9.160   1.446
58860W        W23845  43.663   8.059  13.874
58861W        W23846  37.129  40.280   0.757
58862W        W23847  28.112  32.415  11.666
58863W        W23848   9.700  28.557  11.567
58864W        W23849   8.254  25.497  13.116
58865W        W23850  25.887   3.372  12.041
58866W        W23851  31.209   2.405  10.924
58867W        W23852  42.501  29.183  14.224
58868W        W23853  40.294   7.499  14.925
58869W        W23854   8.213  12.981  11.371
58870W        W23855   3.139  14.121   3.833
58871W        W23856   1.278  32.751  12.575
58872W        W23857   1.280   5.016  13.702
58873W        W23858  18.519  44.005  14.958
58874W        W23859   7.776   1.142   4.103
58875W        W23860  27.115  19.600  12.010
58876W        W23861  16.760   2.340  12.018
58877W        W23862  25.828   8.980  11.135
58878W        W23863  15.695  33.604   0.958
58879W        W23864  43.414  26.725  13.464
58880W        W23865   9.260   8.757  10.708
58881W        W23866   8.933  43.377   0.743
58882W        W23867   1.803  33.519  14.486
58883W        W23868  28.962  28.194  13.407
58884W        W23869  12.187  30.150  12.003
58885W        W23870  18.461  15.922   1.799
58886W        W23871  25.223   5.753   1.036
58887W        W23872  11.140  18.348  11.015
58888W        W23873   0.935  22.536   4.768
58889W        W23874  13.282  11.218  10.513
58890W        W23875  18.527   1.985  11.915
58891W        W23876   9.733  28.773   1.371
58892W        W23877  28.902  35.394   0.438
58893W        W23878  11.437  39.517   2.238
58894W        W23879  22.828  14.857   1.016
58895W        W23880  17.593  43.217  10.590
58896W        W23881  15.659  43.163  11.065
58897W        W23882   2.689  20.250   2.245
58898W        W23883   9.271  28.466   1.710
58899W        W23884   7.638  12.831   4.147
58900W        W23885  14.869   0.704   1.887
58901W        W23886  26.109  33.534   4.688
58902W        W23887  10.663  34.990   2.538
58903W        W23888  25.996  33.051  10.461
58904W        W23889  42.484  30.594  13.073
58905W        W23890   6.476   4.356   2.900
58906W        W23891  12.188  42.321   1.244
58907W        W23892  41.057  15.907   1.769
58908W        W23893   6.601  43.258  13.370
58909W        W23894  15.102  35.888  12.155
58910W        W23895  37.640   4.783  13.519
58911W        W23896  42.939  43.709  11.129
58912W        W23897  25.790  29.701   1.263
58913W        W23898   4.868  39.540  13.428
58914W        W23899  33.955  13.343  14.464
58915W        W23900  25.016   2.402  10.240
58916W        W23901  11.761  44.739  14.903
58917W        W23902  25.753  29.969   0.294
58918W        W23903  39.322  35.901   1.791
58919W        W23904  11.106  19.192  11.006
58920W        W23905  36.547  12.863  11.722
58921W        W23906  16.104  22.065  12.938
58922W        W23907  26.320   7.239  13.358
58923W        W23908   4.731  11.502   2.335
58924W        W23909  30.464  12.680  11.383
58925W        W23910   6.826  24.675   2.000
58926W        W23911  22.741  31.877  13.935
58927W        W23912   4.968  19.257   2.711
58928W        W23913  21.191  40.388  12.425
58929W        W23914  17.348  35.860   1.932
58930W        W23915  21.962   6.160  12.407
58931W        W23916  10.962  15.249  14.601
58932W        W23917  29.696  25.910   1.587
58933W        W23918   1.832  20.008  12.430
58934W        W23919   1.943  39.380   2.758
58935W        W23920  31.926  36.764   4.773
58936W        W23921  33.378  16.908   0.338
58937W        W23922   6.282  36.520  13.021
58938W        W23923  35.555   6.439   3.643
58939W        W23924  31.525  23.058  14.855
58940W        W23925  36.536  24.518   1.292
58941W        W23926   1.469  24.012  10.924
58942W        W23927   2.007   3.858   3.093
58943W        W23928  26.251  28.279   4.041
58944W        W23929  25.601  27.140  11.609
58945W        W23930   2.434  16.059  13.771
58946W        W23931  26.572  35.952   4.677
58947W        W23932  12.638   1.341  11.619
58948W        W23933  21.691  41.523  12.388
58949W        W23934  15.573  37.866   3.246
58950W        W23935  16.027  10.194   3.270
58951W        W23936  18.471   7.411   2.100
58952W        W23937  30.960  31.652  13.574
58953W        W23938   5.838  22.912   1.526
58954W        W23939  20.994  43.691  10.376
58955W        W23940  43.407  43.170  11.638
58956W        W23941  44.569  13.092   3.942
58957W        W23942  29.152  23.521   2.361
58958W        W23943  27.710  37.057  12.921
58959W        W23944   0.198  22.138   0.428
58960W        W23945  40.334  12.849  11.457
58961W        W23946  25.292  19.184   3.082
58962W        W23947   0.975  26.490   1.790
58963W        W23948  34.180  40.984   4.810
58964W        W23949  36.347  24.202   2.402
58965W        W23950  43.372  37.951  11.170
58966W        W23951  25.260   8.207   1.270
58967W        W23952   1.782  23.614   4.699
58968W        W23953   3.303   1.002   1.299
58969W        W23954   0.890  38.002   4.884
58970W        W23955  26.507  44.443  10.685
58971W        W23956   0.735   9.884   1.061
58972W        W23957  13.866  24.788   2.736
58973W        W23958  19.577  13.252  11.451
58974W        W23959  26.768  22.004   2.592
58975W        W23960   6.840  27.512   0.789
58976W        W23961   1.314  33.804  13.047
58977W        W23962  20.463  26.120   2.370
58978W        W23963   3.293  14.741   2.900
58979W        W23964  21.788  43.948  14.561
58980W        W23965  40.990  22.428  14.847
58981W        W23966  15.614  30.513  13.887
58982W        W23967  15.736  20.947  11.692
58983W        W23968   2.790  20.768  12.860
58984W        W23969  31.349   4.877  14.469
58985W        W23970  32.185  30.218   0.389
58986W        W23971  19.281  21.356   0.718
58987W        W23972  36.960  21.727   1.828
58988W        W23973  34.094   6.340   5.168
58989W        W23974  18.139  25.532  11.929
58990W        W23975  25.748  40.794  10.437
58991W        W23976  37.272  22.079   4.280
58992W        W23977  16.441   4.025  12.424
58993W        W23978   6.362  18.670  11.960
58994W        W23979  11.914  25.885  11.532
58995W        W23980  11.487  16.203  12.468
58996W        W23981  27.432  44.864   4.711
58997W        W23982  24.554  22.826  11.273
58998W        W23983  34.913  12.816  14.412
58999W        W23984  28.654  23.658  12.049
59000W        W23985   2.849  18.344  11.277
59001W        W23986   8.324  23.418  14.192
59002W        W23987   5.633   0.149   4.624
59003W        W23988  33.868  25.646   0.632
59004W        W23989  44.232  21.666   4.073
59005W        W23990  36.066  11.055  14.057
59006W        W23991  27.176  26.781  12.882
59007W        W23992   6.204  41.903   1.331
59008W        W23993  39.103  44.492  14.345
59009W        W23994  16.182  30.066  10.424
59010W        W23995  11.383  10.955   2.213
59011W        W23996  31.437  35.421  10.695
59012W        W23997  26.485  17.699  12.210
59013W        W23998  33.975  29.005   3.293
59014W        W23999  26.631  43.831  10.705
59015W        W24000  35.050  30.002   3.618
59016W        W24001  21.324  25.125  12.659
59017W        W24002   9.027  34.119  14.442
59018W        W24003  38.764  39.655  10.166
59019W        W24004  31.032  24.808   2.178
59020W        W24005   1.296   7.381   4.314
59021W        W24006  44.362  20.090   3.339
59022W        W24007   5.690  44.916   0.871
59023W        W24008  13.105  27.447  12.471
59024W        W24009   3.884  39.903   1.285
59025W        W24010  25.046  36.022  12.583
59026W        W24011  27.505  29.900   2.332
59027W        W24012  30.184  28.076   2.713
59028W        W24013  34.090   0.236  13.336
59029W        W24014   6.349  43.743   3.845
59030W        W24015  16.078  43.015   4.637
59031W        W24016  37.795  15.753  13.047
59032W        W24017  37.509  11.888  12.137
59033W        W24018  24.533  41.414  12.985
59034W        W24019   1.795  32.418   2.145
59035W        W24020   1.489  44.052   0.855
59036W        W24021  40.200  24.235   3.022
59037W        W24022   0.523  25.311  14.815
59038W        W24023  15.346  38.833  14.953
59039W        W24024  11.675  17.578   0.126
59040W        W24025  33.279  20.282  12.084
59041W        W24026  22.913   9.480   3.374
59042W        W24027  31.939  25.932   0.472
59043W        W24028  33.612   7.798   1.885
59044W        W24029  35.885  14.005  13.043
59045W        W24030  29.649  32.360   1.527
59046W        W24031  40.501  25.720  14.446
59047W        W24032  21.928  21.143   2.953
59048W        W24033  27.053   8.901   0.441
59049W        W24034  31.603  22.569   5.253
59050W        W24035   6.299  35.451   4.880
59051W        W24036   9.619  22.745   1.797
59052W        W24037  19.292  43.197   4.516
59053W        W24038  17.138  27.019   9.921
59054W        W24039  28.767  35.368   4.259
59055W        W24040   3.889  22.971   0.870
59056W        W24041  14.998   9.385  12.640
59057W        W24042  39.134  18.044   2.972
59058W        W24043  41.555  28.724  12.801
59059W        W24044  30.390  42.049  11.638
59060W        W24045   5.493  20.954   5.070
59061W        W24046  35.097   7.900  14.330
59062W        W24047  10.121  35.822   0.449
59063W        W24048   6.236  41.851  13.288
59064W        W24049  42.201  14.140  12.008
59065W        W24050  40.064  12.339   1.831
59066W        W24051  42.736   8.812  14.259
59067W        W24052   9.838  18.516   1.273
59068W        W24053   8.737  10.888   1.469
59069W        W24054  25.485  41.415   4.665
59070W        W24055  40.378   0.840   3.695
59071W        W24056  25.690  19.082   2.749
59072W        W24057  11.190  40.500  11.948
59073W        W24058  43.589   6.691  13.790
59074W        W24059  40.472   2.513   0.756
59075W        W24060  34.507  10.233   0.252
59076W        W24061   7.538   4.579  10.307
59077W        W24062  23.940  14.575   3.654
59078W        W24063  41.448  20.686  10.931
59079W        W24064  34.127  20.037   4.634
59080W        W24065  12.896   4.788   2.123
59081W        W24066  42.908  41.052   3.756
59082W        W24067  18.570  42.478  12.209
59083W        W24068   3.963  12.287  11.975
59084W        W24069  16.280  13.371  11.741
59085W        W24070  28.245  15.867   2.390
59086W        W24071  35.508  21.735  13.548
59087W        W24072  34.401   3.388  14.359
59088W        W24073  26.145  44.785  11.630
59089W        W24074  34.507  36.624  10.686
59090W        W24075  17.719  23.745   1.415
59091W        W24076  43.518  24.738  11.835
59092W        W24077   7.789  28.901  10.557
59093W        W24078  12.307  25.357   0.938
59094W        W24079  14.650  41.049   3.617
59095W        W24080  27.584   2.981   1.316
59096W        W24081  38.481  28.314  14.409
59097W        W24082  26.263  36.894   0.322
59098W        W24083  36.464  17.273   0.731
59099W        W24084  11.383   1.889   2.688
59100W        W24085  31.526   5.476   1.472
59101W        W24086   2.990   1.370  11.594
59102W        W24087  31.371  18.970   0.949
59103W        W24088  34.626  14.736   2.238
59104W        W24089  31.005  25.636  14.571
59105W        W24090  44.466  40.369  11.124
59106W        W24091  36.648  22.216   1.405
59107W        W24092  18.121  11.739   0.057
59108W        W24093  26.505  11.032   4.034
59109W        W24094  39.329   5.063   3.124
59110W        W24095  34.672  14.505  12.990
59111W        W24096  26.940   3.404  12.041
59112W        W24097  19.104   6.722   1.406
59113W        W24098   2.360   3.732   1.796
59114W        W24099  29.489  17.764  11.096
59115W        W24100  31.448  33.395   4.353
59116W        W24101   5.443   2.495  10.757
59117W        W24102   7.137  24.243   2.301
59118W        W24103   5.971  24.508  13.516
59119W        W24104  39.167  26.512  14.473
59120W        W24105  24.678  29.128  14.967
59121W        W24106  14.282  35.524  13.120
59122W        W24107  16.530  14.189  14.109
59123W        W24108   0.943  24.919   1.905
59124W        W24109  26.927  16.914   2.369
59125W        W24110  21.815   9.867  14.292
59126W        W24111  42.832  35.502   1.798
59127W        W24112  41.495  18.826  10.819
59128W        W24113   0.945   9.497   0.781
59129W        W24114  34.195   8.090   4.498
59130W        W24115  40.278  22.448   1.920
59131W        W24116  35.345  18.573  14.172
59132W        W24117  41.557  43.233  11.696
59133W        W24118  35.146   4.506   0.329
59134W        W24119  32.410  37.937  13.427
59135W        W24120  16.173  14.583  12.475
59136W        W24121  43.419  40.828   4.436
59137W        W24122  37.006   8.609   5.034
59138W        W24123  27.463  27.987  11.618
59139W        W24124   9.353  24.739  13.370
59140W        W24125  35.568  23.804   0.701
59141W        W24126  31.023  29.977   4.582
59142W        W24127  19.004  27.634   3.642
59143W        W24128  17.624  22.091   4.206
59144W        W24129  39.726  43.387   4.559
59145W        W24130  32.491  34.884   1.897
59146W        W24131  40.018  33.986  13.441
59147W        W24132  13.666  32.673   1.276
59148W        W24133   5.978  14.122  12.964
59149W        W24134  29.473  28.045   4.415
59150W        W24135  18.175   5.422   2.400
59151W        W24136  30.110  10.352   3.572
59152W        W24137   5.193  18.167  12.568
59153W        W24138   6.769  25.125   0.845
59154W        W24139  11.609   8.821  14.890
59155W        W24140  39.402  43.530  14.533
59156W        W24141   6.654  25.161  10.629
59157W        W24142  28.671   1.389   1.343
59158W        W24143  33.455  38.447   3.178
59159W        W24144  22.665  37.293  12.876
59160W        W24145  26.143  25.454  14.882
59161W        W24146  37.806  20.292   1.678
59162W        W24147  38.419  36.558  11.147
59163W        W24148   8.561   9.392   2.489
59164W        W24149  11.013  34.092  12.098
59165W        W24150  23.736  21.286   4.033
59166W        W24151  24.100  18.585   2.077
59167W        W24152  33.600  39.957  11.392
59168W        W24153   3.599  37.078  10.869
59169W        W24154  10.331   4.801  12.490
59170W        W24155  17.033   8.810  13.490
59171W        W24156  17.014  33.101   3.284
59172W        W24157  24.482  28.125  13.870
59173W        W24158  10.923  24.605   3.596
59174W        W24159  41.874   0.567   2.151
59175W        W24160  35.058  24.273   4.323
59176W        W24161   2.028  10.277   1.057
59177W        W24162   9.757  36.295  14.786
59178W        W24163   7.194  27.417  13.923
59179W        W24164  12.110  37.878   2.244
59180W        W24165   8.791   1.461   2.534
59181W        W24166  35.050  18.769   3.076
59182W        W24167  44.819  30.145  14.320
59183W        W24168   2.123  23.918   0.357
59184W        W24169  39.669   2.412  12.002
59185W        W24170  17.777  18.657  10.978
59186W        W24171   6.928  25.620   0.647
59187W        W24172  43.407  39.644   0.122
59188W        W24173  28.591  31.745   0.909
59189W        W24174  14.132  33.330   1.834
59190W        W24175  13.668  29.964   1.537
59191W        W24176  13.584  16.773   1.248
59192W        W24177  18.637  32.569  12.081
59193W        W24178   8.088   5.212  12.909
59194W        W24179  34.797  41.061  12.429
59195W        W24180  33.839  40.913  13.422
59196W        W24181  40.257   1.469   4.091
59197W        W24182  18.083  32.904  12.808
59198W        W24183  25.339  22.233  13.681
59199W        W24184  22.344  35.144  14.264
59200W        W24185   9.885  30.569  12.785
59201W        W24186  16.784  16.616  13.619
59202W        W24187  12.701  17.478  12.050
59203W        W24188  32.279  39.607   0.785
59204W        W24189   3.440  29.421   0.807
59205W        W24190  23.788  41.925  13.408
59206W        W24191  13.845  22.593  10.859
59207W        W24192  38.043  42.903  13.011
59208W        W24193  27.053  30.159   2.460
59209W        W24194  16.296  39.980  12.366
59210W        W24195  41.514  11.116  10.738
59211W        W24196   5.247  24.236   2.463
59212W        W24197  21.982  37.020  13.907
59213W        W24198  29.713   8.348  13.836
59214W        W24199  25.151  26.547  13.854
59215W        W24200   7.648  38.834   0.326
59216W        W24201  35.377  23.509   1.866
59217W        W24202  11.190  28.954  11.599
59218W        W24203  42.505  21.814   1.210
59219W        W24204  32.518  35.462  13.558
59220W        W24205  11.145  39.006  14.010
59221W        W24206  21.700   6.106   9.826
59222W        W24207  18.039  15.652   0.868
59223W        W24208  16.099  41.005  10.479
59224W        W24209  27.069   8.567   2.304
59225W        W24210  24.098  44.729   4.478
59226W        W24211  40.299   4.846  12.858
59227W        W24212  30.626   4.433   4.820
59228W        W24213   6.198  41.964   4.006
59229W        W24214   9.159  18.748  12.521
59230W        W24215  20.669   7.301  12.111
59231W        W24216  19.171  12.218   3.899
59232W        W24217  34.294  31.157   0.301
59233W        W24218  29.639  42.139   2.757
59234W        W24219  15.241  43.383  10.464
59235W        W24220  10.137  22.358   3.133
59236W        W24221  28.082  27.983   0.893
59237W        W24222   1.480  29.574   0.981
59238W        W24223  19.778  35.553  13.866
59239W        W24224  17.103  23.184  11.355
59240W        W24225  42.742  23.197  10.706
59241W        W24226  43.946  43.424   3.267
59242W        W24227   6.668   0.411   0.092
59243W        W24228  27.277  12.856  11.664
59244W        W24229   1.424  16.250   3.792
59245W        W24230   1.909  20.152   5.121
59246W        W24231   3.002  43.730   1.182
59247W        W24232  31.279  34.784   4.144
59248W        W24233  19.823  18.060   3.194
59249W        W24234  35.888  26.473   0.724
59250W        W24235  18.691  34.800   3.837
59251W        W24236  38.291  10.727  12.048
59252W        W24237   4.145  10.894  12.005
59253W        W24238  27.563  24.140  11.407
59254W        W24239  36.134   3.394  11.649
59255W        W24240  14.577  23.720  10.751
59256W        W24241   1.864   6.877   3.993
59257W        W24242  10.645  12.544   2.701
59258W        W24243   4.455  18.329  13.040
59259W        W24244  40.287  26.163  12.564
59260W        W24245   6.241  41.435   2.083
59261W        W24246   0.814  32.360  13.873
59262W        W24247  44.834  40.011  10.883
59263W        W24248  36.058   8.438   2.554
59264W        W24249   8.613  26.955  10.758
59265W        W24250  14.302  15.489   2.768
59266W        W24251   6.212   1.430   1.724
59267W        W24252   3.699  31.589   0.264
59268W        W24253  17.624  41.492  12.385
59269W        W24254  23.146   8.815   1.322
59270W        W24255  11.876  25.972  10.645
59271W        W24256  38.785  27.958   3.227
59272W        W24257   6.158  13.107  13.072
59273W        W24258  12.423   6.106  11.678
59274W        W24259  12.649  17.110   2.037
59275W        W24260  11.996  15.620   5.176
59276W        W24261   7.020  33.043  12.347
59277W        W24262  25.320  44.438  11.571
59278W        W24263  28.269   9.447   4.332
59279W        W24264  26.233  34.534  14.422
59280W        W24265  20.622  34.531  10.661
59281W        W24266   6.184  13.892  12.131
59282W        W24267  37.310  41.010  13.554
59283W        W24268  30.819  34.364   4.074
59284W        W24269  41.911  29.572  12.401
59285W        W24270   7.855  29.505  14.832
59286W        W24271   9.391  30.371   5.145
59287W        W24272  41.310  25.950   1.063
59288W        W24273   1.011  37.909  12.493
59289W        W24274  44.303   2.274   1.752
59290W        W24275  20.774  14.088   4.898
59291W        W24276  33.722   7.967  14.316
59292W        W24277  40.304  25.000   4.170
59293W        W24278   9.434   9.621   0.474
59294W        W24279   3.897   5.421   0.796
59295W        W24280  36.530  27.407  14.465
59296W        W24281  12.655  28.499  12.103
59297W        W24282  26.283  41.749   4.020
59298W        W24283  31.910  38.768   0.637
59299W        W24284  34.916  31.830   3.395
59300W        W24285   4.810  42.840  13.881
59301W        W24286  27.201   4.637  12.467
59302W        W24287  37.385  10.975   0.924
59303W        W24288  35.615   4.642   3.142
59304W        W24289  22.387  13.305   0.055
59305W        W24290  15.375  44.040   4.960
59306W        W24291  30.866  36.008  10.276
59307W        W24292   7.777  16.508   2.897
59308W        W24293  18.542  16.696  11.074
59309W        W24294  13.916   5.976   4.726
59310W        W24295  27.974  32.317   1.484
59311W        W24296   5.598  10.473   1.945
59312W        W24297   2.998  43.429  13.956
59313W        W24298  27.502  20.299  13.126
59314W        W24299  26.221  40.088   3.841
59315W        W24300   3.335  27.361   1.843
59316W        W24301  42.428  24.010   4.354
59317W        W24302   9.726   6.165  11.624
59318W        W24303  13.142   5.899   0.448
59319W        W24304  19.505  24.681  10.377
59320W        W24305  40.440  32.821   3.605
59321W        W24306  24.392   6.513   3.202
59322W        W24307  36.758  35.115   1.414
59323W        W24308  40.272  43.920  12.467
59324W        W24309  23.663  30.595   1.783
59325W        W24310  13.053  24.658   3.173
59326W        W24311  10.108  17.072   0.295
59327W        W24312   1.110  24.882  14.373
59328W        W24313  19.143  30.881   0.499
59329W        W24314  40.049  20.654  10.265
59330W        W24315  33.349   7.353   4.049
59331W        W24316  18.337   3.842   1.954
59332W        W24317  20.222  33.840   3.584
59333W        W24318  30.971  23.493   1.627
59334W        W24319  24.123  37.819   3.168
59335W        W24320   0.851   9.450   1.388
59336W        W24321  16.236  24.655  12.072
59337W        W24322  37.444   1.775  12.637
59338W        W24323  32.940  37.290  12.144
59339W        W24324  24.406   1.691  13.239
59340W        W24325  30.893  19.733   1.181
59341W        W24326  37.997  32.071  13.941
59342W        W24327  43.855  16.252   3.170
59343W        W24328  42.417  22.932  12.609
59344W        W24329  25.989  42.575   4.375
59345W        W24330  41.016  22.605  11.196
59346W        W24331  36.509  39.474   1.941
59347W        W24332   3.503  16.899   4.169
59348W        W24333  35.865  15.247   2.894
59349W        W24334  16.580  44.294   2.278
59350W        W24335  27.244  10.851  14.060
59351W        W24336  25.133  17.558   0.046
59352W        W24337   3.001  34.357  11.578
59353W        W24338  42.396  17.218   1.420
59354W        W24339  35.831  32.033   3.157
59355W        W24340  32.960  41.466   0.032
59356W        W24341  44.865  44.030  13.476
59357W        W24342  35.109   0.427   0.053
59358W        W24343   5.241  42.909   4.161
59359W        W24344   7.166   4.867  11.123
59360W        W24345  38.008  43.902   2.156
59361W        W24346  30.379  28.548   2.851
59362W        W24347  39.848  41.753   2.405
59363W        W24348   0.771  25.682  13.089
59364W        W24349   1.765   5.113   2.876
59365W        W24350   3.476  29.011  12.075
59366W        W24351  44.547  44.937  12.672
59367W        W24352  40.789   6.561  12.928
59368W        W24353  17.626  20.647   3.096
59369W        W24354  37.069  41.835   3.217
59370W        W24355   6.846  42.597   0.362
59371W        W24356  34.188  33.012   4.214
59372W        W24357  16.546   4.199  13.435
59373W        W24358   8.799  15.596   2.229
59374W        W24359   6.436  13.319  13.470
59375W        W24360   2.284   7.014  13.395
59376W        W24361  16.882  19.517  10.395
59377W        W24362  38.441  27.800   0.804
59378W        W24363   7.710  34.272   3.336
59379W        W24364  15.026  26.735  13.437
59380W        W24365  29.905  14.035   1.355
59381W        W24366  18.745  21.631  13.894
59382W        W24367  31.842  16.885  10.711
59383W        W24368  19.599  14.600   3.076
59384W        W24369   6.935  35.583   3.710
59385W        W24370  12.072  26.346  13.302
59386W        W24371   5.798  31.081   0.474
59387W        W24372  38.948  12.045  10.779
59388W        W24373  36.573  32.094   0.307
59389W        W24374  11.836  40.472  14.722
59390W        W24375  11.087  19.957   0.900
59391W        W24376  18.555  24.577   4.742
59392W        W24377  20.681  16.641  12.110
59393W        W24378  23.071  44.227  14.436
59394W        W24379   2.155  36.875  12.930
59395W        W24380   4.303  12.126   2.606
59396W        W24381   4.362  42.403   1.776
59397W        W24382   2.298   1.984   3.239
59398W        W24383  18.050  34.931   1.327
59399W        W24384  44.525  13.632   1.807
59400W        W24385   5.308  36.639  10.923
59401W        W24386  34.892  27.870   4.627
59402W        W24387  37.838   0.658  11.474
59403W        W24388   6.329  33.381   1.729
59404W        W24389  30.166  18.094  14.847
59405W        W24390   4.256  17.057  14.322
59406W        W24391   3.337  21.383   1.687
59407W        W24392  25.612  13.364  13.507
59408W        W24393  14.860  24.062   4.067
59409W        W24394  31.695  36.308  13.351
59410W        W24395   9.541  20.257   2.673
59411W        W24396  33.510  33.355  11.416
59412W        W24397  42.991   9.202  14.539
59413W        W24398   7.454  32.897   3.609
59414W        W24399   7.332  44.229  14.917
59415W        W24400  12.818  38.390   2.482
59416W        W24401  24.967  24.750   2.769
59417W        W24402   5.769  41.902   0.004
59418W        W24403  13.144   6.614  11.977
59419W        W24404  32.646  21.171  12.534
59420W        W24405  39.773  20.583   4.169
59421W        W24406  25.612   1.437  12.301
59422W        W24407  21.037  42.698   3.670
59423W        W24408  16.793  16.797  14.880
59424W        W24409  40.573   4.407  12.905
59425W        W24410  24.462   4.832  10.097
59426W        W24411   7.592  40.805   1.970
59427W        W24412  41.840  36.065  10.105
59428W        W24413   3.701   6.424   4.127
59429W        W24414  22.195  11.944  14.939
59430W        W24415  26.744  23.994   1.801
59431W        W24416  32.410   9.807  13.525
59432W        W24417  39.691  42.074   4.345
59433W        W24418  39.074   4.208  10.338
59434W        W24419  24.017  25.573   2.398
59435W        W24420  32.457   4.767   3.240
59436W        W24421   1.385   6.888   1.142
59437W        W24422  35.699  15.138  11.625
59438W        W24423  20.957  14.658   3.431
59439W        W24424  40.793  44.327   0.598
59440W        W24425  26.041  41.847   3.129
59441W        W24426  33.849   9.850  14.052
59442W        W24427  16.850  31.912   0.790
59443W        W24428  43.185  10.193  12.010
59444W        W24429   7.681  26.515  13.886
59445W        W24430  15.725  14.853  11.656
59446W        W24431  21.052   1.510  12.994
59447W        W24432  44.263  34.892   4.564
59448W        W24433  24.217  39.222   1.428
59449W        W24434  12.836  30.686   4.264
59450W        W24435  18.774  34.166  10.980
59451W        W24436  14.962   1.289   2.965
59452W        W24437  18.023   9.715   2.171
59453W        W24438   1.393  29.614  10.887
59454W        W24439  29.964   0.905   4.622
59455W        W24440  21.880  27.155   4.769
59456W        W24441   9.764  16.521   5.071
59457W        W24442  13.773  31.134  13.403
59458W        W24443  39.707  11.533  10.641
59459W        W24444  14.199  26.098   3.259
59460W        W24445   4.461  25.530  11.747
59461W        W24446  15.289  32.611  11.343
59462W        W24447  14.582  27.057  11.996
59463W        W24448  39.614   1.832  14.022
59464W        W24449  39.126  33.853  13.353
59465W        W24450  15.585  44.126   2.587
59466W        W24451  38.177  29.420  12.925
59467W        W24452  40.544  12.630   3.883
59468W        W24453  32.977  15.187   4.585
59469W        W24454  42.055  24.118  11.723
59470W        W24455  17.394  17.096   2.957
59471W        W24456  12.028  13.182   4.048
59472W        W24457  39.228  15.181   0.893
59473W        W24458  16.014  20.663   5.179
59474W        W24459  30.113  43.594   2.718
59475W        W24460   4.285   9.175  12.045
59476W        W24461  20.145  37.849  10.770
59477W        W24462  18.156   6.956   0.395
59478W        W24463  17.316  32.557   3.247
59479W        W24464  36.777  41.867   0.333
59480W        W24465   3.428  17.563   4.703
59481W        W24466  13.286   3.963  13.957
59482W        W24467  17.105  44.379  12.178
59483W        W24468   7.675  36.829   1.459
59484W        W24469  42.245  18.182   2.295
59485W        W24470  37.466  17.066   3.325
59486W        W24471   3.799   8.752   3.675
59487W        W24472  23.505  27.114   2.367
59488W        W24473  36.655  13.004   0.738
59489W        W24474   1.004  16.261   0.868
59490W        W24475  23.929  22.803  13.356
59491W        W24476  36.464  24.037  13.470
59492W        W24477  37.418  11.166   1.402
59493W        W24478   6.586  29.659  11.014
59494W        W24479  35.566  27.614  10.756
59495W        W24480  18.627   4.080   4.026
59496W        W24481  12.380  34.245  12.603
59497W        W24482  21.922  17.089  12.829
59498W        W24483  12.353  19.697  11.015
59499W        W24484  25.890  19.039  13.103
59500W        W24485  31.785  40.866  11.672
59501W        W24486  28.231  25.956  12.379
59502W        W24487   7.298  34.856  13.452
59503W        W24488  15.829  16.758   2.218
59504W        W24489   6.479  26.665   4.250
59505W        W24490  23.177  27.750  10.932
59506W        W24491   1.950   7.196   4.924
59507W        W24492  21.601   4.916  11.114
59508W        W24493  25.017  19.539   4.681
59509W        W24494  29.596  15.401   4.290
59510W        W24495  34.435  37.781  12.511
59511W        W24496  32.867  15.402   2.775
59512W        W24497  25.517  38.421   1.396
59513W        W24498  12.148  29.197   1.708
59514W        W24499  20.149  23.258  12.935
59515W        W24500  14.162  17.735   2.727
59516W        W24501  12.610  41.819  13.901
59517W        W24502   7.547  12.932   4.689
59518W        W24503  34.394  41.490   2.309
59519W        W24504  24.646  36.041  11.437
59520W        W24505   2.703  33.397   9.810
59521W        W24506  28.130  16.056  10.789
59522W        W24507   1.813   4.076   4.037
59523W        W24508  19.337  29.111  11.544
59524W        W24509  30.898  37.438  13.995
59525W        W24510  12.195  12.097   0.987
59526W        W24511  20.435  30.999  10.783
59527W        W24512  16.353  24.544  13.463
59528W        W24513   7.847  18.255   2.375
59529W        W24514   0.412   9.173   1.471
59530W        W24515   9.837  11.898  14.398
59531W        W24516  25.334   5.661  12.872
59532W        W24517  30.100  31.232  12.938
59533W        W24518  24.426   5.220  11.996
59534W        W24519  22.133   1.527   3.708
59535W        W24520   2.343   2.321  11.593
59536W        W24521  26.761  24.839  14.836
59537W        W24522  39.622  38.383   1.728
59538W        W24523  28.070  44.801   0.172
59539W        W24524   5.936  25.784  13.423
59540W        W24525  17.576  23.182   3.301
59541W        W24526  41.362  36.890  11.029
59542W        W24527   6.825  21.573   3.820
59543W        W24528  20.916   4.808  12.906
59544W        W24529  28.493  13.701  10.688
59545W        W24530  29.972  25.195   0.056
59546W        W24531  28.598   0.338  11.462
59547W        W24532  25.557   7.331  14.931
59548W        W24533  25.713  20.141  14.916
59549W        W24534  14.318   1.954  12.369
59550W        W24535   9.850  38.192  12.024
59551W        W24536  31.069  22.952  11.006
59552W        W24537  19.818  44.413  12.245
59553W        W24538  30.075  28.771   3.222
59554W        W24539   2.643  26.928  10.228
59555W        W24540  41.494  23.072   0.906
59556W        W24541   5.172  25.127   3.816
59557W        W24542   1.640  12.104  14.184
59558W        W24543  23.022  10.618   2.682
59559W        W24544  42.765  25.578  13.218
59560W        W24545  19.555  12.171   3.086
59561W        W24546  23.759   5.722   4.058
59562W        W24547  35.028  10.820   4.630
59563W        W24548   3.777  42.763   0.760
59564W        W24549  34.397  11.733   4.560
59565W        W24550  12.393   7.637  13.805
59566W        W24551  40.497  12.137  14.824
59567W        W24552   1.854  29.452   0.602
59568W        W24553  13.936  40.824   0.469
59569W        W24554   5.869  18.081  12.010
59570W        W24555  24.734  20.342   0.103
59571W        W24556   4.735  22.106   4.266
59572W        W24557  38.893   0.463  10.700
59573W        W24558  44.389  16.612   1.141
59574W        W24559   0.940   1.180  13.847
59575W        W24560   2.320  37.253  14.319
59576W        W24561  41.600  13.219   2.681
59577W        W24562  38.804  20.688   0.229
59578W        W24563   3.776  18.025   1.317
59579W        W24564   3.211  38.019  12.902
59580W        W24565  40.585  33.020  14.055
59581W        W24566  32.347  25.910  11.044
59582W        W24567   1.664  15.909  11.321
59583W        W24568   0.698  41.663  11.439
59584W        W24569  12.141  33.224   1.767
59585W        W24570  21.405   4.856  10.407
59586W        W24571  25.271  38.192  12.057
59587W        W24572   1.850   2.674  14.455
59588W        W24573  42.101  14.807  10.706
59589W        W24574  23.484   2.924  14.397
59590W        W24575  22.707  30.697  11.957
59591W        W24576  11.348  17.121   0.525
59592W        W24577   6.746   2.059  12.294
59593W        W24578   0.840  12.259   4.619
59594W        W24579  11.951  36.921  14.435
59595W        W24580  37.269   4.424   2.021
59596W        W24581  42.574  20.353   2.738
59597W        W24582  17.797  10.966   0.404
59598W        W24583  24.843  26.465   2.647
59599W        W24584  32.760  40.521   3.862
59600W        W24585  24.414  35.467  13.860
59601W        W24586   9.342  19.235  11.499
59602W        W24587  19.278   5.170  10.245
59603W        W24588  29.010  44.008   1.334
59604W        W24589  18.593  35.022  12.398
59605W        W24590  39.945   3.756  13.774
59606W        W24591   5.432  21.215   4.573
59607W        W24592  40.848  37.223   1.377
59608W        W24593  32.196  26.803   4.103
59609W        W24594  28.945   5.478  13.472
59610W        W24595  32.155  33.144   4.146
59611W        W24596   6.482  13.498  12.971
59612W        W24597  21.838  41.558  14.489
59613W        W24598  28.091  10.694  10.776
59614W        W24599  42.380   7.995   2.115
59615W        W24600  44.537  33.011   3.331
59616W        W24601  15.193  27.643  13.040
59617W        W24602  42.395  34.868  14.443
59618W        W24603   4.368  12.631  10.695
59619W        W24604  12.136  44.529   1.632
59620W        W24605  10.629  22.178   3.187
59621W        W24606  14.249  36.570   3.836
59622W        W24607  42.326  32.785   0.425
59623W        W24608   7.842  11.837  11.947
59624W        W24609  31.075  35.481   1.441
59625W        W24610   2.725   1.299   4.104
59626W        W24611  37.401  25.647   4.487
59627W        W24612  20.804  10.889  12.497
59628W        W24613   2.915   9.492   3.310
59629W        W24614  36.923  10.826  13.222
59630W        W24615  23.172  36.436   3.217
59631W        W24616  41.924  22.308   2.329
59632W        W24617  24.099   5.736   0.687
59633W        W24618  18.352  33.804   0.667
59634W        W24619  44.331  44.195  11.558
59635W        W24620  12.880  20.265   0.217
59636W        W24621  38.445   6.382  14.501
59637W        W24622  38.134  19.060   3.707
59638W        W24623   7.530   4.626   4.515
59639W        W24624  41.802  13.222   0.358
59640W        W24625  18.690  22.569  12.989
59641W        W24626   7.850  33.487  12.483
59642W        W24627   1.867  21.304  12.839
59643W        W24628  42.409  38.552  13.423
59644W        W24629  21.733   3.328   4.685
59645W        W24630  36.606  15.622   1.959
59646W        W24631  42.413  19.338   2.875
59647W        W24632   2.942  44.754  13.716
59648W        W24633  21.888  13.126  11.127
59649W        W24634  15.391   3.806  10.941
59650W        W24635  13.841  33.615  12.486
59651W        W24636  16.116  44.226  13.011
59652W        W24637   4.794  26.469  13.827
59653W        W24638  16.049  38.488   1.155
59654W        W24639  24.019  20.567  14.417
59655W        W24640   5.951  23.718  14.988
59656W        W24641  13.189  34.078  14.160
59657W        W24642  31.662  21.253  12.888
59658W        W24643  12.644  22.607   2.821
59659W        W24644   6.674  26.071  10.982
59660W        W24645   3.762  21.222  14.529
59661W        W24646  32.367  40.576  14.949
59662W        W24647   5.160   2.890   2.933
59663W        W24648   0.987  12.764  12.463
59664W        W24649   0.034   0.137  10.483
59665W        W24650  38.252  12.374  11.209
59666W        W24651  15.647  39.771  13.454
59667W        W24652  11.295  44.255  13.378
59668W        W24653  25.112  28.833   4.060
59669W        W24654  34.080  43.661   0.919
59670W        W24655  16.821  28.194  11.902
59671W        W24656  17.504  34.725  10.075
59672W        W24657  35.870  32.939  13.012
59673W        W24658  29.150   8.151  10.732
59674W        W24659  23.468   2.866   1.915
59675W        W24660  44.853  24.452   9.578
59676W        W24661  37.577  44.279  13.384
59677W        W24662  31.203   7.676  13.696
59678W        W24663   0.914  19.313   4.661
59679W        W24664  44.585  14.098  10.199
59680W        W24665  11.500  33.477   0.451
59681W        W24666  43.342   6.658  10.629
59682W        W24667  15.588  36.018  12.889
59683W        W24668  20.807  18.129  12.894
59684W        W24669  26.071  12.427  14.986
59685W        W24670  32.704  24.294  13.952
59686W        W24671   2.799  30.994   0.797
59687W        W24672   7.764  19.449   2.790
59688W        W24673  27.928  43.995  12.865
59689W        W24674  34.029  27.504   2.308
59690W        W24675  28.866  22.255  10.562
59691W        W24676  43.054  31.184  11.102
59692W        W24677  43.581  42.060  14.074
59693W        W24678  23.651  41.927  11.529
59694W        W24679  31.120   8.878  12.058
59695W        W24680  10.652  28.059   4.206
59696W        W24681  14.405   6.639   0.890
59697W        W24682  37.302  30.100  14.888
59698W        W24683  11.020   2.041  11.918
59699W        W24684   5.296  27.560   4.422
59700W        W24685  16.744   6.319   4.297
59701W        W24686  44.315  36.869   2.318
59702W        W24687  19.783  15.176   4.545
59703W        W24688   2.945  25.268  13.918
59704W        W24689   3.049  23.009  13.434
59705W        W24690  34.387  29.085  12.560
59706W        W24691  35.830  33.904  12.158
59707W        W24692  31.102  31.899   2.833
59708W        W24693  44.859  27.068  10.428
59709W        W24694  26.625  31.686   3.132
59710W        W24695   2.314  38.583  12.371
59711W        W24696   9.360  16.569  11.187
59712W        W24697  27.035   2.542   4.713
59713W        W24698  19.618  44.009  11.963
59714W        W24699  29.049  24.134   2.902
59715W        W24700  31.922  17.163  12.652
59716W        W24701  29.512  21.045  14.382
59717W        W24702  31.211  30.795  10.248
59718W        W24703  28.436  32.037  14.782
59719W        W24704  41.025  27.070   5.455
59720W        W24705  43.397   3.479   2.549
59721W        W24706  40.947   7.156   2.045
59722W        W24707  16.765   2.428   1.475
59723W        W24708   5.149   2.385   4.183
59724W        W24709  38.369  29.891   0.517
59725W        W24710  22.928  37.351  12.426
59726W        W24711  11.842  43.691  11.624
59727W        W24712   6.529  28.944   1.212
59728W        W24713  15.614  22.464   1.684
59729W        W24714  10.208  35.130   2.372
59730W        W24715  11.788   9.943  11.684
59731W        W24716   2.826  31.557  14.083
59732W        W24717  33.406  26.602   9.791
59733W        W24718  29.190  27.558  11.728
59734W        W24719  23.174  32.167   4.943
59735W        W24720   3.883  19.192  12.339
59736W        W24721  26.268  35.622  11.867
59737W        W24722  44.798  40.263   2.465
59738W        W24723  17.178  34.359   0.296
59739W        W24724  31.927  15.889   2.584
59740W        W24725   4.486  37.409  12.922
59741W        W24726   2.240  13.868  12.987
59742W        W24727  42.296  24.488  13.669
59743W        W24728  19.788  36.500  12.034
59744W        W24729  44.045  10.687  11.151
59745W        W24730  12.660  44.188   2.696
59746W        W24731  18.969  27.661  14.275
59747W        W24732   9.419  37.774  14.797
59748W        W24733  26.574  37.059  10.675
59749W        W24734  25.518  27.177   3.210
59750W        W24735  32.687  29.649   1.469
59751W        W24736  26.090   5.861  14.426
59752W        W24737  24.870   0.915   5.545
59753W        W24738  19.196  12.330  13.126
59754W        W24739   3.448  20.883  14.310
59755W        W24740  28.141   3.370   2.245
59756W        W24741  18.769  38.266  11.629
59757W        W24742   4.316  31.802  10.750
59758W        W24743  41.491   7.226   4.442
59759W        W24744  11.974  34.983   2.180
59760W        W24745  27.465  38.343  12.696
59761W        W24746  42.921  20.726  11.358
59762W        W24747   0.729  40.565  12.993
59763W        W24748   9.938  14.320  12.115
59764W        W24749  29.035  38.501   1.837
59765W        W24750  36.936   7.642  10.853
59766W        W24751  16.080  18.590  14.781
59767W        W24752  14.682   7.381  11.421
59768W        W24753  26.574   7.681   1.338
59769W        W24754  38.195   1.158   1.729
59770W        W24755  44.482  14.216  11.629
59771W        W24756  34.394  42.976  12.132
59772W        W24757  17.678   7.911  12.394
59773W        W24758  28.475  30.700   3.338
59774W        W24759  38.037  23.741   1.311
59775W        W24760  26.228  33.556   1.218
59776W        W24761  37.904  11.813   2.103
59777W        W24762  42.904  13.027   2.864
59778W        W24763  31.690  19.175   0.370
59779W        W24764  26.088   1.374   0.368
59780W        W24765  26.077  18.272   0.352
59781W        W24766  19.271  38.727   2.707
59782W        W24767  39.592  28.152  11.730
59783W        W24768   3.931   8.713  10.662
59784W        W24769  23.952   5.417  12.124
59785W        W24770  34.530   4.789  12.226
59786W        W24771  19.607  10.391  13.814
59787W        W24772  12.480  34.770  11.587
59788W        W24773  44.914  24.710   0.243
59789W        W24774   4.934  16.053  12.571
59790W        W24775  23.212  33.593  11.556
59791W        W24776  11.593  31.412   0.451
59792W        W24777  25.003  21.602  12.518
59793W        W24778  29.525   8.252  14.857
59794W        W24779  43.151   8.511  10.769
59795W        W24780  35.398  20.678  14.899
59796W        W24781  12.167  29.690  11.025
59797W        W24782  13.612  42.338   4.263
59798W        W24783  34.219  25.935   4.732
59799W        W24784   8.950  31.430  13.526
59800W        W24785   8.813  37.630  11.967
59801W        W24786   4.641   2.214  11.697
59802W        W24787  16.772  11.049   2.190
59803W        W24788  19.232   3.465  10.434
59804W        W24789  20.072  16.120  14.374
59805W        W24790  42.915   1.308   4.430
59806W        W24791   9.256   1.341  12.041
59807W        W24792  23.993  19.136   0.332
59808W        W24793   4.779  42.536  11.990
59809W        W24794  40.592  39.273  12.887
59810W        W24795  20.368  11.179  12.029
59811W        W24796  27.497   9.671   1.833
59812W        W24797  31.440  40.859   4.082
59813W        W24798  17.370  15.854   3.723
59814W        W24799  20.020   5.888   4.566
59815W        W24800   9.089  35.091   0.475
59816W        W24801  17.196   2.291  11.058
59817W        W24802  12.591  28.398   0.592
59818W        W24803  39.578  42.973  11.206
59819W        W24804   0.267  37.488   4.745
59820W        W24805   0.085   9.170  12.991
59821W        W24806   2.798  16.111   3.013
59822W        W24807  26.470  35.989   3.084
59823W        W24808  44.746  19.703   0.878
59824W        W24809  31.013   5.709  14.539
59825W        W24810   9.881  34.408   3.087
59826W        W24811  42.801  27.177   0.872
59827W        W24812   5.145  40.889  10.493
59828W        W24813  39.990  19.057   0.788
59829W        W24814  41.242  32.078  10.928
59830W        W24815  28.681  42.558  11.435
59831W        W24816  29.613  12.977   2.340
59832W        W24817  15.320   2.870   2.742
59833W        W24818   0.847  12.698   2.305
59834W        W24819  40.093  12.657   2.233
59835W        W24820  31.897  33.825   3.188
59836W        W24821  31.788  41.376  13.805
59837W        W24822  38.480  17.810  13.090
59838W        W24823  19.619  36.077  14.905
59839W        W24824  12.943   9.772  14.786
59840W        W24825   0.945  34.441   2.356
59841W        W24826  25.754  42.393  11.160
59842W        W24827  38.931   4.196   3.046
59843W        W24828  36.381  37.326   0.926
59844W        W24829  11.166  23.770  11.581
59845W        W24830  26.615  28.747   1.865
59846W        W24831  19.168  31.401   0.452
59847W        W24832  38.112   3.329  11.993
59848W        W24833  12.301   3.877   2.860
59849W        W24834  25.997  20.970  11.940
59850W        W24835  11.874  39.346  12.153
59851W        W24836  26.726  28.619  14.808
59852W        W24837  30.853  21.101   0.712
59853W        W24838   1.285  16.548   0.469
59854W        W24839  44.761  35.881   2.147
59855W        W24840  13.096  18.610  14.848
59856W        W24841  15.630   2.483  14.816
59857W        W24842   1.346  39.020  12.790
59858W        W24843  41.398  24.549   0.399
59859W        W24844  25.181  36.071   1.370
59860W        W24845  38.562   8.472  11.444
59861W        W24846  33.453  39.936   2.715
59862W        W24847  16.788  18.728   2.722
59863W        W24848  23.763  36.307  13.830
59864W        W24849  19.094  43.738   3.723
59865W        W24850   1.822  31.807  13.439
59866W        W24851  12.555  11.264  14.397
59867W        W24852  27.248  38.317   1.620
59868W        W24853  16.700  22.359   1.158
59869W        W24854  32.496  13.085  13.308
59870W        W24855  11.612  12.115   3.416
59871W        W24856  39.577  32.917  14.823
59872W        W24857  34.559  12.725   1.241
59873W        W24858  12.019   0.601  12.475
59874W        W24859   4.735  22.664  13.887
59875W        W24860  27.543  25.191  14.069
59876W        W24861  23.408  23.112   1.937
59877W        W24862  12.105  43.379   0.553
59878W        W24863  12.197   0.418  10.456
59879W        W24864  21.473  28.962   3.236
59880W        W24865  18.733   4.401  13.799
59881W        W24866  23.964   4.446   2.860
59882W        W24867  23.784   1.081   0.860
59883W        W24868  12.099   9.181   0.728
59884W        W24869  39.313  11.705   2.099
59885W        W24870  12.769  30.663   4.779
59886W        W24871  10.192  38.839  13.306
59887W        W24872  14.677   1.219  13.316
59888W        W24873  41.399  41.732   0.975
59889W        W24874  44.493  27.767   2.371
59890W        W24875  41.565  38.338  13.633
59891W        W24876  18.739  41.881  12.051
59892W        W24877  23.096  39.023   4.619
59893W        W24878  40.993  35.463  12.538
59894W        W24879  41.491  29.814   0.872
59895W        W24880  44.577  13.508   4.255
59896W        W24881  24.677  38.350   1.519
59897W        W24882  28.381  21.284   1.386
59898W        W24883  30.061   8.124   0.554
59899W        W24884   9.450  36.580   0.375
59900W        W24885   4.891  29.408  12.884
59901W        W24886   6.218  28.206  10.274
59902W        W24887  20.234  24.502   0.470
59903W        W24888  38.600  34.758   2.138
59904W        W24889   1.887  16.178   0.350
59905W        W24890  13.861  22.638   3.351
59906W        W24891  13.960  44.239   0.448
59907W        W24892   7.386  39.302  13.930
59908W        W24893  27.703  25.790   1.808
59909W        W24894  16.154  35.466   0.374
59910W        W24895  20.018  42.753  14.863
59911W        W24896  40.390  22.214  12.656
59912W        W24897  39.231  10.419   0.642
59913W        W24898  44.565   5.421  11.531
59914W        W24899  41.994  43.366  14.817
59915W        W24900  40.301  23.004   2.393
59916W        W24901  29.497  41.838  13.844
59917W        W24902  38.775  15.687   3.686
59918W        W24903  34.876  41.385   4.796
59919W        W24904   6.978  24.671  13.506
59920W        W24905  35.506  21.609  12.395
59921W        W24906  26.074  26.361   3.256
59922W        W24907   6.159  14.721   4.660
59923W        W24908  30.864  41.621   0.428
59924W        W24909  12.257   6.741   4.297
59925W        W24910  39.977  22.147  10.733
59926W        W24911  11.073  37.951  13.933
59927W        W24912  17.396   9.597   1.800
59928W        W24913  10.691   4.240   9.645
59929W        W24914   2.540  27.264   1.730
59930W        W24915  28.549  18.812   4.335
59931W        W24916   7.550  40.333  14.231
59932W        W24917   8.894   1.632   1.478
59933W        W24918  37.327  13.613  11.439
59934W        W24919  37.005  27.504  12.029
59935W        W24920  27.504  30.941  14.559
59936W        W24921  16.363  29.683  14.194
59937W        W24922   9.583  39.000  11.038
59938W        W24923   6.209  28.183  11.622
59939W        W24924  22.450  14.080  13.183
59940W        W24925  32.173  32.505  14.578
59941W        W24926  31.635  12.675   3.798
59942W        W24927  36.677  44.327  11.496
59943W        W24928  26.026  33.114   3.616
59944W        W24929   8.551  30.207   1.813
59945W        W24930  14.659   6.836  14.775
59946W        W24931  16.697  28.035  12.363
59947W        W24932   8.351   1.015  12.364
59948W        W24933  33.372  35.360  14.845
59949W        W24934   7.574   7.267   2.925
59950W        W24935  13.602  40.462   1.668
59951W        W24936  39.772  42.315   2.871
59952W        W24937  31.211   5.958  13.791
59953W        W24938  26.661  11.340  14.374
59954W        W24939  37.300  14.648  10.769
59955W        W24940   4.809  29.660   5.102
59956W        W24941  29.692   7.776  13.411
59957W        W24942  17.383  21.685  11.444
59958W        W24943  34.778  14.832   2.836
59959W        W24944  38.112   2.188  13.077
59960W        W24945  38.347  44.253  12.925
59961W        W24946  43.187   4.162  13.432
59962W        W24947  10.133   3.451  12.098
59963W        W24948  41.821   7.412  13.862
59964W        W24949  37.487   0.202  12.024
59965W        W24950   3.404  13.764  10.795
59966W        W24951  25.766  21.088  10.691
59967W        W24952  13.873  11.171   1.275
59968W        W24953   1.909  34.967   3.664
59969W        W24954  38.665  40.503   3.227
59970W        W24955  37.346  32.409   4.508
59971W        W24956  17.081  28.427   1.765
59972W        W24957   1.326  22.483   1.195
59973W        W24958   7.832  37.326  10.953
59974W        W24959  14.276   1.953  11.446
59975W        W24960  34.867  21.613  13.051
59976W        W24961  30.378   6.021   0.420
59977W        W24962  44.710  29.576  12.861
59978W        W24963  28.956   6.861   1.903
59979W        W24964   3.216  44.507  13.307
59980W        W24965  12.716  42.987   3.283
59981W        W24966  24.158  40.020   3.703
59982W        W24967   9.158  43.700  11.103
59983W        W24968  35.075  30.185  13.386
59984W        W24969  37.058  42.799   2.875
59985W        W24970   7.697  39.721  10.712
59986W        W24971  22.198   3.470  11.417
59987W        W24972  22.054  27.627   4.608
59988W        W24973  10.022  28.543   4.629
59989W        W24974  32.263  19.736  13.365
59990W        W24975  29.916   2.345  13.519
59991W        W24976  42.816  21.727   1.865
59992W        W24977  30.623  10.801  13.863
59993W        W24978  10.343   8.699  13.090
59994W        W24979   1.337   2.262   1.187
59995W        W24980  25.941  34.661  10.490
59996W        W24981   7.832   4.849   2.362
59997W        W24982   8.640   2.013  12.897
59998W        W24983  29.977   0.976  12.144
59999W        W24984  25.527  22.730   1.196
60000W        W24985  24.916  19.212  12.893
60001W        W24986  16.209  25.590  14.819
60002W        W24987   0.216  40.201  12.974
60003W        W24988  15.472  12.790  12.035
60004W        W24989  19.807  41.718   5.048
60005W        W24990  26.612   6.133  14.496
60006W        W24991  22.877  26.808  10.266
60007W        W24992  41.906  24.796  13.386
60008W        W24993  23.667   2.934  11.938
60009W        W24994  37.304  12.090  12.576
60010W        W24995   6.949  35.377  14.024
60011W        W24996  30.423  31.510   4.424
60012W        W24997  11.079  31.867  11.704
60013W        W24998  22.862  22.064   4.506
60014W        W24999  19.861  18.510   4.860
60015W        W25000  21.291  14.351  11.143
60016W        W25001   8.182  20.712   3.577
60017W        W25002  38.398  42.113  12.413
60018W        W25003  39.200  35.418  14.257
60019W        W25004   5.561  16.738   4.328
60020W        W25005  25.056   4.394  11.722
60021W        W25006   9.667  38.419  13.399
60022W        W25007  27.949  17.722  10.093
60023W        W25008   9.304  44.998  11.567
60024W        W25009  38.980  18.005   3.480
60025W        W25010  28.058  14.657  14.004
60026W        W25011  17.292  40.777   3.290
60027W        W25012  31.014  31.627   2.393
60028W        W25013  17.839   2.790   1.684
60029W        W25014  29.994  15.632   0.845
60030W        W25015  40.288   1.750   3.634
60031W        W25016  10.244  18.282   0.992
60032W        W25017  10.008  33.537   0.871
60033W        W25018  27.243   2.279   2.163
60034W        W25019  10.154  37.659  11.183
60035W        W25020   0.253   9.280   0.367
60036W        W25021   5.416  16.070  13.721
60037W        W25022  29.820  22.579   4.013
60038W        W25023  16.065  40.768   4.074
60039W        W25024  24.196  27.076   4.130
60040W        W25025  34.672  28.366  14.976
60041W        W25026  42.422  17.788  13.520
60042W        W25027   1.400  38.782  11.196
60043W        W25028  34.435   2.918  12.492
60044W        W25029  10.339  26.158   4.631
60045W        W25030  15.759  28.164   1.203
60046W        W25031  36.008  22.401  11.283
60047W        W25032  34.532   5.240  11.979
60048W        W25033  20.751  39.198   2.668
60049W        W25034  31.749  35.554  13.840
60050W        W25035   6.260  27.056  12.535
60051W        W25036  15.980  23.241  13.047
60052W        W25037  10.933  17.563  12.465
60053W        W25038   6.406  28.270   0.705
60054W        W25039  12.419   1.392   4.382
60055W        W25040  18.690  32.112   0.290
60056W        W25041  11.272  27.725   0.276
60057W        W25042  22.037  18.302  14.341
60058W        W25043  12.770  19.171  13.601
60059W        W25044  20.334   6.165   4.226
60060W        W25045  13.553  31.931   0.959
60061W        W25046   6.223  43.334   0.175
60062W        W25047   9.320  11.306   0.977
60063W        W25048   3.079  38.450   1.263
60064W        W25049  38.856  39.912  12.801
60065W        W25050  43.574  29.991  14.793
60066W        W25051  29.999  20.619   3.176
60067W        W25052  13.743  24.496  12.469
60068W        W25053  14.407  35.449   0.835
60069W        W25054  34.564   9.084  12.720
60070W        W25055  25.357  37.402   1.267
60071W        W25056  25.553  29.682  10.077
60072W        W25057  24.451  42.389  14.025
60073W        W25058  10.030  26.429   3.792
60074W        W25059  19.886   7.764   4.572
60075W        W25060  44.193  11.844   0.683
60076W        W25061  30.746   8.260  12.942
60077W        W25062  27.433  16.005   3.408
60078W        W25063  26.997  14.213   4.246
60079W        W25064   2.725  10.179  13.036
60080W        W25065  29.914   7.528  13.817
60081W        W25066  44.814  14.862   2.932
60082W        W25067  26.663   0.546  14.465
60083W        W25068  11.956   7.602   4.670
60084W        W25069   1.514  16.320   1.497
60085W        W25070  18.157  36.365  13.464
60086W        W25071  17.731   3.817  14.962
60087W        W25072   5.271  29.905  12.580
60088W        W25073  11.458  17.237   3.756
60089W        W25074   8.667  38.373   4.520
60090W        W25075  20.383   5.018   4.946
60091W        W25076  19.030  25.543  12.401
60092W        W25077   8.828  26.214  12.864
60093W        W25078   2.205  32.450  11.187
60094W        W25079  37.049  33.088  13.658
60095W        W25080  44.118   0.989   0.629
60096W        W25081   0.435  13.245   1.013
60097W        W25082  35.938  43.816   4.486
60098W        W25083  35.506  22.162   0.058
60099W        W25084  38.045  27.015   0.356
60100W        W25085  22.635  43.229   1.838
60101W        W25086  44.789  42.284  14.234
60102W        W25087  29.108   1.235  13.877
60103W        W25088  24.919  44.494   2.575
60104W        W25089  19.436   7.474   0.374
60105W        W25090  26.071  40.404   4.640
60106W        W25091  25.246  35.081  13.948
60107W        W25092   1.373  23.047  11.401
60108W        W25093  16.750  24.424  10.983
60109W        W25094  15.137  31.038   2.225
60110W        W25095  23.114  17.260  10.459
60111W        W25096  34.419   8.962  12.221
60112W        W25097  16.083  22.048   4.646
60113W        W25098  41.545  29.071   2.212
60114W        W25099  20.073   1.122  12.866
60115W        W25100   5.643  34.427  11.078
60116W        W25101  20.962  31.902   0.783
60117W        W25102  14.023   5.691   3.799
60118W        W25103   5.706   5.955  13.463
60119W        W25104  33.130  25.169  12.847
60120W        W25105  31.935  15.408   3.649
60121W        W25106  38.253  35.068   9.530
60122W        W25107  36.987  16.776   2.319
60123W        W25108  38.895   3.836   2.253
60124W        W25109  25.065  43.025   0.337
60125W        W25110  35.488  11.594   9.797
60126W        W25111   7.272  10.046   0.537
60127W        W25112  18.181  32.673   0.759
60128W        W25113  22.887   4.358  11.708
60129W        W25114  35.981  42.466  12.134
60130W        W25115  10.680  31.151   3.069
60131W        W25116   4.638   6.035   2.377
60132W        W25117  37.483   3.299   3.789
60133W        W25118  37.500  25.222  11.492
60134W        W25119   8.130  28.470  12.376
60135W        W25120  24.401  19.624  10.987
60136W        W25121  39.380   1.790   0.990
60137W        W25122  21.654  23.520  13.417
60138W        W25123  39.530  37.150   3.321
60139W        W25124  16.751  40.313   2.789
60140W        W25125  28.561  26.226   0.891
60141W        W25126   5.187   3.272  12.049
60142W        W25127  26.093  10.468  12.589
60143W        W25128  22.990  32.281   9.906
60144W        W25129   0.397  20.025   2.107
60145W        W25130  22.979  13.912   4.334
60146W        W25131  15.849   2.500  12.350
60147W        W25132  23.168  42.460   3.293
60148W        W25133  18.419  32.035   2.945
60149W        W25134   2.395  23.158   0.977
60150W        W25135  28.910  44.187  13.964
60151W        W25136  13.588  21.685   2.109
60152W        W25137  21.083  23.891  12.423
60153W        W25138  38.905  12.272   3.799
60154W        W25139   3.910  10.233   1.444
60155W        W25140   4.962  14.330   4.156
60156W        W25141  37.460  39.658  14.575
60157W        W25142  13.743  22.499   0.669
60158W        W25143   9.119  43.464  13.818
60159W        W25144  44.875  26.243  13.150
60160W        W25145  35.264  39.424   1.921
60161W        W25146   7.310   8.437   2.261
60162W        W25147   4.794  26.049  14.937
60163W        W25148  38.243  30.261  11.967
60164W        W25149  20.514  22.261   2.252
60165W        W25150   4.394  22.490  11.268
60166W        W25151  15.585  26.602  12.531
60167W        W25152   9.641  24.086  14.009
60168W        W25153  34.139  30.676  11.762
60169W        W25154  25.261  37.266  12.988
60170W        W25155  26.924  23.734   1.361
60171W        W25156  25.090  36.978  11.660
60172W        W25157   9.056   9.894   4.330
60173W        W25158   9.956  28.600   2.771
60174W        W25159  31.324  43.900   4.226
60175W        W25160  34.763  19.068   2.376
60176W        W25161  34.127   7.346   3.221
60177W        W25162  26.827  28.857   1.409
60178W        W25163  39.786  16.466  13.367
60179W        W25164   6.512  42.876   5.052
60180W        W25165  17.833   7.111   3.774
60181W        W25166  18.665  36.043   2.655
60182W        W25167  27.118  31.146   2.719
60183W        W25168  25.372  17.063   3.164
60184W        W25169   3.444   1.820   0.838
60185W        W25170  26.135  16.556  13.402
60186W        W25171  28.424  15.246   1.858
60187W        W25172  24.738  10.562   2.709
60188W        W25173  23.184   5.560  14.722
60189W        W25174  30.367  39.643   3.403
60190W        W25175  42.487  22.534   1.236
60191W        W25176   5.433  21.998  12.047
60192W        W25177   2.337  42.729  12.825
60193W        W25178  44.111   2.874   0.738
60194W        W25179  16.822   1.389   1.433
60195W        W25180  44.353  12.331   0.777
60196W        W25181  16.090   1.533  13.411
60197W        W25182  35.009  38.096   4.647
60198W        W25183  28.156   1.282  13.811
60199W        W25184  37.771  12.078   4.297
60200W        W25185  31.972  44.831  13.624
60201W        W25186  31.627   5.840  12.407
60202W        W25187   0.720   7.216  12.613
60203W        W25188  31.901  37.752  12.548
60204W        W25189  24.599  42.508  13.536
60205W        W25190  20.563  37.117  13.025
60206W        W25191  26.689  22.614   0.883
60207W        W25192  41.819  40.305   0.725
60208W        W25193  21.855  14.095   0.854
60209W        W25194  16.990  40.120  11.166
60210W        W25195  41.430  10.181  14.800
60211W        W25196  21.707  21.302  12.083
60212W        W25197  43.077   2.191   3.778
60213W        W25198  12.720  34.723  13.077
60214W        W25199  35.905   3.266  10.051
60215W        W25200   9.009  24.365  11.703
60216W        W25201  15.466   5.061  14.657
60217W        W25202  44.425  31.840  12.240
60218W        W25203  17.146  33.912   1.916
60219W        W25204  28.506  10.154  11.322
60220W        W25205   9.254  34.803  12.500
60221W        W25206   8.235  25.992   4.145
60222W        W25207   9.212  38.988   2.836
60223W        W25208  43.853  11.143   3.489
60224W        W25209  13.050  38.336   3.017
60225W        W25210  31.410  22.982   3.291
60226W        W25211  28.232  22.494  14.026
60227W        W25212  37.932  40.889   3.244
60228W        W25213   1.193  42.338   4.118
60229W        W25214  31.685  32.577  12.338
60230W        W25215  19.733  37.756   2.206
60231W        W25216   1.023  43.587   1.429
60232W        W25217  17.558  13.383  12.364
60233W        W25218   6.485  13.252  14.307
60234W        W25219  20.259   5.955  14.812
60235W        W25220  15.102   3.074   9.822
60236W        W25221   2.269  29.826  12.004
60237W        W25222  12.569  14.176  11.746
60238W        W25223  19.586  33.430  12.601
60239W        W25224  26.997  29.233  10.740
60240W        W25225  19.592  16.673   1.392
60241W        W25226  33.967   4.318  11.639
60242W        W25227  13.430  44.057   1.693
60243W        W25228  32.601  42.789  14.899
60244W        W25229  23.255  37.832  11.586
60245W        W25230  18.523  17.731   2.304
60246W        W25231  21.204  22.987   4.750
60247W        W25232  39.838  44.736  10.737
60248W        W25233   1.174  17.155   4.613
60249W        W25234  22.713  30.182  13.345
60250W        W25235  38.968   9.318  11.597
60251W        W25236  37.950   5.841   1.351
60252W        W25237  41.028  19.562  12.072
60253W        W25238   9.754   2.106   3.829
60254W        W25239   5.867  24.615   1.890
60255W        W25240   9.744  29.913   2.148
60256W        W25241   5.800  11.308   2.036
60257W        W25242  29.138  41.303  10.504
60258W        W25243  13.160  38.739  11.593
60259W        W25244  34.517   3.415   4.134
60260W        W25245   1.326  17.485  11.584
60261W        W25246  14.158   3.386  10.729
60262W        W25247  11.171  40.477   1.935
60263W        W25248  42.438  24.747   1.751
60264W        W25249  35.994  33.306   4.472
60265W        W25250  10.404  42.982   3.720
60266W        W25251  14.196  38.460   4.427
60267W        W25252  25.162  11.336  13.910
60268W        W25253  34.484  37.278  11.671
60269W        W25254  38.271   9.145   2.819
60270W        W25255  31.226  28.894   3.727
60271W        W25256  30.854  39.339   2.510
60272W        W25257  22.115  16.561  14.029
60273W        W25258   9.191   3.386   3.603
60274W        W25259  16.679   3.831  13.020
60275W        W25260  43.604  15.528  13.669
60276W        W25261  29.170   0.461   4.682
60277W        W25262  19.085  13.325   2.409
60278W        W25263  27.869   8.774   1.760
60279W        W25264  10.821   9.398   3.709
60280W        W25265  13.286  27.548   2.084
60281W        W25266  35.511  24.138   0.280
60282W        W25267  11.614  21.185   0.410
60283W        W25268  22.182  40.879   3.077
60284W        W25269   0.872  42.619   0.528
60285W        W25270   9.460  42.246   3.256
60286W        W25271  21.976  35.571  11.573
60287W        W25272  31.357  43.895   0.755
60288W        W25273  14.778  32.592   1.611
60289W        W25274  34.714  25.383  11.739
60290W        W25275  32.066  18.962  11.614
60291W        W25276  11.224  23.481   2.540
60292W        W25277  29.962  30.515  13.564
60293W        W25278  31.599  31.697  14.121
60294W        W25279  32.404  32.176   2.206
60295W        W25280  30.164  35.934  13.913
60296W        W25281  11.463  10.617  12.368
60297W        W25282  30.397  16.751   4.675
60298W        W25283  11.298  43.598   0.974
60299W        W25284  43.975  19.684  14.905
60300W        W25285  14.513   5.819   3.855
60301W        W25286  16.670  14.906   3.300
60302W        W25287  29.206  29.499  12.023
60303W        W25288  38.584  10.958   4.309
60304W        W25289  32.496  42.910  11.535
60305W        W25290   0.490  44.995  14.746
60306W        W25291  12.770  35.827  11.445
60307W        W25292  15.489  32.554   0.774
60308W        W25293  30.694  44.502   2.523
60309W        W25294  17.808  33.326  12.945
60310W        W25295  23.495   6.095  11.447
60311W        W25296  30.756  21.455   4.794
60312W        W25297  16.794   3.203   5.031
60313W        W25298  19.724   5.712   3.535
60314W        W25299   6.660  22.415  12.018
60315W        W25300  11.740  31.426   3.194
60316W        W25301  17.674   8.427   5.037
60317W        W25302  16.560  21.591   4.487
60318W        W25303   7.374   3.626  11.352
60319W        W25304  13.351  42.751  13.531
60320W        W25305  37.088  17.052  13.393
60321W        W25306  30.869  14.879   0.745
60322W        W25307  19.342  13.316   1.431
60323W        W25308   1.825  16.103  10.861
60324W        W25309  20.708   0.220  14.786
60325W        W25310   3.882  21.501   0.004
60326W        W25311   7.435   5.725   2.189
60327W        W25312  20.015  28.908  12.979
60328W        W25313   7.507  35.003  12.988
60329W        W25314  20.006  39.051   0.765
60330W        W25315  30.685  44.880   3.364
60331W        W25316  31.935  36.133  12.478
60332W        W25317  14.592  11.180  13.874
60333W        W25318  21.036  37.341   0.743
60334W        W25319  20.478   6.765   0.462
60335W        W25320   3.272   6.806   3.588
60336W        W25321  26.429  23.985   0.331
60337W        W25322  12.609  16.520   4.251
60338W        W25323  12.416   1.875  13.259
60339W        W25324  44.340  21.044   4.594
60340W        W25325   6.241  11.130   3.306
60341W        W25326   7.948   8.474  11.463
60342W        W25327  12.342  14.358  12.151
60343W        W25328   9.669   1.204  12.415
60344W        W25329  44.083  16.126  12.524
60345W        W25330   3.348   6.549   2.712
60346W        W25331  19.227  24.011   0.842
60347W        W25332  11.869  33.406  12.104
60348W        W25333  26.531  27.222   1.857
60349W        W25334  31.109  37.676   0.830
60350W        W25335  11.231   8.049   4.543
60351W        W25336  13.368   2.262   0.348
60352W        W25337  21.431   5.507   0.331
60353W        W25338  31.867  24.589  13.093
60354W        W25339  21.246   4.161   3.242
60355W        W25340  38.847   9.639   5.110
60356W        W25341  40.004  40.384  13.476
60357W        W25342   7.941  11.407   0.366
60358W        W25343  36.392  24.071  14.244
60359W        W25344   1.910  43.277  11.167
60360W        W25345  26.309  44.737   3.155
60361W        W25346   2.822  31.682   5.080
60362W        W25347  23.840  23.304   3.379
60363W        W25348  39.045  28.510  12.944
60364W        W25349  16.784  17.442   3.668
60365W        W25350  10.882  41.979   1.313
60366W        W25351  18.038  15.082   0.432
60367W        W25352   5.434   1.408   3.103
60368W        W25353  25.558   6.816  12.851
60369W        W25354   6.133   3.444  13.241
60370W        W25355  18.078  29.906   2.389
60371W        W25356   4.376  21.018   1.260
60372W        W25357  18.086  30.246   1.696
60373W        W25358  43.775  22.179  13.797
60374W        W25359  25.587  20.726   0.230
60375W        W25360  11.770  42.975  14.425
60376W        W25361  29.625  43.645   1.842
60377W        W25362  16.129   1.829   2.912
60378W        W25363  36.658  13.247   1.179
60379W        W25364   6.340   4.718   0.055
60380W        W25365  17.780  42.831   4.106
60381W        W25366  35.790   9.858  14.389
60382W        W25367  24.718  10.774   3.867
60383W        W25368   4.952   2.057   2.664
60384W        W25369  22.689  32.886  14.385
60385W        W25370  37.932  39.177   1.000
60386W        W25371   3.868  30.379  11.149
60387W        W25372  17.574  30.051   2.362
60388W        W25373   1.326  19.989  14.773
60389W        W25374   5.873  11.637   1.019
60390W        W25375  38.675  35.865  13.503
60391W        W25376  31.487   8.868   4.634
60392W        W25377  20.812  23.951   0.251
60393W        W25378   0.683  40.823   0.803
60394W        W25379  15.476  32.125  11.478
60395W        W25380  38.406  29.840  11.701
60396W        W25381  44.003  35.380   4.589
60397W        W25382   0.455   0.962  13.885
60398W        W25383  16.300   1.334  14.945
60399W        W25384  29.859   0.357   0.843
60400W        W25385  41.925  36.640   3.601
60401W        W25386  43.408   0.721   3.224
60402W        W25387  39.186  43.307  11.139
60403W        W25388  18.017  36.028   1.631
60404W        W25389  19.014  10.896  13.389
60405W        W25390  28.957  21.898  12.680
60406W        W25391  15.231   1.838  12.802
60407W        W25392   0.960   4.925   1.057
60408W        W25393  39.001  38.030   3.169
60409W        W25394  15.053  34.659  14.006
60410W        W25395  20.673  11.171   1.049
60411W        W25396   1.840  30.972   2.281
60412W        W25397  29.916  23.790  11.682
60413W        W25398   3.907   8.621   2.309
60414W        W25399  28.029   4.266  13.393
60415W        W25400   4.354  20.088  13.590
60416W        W25401  20.687  42.378  14.194
60417W        W25402  16.613  30.179   4.175
60418W        W25403  28.919   1.250   2.843
60419W        W25404   6.134  26.291   1.054
60420W        W25405  15.722  20.971   2.778
60421W        W25406   3.786  28.320   3.758
60422W        W25407  11.690   7.474   2.036
60423W        W25408   5.241   6.730  13.663
60424W        W25409  11.812  31.493  11.074
60425W        W25410  31.187   7.761  10.148
60426W        W25411  42.850  37.466   0.147
60427W        W25412   2.559  42.363   4.664
60428W        W25413   9.657  10.360  10.593
60429W        W25414  31.513  19.729   2.658
60430W        W25415   5.829  18.107   4.283
60431W        W25416  34.136   7.136   4.764
60432W        W25417   0.068  44.906  12.641
60433W        W25418   0.054  34.408   0.677
60434W        W25419   6.362   5.741  14.676
60435W        W25420  19.173  32.443  13.881
60436W        W25421   7.767  24.950  11.283
60437W        W25422   8.882  38.811   4.706
60438W        W25423  13.365   5.223   3.582
60439W        W25424   9.424   6.951   1.445
60440W        W25425   8.165  27.450  14.472
60441W        W25426  26.448  36.157  12.542
60442W        W25427  28.403   7.786   3.194
60443W        W25428   7.132  30.281   2.206
60444W        W25429  23.487  33.739   9.909
60445W        W25430  41.740  43.655  13.178
60446W        W25431  33.009  16.993  11.635
60447W        W25432  19.112  42.245   1.692
60448W        W25433  43.942  18.812   3.523
60449W        W25434  20.150  39.823   2.895
60450W        W25435   6.726  14.847   3.239
60451W        W25436  22.456  22.477  12.747
60452W        W25437   6.583  20.759   3.347
60453W        W25438  37.244   9.024   9.639
60454W        W25439  31.464   6.340  12.410
60455W        W25440  34.678  29.445  14.410
60456W        W25441  39.917   7.921  14.773
60457W        W25442  38.399  31.258  12.213
60458W        W25443   0.051   2.831  13.394
60459W        W25444  28.434   6.734   0.995
60460W        W25445  26.562  30.514  11.436
60461W        W25446  37.537  43.969   3.715
60462W        W25447  21.035  39.782  10.823
60463W        W25448  21.081   7.667   1.906
60464W        W25449  12.463  42.863   4.667
60465W        W25450  28.583  18.809   4.871
60466W        W25451  22.268  28.658  11.135
60467W        W25452  21.509  27.474   4.574
60468W        W25453   5.646   6.561   4.979
60469W        W25454  34.489  13.874  10.469
60470W        W25455   6.153  27.646  11.089
60471W        W25456   6.993  17.457  13.465
60472W        W25457   1.254   3.926   1.829
60473W        W25458  41.029  21.091  12.154
60474W        W25459   2.899  22.182   1.897
60475W        W25460  26.579  16.122   1.836
60476W        W25461  21.220   4.193  13.111
60477W        W25462   3.035  43.528   3.626
60478W        W25463   9.196   6.920   3.435
60479W        W25464   1.680  38.293  13.788
60480W        W25465   3.758  26.950  12.478
60481W        W25466  43.298  28.153   0.802
60482W        W25467   0.560  35.960  14.791
60483W        W25468  11.721  39.547   3.201
60484W        W25469   2.256  27.480  11.159
60485W        W25470  24.764  11.641  11.146
60486W        W25471   2.944  36.012   3.309
60487W        W25472   4.681   3.145  13.988
60488W        W25473   5.229  20.268  14.960
60489W        W25474  42.101  36.981   0.477
60490W        W25475   0.236  15.064   2.706
60491W        W25476  43.131  25.118   9.803
60492W        W25477  24.899   7.912  14.129
60493W        W25478  44.854  36.855  10.964
60494W        W25479   7.232  19.790   3.559
60495W        W25480  40.856  13.592  11.277
60496W        W25481   3.111  27.644  14.798
60497W        W25482  20.580  29.487   2.307
60498W        W25483   8.435   3.850  14.513
60499W        W25484  16.797  32.567   3.261
60500W        W25485   0.459  44.505  12.754
60501W        W25486   2.207   9.264  13.472
60502W        W25487   6.032  40.663  14.905
60503W        W25488   2.008   8.933  12.464
60504W        W25489  17.137   0.227   1.882
60505W        W25490  39.615  36.328   1.651
60506W        W25491  24.356  22.397  11.526
60507W        W25492  10.773  36.303  12.881
60508W        W25493  14.284  18.817  11.201
60509W        W25494  10.115  27.442  14.310
60510W        W25495  12.140   0.080  12.527
60511W        W25496   5.205  37.916  11.482
60512W        W25497  27.164   9.716  13.561
60513W        W25498  31.486  24.927   2.428
60514W        W25499  36.818   7.414   0.791
60515W        W25500  24.036  39.042   1.860
60516W        W25501   8.855  40.315  13.444
60517W        W25502  40.300  13.580  12.965
60518W        W25503  25.657  29.014   4.998
60519W        W25504  16.040   6.266   1.946
60520W        W25505  34.171  29.624  12.571
60521W        W25506  21.282  33.758  12.319
60522W        W25507   4.639  29.531  14.222
60523W        W25508  14.754  23.259   0.328
60524W        W25509  20.516  18.408   1.460
60525W        W25510  14.343  18.460  10.416
60526W        W25511  37.985   2.809   2.863
60527W        W25512   5.264  20.874   2.596
60528W        W25513  11.137   9.723  12.972
60529W        W25514  27.426   8.761  12.846
60530W        W25515  19.694   6.708   1.869
60531W        W25516  28.319   0.504  12.092
60532W        W25517  27.189  13.125   1.912
60533W        W25518  29.550  21.020  12.978
60534W        W25519   9.274  39.021  11.466
60535W        W25520  24.535   5.146  14.371
60536W        W25521  21.009  22.112   2.309
60537W        W25522  39.316   4.259   4.448
60538W        W25523   1.505   4.167   1.445
60539W        W25524  35.569  35.562  12.313
60540W        W25525  25.622  37.489   4.578
60541W        W25526  10.748  33.106   3.311
60542W        W25527  21.684   2.585  11.450
60543W        W25528  10.480  23.853  13.948
60544W        W25529  44.226  17.222  12.185
60545W        W25530  17.812   4.621   5.430
60546W        W25531  28.518  20.340   1.309
60547W        W25532  30.137   5.697  11.174
60548W        W25533  12.715   2.021   0.953
60549W        W25534  13.229  28.567  11.449
60550W        W25535  12.594  37.162  13.074
60551W        W25536  24.902  41.501   1.438
60552W        W25537  34.357   3.774   2.324
60553W        W25538   4.429  20.184  12.389
60554W        W25539  33.108  35.979  12.930
60555W        W25540  17.570   1.385  11.181
60556W        W25541  27.799  21.375  10.801
60557W        W25542  16.819   1.067   3.599
60558W        W25543   5.841   3.191  14.245
60559W        W25544  11.248  25.704   2.426
60560W        W25545  40.517  28.080   1.487
60561W        W25546  17.627   4.056   3.489
60562W        W25547  41.966  17.188   1.118
60563W        W25548  25.729  33.080  12.615
60564W        W25549  23.075  20.259  13.430
60565W        W25550  17.516  19.299  14.429
60566W        W25551  19.063  44.406   1.812
60567W        W25552  20.701  30.026   2.359
60568W        W25553  16.436  26.152   0.474
60569W        W25554  14.771  28.497  12.976
60570W        W25555  25.923   9.324  14.503
60571W        W25556  35.993  40.681  11.380
60572W        W25557  18.802  31.399   1.023
60573W        W25558  19.660  35.988   9.719
60574W        W25559  12.182   4.253   3.699
60575W        W25560   6.111  28.998  14.730
60576W        W25561  29.897  44.800  13.775
60577W        W25562  19.386  31.867   3.615
60578W        W25563   3.377  26.639  12.671
60579W        W25564  42.338   6.471   4.275
60580W        W25565  21.592  14.182   0.425
60581W        W25566  35.977  31.175   1.453
60582W        W25567  30.417   5.768  11.600
60583W        W25568   3.587  22.174   3.628
60584W        W25569  24.160  11.590   3.790
60585W        W25570  11.638  41.464   1.461
60586W        W25571  11.403  39.781   4.161
60587W        W25572  24.321  15.119   2.270
60588W        W25573  41.061  18.078  13.344
60589W        W25574  28.911   8.431  11.679
60590W        W25575   1.306   5.179   1.392
60591W        W25576   5.187   4.639   5.060
60592W        W25577  27.420  29.559   3.223
60593W        W25578  10.340  31.457  10.546
60594W        W25579  35.715  10.287  13.482
60595W        W25580  34.159  22.041  14.716
60596W        W25581  26.747  13.601   0.239
60597W        W25582   0.505  28.081  13.457
60598W        W25583  32.315  41.123   2.623
60599W        W25584  44.489  18.074  14.882
60600W        W25585  16.342  15.576  10.706
60601W        W25586   0.490  32.555  12.106
60602W        W25587   4.424  12.929   1.542
60603W        W25588   5.445  14.821  14.980
60604W        W25589  11.123  26.104   1.268
60605W        W25590  13.553  29.804   9.863
60606W        W25591  26.993  23.516   1.826
60607W        W25592  32.133   2.342   0.929
60608W        W25593  29.515   5.676  11.610
60609W        W25594  10.277   5.324  11.950
60610W        W25595  20.581  15.924  10.741
60611W        W25596  35.112   3.681   4.795
60612W        W25597  22.002  44.387  11.743
60613W        W25598  16.868  18.111  13.978
60614W        W25599   4.625  20.619  13.432
60615W        W25600  43.623  28.796  13.432
60616W        W25601  21.961   0.989  10.883
60617W        W25602  44.398  11.173  10.819
60618W        W25603  41.431  23.740   1.686
60619W        W25604   7.367   9.673  14.613
60620W        W25605  34.520  20.483   3.177
60621W        W25606  41.696  14.056  11.106
60622W        W25607  30.681   2.495  11.520
60623W        W25608  24.935  25.397  11.734
60624W        W25609  44.411  13.098   1.890
60625W        W25610  31.353  21.114   4.173
60626W        W25611  32.840  40.434   2.004
60627W        W25612  17.682  23.071  13.885
60628W        W25613  20.696  24.543  12.998
60629W        W25614  15.248   2.805   0.198
60630W        W25615   3.647   2.625  12.024
60631W        W25616   6.511  17.302  13.389
60632W        W25617  33.583  15.302   0.350
60633W        W25618  24.090  26.921   1.203
60634W        W25619  16.754  39.820   2.900
60635W        W25620  38.117  16.334   3.226
60636W        W25621  32.153  20.153   0.906
60637W        W25622  44.999   5.404  12.489
60638W        W25623  41.501  12.371   3.294
60639W        W25624   8.675   7.026  13.967
60640W        W25625  25.975  26.660   4.105
60641W        W25626   3.251   9.875   2.548
60642W        W25627  16.846  35.953   1.826
60643W        W25628  16.984  25.862   4.538
60644W        W25629   5.701  33.938   4.126
60645W        W25630  24.506   1.269   1.420
60646W        W25631  43.340  40.584   2.070
60647W        W25632   9.113  32.433   1.042
60648W        W25633  16.663  14.542   4.684
60649W        W25634  28.666  20.365  12.524
60650W        W25635   8.576   2.455  12.057
60651W        W25636  27.098   7.273  13.138
60652W        W25637  31.872  43.906   2.798
60653W        W25638  39.990  35.855  13.463
60654W        W25639  32.559  25.625   4.593
60655W        W25640  39.556  26.736  10.796
60656W        W25641  44.463  17.083  10.942
60657W        W25642   8.128  36.878   1.227
60658W        W25643  18.428   7.820   3.717
60659W        W25644  41.196   1.035   0.301
60660W        W25645  16.061   0.638  11.573
60661W        W25646  29.764   2.022  10.152
60662W        W25647  42.728  41.537  10.694
60663W        W25648  10.648  10.129  14.093
60664W        W25649  11.917  16.050   3.242
60665W        W25650   9.048  41.784  14.911
60666W        W25651  30.708  15.496  13.502
60667W        W25652   3.994  25.097   1.642
60668W        W25653   1.730  27.384  11.977
60669W        W25654   9.107  28.934  13.031
60670W        W25655  36.617  27.507  10.574
60671W        W25656  42.946   0.835  14.766
60672W        W25657  17.297  33.169  12.296
60673W        W25658  16.415  40.940  11.905
60674W        W25659   1.976   4.868  12.544
60675W        W25660   7.889  37.438  11.452
60676W        W25661  11.847  40.477  12.088
60677W        W25662   4.906  13.150   4.641
60678W        W25663  13.895  41.651   3.813
60679W        W25664  23.910  22.800   3.310
60680W        W25665  23.246   9.072  11.803
60681W        W25666  35.112   9.502  14.485
60682W        W25667  29.902  26.685   1.398
60683W        W25668  25.746  14.434  10.373
60684W        W25669  29.890  33.995   0.007
60685W        W25670  41.430  39.499   2.240
60686W        W25671  15.549  38.142   0.226
60687W        W25672  40.084  43.964  12.988
60688W        W25673  33.121   6.868   0.178
60689W        W25674  42.071  10.155   0.375
60690W        W25675  42.658   3.748  12.260
60691W        W25676  30.224  31.741  12.941
60692W        W25677  33.433  40.528  11.174
60693W        W25678  13.533  31.447   2.866
60694W        W25679  13.566   0.422  14.817
60695W        W25680   0.903   8.205  11.561
60696W        W25681  11.672   7.890   4.302
60697W        W25682   0.775  26.469   3.190
60698W        W25683  40.888  37.170  14.633
60699W        W25684   5.881   1.719  11.262
60700W        W25685   9.071  38.052  11.761
60701W        W25686   7.688  18.855  13.438
60702W        W25687  18.211  40.572   4.681
60703W        W25688  27.479  13.352   2.805
60704W        W25689   1.638   8.320  10.915
60705W        W25690  12.278  27.651  12.997
60706W        W25691   6.776  34.344  14.484
60707W        W25692  23.077  12.197  13.313
60708W        W25693   9.194  22.002   3.355
60709W        W25694  23.536  33.508   1.248
60710W        W25695  31.106  28.372   4.581
60711W        W25696  15.365  12.357  12.316
60712W        W25697  24.269  11.797   4.264
60713W        W25698  41.751   5.344   3.198
60714W        W25699  38.604  38.344   0.034
60715W        W25700  29.136  41.027   2.284
60716W        W25701   1.200  27.900  12.464
60717W        W25702  23.790  31.131   0.691
60718W        W25703  13.728  37.781  12.512
60719W        W25704  32.849  35.972  10.529
60720W        W25705  21.972  21.731  14.910
60721W        W25706  38.018  23.790   1.831
60722W        W25707   7.220  44.703   0.809
60723W        W25708  44.805  16.165   0.285
60724W        W25709  24.682  17.853   0.917
60725W        W25710  34.480  13.601   2.148
60726W        W25711  22.782  34.072  12.371
60727W        W25712  31.722   2.015  13.570
60728W        W25713  15.090  40.750   1.879
60729W        W25714  12.949  37.500   0.170
60730W        W25715  18.476   8.777  14.244
60731W        W25716  41.575   2.465  12.471
60732W        W25717  28.543  24.569   1.660
60733W        W25718   2.168  23.623   0.819
60734W        W25719   2.450  22.824   1.941
60735W        W25720  35.783  31.448  12.972
60736W        W25721  25.499   3.735  12.097
60737W        W25722  44.438  39.430   3.160
60738W        W25723   7.673  15.251   2.761
60739W        W25724  31.117  27.798  13.429
60740W        W25725  13.793  26.131  13.990
60741W        W25726   0.541   5.973  14.492
60742W        W25727  38.930   6.244  11.860
60743W        W25728  21.477  18.123   2.303
60744W        W25729  12.078  31.645  11.647
60745W        W25730  29.491  24.074  11.154
60746W        W25731  20.898  43.852   4.882
60747W        W25732  31.539  10.763  13.310
60748W        W25733  37.331  19.777   3.027
60749W        W25734  27.651  30.149   9.944
60750W        W25735  42.780  38.290  12.544
60751W        W25736  35.186  21.718   1.360
60752W        W25737  42.557  21.692   2.311
60753W        W25738  23.676  27.538  14.776
60754W        W25739  12.905  24.240   1.461
60755W        W25740  15.326  25.831   5.017
60756W        W25741  23.962  26.683  11.202
60757W        W25742  26.816  17.531  12.559
60758W        W25743  43.323   7.095  11.484
60759W        W25744  35.197  11.284   5.046
60760W        W25745  34.017  38.776   3.618
60761W        W25746  17.205  26.546   3.861
60762W        W25747   2.362   1.067   4.448
60763W        W25748  42.154   8.924  13.445
60764W        W25749  43.275  32.178  13.150
60765W        W25750  43.501   5.501   3.468
60766W        W25751  11.485  18.174   0.354
60767W        W25752  14.514  25.158  11.260
60768W        W25753  31.407   4.975   4.147
60769W        W25754   6.233  39.337  13.248
60770W        W25755  34.973  31.197  11.828
60771W        W25756  37.537  18.531  10.693
60772W        W25757  10.221  36.445   1.039
60773W        W25758   0.060  34.959   1.761
60774W        W25759   1.636  17.199  11.945
60775W        W25760  18.861  24.031  14.149
60776W        W25761  43.465  15.735   0.228
60777W        W25762  43.889  18.897   1.826
60778W        W25763  27.309  39.906  12.310
60779W        W25764   3.870  32.495  13.428
60780W        W25765  16.056  18.362   3.522
60781W        W25766  10.190  34.149   3.830
60782W        W25767  27.043  22.797   1.245
60783W        W25768  35.253  30.721  11.952
60784W        W25769   6.182  10.318  14.082
60785W        W25770  34.847   0.221  11.518
60786W        W25771  35.418  26.894  11.230
60787W        W25772  12.891  15.250   0.042
60788W        W25773  36.831  18.725   1.494
60789W        W25774  20.937  27.639  11.110
60790W        W25775  28.708  24.630  11.061
60791W        W25776  26.375  41.372  10.789
60792W        W25777  11.233  35.083  11.330
60793W        W25778  27.585  13.117  12.618
60794W        W25779   4.644  35.908  11.143
60795W        W25780   1.630  15.879   4.149
60796W        W25781   4.544  18.072   0.932
60797W        W25782  11.212   9.176  10.770
60798W        W25783   2.012  17.184   2.752
60799W        W25784  25.139  36.014  11.639
60800W        W25785   0.019  37.303  10.749
60801W        W25786  33.524  24.630   2.136
60802W        W25787  38.789  38.462   2.895
60803W        W25788  35.916  38.824   0.405
60804W        W25789  19.086   7.902   2.510
60805W        W25790  32.986  15.292  14.875
60806W        W25791   4.540  14.862   0.375
60807W        W25792  41.883  13.280  13.350
60808W        W25793  14.741  42.493  14.393
60809W        W25794  36.435   6.901   1.785
60810W        W25795  12.054   3.958   2.360
60811W        W25796  23.840  30.966  13.992
60812W        W25797  11.084  29.721  11.352
60813W        W25798  30.034  27.171   2.450
60814W        W25799  24.601   4.964   0.745
60815W        W25800  31.856  19.361  14.476
60816W        W25801   0.285  44.622  10.500
60817W        W25802  12.624  42.752  11.559
60818W        W25803  31.145  13.175  10.682
60819W        W25804  34.033  12.608   2.099
60820W        W25805  16.823  20.207   9.601
60821W        W25806  28.095  39.986   3.708
60822W        W25807  39.305  27.505   3.596
60823W        W25808   1.441   8.751  12.105
60824W        W25809  38.968  12.792  12.273
60825W        W25810   0.990  32.189   3.182
60826W        W25811  22.483   4.967   4.186
60827W        W25812   2.856  17.044  12.910
60828W        W25813  30.738  36.344   0.005
60829W        W25814  12.824  29.934   2.651
60830W        W25815  36.930  22.215  14.183
60831W        W25816  14.641  25.243   0.486
60832W        W25817   2.776  12.081   3.990
60833W        W25818  43.703  22.017   2.328
60834W        W25819   9.251   2.043   3.690
60835W        W25820  14.359  31.707   9.838
60836W        W25821  19.313  32.681   2.439
60837W        W25822  34.920  21.490   3.425
60838W        W25823  25.779  40.677  11.637
60839W        W25824  10.582  40.387  11.125
60840W        W25825   6.662  18.709   3.872
60841W        W25826  27.930  10.318  14.760
60842W        W25827  27.560  26.494   0.494
60843W        W25828  42.518   2.266   1.799
60844W        W25829  33.808  34.580   0.980
60845W        W25830   1.283  24.674   3.279
60846W        W25831  28.759  29.541   0.493
60847W        W25832  15.313  29.517   1.697
60848W        W25833  26.672  25.654  12.327
60849W        W25834  34.481  40.466   3.187
60850W        W25835   5.768  11.994   1.393
60851W        W25836  22.566  28.409  14.697
60852W        W25837  37.517   3.913  11.208
60853W        W25838  12.690  42.121   3.851
60854W        W25839   6.982  29.815   0.891
60855W        W25840  36.467  27.109   4.546
60856W        W25841  28.486  40.325   1.005
60857W        W25842  44.735  29.082   2.709
60858W        W25843  11.801  33.144   4.823
60859W        W25844  35.652   0.251  13.373
60860W        W25845  30.041  29.874   5.200
60861W        W25846  15.162  35.362  12.089
60862W        W25847  21.967   1.559   0.223
60863W        W25848   8.336   4.366   0.005
60864W        W25849  41.271  10.099  12.490
60865W        W25850  21.492   1.913   0.966
60866W        W25851  33.895  36.469   4.598
60867W        W25852  13.567   3.216   3.582
60868W        W25853  39.604  13.427  11.614
60869W        W25854   7.163  34.649  11.197
60870W        W25855  35.472  32.437   1.895
60871W        W25856   3.835  22.255  11.128
60872W        W25857  31.920  37.853  13.599
60873W        W25858  26.642  29.640  13.467
60874W        W25859  38.423  13.147   3.865
60875W        W25860  10.177   3.774  12.782
60876W        W25861  33.963  29.621   3.702
60877W        W25862   3.765  31.355   3.743
60878W        W25863  35.345  43.820  13.020
60879W        W25864   3.304  35.288  12.941
60880W        W25865  38.126  23.633   2.823
60881W        W25866   8.362  31.974   0.200
60882W        W25867   4.539  29.572  11.050
60883W        W25868  15.435  43.120   1.284
60884W        W25869   1.245  24.423   1.816
60885W        W25870  18.326  28.878  11.597
60886W        W25871  35.156  24.695  12.068
60887W        W25872   4.280  31.603   2.423
60888W        W25873  33.857  39.585  14.981
60889W        W25874  30.428  13.737  14.986
60890W        W25875  34.324   5.460  11.086
60891W        W25876  30.060  42.673  14.822
60892W        W25877  16.085   1.793   1.947
60893W        W25878   8.114  33.451  10.304
60894W        W25879  42.830  44.682  12.832
60895W        W25880  18.168  29.397   2.360
60896W        W25881   0.037  38.166  10.984
60897W        W25882  19.209  37.633   2.108
60898W        W25883  19.272   9.157   0.303
60899W        W25884  35.020  18.310   2.814
60900W        W25885   2.105  22.762   0.732
60901W        W25886  36.007  25.963   4.710
60902W        W25887  29.135  29.674  12.514
60903W        W25888  39.340  41.433  11.436
60904W        W25889   9.142  23.543   0.422
60905W        W25890   8.182  44.008  12.590
60906W        W25891  43.744  10.651   1.253
60907W        W25892  37.214   2.190  12.889
60908W        W25893   9.609  14.235  10.788
60909W        W25894  36.882  42.254  12.163
60910W        W25895  22.748  13.038   1.272
60911W        W25896   3.227  25.469  12.930
60912W        W25897  15.783  44.355  13.832
60913W        W25898  38.789  39.418  12.873
60914W        W25899  25.580   9.126   1.057
60915W        W25900  19.406  30.435  13.974
60916W        W25901   7.912  22.125   0.486
60917W        W25902  26.061  24.209  14.002
60918W        W25903  24.079  22.222   4.225
60919W        W25904   5.463  24.432  14.557
60920W        W25905  42.328  16.827   0.466
60921W        W25906   7.118  17.776  13.842
60922W        W25907  16.947  31.179  12.392
60923W        W25908  35.026   8.924  12.494
60924W        W25909  14.674  22.037   3.738
60925W        W25910   5.902   8.693   3.748
60926W        W25911  13.921   4.182  11.512
60927W        W25912   1.669   9.937   3.810
60928W        W25913  11.745  10.126  13.538
60929W        W25914   6.272   2.609   3.697
60930W        W25915  39.057  33.078   2.217
60931W        W25916  16.053   2.295  12.781
60932W        W25917  32.201  28.457  14.962
60933W        W25918  29.998  31.643   4.142
60934W        W25919  17.925  36.320  12.619
60935W        W25920  18.525  36.571   0.753
60936W        W25921  36.958  35.452  10.574
60937W        W25922   6.766  13.082  12.838
60938W        W25923  18.529  44.830   4.088
60939W        W25924  29.172  16.518   1.703
60940W        W25925  43.278   6.213  14.038
60941W        W25926  23.288  32.178   1.273
60942W        W25927  28.037  33.001   2.181
60943W        W25928   8.611   0.757  13.372
60944W        W25929   4.743  35.517   4.407
60945W        W25930  20.086  35.342  14.627
60946W        W25931  26.660  28.842  13.871
60947W        W25932  35.274  28.639  12.491
60948W        W25933   7.150   3.672  11.808
60949W        W25934   4.443  38.128  10.304
60950W        W25935  40.300  19.307   1.169
60951W        W25936  17.087   8.343   2.824
60952W        W25937  20.664  10.095   3.361
60953W        W25938  21.419  35.272   1.349
60954W        W25939   8.772  25.130   1.793
60955W        W25940  28.537   0.808  12.438
60956W        W25941  10.515  43.065  11.564
60957W        W25942  23.209  17.855   2.040
60958W        W25943  29.656   3.171   4.558
60959W        W25944   4.426   8.336   2.929
60960W        W25945  19.649   8.791  11.177
60961W        W25946   7.314  42.264  14.550
60962W        W25947  18.649  25.699   4.476
60963W        W25948   4.785  30.138  13.545
60964W        W25949   4.654  25.004   3.750
60965W        W25950  44.997  26.193   1.941
60966W        W25951  24.546  41.991  11.584
60967W        W25952  20.634  44.150  11.984
60968W        W25953  37.769  14.236   0.651
60969W        W25954   7.157  11.476  13.350
60970W        W25955  29.942  42.527  12.043
60971W        W25956  19.513   4.298   2.692
60972W        W25957  24.114  42.973   4.755
60973W        W25958  37.046  41.811   4.673
60974W        W25959  11.448   2.569  14.891
60975W        W25960   6.461  42.954  14.861
60976W        W25961  32.170  44.945   3.117
60977W        W25962  17.605  32.986   3.293
60978W        W25963  21.446  21.872  14.779
60979W        W25964  29.489  13.097   1.370
60980W        W25965  16.240   5.787  12.158
60981W        W25966  40.973  31.494   4.531
60982W        W25967  44.857  28.278   2.636
60983W        W25968   3.419  19.542   1.322
60984W        W25969   0.385  14.169   4.923
60985W        W25970  39.284  22.529   3.895
60986W        W25971  23.893   5.493  14.776
60987W        W25972  34.700  10.418   2.375
60988W        W25973  21.038   0.030  13.396
60989W        W25974  13.356  18.273  10.560
60990W        W25975   4.234   9.774   0.778
60991W        W25976  16.594   4.538  10.320
60992W        W25977  13.720  11.752  13.003
60993W        W25978  22.269  20.432  11.907
60994W        W25979  34.512  37.151   4.094
60995W        W25980   3.194   9.433   3.766
60996W        W25981   6.235  34.470  13.330
60997W        W25982  39.331  33.330  14.558
60998W        W25983  43.061  10.082   1.694
60999W        W25984   3.879  35.570  12.419
61000W        W25985  35.828   0.804   4.152
61001W        W25986  40.889  10.683   0.345
61002W        W25987  29.619  11.854  11.204
61003W        W25988   5.921  35.579  10.453
61004W        W25989  35.002  43.597   2.751
61005W        W25990  24.974  13.345   3.190
61006W        W25991   5.266  14.640   2.179
61007W        W25992  30.979  44.493  10.914
61008W        W25993   3.205  19.139   2.690
61009W        W25994   6.751  42.226   4.596
61010W        W25995  19.681  23.240   4.103
61011W        W25996  14.213  28.996  11.051
61012W        W25997  16.850  35.792   0.231
61013W        W25998  40.262   1.924  12.510
61014W        W25999  11.873  20.573   0.988
61015W        W26000  18.066   0.916   2.115
61016W        W26001   0.432  15.692  14.297
61017W        W26002   4.634  16.361   0.215
61018W        W26003   0.555  13.552   4.200
61019W        W26004  16.810  37.468   4.412
61020W        W26005  13.512  42.927  14.687
61021W        W26006   3.913   7.528  12.598
61022W        W26007  10.812  15.855   2.388
61023W        W26008  19.656   2.268   4.231
61024W        W26009  13.239  10.024  12.477
61025W        W26010  36.374  25.270  12.266
61026W        W26011   0.229  33.549  12.317
61027W        W26012   9.919  41.905   4.235
61028W        W26013  43.077   4.833   2.667
61029W        W26014  31.106  25.048  13.315
61030W        W26015   1.046  38.407   1.300
61031W        W26016  15.452  13.610   4.036
61032W        W26017  10.414  21.929   0.447
61033W        W26018  12.024  13.743   3.003
61034W        W26019  26.735  12.845  10.698
61035W        W26020  39.579  29.456   3.373
61036W        W26021  38.859  39.767  13.814
61037W        W26022   0.523  21.477  11.552
61038W        W26023  35.810  23.526  10.716
61039W        W26024   8.172  26.964  10.459
61040W        W26025  18.592  30.043  13.045
61041W        W26026  12.009  14.685   3.473
61042W        W26027  33.129  31.488  12.052
61043W        W26028  32.121  43.794  10.617
61044W        W26029  39.831  44.894   2.637
61045W        W26030  22.055  13.675   4.407
61046W        W26031   8.186  25.211   4.650
61047W        W26032  34.154   2.748  10.775
61048W        W26033  33.647   1.049  12.615
61049W        W26034  15.762  39.358   3.600
61050W        W26035  40.001  39.800  13.478
61051W        W26036  25.535  11.180   0.793
61052W        W26037   6.624   6.951   4.116
61053W        W26038  12.084  29.049   3.035
61054W        W26039  15.502  27.329   0.019
61055W        W26040  39.455   7.125   0.212
61056W        W26041  39.370  22.490   2.888
61057W        W26042   0.979  40.549  12.045
61058W        W26043   6.340  18.033   1.520
61059W        W26044   2.334  31.863   3.735
61060W        W26045  14.604  17.595  11.414
61061W        W26046  17.842   9.613  14.343
61062W        W26047  42.231  22.170   0.960
61063W        W26048   3.729  34.611  14.745
61064W        W26049  28.984  24.005   2.399
61065W        W26050  29.668  41.388   0.699
61066W        W26051   0.364  34.910  14.050
61067W        W26052  43.209  29.369   3.696
61068W        W26053  38.760  40.314  13.091
61069W        W26054   5.703  23.159   1.093
61070W        W26055  42.734   3.713   4.579
61071W        W26056   7.989  15.362   0.338
61072W        W26057  22.318  40.312   2.018
61073W        W26058  35.391  43.331   4.091
61074W        W26059  18.960  16.055   1.902
61075W        W26060   2.716  15.380  11.374
61076W        W26061  14.573  12.805   1.871
61077W        W26062   0.493  36.058  10.675
61078W        W26063  44.559  32.426   0.364
61079W        W26064  35.299  37.661   2.398
61080W        W26065   0.951   3.028   0.789
61081W        W26066  33.535  25.074   2.784
61082W        W26067  44.728  27.938  14.937
61083W        W26068  34.417  26.323   5.041
61084W        W26069  44.797  38.648  12.596
61085W        W26070   8.761  33.945   0.449
61086W        W26071  42.907   3.919   3.646
61087W        W26072  31.440  25.941   0.780
61088W        W26073   1.462  39.059  10.744
61089W        W26074  27.600  17.566  14.978
61090W        W26075  28.352  19.255  14.968
61091W        W26076  29.090  16.258  11.044
61092W        W26077  39.076  21.182   3.644
61093W        W26078  36.874  28.604  11.985
61094W        W26079  37.871  17.956  11.907
61095W        W26080  42.715   0.948   0.636
61096W        W26081  27.006  22.202   2.099
61097W        W26082  27.757  21.700  12.069
61098W        W26083  42.677  40.375   1.079
61099W        W26084  39.755  34.711   2.262
61100W        W26085  13.267   8.061  13.856
61101W        W26086  19.766  31.493  11.436
61102W        W26087  24.249   4.891   0.308
61103W        W26088  30.660  15.578  11.134
61104W        W26089  21.670  13.589   3.783
61105W        W26090   4.438  35.383   2.160
61106W        W26091   1.918  39.429  10.760
61107W        W26092  10.572  19.547  10.729
61108W        W26093  22.680  15.609   3.954
61109W        W26094  20.059  35.302   2.198
61110W        W26095  21.288  24.089   2.288
61111W        W26096  28.565  15.541   0.323
61112W        W26097  25.470  19.417   5.157
61113W        W26098  25.471   7.616  11.369
61114W        W26099  16.721  23.717   4.344
61115W        W26100  28.591  27.945  12.408
61116W        W26101  37.659  15.855  11.195
61117W        W26102   5.472   7.598  14.088
61118W        W26103  23.573  40.870   0.300
61119W        W26104  10.776   4.225  10.540
61120W        W26105  13.408  36.435  11.186
61121W        W26106   1.532   3.198   2.554
61122W        W26107   8.989   4.404   1.282
61123W        W26108  41.503  28.429   0.552
61124W        W26109  19.570  13.309   3.876
61125W        W26110  10.232   3.880   3.826
61126W        W26111  23.655  12.686   4.129
61127W        W26112   1.006  25.232   1.415
61128W        W26113  25.101  39.981  11.603
61129W        W26114  16.195  40.426   3.150
61130W        W26115  14.695  38.847   2.950
61131W        W26116   4.523   9.300  10.380
61132W        W26117  12.734  20.774   4.066
61133W        W26118  19.981  34.962  10.962
61134W        W26119  39.592  22.915   5.537
61135W        W26120  31.435  33.541  10.748
61136W        W26121  36.593  19.973  14.514
61137W        W26122  18.844  43.296   1.023
61138W        W26123  14.443  18.433  13.335
61139W        W26124  12.061  14.602  10.817
61140W        W26125  35.539  15.586   4.088
61141W        W26126   6.443  34.028  11.048
61142W        W26127  33.388  19.322   2.483
61143W        W26128  11.558   5.274  13.282
61144W        W26129  11.613  38.458  12.221
61145W        W26130  18.213  11.148   0.666
61146W        W26131  11.557  29.138   0.386
61147W        W26132  31.021   3.340  11.681
61148W        W26133  33.879   3.931  12.405
61149W        W26134  25.691   7.187   3.304
61150W        W26135   9.851  24.420   0.439
61151W        W26136  29.198  27.323   3.318
61152W        W26137  25.770  13.675   2.181
61153W        W26138  29.093  24.531   0.801
61154W        W26139  39.661  27.546   3.218
61155W        W26140  41.851  40.124   0.237
61156W        W26141  37.307  28.090   2.360
61157W        W26142   5.842  18.487   0.183
61158W        W26143  33.487  31.510  12.645
61159W        W26144  19.872  38.258  11.689
61160W        W26145  30.965   4.864   2.534
61161W        W26146   6.166  40.941   1.960
61162W        W26147  39.397  41.024   0.440
61163W        W26148  36.885  43.873  10.695
61164W        W26149  11.599   9.251   3.308
61165W        W26150  14.724  31.793  12.478
61166W        W26151   9.071   9.766  11.367
61167W        W26152  21.095  25.269   1.806
61168W        W26153  16.819  26.989   1.578
61169W        W26154  26.346  16.728  12.431
61170W        W26155  16.617  33.362   3.028
61171W        W26156  38.400  10.472   4.241
61172W        W26157  43.466  10.186  14.274
61173W        W26158  16.421  23.407  13.267
61174W        W26159  43.478  18.662   3.690
61175W        W26160  20.208  14.717   0.011
61176W        W26161  32.571   4.920  12.418
61177W        W26162  44.098  15.750  12.176
61178W        W26163  10.149   4.242  13.920
61179W        W26164   6.155   7.471   2.174
61180W        W26165  12.337  26.136  12.902
61181W        W26166  29.837  16.952  11.182
61182W        W26167  34.081   8.980  12.619
61183W        W26168   5.458  19.700  11.436
61184W        W26169  37.405  31.997   0.111
61185W        W26170  39.374  33.033   3.098
61186W        W26171   5.666   6.167   1.207
61187W        W26172  41.604   9.409  11.982
61188W        W26173  10.676  12.447  14.966
61189W        W26174  44.814   7.864   1.378
61190W        W26175   9.512   3.386   1.007
61191W        W26176   4.400  10.288   4.067
61192W        W26177   3.128   1.883  12.741
61193W        W26178  28.383   3.803   0.937
61194W        W26179  21.663  15.898  12.531
61195W        W26180   6.552  29.291   4.301
61196W        W26181   4.255  30.927  10.932
61197W        W26182  23.982   3.949   1.428
61198W        W26183   0.116  28.339  12.902
61199W        W26184  24.149   7.998   1.676
61200W        W26185  12.802  32.532  12.049
61201W        W26186  40.740  11.821   2.209
61202W        W26187  44.159  20.895  14.470
61203W        W26188  30.119  14.230   2.483
61204W        W26189   1.995  35.462   2.277
61205W        W26190  33.489  42.378   2.861
61206W        W26191  38.918  39.269  10.448
61207W        W26192  43.532   0.845  11.600
61208W        W26193  36.556  29.870  12.562
61209W        W26194  14.375   8.699   0.300
61210W        W26195  21.740  34.127   0.446
61211W        W26196   1.310  10.600   3.624
61212W        W26197  25.339  33.960  12.175
61213W        W26198  21.240   7.665  14.032
61214W        W26199  34.096  36.329  10.745
61215W        W26200  35.397   1.029  11.657
61216W        W26201  42.895  41.586   0.997
61217W        W26202   5.578  15.997   2.142
61218W        W26203  43.126  20.107  13.705
61219W        W26204  30.865  19.583  11.508
61220W        W26205  15.090  33.610   4.305
61221W        W26206  25.475  25.065   4.553
61222W        W26207  35.297  38.110  10.741
61223W        W26208  22.544  10.725   4.915
61224W        W26209  37.767  44.751  14.200
61225W        W26210  28.249  20.512   0.361
61226W        W26211  26.269  16.860   2.250
61227W        W26212   1.911  35.797   1.821
61228W        W26213  22.502  20.208  12.754
61229W        W26214  11.092   3.527  14.908
61230W        W26215   5.522  26.135  12.777
61231W        W26216   7.665  44.352  12.532
61232W        W26217  24.666  19.545   3.250
61233W        W26218  26.712  25.148   3.136
61234W        W26219   9.135  40.005   2.665
61235W        W26220  44.207  27.896  12.607
61236W        W26221  29.009  11.214   0.565
61237W        W26222  35.928  44.052   0.594
61238W        W26223  33.733  36.096  10.444
61239W        W26224  29.850  44.971  10.142
61240W        W26225  14.557  22.985   2.617
61241W        W26226  28.858  12.450   2.295
61242W        W26227  16.760  25.951   2.129
61243W        W26228  33.076   5.260  14.019
61244W        W26229  18.138  21.875   4.201
61245W        W26230  42.282   9.775  14.192
61246W        W26231  21.758  15.282  10.634
61247W        W26232  37.379  21.603  12.865
61248W        W26233  13.684  17.977   4.652
61249W        W26234  32.499  39.076  14.877
61250W        W26235  34.395   2.870  14.374
61251W        W26236  20.163  24.861   3.772
61252W        W26237  10.172  11.426   1.778
61253W        W26238  17.618   7.970   4.789
61254W        W26239  16.291  38.335  10.611
61255W        W26240   3.655  40.887  10.757
61256W        W26241   3.234  21.203   3.548
61257W        W26242  14.651  16.459   1.766
61258W        W26243  20.898  10.089  14.514
61259W        W26244  40.490   0.714   4.182
61260W        W26245   5.362   1.667   4.600
61261W        W26246  12.774  15.160   3.785
61262W        W26247   5.722  22.710   0.775
61263W        W26248  28.196  18.801   0.426
61264W        W26249   8.775  11.702  13.560
61265W        W26250  26.055   9.355   2.744
61266W        W26251  36.932  36.441   1.935
61267W        W26252  25.064  15.366   1.847
61268W        W26253   5.291  22.493  12.170
61269W        W26254  28.619   1.194  12.077
61270W        W26255   9.751  38.939   4.194
61271W        W26256  18.074  11.936   1.544
61272W        W26257  40.709  22.677  10.768
61273W        W26258   3.483  10.958   4.942
61274W        W26259  34.363  23.375  13.054
61275W        W26260  30.204   7.647  10.478
61276W        W26261  22.026  32.548  12.461
61277W        W26262  29.962   1.120  12.660
61278W        W26263  23.248  39.122  11.912
61279W        W26264  10.688  27.700   4.605
61280W        W26265  16.271  43.831  14.496
61281W        W26266   4.398  13.059   2.301
61282W        W26267   3.966  29.807   0.678
61283W        W26268  22.670  35.032   2.406
61284W        W26269   6.375  17.536   3.241
61285W        W26270   5.342   5.099   2.650
61286W        W26271   6.666   2.864  12.794
61287W        W26272  17.246  21.573   1.199
61288W        W26273  15.072  26.638   0.485
61289W        W26274  32.810  22.586  11.535
61290W        W26275  41.426  28.232   2.902
61291W        W26276  44.398  25.906  10.303
61292W        W26277  18.181  27.687  13.123
61293W        W26278  17.754  40.711  10.431
61294W        W26279  29.723  24.531  11.110
61295W        W26280   8.384  19.950  13.790
61296W        W26281  41.470   7.367  12.075
61297W        W26282   7.359  32.957  13.145
61298W        W26283  33.627  25.969  13.104
61299W        W26284  32.127  22.886  12.973
61300W        W26285   0.763  21.613  12.797
61301W        W26286   8.904  19.102   0.014
61302W        W26287  32.975   9.787  12.473
61303W        W26288  22.145   9.187   3.089
61304W        W26289  26.542  18.147  12.715
61305W        W26290  32.937  15.261   3.635
61306W        W26291  24.708  10.410   1.918
61307W        W26292  33.420  16.225   4.302
61308W        W26293   9.946  14.835  13.967
61309W        W26294   8.545  14.829   4.986
61310W        W26295  17.317  18.520   1.013
61311W        W26296  32.740  36.355  13.012
61312W        W26297  16.868  25.073   3.900
61313W        W26298   6.932  43.747   4.631
61314W        W26299  35.758  11.840   5.253
61315W        W26300   0.650   6.572  14.442
61316W        W26301  15.750  24.779  11.946
61317W        W26302   6.365  44.284  14.752
61318W        W26303  32.577  40.512  12.543
61319W        W26304   1.880  33.157   3.784
61320W        W26305  26.820  40.096  12.362
61321W        W26306  17.586  31.482   2.701
61322W        W26307  26.775   1.418  11.291
61323W        W26308  38.837  19.767   2.765
61324W        W26309  17.191  40.895  14.994
61325W        W26310  11.335  10.860  13.935
61326W        W26311  40.849  40.073   2.731
61327W        W26312  31.202  36.810  14.356
61328W        W26313  34.183  34.366  14.587
61329W        W26314  34.604  25.612  10.749
61330W        W26315  33.978  35.857   4.696
61331W        W26316  40.941  26.630  11.102
61332W        W26317  19.306  11.119  14.805
61333W        W26318  26.103  38.718  10.937
61334W        W26319  31.101  16.370   2.440
61335W        W26320  31.435   9.634   3.716
61336W        W26321   9.179  20.965  10.657
61337W        W26322  14.683  11.786   0.162
61338W        W26323   6.174  28.713   0.911
61339W        W26324  32.182  27.153   3.730
61340W        W26325   7.122   3.875   1.672
61341W        W26326  36.082  31.393  13.376
61342W        W26327   5.906  13.239   4.546
61343W        W26328  25.711  41.794   3.558
61344W        W26329  31.863  37.657   3.625
61345W        W26330   0.359   0.825  11.620
61346W        W26331  28.394  18.060  14.421
61347W        W26332  38.120  16.564   3.688
61348W        W26333  29.079  15.506  11.532
61349W        W26334  29.829  39.893   1.805
61350W        W26335  38.083  40.423  10.539
61351W        W26336  36.806  20.593   3.603
61352W        W26337  14.323  42.220  14.918
61353W        W26338   7.176  23.678  12.968
61354W        W26339  15.155  14.587  12.919
61355W        W26340  26.285  11.495   5.097
61356W        W26341  12.883   1.418  13.129
61357W        W26342  20.098  37.054   2.247
61358W        W26343  13.201  43.243   3.844
61359W        W26344   6.351  44.016  12.712
61360W        W26345   7.013   1.004  13.974
61361W        W26346  23.684  11.826   3.713
61362W        W26347   2.216  32.928   2.942
61363W        W26348  37.937  39.039   3.219
61364W        W26349  30.378  14.067  13.580
61365W        W26350  17.150  14.397   3.744
61366W        W26351   9.726  34.134   4.520
61367W        W26352  39.195  42.480  10.012
61368W        W26353  33.594  10.350  11.167
61369W        W26354  32.471   9.639  10.189
61370W        W26355  43.507  17.522   0.634
61371W        W26356   2.788  21.577  12.445
61372W        W26357  33.571  20.547   2.379
61373W        W26358   6.731  35.815  14.178
61374W        W26359  43.298  28.116  14.785
61375W        W26360  43.487  17.682   1.163
61376W        W26361  23.737  35.032  11.879
61377W        W26362  14.228  44.899  10.732
61378W        W26363  33.967  44.416   4.360
61379W        W26364  11.703  24.813  14.359
61380W        W26365   0.410   0.316  13.425
61381W        W26366  25.564  17.823  14.976
61382W        W26367   5.818  11.420  14.807
61383W        W26368  32.012  44.873   0.351
61384W        W26369  43.872  39.789  14.870
61385W        W26370  33.095  23.141  10.506
61386W        W26371  29.588  34.391   4.076
61387W        W26372  14.277  33.620   4.507
61388W        W26373  10.040  44.723  11.208
61389W        W26374   2.239  32.067  14.781
61390W        W26375  39.135   9.209   4.187
61391W        W26376   4.839  15.620   3.074
61392W        W26377   7.229   9.408   2.211
61393W        W26378  35.423   5.852  10.486
61394W        W26379  32.071  33.140  14.918
61395W        W26380  19.190   2.931   0.992
61396W        W26381  22.551  32.329   2.698
61397W        W26382  43.294  16.737   0.308
61398W        W26383   1.463  40.979  10.666
61399W        W26384   4.410  23.967   1.366
61400W        W26385  13.363  27.162  13.869
61401W        W26386  20.128  27.245  14.428
61402W        W26387   3.344  23.204   0.030
61403W        W26388  20.467   4.187  14.423
61404W        W26389  12.350  36.375   3.863
61405W        W26390  36.431  14.051   3.900
61406W        W26391  41.082  38.519   1.160
61407W        W26392  43.075  33.125   3.730
61408W        W26393   4.895  37.885  13.325
61409W        W26394  43.845  42.235  11.556
61410W        W26395  39.931  26.642  12.931
61411W        W26396  33.889  29.226  13.433
61412W        W26397  41.076   1.682   0.892
61413W        W26398  22.439   2.311   2.598
61414W        W26399  13.065  40.391   4.109
61415W        W26400  17.064   8.706   0.322
61416W        W26401   0.490  23.588   2.892
61417W        W26402   7.310  10.338   3.714
61418W        W26403  13.961  16.373  12.739
61419W        W26404  34.415  37.647  13.108
61420W        W26405   7.154  38.022  10.685
61421W        W26406   3.191  10.869   1.237
61422W        W26407  20.819  10.142   2.469
61423W        W26408  35.550  39.080  12.142
61424W        W26409   2.729   3.791   1.294
61425W        W26410  11.953  16.048  13.398
61426W        W26411  42.463  36.613  14.964
61427W        W26412   4.453   2.740   1.443
61428W        W26413   0.751  44.578  14.533
61429W        W26414  22.625  17.458  12.569
61430W        W26415  29.938   0.040  12.495
61431W        W26416  17.641  41.695  10.858
61432W        W26417  29.753  31.630   3.230
61433W        W26418  44.957  28.391  14.759
61434W        W26419  27.456  37.482  11.489
61435W        W26420   4.237   3.935  12.989
61436W        W26421  28.597  42.280  14.323
61437W        W26422  24.438  34.866  14.493
61438W        W26423  41.867   0.715  12.829
61439W        W26424  35.083  15.552   3.202
61440W        W26425  12.760  11.108  13.938
61441W        W26426  36.934  29.175  14.238
61442W        W26427  30.118  32.795  11.989
61443W        W26428  22.569  10.198   0.251
61444W        W26429  29.182  37.590   1.778
61445W        W26430  35.627  14.020   1.895
61446W        W26431  28.994  13.236  14.622
61447W        W26432  13.630  22.599   2.472
61448W        W26433  35.096  26.429   1.108
61449W        W26434  34.179  27.750   4.195
61450W        W26435   9.613   7.238  10.567
61451W        W26436  17.525   8.249   1.070
61452W        W26437  12.746   4.527  13.394
61453W        W26438  11.226   6.019   3.570
61454W        W26439  41.598  40.576   0.309
61455W        W26440   0.296  36.161  12.448
61456W        W26441  26.602  23.097   1.877
61457W        W26442  13.402   4.708   2.228
61458W        W26443  30.614  16.424   2.260
61459W        W26444  38.118  41.317  10.830
61460W        W26445  25.663  37.301  14.316
61461W        W26446  22.169  10.492  12.946
61462W        W26447  32.742   8.221  14.324
61463W        W26448  24.751  40.436   4.135
61464W        W26449  14.088  21.795  12.098
61465W        W26450   5.833  30.078  10.875
61466W        W26451  18.125  26.541   3.528
61467W        W26452   0.542  28.014   1.305
61468W        W26453   2.102   5.998   2.776
61469W        W26454  22.726  39.636   2.610
61470W        W26455   9.331  26.218   3.590
61471W        W26456  44.360  10.699  14.401
61472W        W26457  29.216  36.397  11.273
61473W        W26458  35.328  25.999  13.942
61474W        W26459  35.305  39.511   1.310
61475W        W26460  44.248   2.900   4.801
61476W        W26461  26.672  21.807  10.914
61477W        W26462  24.608  19.240  11.247
61478W        W26463  35.110   5.006  14.478
61479W        W26464  33.367  25.136   1.425
61480W        W26465  22.109  26.149  14.670
61481W        W26466  32.487  18.254  10.806
61482W        W26467  21.109   5.193  11.660
61483W        W26468  15.812  17.169  13.559
61484W        W26469  33.955  31.583  11.449
61485W        W26470  22.776  33.056  13.861
61486W        W26471  17.718  40.171  11.624
61487W        W26472   5.916  21.070  10.035
61488W        W26473  24.377  41.345   0.526
61489W        W26474  28.868  43.491  12.971
61490W        W26475  10.206  40.712  12.064
61491W        W26476  14.639   0.222  10.695
61492W        W26477   3.220  17.988   1.249
61493W        W26478  13.142  22.629   2.681
61494W        W26479  35.075  21.562   2.909
61495W        W26480  13.387  22.984  13.932
61496W        W26481  32.993  27.630  12.499
61497W        W26482  17.224  12.464  12.814
61498W        W26483  11.363  24.027  13.433
61499W        W26484   0.065  38.922   2.098
61500W        W26485  30.893  26.358   1.366
61501W        W26486   3.928  42.106   4.515
61502W        W26487  15.054  16.811  13.058
61503W        W26488  37.561  11.189  14.191
61504W        W26489  26.158  41.529  12.303
61505W        W26490  23.318  25.695  13.395
61506W        W26491  10.872  26.960   2.334
61507W        W26492  12.094   4.392   2.667
61508W        W26493  22.596  15.324   3.370
61509W        W26494  37.387  34.407  12.861
61510W        W26495   4.290  44.853   0.229
61511W        W26496  44.026  27.433  12.798
61512W        W26497  33.682  37.964  12.881
61513W        W26498  18.100  38.913   3.614
61514W        W26499  23.946  27.425   1.259
61515W        W26500  27.264   7.329   3.369
61516W        W26501  36.065  43.286  11.032
61517W        W26502  10.727   0.037  13.683
61518W        W26503  24.575  20.378   1.146
61519W        W26504   7.354  10.721   4.831
61520W        W26505   6.756  22.064  13.870
61521W        W26506  36.378   3.327   4.506
61522W        W26507  23.044  26.223   3.209
61523W        W26508  25.212  15.468   2.653
61524W        W26509  23.927  20.495   3.692
61525W        W26510  30.890  28.613   0.714
61526W        W26511  25.756  19.504  14.257
61527W        W26512  25.074  27.939  12.050
61528W        W26513  37.032  15.605   3.237
61529W        W26514  25.433  12.159  13.674
61530W        W26515  40.083  40.578  13.953
61531W        W26516  37.000  24.570   4.237
61532W        W26517  19.692  25.242  11.570
61533W        W26518  40.230  31.951   4.506
61534W        W26519  29.782  15.711  13.412
61535W        W26520  10.181  22.559  11.899
61536W        W26521  29.209  10.731   0.456
61537W        W26522   4.343  29.152  12.852
61538W        W26523   4.198  15.488  13.349
61539W        W26524   6.806  20.123  10.415
61540W        W26525  14.839   4.908  14.763
61541W        W26526  29.032  31.173  12.720
61542W        W26527  26.972  13.121   0.294
61543W        W26528  14.700  17.665  14.842
61544W        W26529  32.627  10.208   0.191
61545W        W26530  42.873  35.054  13.690
61546W        W26531  19.133  27.101   0.426
61547W        W26532  20.232  42.840  10.253
61548W        W26533  28.586  10.934  10.876
61549W        W26534   0.232  44.778   4.095
61550W        W26535  18.997  31.849   4.955
61551W        W26536  43.260  36.436   1.701
61552W        W26537  21.103   2.254  10.655
61553W        W26538  39.395  19.188   2.437
61554W        W26539  39.568  31.946   1.408
61555W        W26540  11.224   2.444  13.096
61556W        W26541  38.277  10.386  10.268
61557W        W26542  14.906  35.431  14.879
61558W        W26543  27.006  39.181  13.537
61559W        W26544  44.265  11.855  13.894
61560W        W26545  10.301  35.941   4.835
61561W        W26546  15.269  44.765   0.225
61562W        W26547  24.470  21.964  11.948
61563W        W26548  31.975  34.215  14.925
61564W        W26549  24.563  36.938   0.983
61565W        W26550   5.494  38.753  11.483
61566W        W26551   3.389  17.050  13.561
61567W        W26552  36.385  33.594  10.605
61568W        W26553  29.723  40.885   4.699
61569W        W26554  13.359  31.001   3.692
61570W        W26555  21.701  19.709   9.899
61571W        W26556  24.905   6.400   3.755
61572W        W26557  14.296  39.791  10.585
61573W        W26558  11.244  15.002   2.170
61574W        W26559  33.418  24.939   3.633
61575W        W26560  21.158  18.726   2.825
61576W        W26561  38.406  10.173  12.003
61577W        W26562  34.997  22.735   1.083
61578W        W26563  16.078  15.701   3.206
61579W        W26564  39.802  32.623   0.929
61580W        W26565  10.440   3.856  11.829
61581W        W26566  17.792  14.494   1.339
61582W        W26567  30.286  30.488   3.719
61583W        W26568  10.625   5.451  13.396
61584W        W26569   0.549   2.492  12.051
61585W        W26570  16.403   3.727   9.951
61586W        W26571   7.225   1.870  13.429
61587W        W26572  23.566   0.543   3.263
61588W        W26573  44.818  14.351   2.325
61589W        W26574  33.087  33.442  12.080
61590W        W26575  39.771   1.308  10.621
61591W        W26576  37.019   7.994   2.382
61592W        W26577  26.458  39.637   0.275
61593W        W26578  44.680  12.762   0.816
61594W        W26579  41.389   6.261   0.056
61595W        W26580   5.746  30.425  14.647
61596W        W26581   4.400  10.547   3.593
61597W        W26582   7.337  11.903  11.641
61598W        W26583  25.360  42.822   1.337
61599W        W26584  42.765  11.093   1.820
61600W        W26585  20.179   2.186  10.707
61601W        W26586   3.924  14.379   4.714
61602W        W26587  17.367  39.038  12.761
61603W        W26588  17.245  38.551  12.632
61604W        W26589  36.800  15.001   2.607
61605W        W26590   8.716  29.507  12.494
61606W        W26591  22.920  39.316  10.632
61607W        W26592  27.661  35.072  11.952
61608W        W26593   3.349   5.249   2.620
61609W        W26594  28.381  37.040  14.376
61610W        W26595  25.689  34.884   1.555
61611W        W26596  38.315   8.017   0.288
61612W        W26597  40.633  33.895   0.438
61613W        W26598  30.844  10.632   2.788
61614W        W26599  15.570  42.942   0.815
61615W        W26600  16.826   7.866  12.128
61616W        W26601  41.431  11.163  13.790
61617W        W26602  43.944  11.893   3.254
61618W        W26603  35.640  26.932   1.842
61619W        W26604  33.618  43.294   2.871
61620W        W26605   0.703  22.191   0.534
61621W        W26606   3.999   3.694   2.176
61622W        W26607  43.252  44.688  13.165
61623W        W26608  11.936  13.803   4.629
61624W        W26609  43.817  21.958  14.810
61625W        W26610   8.726  39.651   2.745
61626W        W26611   3.979   9.821  13.602
61627W        W26612  24.784  23.258  12.395
61628W        W26613  40.513  39.829  13.483
61629W        W26614  43.314  42.012  10.509
61630W        W26615  34.934  40.929  13.451
61631W        W26616  16.028  37.405   0.391
61632W        W26617  15.072  13.078   1.365
61633W        W26618   0.941   8.084  14.147
61634W        W26619  40.128  15.342   3.622
61635W        W26620  16.517  17.972   4.170
61636W        W26621  29.414  28.445  13.528
61637W        W26622  16.210  18.315  10.419
61638W        W26623  35.674  18.762  11.566
61639W        W26624  29.575  37.122   3.261
61640W        W26625  24.235  19.042  12.554
61641W        W26626   4.818  20.350   1.906
61642W        W26627  24.636  16.358   0.858
61643W        W26628   0.823  24.217   2.699
61644W        W26629  44.505  30.141   4.571
61645W        W26630   8.904  40.912   2.263
61646W        W26631   0.880  15.932  14.454
61647W        W26632   7.077   1.940  11.935
61648W        W26633   5.044  23.354   4.688
61649W        W26634  31.513  26.807   1.874
61650W        W26635  23.211  17.041   0.820
61651W        W26636  40.978  44.569   2.752
61652W        W26637   0.440  33.194   2.409
61653W        W26638  37.543  19.095  14.566
61654W        W26639  18.465  30.694   0.521
61655W        W26640  33.406  19.428   3.822
61656W        W26641  27.132  27.951   4.918
61657W        W26642  10.031   0.175   1.511
61658W        W26643  34.009  16.036   2.329
61659W        W26644  27.070  32.489   0.374
61660W        W26645  28.250  30.124  13.465
61661W        W26646  26.249  33.081   0.753
61662W        W26647  17.206  26.487   0.254
61663W        W26648  15.802  17.281  11.278
61664W        W26649  34.957  29.914   2.627
61665W        W26650  31.359   1.749  13.062
61666W        W26651  42.483  30.949  12.362
61667W        W26652   4.451  30.789   3.798
61668W        W26653  26.712  10.865  14.070
61669W        W26654   7.254  40.331  13.795
61670W        W26655  39.526  27.139   1.880
61671W        W26656  18.681  37.311   2.231
61672W        W26657  26.157  37.517   2.155
61673W        W26658  16.083  37.960   4.014
61674W        W26659  12.898  23.425  13.484
61675W        W26660  34.500   3.814   2.830
61676W        W26661   8.614   4.306   1.978
61677W        W26662  17.492  37.461   2.411
61678W        W26663  44.328  32.347  13.080
61679W        W26664  43.291  42.966  10.808
61680W        W26665   2.162   3.818  13.127
61681W        W26666  42.480  17.443  11.137
61682W        W26667   4.603  14.108  12.260
61683W        W26668  13.633  41.759   2.495
61684W        W26669   9.453  37.091   0.313
61685W        W26670  12.884  24.061   0.558
61686W        W26671   4.166  20.247  11.007
61687W        W26672  20.674  22.582   1.525
61688W        W26673  34.088  19.347   1.811
61689W        W26674   2.227  17.570  13.943
61690W        W26675  41.908  21.575  12.531
61691W        W26676  22.745  27.598  10.640
61692W        W26677  21.045  17.346  12.826
61693W        W26678  23.271  14.806  11.526
61694W        W26679  36.881  24.145   4.565
61695W        W26680   7.918  28.112  14.644
61696W        W26681   3.429  44.423  11.389
61697W        W26682  21.054   2.421   1.281
61698W        W26683  35.373  13.049   2.759
61699W        W26684   4.274  20.103  11.472
61700W        W26685   6.012  29.077   1.247
61701W        W26686  44.085  28.205  13.442
61702W        W26687   8.721  23.178  13.272
61703W        W26688  30.955  41.568   2.228
61704W        W26689  36.830  31.133   3.105
61705W        W26690  39.788  35.381  12.924
61706W        W26691  24.783  26.133  14.383
61707W        W26692  11.678  13.433   4.949
61708W        W26693   1.986  34.909   2.203
61709W        W26694  41.346  28.063   2.400
61710W        W26695  18.071  30.464  11.429
61711W        W26696  23.245  21.935  11.084
61712W        W26697  38.338   6.696   4.888
61713W        W26698  20.343  35.324   3.580
61714W        W26699  36.332  19.587  11.486
61715W        W26700  13.765  36.969  11.310
61716W        W26701  30.368  16.304  12.110
61717W        W26702  42.097  20.238  12.943
61718W        W26703  43.742   8.781   1.698
61719W        W26704   3.221  39.508   2.158
61720W        W26705  39.951  35.154  12.485
61721W        W26706   4.802  29.106   5.025
61722W        W26707  28.152  40.641  11.927
61723W        W26708  36.902   4.938  14.850
61724W        W26709   0.695  33.635   4.216
61725W        W26710  37.440   8.926   3.303
61726W        W26711  33.508  32.665  12.820
61727W        W26712   0.525  32.992  10.187
61728W        W26713  31.882   8.104   3.151
61729W        W26714  29.020  25.293  12.091
61730W        W26715   8.726   1.532  11.990
61731W        W26716  30.240   8.221  11.616
61732W        W26717  31.433   1.440   1.830
61733W        W26718  44.250   4.226  12.017
61734W        W26719  18.236  39.769  14.510
61735W        W26720  42.278  15.231  14.769
61736W        W26721  21.189  22.907  14.819
61737W        W26722   7.473  43.552   4.701
61738W        W26723  12.604  31.896   3.129
61739W        W26724   2.922   7.290  11.741
61740W        W26725  23.743  25.534   3.274
61741W        W26726  29.145  40.830  10.726
61742W        W26727  16.501  14.232  11.206
61743W        W26728  41.708  42.404  14.408
61744W        W26729   9.918  20.975  12.591
61745W        W26730  33.991  31.058   2.164
61746W        W26731  38.708  33.133  11.006
61747W        W26732  35.376  33.345   2.198
61748W        W26733  43.808   5.563   4.467
61749W        W26734  37.840   1.514   3.669
61750W        W26735  27.594   9.784   2.445
61751W        W26736   0.707  34.420   0.212
61752W        W26737  44.023   9.378   1.401
61753W        W26738  11.228  11.568   3.174
61754W        W26739  41.299  30.369   4.293
61755W        W26740  41.996  33.109   0.200
61756W        W26741  16.573  24.673  14.248
61757W        W26742   8.428   7.271   1.870
61758W        W26743   3.783   4.170  13.035
61759W        W26744  15.687  35.976   0.939
61760W        W26745  41.074  31.633   2.337
61761W        W26746  29.004  39.609  11.966
61762W        W26747  20.322  33.585  13.919
61763W        W26748  32.606  20.672   1.998
61764W        W26749  14.088  38.231  11.600
61765W        W26750  12.754  16.093  10.705
61766W        W26751  15.643  22.766   1.258
61767W        W26752  19.131   6.776  11.688
61768W        W26753  25.742  33.150   4.514
61769W        W26754  10.882  27.524  12.114
61770W        W26755  36.128   0.875   1.209
61771W        W26756  14.498  27.445  14.922
61772W        W26757  42.371   4.653  12.069
61773W        W26758  39.354  15.102  13.124
61774W        W26759  43.867   9.380  13.363
61775W        W26760  26.796  33.660  13.583
61776W        W26761  26.485  36.374  13.616
61777W        W26762  13.596  43.610  11.108
61778W        W26763  37.385  29.625  11.589
61779W        W26764  41.056  10.739  13.604
61780W        W26765  31.152  18.286   2.175
61781W        W26766  34.761  16.163  14.238
61782W        W26767   6.273  26.190   4.156
61783W        W26768   6.647  33.558   1.161
61784W        W26769   8.593  32.482   2.333
61785W        W26770  27.944  39.581   1.129
61786W        W26771   2.931   2.876  10.724
61787W        W26772  18.984  33.949  11.955
61788W        W26773  17.879  42.551  13.541
61789W        W26774  36.177  33.958  13.015
61790W        W26775  36.573  37.403  13.140
61791W        W26776  38.229  11.368   0.433
61792W        W26777  39.117   8.296  13.875
61793W        W26778  30.089  13.851  11.508
61794W        W26779  39.827  14.639  12.662
61795W        W26780  41.054   8.680  12.221
61796W        W26781  22.685  38.834  12.967
61797W        W26782  27.654  32.125   0.969
61798W        W26783  19.746  15.809   3.643
61799W        W26784  37.443   9.250  10.543
61800W        W26785  38.272  41.836  10.696
61801W        W26786   0.804  27.609   1.881
61802W        W26787  38.103   6.845  10.629
61803W        W26788  24.533  31.126   2.812
61804W        W26789   6.847   5.917  13.487
61805W        W26790  20.549  22.767  14.412
61806W        W26791   7.766  13.777   1.491
61807W        W26792  40.563  26.124   3.311
61808W        W26793  19.282  15.106   4.633
61809W        W26794  37.411  40.331   4.565
61810W        W26795  17.661  26.622  13.572
61811W        W26796  17.206  25.637  14.778
61812W        W26797   9.987  31.439  14.245
61813W        W26798  13.791  10.611   3.829
61814W        W26799  38.690  23.551  10.760
61815W        W26800  22.430  37.238  14.534
61816W        W26801  18.170  29.566  12.636
61817W        W26802  26.632  35.600   0.288
61818W        W26803  28.364   9.028   3.472
61819W        W26804  26.873   0.041   0.345
61820W        W26805  29.026  28.130  11.496
61821W        W26806  26.168  29.678   2.171
61822W        W26807  25.593  26.776  13.807
61823W        W26808  31.378  14.081  14.304
61824W        W26809  37.425   7.898   4.274
61825W        W26810  35.818  16.310   4.321
61826W        W26811  40.290  33.547   0.812
61827W        W26812   1.865  11.179   1.382
61828W        W26813  33.039  13.178  11.153
61829W        W26814  22.359  27.166   4.591
61830W        W26815  30.876  29.028   1.196
61831W        W26816  20.837   7.741  11.227
61832W        W26817   0.015  13.192  13.893
61833W        W26818  38.079  10.558  11.601
61834W        W26819   7.964  43.069  11.100
61835W        W26820  22.622   3.181   1.270
61836W        W26821  32.488   8.624   0.843
61837W        W26822   9.481   7.197   0.804
61838W        W26823   1.176  31.210  13.980
61839W        W26824  37.305   7.926   9.955
61840W        W26825  32.396  20.808   2.907
61841W        W26826  37.457  20.744  11.927
61842W        W26827  25.578  40.313  10.310
61843W        W26828  30.222   7.318   0.906
61844W        W26829  11.723  39.947   1.463
61845W        W26830   5.182  22.904  13.663
61846W        W26831  26.309  25.801   4.631
61847W        W26832  15.748  24.675  14.803
61848W        W26833   3.995  19.622  14.562
61849W        W26834  11.870  29.046   4.721
61850W        W26835  29.319  21.790  13.980
61851W        W26836  15.377  22.104  13.918
61852W        W26837  13.805  42.290   2.462
61853W        W26838  35.967  33.211   0.083
61854W        W26839  27.205   4.390   4.643
61855W        W26840  11.688  23.765  14.380
61856W        W26841  27.573  33.822  11.244
61857W        W26842  38.401   4.376  13.230
61858W        W26843   2.772  18.167   4.545
61859W        W26844  28.406  19.667  10.654
61860W        W26845  34.768  25.531  13.077
61861W        W26846  39.259  19.764   4.798
61862W        W26847  44.054  32.875  11.692
61863W        W26848  16.595  23.792   2.694
61864W        W26849   0.960  36.060   3.635
61865W        W26850  31.655  21.701   0.522
61866W        W26851   7.319  20.355  13.105
61867W        W26852  32.170  34.393  11.050
61868W        W26853  33.182   6.891  12.505
61869W        W26854  34.117   8.804   0.228
61870W        W26855   6.199   3.992  11.556
61871W        W26856  40.059   3.110   4.533
61872W        W26857  13.726   9.883  12.549
61873W        W26858  15.380  35.723   0.612
61874W        W26859   5.891  44.174   0.343
61875W        W26860  22.188   2.745  13.535
61876W        W26861  18.253  44.768  12.975
61877W        W26862  23.452   3.716   2.668
61878W        W26863  38.481  28.429   4.095
61879W        W26864   3.309  36.885   2.996
61880W        W26865  33.969   3.422  14.083
61881W        W26866   3.878  26.737  13.852
61882W        W26867  43.984  44.392  13.285
61883W        W26868  43.936  17.527   1.350
61884W        W26869  22.733  25.510   4.184
61885W        W26870   5.016  41.090   3.859
61886W        W26871   8.798  21.724   0.637
61887W        W26872  41.595  23.505   3.140
61888W        W26873  19.486  36.123   0.814
61889W        W26874   6.298  24.142  10.935
61890W        W26875  37.282   3.323   5.039
61891W        W26876  40.390  29.642   2.865
61892W        W26877  44.586  21.597  13.392
61893W        W26878  39.746  37.072   2.394
61894W        W26879  20.740  37.569  10.210
61895W        W26880  20.661   3.512  10.681
61896W        W26881  21.692  20.347  14.794
61897W        W26882  14.273   1.890  13.259
61898W        W26883  41.802  40.557   1.217
61899W        W26884  15.193  22.291  14.372
61900W        W26885  17.709  33.441  12.018
61901W        W26886  17.668  20.605  13.890
61902W        W26887  38.908   0.708   0.247
61903W        W26888  34.042  38.786   4.554
61904W        W26889  39.373  19.033  13.601
61905W        W26890  12.749  31.452   3.824
61906W        W26891   2.182  31.800  10.395
61907W        W26892  23.719  26.553  13.027
61908W        W26893  27.185  39.836  10.378
61909W        W26894  22.438  36.278  12.994
61910W        W26895  44.814   9.557   0.956
61911W        W26896   6.413  12.549  10.767
61912W        W26897   6.992  34.875   2.209
61913W        W26898  16.249  16.151  12.017
61914W        W26899  21.352  28.855  12.010
61915W        W26900  25.059  40.478   1.315
61916W        W26901   5.899  25.337   3.137
61917W        W26902  27.161  18.697   1.230
61918W        W26903  12.560  42.961   1.392
61919W        W26904  19.089  36.839  13.556
61920W        W26905   6.879  13.101   1.151
61921W        W26906   1.545  33.198  12.454
61922W        W26907  19.041  27.149   3.428
61923W        W26908  14.783   2.799  11.131
61924W        W26909  30.344  32.917  11.546
61925W        W26910   3.850  32.747  11.150
61926W        W26911  11.425  12.068   1.361
61927W        W26912  17.065  17.671  13.532
61928W        W26913   5.223  27.563  10.667
61929W        W26914  16.234  29.750  12.101
61930W        W26915  34.370  16.830  12.245
61931W        W26916  23.763  36.001  10.442
61932W        W26917  44.429   0.886  12.946
61933W        W26918  17.743  23.169  14.406
61934W        W26919   7.359  32.456   1.817
61935W        W26920   4.506  35.050  14.750
61936W        W26921   3.327  20.106  11.543
61937W        W26922  13.840  10.199   4.153
61938W        W26923  17.385  20.502  14.891
61939W        W26924  31.033   8.271   5.014
61940W        W26925  32.510  26.173   1.337
61941W        W26926  29.318  27.946  12.812
61942W        W26927  37.967   1.035   1.292
61943W        W26928  30.621  35.527  11.487
61944W        W26929  34.315  33.546   3.572
61945W        W26930  14.229   3.082   4.513
61946W        W26931  31.636  11.934   3.240
61947W        W26932  14.468   5.552   9.886
61948W        W26933   9.129  21.843  12.388
61949W        W26934  12.279   0.844  12.047
61950W        W26935  31.382  11.862  10.667
61951W        W26936   5.741  43.183  14.994
61952W        W26937  25.583  29.383   4.563
61953W        W26938  40.852  23.105  11.920
61954W        W26939  38.811  44.880  11.605
61955W        W26940  37.952  43.102   2.907
61956W        W26941  32.899  26.067  14.459
61957W        W26942  16.155  42.338  14.039
61958W        W26943   7.650  18.572  12.042
61959W        W26944  40.841  26.068   1.285
61960W        W26945  15.349  44.083  14.939
61961W        W26946  20.235   1.723   3.866
61962W        W26947  17.317  17.417  14.499
61963W        W26948   0.789   4.117   1.674
61964W        W26949  22.629  12.647   2.213
61965W        W26950  12.115  11.805   9.966
61966W        W26951  20.676  42.587  12.127
61967W        W26952   1.935   2.802  10.939
61968W        W26953  20.590  31.523   0.555
61969W        W26954  35.029  33.136  12.971
61970W        W26955   2.372  36.482  11.898
61971W        W26956   3.900  19.543   1.502
61972W        W26957  19.056   6.118  11.112
61973W        W26958  19.319   5.184   3.314
61974W        W26959  31.331   5.444   0.515
61975W        W26960  13.929  30.914  12.569
61976W        W26961  18.267   3.854  13.373
61977W        W26962  24.956  13.353  12.998
61978W        W26963  21.863  22.553  11.218
61979W        W26964  26.630  25.927  14.074
61980W        W26965  17.751  11.193   2.301
61981W        W26966   8.230  20.053  14.291
61982W        W26967   9.163   1.273   1.845
61983W        W26968  26.021  15.766  12.030
61984W        W26969  14.060  18.060  13.412
61985W        W26970  19.219  44.716   4.609
61986W        W26971  15.760   1.950  14.022
61987W        W26972  33.124  32.009   1.739
61988W        W26973   1.925  33.944   4.072
61989W        W26974  21.674  24.159   4.657
61990W        W26975  33.294  17.504   4.162
61991W        W26976   2.070   7.174  11.518
61992W        W26977  34.514  35.612   3.665
61993W        W26978  29.665  36.042  13.863
61994W        W26979  22.480  21.497  14.998
61995W        W26980  13.367  35.488  13.470
61996W        W26981   1.291  37.113   0.278
61997W        W26982  26.958  10.463  12.300
61998W        W26983  40.059  31.022  13.734
61999W        W26984  12.845  41.892   1.504
62000W        W26985  37.403   0.711  14.896
62001W        W26986  29.216  25.125  14.313
62002W        W26987  33.416   2.133  14.487
62003W        W26988  43.669   8.656  11.522
62004W        W26989  44.064   8.845   1.306
62005W        W26990  32.091  19.547  11.130
62006W        W26991  21.026  36.310   2.327
62007W        W26992  36.010  44.502  14.716
62008W        W26993  16.112   9.252  12.431
62009W        W26994  33.126  19.741   4.113
62010W        W26995  37.640  25.255   1.246
62011W        W26996  26.554  29.386   5.174
62012W        W26997   5.722  38.077  13.345
62013W        W26998  38.887  35.398   3.327
62014W        W26999  12.363  25.931   2.586
62015W        W27000  35.860  39.607   4.143
62016W        W27001  19.309  26.602   1.618
62017W        W27002  29.623   9.084  11.472
62018W        W27003  19.286   7.594  12.571
62019W        W27004  41.441  21.326  12.451
62020W        W27005   5.391  27.553  11.689
62021W        W27006  19.731  26.572   1.935
62022W        W27007  28.466  30.372  14.834
62023W        W27008  25.195  34.412  14.330
62024W        W27009  31.525  25.094   3.771
62025W        W27010  26.483  39.954  14.835
62026W        W27011  37.318  28.153   1.406
62027W        W27012   1.508  18.323   3.233
62028W        W27013  14.384  18.954  12.966
62029W        W27014  24.030  13.489   0.667
62030W        W27015  31.813  31.916   1.312
62031W        W27016  42.994  20.253  12.951
62032W        W27017  17.659  12.351  14.324
62033W        W27018  43.834  32.468   2.297
62034W        W27019   4.377  29.811  10.617
62035W        W27020  35.566   3.736   1.989
62036W        W27021  44.451   2.467   4.991
62037W        W27022   7.346  27.436   0.713
62038W        W27023   3.394  20.720  12.943
62039W        W27024   3.766   6.645  14.340
62040W        W27025  44.886  27.694   1.216
62041W        W27026  41.009  37.935   3.341
62042W        W27027   8.000  41.417  10.278
62043W        W27028  22.272  36.877  14.872
62044W        W27029  34.539  15.021   1.174
62045W        W27030   2.223  19.968  12.098
62046W        W27031  38.823  43.192  11.471
62047W        W27032  11.918  20.507   1.863
62048W        W27033  44.075   8.972  11.727
62049W        W27034  33.226  19.950   1.122
62050W        W27035  23.557  32.374  12.957
62051W        W27036  31.817  44.343   0.322
62052W        W27037  41.058  24.639  14.984
62053W        W27038  27.699  11.775  11.124
62054W        W27039   1.293   5.442   3.091
62055W        W27040  30.886  24.278   3.593
62056W        W27041  16.011  16.861   1.749
62057W        W27042  14.780   2.777   2.766
62058W        W27043  33.492  20.969  14.061
62059W        W27044  44.299  28.258  14.012
62060W        W27045  20.285  44.816  12.985
62061W        W27046  36.981   0.420  12.023
62062W        W27047  32.010   8.238  14.070
62063W        W27048  12.639  36.968  12.097
62064W        W27049  15.736  19.724   4.885
62065W        W27050  23.346   4.308  12.055
62066W        W27051  31.510   1.892  11.946
62067W        W27052  11.876  26.556   1.548
62068W        W27053   5.981  17.625   4.179
62069W        W27054  30.465  11.065   4.633
62070W        W27055  22.552  44.058   0.487
62071W        W27056  31.013  23.757   4.256
62072W        W27057  23.634   2.393   3.001
62073W        W27058   1.836  12.311   3.180
62074W        W27059  11.745  16.090   1.348
62075W        W27060   9.324  29.913   2.896
62076W        W27061  28.367  30.576  12.221
62077W        W27062  19.731   2.061   0.332
62078W        W27063  27.234  34.137  10.532
62079W        W27064  32.604  36.003  11.992
62080W        W27065   3.934  42.416   1.319
62081W        W27066   0.286  16.952   0.735
62082W        W27067   7.637  36.298   1.510
62083W        W27068   4.755   1.326  12.597
62084W        W27069  42.873  42.905   0.367
62085W        W27070   4.354   2.256  12.501
62086W        W27071  30.429   0.699  11.901
62087W        W27072  15.174  27.536   2.842
62088W        W27073  11.062  20.536   1.442
62089W        W27074  29.576   7.250  12.935
62090W        W27075  42.722   8.352  11.680
62091W        W27076   4.088  27.013   9.963
62092W        W27077  29.213  23.078   4.609
62093W        W27078  33.562  20.126  11.173
62094W        W27079  11.895  41.999  14.504
62095W        W27080  36.153  11.958   2.210
62096W        W27081   4.786  24.920  12.568
62097W        W27082   1.236   0.384   3.921
62098W        W27083   6.922  17.747   4.178
62099W        W27084  10.151   9.697  12.979
62100W        W27085   2.682  24.977  14.272
62101W        W27086  33.543  31.536  14.531
62102W        W27087  37.997   7.711   5.001
62103W        W27088  17.535  37.903   2.758
62104W        W27089  40.847  22.473  12.612
62105W        W27090  27.247   2.940   4.964
62106W        W27091  14.843  35.041  13.713
62107W        W27092  16.790  35.338   1.210
62108W        W27093  19.978  10.415  13.459
62109W        W27094  12.552  13.313   4.145
62110W        W27095  40.309   3.469   3.187
62111W        W27096  10.707  33.856   3.812
62112W        W27097  10.258  39.398   1.359
62113W        W27098  16.537  10.366   4.118
62114W        W27099  37.334  24.502  11.070
62115W        W27100   4.979  31.158  11.063
62116W        W27101  29.382   0.788  13.946
62117W        W27102  41.335  42.431   0.434
62118W        W27103  44.788  41.390   0.961
62119W        W27104  31.140   4.531   4.750
62120W        W27105  35.601  12.015   3.699
62121W        W27106  24.439  21.739   1.380
62122W        W27107  32.476   0.301   4.104
62123W        W27108  32.847  25.174   1.473
62124W        W27109   0.727  11.709   4.849
62125W        W27110  27.582  10.654   4.702
62126W        W27111   1.190  10.656  13.361
62127W        W27112  35.667  35.512   1.354
62128W        W27113  10.714   4.161   5.751
62129W        W27114  42.519   2.305  14.449
62130W        W27115   9.404  11.313   2.904
62131W        W27116  19.867  22.749  11.149
62132W        W27117   1.236   1.611  13.822
62133W        W27118  16.990  27.607  14.770
62134W        W27119  30.737  15.928  13.207
62135W        W27120  14.002  17.112   3.542
62136W        W27121   2.989   1.769  14.987
62137W        W27122  10.798  27.416  13.101
62138W        W27123   0.805  10.783  11.512
62139W        W27124  28.560  44.205   3.628
62140W        W27125  15.057  38.002  13.552
62141W        W27126  12.772  37.859  12.406
62142W        W27127   9.281  33.402  14.938
62143W        W27128   1.447  32.933  13.342
62144W        W27129  33.139  29.992   3.710
62145W        W27130  39.085   5.015  14.395
62146W        W27131   9.380  14.121   4.038
62147W        W27132  16.865  29.046  14.830
62148W        W27133  17.596  37.362  12.146
62149W        W27134  16.536  10.648  14.746
62150W        W27135  39.242   3.247  14.555
62151W        W27136  39.536  12.046  12.933
62152W        W27137  19.458  37.656   0.907
62153W        W27138  13.659  41.286   2.717
62154W        W27139  26.701  23.792  11.991
62155W        W27140  32.091   9.633   1.404
62156W        W27141  22.762  38.312  14.027
62157W        W27142   9.893  11.269  11.037
62158W        W27143  39.604   0.495   0.788
62159W        W27144  37.379  11.202  13.718
62160W        W27145  37.222  15.437   5.039
62161W        W27146  34.281   0.889   3.220
62162W        W27147  21.514  16.210  12.042
62163W        W27148  15.550  16.267  10.757
62164W        W27149  38.275  32.652   2.252
62165W        W27150   3.045   5.888  13.042
62166W        W27151  30.878  28.279   1.115
62167W        W27152   1.030  28.937   1.398
62168W        W27153  25.035  32.480   0.438
62169W        W27154  44.263  35.865  11.957
62170W        W27155  41.202  26.401  10.699
62171W        W27156  14.906  42.596   3.308
62172W        W27157  16.021  14.265   4.288
62173W        W27158  42.303   5.938  12.758
62174W        W27159  40.955  27.759   4.611
62175W        W27160  17.886  32.084  12.391
62176W        W27161  16.999   2.287  14.447
62177W        W27162   1.251   9.741   1.281
62178W        W27163  37.836   9.918   2.476
62179W        W27164  24.951  25.730   4.277
62180W        W27165  29.937   1.543  10.178
62181W        W27166  29.292   2.498   1.259
62182W        W27167  12.189  30.657  13.738
62183W        W27168  12.250  20.098  11.622
62184W        W27169  24.464  39.565   3.722
62185W        W27170  12.155  35.831   1.218
62186W        W27171  30.987  36.527   1.295
62187W        W27172   6.717  36.556   2.781
62188W        W27173  43.958  29.531  14.296
62189W        W27174  25.812   6.725   5.323
62190W        W27175  29.958  43.452   0.902
62191W        W27176  29.276  30.479   3.652
62192W        W27177  18.209  20.776   2.610
62193W        W27178  44.326   7.241   3.568
62194W        W27179   1.472  33.004  10.661
62195W        W27180  21.838   7.237   4.251
62196W        W27181  25.100  18.007  14.715
62197W        W27182  23.827  17.180  11.551
62198W        W27183  24.691   3.339   0.278
62199W        W27184  28.565  25.616   2.099
62200W        W27185  10.552  43.443  14.756
62201W        W27186  34.553  22.950  13.850
62202W        W27187   6.755  28.573   5.049
62203W        W27188  20.203  23.804  12.979
62204W        W27189  32.816   2.212  13.829
62205W        W27190  24.507   8.616  13.346
62206W        W27191  28.425  12.211  13.340
62207W        W27192  25.042   5.252   0.905
62208W        W27193  25.674   7.412   0.871
62209W        W27194  27.171  21.571  12.895
62210W        W27195  27.600  40.749  12.474
62211W        W27196  23.249  27.904  11.662
62212W        W27197  16.725  42.483  10.403
62213W        W27198  36.635  22.259   2.298
62214W        W27199  17.174  34.800   0.968
62215W        W27200  31.360  24.725   4.740
62216W        W27201  19.555   9.334  11.272
62217W        W27202  33.372  10.487  12.956
62218W        W27203  44.528  37.369  10.606
62219W        W27204   3.107  19.139  12.806
62220W        W27205  26.978  22.936  14.354
62221W        W27206  31.025   3.150  13.058
62222W        W27207  41.058  28.828  13.946
62223W        W27208  28.404  23.624   3.669
62224W        W27209  32.593   0.863   3.263
62225W        W27210  32.715  13.774   4.136
62226W        W27211  30.215   7.816   1.344
62227W        W27212   2.427  36.026   3.273
62228W        W27213  26.984  10.942  14.516
62229W        W27214   8.548  34.825   2.453
62230W        W27215  44.039  43.876  11.125
62231W        W27216  22.913   2.186  14.864
62232W        W27217  25.904  15.799   0.294
62233W        W27218  11.584  41.569   5.070
62234W        W27219  39.266  43.868  12.526
62235W        W27220  29.743  43.467   1.374
62236W        W27221  33.450   8.877   2.586
62237W        W27222  39.373  22.937   1.958
62238W        W27223  43.387  37.777   2.896
62239W        W27224  44.669   4.341  13.522
62240W        W27225   3.723  41.924   1.269
62241W        W27226  32.894  32.503   1.788
62242W        W27227  22.362   4.965   5.082
62243W        W27228  23.858  21.552   0.398
62244W        W27229   1.809  19.935   2.131
62245W        W27230  17.196   4.241  14.268
62246W        W27231  44.101  10.893   3.036
62247W        W27232  33.784  23.638  11.548
62248W        W27233  20.741  10.238   4.707
62249W        W27234   7.421   9.750  10.478
62250W        W27235  36.773  28.608   2.682
62251W        W27236  23.218   3.803  14.882
62252W        W27237  24.630   3.678  14.465
62253W        W27238  26.977  12.956   1.366
62254W        W27239  29.393  35.379  13.274
62255W        W27240   8.405  31.470  14.427
62256W        W27241  18.590  31.217  10.545
62257W        W27242  22.243  33.608  11.576
62258W        W27243  43.016  15.209   3.063
62259W        W27244   8.334  30.673   1.680
62260W        W27245  20.701  25.737  10.635
62261W        W27246  41.477  13.807  11.726
62262W        W27247   4.689  26.995   3.757
62263W        W27248  31.482   2.959  12.857
62264W        W27249  17.082  32.884   2.435
62265W        W27250  39.455  10.587  13.681
62266W        W27251  22.405  43.215  12.060
62267W        W27252  40.606  27.905   1.980
62268W        W27253   0.955  12.801   4.588
62269W        W27254   6.951   8.041  13.871
62270W        W27255  30.635  24.530  12.502
62271W        W27256  20.504   1.897   0.846
62272W        W27257  28.473  28.909   4.653
62273W        W27258  24.831  28.936  12.280
62274W        W27259  20.664  10.744  11.108
62275W        W27260  11.899  32.833   3.850
62276W        W27261  14.978  15.391   1.045
62277W        W27262  43.682  29.683   2.416
62278W        W27263  23.043  25.541   4.592
62279W        W27264  37.231  17.147  10.875
62280W        W27265  10.299  12.275  12.469
62281W        W27266  30.046  25.170  11.960
62282W        W27267   4.227  13.892   1.756
62283W        W27268  40.579  39.256   3.754
62284W        W27269  42.969  38.099  14.300
62285W        W27270  29.437   1.482   5.035
62286W        W27271  31.282  18.243  10.967
62287W        W27272  30.478  32.438   0.757
62288W        W27273  43.720  24.069  12.428
62289W        W27274  36.315   5.858   1.861
62290W        W27275   1.459  21.642   0.844
62291W        W27276   9.132  37.602  11.559
62292W        W27277  34.844   0.619  12.376
62293W        W27278  28.179  37.448  11.634
62294W        W27279  38.691  39.607  13.340
62295W        W27280  35.068  39.447  14.496
62296W        W27281  38.448   5.626   2.354
62297W        W27282  39.058   2.664  10.337
62298W        W27283  40.890   8.933   2.293
62299W        W27284  10.812   3.454  11.015
62300W        W27285  43.963  27.167   9.925
62301W        W27286  34.538  26.928  11.027
62302W        W27287  10.102  28.885   1.743
62303W        W27288   0.378  16.443   0.868
62304W        W27289  14.721  44.723   2.066
62305W        W27290  28.553   7.240  11.241
62306W        W27291   8.083  27.889   2.721
62307W        W27292  10.327  17.881  13.455
62308W        W27293  20.028  27.419  10.859
62309W        W27294  36.360   3.365   5.025
62310W        W27295  20.516  34.421  12.408
62311W        W27296  24.166  33.899  13.575
62312W        W27297  41.774  23.092   0.054
62313W        W27298  43.903  15.316   2.564
62314W        W27299  15.305  26.297  13.335
62315W        W27300  41.464  37.494   4.971
62316W        W27301  15.837  26.919  11.172
62317W        W27302  35.784  36.148   3.519
62318W        W27303  35.694  18.244   0.959
62319W        W27304  27.575  17.057  14.037
62320W        W27305  32.865  42.265  12.209
62321W        W27306  19.856  11.455  13.411
62322W        W27307  19.992  10.372  12.048
62323W        W27308  31.302  12.627  14.786
62324W        W27309   0.824  33.506   3.738
62325W        W27310  39.308   7.652   0.078
62326W        W27311  27.596  31.113   3.065
62327W        W27312   6.164  18.277  12.529
62328W        W27313  34.862  28.924  13.945
62329W        W27314  15.201  10.695   3.849
62330W        W27315  29.746  21.736  14.906
62331W        W27316  30.179  42.056   3.153
62332W        W27317   9.831  25.710  14.152
62333W        W27318  22.953   5.765  12.177
62334W        W27319  41.774   5.994  14.832
62335W        W27320  16.828   8.674   1.771
62336W        W27321   8.214  32.901   0.665
62337W        W27322  38.826  14.332   0.757
62338W        W27323   4.844  25.817   0.441
62339W        W27324  23.539   2.905   4.188
62340W        W27325  26.227  24.807  12.023
62341W        W27326  42.541  23.310  14.127
62342W        W27327   1.012  35.980  11.397
62343W        W27328  17.277  27.076   1.882
62344W        W27329  44.765   6.390   1.825
62345W        W27330   6.239  31.069  11.602
62346W        W27331  13.636  25.688  10.282
62347W        W27332  11.860  44.494  14.444
62348W        W27333  28.103   1.277   3.154
62349W        W27334   0.180  24.247  12.464
62350W        W27335  30.688  30.679   3.256
62351W        W27336  38.037   8.787  12.132
62352W        W27337  18.819  18.005  13.843
62353W        W27338  28.383  28.424   1.706
62354W        W27339  36.916  30.147  13.820
62355W        W27340   7.352  28.600  13.489
62356W        W27341  13.788   6.628   1.726
62357W        W27342  34.530  31.055   2.917
62358W        W27343  12.131  43.508  13.052
62359W        W27344  10.434   1.270  10.650
62360W        W27345  13.357  36.605   2.264
62361W        W27346  12.329  13.243   0.329
62362W        W27347  36.553  43.743   3.683
62363W        W27348  22.986  43.742  12.502
62364W        W27349  26.191   2.381  13.358
62365W        W27350   1.381  18.049   1.648
62366W        W27351  16.029  20.738  13.810
62367W        W27352  10.751  44.716  14.105
62368W        W27353  22.196  44.766   4.107
62369W        W27354  34.118  20.836   0.313
62370W        W27355  39.320   9.855   4.253
62371W        W27356  24.049  19.588  14.155
62372W        W27357  20.780   7.348   9.891
62373W        W27358  39.422  12.725   0.277
62374W        W27359  34.090  13.913   1.980
62375W        W27360   3.978   1.508   4.919
62376W        W27361  34.575   0.622  11.934
62377W        W27362  34.414  18.829   4.155
62378W        W27363   1.678  38.783  14.935
62379W        W27364  14.626  10.242   0.986
62380W        W27365  37.933   1.777  12.106
62381W        W27366  20.293  42.965  11.434
62382W        W27367   0.273   8.723   0.434
62383W        W27368  30.896  26.946   0.509
62384W        W27369  29.858   4.326  12.630
62385W        W27370  15.137  15.400  11.123
62386W        W27371  34.641  31.656  12.532
62387W        W27372  23.089   2.567   3.604
62388W        W27373  32.806  32.707   0.963
62389W        W27374  19.696  35.797  10.812
62390W        W27375  27.483  21.056   0.390
62391W        W27376  28.214  17.573  13.800
62392W        W27377  31.273  21.176  14.282
62393W        W27378   4.719  15.675   2.555
62394W        W27379  43.374  14.818   0.191
62395W        W27380  23.187  10.628  11.545
62396W        W27381   7.276  31.136  11.606
62397W        W27382  22.291  13.241   4.239
62398W        W27383  18.041  15.783  13.986
62399W        W27384  43.417  41.680   0.869
62400W        W27385  28.193  16.244   0.866
62401W        W27386  41.800  20.263  12.071
62402W        W27387   7.488  44.291   2.494
62403W        W27388  17.877   8.833   3.649
62404W        W27389  16.419  24.259  11.393
62405W        W27390  12.121  21.473  10.564
62406W        W27391  25.995   8.385   0.935
62407W        W27392   8.380   1.498   2.829
62408W        W27393  21.132  10.920   1.063
62409W        W27394  24.241  29.933   2.781
62410W        W27395  27.581   9.653   3.821
62411W        W27396  28.350  18.281  13.420
62412W        W27397  12.506   8.626   4.029
62413W        W27398  22.649  38.646   2.907
62414W        W27399  28.862  40.495  11.506
62415W        W27400  41.909  43.954   3.315
62416W        W27401  44.560   2.275   1.310
62417W        W27402  34.345  27.585  11.697
62418W        W27403  40.214  29.510   0.382
62419W        W27404  21.546  21.647  11.212
62420W        W27405  22.775  15.028  14.838
62421W        W27406  40.824  37.490   3.553
62422W        W27407  40.996   2.226  14.893
62423W        W27408  24.102   5.920   2.323
62424W        W27409  27.992  26.420  12.030
62425W        W27410  33.753  25.097  12.105
62426W        W27411  42.266   6.363   2.634
62427W        W27412  10.114   3.240  14.905
62428W        W27413  27.755  35.029   5.135
62429W        W27414   1.373  16.768  12.909
62430W        W27415  31.903  20.798  12.910
62431W        W27416  17.589  20.658  14.416
62432W        W27417  12.856  41.076   1.794
62433W        W27418  21.369  44.850  10.674
62434W        W27419  25.590  25.757  14.030
62435W        W27420  17.561  36.025   2.438
62436W        W27421  25.985  23.262  13.045
62437W        W27422   1.516  27.975   4.047
62438W        W27423  38.136  25.632  12.359
62439W        W27424  28.183  40.270   2.880
62440W        W27425  42.268  36.059  13.520
62441W        W27426  42.432  17.071   4.235
62442W        W27427  31.012  32.558  10.664
62443W        W27428  19.684  41.172   2.606
62444W        W27429   9.134   8.028   1.742
62445W        W27430  22.635  10.808   4.390
62446W        W27431   4.716  35.097   1.637
62447W        W27432  14.672  28.359  13.472
62448W        W27433   7.356  10.670  14.275
62449W        W27434   7.301   3.803  13.987
62450W        W27435  10.916   4.030  10.077
62451W        W27436   4.641  34.695  11.072
62452W        W27437  20.139  17.662   5.332
62453W        W27438  13.230  36.027  14.211
62454W        W27439  17.994  27.531   2.370
62455W        W27440  21.063  11.719  11.226
62456W        W27441  32.176  37.719   3.111
62457W        W27442   6.504   6.409   0.730
62458W        W27443  43.034  24.850  11.961
62459W        W27444  34.046  23.307  12.427
62460W        W27445  25.420  11.482   1.205
62461W        W27446  44.865  41.880   1.654
62462W        W27447   0.375   1.171   4.656
62463W        W27448  44.209   5.848  12.415
62464W        W27449  35.707  31.009   1.866
62465W        W27450   0.923   3.453   3.174
62466W        W27451  23.123  41.765  13.408
62467W        W27452  41.036   1.372   3.435
62468W        W27453  24.595  36.299   2.756
62469W        W27454  10.588   0.277  12.762
62470W        W27455   6.696  44.842   0.833
62471W        W27456  41.035  35.612  14.330
62472W        W27457  24.757  28.886  11.361
62473W        W27458  19.139  13.933   0.538
62474W        W27459  31.103  42.236  12.654
62475W        W27460  16.119  24.731   2.271
62476W        W27461  16.916  35.984  11.869
62477W        W27462   3.435  41.020   2.211
62478W        W27463   7.586  22.700  13.856
62479W        W27464  29.937  41.984   2.244
62480W        W27465  26.748  29.348   1.344
62481W        W27466  34.921  24.448  11.676
62482W        W27467  20.597  17.880   1.496
62483W        W27468  13.984  35.041  12.656
62484W        W27469  10.623  36.598   2.836
62485W        W27470  26.198  43.530  10.757
62486W        W27471  16.624  44.082  13.079
62487W        W27472  43.905  36.135  12.236
62488W        W27473  34.037  43.930   4.555
62489W        W27474  36.643   3.923  13.410
62490W        W27475  29.543  17.433   4.199
62491W        W27476   0.460  16.823  11.621
62492W        W27477  30.669  14.147   3.777
62493W        W27478  35.579   0.851   2.827
62494W        W27479  10.241  14.041  13.191
62495W        W27480  20.740  14.139   2.885
62496W        W27481   1.348  21.780  14.869
62497W        W27482  16.260  40.384   2.648
62498W        W27483  37.936   4.381   1.366
62499W        W27484  36.350  40.903   3.853
62500W        W27485  29.083  39.806   4.502
62501W        W27486  13.246  19.270  13.407
62502W        W27487  22.115  29.375  10.575
62503W        W27488   0.694  24.555   3.670
62504W        W27489  34.093  32.583  14.560
62505W        W27490  25.978   9.719   4.569
62506W        W27491  28.225  12.985  14.993
62507W        W27492  32.387   7.725   3.275
62508W        W27493  31.354   8.450   1.782
62509W        W27494  42.516  15.246   2.199
62510W        W27495  16.615  26.663  12.488
62511W        W27496  44.520  28.563  10.958
62512W        W27497  28.965   1.699   2.283
62513W        W27498  19.783   4.149  12.502
62514W        W27499  30.200  12.326   0.518
62515W        W27500  15.390  10.658  12.555
62516W        W27501  11.143  16.211   0.687
62517W        W27502  13.608  44.154  14.635
62518W        W27503  38.786  42.833   2.205
62519W        W27504  33.880  23.496  12.946
62520W        W27505  28.859   8.829  10.979
62521W        W27506   8.049  44.378   1.835
62522W        W27507   9.531   1.176   3.983
62523W        W27508  34.172  26.899  11.402
62524W        W27509  43.230  12.531   4.621
62525W        W27510  11.532  12.203  14.129
62526W        W27511   8.626   5.055  11.622
62527W        W27512   6.509  36.933  13.556
62528W        W27513  13.094  10.320   3.202
62529W        W27514   2.806  15.122   2.289
62530W        W27515  40.338  37.955   0.977
62531W        W27516  43.381  11.068  11.645
62532W        W27517  28.435  20.705   3.079
62533W        W27518  40.614  30.010  12.602
62534W        W27519  26.029   6.821   3.088
62535W        W27520  21.133  28.499   1.672
62536W        W27521  22.110  10.220  10.726
62537W        W27522  36.279  19.549  14.235
62538W        W27523  35.653  13.281  14.732
62539W        W27524  37.234  17.657  14.593
62540W        W27525  10.873   2.270  14.414
62541W        W27526  13.101  44.444   2.650
62542W        W27527   6.904  16.097  14.828
62543W        W27528  30.063   1.542   0.957
62544W        W27529  17.653  29.380   0.261
62545W        W27530   9.640  21.469  13.778
62546W        W27531  27.511   5.446  11.426
62547W        W27532  25.456  33.450  14.397
62548W        W27533   1.938  40.476  14.761
62549W        W27534  31.097  26.503   1.852
62550W        W27535  35.612  25.685   0.783
62551W        W27536  35.892  41.031   2.131
62552W        W27537  39.088   4.829   1.337
62553W        W27538   8.351   3.404   2.007
62554W        W27539  42.861   7.213  13.101
62555W        W27540  43.658  10.870   2.748
62556W        W27541  34.146  28.041  12.043
62557W        W27542  33.440   7.219   4.954
62558W        W27543  13.415  22.077   3.310
62559W        W27544  21.807  41.538   2.351
62560W        W27545  11.213  30.118  13.863
62561W        W27546  15.117  30.373   1.106
62562W        W27547  13.212  21.464   1.704
62563W        W27548  28.538   8.743  13.667
62564W        W27549  36.416  29.157   3.712
62565W        W27550   4.072  29.080   4.237
62566W        W27551   6.952  34.863   1.675
62567W        W27552  16.141  29.993   1.394
62568W        W27553   6.909  23.280   4.845
62569W        W27554  19.060  22.135  14.629
62570W        W27555  27.924  16.155   4.638
62571W        W27556  30.665   2.442   3.960
62572W        W27557  20.100  11.585  14.817
62573W        W27558   4.681   3.677   2.676
62574W        W27559  38.587  25.883   3.119
62575W        W27560  22.578  31.619   4.274
62576W        W27561  27.003  19.670   0.251
62577W        W27562  26.427   4.042   4.127
62578W        W27563  12.193  30.245  12.883
62579W        W27564  22.903  20.298   3.742
62580W        W27565  23.689  15.254  14.565
62581W        W27566  20.142  32.904  11.932
62582W        W27567  41.934  14.621   2.202
62583W        W27568  35.678  24.007  10.772
62584W        W27569  15.737  22.045   1.966
62585W        W27570  16.766  23.543   2.242
62586W        W27571  44.330  41.836  11.497
62587W        W27572  34.648  16.525   1.901
62588W        W27573  15.566  38.040  14.343
62589W        W27574  23.036  23.223   0.800
62590W        W27575  28.129   1.158  13.304
62591W        W27576  28.960  40.082  11.788
62592W        W27577  40.503  13.924   4.488
62593W        W27578  14.416   9.806  13.924
62594W        W27579  38.362  32.044  13.569
62595W        W27580  21.494  30.645   2.257
62596W        W27581  11.750  15.199  13.064
62597W        W27582  31.407   0.714  10.407
62598W        W27583   7.840  13.607  13.992
62599W        W27584  31.043   4.236   1.369
62600W        W27585   1.381  19.617   1.238
62601W        W27586   4.287  40.902   4.239
62602W        W27587  28.467  36.935  13.476
62603W        W27588  32.269  19.322  11.982
62604W        W27589  29.578  29.418  12.492
62605W        W27590   9.311   3.912  14.921
62606W        W27591  13.759  18.640   0.868
62607W        W27592   2.921  17.718   2.204
62608W        W27593  10.478   9.671   4.521
62609W        W27594   0.025   5.287  13.943
62610W        W27595   9.433  16.736  12.884
62611W        W27596  23.037  12.558   0.996
62612W        W27597  18.681  16.281  11.382
62613W        W27598  13.294  11.845   4.133
62614W        W27599  30.977  21.167  13.333
62615W        W27600   1.891  24.962   2.304
62616W        W27601  14.552  23.072   0.757
62617W        W27602  30.522  20.487  14.392
62618W        W27603   0.481  40.513  12.091
62619W        W27604   0.005  11.826  12.859
62620W        W27605  20.468   9.574   4.099
62621W        W27606  21.736  44.321   2.913
62622W        W27607   8.902   4.024   1.656
62623W        W27608  13.702  41.408  12.821
62624W        W27609   9.605  32.598  13.168
62625W        W27610   2.775  44.280   1.019
62626W        W27611   1.231  27.233   1.194
62627W        W27612  21.585  13.884  14.012
62628W        W27613  22.982  36.781   0.391
62629W        W27614   3.498  44.494   0.576
62630W        W27615  32.933   1.010  11.999
62631W        W27616  21.615   1.252   4.866
62632W        W27617  21.746  32.319   3.416
62633W        W27618  33.735  11.486   1.438
62634W        W27619  44.991   8.119  12.903
62635W        W27620   3.932  44.070   4.589
62636W        W27621   8.139  30.119   4.648
62637W        W27622   7.047  12.882   4.852
62638W        W27623  16.711  25.420  14.805
62639W        W27624  20.418  26.722   0.194
62640W        W27625  19.981  42.175  10.879
62641W        W27626  33.320  16.758  13.514
62642W        W27627  19.830  22.028  10.607
62643W        W27628  42.447  16.591   3.224
62644W        W27629  37.848  10.906   1.174
62645W        W27630  13.246  35.168  14.209
62646W        W27631  42.588   6.987  14.831
62647W        W27632  31.490   3.436   3.328
62648W        W27633  34.606   4.015  12.250
62649W        W27634  29.694  23.014   3.766
62650W        W27635   7.404  31.071   4.455
62651W        W27636   6.566  40.683   1.668
62652W        W27637   7.767  16.035   4.193
62653W        W27638  35.797  39.765   0.829
62654W        W27639  44.193  16.675   4.955
62655W        W27640  16.155  36.739   1.914
62656W        W27641  24.375   3.546  14.925
62657W        W27642  33.941  25.405   2.808
62658W        W27643   2.217  42.402   2.784
62659W        W27644  11.594   6.317  14.891
62660W        W27645  36.000  11.140  11.135
62661W        W27646  40.935  28.677   4.245
62662W        W27647   1.379  18.838   2.650
62663W        W27648  38.347   8.172   4.326
62664W        W27649  10.354  16.740   1.434
62665W        W27650  29.895  33.822  12.893
62666W        W27651  29.442   7.754   1.829
62667W        W27652  32.514   6.150  10.976
62668W        W27653  41.124  28.905  12.604
62669W        W27654  23.786  18.876  10.078
62670W        W27655  18.278  38.468   0.373
62671W        W27656  26.315  40.361   0.933
62672W        W27657  23.792   9.082   4.244
62673W        W27658   6.200  15.531   0.176
62674W        W27659  23.637  33.964  14.500
62675W        W27660  36.509  26.324  11.012
62676W        W27661  40.749  29.160   4.254
62677W        W27662  13.654  17.232   3.137
62678W        W27663   1.891  27.702   3.785
62679W        W27664  34.062  22.713   1.005
62680W        W27665   6.813  28.346   2.830
62681W        W27666  30.682   6.968  12.973
62682W        W27667  15.480  17.003  14.852
62683W        W27668  22.569  24.468   2.716
62684W        W27669  44.761  10.708  11.624
62685W        W27670  37.568  30.506  13.489
62686W        W27671  13.819  35.490  12.912
62687W        W27672  17.785  21.340   0.992
62688W        W27673  22.981  28.359  11.719
62689W        W27674  43.089  26.098   9.675
62690W        W27675  31.574   2.485   3.539
62691W        W27676  39.942  19.329  14.841
62692W        W27677  23.044  38.114  12.881
62693W        W27678  20.521  33.424   2.195
62694W        W27679  11.222  28.308  12.387
62695W        W27680  11.286  27.544  12.811
62696W        W27681  23.728   0.978   4.059
62697W        W27682  38.045  27.835  13.394
62698W        W27683  41.300  40.872   4.492
62699W        W27684  39.233  21.659   9.949
62700W        W27685  15.590  44.943  11.211
62701W        W27686   6.579  44.156  11.461
62702W        W27687  18.492  10.774   2.207
62703W        W27688  40.815   3.255  12.503
62704W        W27689  42.424  21.449  12.549
62705W        W27690  41.846  27.921   9.796
62706W        W27691  25.170   7.977   1.746
62707W        W27692  19.717  36.537  13.076
62708W        W27693  15.579  13.710  12.560
62709W        W27694   4.661  33.420   3.139
62710W        W27695  18.736  33.422  14.840
62711W        W27696  26.095   6.712  12.821
62712W        W27697  37.780  10.130  11.590
62713W        W27698  30.385  29.446  10.576
62714W        W27699  34.399  43.903  14.344
62715W        W27700  20.539   8.390  12.893
62716W        W27701  18.594  40.562  10.701
62717W        W27702  43.269  15.813  13.389
62718W        W27703  42.048  23.172  13.968
62719W        W27704  15.889  40.043   2.545
62720W        W27705   5.725  18.601   1.791
62721W        W27706  20.628  36.727  12.092
62722W        W27707  29.711  24.185   2.119
62723W        W27708  26.607  28.841  12.411
62724W        W27709  35.004  24.174  12.107
62725W        W27710  17.865  14.299   4.251
62726W        W27711   9.489  35.460   3.164
62727W        W27712   6.627  12.234   1.192
62728W        W27713  19.677  37.075   5.136
62729W        W27714  17.586  41.889  14.562
62730W        W27715  33.328   9.870  14.036
62731W        W27716   2.410  35.391  10.470
62732W        W27717   9.146   9.916  13.579
62733W        W27718  29.679   4.768   2.238
62734W        W27719  25.079  18.355  14.294
62735W        W27720  19.881  29.426   9.718
62736W        W27721   7.016  34.429   2.454
62737W        W27722  29.630   0.430   4.471
62738W        W27723  41.377  24.535   3.661
62739W        W27724   4.315  30.027  12.598
62740W        W27725   1.250  20.137   1.417
62741W        W27726   3.849  23.524  14.237
62742W        W27727  26.522  40.573   0.449
62743W        W27728  41.579  42.405  12.117
62744W        W27729  40.158  34.446   0.854
62745W        W27730  19.361   4.686   1.929
62746W        W27731  40.853  11.287   2.102
62747W        W27732   8.751  28.474  11.588
62748W        W27733  31.378  31.907  11.684
62749W        W27734   3.878  14.019   2.811
62750W        W27735  33.846  23.739   1.684
62751W        W27736  32.853  21.022  10.489
62752W        W27737   3.805  39.032   0.748
62753W        W27738  40.866  44.212  14.144
62754W        W27739  43.338  27.690   2.385
62755W        W27740   2.168  14.173   2.411
62756W        W27741   5.368   0.515  11.633
62757W        W27742  19.628   3.875   2.416
62758W        W27743  25.682  38.777  10.657
62759W        W27744  31.525  23.996   0.295
62760W        W27745  33.765  16.136  12.730
62761W        W27746  13.257   2.768  11.018
62762W        W27747  35.204  18.571   0.865
62763W        W27748  15.626  41.925   1.903
62764W        W27749   6.220  33.635   4.597
62765W        W27750  17.643   5.739   2.166
62766W        W27751   9.188   8.905  14.907
62767W        W27752  23.622  23.895  13.119
62768W        W27753  44.877   0.896  12.050
62769W        W27754  10.413  23.413  14.761
62770W        W27755  24.017  16.066  13.814
62771W        W27756  24.595   4.737   4.071
62772W        W27757  29.820   2.268   0.468
62773W        W27758   2.221  30.034   3.197
62774W        W27759  11.206   7.296   1.952
62775W        W27760  36.408  25.107  13.262
62776W        W27761  43.966   6.550  11.139
62777W        W27762   8.468   2.580   0.930
62778W        W27763  13.064  37.751  14.637
62779W        W27764  30.593  18.313  13.002
62780W        W27765  28.441  26.228  10.598
62781W        W27766   8.615   3.382  12.195
62782W        W27767  27.537  39.440  12.129
62783W        W27768  29.156  14.887  12.585
62784W        W27769  22.608  17.761   0.012
62785W        W27770  16.624  44.105  14.758
62786W        W27771  19.500   3.614   3.797
62787W        W27772  42.450   1.430  11.880
62788W        W27773  39.801  19.665   0.253
62789W        W27774  37.498  37.453   9.993
62790W        W27775   4.992  18.532  11.122
62791W        W27776  10.509  16.231  10.752
62792W        W27777  28.524  26.643  10.258
62793W        W27778  19.751  18.102   1.247
62794W        W27779  39.862   0.227   3.476
62795W        W27780  37.926  31.628  11.144
62796W        W27781   6.182  19.012  10.730
62797W        W27782  25.775  44.667  10.383
62798W        W27783  29.526  13.357   0.907
62799W        W27784  20.101  16.379  12.952
62800W        W27785  37.397  27.699   3.697
62801W        W27786  10.667  11.905  12.517
62802W        W27787  18.834   0.971  12.634
62803W        W27788  37.605  14.335  11.041
62804W        W27789  35.442  29.190   3.204
62805W        W27790  23.110  10.855  13.296
62806W        W27791   5.613  18.143  10.762
62807W        W27792  27.191  22.033   1.106
62808W        W27793  41.053  23.014   4.564
62809W        W27794  22.708  10.247  11.953
62810W        W27795  22.718   3.251   4.680
62811W        W27796  20.523   5.801   9.974
62812W        W27797  44.775  14.652  11.903
62813W        W27798  16.555  34.355  11.077
62814W        W27799   7.304  33.859  13.544
62815W        W27800  43.953  44.786   2.939
62816W        W27801  27.118  28.034   0.356
62817W        W27802  11.154  41.577  13.684
62818W        W27803  11.625   3.339  10.852
62819W        W27804  20.387  35.841  10.798
62820W        W27805   7.224  38.188   1.921
62821W        W27806   9.505  44.570   5.002
62822W        W27807  22.851  21.780  10.785
62823W        W27808  33.905  17.735   2.081
62824W        W27809  22.223  36.989  13.450
62825W        W27810  21.977  39.382  13.328
62826W        W27811   6.774  43.621  11.018
62827W        W27812  29.193  31.489  10.268
62828W        W27813  22.586   6.852  12.456
62829W        W27814  42.251  43.059  11.667
62830W        W27815   8.880   2.849   3.497
62831W        W27816  27.481  44.451   1.310
62832W        W27817  21.713  41.963   3.187
62833W        W27818   5.940   0.409  10.652
62834W        W27819  32.667  22.630   1.562
62835W        W27820   2.313  33.153  13.512
62836W        W27821  42.684  11.264   0.616
62837W        W27822  44.892  22.015  11.269
62838W        W27823  38.563  39.859   4.499
62839W        W27824  20.992  43.703  14.790
62840W        W27825   0.036   5.303   1.832
62841W        W27826  28.387  44.348   4.122
62842W        W27827  13.183  43.549   4.829
62843W        W27828  12.343  16.722  10.797
62844W        W27829  18.081   7.450  11.565
62845W        W27830  38.794  42.537   0.739
62846W        W27831  28.565   4.951   0.353
62847W        W27832   4.670  33.635  14.846
62848W        W27833  41.486  26.453  14.872
62849W        W27834  35.132  44.762  10.626
62850W        W27835  32.518  17.620   4.647
62851W        W27836  37.894  12.790   1.383
62852W        W27837  32.134   7.220  13.798
62853W        W27838  41.576  23.446  14.452
62854W        W27839  22.225  25.461   4.162
62855W        W27840  33.221  40.797   4.424
62856W        W27841  28.874  32.949  12.976
62857W        W27842  42.457   7.457   3.201
62858W        W27843  13.655  24.123  13.870
62859W        W27844  41.770  14.128   2.347
62860W        W27845   5.936   3.958   1.287
62861W        W27846   8.224   1.188   0.952
62862W        W27847  32.241   6.796   3.277
62863W        W27848  27.176   0.437   9.531
62864W        W27849  34.555  21.189  11.155
62865W        W27850  22.659  19.632  12.047
62866W        W27851  10.315  11.120  11.358
62867W        W27852  19.247  28.524  13.416
62868W        W27853  20.610  17.001  10.408
62869W        W27854  27.943  35.151   2.794
62870W        W27855  44.213  10.395   4.231
62871W        W27856  12.687  38.019  14.886
62872W        W27857   9.204  30.240   4.666
62873W        W27858  11.558  42.299   4.017
62874W        W27859   4.245  17.323   0.487
62875W        W27860  28.679  39.858   0.847
62876W        W27861  12.607  44.168  12.445
62877W        W27862  15.713  40.590   1.210
62878W        W27863  19.570  21.594  13.543
62879W        W27864  32.682  26.375   0.744
62880W        W27865   3.649  22.506   0.748
62881W        W27866  29.989   1.417   4.180
62882W        W27867  37.228  33.190   4.112
62883W        W27868  44.393   6.253   2.854
62884W        W27869  20.167   1.407  11.265
62885W        W27870  25.251   2.593   9.805
62886W        W27871   4.829   8.647   4.474
62887W        W27872  18.287  12.717  13.832
62888W        W27873  14.551  25.144  12.555
62889W        W27874  39.825  36.614  14.509
62890W        W27875  44.073   7.287  14.312
62891W        W27876  31.033  20.239  13.542
62892W        W27877  38.863  37.065  12.957
62893W        W27878   1.269   9.225   0.480
62894W        W27879  42.769  44.296  13.890
62895W        W27880  44.813  36.378  12.531
62896W        W27881  10.528  43.506  11.265
62897W        W27882   0.493  35.451   2.565
62898W        W27883  43.535  10.622  11.152
62899W        W27884  17.594  19.376   0.685
62900W        W27885  27.622  25.127  13.050
62901W        W27886   2.397  23.669  10.777
62902W        W27887  35.646  30.003  11.217
62903W        W27888  22.526   7.225  14.953
62904W        W27889  16.124  44.339   3.832
62905W        W27890   1.206   3.170  11.090
62906W        W27891  24.487  23.513  10.785
62907W        W27892   4.217  40.320   3.671
62908W        W27893  30.586  34.505   1.452
62909W        W27894  11.772   9.205  13.609
62910W        W27895  32.095  28.964  13.918
62911W        W27896  17.273  30.494   1.676
62912W        W27897  25.941  35.638  14.079
62913W        W27898  20.405  15.575  11.986
62914W        W27899  42.360  21.156  14.360
62915W        W27900  42.621  28.927   3.283
62916W        W27901   8.183  17.010   1.590
62917W        W27902  11.057  42.724  14.934
62918W        W27903  30.936  11.141  14.876
62919W        W27904   6.187  34.590  11.936
62920W        W27905  30.521   8.109   4.154
62921W        W27906  33.192   5.374  12.129
62922W        W27907   3.637   2.958   3.078
62923W        W27908  42.007   0.151   4.121
62924W        W27909   3.625  29.963  14.042
62925W        W27910  28.093  37.861   4.049
62926W        W27911   9.104  31.933   4.204
62927W        W27912   5.745   6.841  12.948
62928W        W27913  23.149  40.601   0.240
62929W        W27914  40.379  14.161  14.024
62930W        W27915  16.185  27.883  14.264
62931W        W27916  33.499  18.191   0.487
62932W        W27917  15.820  25.950   4.999
62933W        W27918  32.942  27.884  12.936
62934W        W27919  36.086  41.488  13.073
62935W        W27920  20.544  17.743   3.599
62936W        W27921  34.339  43.435  10.673
62937W        W27922  18.213  39.302  12.289
62938W        W27923  21.295  24.928   0.819
62939W        W27924  29.936  22.270   1.848
62940W        W27925  42.021  33.567   3.219
62941W        W27926  34.395  13.090  11.100
62942W        W27927  29.542  19.602  10.673
62943W        W27928  27.177  37.579  10.292
62944W        W27929   6.743   9.821   4.109
62945W        W27930  42.729  41.159   2.709
62946W        W27931   1.272  10.114  12.806
62947W        W27932  30.132  33.191   0.674
62948W        W27933  32.936   0.661   1.628
62949W        W27934  33.308  22.185   3.594
62950W        W27935  23.787  21.418  13.482
62951W        W27936  30.664   1.560  14.377
62952W        W27937  22.165  11.316   2.239
62953W        W27938  19.203   0.533   4.025
62954W        W27939  31.067  17.062   3.114
62955W        W27940  21.214   2.288  13.808
62956W        W27941   4.445   6.822   4.236
62957W        W27942  29.409  37.488   0.021
62958W        W27943  36.049  44.336  13.398
62959W        W27944   3.026   1.492   3.742
62960W        W27945  19.074  30.862  14.618
62961W        W27946   5.266  22.280   2.218
62962W        W27947  22.141  35.557   2.873
62963W        W27948  24.175  44.339   4.144
62964W        W27949  44.239   2.281   2.272
62965W        W27950  30.124  19.481  14.888
62966W        W27951  20.341  21.193  13.233
62967W        W27952  16.201  20.803   2.197
62968W        W27953   5.751  26.010  13.906
62969W        W27954  33.398  38.844  10.764
62970W        W27955  33.577  22.371   1.730
62971W        W27956   5.262   2.585   3.726
62972W        W27957   1.677  11.737  13.267
62973W        W27958  20.308  11.562   0.288
62974W        W27959  36.257  35.440   4.956
62975W        W27960  19.022  19.187   0.939
62976W        W27961  33.871  16.034  11.244
62977W        W27962  10.816  41.869  11.428
62978W        W27963  40.359  11.922   0.331
62979W        W27964  17.771  27.188   3.661
62980W        W27965   6.786   4.658  12.593
62981W        W27966  36.589  15.052   3.739
62982W        W27967  15.317  15.668   1.866
62983W        W27968  20.716  13.087   2.347
62984W        W27969  17.687  42.460  10.868
62985W        W27970  13.340  11.020  14.590
62986W        W27971  12.550  12.350   4.432
62987W        W27972   0.084  34.588   2.124
62988W        W27973  33.550  22.087   3.098
62989W        W27974  43.508  34.562  13.710
62990W        W27975  35.313  27.655   1.747
62991W        W27976   3.324  31.857  12.632
62992W        W27977  21.536  25.391   0.677
62993W        W27978  35.051  37.147  13.371
62994W        W27979  13.281  11.541  14.838
62995W        W27980   4.007   1.463   0.405
62996W        W27981  24.742   8.069  12.192
62997W        W27982  30.484  19.594  13.916
62998W        W27983   1.972  40.898  10.772
62999W        W27984  33.152  32.599   3.542
63000W        W27985   1.277  15.404   4.165
63001W        W27986  15.922  18.057  12.237
63002W        W27987  38.784  13.140  13.069
63003W        W27988   3.940  28.934  14.210
63004W        W27989  30.475   0.370   2.022
63005W        W27990   3.648   7.558   3.156
63006W        W27991  36.663  18.412  14.727
63007W        W27992  43.712  28.958  12.897
63008W        W27993  19.218  23.287  10.527
63009W        W27994  32.625  32.405   1.350
63010W        W27995   4.758  35.713   5.009
63011W        W27996   2.806  26.425  11.441
63012W        W27997  13.442  23.458   0.902
63013W        W27998  24.126  20.764   3.259
63014W        W27999  21.488  16.742   0.301
63015W        W28000  17.275  40.514  10.972
63016W        W28001   9.696  18.746  12.529
63017W        W28002  25.461  39.275   0.657
63018W        W28003  15.668  12.389   2.420
63019W        W28004  34.714  33.026   4.156
63020W        W28005  21.977  32.589  13.949
63021W        W28006  25.242  18.792   3.470
63022W        W28007   5.174   1.791   1.707
63023W        W28008   8.654  19.668   4.500
63024W        W28009  24.717  27.565  12.650
63025W        W28010  12.331   6.200   0.289
63026W        W28011  22.955  14.144   0.006
63027W        W28012  41.806   6.765  14.399
63028W        W28013   6.391  16.970  13.029
63029W        W28014  17.704  15.857   2.805
63030W        W28015   7.293  38.553  11.880
63031W        W28016  21.767   4.287   3.390
63032W        W28017  31.503  23.956   4.237
63033W        W28018  42.772  40.343   1.582
63034W        W28019   6.852  22.117   1.753
63035W        W28020  32.518   0.986  11.682
63036W        W28021   5.267  44.208   1.742
63037W        W28022  40.954   2.897   4.118
63038W        W28023  25.196  24.451  10.922
63039W        W28024  31.050  21.933   3.733
63040W        W28025   0.933  11.090   2.239
63041W        W28026   9.155   1.834  14.736
63042W        W28027  20.398   6.417   0.021
63043W        W28028  43.900  38.557   2.857
63044W        W28029  19.622  24.509   1.136
63045W        W28030   5.307  11.344  12.798
63046W        W28031  23.423  11.433  11.157
63047W        W28032  37.605  39.947  11.107
63048W        W28033  23.730   4.328  11.712
63049W        W28034  34.349   6.501   0.439
63050W        W28035  30.144  22.545   2.243
63051W        W28036  37.307   5.717   2.736
63052W        W28037  30.930  18.100   0.754
63053W        W28038  12.451  43.873   3.124
63054W        W28039  22.582   2.757   3.891
63055W        W28040   8.952  17.643  14.072
63056W        W28041  36.903  26.256   1.399
63057W        W28042  44.563  35.788   3.650
63058W        W28043  15.882   0.456  10.237
63059W        W28044   7.893  34.315   0.001
63060W        W28045  24.568  41.579   2.217
63061W        W28046  27.719  38.343  11.706
63062W        W28047  16.757  29.627   1.288
63063W        W28048  42.854  13.176   0.378
63064W        W28049  39.720  39.780   3.643
63065W        W28050   5.231  17.615   3.911
63066W        W28051  29.121  10.610  14.957
63067W        W28052  41.280  32.553  14.247
63068W        W28053  21.597  40.323   2.712
63069W        W28054   6.669  15.027  13.824
63070W        W28055  32.651  31.372  13.524
63071W        W28056  33.557  33.907   2.984
63072W        W28057  36.975  20.210   1.757
63073W        W28058   9.450  34.360   1.855
63074W        W28059  37.035  41.289   1.440
63075W        W28060  20.563   2.022  12.015
63076W        W28061   1.488  33.745   0.475
63077W        W28062  44.778  15.225   4.254
63078W        W28063  16.564  10.179  14.492
63079W        W28064  36.503   9.924  11.338
63080W        W28065  37.499  32.219  12.080
63081W        W28066  38.605  14.053  14.354
63082W        W28067  34.609   3.925  11.746
63083W        W28068  28.403  25.447   0.285
63084W        W28069  17.436   0.277   2.400
63085W        W28070  15.096   9.466   0.331
63086W        W28071  40.224   0.131   1.344
63087W        W28072  10.337  13.351  11.056
63088W        W28073  15.569  24.519   4.990
63089W        W28074  28.983  32.951   1.264
63090W        W28075  18.026  14.809  12.435
63091W        W28076  23.729   7.700  14.775
63092W        W28077  17.625  32.364  12.719
63093W        W28078  25.037  13.414  11.581
63094W        W28079   9.409  25.172  12.452
63095W        W28080  34.783  19.026  12.084
63096W        W28081  17.088  24.563   1.261
63097W        W28082   9.267  11.757   0.721
63098W        W28083  42.404  38.654   0.778
63099W        W28084  10.039  22.979  13.518
63100W        W28085  37.783  41.734  10.793
63101W        W28086   2.104  31.942   0.363
63102W        W28087   0.366  24.204   3.360
63103W        W28088  14.139   8.633  13.531
63104W        W28089  24.418  36.953   2.505
63105W        W28090  43.824  40.142  14.470
63106W        W28091   4.353  31.554  12.424
63107W        W28092  22.150  22.603  14.604
63108W        W28093  25.409  13.773  11.594
63109W        W28094  40.946  34.642   2.376
63110W        W28095  14.098   7.215   3.473
63111W        W28096  23.770  14.103   3.539
63112W        W28097  24.974  13.009   4.022
63113W        W28098  32.659  12.476  11.633
63114W        W28099  12.774  19.090  10.408
63115W        W28100   8.141  44.691   0.881
63116W        W28101  15.132   1.854  13.790
63117W        W28102  12.146  13.690   4.160
63118W        W28103  31.060  24.419   1.852
63119W        W28104  32.568  30.899   4.101
63120W        W28105  23.661   2.413  14.313
63121W        W28106  44.125  27.548   4.925
63122W        W28107  19.861  13.753   2.236
63123W        W28108  22.942  33.136   1.370
63124W        W28109  16.799   3.004  12.584
63125W        W28110   5.710  39.302   1.698
63126W        W28111  25.714  37.094   2.989
63127W        W28112  19.819  29.626   2.680
63128W        W28113   8.177  22.112   4.932
63129W        W28114  28.643  31.512  11.557
63130W        W28115  12.940  23.585   0.820
63131W        W28116  41.572  20.186   0.978
63132W        W28117  15.043  26.085  12.916
63133W        W28118  39.810   4.134  10.688
63134W        W28119  41.997   9.744   2.389
63135W        W28120  22.247  39.013   0.286
63136W        W28121  10.090  22.698  13.081
63137W        W28122  23.244  23.291  14.315
63138W        W28123  20.585  15.444   3.618
63139W        W28124  15.785  20.259  12.119
63140W        W28125  35.480  40.482  12.597
63141W        W28126  20.007   8.306   9.837
63142W        W28127  11.872  12.823  12.322
63143W        W28128  26.191  15.847  14.196
63144W        W28129  11.282   7.596  12.510
63145W        W28130  25.902  33.337   1.919
63146W        W28131  16.830  24.186   0.867
63147W        W28132   9.257   1.496   2.303
63148W        W28133  35.279  12.152  14.277
63149W        W28134  41.590   1.555  14.418
63150W        W28135  27.395  13.833   2.981
63151W        W28136  24.195  17.585   2.358
63152W        W28137   9.345   3.881   0.941
63153W        W28138   2.712  34.688  14.985
63154W        W28139  22.316  35.902   2.458
63155W        W28140  24.237  38.454  12.512
63156W        W28141  18.591  15.388   2.862
63157W        W28142  15.262  34.231  13.816
63158W        W28143  11.569  26.242  13.351
63159W        W28144  32.112  38.241   4.368
63160W        W28145  22.579   6.497   4.252
63161W        W28146  38.292  44.294   3.624
63162W        W28147  35.115  43.483   1.815
63163W        W28148   4.976  26.476   1.124
63164W        W28149  14.296  33.617   0.353
63165W        W28150  44.732   3.658   0.488
63166W        W28151  15.187   0.809  14.499
63167W        W28152  34.553  31.139  10.941
63168W        W28153  18.225  18.016  10.793
63169W        W28154  41.407  14.439   0.541
63170W        W28155  17.662  33.545   0.795
63171W        W28156  23.127   2.812  11.733
63172W        W28157  19.046   9.293   5.312
63173W        W28158  43.563   1.810  11.468
63174W        W28159  22.607  23.972  12.993
63175W        W28160   8.515  34.655   0.445
63176W        W28161  29.166  19.909   5.062
63177W        W28162  21.254  25.748  14.842
63178W        W28163   8.181   8.758  14.985
63179W        W28164   4.443  41.810  10.908
63180W        W28165  40.999  32.604   2.353
63181W        W28166  14.246  24.523   1.429
63182W        W28167  41.554   3.066  12.015
63183W        W28168  38.029  16.079   1.850
63184W        W28169  43.887  11.724   2.761
63185W        W28170  28.425  16.568  12.441
63186W        W28171  13.001  32.460  12.903
63187W        W28172  18.573   9.739  12.615
63188W        W28173   1.764  28.236   4.434
63189W        W28174  34.026  37.574  12.761
63190W        W28175  38.997   6.369   1.884
63191W        W28176  20.160   5.209  13.353
63192W        W28177  36.042  28.731   0.287
63193W        W28178  33.014   1.749  13.644
63194W        W28179  28.681  24.979  12.347
63195W        W28180  40.426  23.997   4.576
63196W        W28181   8.708  35.619   3.750
63197W        W28182   9.302  25.096   4.767
63198W        W28183  44.770  17.864   1.935
63199W        W28184  21.464  24.776  14.836
63200W        W28185  43.295  31.236  12.930
63201W        W28186  39.749  26.880   3.536
63202W        W28187  11.802  37.638  13.563
63203W        W28188  17.699  12.904   2.382
63204W        W28189   7.772   3.444   3.980
63205W        W28190  43.979   4.219   4.598
63206W        W28191  20.571  37.409   4.642
63207W        W28192   6.924   3.102   1.097
63208W        W28193  11.637   7.875  12.794
63209W        W28194   7.830  21.743  11.366
63210W        W28195  34.718  16.276   1.012
63211W        W28196  11.299  43.199   0.045
63212W        W28197  22.821  25.156   3.749
63213W        W28198  34.546  13.095   0.316
63214W        W28199  27.411  37.088   3.663
63215W        W28200   7.962  12.380  13.144
63216W        W28201  11.102  14.255  10.680
63217W        W28202  31.966  38.199   3.036
63218W        W28203  27.987  35.634  13.500
63219W        W28204  19.600  41.032  12.171
63220W        W28205  20.175  15.468   4.389
63221W        W28206  11.824  15.261  12.132
63222W        W28207  21.127  31.224   1.284
63223W        W28208   2.985  39.351   2.590
63224W        W28209  10.264  41.436   0.828
63225W        W28210  11.239  11.450   2.231
63226W        W28211  21.328  20.482  13.928
63227W        W28212   4.358   0.229   1.989
63228W        W28213  39.873  36.901  12.945
63229W        W28214   9.994  27.014   3.233
63230W        W28215   2.640  18.441  14.332
63231W        W28216  42.987  43.564  13.394
63232W        W28217  16.025  17.163   0.932
63233W        W28218  16.776  42.939   4.528
63234W        W28219  16.752  43.306  12.518
63235W        W28220  11.982   0.956  11.631
63236W        W28221  41.694   1.364  14.963
63237W        W28222  26.054  20.049  10.631
63238W        W28223  21.203   3.047   3.080
63239W        W28224  11.302  39.419  11.511
63240W        W28225  19.465  20.594   2.448
63241W        W28226  36.882  24.043   5.156
63242W        W28227  27.597  38.082   2.707
63243W        W28228   6.343  12.823  11.217
63244W        W28229  40.719  29.596  11.979
63245W        W28230  27.659  36.556  12.087
63246W        W28231  19.962  35.882   2.736
63247W        W28232  15.230  28.079   3.580
63248W        W28233  37.753  40.055   2.033
63249W        W28234  39.697  32.917  10.865
63250W        W28235  36.677   1.044  11.061
63251W        W28236  20.512   6.153   3.320
63252W        W28237  40.932  32.069  12.176
63253W        W28238  36.490   2.831   4.406
63254W        W28239  17.605  22.584  10.536
63255W        W28240  38.977  23.062   4.450
63256W        W28241  29.472  14.741   2.144
63257W        W28242  29.372  40.942   1.803
63258W        W28243  29.999  16.056  13.943
63259W        W28244  18.286  13.894  12.118
63260W        W28245   4.340  19.801  14.028
63261W        W28246  39.933  38.009   1.966
63262W        W28247  18.709  19.598   0.845
63263W        W28248  13.228   7.376   4.625
63264W        W28249  10.690   4.892  14.043
63265W        W28250   5.919   9.109   2.808
63266W        W28251  13.832  22.109  11.106
63267W        W28252  14.615  17.811   1.376
63268W        W28253   2.490   6.210  11.128
63269W        W28254  27.459  14.066   0.429
63270W        W28255  29.893  24.495  14.743
63271W        W28256  22.669  20.118   4.668
63272W        W28257  16.588  39.983   4.682
63273W        W28258  38.131  36.732  14.873
63274W        W28259  35.428  18.960   1.125
63275W        W28260  42.870  36.938  12.850
63276W        W28261   4.351   5.195   0.899
63277W        W28262  37.631  24.003  14.184
63278W        W28263  17.298  26.482  12.045
63279W        W28264   4.021  24.265  11.172
63280W        W28265   8.401   4.314  12.614
63281W        W28266  17.743   4.402  14.035
63282W        W28267  27.902   0.255   4.016
63283W        W28268   9.718  33.044   0.053
63284W        W28269   8.322  30.529   3.232
63285W        W28270  25.508  41.938  11.174
63286W        W28271  10.378  43.807   1.106
63287W        W28272   4.669  37.884  12.828
63288W        W28273  38.100   0.140   3.365
63289W        W28274  11.701  14.036   0.914
63290W        W28275  16.867  16.603  11.344
63291W        W28276  38.357  34.027  14.694
63292W        W28277  10.318  35.181   3.810
63293W        W28278  23.225  42.698   2.623
63294W        W28279  35.404   7.559   0.215
63295W        W28280  25.467  41.482  13.835
63296W        W28281  22.824  24.584  10.949
63297W        W28282   7.626  34.630  13.866
63298W        W28283  34.869  18.172  12.071
63299W        W28284  30.548  35.990   3.240
63300W        W28285  34.898  32.971   2.854
63301W        W28286   0.414  35.894   1.325
63302W        W28287  10.815  29.393  11.661
63303W        W28288  10.117  44.261  12.465
63304W        W28289   2.773  21.547   0.639
63305W        W28290  27.876  37.335  11.230
63306W        W28291  13.427  13.185   3.724
63307W        W28292  25.303   2.792   4.602
63308W        W28293  14.871   8.111   2.678
63309W        W28294  21.280  39.783  12.163
63310W        W28295   8.852  39.383   1.305
63311W        W28296   9.153  16.368   2.449
63312W        W28297   4.954  20.248   3.772
63313W        W28298  28.039  18.572   1.753
63314W        W28299  18.086  38.267  14.875
63315W        W28300  21.665  36.802   0.997
63316W        W28301  19.729  39.482   0.925
63317W        W28302   7.442   1.175  10.362
63318W        W28303  31.097  38.887  12.403
63319W        W28304   8.113  13.643   4.146
63320W        W28305  33.822  36.403  14.010
63321W        W28306   3.711   8.227  10.602
63322W        W28307   0.017  32.645   0.430
63323W        W28308  27.940  31.072  11.620
63324W        W28309   2.039  15.674  14.883
63325W        W28310  23.402  31.528   0.497
63326W        W28311  28.587  15.272  14.860
63327W        W28312   8.798  24.386   4.989
63328W        W28313  12.259  37.138  12.408
63329W        W28314  31.483  26.216   1.652
63330W        W28315  35.148  21.245   1.168
63331W        W28316  40.720  30.441   0.548
63332W        W28317  13.345  13.067  10.658
63333W        W28318  33.610  39.317  10.770
63334W        W28319   3.625  35.371  11.148
63335W        W28320   0.118  19.938  14.467
63336W        W28321   5.877  29.580   1.309
63337W        W28322  25.574  44.277   0.451
63338W        W28323  18.634   0.931  14.367
63339W        W28324  42.383  29.888   3.903
63340W        W28325  19.240  36.519   4.900
63341W        W28326  31.672  10.322   0.432
63342W        W28327  41.849  31.491   4.363
63343W        W28328  20.205   4.925   1.312
63344W        W28329  14.048  16.254   3.766
63345W        W28330  42.875   0.810  11.934
63346W        W28331   7.619  21.162   0.891
63347W        W28332  36.518  32.137   1.269
63348W        W28333  36.922   4.714  13.044
63349W        W28334   5.391  12.959  11.435
63350W        W28335  11.248  25.645  11.817
63351W        W28336  42.324  35.150   1.414
63352W        W28337  31.451  38.090   2.749
63353W        W28338  11.283  43.837   2.444
63354W        W28339  20.136  30.183   9.967
63355W        W28340  41.039   9.237  11.541
63356W        W28341  33.279  33.765   2.145
63357W        W28342  41.927  14.277   0.014
63358W        W28343  27.351  22.541  14.441
63359W        W28344  20.198  44.440   3.643
63360W        W28345  38.468   8.845   2.150
63361W        W28346   6.179  39.389  11.099
63362W        W28347   5.684  25.611   1.242
63363W        W28348  32.336  43.791  11.084
63364W        W28349  10.828  23.859   1.945
63365W        W28350  39.876  20.657  14.575
63366W        W28351  21.728   8.412  12.870
63367W        W28352  37.768  42.629   2.961
63368W        W28353  15.662  12.294  11.161
63369W        W28354  32.803  29.379  11.641
63370W        W28355  30.566  41.031  14.496
63371W        W28356  23.304  42.948   3.108
63372W        W28357  37.475  25.457  12.967
63373W        W28358   9.694   5.547   1.672
63374W        W28359  20.817  25.917  14.596
63375W        W28360  14.779  21.803  12.527
63376W        W28361  37.767  43.027   1.307
63377W        W28362  31.556  39.731   0.448
63378W        W28363   9.619  26.163  11.254
63379W        W28364  10.152   6.785  12.056
63380W        W28365   9.694  18.129  11.024
63381W        W28366  41.075  12.123   1.954
63382W        W28367  17.786   4.561   3.598
63383W        W28368  34.936  12.069   1.111
63384W        W28369  29.327   9.691   0.589
63385W        W28370  40.196  38.031  11.130
63386W        W28371  37.414  14.269  14.849
63387W        W28372  31.584  17.708   2.614
63388W        W28373   5.390   5.128  13.957
63389W        W28374  36.382  10.085   3.129
63390W        W28375  38.074  39.098   4.123
63391W        W28376  34.026  29.499   3.186
63392W        W28377  42.954  39.756   0.323
63393W        W28378   1.162  15.068  11.553
63394W        W28379   6.156   2.247   4.082
63395W        W28380  40.241  35.630  12.942
63396W        W28381  43.986  16.306   4.089
63397W        W28382   7.754  38.373  12.058
63398W        W28383  38.824  15.484  11.924
63399W        W28384   1.832  20.508  12.407
63400W        W28385  33.236  43.109  12.570
63401W        W28386  31.976  25.741   2.461
63402W        W28387  25.729   9.254  11.578
63403W        W28388  36.548   3.082  11.799
63404W        W28389  43.445  44.759   0.439
63405W        W28390  24.057  20.252   3.180
63406W        W28391  38.246  36.418  12.479
63407W        W28392  32.127  20.833  13.930
63408W        W28393  24.656  36.819  11.027
63409W        W28394  32.585  18.004   1.348
63410W        W28395   8.699  15.846  12.381
63411W        W28396  35.782  28.065  14.013
63412W        W28397  12.239  41.069   4.179
63413W        W28398  12.256  25.223   1.791
63414W        W28399  29.663  37.172   4.180
63415W        W28400   0.004   4.817  12.184
63416W        W28401  31.920  39.329  11.128
63417W        W28402   3.946  26.037  13.321
63418W        W28403  36.909   1.986  14.759
63419W        W28404  36.347  41.467  11.437
63420W        W28405  26.531  40.651   1.909
63421W        W28406  33.957   0.342   4.378
63422W        W28407   7.404  24.636   3.743
63423W        W28408  11.691  22.802  13.008
63424W        W28409  13.068  14.730   3.326
63425W        W28410  34.111   2.762  13.628
63426W        W28411  38.108  25.250   5.477
63427W        W28412  42.708   2.173   1.309
63428W        W28413   7.790  20.853   2.339
63429W        W28414  14.132  39.380  13.208
63430W        W28415  24.557  13.576  13.529
63431W        W28416  26.279  16.061   0.755
63432W        W28417   6.428  36.405  13.505
63433W        W28418   3.737   3.071  11.107
63434W        W28419  29.282   7.727   2.301
63435W        W28420  28.644   3.134   2.275
63436W        W28421   3.386  35.844  14.480
63437W        W28422  11.811  30.681   2.439
63438W        W28423  42.948  22.909   3.967
63439W        W28424  14.943  40.067   1.137
63440W        W28425   5.735  26.531   0.770
63441W        W28426  15.639   1.794  13.526
63442W        W28427  13.646   9.274  13.963
63443W        W28428  12.646   5.923  12.746
63444W        W28429  12.180  34.043   0.626
63445W        W28430  22.601  12.274   4.125
63446W        W28431  19.260  25.224   4.953
63447W        W28432  35.982  29.460  12.003
63448W        W28433  13.772  20.787   1.693
63449W        W28434   0.102  33.503   0.260
63450W        W28435  16.376   0.191  11.625
63451W        W28436  34.072   7.224   3.757
63452W        W28437  26.543  42.000   0.403
63453W        W28438  29.691  38.179   4.217
63454W        W28439   0.266  15.072   0.923
63455W        W28440   9.649  31.228   0.556
63456W        W28441   1.464  33.510  11.228
63457W        W28442  13.690  10.632  14.025
63458W        W28443  31.519  25.652   2.210
63459W        W28444  44.536  14.591   0.246
63460W        W28445  43.758  25.054  11.491
63461W        W28446   2.985  26.495  12.361
63462W        W28447  10.640  12.229   3.713
63463W        W28448  35.052  22.559  14.535
63464W        W28449  35.898   2.819   2.204
63465W        W28450  29.100   0.821  13.508
63466W        W28451  33.491  27.935   3.083
63467W        W28452  14.632  12.290   3.863
63468W        W28453  17.534  17.285  14.042
63469W        W28454  23.558  36.326  14.289
63470W        W28455  40.622   5.664   2.143
63471W        W28456  35.367  37.254  12.273
63472W        W28457  12.738  13.437   0.035
63473W        W28458  44.354  43.756   1.257
63474W        W28459   7.756   2.405   1.991
63475W        W28460  24.742  31.622  12.995
63476W        W28461  35.899  19.590  12.442
63477W        W28462  27.052  17.358   2.147
63478W        W28463   6.695  39.016  13.035
63479W        W28464   9.565  24.255  12.530
63480W        W28465  33.509   6.902   1.879
63481W        W28466  13.012  35.077  13.292
63482W        W28467  37.262  30.962   3.723
63483W        W28468  22.963  31.880  10.891
63484W        W28469  21.832  18.111   3.294
63485W        W28470  16.315  44.185  13.829
63486W        W28471   3.724  15.994   4.267
63487W        W28472  20.284  23.584  11.104
63488W        W28473  29.268  12.150   0.394
63489W        W28474  23.387  19.476  10.286
63490W        W28475  40.590  43.437  13.418
63491W        W28476  31.512  14.743   1.367
63492W        W28477  28.185  41.424   5.054
63493W        W28478   0.566  29.427  10.779
63494W        W28479  31.841  16.298  11.680
63495W        W28480  35.009  20.581   3.308
63496W        W28481  21.679  37.899  12.667
63497W        W28482  12.864  16.611   3.276
63498W        W28483  17.791  37.527   4.675
63499W        W28484  43.643  17.141   0.277
63500W        W28485  20.281  28.942   0.159
63501W        W28486  13.329  21.318   0.773
63502W        W28487  12.802  17.831   0.763
63503W        W28488  42.899  27.931  14.180
63504W        W28489  38.900  44.007  12.054
63505W        W28490  44.419  35.306   4.896
63506W        W28491  30.232  38.775   2.381
63507W        W28492  41.191  13.989  13.816
63508W        W28493  38.363  44.957   1.699
63509W        W28494   8.821  37.321   3.345
63510W        W28495  42.799  12.296   3.175
63511W        W28496  41.065  15.064   3.009
63512W        W28497   2.909  44.235  13.599
63513W        W28498  41.265  41.444  14.330
63514W        W28499  13.478  37.332  12.426
63515W        W28500  42.579  35.535   2.306
63516W        W28501  44.821  26.336   4.022
63517W        W28502  21.440  12.056  11.130
63518W        W28503  29.126  36.848  10.969
63519W        W28504  11.111   5.313   3.231
63520W        W28505   6.812  28.133   4.752
63521W        W28506  24.107  40.404  13.791
63522W        W28507   5.208  40.700   3.572
63523W        W28508  27.902  36.441   4.590
63524W        W28509  43.908  34.701   3.709
63525W        W28510  34.581  24.584  14.529
63526W        W28511   9.721  13.267   2.723
63527W        W28512   5.695  19.583   0.047
63528W        W28513  15.498  39.886  11.062
63529W        W28514  13.760  14.429   0.956
63530W        W28515  39.772  10.289  13.382
63531W        W28516  12.056  35.972   3.696
63532W        W28517   9.911   8.381  12.012
63533W        W28518  27.981  13.589   1.911
63534W        W28519  24.303  44.781   1.145
63535W        W28520   1.952  37.557   2.312
63536W        W28521  22.469  19.156  10.079
63537W        W28522  26.711  35.353  11.976
63538W        W28523  41.266   9.741  12.911
63539W        W28524   1.311  37.695   3.905
63540W        W28525  31.715   7.762  13.505
63541W        W28526  20.941  17.171   0.554
63542W        W28527   0.569  27.155   1.818
63543W        W28528  41.933  34.813  13.346
63544W        W28529   2.837  32.200  11.985
63545W        W28530  18.172  31.114  13.504
63546W        W28531  28.176  12.677   1.736
63547W        W28532  35.974  41.482   2.886
63548W        W28533  15.084   2.263  14.518
63549W        W28534  17.315  17.242  13.582
63550W        W28535  25.396  35.355   3.876
63551W        W28536  16.208  41.510   0.719
63552W        W28537  28.226   4.154   3.041
63553W        W28538   2.454  24.390   2.700
63554W        W28539  33.619  40.056  13.884
63555W        W28540  38.607  25.248   1.811
63556W        W28541  37.734  42.486  12.809
63557W        W28542  41.156  38.475   0.571
63558W        W28543   5.264  40.257   3.828
63559W        W28544  39.280  17.687   2.614
63560W        W28545   0.244  35.843   4.626
63561W        W28546  30.605  16.975  11.568
63562W        W28547   6.319  33.846   2.880
63563W        W28548  26.550  14.725   1.821
63564W        W28549   0.449  25.657  10.648
63565W        W28550  28.018  27.796  10.253
63566W        W28551  29.877  22.081   3.221
63567W        W28552  23.604  38.608  14.988
63568W        W28553  41.825   9.825  12.621
63569W        W28554  32.176  13.619   1.167
63570W        W28555  39.743  22.569  14.633
63571W        W28556   3.905  15.513  11.087
63572W        W28557   1.581   3.705   2.172
63573W        W28558  11.566  22.108  13.541
63574W        W28559  30.078  33.206   4.120
63575W        W28560  16.105  43.463   4.916
63576W        W28561  11.879  21.845   3.632
63577W        W28562  24.520  32.562  11.159
63578W        W28563   0.222  34.493   1.592
63579W        W28564  20.605   4.005   2.105
63580W        W28565  36.999  34.611   2.192
63581W        W28566   8.790   1.599   2.032
63582W        W28567   0.574  30.646  14.930
63583W        W28568  11.152  32.508   4.283
63584W        W28569  37.744   3.385  13.879
63585W        W28570  33.652  35.326   3.240
63586W        W28571   6.781  33.643  10.966
63587W        W28572  37.593  30.458  11.450
63588W        W28573  32.113  25.027  12.899
63589W        W28574  24.573  40.184  12.370
63590W        W28575  29.978  10.751  10.625
63591W        W28576  31.977  18.311   3.981
63592W        W28577  19.645  32.090   3.100
63593W        W28578   8.797  39.262   3.071
63594W        W28579  34.609  17.630  14.020
63595W        W28580  30.678  42.426   4.587
63596W        W28581   5.294  18.960   3.245
63597W        W28582   8.326  11.658  13.878
63598W        W28583  28.121   4.433   2.619
63599W        W28584  40.636  24.510  11.766
63600W        W28585   7.365  42.333  11.155
63601W        W28586  29.491   0.733   0.715
63602W        W28587   3.098   7.009   1.995
63603W        W28588  20.158  23.290  13.836
63604W        W28589  16.174   3.424  11.650
63605W        W28590  44.947  29.905  12.521
63606W        W28591  24.474  13.008   5.167
63607W        W28592  30.736  38.373   0.467
63608W        W28593  20.229  16.210   2.681
63609W        W28594   9.214  23.267   2.881
63610W        W28595   2.374  16.809  11.823
63611W        W28596   3.972  15.056  13.601
63612W        W28597  25.778  15.932   1.915
63613W        W28598  26.995  25.057   1.787
63614W        W28599  38.264  27.569  14.999
63615W        W28600   3.810  37.021   4.344
63616W        W28601   1.405  38.558   3.392
63617W        W28602  25.064  41.221   3.359
63618W        W28603  21.297  17.583   0.742
63619W        W28604  29.942  34.586   2.292
63620W        W28605  23.145   4.532   1.153
63621W        W28606  23.206  26.042  12.392
63622W        W28607  15.141  17.287  13.891
63623W        W28608  33.193  22.324  13.584
63624W        W28609  10.669   0.037   0.095
63625W        W28610  38.474  20.997   1.375
63626W        W28611   9.133  28.782   0.252
63627W        W28612   0.216  20.284  12.180
63628W        W28613   5.288  29.537   4.951
63629W        W28614   8.673  41.382   2.281
63630W        W28615   5.279  25.450  14.330
63631W        W28616   8.224  38.607  10.619
63632W        W28617   4.486   9.227   2.850
63633W        W28618  38.509  13.051  13.963
63634W        W28619   7.949  41.122  12.457
63635W        W28620  23.488  28.570  14.819
63636W        W28621  24.269  26.673   3.283
63637W        W28622  23.804   1.853   1.339
63638W        W28623  37.922  34.873  11.533
63639W        W28624   5.191  31.215   2.603
63640W        W28625   8.474  26.146  13.353
63641W        W28626  40.210  43.226   1.209
63642W        W28627  12.633  42.416   0.763
63643W        W28628  24.943  27.935   1.009
63644W        W28629  35.077  28.601  12.991
63645W        W28630   9.381   8.805   1.756
63646W        W28631   9.900  22.186  12.162
63647W        W28632   3.966  15.496  12.090
63648W        W28633  41.810  34.179  10.801
63649W        W28634   3.070   3.619  10.159
63650W        W28635  39.358  30.454  11.160
63651W        W28636  39.345  15.323   2.777
63652W        W28637  38.782  21.626  10.250
63653W        W28638  15.045  38.443   0.910
63654W        W28639   1.270  14.704  13.850
63655W        W28640  27.120  34.783   2.300
63656W        W28641   5.781  18.453  11.660
63657W        W28642  37.943  27.516   1.470
63658W        W28643  26.605  11.051   3.180
63659W        W28644  16.171  31.371   3.644
63660W        W28645   8.269   2.279   1.911
63661W        W28646  31.886  38.693  13.420
63662W        W28647  13.139  27.009  10.228
63663W        W28648  38.437  43.835  11.842
63664W        W28649   1.228  11.424  11.146
63665W        W28650  29.362  35.980  12.511
63666W        W28651  20.218  19.762  10.184
63667W        W28652  14.649  42.813   1.021
63668W        W28653  30.850  17.997  11.085
63669W        W28654  20.162  24.654  11.137
63670W        W28655  34.859  22.593  10.672
63671W        W28656  32.908  36.048  11.050
63672W        W28657   4.650   7.728  14.522
63673W        W28658  17.385  24.936  11.237
63674W        W28659   7.353  23.195  12.826
63675W        W28660  15.688   3.921   2.897
63676W        W28661  37.231  28.107  12.833
63677W        W28662  40.260  38.879   4.614
63678W        W28663  39.077  38.662   4.174
63679W        W28664   7.855  37.871  12.019
63680W        W28665  35.353  23.470  11.707
63681W        W28666  25.759  24.988  14.463
63682W        W28667  19.574  33.674  10.783
63683W        W28668  18.321  42.928  14.378
63684W        W28669  24.595  15.803   0.013
63685W        W28670  32.419  26.405  10.825
63686W        W28671   8.779   8.407  12.483
63687W        W28672   7.470   5.857  11.997
63688W        W28673  40.090   3.691  11.081
63689W        W28674  23.771  14.159   3.029
63690W        W28675  16.971  25.284   3.410
63691W        W28676   3.445  24.264  12.024
63692W        W28677  14.616   6.996   3.612
63693W        W28678   8.063  30.614  12.396
63694W        W28679  30.391  18.219  11.023
63695W        W28680  27.991  42.935  12.012
63696W        W28681  35.048  29.518   3.803
63697W        W28682  28.420  22.783   3.574
63698W        W28683  34.623  11.169  12.051
63699W        W28684  39.678   3.172   0.659
63700W        W28685  43.750   3.769   4.564
63701W        W28686  42.985  11.361  13.840
63702W        W28687   0.748  34.546  14.306
63703W        W28688  14.613  28.328  11.652
63704W        W28689  35.699  20.721  12.557
63705W        W28690  21.181   8.723   4.579
63706W        W28691  28.668  27.581  14.443
63707W        W28692   6.688   8.821  12.347
63708W        W28693   5.121   6.462   9.992
63709W        W28694  14.333  39.564   0.411
63710W        W28695  37.948  34.606   3.748
63711W        W28696  29.676  22.989  13.995
63712W        W28697   0.772   6.189  12.689
63713W        W28698  40.030   8.426   1.658
63714W        W28699  13.591  18.590  10.912
63715W        W28700  41.084   6.680  14.862
63716W        W28701   9.598  37.099   3.676
63717W        W28702  15.854  12.131   4.136
63718W        W28703  42.771  26.738   3.652
63719W        W28704   0.305  37.640  13.025
63720W        W28705  23.002  40.390   3.362
63721W        W28706  10.122   0.348   3.406
63722W        W28707  32.683  24.637   0.282
63723W        W28708  15.076  42.904   4.288
63724W        W28709   1.270   0.028   1.939
63725W        W28710  37.908  32.121  13.358
63726W        W28711   9.156   1.080   1.368
63727W        W28712   9.856  32.627   3.168
63728W        W28713  30.636  40.843   1.448
63729W        W28714  20.640  35.037   4.433
63730W        W28715  34.801  15.528   4.586
63731W        W28716  14.486  19.369   0.461
63732W        W28717  31.890  11.460   1.853
63733W        W28718  34.477  13.619  14.417
63734W        W28719  26.578  22.978   2.914
63735W        W28720  15.450   3.888  12.662
63736W        W28721  22.005  34.644   3.476
63737W        W28722   7.721  29.299   2.662
63738W        W28723  10.166   8.907   3.178
63739W        W28724  39.309   1.656  12.442
63740W        W28725  30.087  30.736  14.033
63741W        W28726  28.418  14.098   1.083
63742W        W28727  15.787   4.309  10.355
63743W        W28728  25.341  40.809  11.359
63744W        W28729   4.163   6.951   3.410
63745W        W28730  20.841  41.777  13.896
63746W        W28731  16.785  27.496  12.912
63747W        W28732  42.962  14.202  12.788
63748W        W28733  35.365   9.796   2.702
63749W        W28734  33.914  34.459   0.014
63750W        W28735  41.097  31.130   2.351
63751W        W28736  44.811  13.726   1.379
63752W        W28737  25.226   6.305  11.161
63753W        W28738   6.752  31.016  14.240
63754W        W28739  27.951  17.940  13.426
63755W        W28740  39.231  33.028   9.430
63756W        W28741  44.313  32.121   0.769
63757W        W28742  35.805  19.615  11.476
63758W        W28743   9.084  11.704  11.567
63759W        W28744  26.614  37.166   4.080
63760W        W28745  40.532  10.400  13.054
63761W        W28746  33.858  18.672  11.510
63762W        W28747  10.684   3.749  13.216
63763W        W28748  38.364  25.532   3.653
63764W        W28749  41.504   7.428   2.634
63765W        W28750   5.229  41.018  12.903
63766W        W28751  19.415  41.847   2.004
63767W        W28752   3.717   6.320   2.400
63768W        W28753  32.600  40.394  11.595
63769W        W28754  33.624  15.384  14.499
63770W        W28755  34.419  32.640  13.839
63771W        W28756   0.274  10.116   0.986
63772W        W28757  38.176   0.256  11.350
63773W        W28758  20.564  23.682   4.998
63774W        W28759  35.901   5.153   1.883
63775W        W28760   7.619   5.405  14.812
63776W        W28761  33.495  37.004  14.270
63777W        W28762  34.907  32.445  11.039
63778W        W28763  19.072  11.133   4.562
63779W        W28764  40.330  26.265   2.399
63780W        W28765  43.052  44.994  10.901
63781W        W28766   4.810  14.790   4.379
63782W        W28767  11.241  16.069  12.998
63783W        W28768   9.862   7.747  14.287
63784W        W28769  13.315   8.565  13.879
63785W        W28770  26.667  17.820   1.165
63786W        W28771  20.467   1.495  12.026
63787W        W28772  11.921  15.075  14.981
63788W        W28773  27.937  24.869  14.135
63789W        W28774   1.535  39.348   1.356
63790W        W28775  12.596   5.442   4.101
63791W        W28776  25.772  21.696   2.873
63792W        W28777  12.593  18.176   3.518
63793W        W28778   8.768  14.779   4.003
63794W        W28779  25.610  31.583   1.356
63795W        W28780  44.139  28.702  13.284
63796W        W28781  27.532  28.453   0.014
63797W        W28782  35.511  36.616   0.325
63798W        W28783   1.312  29.656   2.374
63799W        W28784  12.122   7.325   1.780
63800W        W28785  24.925   8.581   2.736
63801W        W28786  11.834   0.782   5.003
63802W        W28787  16.064  24.694   3.176
63803W        W28788  27.500  40.488   2.179
63804W        W28789  39.053  11.334   3.287
63805W        W28790  15.066  40.395  12.394
63806W        W28791  10.366   4.527  14.265
63807W        W28792   0.984  32.387   0.307
63808W        W28793  33.875  28.543   1.950
63809W        W28794   0.728   8.442  12.453
63810W        W28795  37.989  38.168   3.141
63811W        W28796  40.063   6.103  13.444
63812W        W28797   2.787  16.665   3.720
63813W        W28798  31.978  24.858  13.965
63814W        W28799  22.118  10.803  13.356
63815W        W28800  20.175  31.690  14.609
63816W        W28801  21.026  39.814  11.734
63817W        W28802  41.263  22.532  10.722
63818W        W28803   9.277  37.514  13.546
63819W        W28804  32.427  32.124  13.008
63820W        W28805   6.321  32.405  13.279
63821W        W28806  25.552  25.184   3.038
63822W        W28807  35.374  29.203   0.535
63823W        W28808  44.377  25.968   2.668
63824W        W28809  37.904   6.918  12.838
63825W        W28810  25.764  33.114   2.383
63826W        W28811   1.748   4.199  11.604
63827W        W28812  43.874  40.829  13.764
63828W        W28813   8.720   1.661   3.275
63829W        W28814  40.991   4.826  14.276
63830W        W28815  11.127  21.226  14.113
63831W        W28816   8.172  19.445  10.943
63832W        W28817  16.215  30.106  13.923
63833W        W28818  25.195  38.323   3.657
63834W        W28819  18.765  21.137   0.683
63835W        W28820   7.174  27.688   1.164
63836W        W28821  29.566  16.139  11.199
63837W        W28822  43.861  12.773   1.402
63838W        W28823   1.399  39.067   1.869
63839W        W28824  33.099  20.268  12.622
63840W        W28825   0.204  41.977   3.252
63841W        W28826  14.313  11.649  13.859
63842W        W28827   4.714  12.233  10.717
63843W        W28828  43.266   0.309   1.964
63844W        W28829  15.921  37.178  11.084
63845W        W28830   5.987  38.375  11.125
63846W        W28831  35.090   0.006  14.594
63847W        W28832  13.406  15.308  10.664
63848W        W28833  32.736  13.700  11.124
63849W        W28834   8.133  17.193  12.996
63850W        W28835   0.468  42.516  14.268
63851W        W28836  41.447  39.955   3.212
63852W        W28837  17.661   8.505   3.993
63853W        W28838   4.370  36.888  14.219
63854W        W28839   1.849  15.595   4.534
63855W        W28840  23.989  19.801   2.206
63856W        W28841  31.881  35.571   3.786
63857W        W28842  24.237  14.024   3.190
63858W        W28843  42.462  44.276  14.368
63859W        W28844  12.287  43.917  11.441
63860W        W28845  14.284   1.196  12.819
63861W        W28846  20.085  33.368   4.708
63862W        W28847  32.641  41.314  13.511
63863W        W28848  38.356   7.898  13.967
63864W        W28849  13.024  44.440  12.368
63865W        W28850  34.317  10.333  13.442
63866W        W28851  28.062  11.906   1.205
63867W        W28852  15.677  36.583  13.339
63868W        W28853  20.614   8.566  11.454
63869W        W28854   8.056   7.166   4.041
63870W        W28855   1.413  34.475   2.688
63871W        W28856  21.037  16.591  10.234
63872W        W28857  38.427  38.341  11.635
63873W        W28858   4.954  42.818   4.621
63874W        W28859  10.255   7.112  12.464
63875W        W28860   2.668  40.419  11.393
63876W        W28861  14.324  26.532   1.919
63877W        W28862  17.163  34.159  11.625
63878W        W28863  39.271  38.734   0.868
63879W        W28864  17.323  30.528   0.762
63880W        W28865  18.548  25.330  12.185
63881W        W28866   9.494  43.299  11.181
63882W        W28867  40.770  33.577   2.296
63883W        W28868   4.892  14.525  12.413
63884W        W28869  41.061   1.008   1.886
63885W        W28870  16.051   6.719  13.060
63886W        W28871  12.363   0.244   0.379
63887W        W28872  39.442  27.805   0.745
63888W        W28873  28.140  10.247   1.799
63889W        W28874  43.786  16.668  12.902
63890W        W28875  22.017  41.938  12.382
63891W        W28876   4.899   2.699  11.603
63892W        W28877   3.263  21.361  14.390
63893W        W28878  33.151  11.272   3.319
63894W        W28879   5.356  22.110  12.539
63895W        W28880   9.872  34.595  14.310
63896W        W28881  44.355  31.206  11.652
63897W        W28882  11.208  12.816   1.279
63898W        W28883  42.596  15.333  12.088
63899W        W28884   7.814  21.558   1.238
63900W        W28885  28.688  16.115  14.008
63901W        W28886  17.221  40.545  13.514
63902W        W28887  32.892  17.373   4.961
63903W        W28888  43.372  22.397   3.683
63904W        W28889  26.572   8.887   3.762
63905W        W28890   1.294   1.495   4.065
63906W        W28891  16.966   8.699  13.993
63907W        W28892  41.539  15.756  13.988
63908W        W28893   0.982  20.254  12.604
63909W        W28894  38.807  34.897  11.561
63910W        W28895   3.011  37.827   2.373
63911W        W28896  27.271  13.386   3.663
63912W        W28897  37.466  31.121   4.591
63913W        W28898  24.706   2.178  14.319
63914W        W28899   3.380   0.283   0.036
63915W        W28900  41.421   7.816  13.373
63916W        W28901  34.521  22.934  13.282
63917W        W28902  11.220  40.069   2.825
63918W        W28903  36.070  17.830   3.855
63919W        W28904  19.225  34.551  11.994
63920W        W28905  21.267  38.947   0.395
63921W        W28906  22.464  23.688  12.578
63922W        W28907  11.582  43.000   1.192
63923W        W28908   2.018  19.216   3.223
63924W        W28909  34.459  37.618   2.255
63925W        W28910   5.586  23.295  14.394
63926W        W28911  34.593   5.200   2.685
63927W        W28912  18.498   3.862  12.473
63928W        W28913  12.544  13.674  11.561
63929W        W28914   0.925  10.624  14.453
63930W        W28915  33.419   5.348  10.559
63931W        W28916  34.459   2.016   4.669
63932W        W28917   1.093  16.642   2.693
63933W        W28918  44.028  18.683   2.299
63934W        W28919  10.877  20.248   1.853
63935W        W28920  38.001  31.490   3.173
63936W        W28921  36.260   2.705   2.908
63937W        W28922  34.392   5.302  13.009
63938W        W28923  15.294   4.913  13.342
63939W        W28924  36.599  20.892  14.396
63940W        W28925  13.273  11.319   4.412
63941W        W28926  13.113  35.478  10.744
63942W        W28927   8.090  44.461  14.584
63943W        W28928   7.397  14.104   2.223
63944W        W28929   5.153  31.924  13.816
63945W        W28930  26.500  43.609   1.852
63946W        W28931  21.411  43.612  14.453
63947W        W28932  21.151  25.454  10.647
63948W        W28933  10.944   2.461   3.827
63949W        W28934   7.435   2.330   1.301
63950W        W28935   7.374   7.891  11.105
63951W        W28936   9.685  21.950  13.441
63952W        W28937  28.048  43.732  11.620
63953W        W28938  37.032  31.407   4.621
63954W        W28939  40.837   5.199   2.215
63955W        W28940  15.192  35.569  12.579
63956W        W28941   8.116  22.605  13.750
63957W        W28942  28.566  20.723   0.030
63958W        W28943   4.292  40.894   3.348
63959W        W28944  23.390  38.095   4.510
63960W        W28945   8.170  28.863   0.371
63961W        W28946  37.966  21.573   4.535
63962W        W28947  26.565  28.905   9.816
63963W        W28948   1.896  37.851   1.866
63964W        W28949   8.207  28.010   0.938
63965W        W28950  28.604   6.196  14.922
63966W        W28951   7.949  40.192  11.609
63967W        W28952  39.537  37.371  12.901
63968W        W28953  38.991  37.005  13.924
63969W        W28954   6.565   5.926   3.506
63970W        W28955  15.026  29.950  12.566
63971W        W28956   3.505  30.553  13.575
63972W        W28957   8.886   8.163   3.111
63973W        W28958  23.723  28.162   2.392
63974W        W28959  11.807   1.965   4.124
63975W        W28960  26.985   5.633   0.805
63976W        W28961  21.903  43.790  12.554
63977W        W28962  34.854  11.807  10.434
63978W        W28963  31.837  43.839  13.042
63979W        W28964  18.063  38.378   2.286
63980W        W28965  11.276  27.393  11.359
63981W        W28966   6.779   5.419   0.362
63982W        W28967  26.555  32.640   5.420
63983W        W28968  24.242  32.456  11.628
63984W        W28969  10.098  32.942  11.984
63985W        W28970   2.029  37.321   5.013
63986W        W28971  41.538  32.672  11.659
63987W        W28972  42.001  30.550   3.613
63988W        W28973  38.742   0.827   2.312
63989W        W28974  30.443  14.079   1.248
63990W        W28975  36.103  10.881   2.847
63991W        W28976   9.224  15.293   1.921
63992W        W28977  32.720   4.962   0.375
63993W        W28978  44.819   3.695   1.339
63994W        W28979  37.536  27.004  10.239
63995W        W28980  22.059  27.538   3.361
63996W        W28981  15.828   7.554   2.866
63997W        W28982  34.541  23.845  13.378
63998W        W28983   9.989   5.896   3.644
63999W        W28984  34.678   3.868  11.230
64000W        W28985  34.075  26.021  11.129
64001W        W28986  18.120   7.249  12.029
64002W        W28987   7.662  41.418   0.048
64003W        W28988  25.717  15.303  12.553
64004W        W28989  23.526  12.353   1.729
64005W        W28990   0.756  30.760   1.254
64006W        W28991  25.785  16.636   2.264
64007W        W28992   6.382   3.275   4.994
64008W        W28993   1.340  24.868   1.571
64009W        W28994  35.638  34.706  13.437
64010W        W28995  44.620  13.865   0.909
64011W        W28996   6.930  22.982  14.024
64012W        W28997  13.369  32.814  13.041
64013W        W28998  26.513  28.350  12.403
64014W        W28999  42.405  16.141  14.475
64015W        W29000  29.103  17.524   4.562
64016W        W29001  37.919   2.480   3.319
64017W        W29002  22.539   9.576  11.052
64018W        W29003  19.050   5.470   1.906
64019W        W29004  31.792  36.977  12.215
64020W        W29005  23.722   3.813  14.981
64021W        W29006  10.187  32.356  13.144
64022W        W29007  31.392  27.778   1.975
64023W        W29008  20.315  18.869  14.092
64024W        W29009  11.264  15.673   4.076
64025W        W29010   3.671   5.321   1.279
64026W        W29011  18.666   8.078   4.103
64027W        W29012  25.481   4.523  12.363
64028W        W29013   6.593   7.126   0.958
64029W        W29014   0.072  41.304  14.006
64030W        W29015   3.839  39.825  10.664
64031W        W29016  26.190  23.530   0.167
64032W        W29017   7.821  22.222   2.452
64033W        W29018  37.591  19.477   1.730
64034W        W29019   6.430  25.518   0.759
64035W        W29020  31.846  29.910   3.250
64036W        W29021   7.295  17.234  12.728
64037W        W29022  37.527   2.231   3.088
64038W        W29023   0.811  33.919  12.882
64039W        W29024  24.089  20.563   2.755
64040W        W29025  23.269  24.509   3.619
64041W        W29026  35.599   3.882  12.191
64042W        W29027  21.343  18.480  14.904
64043W        W29028   5.297  29.353   3.957
64044W        W29029  38.579  38.592   1.298
64045W        W29030  24.734  30.930  14.508
64046W        W29031   9.831  28.081   0.010
64047W        W29032  17.045  18.534   2.281
64048W        W29033  10.318  20.811   2.310
64049W        W29034  11.804  31.980   1.737
64050W        W29035  23.926   8.103   0.678
64051W        W29036   3.272   1.367  11.149
64052W        W29037  40.440   5.702  12.574
64053W        W29038  23.555  18.294   0.300
64054W        W29039  26.157  26.057  11.784
64055W        W29040   2.809   0.964   0.767
64056W        W29041   3.445  20.682  14.812
64057W        W29042  12.235  43.366   0.053
64058W        W29043   0.908  29.962  14.497
64059W        W29044   9.849  25.950  13.576
64060W        W29045   8.849  15.211  11.649
64061W        W29046  16.481   2.447   3.369
64062W        W29047  13.599  15.627  12.457
64063W        W29048  43.028  38.565   2.637
64064W        W29049  42.380   2.900  12.986
64065W        W29050  25.136  14.389   3.216
64066W        W29051  11.215  38.376   2.900
64067W        W29052  43.321  39.942  12.110
64068W        W29053  17.230   3.697   1.205
64069W        W29054  31.492  25.991  12.617
64070W        W29055  34.048  42.424  10.741
64071W        W29056  14.193  43.205  13.933
64072W        W29057  31.342  26.151   2.160
64073W        W29058  31.026  34.551   4.528
64074W        W29059   7.455  41.879  14.886
64075W        W29060   1.153  12.304  14.054
64076W        W29061  32.554  21.583   3.735
64077W        W29062  32.398  30.379   0.836
64078W        W29063   6.229  14.589   0.059
64079W        W29064  34.547  41.364   3.618
64080W        W29065  30.387  44.672   3.759
64081W        W29066  25.753  28.550  12.266
64082W        W29067  17.074   9.223  12.327
64083W        W29068  24.900  17.644   0.496
64084W        W29069  34.347  31.155  11.685
64085W        W29070  32.089  29.568  14.769
64086W        W29071   4.790  20.711  12.457
64087W        W29072   8.739  32.718  13.276
64088W        W29073  42.204  38.234   5.459
64089W        W29074  42.536  35.329   2.761
64090W        W29075  21.748  23.380  12.121
64091W        W29076   1.884  39.257  13.944
64092W        W29077  41.542  15.711  11.021
64093W        W29078  37.482  36.468  13.068
64094W        W29079  26.754  30.865   2.112
64095W        W29080  13.215  32.564   2.948
64096W        W29081  34.019   9.088   4.217
64097W        W29082  33.145  10.483   2.755
64098W        W29083   2.106  25.218   1.512
64099W        W29084  37.838   8.438   3.680
64100W        W29085  35.114  40.239  10.811
64101W        W29086  44.281  29.061  13.633
64102W        W29087  29.461  16.745  12.623
64103W        W29088  33.175   0.881   2.558
64104W        W29089  41.257  26.623  12.901
64105W        W29090  32.454  20.760  13.483
64106W        W29091  24.580   3.220  11.696
64107W        W29092  15.249  22.639  12.821
64108W        W29093  27.022   8.677  10.722
64109W        W29094  14.362  35.937   1.747
64110W        W29095  17.803  32.449   0.480
64111W        W29096  17.589   1.881  14.965
64112W        W29097  18.134  10.200  12.567
64113W        W29098  15.466  17.039   0.922
64114W        W29099  11.267  30.698  11.163
64115W        W29100  29.863  19.178   1.728
64116W        W29101  33.055   7.370  13.934
64117W        W29102  26.478  20.806   0.298
64118W        W29103  31.342  21.944  13.294
64119W        W29104   0.698  30.970  13.921
64120W        W29105  20.688  40.503   4.330
64121W        W29106  38.171  42.894   4.217
64122W        W29107  33.644  37.831   4.543
64123W        W29108  19.698  29.123   2.221
64124W        W29109   5.799  36.835  12.057
64125W        W29110  13.937  19.150   4.435
64126W        W29111  40.275  12.123   1.377
64127W        W29112   7.759  19.299  12.523
64128W        W29113  22.499  36.567  10.671
64129W        W29114  14.359   0.343  12.361
64130W        W29115  28.444  12.259  12.355
64131W        W29116  44.629  26.193   1.578
64132W        W29117   8.215  34.890   0.797
64133W        W29118  15.004  31.690  12.886
64134W        W29119  37.956  36.869  14.393
64135W        W29120   3.779  11.034   4.252
64136W        W29121  15.669  41.730   2.381
64137W        W29122  10.412  27.333  10.930
64138W        W29123  43.301  19.885   5.425
64139W        W29124  10.849  18.342   5.230
64140W        W29125   5.472  19.184   3.701
64141W        W29126  27.538   8.611   3.889
64142W        W29127  28.138  10.877   2.498
64143W        W29128  18.242  28.954   0.903
64144W        W29129  38.757  19.875  12.575
64145W        W29130  29.039  30.170   0.296
64146W        W29131  39.054  38.656   0.418
64147W        W29132  21.081   2.730   2.663
64148W        W29133  11.840  44.812  13.997
64149W        W29134  18.316   9.778  13.086
64150W        W29135  19.032  30.050  13.979
64151W        W29136  13.823  35.941   4.742
64152W        W29137  30.380  19.714   1.182
64153W        W29138  28.279  30.605  12.845
64154W        W29139  19.947   3.484   4.991
64155W        W29140   6.912   6.274  12.508
64156W        W29141  13.379   9.669   1.216
64157W        W29142  29.002   3.969  14.347
64158W        W29143   9.785  33.208   2.434
64159W        W29144   8.572  30.012  11.542
64160W        W29145  20.724  17.023   0.996
64161W        W29146  31.089   9.208  11.667
64162W        W29147  21.502  14.864   1.366
64163W        W29148  13.106  32.955  12.068
64164W        W29149  19.817   7.935   2.356
64165W        W29150  24.270  43.275  14.278
64166W        W29151  19.730   9.757  14.805
64167W        W29152  44.491  44.801  13.973
64168W        W29153  18.211  28.454   3.278
64169W        W29154   6.753  36.464  12.229
64170W        W29155  43.327  23.200   0.517
64171W        W29156  31.684  38.456  10.387
64172W        W29157  15.531  32.889   3.021
64173W        W29158  17.254  26.221   4.266
64174W        W29159  33.491  14.308  12.637
64175W        W29160  11.191   3.544   5.000
64176W        W29161  41.033  41.551  11.154
64177W        W29162  32.403   5.434   1.758
64178W        W29163  42.936  30.596  13.304
64179W        W29164  17.312  23.988   3.715
64180W        W29165  16.213  12.540   0.970
64181W        W29166  19.551   5.603   2.692
64182W        W29167  17.319  10.107   1.707
64183W        W29168   5.414  34.869  14.882
64184W        W29169  11.172  36.388   0.955
64185W        W29170  24.022   5.422  13.475
64186W        W29171  17.578  31.196   3.481
64187W        W29172  30.088  43.925  11.364
64188W        W29173  18.325  38.993  13.728
64189W        W29174  42.495  11.867   1.413
64190W        W29175  17.526  10.878  11.489
64191W        W29176  14.026  16.748   0.930
64192W        W29177  36.193  11.872   4.874
64193W        W29178  32.973   3.920   1.468
64194W        W29179  37.839  44.433  12.986
64195W        W29180  20.061   8.718   0.368
64196W        W29181  11.238   6.610  14.356
64197W        W29182   4.796  40.309  11.175
64198W        W29183   3.128   9.881   4.054
64199W        W29184  39.263  28.057  13.092
64200W        W29185  33.826  15.769   1.915
64201W        W29186  40.966  26.809   4.995
64202W        W29187  13.201   8.543   1.134
64203W        W29188   4.523  31.488  11.914
64204W        W29189  40.461  38.028   2.016
64205W        W29190   3.336  33.384   1.408
64206W        W29191  36.629  42.466   0.836
64207W        W29192   2.192  39.159   4.548
64208W        W29193  33.266  26.273   2.268
64209W        W29194  12.212  29.415  11.478
64210W        W29195   6.608  34.028   1.844
64211W        W29196   5.112   6.153  10.412
64212W        W29197  19.674   0.973  10.743
64213W        W29198  39.137   2.828  14.872
64214W        W29199  12.881  16.167   4.513
64215W        W29200  29.630  31.363   1.289
64216W        W29201  28.665   6.919  13.277
64217W        W29202  12.006  39.975  14.248
64218W        W29203  39.455  20.691   0.871
64219W        W29204  23.555   7.428  13.529
64220W        W29205  25.922  30.125   2.420
64221W        W29206  13.051  44.494  13.321
64222W        W29207   7.319  22.078  10.717
64223W        W29208  11.876  26.952   0.659
64224W        W29209  11.704  32.414   3.610
64225W        W29210  43.032   6.163  11.698
64226W        W29211   7.326  12.952  14.934
64227W        W29212  23.716  42.644   3.231
64228W        W29213  17.725  39.437  11.105
64229W        W29214  21.089  22.632  11.604
64230W        W29215  20.231  29.652  10.026
64231W        W29216   8.382   9.842   4.597
64232W        W29217  41.984  11.719   3.173
64233W        W29218   0.491  40.825  11.636
64234W        W29219  41.942  20.093   1.330
64235W        W29220   0.359  44.987   3.222
64236W        W29221   7.372  24.633  12.571
64237W        W29222  36.386  12.984   4.155
64238W        W29223   2.416  13.148   1.726
64239W        W29224   6.109  36.439   0.332
64240W        W29225   3.355  13.182  14.693
64241W        W29226  38.903   5.470   0.238
64242W        W29227   5.768  11.364  13.906
64243W        W29228  27.581  11.158   4.590
64244W        W29229  24.919  17.562  12.372
64245W        W29230  18.308  20.869  12.678
64246W        W29231  32.603  14.897  11.510
64247W        W29232  40.868   5.536   2.620
64248W        W29233  44.817   2.200  13.810
64249W        W29234  26.662  42.270  10.751
64250W        W29235   4.693  41.470   1.433
64251W        W29236   8.098   4.199   4.591
64252W        W29237  11.628  29.429  12.975
64253W        W29238  19.193   6.293   4.621
64254W        W29239  25.478  36.475   0.204
64255W        W29240  38.559  20.027  13.507
64256W        W29241  38.792  34.321   4.289
64257W        W29242  13.975  18.309  11.971
64258W        W29243  38.010  32.800   3.159
64259W        W29244  19.648   9.349   2.140
64260W        W29245  26.150  36.940   3.261
64261W        W29246  38.985  37.637   4.552
64262W        W29247  19.190   4.785   1.471
64263W        W29248  21.696  18.538  13.071
64264W        W29249   1.219  40.569   1.759
64265W        W29250  19.668   8.059  11.864
64266W        W29251   1.844  33.909   2.209
64267W        W29252   9.062  21.197  14.361
64268W        W29253  24.991   8.643  13.578
64269W        W29254  34.472  12.846  12.792
64270W        W29255  21.249  38.451  13.762
64271W        W29256  10.516  29.980   0.272
64272W        W29257  16.763  30.755  11.226
64273W        W29258   9.686  27.056   3.750
64274W        W29259  41.006  39.610   0.019
64275W        W29260  15.564  35.960   1.433
64276W        W29261   2.407  20.068  13.993
64277W        W29262  30.561  40.501  14.565
64278W        W29263  17.874  20.777   4.522
64279W        W29264  38.113   7.813  10.712
64280W        W29265  19.233  40.970   4.903
64281W        W29266  30.999   4.681  12.975
64282W        W29267  26.618  32.335  13.977
64283W        W29268  39.908  22.729  13.500
64284W        W29269  16.731  44.516   0.544
64285W        W29270   4.415  23.843   0.484
64286W        W29271  13.189  15.628   2.021
64287W        W29272  23.779  33.978   4.777
64288W        W29273  36.614  42.859   4.985
64289W        W29274  33.096   2.258   0.013
64290W        W29275   5.273  20.146   1.808
64291W        W29276  16.854  42.971  14.442
64292W        W29277  21.627  39.782   1.799
64293W        W29278   8.093  13.321  13.321
64294W        W29279  36.087  26.135  12.995
64295W        W29280  14.288  11.407   2.207
64296W        W29281  32.573   4.916   2.420
64297W        W29282  19.617  19.210   4.082
64298W        W29283   1.370  14.817   0.339
64299W        W29284  39.990  21.089  13.429
64300W        W29285  19.381  13.349  14.555
64301W        W29286   9.303   8.963   2.240
64302W        W29287  17.903  32.134   2.897
64303W        W29288   0.779   2.665   3.605
64304W        W29289  44.574  38.353   3.180
64305W        W29290  32.023  39.470   1.245
64306W        W29291  18.062  22.602   3.762
64307W        W29292  41.908  10.080   3.377
64308W        W29293  40.386   1.541  14.964
64309W        W29294  42.208  39.760  13.960
64310W        W29295   3.903  15.185   4.038
64311W        W29296  15.172  42.281   1.488
64312W        W29297   8.451  31.453  13.474
64313W        W29298  25.593  14.703   0.936
64314W        W29299  44.045  20.728  12.347
64315W        W29300  15.833  21.974  12.491
64316W        W29301  30.763  24.546   4.765
64317W        W29302  18.658   2.432  13.001
64318W        W29303   1.874  37.387  10.781
64319W        W29304   7.100  11.954  14.883
64320W        W29305  35.553  22.545   3.703
64321W        W29306  23.934   7.838   0.242
64322W        W29307  31.920  19.787   1.191
64323W        W29308   6.142  30.947   2.370
64324W        W29309  18.834   2.103  11.256
64325W        W29310   7.496  19.642  12.091
64326W        W29311  23.639  28.618   1.675
64327W        W29312   5.334  40.387  10.546
64328W        W29313  28.304  33.420  14.878
64329W        W29314  33.116  14.245   3.572
64330W        W29315  22.802   3.163  12.813
64331W        W29316  41.237  22.331  11.588
64332W        W29317   6.133  14.071   0.978
64333W        W29318  35.133  22.037  13.763
64334W        W29319   6.323  11.573  10.735
64335W        W29320  19.002  19.164   2.000
64336W        W29321   1.344  15.608  13.852
64337W        W29322  18.544  29.072  12.010
64338W        W29323  32.371  30.923  12.449
64339W        W29324   0.893  18.137   9.895
64340W        W29325  26.191   7.305   3.219
64341W        W29326  37.356   3.148   2.812
64342W        W29327  32.592  16.515  11.068
64343W        W29328  38.795  31.531  13.913
64344W        W29329   0.492  14.328  11.533
64345W        W29330  36.276   4.220   1.859
64346W        W29331  23.906  30.276   4.122
64347W        W29332  35.568  25.399  14.615
64348W        W29333  12.657  25.490  13.512
64349W        W29334  26.112  42.936   1.224
64350W        W29335   8.375  18.036  12.551
64351W        W29336  12.217   8.231   5.077
64352W        W29337  13.090  44.181  14.594
64353W        W29338   2.794  34.462  14.526
64354W        W29339  32.982  33.072   2.394
64355W        W29340  27.011  24.414  13.017
64356W        W29341  11.230  43.739  13.327
64357W        W29342  29.159  32.927   1.749
64358W        W29343  12.181   7.401   2.571
64359W        W29344  40.364   5.920   1.765
64360W        W29345  27.446  42.736   3.208
64361W        W29346  35.929  33.439  14.037
64362W        W29347  24.242  42.389  11.157
64363W        W29348  22.181  19.488  12.164
64364W        W29349   4.876   5.830   2.774
64365W        W29350  27.207  40.529   1.079
64366W        W29351  31.549  22.452   1.343
64367W        W29352   5.905  27.058  13.898
64368W        W29353   3.735  21.211  14.002
64369W        W29354  21.129  35.603  11.585
64370W        W29355  30.029   2.138   2.584
64371W        W29356   3.388  30.152  14.458
64372W        W29357  39.794  23.356   4.298
64373W        W29358  11.265  44.322   1.324
64374W        W29359  31.294  42.471   3.680
64375W        W29360  35.356  11.498   3.750
64376W        W29361  12.698  38.539   3.386
64377W        W29362  14.301   9.800   4.619
64378W        W29363  30.501  42.516  13.363
64379W        W29364   7.227  10.659   1.436
64380W        W29365  21.481  43.825  14.964
64381W        W29366  44.408  22.687  13.102
64382W        W29367  39.582  42.700   2.586
64383W        W29368  27.503  28.641  12.267
64384W        W29369   9.712  12.788  13.606
64385W        W29370  30.366  35.906  11.787
64386W        W29371  26.237   5.168  11.066
64387W        W29372   4.682  27.176  13.335
64388W        W29373  12.761  40.519  11.947
64389W        W29374  10.366   2.364  10.455
64390W        W29375  41.869  13.790  12.608
64391W        W29376  31.968  26.215  14.506
64392W        W29377   7.199  12.422  13.629
64393W        W29378  43.769  16.133   0.435
64394W        W29379  37.576  25.445   2.172
64395W        W29380  29.385  33.400   2.913
64396W        W29381  39.375  30.380  13.264
64397W        W29382   3.784  19.455   4.143
64398W        W29383  13.174  15.681  10.367
64399W        W29384  31.619  10.680  11.799
64400W        W29385  22.652  29.014   3.582
64401W        W29386  40.584   1.717   0.473
64402W        W29387   2.253  27.970   5.245
64403W        W29388  20.666   1.365   1.649
64404W        W29389  29.377  27.534   1.207
64405W        W29390  37.864  20.531   1.220
64406W        W29391  23.926  27.084  11.644
64407W        W29392  23.002  26.981  12.170
64408W        W29393  15.640   3.580   2.502
64409W        W29394   1.783  36.097   4.134
64410W        W29395  40.283  38.481   2.339
64411W        W29396  44.554  21.162   2.778
64412W        W29397  36.937   2.160  11.553
64413W        W29398   3.458  43.526   4.056
64414W        W29399  29.532  17.121  10.283
64415W        W29400   2.587   6.935   2.137
64416W        W29401   5.695  34.414  14.924
64417W        W29402  42.909  10.807  10.721
64418W        W29403  22.298  25.026  14.949
64419W        W29404  27.564  40.300   0.738
64420W        W29405  31.148  19.167  13.143
64421W        W29406  29.500  37.934  14.251
64422W        W29407  22.611   1.318   3.394
64423W        W29408  26.715  14.929  14.196
64424W        W29409  32.703  11.140  14.370
64425W        W29410  30.176   2.938  12.390
64426W        W29411   9.842   9.841  11.663
64427W        W29412  27.641  18.716   4.430
64428W        W29413  31.505  42.002   3.445
64429W        W29414  44.761  20.698  13.941
64430W        W29415  28.102   0.820   1.728
64431W        W29416  40.356  18.287   1.484
64432W        W29417   8.168  22.575   0.446
64433W        W29418   3.281  32.873   2.208
64434W        W29419  12.090  14.252  13.311
64435W        W29420   2.006   8.839   0.827
64436W        W29421  37.526  40.051  13.541
64437W        W29422  42.341  43.299  14.422
64438W        W29423  21.993  27.020  10.561
64439W        W29424  36.078  19.954   1.506
64440W        W29425  26.636  17.497   0.760
64441W        W29426   0.453  25.161  10.501
64442W        W29427  21.546  29.997   4.403
64443W        W29428  11.937  22.118   2.715
64444W        W29429  19.459  25.480   4.270
64445W        W29430  28.416   4.477   1.147
64446W        W29431  21.655  33.114   1.728
64447W        W29432   4.736   2.989  11.995
64448W        W29433  18.336  26.490  11.756
64449W        W29434  37.017  38.119   1.248
64450W        W29435   3.951  18.256  14.559
64451W        W29436  27.696   7.733   0.912
64452W        W29437  42.263   6.574  11.853
64453W        W29438  44.856  41.096  10.314
64454W        W29439  17.632  31.829   2.318
64455W        W29440  43.403  43.515   4.598
64456W        W29441  16.299  30.228   4.576
64457W        W29442  43.434  38.800  14.328
64458W        W29443   5.234  11.217   3.184
64459W        W29444  14.244  16.175   1.255
64460W        W29445  26.936  17.183  14.478
64461W        W29446  30.158  39.040  12.469
64462W        W29447  17.592   2.733   1.201
64463W        W29448   7.601   3.682  14.827
64464W        W29449   1.909  23.252  12.311
64465W        W29450  37.100  41.613   0.969
64466W        W29451  19.816  37.039  12.495
64467W        W29452   8.363  26.041   0.432
64468W        W29453  13.291  20.621   0.296
64469W        W29454  21.418  40.021  11.478
64470W        W29455  27.436  16.040   1.632
64471W        W29456   0.746  23.508   1.755
64472W        W29457  30.769  30.340   3.644
64473W        W29458  37.889  44.991  10.987
64474W        W29459  10.387  37.382  13.749
64475W        W29460  34.592  38.547  14.460
64476W        W29461  17.304  14.618  14.909
64477W        W29462   9.768  43.188   0.244
64478W        W29463   5.871   2.867  14.678
64479W        W29464   6.216   0.549  14.297
64480W        W29465  25.986  16.701   3.557
64481W        W29466  43.827  11.029   2.190
64482W        W29467  20.152  26.553   0.984
64483W        W29468  14.325   0.229   3.588
64484W        W29469  44.005  13.591  13.484
64485W        W29470  14.260  17.310   0.327
64486W        W29471  33.043  31.345  13.867
64487W        W29472  24.526  43.938  13.562
64488W        W29473  23.548  27.997  13.814
64489W        W29474  27.025  41.988   0.700
64490W        W29475  20.652  36.357  12.564
64491W        W29476  12.390  13.473  12.792
64492W        W29477   8.673  39.401   3.585
64493W        W29478   3.745  44.352  12.673
64494W        W29479  34.988  38.577   2.259
64495W        W29480  11.190   7.380   1.435
64496W        W29481   0.992  11.270  14.830
64497W        W29482  27.436  37.997  14.315
64498W        W29483  28.848   1.675  14.015
64499W        W29484  31.210   4.872  13.933
64500W        W29485   5.628  42.696  14.797
64501W        W29486   1.762   2.368  12.817
64502W        W29487  22.431  27.964   1.945
64503W        W29488  22.669   3.654  14.781
64504W        W29489  20.191  14.205   3.651
64505W        W29490   4.703  34.123   4.488
64506W        W29491  28.998  14.715  12.131
64507W        W29492  30.092  34.145  13.434
64508W        W29493  16.529   5.423  14.523
64509W        W29494  13.290  11.688  13.926
64510W        W29495  39.292  13.031   1.498
64511W        W29496  30.960  22.123   2.092
64512W        W29497  21.565  35.019   0.448
64513W        W29498  27.730  13.732   0.169
64514W        W29499   7.835  13.079  14.041
64515W        W29500  32.073   0.532  11.931
64516W        W29501  44.312  19.337   4.135
64517W        W29502  22.200  19.185   2.653
64518W        W29503  22.258  27.566  11.538
64519W        W29504   0.578  39.675   0.076
64520W        W29505   0.752  17.610   1.770
64521W        W29506   7.652  16.707   1.748
64522W        W29507  30.556  37.035  12.030
64523W        W29508  28.859  16.504   4.607
64524W        W29509  22.170  15.271  12.907
64525W        W29510  29.602  11.274   1.765
64526W        W29511  20.747  14.559  11.927
64527W        W29512  24.014  44.999   2.332
64528W        W29513  39.101   0.264  13.030
64529W        W29514  26.306  29.748   0.440
64530W        W29515  22.235  24.349   2.070
64531W        W29516   6.668  12.707   3.629
64532W        W29517  25.423   6.361   0.133
64533W        W29518  34.396  20.019   0.508
64534W        W29519   9.755  38.150   0.769
64535W        W29520  28.554   1.410  13.115
64536W        W29521  39.925  10.288   3.767
64537W        W29522   1.417  33.281  12.932
64538W        W29523  10.328  29.487  13.555
64539W        W29524  32.585  36.603   0.881
64540W        W29525  18.562  27.978  10.618
64541W        W29526   8.659  13.797   1.665
64542W        W29527   1.732  38.782  13.022
64543W        W29528  31.576  39.645  11.329
64544W        W29529   9.295  35.097   1.352
64545W        W29530  35.580  17.209   1.639
64546W        W29531  44.175   9.801   2.765
64547W        W29532  21.114  37.870  10.891
64548W        W29533  34.385  23.444   4.851
64549W        W29534  37.808  31.989   3.229
64550W        W29535  31.379   0.153  11.182
64551W        W29536  13.471  36.337   0.037
64552W        W29537   0.955  39.902   3.879
64553W        W29538  34.126  32.669   0.561
64554W        W29539  43.805  24.696  13.502
64555W        W29540  26.898   1.448   1.798
64556W        W29541  39.079  21.538  11.472
64557W        W29542  33.886   6.200  11.621
64558W        W29543  29.015   0.049   0.254
64559W        W29544   7.787   8.951  11.487
64560W        W29545   8.679  24.003  11.499
64561W        W29546   1.466  31.430  14.919
64562W        W29547  32.204  32.178  13.478
64563W        W29548  31.407  38.285   2.244
64564W        W29549   9.910  22.022   2.796
64565W        W29550  38.479  33.339  13.011
64566W        W29551  43.978   9.334  14.427
64567W        W29552  13.378  32.543  11.940
64568W        W29553  37.467  21.047   2.619
64569W        W29554   8.068  20.914  14.347
64570W        W29555  20.050  19.010   2.262
64571W        W29556   7.327   3.464   0.285
64572W        W29557  11.326  35.952   4.422
64573W        W29558  28.289   0.624  13.389
64574W        W29559  29.637  22.732   2.184
64575W        W29560  30.204  19.407   2.335
64576W        W29561  39.772  27.841   0.325
64577W        W29562  38.373  31.669   0.291
64578W        W29563  40.029  33.561  14.357
64579W        W29564  32.327  16.511   1.337
64580W        W29565  26.062  12.046   0.914
64581W        W29566  30.646   3.831  11.776
64582W        W29567   8.531  34.690  11.001
64583W        W29568   9.468  24.570  10.417
64584W        W29569  38.115  11.266   1.833
64585W        W29570  42.076  30.131   5.061
64586W        W29571   9.618   0.222   3.615
64587W        W29572  20.665  35.578  11.165
64588W        W29573   5.065  21.131  12.643
64589W        W29574   9.641   2.533  12.035
64590W        W29575  33.479  44.427  11.946
64591W        W29576  38.866  43.527  11.856
64592W        W29577  10.625   3.287   2.598
64593W        W29578  11.922  41.261  12.632
64594W        W29579  35.224  37.282  11.299
64595W        W29580   9.724  17.172  11.164
64596W        W29581  15.564  42.979   4.488
64597W        W29582  12.834  20.653   0.539
64598W        W29583  11.844  14.307   2.743
64599W        W29584  41.835  14.529   0.864
64600W        W29585   1.270  43.223  11.530
64601W        W29586  19.060  19.330   0.439
64602W        W29587  44.003  10.648   4.649
64603W        W29588  20.134  39.026  13.467
64604W        W29589  10.634  18.740  11.608
64605W        W29590  37.076  39.921   4.500
64606W        W29591  13.040  33.408   2.816
64607W        W29592  27.467  26.096  10.689
64608W        W29593   5.672  23.833   1.344
64609W        W29594  23.252  29.712  12.383
64610W        W29595   1.631  44.595  14.407
64611W        W29596  40.010  18.107   0.707
64612W        W29597  26.254  21.239  11.586
64613W        W29598  12.929  28.432   1.745
64614W        W29599   6.446   1.049   2.235
64615W        W29600  32.425  32.146  12.046
64616W        W29601  21.816  15.643  12.948
64617W        W29602   5.917  30.943  14.555
64618W        W29603   3.258  17.231  10.570
64619W        W29604  33.485  27.740  11.517
64620W        W29605  11.760   3.316   0.469
64621W        W29606  18.678  12.446   2.590
64622W        W29607  15.256   4.598   0.525
64623W        W29608  41.293  43.923   2.100
64624W        W29609  19.147  28.570   3.198
64625W        W29610  16.940  15.315   1.468
64626W        W29611  42.009  19.956   5.056
64627W        W29612   5.794  12.252   3.864
64628W        W29613   6.294   6.336  12.856
64629W        W29614  37.902   5.473  11.976
64630W        W29615  16.578  17.854  12.262
64631W        W29616  24.166  15.669   0.280
64632W        W29617  33.102  38.515   2.372
64633W        W29618  22.361  10.726  12.521
64634W        W29619   8.728  23.128  14.937
64635W        W29620   5.236  38.914   3.831
64636W        W29621  16.420  43.733  11.168
64637W        W29622   4.466  44.691   3.120
64638W        W29623  19.063  13.572   1.825
64639W        W29624  33.565  30.987  14.726
64640W        W29625  29.901  24.492   1.236
64641W        W29626  11.443   3.671  11.464
64642W        W29627  12.369  24.559   3.912
64643W        W29628   2.768   7.944   3.349
64644W        W29629   0.819   1.359   0.953
64645W        W29630  18.778  36.616   3.731
64646W        W29631  20.848   7.793   4.692
64647W        W29632   9.303  24.091   4.370
64648W        W29633   6.277  18.716  13.551
64649W        W29634  26.301  42.767   1.670
64650W        W29635   2.952   8.338   0.765
64651W        W29636   9.798  34.816   1.188
64652W        W29637   9.238  33.932  11.940
64653W        W29638  15.474  31.694  10.116
64654W        W29639  38.603   8.752  14.785
64655W        W29640  35.989  43.268   2.738
64656W        W29641  26.928  23.792  12.531
64657W        W29642  41.052  40.969   4.039
64658W        W29643  22.031  27.954   2.902
64659W        W29644  26.931  36.376   3.187
64660W        W29645  18.605  26.920  13.885
64661W        W29646  10.157   6.800  14.374
64662W        W29647  24.257  38.148   3.565
64663W        W29648  12.119  34.603  11.206
64664W        W29649  23.004   8.747   0.384
64665W        W29650  36.381  36.238  12.515
64666W        W29651  32.239  27.164  13.920
64667W        W29652   7.674   1.354   4.967
64668W        W29653  19.698  42.048  14.895
64669W        W29654  40.347  40.996  12.533
64670W        W29655  13.917  27.090   3.614
64671W        W29656  38.480  17.605  12.223
64672W        W29657  17.908  26.003  12.505
64673W        W29658  35.912  29.146   0.545
64674W        W29659  33.657   3.362  11.123
64675W        W29660   8.607  31.352   3.885
64676W        W29661  30.409  18.116  14.384
64677W        W29662  21.226   7.629  11.564
64678W        W29663  34.691   5.986  10.095
64679W        W29664   2.805   6.111  10.704
64680W        W29665   9.755  23.805  11.530
64681W        W29666   6.458   2.894   3.284
64682W        W29667   5.579  34.043  10.709
64683W        W29668  28.960  39.653   1.317
64684W        W29669  43.214   1.943   3.026
64685W        W29670  28.048   4.662  11.515
64686W        W29671   2.466  22.280   2.211
64687W        W29672  27.077  44.047  10.638
64688W        W29673  11.882  24.693   1.607
64689W        W29674  21.146  10.718   3.680
64690W        W29675  32.175  35.593   2.279
64691W        W29676   4.876  11.651   1.846
64692W        W29677  41.063  25.073  14.044
64693W        W29678   7.612  34.148   1.748
64694W        W29679  33.190   6.683  10.573
64695W        W29680  15.191  18.374   3.358
64696W        W29681   2.820  24.565   0.376
64697W        W29682  18.555   9.596  13.528
64698W        W29683  41.016  20.277  11.652
64699W        W29684  12.817  35.898  12.425
64700W        W29685  37.970  10.390   1.185
64701W        W29686  11.870   5.116   2.823
64702W        W29687  28.242  25.846   3.394
64703W        W29688  12.407  17.227  12.947
64704W        W29689   4.526   5.693  13.087
64705W        W29690   2.898  42.007  10.818
64706W        W29691  22.538  12.046   0.310
64707W        W29692  11.737  39.498  13.153
64708W        W29693  35.670  15.305   3.679
64709W        W29694   4.011   3.386   0.072
64710W        W29695  36.390   0.049   1.318
64711W        W29696   6.941  39.108  13.501
64712W        W29697  42.803  26.680  11.253
64713W        W29698  36.872  19.352   0.013
64714W        W29699  39.844  34.852   0.758
64715W        W29700  11.362  17.752   1.802
64716W        W29701  22.046  35.986  14.376
64717W        W29702  33.439   4.170  12.285
64718W        W29703  29.858  44.622   3.657
64719W        W29704  15.651   8.579  13.429
64720W        W29705  27.647  31.943   2.397
64721W        W29706  27.124  19.246  12.466
64722W        W29707  26.598  29.268   4.690
64723W        W29708  25.104  41.530  11.349
64724W        W29709  35.568  21.924  14.050
64725W        W29710  18.613  41.013  14.730
64726W        W29711  30.480   7.362  11.449
64727W        W29712  43.300  31.846  13.562
64728W        W29713  38.287  12.626   2.167
64729W        W29714  31.038  19.532   2.576
64730W        W29715   6.118  28.972  13.730
64731W        W29716  43.982  24.537   5.072
64732W        W29717  19.159  17.188   1.785
64733W        W29718  15.852  26.741   0.776
64734W        W29719  41.404  16.005  13.102
64735W        W29720  24.055  18.518   4.345
64736W        W29721   7.931  28.302  12.846
64737W        W29722   1.978   0.139   2.378
64738W        W29723   4.935  25.161  11.033
64739W        W29724  44.053   3.960  12.416
64740W        W29725  14.555  16.305   3.818
64741W        W29726  22.647  22.672   9.945
64742W        W29727  13.801  12.153   2.367
64743W        W29728  34.948  32.575   1.792
64744W        W29729  31.891  26.827  13.068
64745W        W29730  25.360  14.006   4.985
64746W        W29731  22.684  37.948  10.664
64747W        W29732  40.088  32.574   3.261
64748W        W29733  24.672  14.439   1.876
64749W        W29734  41.067   3.183   2.152
64750W        W29735  31.715   7.069  12.904
64751W        W29736  15.655  10.786  10.122
64752W        W29737  15.097  38.538   4.476
64753W        W29738   6.339   8.916   2.055
64754W        W29739  40.630  18.671   2.264
64755W        W29740  34.590  24.197   3.599
64756W        W29741  29.355   3.917   4.289
64757W        W29742   0.861  39.488   2.509
64758W        W29743  23.449  14.391   2.665
64759W        W29744  22.685  11.312  11.893
64760W        W29745  28.439  12.760   3.267
64761W        W29746  11.158  32.012  14.424
64762W        W29747  38.226  14.099   5.056
64763W        W29748  31.497  42.309   1.163
64764W        W29749  13.176  38.362  11.966
64765W        W29750  42.264   8.429  13.414
64766W        W29751  31.697  43.055  14.958
64767W        W29752  13.153  13.128   1.844
64768W        W29753   3.894   7.397  14.807
64769W        W29754  22.536  35.528  11.462
64770W        W29755  24.393  40.649   4.433
64771W        W29756  22.058  30.065   4.151
64772W        W29757  30.968  13.660  10.525
64773W        W29758  35.104  44.965   3.931
64774W        W29759   0.258  43.424  11.171
64775W        W29760  12.899   3.726  12.972
64776W        W29761  29.397  29.487  10.671
64777W        W29762  11.922  19.801  13.553
64778W        W29763  31.988  10.332  11.355
64779W        W29764  26.541   4.447   1.490
64780W        W29765   0.385  17.341  12.534
64781W        W29766   1.979   1.812   1.493
64782W        W29767  13.574  14.223   0.152
64783W        W29768   6.416   2.783  10.791
64784W        W29769   1.214  33.355   1.894
64785W        W29770   2.646  19.688  11.181
64786W        W29771  34.009   5.854  10.991
64787W        W29772  24.844  21.453  13.873
64788W        W29773  20.531  37.658  13.008
64789W        W29774  10.855  15.197   3.295
64790W        W29775  28.605  42.282  11.011
64791W        W29776  12.170  12.460   3.189
64792W        W29777  26.952  26.371  11.974
64793W        W29778   2.021  21.467   1.219
64794W        W29779  31.101  30.368  12.598
64795W        W29780  39.581  44.947   0.225
64796W        W29781  32.172   2.410  10.764
64797W        W29782  15.798  30.706   3.807
64798W        W29783   2.951  37.422   1.125
64799W        W29784  19.324  31.539   1.377
64800W        W29785   6.413   3.089  10.339
64801W        W29786  21.204   6.543   4.136
64802W        W29787   0.277   7.852  10.634
64803W        W29788  25.475   2.425   4.922
64804W        W29789  34.893  26.947  13.864
64805W        W29790  38.885  40.455  12.615
64806W        W29791   9.747   2.253  11.121
64807W        W29792  15.198  24.595   5.351
64808W        W29793  41.007   1.777  10.602
64809W        W29794   8.321  27.693   1.347
64810W        W29795   1.841  30.353   2.771
64811W        W29796  42.347  33.560  12.654
64812W        W29797  11.680  39.767  11.551
64813W        W29798  22.627  44.001  14.521
64814W        W29799  27.695  35.984  12.895
64815W        W29800  24.958   7.664   0.350
64816W        W29801  37.697  21.050  12.248
64817W        W29802  35.033   0.514  14.486
64818W        W29803  13.175  19.469  11.944
64819W        W29804  18.309  39.058   3.143
64820W        W29805  15.028   0.642  11.555
64821W        W29806  27.407  17.033   2.504
64822W        W29807  15.350   2.276   1.388
64823W        W29808   1.343  36.265   4.398
64824W        W29809   9.045  27.608  12.836
64825W        W29810   3.199  20.744   4.749
64826W        W29811  10.519  33.701   0.650
64827W        W29812  27.384  26.494  13.255
64828W        W29813  30.211  28.222  13.794
64829W        W29814  30.121  12.918   4.749
64830W        W29815   9.941  43.252  12.578
64831W        W29816  18.501  36.197   3.535
64832W        W29817   2.896  29.277  12.915
64833W        W29818  42.828  13.571  14.524
64834W        W29819  18.410   5.082  10.270
64835W        W29820  17.257   4.860   0.064
64836W        W29821  39.768  17.757   9.703
64837W        W29822  11.573  11.348  11.783
64838W        W29823   1.749  22.178  11.106
64839W        W29824  26.710  17.095  14.943
64840W        W29825  16.926  10.342  13.590
64841W        W29826  13.049  28.004   3.388
64842W        W29827  24.499  31.609   4.613
64843W        W29828   2.948   6.221  11.988
64844W        W29829   0.712  25.700   2.295
64845W        W29830   6.289  27.589  13.822
64846W        W29831  17.816   9.919   1.727
64847W        W29832  35.573  14.178   0.450
64848W        W29833  34.010  20.361   0.466
64849W        W29834  17.143  35.207  12.606
64850W        W29835  26.226  31.375   3.243
64851W        W29836  15.964  26.486  14.388
64852W        W29837   2.403  34.597  10.513
64853W        W29838  17.429  42.316  13.459
64854W        W29839  15.189   6.129  13.966
64855W        W29840   6.411   3.373   0.711
64856W        W29841  10.141  39.378  11.655
64857W        W29842  40.137  16.735   3.562
64858W        W29843  26.681   7.575  13.213
64859W        W29844  10.300  29.580  13.039
64860W        W29845  28.830  43.435   4.051
64861W        W29846  25.693  27.568   1.687
64862W        W29847   9.567  13.658   4.213
64863W        W29848  38.823  30.093   1.247
64864W        W29849  36.479  17.600   2.417
64865W        W29850  38.549  38.668  13.409
64866W        W29851  39.162  37.640   1.307
64867W        W29852  29.144  28.160   3.645
64868W        W29853  31.354  12.477  13.379
64869W        W29854  34.445  29.865  14.716
64870W        W29855  29.451  35.949   2.638
64871W        W29856  42.546  43.720   3.250
64872W        W29857   8.496  22.190   3.880
64873W        W29858  25.791  22.087  13.909
64874W        W29859  13.112  33.860   0.367
64875W        W29860  20.772  14.115  13.421
64876W        W29861   3.287  16.774  13.124
64877W        W29862  13.906   4.865  11.111
64878W        W29863  15.792  36.896   3.401
64879W        W29864  14.662  24.810  14.142
64880W        W29865  23.372   9.827  13.355
64881W        W29866   7.863  31.711  11.791
64882W        W29867  35.956   3.843   0.117
64883W        W29868  20.657  23.680   0.881
64884W        W29869  39.292  26.757  14.023
64885W        W29870  13.338  19.118  14.770
64886W        W29871  17.218  31.983  10.080
64887W        W29872   8.284  41.512  12.541
64888W        W29873  33.992  30.990   1.617
64889W        W29874  40.784  44.483  12.078
64890W        W29875  35.077  38.746  10.944
64891W        W29876  14.047   8.250  14.370
64892W        W29877  33.551  37.506   2.186
64893W        W29878  11.264   0.523  12.980
64894W        W29879  28.935  12.163  10.663
64895W        W29880  24.038  22.472   3.753
64896W        W29881  11.595  43.476   2.700
64897W        W29882  13.894   2.146   3.626
64898W        W29883  35.369  18.134   3.723
64899W        W29884  32.970  20.943   1.736
64900W        W29885  14.623  36.382   4.726
64901W        W29886  11.164  25.413  12.283
64902W        W29887  19.100   2.782   1.464
64903W        W29888  44.262  14.182  14.427
64904W        W29889   5.801  24.188  14.259
64905W        W29890   7.321  14.196   3.603
64906W        W29891   9.576  15.589   3.161
64907W        W29892   8.253   6.159  14.833
64908W        W29893   0.857  31.520  13.346
64909W        W29894   0.910  13.389  13.684
64910W        W29895  30.567  14.988   1.178
64911W        W29896  31.608  28.404   4.628
64912W        W29897  43.876  14.606   1.377
64913W        W29898   2.158   6.740  12.038
64914W        W29899  39.858  13.228   0.817
64915W        W29900  27.958   3.268  14.893
64916W        W29901  42.113  43.387  13.398
64917W        W29902  29.442  39.782   1.464
64918W        W29903  37.088  29.632  12.032
64919W        W29904  16.270   3.201  14.377
64920W        W29905  35.842  22.317  10.797
64921W        W29906  19.990  44.861  12.557
64922W        W29907   7.246  44.372   1.223
64923W        W29908  24.457  29.041  13.997
64924W        W29909  33.612  32.488   4.661
64925W        W29910  43.406  32.990   0.836
64926W        W29911   8.097  26.255  11.201
64927W        W29912   6.696  21.625   2.819
64928W        W29913  18.645  14.951   1.531
64929W        W29914   6.274  25.076  14.598
64930W        W29915  17.292  28.213  13.954
64931W        W29916  43.377  43.554  12.565
64932W        W29917  19.744  26.476  11.930
64933W        W29918  30.835  29.658  10.444
64934W        W29919  29.991   3.843  10.712
64935W        W29920  18.494  42.953   0.804
64936W        W29921   8.542  11.393  10.764
64937W        W29922  36.747  27.564  13.485
64938W        W29923  39.373  42.331   4.734
64939W        W29924  28.249  11.115  10.510
64940W        W29925   1.829  13.940  13.358
64941W        W29926  24.274  11.774   1.413
64942W        W29927   7.442   8.885   3.918
64943W        W29928  18.963  37.676   1.195
64944W        W29929  38.734  18.318   1.256
64945W        W29930  16.318  41.114   1.535
64946W        W29931  31.221  27.262   2.246
64947W        W29932  35.466  43.007  14.608
64948W        W29933  24.944   1.753  14.496
64949W        W29934  14.285  22.428   3.579
64950W        W29935  42.104  29.366  13.273
64951W        W29936  15.281  17.988   3.708
64952W        W29937   1.926  31.685  14.917
64953W        W29938  18.743  42.563   0.493
64954W        W29939  26.548  40.094  12.807
64955W        W29940   2.729  43.601  12.102
64956W        W29941  25.837   4.886  11.234
64957W        W29942   0.590  19.560   1.907
64958W        W29943  17.609  24.509   2.179
64959W        W29944   7.239   1.917   0.342
64960W        W29945  22.599  33.887  12.830
64961W        W29946  14.305  29.333   1.201
64962W        W29947  10.118  13.786   4.920
64963W        W29948  29.565  27.602  14.090
64964W        W29949  30.366  28.995   2.266
64965W        W29950  24.258  44.254   4.671
64966W        W29951  35.319  33.618   3.131
64967W        W29952  23.470   8.133  12.592
64968W        W29953  25.527  12.409   1.389
64969W        W29954  25.694   8.346  14.378
64970W        W29955  21.327   2.111   4.033
64971W        W29956  20.989  35.611   1.300
64972W        W29957  38.362   1.982  12.394
64973W        W29958  21.094  13.851  11.206
64974W        W29959   3.141  25.699   2.371
64975W        W29960  32.900   3.036  11.578
64976W        W29961  11.341  20.111   1.321
64977W        W29962  16.243  17.443  13.470
64978W        W29963  42.481  33.670  11.510
64979W        W29964   2.904  10.729   4.814
64980W        W29965  12.258  13.376  13.325
64981W        W29966  28.582   1.041  13.560
64982W        W29967  42.355  40.983  13.588
64983W        W29968  36.578   5.115   3.731
64984W        W29969   1.741   0.397  11.206
64985W        W29970  39.894  25.090  14.897
64986W        W29971  24.477  25.742   4.097
64987W        W29972  20.799  32.693   3.645
64988W        W29973  28.944   8.408  12.576
64989W        W29974  37.789  40.246   1.397
64990W        W29975  18.193  43.775  12.063
64991W        W29976   4.189  16.259  11.582
64992W        W29977  21.750  16.069   3.767
64993W        W29978   4.434  16.006  10.435
64994W        W29979   9.783  43.000   4.929
64995W        W29980  11.934  19.641   9.778
64996W        W29981  27.883  37.936  13.406
64997W        W29982  42.520  34.821   0.285
64998W        W29983  19.233  35.419   0.386
64999W        W29984  13.219  21.961   1.842
65000W        W29985   2.215  20.192  10.767
65001W        W29986  22.097  18.800  14.427
65002W        W29987   6.256  28.092   3.738
65003W        W29988   2.963  11.127  13.949
65004W        W29989  44.800  37.940  11.942
65005W        W29990  33.665  32.868  14.635
65006W        W29991  30.384  33.998  14.875
65007W        W29992  22.491  22.380  13.858
65008W        W29993  14.591   7.293   1.778
65009W        W29994  25.589  36.058  13.827
65010W        W29995  33.968  16.342   3.165
65011W        W29996  31.667   9.078  14.485
65012W        W29997   1.996   1.481   4.780
65013W        W29998  30.799   4.939   4.900
65014W        W29999  25.636  24.245   3.204
65015W        W30000  44.735   9.571  12.916
65016W        W30001  39.869  11.591  11.749
65017W        W30002  27.066  22.092   4.464
65018W        W30003  44.857  44.993  13.618
65019W        W30004  28.931  34.431  13.930
65020W        W30005  15.188  10.225  13.964
65021W        W30006  29.969   6.020  11.538
65022W        W30007  16.836  25.475   4.229
65023W        W30008   2.333  16.078   0.617
65024W        W30009  27.495  17.772  13.636
65025W        W30010  17.833  32.995   3.733
65026W        W30011   5.717  37.508  13.332
65027W        W30012   2.959  27.129   0.863
65028W        W30013  31.917  36.223   1.263
65029W        W30014   3.199  10.715  14.852
65030W        W30015   7.481  22.056  13.274
65031W        W30016  35.441  29.045  14.993
65032W        W30017  32.971  31.633   4.525
65033W        W30018  41.887  11.603  14.211
65034W        W30019  16.480  28.116  13.317
65035W        W30020  35.494  29.858   3.906
65036W        W30021   8.339  24.465  12.348
65037W        W30022   8.146  31.359  13.969
65038W        W30023  43.707  33.717  14.976
65039W        W30024  43.772  29.312  13.763
65040W        W30025   7.168  27.026  13.408
65041W        W30026  41.973  13.798  13.453
65042W        W30027  42.838  15.560  13.074
65043W        W30028  29.473  33.649   0.852
65044W        W30029   8.268   9.887  13.517
65045W        W30030   2.375  41.618  11.091
65046W        W30031  17.368  17.837  10.622
65047W        W30032   3.307  30.036   4.583
65048W        W30033  28.659  30.291   5.010
65049W        W30034  43.484  23.855   2.135
65050W        W30035  11.780   7.126   0.301
65051W        W30036  32.554  12.018  10.253
65052W        W30037  17.694  25.462   2.948
65053W        W30038   3.219  27.663  13.501
65054W        W30039   3.698  28.882   3.906
65055W        W30040   8.403  11.159  12.973
65056W        W30041  18.745  33.844   1.462
65057W        W30042  38.413  26.956  13.862
65058W        W30043   1.189   4.971   1.936
65059W        W30044   4.879   2.148  13.939
65060W        W30045   9.739  27.170  14.560
65061W        W30046  24.543  10.542  11.113
65062W        W30047  40.959  37.558  11.533
65063W        W30048   0.951  28.805  13.656
65064W        W30049  29.754  14.550   0.281
65065W        W30050  17.456  23.277  11.731
65066W        W30051   2.279  20.495  14.898
65067W        W30052  41.325  29.884  10.653
65068W        W30053  15.197  14.832   3.015
65069W        W30054   8.940  29.341   3.551
65070W        W30055  12.096  17.719  13.811
65071W        W30056  38.021  17.651  14.045
65072W        W30057   6.918  31.712   2.390
65073W        W30058  14.780   2.005  13.100
65074W        W30059  41.865   1.728  12.464
65075W        W30060  29.106  22.064   1.468
65076W        W30061  24.712  14.957   1.862
65077W        W30062  40.950  10.308   1.326
65078W        W30063   3.310  13.687   0.016
65079W        W30064  37.916  17.587  10.595
65080W        W30065  21.305  14.385  10.580
65081W        W30066  33.123  33.676  11.512
65082W        W30067   8.459  32.432  14.471
65083W        W30068  28.399  41.352   3.134
65084W        W30069  22.185  18.720   5.452
65085W        W30070   9.050  38.077   3.697
65086W        W30071  36.256  17.602  13.163
65087W        W30072   6.306  34.130   3.330
65088W        W30073  31.003   8.937  13.334
65089W        W30074  38.888  35.108  10.234
65090W        W30075  12.089  41.556   0.945
65091W        W30076  44.902  24.522   1.277
65092W        W30077  27.579  38.742  12.396
65093W        W30078  36.319  42.299   2.720
65094W        W30079  24.101  19.193  11.101
65095W        W30080  37.486  40.876   1.899
65096W        W30081  30.942   1.188   5.232
65097W        W30082  32.854   4.956  11.241
65098W        W30083  44.328  18.219   2.335
65099W        W30084  25.572  41.056   0.827
65100W        W30085   3.135  23.577   1.033
65101W        W30086  29.768  15.132  13.102
65102W        W30087  31.701  39.921  13.928
65103W        W30088   6.685   0.834  10.668
65104W        W30089  29.502   3.652   0.952
65105W        W30090  32.949  31.883  13.886
65106W        W30091   0.426  14.620   4.635
65107W        W30092  35.546  19.446   1.200
65108W        W30093   8.442  15.633  13.033
65109W        W30094   7.206  17.925  11.600
65110W        W30095  13.213  26.443   0.923
65111W        W30096  15.229  41.842  11.983
65112W        W30097  10.012  44.414   2.254
65113W        W30098  38.263  35.891   0.955
65114W        W30099  15.961  22.036  13.525
65115W        W30100  33.618  10.274   2.262
65116W        W30101  29.048  26.238  10.613
65117W        W30102  24.973  12.818  12.143
65118W        W30103  28.363  35.378  13.240
65119W        W30104  41.383  10.611  10.684
65120W        W30105  30.817   3.667  10.921
65121W        W30106  12.672  15.790  14.328
65122W        W30107   7.841   8.270   2.769
65123W        W30108   4.251  22.794  14.067
65124W        W30109  16.662  36.427  14.395
65125W        W30110   4.173  41.989   0.951
65126W        W30111  32.042  42.375  10.952
65127W        W30112  12.851   2.256   3.697
65128W        W30113  36.581   3.282   2.151
65129W        W30114  16.118  24.290  13.069
65130W        W30115  32.869  21.623  14.082
65131W        W30116   2.552   9.268  11.649
65132W        W30117   7.829  28.813  12.899
65133W        W30118  27.946  36.680   0.409
65134W        W30119  44.180   3.787   4.890
65135W        W30120  17.546  11.185   2.760
65136W        W30121  37.906  31.999  14.939
65137W        W30122  21.153   9.915  13.752
65138W        W30123  25.455  26.981   0.461
65139W        W30124  44.982  11.809   3.833
65140W        W30125  28.602  26.602   2.052
65141W        W30126   7.134  14.895  10.695
65142W        W30127  14.197  36.746   4.542
65143W        W30128  18.710   7.153   2.553
65144W        W30129  29.937   2.390   3.113
65145W        W30130  39.472  44.324  11.502
65146W        W30131  19.061  40.506  11.576
65147W        W30132  14.068  19.660   4.329
65148W        W30133  28.654   1.506  14.487
65149W        W30134  41.855   8.968  11.730
65150W        W30135  43.035  44.977  13.588
65151W        W30136  42.989   0.865  11.431
65152W        W30137   5.292  32.785  12.065
65153W        W30138   3.864  41.109   1.914
65154W        W30139  11.915   2.264   1.850
65155W        W30140  19.281  14.252  14.417
65156W        W30141  31.036  43.878   3.768
65157W        W30142  14.371  28.385   0.339
65158W        W30143  20.587  32.582   2.587
65159W        W30144  29.937   6.785   2.198
65160W        W30145  19.110  21.935   5.509
65161W        W30146  22.075  41.857  13.285
65162W        W30147  24.909  27.941  13.562
65163W        W30148  44.051   4.102   1.782
65164W        W30149  15.796  28.686  12.728
65165W        W30150   8.460   9.443   9.682
65166W        W30151  11.291  40.531   0.813
65167W        W30152  25.211  30.630   2.250
65168W        W30153  44.446  23.600   0.464
65169W        W30154  10.472   9.450  13.561
65170W        W30155  20.534  36.530   4.244
65171W        W30156  10.267  16.305   3.766
65172W        W30157  18.956   8.193  14.160
65173W        W30158  12.315  29.003   5.015
65174W        W30159  25.399  37.863  14.585
65175W        W30160   4.287  40.225   1.183
65176W        W30161  31.407   7.890   3.205
65177W        W30162  32.564  18.849  12.032
65178W        W30163  12.677  29.667   4.558
65179W        W30164  33.925   3.800  10.911
65180W        W30165   0.697   2.346  13.970
65181W        W30166  12.315  18.774  10.903
65182W        W30167   7.627  26.708  13.406
65183W        W30168  21.521   0.883  10.635
65184W        W30169  15.331  25.168  13.835
65185W        W30170  15.070  24.858   0.920
65186W        W30171  28.393  20.105  12.891
65187W        W30172  14.737  42.565  11.981
65188W        W30173  24.258   2.596   2.441
65189W        W30174  36.537  15.669   5.075
65190W        W30175  31.942  29.180   0.321
65191W        W30176  15.810  11.316   4.538
65192W        W30177  44.272  24.672   4.687
65193W        W30178   6.337   4.358   5.030
65194W        W30179   0.341  26.483  13.048
65195W        W30180  36.011   5.971   2.281
65196W        W30181  12.250   5.419   9.936
65197W        W30182   8.859  27.523   1.798
65198W        W30183   8.178  19.749   2.852
65199W        W30184  25.683  32.683   3.680
65200W        W30185  44.973  18.507  13.080
65201W        W30186  32.508  28.141  13.060
65202W        W30187  28.529  19.859   2.699
65203W        W30188  34.549  36.081  10.756
65204W        W30189  18.217  14.791   1.279
65205W        W30190  33.625  26.992   3.385
65206W        W30191  37.806   8.968   3.695
65207W        W30192  31.448  26.917  13.443
65208W        W30193   3.511   5.705   0.479
65209W        W30194  14.397  43.903   1.828
65210W        W30195  29.944  15.372  11.565
65211W        W30196  27.679  20.339  11.897
65212W        W30197  28.568  10.351  14.294
65213W        W30198  10.686   8.703  10.099
65214W        W30199  36.818   5.659  13.931
65215W        W30200  10.348  25.167  11.556
65216W        W30201   4.157  27.629  10.398
65217W        W30202  32.853  12.225  14.964
65218W        W30203  41.661   0.295   3.747
65219W        W30204   8.392  24.286   2.531
65220W        W30205  10.654   4.821   4.145
65221W        W30206  18.544  17.195   4.915
65222W        W30207  24.121  38.942   2.708
65223W        W30208  38.512  19.665  14.844
65224W        W30209  44.832  26.596  12.538
65225W        W30210   9.739   1.794  13.868
65226W        W30211  29.195   3.542  12.517
65227W        W30212  42.297   0.317   2.249
65228W        W30213  14.098   3.686  13.515
65229W        W30214  37.004  16.216  14.530
65230W        W30215  31.710  25.580   1.716
65231W        W30216  29.577  38.395   1.229
65232W        W30217  17.145   6.735   0.210
65233W        W30218  18.122  41.031   1.012
65234W        W30219  42.816  30.240  12.383
65235W        W30220   3.428  30.666   1.333
65236W        W30221  22.227  12.583   4.523
65237W        W30222   9.886  35.665   0.918
65238W        W30223  37.072  24.498   0.968
65239W        W30224   4.667  16.104   1.190
65240W        W30225  27.444   6.475  12.922
65241W        W30226  37.154  30.188  13.375
65242W        W30227  10.228  44.272  14.767
65243W        W30228  25.542  21.600  12.527
65244W        W30229  29.615   3.853  10.376
65245W        W30230  32.820   7.417   3.122
65246W        W30231  14.859  37.398   2.657
65247W        W30232   3.829  25.548  14.059
65248W        W30233   4.448  37.889   2.154
65249W        W30234  12.820   3.920  12.478
65250W        W30235  16.521  41.067  11.243
65251W        W30236  27.461  30.137  14.948
65252W        W30237  36.058  17.301   2.434
65253W        W30238  38.615  24.184  12.661
65254W        W30239  40.504   8.364  11.550
65255W        W30240  37.890  40.516   1.832
65256W        W30241   8.287  44.001  11.334
65257W        W30242  31.967   1.201  13.427
65258W        W30243  14.634   7.813  14.922
65259W        W30244  28.797  35.057  11.977
65260W        W30245  22.378  38.760  13.996
65261W        W30246  12.265   9.638  11.427
65262W        W30247  22.398  38.546   1.645
65263W        W30248  41.982  39.095   1.648
65264W        W30249   1.248   0.351  11.407
65265W        W30250  44.270  12.802  13.922
65266W        W30251   0.833   2.271  13.022
65267W        W30252  32.079  39.938  13.353
65268W        W30253  42.487  33.144  13.892
65269W        W30254  38.090  25.106   3.727
65270W        W30255  35.525  11.020  11.368
65271W        W30256  12.300  30.034   4.236
65272W        W30257  30.732  16.264   3.410
65273W        W30258  41.854  39.328   4.311
65274W        W30259  43.341   8.618   3.286
65275W        W30260  38.515  11.132  12.274
65276W        W30261  40.966  12.935   1.285
65277W        W30262  12.177   3.296  12.009
65278W        W30263  30.037   6.423  14.655
65279W        W30264  22.468   0.218  12.897
65280W        W30265  27.599  34.077   4.271
65281W        W30266  26.411   2.308   1.715
65282W        W30267  23.784  30.950  11.604
65283W        W30268   2.842  36.380  11.539
65284W        W30269  21.922  35.989   3.359
65285W        W30270  41.921  18.720  14.976
65286W        W30271  39.457   0.017   3.232
65287W        W30272  14.737  19.117  12.120
65288W        W30273   3.162  16.112  10.657
65289W        W30274  37.777  40.901   2.356
65290W        W30275  10.526  42.756   5.060
65291W        W30276  25.538  44.399  12.888
65292W        W30277   2.404  26.711  10.690
65293W        W30278  25.303  28.222  10.308
65294W        W30279  38.125  14.295  14.346
65295W        W30280  33.890  29.191  12.521
65296W        W30281  37.623  13.323   2.647
65297W        W30282  38.092   9.875   4.660
65298W        W30283  37.030  18.148   0.750
65299W        W30284  31.626  24.502   0.342
65300W        W30285  34.033  43.160   0.709
65301W        W30286  36.106   0.176  12.196
65302W        W30287  34.881  21.150   2.609
65303W        W30288  30.548  44.672   1.227
65304W        W30289  22.580  23.187  14.762
65305W        W30290  29.080   6.218  13.683
65306W        W30291  40.571  25.388   3.939
65307W        W30292  40.491  34.147   2.757
65308W        W30293  41.266  21.142  10.769
65309W        W30294  11.431  35.070  13.796
65310W        W30295  39.835   1.245  14.254
65311W        W30296  13.007   8.653  12.014
65312W        W30297  22.234  41.884  14.295
65313W        W30298  24.547  38.261   2.573
65314W        W30299  28.966  33.298   2.086
65315W        W30300  13.577  12.892   1.980
65316W        W30301   8.448   0.531   0.469
65317W        W30302  13.877  41.702  14.251
65318W        W30303  26.166  20.837  12.823
65319W        W30304   8.816  27.151   2.437
65320W        W30305   1.262  20.209  14.290
65321W        W30306  41.437  42.827   0.750
65322W        W30307  40.475  12.306   2.148
65323W        W30308  16.298   2.421  10.405
65324W        W30309  17.062   8.681   0.862
65325W        W30310  11.694  42.137   4.485
65326W        W30311   1.013  21.133   1.902
65327W        W30312  23.467  15.776  10.795
65328W        W30313  37.347  37.888   0.359
65329W        W30314  30.885  17.650  14.612
65330W        W30315   9.598  24.239   1.895
65331W        W30316  43.394   1.585   0.868
65332W        W30317  21.274  16.731   4.149
65333W        W30318  27.643   1.322   2.309
65334W        W30319   8.783  12.631  10.605
65335W        W30320  39.173  36.823  14.881
65336W        W30321   2.705  13.931   3.635
65337W        W30322   6.951  38.657   4.304
65338W        W30323  35.016  32.676  14.970
65339W        W30324   4.419  13.348   0.350
65340W        W30325  29.642  19.617  11.699
65341W        W30326   9.840  23.773   3.019
65342W        W30327   4.920  15.649  14.442
65343W        W30328  30.945  18.366   5.080
65344W        W30329  13.524  35.872  13.127
65345W        W30330  33.260   9.931   3.385
65346W        W30331  19.533  38.416  11.247
65347W        W30332  41.744  34.622   0.778
65348W        W30333  41.008  24.561  10.824
65349W        W30334  25.084   4.553   3.634
65350W        W30335  28.104   6.343  12.123
65351W        W30336  36.410  44.224  14.951
65352W        W30337   6.797  12.994  13.348
65353W        W30338  42.793  12.894   3.363
65354W        W30339  11.306  28.648  11.988
65355W        W30340  30.869   8.168  10.356
65356W        W30341  42.889  39.049   2.687
65357W        W30342  27.912  20.293  12.801
65358W        W30343  21.321  27.720  13.928
65359W        W30344  12.104  37.367  11.455
65360W        W30345  42.018  44.250  14.781
65361W        W30346   7.174  22.429  12.029
65362W        W30347   0.564   5.172   1.793
65363W        W30348  36.981  35.367  11.436
65364W        W30349  35.844   5.833  11.536
65365W        W30350   7.389   4.117  11.204
65366W        W30351  31.454   9.227   4.071
65367W        W30352   5.650   4.172  13.859
65368W        W30353  11.208   2.085  14.838
65369W        W30354  38.489  29.730  13.695
65370W        W30355  41.920   2.790   0.434
65371W        W30356  13.555  16.621   0.741
65372W        W30357   4.270  18.872   3.217
65373W        W30358  30.158  31.975  13.510
65374W        W30359  42.776  18.154   2.350
65375W        W30360  30.970   0.303   3.391
65376W        W30361  20.522  28.093  12.128
65377W        W30362  20.805  23.136   0.162
65378W        W30363  32.821  10.005  11.510
65379W        W30364  27.971  36.616   1.305
65380W        W30365  43.958  27.640   3.971
65381W        W30366  23.958   9.790   0.266
65382W        W30367   2.907  15.716  14.497
65383W        W30368   0.006   9.450  12.016
65384W        W30369  41.471  28.394  11.571
65385W        W30370  10.634   4.983   1.859
65386W        W30371  27.489   3.408   2.865
65387W        W30372  28.241  15.774  10.006
65388W        W30373  34.300  43.035  12.658
65389W        W30374  42.270  10.144   2.175
65390W        W30375  36.955  22.253   2.731
65391W        W30376  13.611  37.369   4.568
65392W        W30377  39.232   4.860  10.986
65393W        W30378  44.280  13.762  10.489
65394W        W30379  17.496  14.265   5.091
65395W        W30380  17.293  17.168  11.506
65396W        W30381  42.909  27.234   3.614
65397W        W30382  30.591  19.230  14.950
65398W        W30383  36.128  33.933  11.702
65399W        W30384  13.808  26.489   3.214
65400W        W30385  25.451  29.565   0.877
65401W        W30386  23.971  23.665   0.906
65402W        W30387  21.169   6.755  13.934
65403W        W30388  12.862   7.799   4.569
65404W        W30389  41.283   5.499  12.597
65405W        W30390  32.134  27.545   9.751
65406W        W30391   7.208  34.871   2.704
65407W        W30392  28.719  17.578  12.333
65408W        W30393  35.407  25.072  12.522
65409W        W30394  20.079   8.052   0.883
65410W        W30395  12.712  23.980   4.586
65411W        W30396  19.223   9.708   0.982
65412W        W30397   9.838   1.216   4.386
65413W        W30398  42.834   3.076   0.435
65414W        W30399  12.341  34.870  14.035
65415W        W30400  20.690  28.297   0.371
65416W        W30401   7.003  34.513   4.394
65417W        W30402  12.059  40.800  14.382
65418W        W30403   0.248  37.617   1.923
65419W        W30404  10.867   3.040  14.939
65420W        W30405  32.485  29.615   1.936
65421W        W30406  18.987   7.461   2.214
65422W        W30407  27.717  32.115   2.894
65423W        W30408  12.229   9.695   0.730
65424W        W30409  19.855  22.474   5.056
65425W        W30410  27.152  37.941  14.737
65426W        W30411  12.348  22.488  14.412
65427W        W30412  35.576  30.352  10.807
65428W        W30413  14.767  30.714   0.839
65429W        W30414  32.416  37.061   1.402
65430W        W30415  43.532  15.335   3.791
65431W        W30416  25.515  12.066   1.786
65432W        W30417  40.857  36.969  11.119
65433W        W30418   0.740  42.120  14.607
65434W        W30419  17.720  26.154   2.205
65435W        W30420  28.906  26.134   4.376
65436W        W30421   0.853  21.762  14.729
65437W        W30422  21.953  36.978  14.474
65438W        W30423   4.701  38.636  13.933
65439W        W30424  34.455  23.110  14.807
65440W        W30425  30.638  31.600  14.517
65441W        W30426   4.419  36.338   1.228
65442W        W30427  24.569   6.889   0.401
65443W        W30428  17.104  35.527  10.976
65444W        W30429  34.880  21.541  10.778
65445W        W30430  43.976  13.255  13.899
65446W        W30431   3.981   8.437  14.854
65447W        W30432  40.407  43.297   2.769
65448W        W30433  14.766  37.368  14.208
65449W        W30434  25.231  36.762  13.013
65450W        W30435  35.963   6.357   1.217
65451W        W30436  38.635  18.959   3.641
65452W        W30437  44.665  12.768  12.980
65453W        W30438  44.482  35.780  11.488
65454W        W30439  39.801  38.381   3.708
65455W        W30440  22.019  10.185  12.565
65456W        W30441  36.567  16.196   4.776
65457W        W30442   5.783  39.757  11.176
65458W        W30443  17.248  12.827  11.472
65459W        W30444   6.944   8.533   3.596
65460W        W30445  30.482   9.793  14.362
65461W        W30446  43.164   6.594  11.473
65462W        W30447   8.589  21.805  14.729
65463W        W30448   5.550   9.692   2.066
65464W        W30449   9.997  16.175  10.725
65465W        W30450  17.703  24.576   3.773
65466W        W30451  42.379  10.093   3.090
65467W        W30452  29.574  40.781   2.479
65468W        W30453   1.757  18.546  13.008
65469W        W30454  38.332  34.710  12.533
65470W        W30455  10.753  11.192   2.493
65471W        W30456  14.773  18.808   3.587
65472W        W30457  19.209  23.513  11.189
65473W        W30458  43.306  24.582  13.269
65474W        W30459  36.514  31.335  12.455
65475W        W30460   1.959  12.926   1.883
65476W        W30461  20.016  21.801  13.780
65477W        W30462  13.329  18.559   4.201
65478W        W30463  41.957   4.598  11.213
65479W        W30464  16.190  22.571  13.799
65480W        W30465  30.427  43.441   4.406
65481W        W30466  10.680  13.833   3.214
65482W        W30467  19.812   7.218  13.198
65483W        W30468   0.440  11.433  10.557
65484W        W30469  18.622  33.035   4.137
65485W        W30470  41.408  26.022  13.039
65486W        W30471  29.029   7.129  13.916
65487W        W30472   0.797   1.999  11.974
65488W        W30473  33.080  36.699   1.751
65489W        W30474  37.875  43.412  12.921
65490W        W30475   3.297  15.999  13.516
65491W        W30476  11.631  17.885  11.274
65492W        W30477  30.553  11.825  13.911
65493W        W30478   8.375   1.037   0.468
65494W        W30479  35.356  42.875   3.598
65495W        W30480  33.075  36.812   0.750
65496W        W30481  34.013  10.946  10.964
65497W        W30482  34.754  34.531   5.045
65498W        W30483  34.897  28.457  10.753
65499W        W30484  14.083  15.473   4.103
65500W        W30485  12.413  15.589   1.230
65501W        W30486  26.135  20.603  13.895
65502W        W30487  15.332  20.161   4.796
65503W        W30488  32.219  33.544  12.977
65504W        W30489  37.891  36.005   2.945
65505W        W30490  16.184  24.060  13.534
65506W        W30491  42.140  28.017  13.770
65507W        W30492  22.155  12.386   2.868
65508W        W30493  28.973  16.170  10.530
65509W        W30494  27.744  34.907  10.213
65510W        W30495   4.699  42.725   3.741
65511W        W30496  10.438  34.662   2.205
65512W        W30497  15.980  38.471  11.565
65513W        W30498  15.356  10.314  11.943
65514W        W30499  16.107  21.531  12.707
65515W        W30500  27.591  29.552  12.526
65516W        W30501   2.060   0.671  11.506
65517W        W30502  16.892  32.062  13.791
65518W        W30503  18.285  20.777  12.004
65519W        W30504  11.764  24.305   4.546
65520W        W30505  10.928  43.697  10.939
65521W        W30506  12.753  23.734  13.855
65522W        W30507   3.359  44.903  10.793
65523W        W30508   0.189  27.726  14.017
65524W        W30509   5.648  26.681   3.717
65525W        W30510  23.725  23.141   2.904
65526W        W30511  30.568  16.968  12.913
65527W        W30512  23.823  29.068   2.815
65528W        W30513  11.307  30.743   2.249
65529W        W30514  32.002  21.049  11.531
65530W        W30515  39.806  36.674   3.308
65531W        W30516  16.296  43.526  12.486
65532W        W30517  37.320   7.411   0.010
65533W        W30518   0.889  20.586  14.376
65534W        W30519  34.058  31.254  13.470
65535W        W30520  22.170   4.454   3.709
65536W        W30521   2.833  19.498  13.650
65537W        W30522  14.675  20.525   0.861
65538W        W30523  42.192  22.048   3.692
65539W        W30524  27.526  15.750   0.201
65540W        W30525  22.653  27.716  14.475
65541W        W30526   6.247   6.978  14.235
65542W        W30527  25.437  35.995   0.934
65543W        W30528  38.535  14.072  11.721
65544W        W30529  33.369  33.512   2.665
65545W        W30530  36.536  36.741  12.604
65546W        W30531  14.452  31.023   1.165
65547W        W30532  28.072  17.181  14.214
65548W        W30533  25.637  13.369   1.242
65549W        W30534  42.012  36.470   2.330
65550W        W30535  12.779  28.586   2.246
65551W        W30536  33.491  41.251   2.233
65552W        W30537   5.941  42.281  12.799
65553W        W30538  10.213  39.062   0.527
65554W        W30539   7.598  27.894  11.841
65555W        W30540  16.990  41.847   2.230
65556W        W30541  13.439  29.054   5.469
65557W        W30542  24.529  35.029   4.611
65558W        W30543   9.367  19.146   1.692
65559W        W30544   9.260   5.448   1.896
65560W        W30545  40.701  19.765   3.236
65561W        W30546  11.286  39.386   1.403
65562W        W30547  14.673   3.982   4.126
65563W        W30548  12.657  34.921  11.099
65564W        W30549  10.091  10.996  14.422
65565W        W30550  16.541   7.654   2.774
65566W        W30551  26.681  40.134  11.507
65567W        W30552   9.166  23.629   4.198
65568W        W30553  19.148  13.079   1.922
65569W        W30554  38.361  11.319   4.577
65570W        W30555  28.140  33.457   2.381
65571W        W30556  16.782  34.804   3.627
65572W        W30557   3.751  35.390   0.739
65573W        W30558  33.863  16.527  11.104
65574W        W30559  40.873  23.512  14.771
65575W        W30560  37.308  26.145   4.387
65576W        W30561  39.007  38.772  12.300
65577W        W30562  40.851   1.842   2.986
65578W        W30563  20.537   4.062   4.684
65579W        W30564  16.566  28.576  13.558
65580W        W30565  25.025  23.437  13.080
65581W        W30566   2.514   9.133   3.223
65582W        W30567  38.063   3.941  13.645
65583W        W30568  26.719   0.756  10.732
65584W        W30569  23.480  10.800   3.337
65585W        W30570  39.401  39.232   1.921
65586W        W30571  43.321  14.539   3.373
65587W        W30572  33.411   2.529   3.369
65588W        W30573  36.514  20.752  13.859
65589W        W30574  28.916  25.201  13.841
65590W        W30575  33.836  33.891   1.260
65591W        W30576  24.684   0.903  13.388
65592W        W30577  41.732  31.314   4.883
65593W        W30578   2.384  27.166   3.874
65594W        W30579  15.830  29.655  12.820
65595W        W30580  27.860  38.876  10.358
65596W        W30581   3.484  25.450   0.463
65597W        W30582  11.160  15.173   1.242
65598W        W30583  18.616  16.650  10.147
65599W        W30584  32.842  36.529  11.167
65600W        W30585  37.963   9.936  11.132
65601W        W30586  29.736  10.361   4.534
65602W        W30587  38.319  43.477   3.529
65603W        W30588  17.924  27.209   5.011
65604W        W30589  29.146   9.172   4.265
65605W        W30590  42.873   0.996  13.416
65606W        W30591  42.838  28.909   0.682
65607W        W30592  17.444  18.611  10.607
65608W        W30593  36.578  39.125  12.857
65609W        W30594  36.069  27.164  14.535
65610W        W30595  36.104   1.732   2.752
65611W        W30596  26.285  11.415  14.726
65612W        W30597  22.066  20.690   2.696
65613W        W30598  26.305  39.543  10.780
65614W        W30599  42.662   8.861  13.353
65615W        W30600  33.301  14.052   4.685
65616W        W30601  41.002  20.589  12.499
65617W        W30602  36.973  18.102  13.283
65618W        W30603   0.813  31.360  14.339
65619W        W30604  17.411  22.055   3.672
65620W        W30605  28.425   2.885  11.275
65621W        W30606  32.960  28.125  14.768
65622W        W30607  10.776  19.747  14.340
65623W        W30608  22.906   3.521   3.298
65624W        W30609  43.750  14.041  12.533
65625W        W30610  28.212  18.526   2.664
65626W        W30611  27.465  39.468  12.964
65627W        W30612  22.152  20.294  10.929
65628W        W30613  41.776  14.595  10.185
65629W        W30614  25.902  26.948  14.895
65630W        W30615  16.732  36.455   2.013
65631W        W30616   8.021  23.337   3.196
65632W        W30617   0.714  34.582   3.883
65633W        W30618   1.997  11.653  12.020
65634W        W30619  20.270  43.983   1.461
65635W        W30620  28.543  35.900  14.633
65636W        W30621  14.068  25.237  14.829
65637W        W30622  14.450  27.001  14.253
65638W        W30623  20.474  41.415   2.829
65639W        W30624  21.431  15.275   0.064
65640W        W30625  12.226  29.654   0.806
65641W        W30626  13.799  27.689   3.696
65642W        W30627  20.500  13.682  12.478
65643W        W30628  35.234  10.153   0.676
65644W        W30629  42.396  40.970  11.621
65645W        W30630  19.792   3.882  12.077
65646W        W30631  12.130  16.482   0.801
65647W        W30632  17.951  42.346   4.853
65648W        W30633   1.384  15.329   1.742
65649W        W30634   0.602   7.757   2.483
65650W        W30635  14.068  37.431  14.931
65651W        W30636   7.690  23.590  12.978
65652W        W30637  18.277  14.620   3.558
65653W        W30638  20.779  36.711  10.649
65654W        W30639  27.950  16.583   4.354
65655W        W30640  34.355  38.863  11.546
65656W        W30641   5.651   1.388  14.840
65657W        W30642  29.481  15.296  13.528
65658W        W30643  33.680   5.857  12.855
65659W        W30644  30.990   7.924   4.328
65660W        W30645  44.030  14.955   2.187
65661W        W30646  36.890  39.454  12.615
65662W        W30647  30.176   4.935   0.843
65663W        W30648  18.271  16.446   3.803
65664W        W30649   5.313  43.662  11.861
65665W        W30650   0.487  22.588  13.023
65666W        W30651  43.926   2.486   4.895
65667W        W30652  42.469   2.286   4.571
65668W        W30653  43.400  33.497   4.259
65669W        W30654  24.545  40.965   4.042
65670W        W30655   3.741  33.235  11.055
65671W        W30656   4.714  37.152  13.934
65672W        W30657  35.166  24.480  14.861
65673W        W30658  19.038  31.120  10.763
65674W        W30659  44.644  43.414  11.858
65675W        W30660  23.710  18.786  13.894
65676W        W30661   3.898  26.923   4.831
65677W        W30662  19.774  39.162  12.655
65678W        W30663  30.900  14.056  12.378
65679W        W30664   0.790   7.469  12.179
65680W        W30665  44.793  34.237  12.056
65681W        W30666  31.163  17.906  13.610
65682W        W30667   4.448  22.559  14.486
65683W        W30668  40.350  11.145   2.269
65684W        W30669  16.293  16.246   0.720
65685W        W30670  14.063  27.389  12.546
65686W        W30671  42.544   7.955   3.116
65687W        W30672  14.162  34.954  14.954
65688W        W30673  39.602  30.862   2.155
65689W        W30674  29.125  42.453   3.582
65690W        W30675   1.865   9.355   1.346
65691W        W30676  42.573   4.095  12.618
65692W        W30677  22.718  31.590  14.931
65693W        W30678  26.077  41.922   2.178
65694W        W30679  42.671  28.103  13.719
65695W        W30680  22.685  29.150  11.746
65696W        W30681  28.551  21.444   0.367
65697W        W30682  12.893  16.915   2.845
65698W        W30683  22.930  23.607   2.713
65699W        W30684  26.037  31.023   0.844
65700W        W30685   5.658  33.470  14.731
65701W        W30686  32.352  36.764  12.892
65702W        W30687  21.955  31.587   0.235
65703W        W30688  19.511   5.017  14.331
65704W        W30689   3.282  19.094  14.240
65705W        W30690  21.793  15.554   3.715
65706W        W30691  20.733  25.178   2.365
65707W        W30692  23.795  42.968  13.001
65708W        W30693  32.179  18.609   0.808
65709W        W30694  24.338  43.152  13.238
65710W        W30695  12.698  13.947   0.077
65711W        W30696  19.444   8.284   2.384
65712W        W30697   4.555  15.143  14.739
65713W        W30698  10.899   1.829   5.025
65714W        W30699  30.862  44.054  13.801
65715W        W30700   1.248   2.309  12.589
65716W        W30701  41.038  21.635   2.307
65717W        W30702  33.864  39.898  13.349
65718W        W30703  16.166  34.005   3.556
65719W        W30704   6.200  44.534  14.316
65720W        W30705   7.742   7.881   5.102
65721W        W30706  43.272  34.252   1.912
65722W        W30707  41.895  26.257   1.327
65723W        W30708  40.698  15.620   1.249
65724W        W30709   0.779  26.892   0.449
65725W        W30710   0.397   9.608   4.444
65726W        W30711   3.953  10.722   2.355
65727W        W30712  20.847  15.027   3.747
65728W        W30713   9.675  41.446   3.839
65729W        W30714  19.680   1.498  14.594
65730W        W30715  30.143  31.005  13.579
65731W        W30716  27.588  41.163   1.983
65732W        W30717   3.278  14.651  11.196
65733W        W30718  12.741  15.573  10.644
65734W        W30719   7.960  39.439  14.781
65735W        W30720  29.790  44.296  11.576
65736W        W30721  42.226  40.114   1.855
65737W        W30722  27.518  11.169  12.439
65738W        W30723  33.574  15.416   2.235
65739W        W30724  42.266  44.457  10.653
65740W        W30725   9.700  20.816   1.559
65741W        W30726  28.852  19.229   3.432
65742W        W30727  17.910  19.688   3.687
65743W        W30728  23.088  37.168   0.728
65744W        W30729  26.370   0.832   9.838
65745W        W30730   9.102  12.121  13.871
65746W        W30731  14.484  20.690   2.185
65747W        W30732  17.752  24.195   3.460
65748W        W30733  36.151  21.107  13.615
65749W        W30734  41.328  36.260  13.982
65750W        W30735  26.627  15.044   0.108
65751W        W30736  19.658  17.065   0.020
65752W        W30737  21.179  12.147  14.218
65753W        W30738   7.321   7.628   1.016
65754W        W30739  17.350  32.636   0.666
65755W        W30740  22.102  27.241  12.523
65756W        W30741   4.623  22.607   0.834
65757W        W30742  37.720   7.915  12.973
65758W        W30743   9.360  29.005  12.065
65759W        W30744  28.742   6.705  12.825
65760W        W30745   8.378  37.896   0.973
65761W        W30746  12.131  33.975   0.127
65762W        W30747   9.786  23.005  11.086
65763W        W30748   0.452  29.767  13.453
65764W        W30749  41.020  27.396  13.919
65765W        W30750  38.604  41.360  14.913
65766W        W30751   2.778  11.274   3.930
65767W        W30752   2.917  13.337  14.958
65768W        W30753  40.769   3.742  10.586
65769W        W30754  18.035  10.079  14.446
65770W        W30755  19.190   3.277   2.277
65771W        W30756  22.584  20.180   0.108
65772W        W30757  23.021  18.762  14.441
65773W        W30758  35.305  18.126   0.632
65774W        W30759  10.847  25.208   4.223
65775W        W30760  21.213  10.353   2.199
65776W        W30761  32.384  20.265   2.791
65777W        W30762  29.168  33.176  13.418
65778W        W30763  16.173  30.093   3.111
65779W        W30764  39.872  40.868   0.748
65780W        W30765  27.348  38.581  11.963
65781W        W30766  14.809  30.420  12.312
65782W        W30767  30.190  35.937  10.464
65783W        W30768  24.799  19.857   3.665
65784W        W30769   1.618  10.413   4.053
65785W        W30770  13.815   4.229  10.672
65786W        W30771  34.211  15.277   3.966
65787W        W30772   6.398  21.708  14.070
65788W        W30773  34.991  37.323  10.857
65789W        W30774  27.265  31.520  12.524
65790W        W30775   5.918  28.893  11.387
65791W        W30776  20.134  41.495   3.365
65792W        W30777  20.400  21.313   4.635
65793W        W30778   3.866  23.983   1.390
65794W        W30779  24.120   2.043  12.928
65795W        W30780  16.466  26.312  14.525
65796W        W30781  28.200  36.420   2.566
65797W        W30782  31.821  24.519   4.568
65798W        W30783  13.334   3.916  14.869
65799W        W30784  38.409  32.190  11.625
65800W        W30785  24.148  36.732  12.395
65801W        W30786   6.391  16.387   2.395
65802W        W30787  32.532   0.297  11.954
65803W        W30788   4.722  16.969   2.413
65804W        W30789  33.037  33.182  11.611
65805W        W30790  17.079  39.005   3.723
65806W        W30791   0.900  41.119   1.454
65807W        W30792  42.229  10.282  11.043
65808W        W30793  35.451  19.858  12.452
65809W        W30794  18.290  27.423   3.287
65810W        W30795  21.421  25.875   2.371
65811W        W30796  27.609  34.986   3.530
65812W        W30797   1.772  22.407   0.903
65813W        W30798  19.318  43.858   2.337
65814W        W30799  42.294  42.767  11.210
65815W        W30800   7.789  37.917   2.931
65816W        W30801  24.188  35.201   1.773
65817W        W30802  10.748  28.471  12.581
65818W        W30803  33.198  17.595   1.836
65819W        W30804  28.268   2.478   2.331
65820W        W30805   6.218  20.972   3.067
65821W        W30806  23.314   4.050  11.564
65822W        W30807   0.784  36.881   3.216
65823W        W30808  34.074  25.196  12.491
65824W        W30809  33.484  24.995   0.528
65825W        W30810  28.360  27.704   0.475
65826W        W30811  13.105   9.706  13.400
65827W        W30812  17.581  11.797   1.647
65828W        W30813  12.079  27.010  10.184
65829W        W30814  39.826  31.363   0.286
65830W        W30815  17.808  29.460  12.992
65831W        W30816  34.925   0.836  12.847
65832W        W30817  20.509  40.411  12.879
65833W        W30818  12.860  37.968  11.934
65834W        W30819  27.551  20.320  13.656
65835W        W30820  27.632   3.273   2.359
65836W        W30821  13.904  38.397  13.922
65837W        W30822  38.116   7.378   1.941
65838W        W30823  35.170  10.296   1.718
65839W        W30824  24.973  17.940   4.220
65840W        W30825   9.672  14.771   3.535
65841W        W30826  21.263  20.641   3.332
65842W        W30827  42.424  18.775   5.417
65843W        W30828  13.151  16.730  11.302
65844W        W30829   8.971   4.486  14.504
65845W        W30830  20.835  38.510  11.611
65846W        W30831  27.105   4.508   2.860
65847W        W30832  35.402  16.477   0.365
65848W        W30833  23.126  12.625   4.281
65849W        W30834  41.925  43.521  10.876
65850W        W30835  18.204  33.384   0.046
65851W        W30836   9.167  30.682  11.595
65852W        W30837  20.650  38.027  14.218
65853W        W30838  11.165  29.711  12.982
65854W        W30839  13.365  10.878   4.062
65855W        W30840  24.790  16.657   2.134
65856W        W30841   3.973  17.300  11.615
65857W        W30842  40.614   2.272  12.757
65858W        W30843  22.578  36.491   4.430
65859W        W30844  27.473  26.379  12.000
65860W        W30845  29.406   5.456   2.215
65861W        W30846  22.669  12.859   5.159
65862W        W30847  28.930   6.718  12.186
65863W        W30848  23.485  22.669  14.919
65864W        W30849  34.818  42.722  14.044
65865W        W30850  29.972  41.559  14.259
65866W        W30851   5.669   4.241  13.332
65867W        W30852  35.459   3.857   1.464
65868W        W30853   0.524  38.627   2.735
65869W        W30854  17.588  26.919   5.300
65870W        W30855   2.873  16.242  12.382
65871W        W30856  31.312  22.473   1.814
65872W        W30857   8.434  41.960  13.454
65873W        W30858  21.483  40.609   2.137
65874W        W30859   2.439  26.639  14.893
65875W        W30860  31.906   0.318  13.463
65876W        W30861  42.465  35.860   1.917
65877W        W30862  12.414  27.658   2.683
65878W        W30863   0.041  33.743   3.248
65879W        W30864  29.383   6.707   3.286
65880W        W30865  22.060   4.302   4.557
65881W        W30866  30.498  31.599  13.347
65882W        W30867  36.572  43.867  13.709
65883W        W30868   8.820  17.642  11.106
65884W        W30869  38.976  17.693  12.170
65885W        W30870  40.130   6.200  14.173
65886W        W30871   0.879  30.048   1.909
65887W        W30872  33.601   5.228   3.158
65888W        W30873   3.992  14.115  11.680
65889W        W30874  22.054  30.414   0.985
65890W        W30875   9.170  12.295   3.345
65891W        W30876   0.035  37.582   3.082
65892W        W30877   7.298  34.576   3.203
65893W        W30878   8.035   1.247  14.180
65894W        W30879  42.321   7.331   2.706
65895W        W30880  20.579  22.794  10.731
65896W        W30881  40.516   1.546   3.214
65897W        W30882  14.782  17.087  10.658
65898W        W30883  36.680  39.821  14.232
65899W        W30884   0.005  43.005   1.422
65900W        W30885  37.516  33.985  10.561
65901W        W30886   2.005  32.302  13.335
65902W        W30887  18.037  43.793   2.634
65903W        W30888  28.836   6.855   0.678
65904W        W30889   8.030  21.426  11.014
65905W        W30890  15.033  30.509  11.465
65906W        W30891  23.697  13.569  13.092
65907W        W30892  18.453  22.645   4.111
65908W        W30893  31.525   5.738  13.420
65909W        W30894  16.601  24.752  12.399
65910W        W30895  23.745   8.662  14.862
65911W        W30896   6.886  25.244   0.293
65912W        W30897  33.599   3.455   3.180
65913W        W30898  25.233   8.607   4.088
65914W        W30899  24.343  30.897  14.848
65915W        W30900  38.400  29.915   4.281
65916W        W30901  42.829  27.586  11.614
65917W        W30902  24.390  36.241   1.020
65918W        W30903   5.769   8.294   4.101
65919W        W30904  19.619  20.650   1.059
65920W        W30905   0.312  26.108  10.437
65921W        W30906  27.041  44.519   0.290
65922W        W30907  10.236  33.861  13.962
65923W        W30908  31.375  21.007   0.755
65924W        W30909  37.925  32.086  11.394
65925W        W30910  19.834  27.225   9.748
65926W        W30911  31.305   4.878  11.941
65927W        W30912  29.632  39.793  12.056
65928W        W30913  22.571   5.669   4.634
65929W        W30914   9.248   9.847  14.396
65930W        W30915  22.475  32.394   9.731
65931W        W30916  41.478  34.949   1.188
65932W        W30917   9.145  25.606  12.454
65933W        W30918  39.671   7.318  11.360
65934W        W30919  35.014  42.266  14.956
65935W        W30920  27.958  37.977  14.342
65936W        W30921  32.072  31.391   0.365
65937W        W30922  25.232  36.701  12.058
65938W        W30923  44.789   5.869  11.670
65939W        W30924  19.059  17.727   3.186
65940W        W30925  33.044  44.191  13.448
65941W        W30926  34.604  34.029   2.907
65942W        W30927  32.821  19.939   1.471
65943W        W30928  14.331  29.975   3.794
65944W        W30929  30.729  39.304   0.331
65945W        W30930  25.887   3.441  11.208
65946W        W30931  27.376   8.958  11.059
65947W        W30932  18.880   7.076  12.442
65948W        W30933   0.986  13.572   3.229
65949W        W30934  37.949  30.933   4.480
65950W        W30935  43.759  19.254   3.341
65951W        W30936  36.983  14.890  11.610
65952W        W30937  38.941  39.895   4.857
65953W        W30938  19.796  25.954  11.909
65954W        W30939  32.635  10.794  11.485
65955W        W30940  16.968   7.739  11.636
65956W        W30941  22.718   8.285   0.269
65957W        W30942   5.307  11.488   4.049
65958W        W30943  30.868   9.799   1.727
65959W        W30944   7.401   4.346   0.375
65960W        W30945  15.713   1.418   2.181
65961W        W30946   4.858  15.843  12.108
65962W        W30947   8.706  32.042  12.338
65963W        W30948  20.786   3.466  12.129
65964W        W30949  35.673  12.012   1.003
65965W        W30950  12.107  26.161   0.627
65966W        W30951  14.829  43.916  12.740
65967W        W30952   9.140  13.220  11.636
65968W        W30953  40.098  32.048   2.313
65969W        W30954   7.190  28.975   0.714
65970W        W30955   2.037  18.965   1.956
65971W        W30956  33.089  19.432  12.879
65972W        W30957  13.993  16.264   0.248
65973W        W30958  28.612  43.661   3.578
65974W        W30959  16.773  17.712   0.739
65975W        W30960  43.577  38.504  12.015
65976W        W30961   2.289  13.666   2.371
65977W        W30962  36.735  25.526  10.557
65978W        W30963  35.678   4.935  11.434
65979W        W30964   7.892  41.357   3.294
65980W        W30965  24.557  20.041   3.176
65981W        W30966   9.225  24.813  14.288
65982W        W30967   9.283  20.578   0.772
65983W        W30968  25.593  13.721   4.254
65984W        W30969  35.051  24.781   4.311
65985W        W30970  33.996  26.256   4.365
65986W        W30971  18.072  10.814  13.187
65987W        W30972  32.367  23.224  10.905
65988W        W30973  39.554  20.620  13.414
65989W        W30974  32.450  35.496   2.710
65990W        W30975   5.349  20.251   4.502
65991W        W30976   7.073  33.592   2.945
65992W        W30977  39.950  19.040  11.701
65993W        W30978  31.527   9.251   5.464
65994W        W30979  15.598  16.102   1.920
65995W        W30980  33.472  41.900   3.290
65996W        W30981  17.657  26.520   4.488
65997W        W30982  44.369   8.210  11.419
65998W        W30983  13.300  21.823   0.638
65999W        W30984   3.451  32.559   3.257
66000W        W30985  29.137  31.993  10.418
66001W        W30986  14.578  27.087  10.416
66002W        W30987   3.197  24.623  12.836
66003W        W30988  30.428   0.042  14.361
66004W        W30989  44.666  12.568   1.802
66005W        W30990   3.163  18.022   3.482
66006W        W30991  26.876   8.040  13.451
66007W        W30992  34.274  29.732   2.691
66008W        W30993   3.477   6.763  13.038
66009W        W30994  37.881  21.784   0.797
66010W        W30995   5.702  24.794  13.147
66011W        W30996  17.599   2.858  12.132
66012W        W30997  30.461  27.128  12.717
66013W        W30998  42.801   8.403   3.311
66014W        W30999  21.650  13.329  11.971
66015W        W31000  27.893   2.007  14.289
66016W        W31001   4.204  22.375   0.509
66017W        W31002  26.486  18.248   1.412
66018W        W31003  27.653  12.696  13.444
66019W        W31004  35.451  14.671  12.493
66020W        W31005  23.478  12.644   2.165
66021W        W31006  44.114  38.053   5.058
66022W        W31007  30.951   8.322   1.467
66023W        W31008   5.112  40.010   4.701
66024W        W31009  11.194  30.335   1.258
66025W        W31010  44.515  30.962  12.426
66026W        W31011  29.147  24.125   1.643
66027W        W31012  29.401  44.397   3.813
66028W        W31013  14.542  30.528  13.824
66029W        W31014  10.417  18.016  12.493
66030W        W31015  12.668   5.268   0.317
66031W        W31016  23.455  12.226  14.567
66032W        W31017  37.049  10.620   4.064
66033W        W31018   0.048   5.720  12.070
66034W        W31019  16.447  18.747  10.710
66035W        W31020  28.645  14.549   4.099
66036W        W31021  15.030   7.280   3.221
66037W        W31022  24.695   6.155  14.281
66038W        W31023  31.955  20.576   2.651
66039W        W31024  24.487  40.577   0.455
66040W        W31025  30.605   1.427   3.692
66041W        W31026  13.643  10.798   2.835
66042W        W31027   5.438   1.894  13.112
66043W        W31028  35.551  24.212  13.871
66044W        W31029  13.376   9.324   3.138
66045W        W31030  19.540   1.967   2.344
66046W        W31031   8.264  31.485   0.362
66047W        W31032   4.550  27.252   1.881
66048W        W31033   3.818  21.038   2.387
66049W        W31034  30.503   5.213  14.920
66050W        W31035  26.430  25.543  11.060
66051W        W31036  44.251  37.290  13.375
66052W        W31037   0.754  11.737   1.927
66053W        W31038  36.043  19.171   4.427
66054W        W31039   1.245  32.748  11.563
66055W        W31040  14.077  34.082   0.458
66056W        W31041  18.235  16.543   3.285
66057W        W31042  35.708  21.966   4.559
66058W        W31043  10.033  29.343   0.372
66059W        W31044   4.797  34.551   1.230
66060W        W31045  44.413  25.219  14.013
66061W        W31046  37.881   7.813   4.501
66062W        W31047  21.720  40.634   3.111
66063W        W31048  26.953  44.147   3.630
66064W        W31049  27.683  25.271   4.138
66065W        W31050  40.164  29.997   4.618
66066W        W31051   3.634  29.506  12.055
66067W        W31052  42.289  17.460  13.161
66068W        W31053  32.327  38.964  13.516
66069W        W31054   3.736  41.778   3.815
66070W        W31055  30.099  33.799   2.936
66071W        W31056  13.032  13.302   2.312
66072W        W31057  38.113  28.420   1.491
66073W        W31058   0.540   2.664  13.332
66074W        W31059  32.337  13.389  14.580
66075W        W31060   7.831  32.481   3.713
66076W        W31061  35.142  21.575   2.389
66077W        W31062   5.792  39.506   2.905
66078W        W31063  27.473  42.608  12.948
66079W        W31064  40.934  14.191  10.596
66080W        W31065  33.068  15.625  13.040
66081W        W31066   0.476  26.061  13.319
66082W        W31067  22.205  27.508  10.691
66083W        W31068  40.287  11.699   2.410
66084W        W31069  30.739  18.798   1.144
66085W        W31070  25.424  18.632   2.008
66086W        W31071  17.825  20.727  12.738
66087W        W31072  35.142  13.259  10.142
66088W        W31073  41.534  11.868   1.911
66089W        W31074  11.206  10.146   3.256
66090W        W31075  12.658   5.224   2.309
66091W        W31076  29.468  28.477  12.145
66092W        W31077  29.650   2.652   0.853
66093W        W31078  37.912   2.789   4.207
66094W        W31079   2.500  13.646   3.233
66095W        W31080  30.816  28.239   3.264
66096W        W31081  26.035   6.270  13.493
66097W        W31082   5.886  22.750   0.295
66098W        W31083  41.956  25.540  14.324
66099W        W31084  32.544  12.169   2.360
66100W        W31085  28.852  44.747  12.503
66101W        W31086  27.185  31.528  13.841
66102W        W31087  26.250  40.386   0.045
66103W        W31088  12.087  21.391   4.388
66104W        W31089  40.259  18.246  12.322
66105W        W31090  32.048  36.010  13.995
66106W        W31091  13.461   5.238   9.853
66107W        W31092   4.618  33.707   1.250
66108W        W31093   2.781  25.627   0.555
66109W        W31094  30.146   6.460   0.641
66110W        W31095   5.266  15.034  10.624
66111W        W31096   4.660  33.139  10.192
66112W        W31097  37.099   1.692  11.531
66113W        W31098  39.881  10.244   3.256
66114W        W31099  11.069  41.585  13.124
66115W        W31100  25.447  27.877   2.678
66116W        W31101  42.858   7.875   2.357
66117W        W31102  28.743   7.307  12.932
66118W        W31103  10.610  40.950   3.970
66119W        W31104  18.675  28.658   4.597
66120W        W31105  42.332  32.714  12.962
66121W        W31106   0.497  10.843   2.098
66122W        W31107  27.042   4.712   2.058
66123W        W31108  42.274  36.047  12.972
66124W        W31109  11.803  12.938   1.750
66125W        W31110  29.730  31.952   0.568
66126W        W31111  19.717  40.500   4.225
66127W        W31112   4.916   8.737   2.465
66128W        W31113  24.044  25.720  14.065
66129W        W31114   2.725  31.141  12.922
66130W        W31115  32.998  42.478   2.358
66131W        W31116  11.783  33.555   3.982
66132W        W31117  17.078  33.356   2.749
66133W        W31118  13.088   2.357  13.330
66134W        W31119  38.991  22.510   2.130
66135W        W31120  26.587   9.706  12.244
66136W        W31121  31.046  39.730  14.443
66137W        W31122  12.206  31.038   4.445
66138W        W31123  16.568  25.456   3.733
66139W        W31124  38.462  43.480  12.324
66140W        W31125  32.867  23.868   1.487
66141W        W31126   5.296   4.674   0.172
66142W        W31127  36.545   8.113   3.815
66143W        W31128  39.066  34.916   1.900
66144W        W31129  20.320  34.828   4.074
66145W        W31130   7.739   5.428  13.243
66146W        W31131  34.787  17.113   4.512
66147W        W31132  22.460  37.496   2.206
66148W        W31133  39.773   7.654   1.787
66149W        W31134  30.993  26.013   1.791
66150W        W31135  24.664  27.559  12.143
66151W        W31136  40.459   2.208  13.770
66152W        W31137  13.683   3.597  14.500
66153W        W31138   8.467  41.928  10.401
66154W        W31139  31.038  42.376   4.113
66155W        W31140  23.500  27.536   0.287
66156W        W31141  14.688  35.457  13.432
66157W        W31142   8.426  36.405   0.293
66158W        W31143  20.452  31.068  13.194
66159W        W31144   4.154  13.598  14.888
66160W        W31145   0.763  26.662  13.343
66161W        W31146   6.289  24.446  14.444
66162W        W31147  37.754  36.488   2.193
66163W        W31148  27.955  39.732  12.922
66164W        W31149  36.238  43.870   4.071
66165W        W31150  12.927  15.444   1.309
66166W        W31151  16.251  17.921  13.282
66167W        W31152  35.922  33.246   5.066
66168W        W31153   7.908   9.784  13.927
66169W        W31154  35.674  26.654  14.913
66170W        W31155  20.561  39.037  10.531
66171W        W31156   3.709   5.682  13.490
66172W        W31157  34.448   4.698   1.007
66173W        W31158  44.480  20.501  14.559
66174W        W31159  29.569  10.395   3.070
66175W        W31160   4.593  35.527   1.342
66176W        W31161  20.916  44.732  13.829
66177W        W31162   0.437  41.525   3.226
66178W        W31163  31.048  33.854  11.230
66179W        W31164  13.195  44.005  11.461
66180W        W31165  21.722  26.588  11.251
66181W        W31166  10.908  36.420  14.366
66182W        W31167  34.345  35.039  12.523
66183W        W31168  26.163  43.266   1.695
66184W        W31169  19.690  10.172  11.668
66185W        W31170  10.118  24.762  10.287
66186W        W31171  30.358  43.238   3.015
66187W        W31172  39.351  16.695   0.841
66188W        W31173  36.035  19.182   4.943
66189W        W31174  26.736  25.078   1.310
66190W        W31175  18.684  41.977   3.520
66191W        W31176  17.684  30.656  14.532
66192W        W31177   1.419  27.882  14.537
66193W        W31178  30.226  13.622   1.405
66194W        W31179   7.261  36.492   0.216
66195W        W31180  13.984  29.834  13.359
66196W        W31181  15.353  15.749  13.473
66197W        W31182  12.343  22.538   0.412
66198W        W31183  23.155   6.145   0.094
66199W        W31184  34.606   5.774   4.194
66200W        W31185  26.004  30.929   4.020
66201W        W31186  27.508  20.498   2.731
66202W        W31187  18.725  21.979  13.530
66203W        W31188  22.657   1.326  14.415
66204W        W31189  29.087  25.248   3.299
66205W        W31190  23.654  22.633  14.026
66206W        W31191  30.042  17.230  13.527
66207W        W31192  27.609  14.900  12.681
66208W        W31193  30.446  19.159  12.482
66209W        W31194  39.157  18.868   3.737
66210W        W31195  16.244  21.023  11.043
66211W        W31196   0.533  35.990   5.037
66212W        W31197  39.937  30.851   0.359
66213W        W31198  38.817   0.223   1.414
66214W        W31199  16.691  43.846  12.627
66215W        W31200  16.913  16.810   2.146
66216W        W31201  14.752  13.233   4.929
66217W        W31202  19.335  12.098  14.917
66218W        W31203  23.802  17.629  13.656
66219W        W31204  18.323  33.022  10.730
66220W        W31205  23.020   5.298  12.375
66221W        W31206  23.958  29.406   0.414
66222W        W31207   2.852  36.523  13.315
66223W        W31208  30.469  39.930   0.419
66224W        W31209  31.645   3.472  11.057
66225W        W31210  22.236  23.201  12.574
66226W        W31211  42.484  14.631   1.957
66227W        W31212  26.672   5.397  10.924
66228W        W31213  24.571  20.830   0.207
66229W        W31214  37.433  31.996  13.148
66230W        W31215  13.559   9.861   2.203
66231W        W31216  42.683  34.437  13.564
66232W        W31217  34.987  32.322   4.773
66233W        W31218   7.329   0.602  11.079
66234W        W31219  38.006   3.156  14.749
66235W        W31220  21.421  12.746   1.386
66236W        W31221   8.725  13.303   1.838
66237W        W31222  19.732  38.858  14.452
66238W        W31223  43.531   0.853  12.570
66239W        W31224   6.165   6.256   1.274
66240W        W31225  38.476   7.649   1.150
66241W        W31226  13.369  14.051  10.668
66242W        W31227   6.423  25.208  13.910
66243W        W31228   9.608   8.543   2.430
66244W        W31229  14.311  28.223  12.893
66245W        W31230   7.769   5.913  13.419
66246W        W31231   4.438  27.428  14.546
66247W        W31232  14.528  34.393  11.436
66248W        W31233   5.034  16.031  14.052
66249W        W31234  37.243   7.758  10.457
66250W        W31235  13.906  37.047   2.696
66251W        W31236  44.219  23.070  11.520
66252W        W31237  29.515  19.076  12.426
66253W        W31238  27.155  24.435   2.683
66254W        W31239   7.304  31.362   1.969
66255W        W31240  39.330  20.811   0.342
66256W        W31241  41.783  27.170   1.807
66257W        W31242  22.014  34.445   4.969
66258W        W31243   7.676  33.444  10.593
66259W        W31244  12.754   9.815  12.449
66260W        W31245  36.744  12.103   2.692
66261W        W31246   2.381  16.347  14.650
66262W        W31247  30.943  37.486  14.972
66263W        W31248   2.436   6.472   2.304
66264W        W31249  40.941  38.360   2.781
66265W        W31250  38.044  16.683  12.300
66266W        W31251  10.839  28.462  12.086
66267W        W31252   6.420  17.687   2.378
66268W        W31253  19.195  16.673  14.755
66269W        W31254   2.190  11.948  14.505
66270W        W31255  27.006   6.367  13.677
66271W        W31256  35.648   7.673  11.251
66272W        W31257  27.313  41.901  14.078
66273W        W31258  27.944  29.427   4.115
66274W        W31259   1.663  33.881  11.508
66275W        W31260   9.627  34.802  13.380
66276W        W31261  40.928  23.060   0.715
66277W        W31262   1.934  28.749   4.599
66278W        W31263  42.452   3.542  11.653
66279W        W31264  35.435  24.625   0.408
66280W        W31265  31.095  16.599   3.891
66281W        W31266  23.115  33.156  14.269
66282W        W31267  20.703  27.481  14.929
66283W        W31268   9.195   4.442  12.184
66284W        W31269  10.241  18.093  10.818
66285W        W31270  21.581   0.316   4.533
66286W        W31271  38.767  10.680  13.909
66287W        W31272  37.804   8.947   2.779
66288W        W31273   7.777  20.330  12.477
66289W        W31274  29.176  32.571  12.751
66290W        W31275  27.756  25.943  11.122
66291W        W31276  25.065  15.726  12.010
66292W        W31277  14.380  19.839  11.053
66293W        W31278  26.173   6.787  14.814
66294W        W31279  18.230  19.523  14.036
66295W        W31280   4.726  30.025   0.443
66296W        W31281  10.095   9.337   2.238
66297W        W31282  40.010   8.292  13.286
66298W        W31283  30.377  19.215  10.940
66299W        W31284  37.569  12.628  13.363
66300W        W31285  35.950  12.647  11.870
66301W        W31286  17.094  30.710   0.332
66302W        W31287  38.357  25.779   2.677
66303W        W31288  14.140  40.061  11.223
66304W        W31289   6.825  41.574   1.861
66305W        W31290  31.959  13.848   0.765
66306W        W31291  16.336   0.890   1.812
66307W        W31292  22.748   8.164   2.667
66308W        W31293  22.617  31.516  10.978
66309W        W31294  26.857  11.145  10.335
66310W        W31295  34.316  17.891   4.169
66311W        W31296  10.819   1.613  10.689
66312W        W31297  31.984   7.219   0.509
66313W        W31298  18.172  15.165   0.926
66314W        W31299  41.067  12.308  11.881
66315W        W31300  13.152   4.446  12.558
66316W        W31301  37.045  15.683  14.423
66317W        W31302  12.899  34.977   1.780
66318W        W31303  43.093  42.030   4.566
66319W        W31304  16.719  33.855   3.729
66320W        W31305  33.326   6.324   4.472
66321W        W31306  12.827   8.340  13.844
66322W        W31307  14.298   9.203   0.172
66323W        W31308  37.334  16.903  14.046
66324W        W31309  34.791  30.456  12.447
66325W        W31310  27.346   8.880  13.808
66326W        W31311  44.467  44.893  12.171
66327W        W31312  36.518  34.344  12.996
66328W        W31313  40.801  28.640   2.274
66329W        W31314  26.518  23.375   3.242
66330W        W31315  15.776  12.032   0.702
66331W        W31316  19.779   0.232   2.738
66332W        W31317  17.160  43.401   3.173
66333W        W31318  29.737   9.203   2.773
66334W        W31319   3.704  11.825   4.687
66335W        W31320  15.062   2.525   1.760
66336W        W31321   7.450  20.124  13.568
66337W        W31322  38.470  21.184   1.922
66338W        W31323  18.849  20.771   1.761
66339W        W31324  19.854  17.550   4.922
66340W        W31325  37.093   2.309   0.360
66341W        W31326  42.573  25.057   0.454
66342W        W31327   2.850   8.693   3.838
66343W        W31328   0.765  21.743  11.186
66344W        W31329  44.529  20.281  13.112
66345W        W31330  38.244   1.044  12.550
66346W        W31331  25.513  23.467  11.123
66347W        W31332  28.918  42.575   4.065
66348W        W31333  27.680  25.717   4.553
66349W        W31334  38.949  10.798   4.980
66350W        W31335   9.282  37.451  13.031
66351W        W31336  42.365  15.719  10.270
66352W        W31337  32.649  32.628  12.881
66353W        W31338   5.984  25.432   4.682
66354W        W31339  43.416  11.330   3.738
66355W        W31340  11.435  24.528  13.092
66356W        W31341  22.467  25.973  14.317
66357W        W31342  27.068  37.200   2.653
66358W        W31343  35.986  12.604   0.258
66359W        W31344  30.652   8.428  10.767
66360W        W31345  43.382  11.801   0.335
66361W        W31346  28.874  32.535   1.533
66362W        W31347   6.865  32.468   1.702
66363W        W31348  22.980   5.505   1.300
66364W        W31349  43.739   2.284  11.371
66365W        W31350  33.472  14.204  11.246
66366W        W31351  30.590   2.022   4.323
66367W        W31352  17.182  33.527  14.772
66368W        W31353   6.099  24.002  11.911
66369W        W31354   5.930   0.941  14.795
66370W        W31355  31.332  30.615   1.755
66371W        W31356  20.160  15.536   3.887
66372W        W31357  13.119  27.745   1.124
66373W        W31358  38.495   0.802  10.798
66374W        W31359   9.338  39.622   0.489
66375W        W31360  23.583  32.996   3.829
66376W        W31361  16.049  43.875   4.170
66377W        W31362  12.585  38.167  11.143
66378W        W31363  18.804   3.693  13.414
66379W        W31364  37.777  34.006   0.864
66380W        W31365  44.884  25.081   5.070
66381W        W31366  40.372  40.796   0.903
66382W        W31367  17.344  26.163  11.651
66383W        W31368  18.348  22.984   1.880
66384W        W31369   1.522  29.085  12.943
66385W        W31370  14.823  36.418   0.951
66386W        W31371  13.224  23.657   2.693
66387W        W31372  26.416  32.029  14.991
66388W        W31373  18.830  29.178  12.432
66389W        W31374   5.864  12.172  13.490
66390W        W31375   0.483   0.936   3.004
66391W        W31376  35.008  42.238  14.012
66392W        W31377  14.730  28.282  14.384
66393W        W31378  36.533  17.000   0.280
66394W        W31379  26.780  39.420   2.350
66395W        W31380   5.166  19.057   2.265
66396W        W31381  18.979  36.957  11.197
66397W        W31382  19.707  40.046  14.839
66398W        W31383  31.838  25.187  14.964
66399W        W31384  35.484   9.347   2.460
66400W        W31385  14.137   8.581   3.399
66401W        W31386  16.781  38.111   1.030
66402W        W31387  32.067  42.071   2.157
66403W        W31388  27.009  10.569  12.795
66404W        W31389  25.624  22.834  12.849
66405W        W31390  28.633  24.076   3.599
66406W        W31391  35.898  39.320  11.888
66407W        W31392  20.209   5.715   0.796
66408W        W31393   2.285  22.628   1.199
66409W        W31394  14.197  27.157   4.070
66410W        W31395   2.228   0.486  10.456
66411W        W31396   7.675  34.446  13.030
66412W        W31397  18.968  40.014  11.336
66413W        W31398  37.925  25.287  10.288
66414W        W31399  10.257  10.668  12.147
66415W        W31400  22.538  20.087   2.902
66416W        W31401  23.079   7.546  13.351
66417W        W31402  40.445  44.382   0.197
66418W        W31403  23.170   0.713  12.400
66419W        W31404  30.283   3.175  13.523
66420W        W31405  27.086  39.071   2.131
66421W        W31406   4.749  11.421   4.241
66422W        W31407  25.950  11.256   2.789
66423W        W31408  22.346  16.312   1.854
66424W        W31409  37.902   8.345  14.795
66425W        W31410  21.981  22.193  11.621
66426W        W31411  29.143  35.416   1.315
66427W        W31412  23.957   6.749   1.411
66428W        W31413  40.456  44.048   3.267
66429W        W31414  27.911  22.543   0.301
66430W        W31415   4.861  11.100   2.020
66431W        W31416  15.753  25.386  10.085
66432W        W31417  18.083  39.318   3.958
66433W        W31418  35.538  14.310   2.316
66434W        W31419  13.446   4.002  11.456
66435W        W31420  12.383  13.099   3.678
66436W        W31421  33.502  26.551  11.505
66437W        W31422  22.049  30.706  11.088
66438W        W31423   0.770  35.545   4.872
66439W        W31424   9.435  12.307  14.452
66440W        W31425  25.676  40.571   0.877
66441W        W31426   8.372  18.329   1.596
66442W        W31427  41.766  14.659  13.661
66443W        W31428  14.139  10.198   1.187
66444W        W31429  36.635   4.969  14.276
66445W        W31430  31.753  17.994  14.751
66446W        W31431   6.328   5.507   1.756
66447W        W31432  14.914  37.935   2.650
66448W        W31433  41.373  25.537  13.214
66449W        W31434   3.720   2.434   0.381
66450W        W31435  19.613  31.635  12.797
66451W        W31436  25.415  37.385   9.868
66452W        W31437   4.290  41.467   2.811
66453W        W31438  27.592   8.435   4.429
66454W        W31439  24.446  33.897   2.783
66455W        W31440  20.095   9.711   2.829
66456W        W31441   3.406  11.348   2.110
66457W        W31442  40.606   2.966   2.286
66458W        W31443  34.624  36.900  12.007
66459W        W31444   0.481  11.672   0.282
66460W        W31445   7.964  17.740   0.897
66461W        W31446  41.063   3.026  13.898
66462W        W31447  19.628  15.558  12.509
66463W        W31448   9.731   7.903   4.573
66464W        W31449   9.245  26.270   0.459
66465W        W31450  44.575  34.517   2.300
66466W        W31451   4.469  23.975  10.750
66467W        W31452  25.538   0.165  11.987
66468W        W31453  36.986  31.900   2.756
66469W        W31454   0.420  27.052  14.485
66470W        W31455  25.651   6.077   1.328
66471W        W31456  15.230   0.532  12.055
66472W        W31457   4.847  38.706   0.738
66473W        W31458   8.407   3.865   0.817
66474W        W31459  19.869  13.106   1.307
66475W        W31460   4.282   9.234   0.747
66476W        W31461  18.101  29.906  13.982
66477W        W31462  26.963  43.004   3.275
66478W        W31463   7.965  39.795   3.325
66479W        W31464  40.939  23.947   4.633
66480W        W31465  22.716  14.259  10.710
66481W        W31466  25.977  27.943  11.035
66482W        W31467  33.479  15.078   4.641
66483W        W31468  23.096  33.209   3.620
66484W        W31469  34.580  26.823  14.884
66485W        W31470  13.870  22.150  10.586
66486W        W31471  20.461   3.978  10.603
66487W        W31472  44.819  35.375   3.873
66488W        W31473  26.618  35.537   3.325
66489W        W31474   0.017  28.447  10.761
66490W        W31475  34.045   3.493  13.113
66491W        W31476  27.502   0.361  12.435
66492W        W31477  33.401   7.005  11.337
66493W        W31478  27.506   7.474   2.779
66494W        W31479  33.537  37.057   4.872
66495W        W31480  41.259  34.052  12.025
66496W        W31481  30.959  44.854   0.916
66497W        W31482  14.982  41.457  14.074
66498W        W31483  37.551  13.547   1.223
66499W        W31484  38.348   9.644   2.183
66500W        W31485  13.480  24.013  14.893
66501W        W31486  22.553  30.441  12.866
66502W        W31487  32.136  30.891   0.520
66503W        W31488   9.404  40.827  10.974
66504W        W31489  38.274  33.542  10.390
66505W        W31490   5.316  12.387   3.275
66506W        W31491  12.739   7.079   1.733
66507W        W31492  25.703  34.152   3.314
66508W        W31493  15.800   9.388  13.915
66509W        W31494  38.981  33.485   1.384
66510W        W31495   6.274   9.621  11.678
66511W        W31496   4.781  10.345  14.332
66512W        W31497  25.104  18.978   4.447
66513W        W31498  33.543  30.898  10.545
66514W        W31499  28.663  32.231   1.889
66515W        W31500  21.198  36.042   3.803
66516W        W31501  18.102   1.941   2.801
66517W        W31502  37.816   7.339   4.676
66518W        W31503  39.119   4.161  10.986
66519W        W31504  18.522  26.046  13.560
66520W        W31505   9.427   9.130  13.046
66521W        W31506  37.882  40.086   3.820
66522W        W31507  35.625   5.758   0.838
66523W        W31508   9.339  29.077  14.833
66524W        W31509   4.424   3.412  11.542
66525W        W31510  40.106  33.065   5.108
66526W        W31511  27.894  14.048   2.711
66527W        W31512   5.373  20.784   3.616
66528W        W31513  21.624   3.811   4.534
66529W        W31514  13.077  18.521  12.993
66530W        W31515  33.706  14.139   0.480
66531W        W31516  12.228   8.448   4.466
66532W        W31517  44.740  17.339   2.372
66533W        W31518  25.212  35.433   4.738
66534W        W31519  25.374  26.458   2.716
66535W        W31520  25.594  34.063   1.903
66536W        W31521  31.535  28.217  13.884
66537W        W31522  42.745  38.921  11.914
66538W        W31523  29.015  24.997  14.807
66539W        W31524  30.921  28.804  12.600
66540W        W31525  30.046  18.942  12.761
66541W        W31526   7.840  25.626   4.138
66542W        W31527   1.465  22.054   0.276
66543W        W31528  43.012  16.784   1.925
66544W        W31529   6.279  35.117  14.952
66545W        W31530  25.260  23.572   4.562
66546W        W31531  20.540  11.817  10.530
66547W        W31532  16.043  28.105  11.287
66548W        W31533  28.417   8.350  14.341
66549W        W31534   2.438   7.764   2.402
66550W        W31535  36.113  15.181   4.591
66551W        W31536   8.031   9.287   2.606
66552W        W31537  38.811  34.915  12.502
66553W        W31538  42.881  22.432   3.769
66554W        W31539  34.457  16.758   1.229
66555W        W31540  27.637  25.664  14.298
66556W        W31541   1.365  36.319  13.347
66557W        W31542  31.592   7.893  13.990
66558W        W31543  33.491   0.589   4.562
66559W        W31544   5.273   9.000   3.159
66560W        W31545  42.165  24.356   4.064
66561W        W31546   4.362  32.269   1.270
66562W        W31547   2.665   4.631   2.301
66563W        W31548  41.960   1.184  14.556
66564W        W31549  41.490  12.401   0.397
66565W        W31550   7.720   5.911   3.664
66566W        W31551  18.623   6.469  14.795
66567W        W31552   3.819   6.341  10.666
66568W        W31553   2.985   0.848  10.786
66569W        W31554   9.912  43.923   1.882
66570W        W31555  17.347  15.360  11.899
66571W        W31556   7.183  37.402   4.520
66572W        W31557   6.663  13.097   2.700
66573W        W31558  30.923  44.729   3.790
66574W        W31559  21.692  14.241  12.042
66575W        W31560   9.906  11.431   2.813
66576W        W31561  44.755  14.327  14.495
66577W        W31562  12.384  44.711   0.520
66578W        W31563  35.128  35.430  14.296
66579W        W31564  15.551  42.453  11.598
66580W        W31565  41.531  41.310  12.513
66581W        W31566  33.122  40.305  11.521
66582W        W31567   7.244  12.896  12.392
66583W        W31568  10.196  31.207  14.997
66584W        W31569  39.012  12.740   2.835
66585W        W31570  36.901  19.138   3.768
66586W        W31571   1.957  21.675  11.889
66587W        W31572  27.982  21.547  12.505
66588W        W31573  24.020  41.258   3.335
66589W        W31574   0.604   9.920  13.902
66590W        W31575   8.356   2.589   4.153
66591W        W31576  24.256   6.432   2.339
66592W        W31577  42.778  15.647  11.700
66593W        W31578  42.436  29.512   4.692
66594W        W31579  29.981   3.362  10.392
66595W        W31580  35.560  10.937   0.215
66596W        W31581  43.283  14.384   4.615
66597W        W31582  27.924   9.675  12.965
66598W        W31583  33.092   7.855   1.851
66599W        W31584  31.644  16.347  12.275
66600W        W31585  31.912  22.130   3.596
66601W        W31586  44.801  39.088  11.142
66602W        W31587  24.037  30.264  10.910
66603W        W31588  28.421  12.358  10.320
66604W        W31589  30.586   3.084  10.093
66605W        W31590   7.791   2.056  14.490
66606W        W31591  12.210  33.104   0.363
66607W        W31592   9.937  19.155  14.489
66608W        W31593  20.666   5.917  14.067
66609W        W31594  20.643  18.757  12.473
66610W        W31595   5.395  34.953  10.845
66611W        W31596  42.703   2.825  12.588
66612W        W31597  20.638  43.342  11.637
66613W        W31598  40.024   4.780   2.289
66614W        W31599   4.436   7.039   1.931
66615W        W31600  12.283  11.716  12.083
66616W        W31601   9.650  17.528   2.194
66617W        W31602   0.923   2.966  14.947
66618W        W31603  15.180   9.402   3.562
66619W        W31604  15.055   5.372  13.419
66620W        W31605  27.499  26.111  11.541
66621W        W31606  24.650  23.649  13.442
66622W        W31607  11.542  17.422  12.376
66623W        W31608  22.227   8.769  13.552
66624W        W31609  13.109  37.761   1.700
66625W        W31610  19.327   7.858   0.741
66626W        W31611  26.562  38.102  12.862
66627W        W31612  42.807  32.679  11.160
66628W        W31613  32.957  44.968   1.019
66629W        W31614   4.909  35.997  14.693
66630W        W31615   2.622  23.995  10.439
66631W        W31616  42.769  12.065   0.206
66632W        W31617  18.144  21.369   4.097
66633W        W31618  14.581  41.388   1.270
66634W        W31619  22.696  12.838   4.571
66635W        W31620  22.166  11.600  11.594
66636W        W31621  28.046  39.529  12.079
66637W        W31622  24.222   6.249  11.923
66638W        W31623  37.535  35.893   0.472
66639W        W31624  16.655  36.480  12.203
66640W        W31625  26.264  39.281   2.319
66641W        W31626   1.905  19.245   3.734
66642W        W31627  41.312   5.761  14.821
66643W        W31628  13.837  22.918  12.350
66644W        W31629  17.721  28.101   2.295
66645W        W31630  28.173  37.108  13.880
66646W        W31631  41.457  44.656  11.623
66647W        W31632  32.516   7.122   1.356
66648W        W31633  11.711  34.873  11.367
66649W        W31634   1.384  41.772  12.630
66650W        W31635   6.684  14.824  12.158
66651W        W31636  14.521  28.179   3.568
66652W        W31637  34.631  38.047  11.129
66653W        W31638   2.904  44.037   3.624
66654W        W31639  33.623  40.342  13.008
66655W        W31640  42.002  14.032   0.956
66656W        W31641   3.355  15.067  13.537
66657W        W31642  25.474  36.152   1.815
66658W        W31643  21.467  22.498  12.558
66659W        W31644  28.705  37.434  14.502
66660W        W31645   9.854  43.613  14.319
66661W        W31646  29.974  21.442   4.280
66662W        W31647  21.743   1.955   3.706
66663W        W31648  18.647  12.610  11.601
66664W        W31649  44.964  22.718   0.451
66665W        W31650  20.478   4.364   0.411
66666W        W31651  22.180  17.002  13.710
66667W        W31652   9.324  19.303  14.228
66668W        W31653   7.611  21.146  10.874
66669W        W31654  16.275  36.097   3.248
66670W        W31655  12.368   4.417   1.333
66671W        W31656  10.759  19.696  12.498
66672W        W31657   1.814  30.697   1.317
66673W        W31658  19.710  24.210   4.185
66674W        W31659  42.470  37.912  10.776
66675W        W31660  19.848   5.377   0.972
66676W        W31661  15.442  11.493  13.301
66677W        W31662   3.813  37.313  13.488
66678W        W31663  15.223  32.267   4.066
66679W        W31664  25.117  16.040  11.219
66680W        W31665  41.466   3.353  13.940
66681W        W31666  11.570  24.010  12.501
66682W        W31667   4.327  29.542   4.556
66683W        W31668  25.552   7.348  10.633
66684W        W31669   2.329   7.694   3.300
66685W        W31670  31.712  17.554   1.657
66686W        W31671  23.789  18.712  11.599
66687W        W31672  41.988  39.520   4.777
66688W        W31673   9.643  31.543   2.463
66689W        W31674   9.745  44.978   4.696
66690W        W31675  23.300  25.265   0.211
66691W        W31676  29.515   1.310  12.516
66692W        W31677  39.783  11.762  14.234
66693W        W31678  26.974  32.877   3.903
66694W        W31679  30.909  34.738  12.871
66695W        W31680  16.031   5.146   1.831
66696W        W31681   3.382  23.257   1.850
66697W        W31682  39.348  41.284  10.555
66698W        W31683  36.874   6.195   0.704
66699W        W31684  44.485  43.955  14.936
66700W        W31685   4.684  26.928  12.451
66701W        W31686  14.225  32.419  13.112
66702W        W31687  35.402  29.844  11.678
66703W        W31688  22.082   1.820  14.797
66704W        W31689  31.063  10.315   4.703
66705W        W31690   3.649   2.023   4.111
66706W        W31691  42.509   9.245   3.446
66707W        W31692  31.565   3.335   0.390
66708W        W31693   8.570  20.652  13.525
66709W        W31694  40.899  22.139   2.346
66710W        W31695   8.962  34.310   1.689
66711W        W31696  25.558  41.407   2.692
66712W        W31697  22.582   3.210   4.167
66713W        W31698   5.768   7.393  11.662
66714W        W31699  23.675   0.722   0.499
66715W        W31700  23.072  33.217  10.555
66716W        W31701  38.436  31.086  12.686
66717W        W31702   2.638  41.010  14.814
66718W        W31703  28.057  20.026  11.107
66719W        W31704  28.686  27.682  14.962
66720W        W31705  43.305  10.623  14.519
66721W        W31706  37.869  29.845  12.955
66722W        W31707  12.871   7.282   3.774
66723W        W31708  31.620   4.551  14.063
66724W        W31709   5.608  17.634   1.709
66725W        W31710  35.412   5.535   3.237
66726W        W31711  26.077  17.713  11.044
66727W        W31712   5.821  37.439  12.364
66728W        W31713  28.260  28.594   0.285
66729W        W31714  27.918  17.522  12.821
66730W        W31715  38.050   5.330   4.947
66731W        W31716  29.683  38.818  13.624
66732W        W31717  14.207  23.464  11.579
66733W        W31718  23.208  34.182  14.321
66734W        W31719   8.169  14.660   3.054
66735W        W31720  22.497   3.423   0.239
66736W        W31721  37.435  34.891  12.681
66737W        W31722  25.436  29.078  13.595
66738W        W31723   2.948   2.273   4.977
66739W        W31724  38.609  28.344   1.405
66740W        W31725  17.468  30.080   1.034
66741W        W31726  38.372  38.110  10.695
66742W        W31727   2.785  38.403   2.913
66743W        W31728   6.872  14.871   1.806
66744W        W31729   3.155  22.664   3.789
66745W        W31730  40.669  39.661  11.589
66746W        W31731  10.245   2.133   9.819
66747W        W31732   5.886  12.375  14.514
66748W        W31733  14.373  20.166   3.011
66749W        W31734  43.865  20.463  14.381
66750W        W31735  15.632  29.156   0.355
66751W        W31736   7.157   2.699  14.967
66752W        W31737   0.437  34.599  11.517
66753W        W31738  35.488   6.952   4.469
66754W        W31739  16.555  11.248  14.378
66755W        W31740  37.774  28.931  10.257
66756W        W31741   6.657   7.268   2.243
66757W        W31742  30.908  40.792  13.571
66758W        W31743  40.553  29.573   0.768
66759W        W31744  25.240  26.609  10.293
66760W        W31745   5.793  28.177  14.731
66761W        W31746  20.572  19.106   1.567
66762W        W31747  44.775  13.851   2.265
66763W        W31748  27.917  33.122   3.764
66764W        W31749  22.650  12.199  13.597
66765W        W31750  26.531  10.430  13.402
66766W        W31751   0.784   4.237   2.184
66767W        W31752  19.295  37.983  12.075
66768W        W31753  13.247  40.725  13.602
66769W        W31754   7.579   8.924   2.826
66770W        W31755  35.771  34.415   0.991
66771W        W31756   3.230  29.182   3.080
66772W        W31757  26.068  21.104  13.785
66773W        W31758   6.159  13.746  12.627
66774W        W31759  32.305  16.485  13.376
66775W        W31760  16.680  10.711   3.542
66776W        W31761  28.242  17.770  12.408
66777W        W31762  34.948  40.895  14.374
66778W        W31763  30.643  17.592   3.097
66779W        W31764  32.855   6.371   5.233
66780W        W31765  21.560  44.774  11.143
66781W        W31766  43.805  24.001   4.309
66782W        W31767  29.134   0.530   0.382
66783W        W31768  34.060  11.425   2.807
66784W        W31769  14.443  30.912  12.561
66785W        W31770  21.810  30.196  10.788
66786W        W31771  27.217  10.212   0.782
66787W        W31772   8.733   3.328   3.335
66788W        W31773  42.274  11.540  12.981
66789W        W31774  37.838  31.882   2.285
66790W        W31775   6.971  40.967  11.538
66791W        W31776  29.053  19.975  11.669
66792W        W31777  18.652  17.794  13.392
66793W        W31778   5.640  28.598  11.060
66794W        W31779   4.734   8.798  14.175
66795W        W31780  26.301   6.031   5.034
66796W        W31781  17.671  29.255   4.450
66797W        W31782  12.199  10.045  14.352
66798W        W31783  43.928  39.420   3.216
66799W        W31784  14.788  27.547   0.438
66800W        W31785  41.687  12.798  11.864
66801W        W31786   0.277   8.623  11.107
66802W        W31787   8.435  16.279  10.553
66803W        W31788  18.767  25.594  14.539
66804W        W31789  24.129  35.656   4.259
66805W        W31790  37.244  27.673   0.269
66806W        W31791  41.959   6.298   0.310
66807W        W31792  21.628  26.934   3.562
66808W        W31793  35.628   0.640  11.923
66809W        W31794  12.356  35.327   2.307
66810W        W31795  37.086  16.255  11.922
66811W        W31796  39.006  39.827   2.840
66812W        W31797  23.989  31.894  13.184
66813W        W31798  34.927  18.686   4.104
66814W        W31799  21.882  18.550  11.648
66815W        W31800  42.821  15.231   2.603
66816W        W31801  26.927  22.824  12.098
66817W        W31802  18.330   9.859   0.802
66818W        W31803  34.107  19.177  14.938
66819W        W31804   9.790  41.951   0.367
66820W        W31805  10.553   3.817   0.443
66821W        W31806  16.822   1.274   0.035
66822W        W31807  22.649  17.121  14.455
66823W        W31808   1.859   3.423   2.891
66824W        W31809  20.595   9.300   1.793
66825W        W31810  38.772  17.869   4.849
66826W        W31811  10.852  10.754  13.300
66827W        W31812  34.404  24.816  12.412
66828W        W31813   0.354   0.306  11.682
66829W        W31814  40.876   1.493   1.968
66830W        W31815  20.347  42.011   1.655
66831W        W31816  39.549  37.343   4.063
66832W        W31817  22.588  36.889   2.539
66833W        W31818  32.453   6.818  14.236
66834W        W31819  34.626  16.639  13.592
66835W        W31820  24.974  34.336  12.819
66836W        W31821  28.856  35.945  12.348
66837W        W31822  14.559  25.317   1.564
66838W        W31823   8.459  27.478   4.385
66839W        W31824  44.508  32.675   1.650
66840W        W31825   3.798  39.572   4.151
66841W        W31826  37.986  22.526   0.323
66842W        W31827  38.725  22.969   0.396
66843W        W31828  22.760   7.141  13.343
66844W        W31829  25.076  19.882   3.193
66845W        W31830  12.628  10.655   0.589
66846W        W31831  19.604   4.709  14.741
66847W        W31832  19.733   2.886  13.491
66848W        W31833  27.624   6.588  12.011
66849W        W31834  37.836  26.675  14.965
66850W        W31835  25.850  38.853  14.380
66851W        W31836  27.039  39.277  14.502
66852W        W31837  43.118  15.490  12.065
66853W        W31838  19.532  39.035  14.890
66854W        W31839  42.370  20.205   1.809
66855W        W31840  31.181  24.226   4.579
66856W        W31841  26.003  28.868   2.298
66857W        W31842  35.467  23.263  12.744
66858W        W31843  39.905  43.304   3.068
66859W        W31844   4.854  34.584   4.803
66860W        W31845  20.753  34.393  11.919
66861W        W31846   6.177  22.369  11.174
66862W        W31847  10.100  30.650   5.222
66863W        W31848  44.596  44.034   3.034
66864W        W31849  29.043   3.685   4.640
66865W        W31850  16.747   3.336   4.130
66866W        W31851  32.576  43.999   3.057
66867W        W31852  38.487  16.333  14.011
66868W        W31853  29.159   2.947   2.232
66869W        W31854  26.796  38.873  10.293
66870W        W31855  29.264   6.267  11.064
66871W        W31856  39.916  13.101  14.775
66872W        W31857  20.085   5.856   0.294
66873W        W31858  15.059   3.340  11.993
66874W        W31859   3.665  16.061  14.326
66875W        W31860  36.751  17.792  14.752
66876W        W31861   8.518  25.065  12.967
66877W        W31862  42.324  38.130  11.819
66878W        W31863  36.071  41.237  14.801
66879W        W31864  14.631  13.722   2.819
66880W        W31865  44.968  42.608  11.208
66881W        W31866  26.942  15.332  13.075
66882W        W31867  43.573  43.753   0.300
66883W        W31868  23.750  10.605  13.364
66884W        W31869   3.186  43.165   2.279
66885W        W31870   7.939  17.713  11.679
66886W        W31871  18.270  44.355   2.824
66887W        W31872   1.493  12.318   0.903
66888W        W31873  29.207   6.593  12.637
66889W        W31874  40.686  32.111  10.821
66890W        W31875  20.976  28.746  11.631
66891W        W31876  21.645  37.391   1.262
66892W        W31877   2.419  42.925  10.743
66893W        W31878  32.385   8.247   3.169
66894W        W31879  10.746  21.012   1.422
66895W        W31880  16.254  26.164   3.246
66896W        W31881  33.042  10.628   4.187
66897W        W31882  23.178  35.107   2.588
66898W        W31883  35.832   3.474   0.768
66899W        W31884   8.205  34.035   1.184
66900W        W31885  32.215  37.548   1.343
66901W        W31886  40.672  21.757   4.127
66902W        W31887  22.754  12.693  13.448
66903W        W31888   0.669  19.884  14.445
66904W        W31889  14.879   6.868  14.308
66905W        W31890  15.825  37.862  12.068
66906W        W31891  18.983  32.476  13.400
66907W        W31892   4.184  20.749  11.154
66908W        W31893   8.171  34.096   1.694
66909W        W31894  12.938   0.246   1.453
66910W        W31895  26.699  25.001   0.339
66911W        W31896  40.929  36.016  12.675
66912W        W31897  22.599  40.324   4.788
66913W        W31898  21.015  17.102   0.055
66914W        W31899  35.372  28.708  10.820
66915W        W31900  14.631  36.697  11.644
66916W        W31901  22.138  27.055   1.260
66917W        W31902  44.932  20.051  10.707
66918W        W31903  29.778   4.557   0.877
66919W        W31904  26.613   7.297  11.436
66920W        W31905  21.232  22.158  13.443
66921W        W31906  42.892  28.656   1.971
66922W        W31907  19.635  22.705   2.726
66923W        W31908  36.860  38.323  13.963
66924W        W31909   8.351   1.734   4.024
66925W        W31910  42.960  20.113  12.468
66926W        W31911  40.578  23.688   4.993
66927W        W31912  22.425  18.675   0.772
66928W        W31913  16.940   3.902  12.430
66929W        W31914  39.387   0.262   3.697
66930W        W31915  32.698  37.543  14.958
66931W        W31916  10.367  30.121  11.127
66932W        W31917  27.988  35.895  11.169
66933W        W31918  39.471  15.690   4.461
66934W        W31919  25.510   4.386   2.771
66935W        W31920  10.854  32.679  11.490
66936W        W31921  33.459  32.590  11.882
66937W        W31922  42.857  20.053   1.645
66938W        W31923  33.962  39.294   4.458
66939W        W31924  44.725  41.023   3.191
66940W        W31925  17.839  14.423  13.397
66941W        W31926  13.223  15.356  12.701
66942W        W31927  24.301  38.590   1.760
66943W        W31928  37.018  11.394   2.332
66944W        W31929   0.431  14.122   4.397
66945W        W31930  17.569  30.896   0.473
66946W        W31931  10.143  33.815  12.577
66947W        W31932  26.715   7.528  11.910
66948W        W31933  15.085  25.098   5.516
66949W        W31934   5.246   4.047  11.569
66950W        W31935  20.384   7.873  13.499
66951W        W31936  37.556  33.426  12.371
66952W        W31937  18.450  30.440   3.186
66953W        W31938  31.802  17.004  13.120
66954W        W31939  19.447  27.772  12.499
66955W        W31940   1.064   2.875  11.496
66956W        W31941   8.898  15.170   4.871
66957W        W31942   2.586  39.057   3.322
66958W        W31943  25.522  40.164  14.440
66959W        W31944  39.897  23.403  10.277
66960W        W31945  23.381   8.150  13.901
66961W        W31946  23.750   9.042   2.229
66962W        W31947   6.942  19.173  12.892
66963W        W31948  40.429  27.021   1.333
66964W        W31949  19.617  31.621  14.534
66965W        W31950   1.826  11.896   1.923
66966W        W31951  37.347  14.632  13.027
66967W        W31952  25.490  19.841  11.193
66968W        W31953  35.559  24.928  14.345
66969W        W31954  23.734  30.672  12.035
66970W        W31955   1.402  35.580   1.834
66971W        W31956  41.621  21.714   1.510
66972W        W31957  43.725   9.779  14.507
66973W        W31958  23.983  36.494  10.467
66974W        W31959   9.867   4.894   2.247
66975W        W31960  30.032  10.119  14.952
66976W        W31961  30.448  37.822   1.809
66977W        W31962   7.788  10.719   1.625
66978W        W31963   4.922  38.998  13.539
66979W        W31964   9.103   4.402  10.315
66980W        W31965  24.943  19.615   0.490
66981W        W31966  12.640  25.460   0.319
66982W        W31967   0.873  18.235  14.878
66983W        W31968  16.072  41.490   3.192
66984W        W31969  15.796   9.711   3.346
66985W        W31970  19.365   1.846   4.384
66986W        W31971  10.758  36.793  13.021
66987W        W31972  34.951   2.253   5.371
66988W        W31973   4.798  33.242   2.399
66989W        W31974  36.881  29.168   0.287
66990W        W31975  39.556  31.371  14.841
66991W        W31976  20.977  37.110  12.242
66992W        W31977   1.539  33.904  10.866
66993W        W31978  39.975  18.088  13.374
66994W        W31979  17.145   1.869  11.412
66995W        W31980  13.256  12.715  12.544
66996W        W31981  33.579   8.695   2.129
66997W        W31982  41.828  12.081   3.541
66998W        W31983  42.735   4.451   1.009
66999W        W31984  11.881   1.190  13.960
67000W        W31985  24.208  34.048   2.325
67001W        W31986  15.262  34.820  14.466
67002W        W31987   7.338  26.583  10.697
67003W        W31988  38.070  36.909  12.554
67004W        W31989  38.127  27.801  12.509
67005W        W31990  34.337   7.435  13.901
67006W        W31991  39.217   6.224  13.766
67007W        W31992  34.884  12.334   2.246
67008W        W31993  22.783  20.243  11.481
67009W        W31994  43.655  40.345  12.859
67010W        W31995  37.483  27.697  13.056
67011W        W31996  18.562   0.524   1.018
67012W        W31997  43.409   6.342   3.281
67013W        W31998  25.636   4.390  14.429
67014W        W31999  12.643   8.253   4.787
67015W        W32000   2.160   8.164   4.120
67016W        W32001  14.279  27.508   3.159
67017W        W32002   4.903  30.389   0.755
67018W        W32003  16.171  32.066   0.346
67019W        W32004  16.192  43.356   3.437
67020W        W32005  12.378   1.356   3.875
67021W        W32006   5.490  18.576  10.023
67022W        W32007  23.667   1.048  11.733
67023W        W32008  28.953  19.699  14.437
67024W        W32009  21.212  31.981  14.928
67025W        W32010  29.461  37.652   3.126
67026W        W32011  10.911  38.358   2.098
67027W        W32012  18.881   8.723   3.622
67028W        W32013  33.227  13.785  11.061
67029W        W32014  40.155  44.416   4.608
67030W        W32015  42.267  14.339  14.611
67031W        W32016  37.863  11.951  12.524
67032W        W32017   8.778  37.640   2.392
67033W        W32018  25.414   8.661  13.857
67034W        W32019  39.041  17.482   3.382
67035W        W32020  12.276   6.189  12.474
67036W        W32021  12.432   1.377   0.139
67037W        W32022   0.042  23.550  12.590
67038W        W32023   1.770  38.853  12.463
67039W        W32024  10.287  36.428  10.297
67040W        W32025   0.420  34.035   0.447
67041W        W32026   0.639  37.561   5.099
67042W        W32027  18.506  43.264  13.493
67043W        W32028   7.686  18.511  13.882
67044W        W32029  40.056  28.681  12.062
67045W        W32030   5.320   8.841   2.165
67046W        W32031   4.888  22.167   2.657
67047W        W32032  23.443  28.952  13.860
67048W        W32033  34.124  35.129  12.974
67049W        W32034  12.850  32.909   2.881
67050W        W32035  44.993  39.624  11.661
67051W        W32036   5.763   2.683   1.754
67052W        W32037   5.454   1.094   3.950
67053W        W32038  44.876  30.576  13.155
67054W        W32039  20.555  28.618  13.815
67055W        W32040  35.073  33.412  14.478
67056W        W32041  19.135  43.554  14.259
67057W        W32042  35.452  17.940  12.856
67058W        W32043  35.138  25.230  14.360
67059W        W32044   2.814   4.188  10.894
67060W        W32045  40.342  39.556  11.984
67061W        W32046  22.184   7.701   3.678
67062W        W32047  31.618  24.153  14.785
67063W        W32048  35.747  12.140  14.531
67064W        W32049  22.087  25.180  13.717
67065W        W32050   4.697  34.766  11.949
67066W        W32051   4.196   5.326   1.366
67067W        W32052   5.779  16.036  11.464
67068W        W32053   1.689  28.044  12.471
67069W        W32054  19.282   4.038   0.854
67070W        W32055  25.302  20.704   4.659
67071W        W32056  19.153   5.967  13.560
67072W        W32057  41.313   4.845  12.109
67073W        W32058  34.353  25.007   4.623
67074W        W32059  25.656  32.600   3.137
67075W        W32060  43.970  10.676   0.795
67076W        W32061  20.760  15.662  11.169
67077W        W32062  22.685  44.343   1.744
67078W        W32063  33.082  40.250   2.943
67079W        W32064  17.968  18.539   3.190
67080W        W32065   7.253   3.171   3.659
67081W        W32066  20.807   7.194   1.929
67082W        W32067  31.719  38.003  11.144
67083W        W32068  20.391  41.722  12.644
67084W        W32069  24.849  44.002   2.400
67085W        W32070  29.576  12.370  11.172
67086W        W32071  21.901  31.857  14.332
67087W        W32072  30.755   8.213  11.645
67088W        W32073   7.810  23.562   0.943
67089W        W32074  32.194  15.121  12.907
67090W        W32075  10.570  43.211   0.553
67091W        W32076   1.881  26.912  12.103
67092W        W32077   1.003  16.265   1.421
67093W        W32078  36.451  36.913  11.474
67094W        W32079  34.314  35.493   4.907
67095W        W32080   9.854  32.037   3.770
67096W        W32081   7.703  25.272  10.822
67097W        W32082  27.074   7.748   1.919
67098W        W32083  43.091  14.646   4.207
67099W        W32084   2.286   4.859   5.470
67100W        W32085  26.602  37.901  11.894
67101W        W32086  38.627   6.700   3.348
67102W        W32087  35.361  17.998  11.998
67103W        W32088  19.294  14.796  13.126
67104W        W32089  23.584  37.985  12.505
67105W        W32090  31.050  20.211   0.505
67106W        W32091  36.026   4.008  12.467
67107W        W32092  36.158  41.366   1.320
67108W        W32093   6.069   9.787  12.901
67109W        W32094  23.432   9.267   1.733
67110W        W32095   8.908  27.561  14.802
67111W        W32096  41.481  10.398  12.832
67112W        W32097  32.171  37.098  11.044
67113W        W32098   3.937  22.623   1.491
67114W        W32099  29.184  43.922   4.179
67115W        W32100   8.088  18.112   4.594
67116W        W32101  28.650  10.762   3.277
67117W        W32102  24.170  16.157   3.637
67118W        W32103  23.116  41.862   3.147
67119W        W32104  23.086   6.574  11.669
67120W        W32105  38.280   5.978  14.791
67121W        W32106  39.463  11.830   4.107
67122W        W32107  23.184  25.282   4.148
67123W        W32108  21.078   6.822   1.427
67124W        W32109  40.552  13.573   2.282
67125W        W32110  42.632  18.588   4.971
67126W        W32111  40.760  25.101  12.544
67127W        W32112  21.110   3.500  10.916
67128W        W32113  23.494   0.843  14.827
67129W        W32114  43.543   7.562  11.545
67130W        W32115  17.314  43.456   1.173
67131W        W32116  35.259  28.092  13.033
67132W        W32117  10.348   6.629  10.673
67133W        W32118  12.882  20.544   1.032
67134W        W32119  26.644   9.443  10.906
67135W        W32120  26.072  43.837   3.103
67136W        W32121  33.398  16.128   3.783
67137W        W32122  18.066  34.327  13.019
67138W        W32123  22.776   7.460   4.404
67139W        W32124  33.095  23.270  13.355
67140W        W32125  16.064  20.704   0.380
67141W        W32126  19.556  25.563  13.121
67142W        W32127  26.983   6.133  12.205
67143W        W32128  16.589  36.702  12.661
67144W        W32129  18.332  41.382  10.727
67145W        W32130  16.632  43.788   2.284
67146W        W32131  41.564   0.329   2.465
67147W        W32132  11.315   6.636  11.503
67148W        W32133  25.042  17.009  11.010
67149W        W32134  10.461  17.497   2.995
67150W        W32135   9.511  37.603   0.283
67151W        W32136  32.112  31.950   1.739
67152W        W32137  19.972  33.127  12.381
67153W        W32138  33.476  42.835   0.246
67154W        W32139  35.645  10.391   0.451
67155W        W32140  38.227  42.941  13.491
67156W        W32141  18.244  24.025  13.321
67157W        W32142   4.963  10.048   2.599
67158W        W32143  41.328  25.697  11.965
67159W        W32144  38.012  14.683   0.824
67160W        W32145  32.861  30.472  10.890
67161W        W32146  12.580  19.148  11.392
67162W        W32147   4.644  40.616   1.291
67163W        W32148  34.442  15.770  11.931
67164W        W32149  44.846   7.199  10.527
67165W        W32150  42.839  22.607  11.440
67166W        W32151  37.629  29.793   3.172
67167W        W32152  11.693  16.884   1.871
67168W        W32153   8.014  15.341  11.670
67169W        W32154  14.560   6.141   5.460
67170W        W32155  28.362  36.703   2.159
67171W        W32156  43.745   1.124  12.990
67172W        W32157  44.631   2.774   0.580
67173W        W32158  10.125   2.199  13.838
67174W        W32159  21.586  16.882  12.476
67175W        W32160  21.593   8.628  11.034
67176W        W32161  43.321   0.561   0.107
67177W        W32162  43.302   4.372   2.823
67178W        W32163  15.301   8.479  12.030
67179W        W32164  22.550   0.406  14.790
67180W        W32165  11.246  25.396   1.304
67181W        W32166  24.703  44.285  14.879
67182W        W32167   7.748  38.805  10.627
67183W        W32168   8.875  35.054   4.606
67184W        W32169  22.017  24.094  14.829
67185W        W32170  22.228  18.314   1.041
67186W        W32171  26.104   0.337   4.387
67187W        W32172   1.753  38.054   2.328
67188W        W32173  19.138   0.335  13.854
67189W        W32174  40.294  18.497   4.549
67190W        W32175  13.241  23.050  11.738
67191W        W32176  32.276  33.745  14.450
67192W        W32177  44.827  24.968  11.032
67193W        W32178  36.166   5.641   4.995
67194W        W32179  18.148  22.220   2.340
67195W        W32180  33.598   5.140  12.356
67196W        W32181  19.171  13.712  13.593
67197W        W32182   4.155  39.806   4.728
67198W        W32183  35.376  25.147   4.532
67199W        W32184  36.575   2.271  12.327
67200W        W32185  44.732  28.574   0.650
67201W        W32186  25.157  17.635  13.712
67202W        W32187   0.724  40.102   1.277
67203W        W32188  28.053  18.580  11.127
67204W        W32189  33.940  33.668  12.130
67205W        W32190  21.563   6.312  13.764
67206W        W32191  30.044  13.651   4.085
67207W        W32192   9.242  27.180  11.537
67208W        W32193  34.660   7.634  14.263
67209W        W32194  11.413  20.022  11.180
67210W        W32195  11.721  27.614   0.018
67211W        W32196  19.759  19.755  11.105
67212W        W32197  39.951   5.655  14.520
67213W        W32198  31.521  40.994   3.136
67214W        W32199   1.784  37.568   4.099
67215W        W32200  11.570  21.509  11.960
67216W        W32201  14.073  25.394   4.336
67217W        W32202   5.128   3.416   4.159
67218W        W32203  22.608  13.291  14.302
67219W        W32204  19.685  35.817  11.368
67220W        W32205  20.168  28.198  13.421
67221W        W32206  23.835  20.232   1.887
67222W        W32207  34.677   5.858  13.095
67223W        W32208  44.273   8.367   0.917
67224W        W32209  26.271  44.834  14.540
67225W        W32210  38.163  26.467  12.501
67226W        W32211   7.555  15.125   4.657
67227W        W32212  13.855  27.474  10.167
67228W        W32213  44.191  29.565  12.955
67229W        W32214  11.865  23.327  13.164
67230W        W32215  34.967   3.443  12.350
67231W        W32216  18.191  28.884   4.642
67232W        W32217   6.213  24.952  13.519
67233W        W32218  26.935   6.695   0.726
67234W        W32219  23.078  14.664   2.886
67235W        W32220  17.793  16.703   1.338
67236W        W32221  39.440   6.682  13.489
67237W        W32222  42.701  34.815  12.719
67238W        W32223  37.346  41.393   3.208
67239W        W32224  15.711  40.549   3.118
67240W        W32225  16.836  24.994   0.059
67241W        W32226  34.824  15.314   0.622
67242W        W32227  27.423  30.455  12.516
67243W        W32228  30.610  17.122   3.919
67244W        W32229   5.391   1.043  11.682
67245W        W32230  33.450   3.839   0.695
67246W        W32231   7.910  33.586   2.303
67247W        W32232  10.593  14.236  10.626
67248W        W32233  40.471  23.618   2.144
67249W        W32234  28.590  37.629  12.461
67250W        W32235  40.054  29.707  13.535
67251W        W32236  30.331  22.188  10.796
67252W        W32237  25.851  40.900   2.168
67253W        W32238  23.621  19.013   2.420
67254W        W32239  15.655   0.469   3.077
67255W        W32240  25.690  37.942  12.645
67256W        W32241  33.204  29.090   1.657
67257W        W32242  19.784  36.855   0.426
67258W        W32243  44.909   0.413  11.889
67259W        W32244  10.574  30.121  14.257
67260W        W32245  10.413  36.525   3.325
67261W        W32246  34.466  32.892  12.877
67262W        W32247  32.358   7.359  11.531
67263W        W32248  10.929  18.296   0.330
67264W        W32249  32.088  16.320   0.485
67265W        W32250  20.200  36.309  12.834
67266W        W32251  23.095  41.807  13.979
67267W        W32252   0.131  16.099  14.876
67268W        W32253  14.212  24.288  12.541
67269W        W32254   5.018  29.379   3.159
67270W        W32255   7.249  27.953   0.739
67271W        W32256   0.259  22.406  13.554
67272W        W32257   3.284  40.797   3.235
67273W        W32258  16.888  44.832  10.562
67274W        W32259  13.202   0.278  12.136
67275W        W32260  29.756  32.472  10.236
67276W        W32261  18.675  12.859  13.121
67277W        W32262  15.593  36.632   0.339
67278W        W32263  44.062  26.635   3.836
67279W        W32264  27.126   2.556  14.266
67280W        W32265   4.432  14.694  11.618
67281W        W32266  38.413  12.083  10.805
67282W        W32267  22.267  23.903   0.280
67283W        W32268   6.692  42.894   1.858
67284W        W32269  18.636  32.590   3.690
67285W        W32270  39.547   1.336   1.169
67286W        W32271  23.777  34.146  12.132
67287W        W32272  16.047  12.637   4.870
67288W        W32273  41.754  15.127  14.796
67289W        W32274  44.737  15.272  11.206
67290W        W32275  28.771   0.875   1.192
67291W        W32276  40.146  19.840   1.156
67292W        W32277  41.359  18.220  11.864
67293W        W32278  16.162  29.158   0.318
67294W        W32279  23.111   7.164   3.759
67295W        W32280  22.953   9.093  14.846
67296W        W32281  25.963   3.542  12.884
67297W        W32282   5.336  29.482   4.449
67298W        W32283  35.387   3.363   1.689
67299W        W32284  14.145  15.437  12.620
67300W        W32285  17.481  39.080  13.259
67301W        W32286  34.965  37.307   1.085
67302W        W32287   5.956  38.074   2.911
67303W        W32288   5.105  11.572  11.290
67304W        W32289   5.265  12.895  13.441
67305W        W32290  32.406  10.079   1.809
67306W        W32291  29.698  36.692   3.564
67307W        W32292   9.861  16.363  14.774
67308W        W32293  29.918  20.181  10.686
67309W        W32294  29.541  15.970   5.094
67310W        W32295   2.785  16.659  14.489
67311W        W32296   8.611   7.746   3.556
67312W        W32297  30.710  19.727   1.702
67313W        W32298  20.824   3.248   4.512
67314W        W32299  24.622  21.525   1.837
67315W        W32300  31.223  36.239  11.152
67316W        W32301  31.938   0.798   2.552
67317W        W32302   2.377   9.904   2.272
67318W        W32303  16.849  12.074  14.674
67319W        W32304  34.133  31.638   0.061
67320W        W32305  32.191   1.272  13.869
67321W        W32306  25.135  11.711  12.513
67322W        W32307  34.561  20.739   2.726
67323W        W32308  19.339   8.362   4.734
67324W        W32309  12.087  24.843  12.328
67325W        W32310   5.329  10.223  13.471
67326W        W32311  11.447  26.673   0.639
67327W        W32312  16.953  29.764   4.276
67328W        W32313   8.944  31.305   0.726
67329W        W32314  10.270   6.380   2.260
67330W        W32315  30.845  38.624   0.938
67331W        W32316   3.218   7.248  13.065
67332W        W32317   8.961  29.130  11.182
67333W        W32318  36.612  29.340  14.790
67334W        W32319  38.770  24.707   5.087
67335W        W32320  36.416  17.693   2.917
67336W        W32321  22.472  30.782   0.224
67337W        W32322  17.259  35.602  13.889
67338W        W32323  35.319   4.676  12.700
67339W        W32324  13.140  21.109  10.395
67340W        W32325  30.154   6.501  11.430
67341W        W32326  32.631  30.654   2.342
67342W        W32327   5.574  40.106  12.480
67343W        W32328  13.063  27.081  14.311
67344W        W32329  11.644  36.615  13.961
67345W        W32330  15.213  22.955   4.673
67346W        W32331  43.809  44.066  14.282
67347W        W32332  12.047   3.426   3.691
67348W        W32333   4.274  14.590  14.950
67349W        W32334  42.523  14.127   0.968
67350W        W32335  17.886  14.296  12.391
67351W        W32336   6.697  24.621  13.040
67352W        W32337   5.209  27.449  13.121
67353W        W32338   1.755  24.677  12.527
67354W        W32339   6.789  30.453   1.859
67355W        W32340  41.417  26.728   1.841
67356W        W32341   5.672  28.671  14.575
67357W        W32342  40.758  33.966   4.577
67358W        W32343   7.883   7.213   3.329
67359W        W32344  30.277   7.031   0.469
67360W        W32345  31.040  44.768  11.656
67361W        W32346   7.791  38.868  12.193
67362W        W32347   9.268   9.848  12.343
67363W        W32348  29.428  13.382  11.114
67364W        W32349  17.790  13.920   2.314
67365W        W32350  40.536  17.823  13.976
67366W        W32351  10.362  23.257  13.981
67367W        W32352  19.294  15.169   0.906
67368W        W32353   1.860  40.948  11.272
67369W        W32354  31.093  36.460  12.410
67370W        W32355   8.732  30.646   2.506
67371W        W32356   4.983   4.716  13.370
67372W        W32357  44.946   2.600   2.772
67373W        W32358  30.548   9.768  11.767
67374W        W32359  43.652   6.424  11.959
67375W        W32360   0.794  39.730  14.594
67376W        W32361   2.804   0.764  14.406
67377W        W32362  37.580  31.370   2.908
67378W        W32363  21.551  34.810  13.343
67379W        W32364  36.350   6.101   3.830
67380W        W32365  37.292  23.212  11.211
67381W        W32366  39.607  41.318   0.857
67382W        W32367  42.950  40.086  14.167
67383W        W32368  27.047  42.361   4.480
67384W        W32369  18.616   0.397  12.674
67385W        W32370  42.971  32.075   1.378
67386W        W32371  28.671   1.994   0.411
67387W        W32372  27.773  23.980  14.678
67388W        W32373  10.167  10.910   1.853
67389W        W32374  39.085  14.117  13.434
67390W        W32375  18.270   2.572  11.937
67391W        W32376  41.024  15.227   5.422
67392W        W32377  25.998   6.896  14.316
67393W        W32378  15.682   1.004  14.487
67394W        W32379  31.287  13.530   2.338
67395W        W32380  15.351  37.677   4.302
67396W        W32381  13.811  19.156   0.740
67397W        W32382  20.016   4.649  13.366
67398W        W32383  43.082   3.308   1.755
67399W        W32384  44.403  30.107   0.906
67400W        W32385  40.323  44.828   2.833
67401W        W32386  10.540  39.705   2.150
67402W        W32387  10.642   2.822   2.889
67403W        W32388  30.484  43.387   0.890
67404W        W32389  41.263  28.034  13.422
67405W        W32390  43.862  26.551   1.987
67406W        W32391  19.613  27.029   1.728
67407W        W32392  35.565  16.260   4.769
67408W        W32393  12.296  24.297  10.901
67409W        W32394  33.014  13.082  11.712
67410W        W32395   1.549  13.798  14.491
67411W        W32396  44.605  23.213   3.666
67412W        W32397  31.247  29.491   2.948
67413W        W32398  41.606  28.815  11.313
67414W        W32399  25.013  34.480   4.157
67415W        W32400  36.319  39.000   5.004
67416W        W32401  14.389  43.218   1.194
67417W        W32402  15.200  32.794   1.122
67418W        W32403   4.654  33.927  13.524
67419W        W32404  11.818  26.041   4.688
67420W        W32405  34.991  18.765  13.629
67421W        W32406  28.174   2.974   4.881
67422W        W32407  20.072   5.299  11.658
67423W        W32408  24.698  11.240  12.458
67424W        W32409  30.441  23.248  12.553
67425W        W32410   9.135  32.623   4.748
67426W        W32411  20.124  25.634   4.941
67427W        W32412   5.648  35.424  13.599
67428W        W32413  11.581  19.594   1.859
67429W        W32414   6.294  40.088  13.818
67430W        W32415  21.559  15.285  13.538
67431W        W32416   0.020   3.356  13.261
67432W        W32417  33.701  36.480   0.273
67433W        W32418  23.538   0.884   2.722
67434W        W32419  26.097  28.918  14.497
67435W        W32420  39.353  17.275   3.793
67436W        W32421  35.567  28.460  14.960
67437W        W32422  28.922  37.343   1.383
67438W        W32423  35.470  13.532  10.473
67439W        W32424  10.733  41.848  12.578
67440W        W32425  28.937  24.675  14.371
67441W        W32426   3.156  24.128  13.357
67442W        W32427  23.455  14.054  12.307
67443W        W32428  41.028   2.682   2.415
67444W        W32429  39.798  20.094   4.261
67445W        W32430  13.063  25.732   0.393
67446W        W32431   4.722  16.685   3.392
67447W        W32432  41.529  41.446   1.406
67448W        W32433  28.791   2.711  13.176
67449W        W32434  33.166   2.531  11.044
67450W        W32435  18.038  11.096  11.500
67451W        W32436  34.738   5.167  11.212
67452W        W32437  43.945  12.995   2.750
67453W        W32438   4.451  39.233   2.871
67454W        W32439  42.254  23.426  12.591
67455W        W32440  11.838   3.701   4.677
67456W        W32441  38.381  33.896  10.751
67457W        W32442  23.594  33.668  14.920
67458W        W32443  42.409  43.416   0.796
67459W        W32444  40.540  17.270   0.898
67460W        W32445  13.485   9.281  13.062
67461W        W32446   0.496  17.608  12.128
67462W        W32447  27.857   7.377  13.396
67463W        W32448  20.238  19.726  13.782
67464W        W32449  11.321  27.460  14.744
67465W        W32450  34.880   3.974  14.467
67466W        W32451  21.017   5.169   1.280
67467W        W32452  21.018  29.341  13.294
67468W        W32453   5.315  16.658  11.733
67469W        W32454  10.345  10.847  13.982
67470W        W32455   7.800  23.354   4.918
67471W        W32456  35.619   7.394   9.860
67472W        W32457  23.418  11.752   3.278
67473W        W32458  40.593  32.160   0.903
67474W        W32459   8.073  22.699  10.650
67475W        W32460  16.858  33.965  14.013
67476W        W32461  16.067   1.343  11.177
67477W        W32462  28.152   7.197   4.700
67478W        W32463  22.734  17.170   1.776
67479W        W32464  16.233  26.133  12.479
67480W        W32465  44.076   4.594  10.391
67481W        W32466   3.818   7.123   0.220
67482W        W32467  28.511  37.961   0.785
67483W        W32468  15.229  23.579  14.939
67484W        W32469  26.414   3.024   4.050
67485W        W32470  44.709  39.789   0.295
67486W        W32471  37.436  17.115   0.370
67487W        W32472  27.173  37.622  10.809
67488W        W32473  22.277  11.089  11.643
67489W        W32474  27.989  18.472  14.795
67490W        W32475  44.200  42.867   3.898
67491W        W32476  40.814  40.757  14.291
67492W        W32477  26.069  32.487   0.363
67493W        W32478  24.995   5.464   1.415
67494W        W32479  20.519  24.123   2.912
67495W        W32480  24.521   7.876  14.448
67496W        W32481  29.135  24.129   3.412
67497W        W32482  15.060  31.957   3.122
67498W        W32483   6.871  12.143   2.738
67499W        W32484  17.951  28.488  13.762
67500W        W32485  32.213  32.608  13.146
67501W        W32486  14.430  21.982   1.278
67502W        W32487  37.335  43.009   0.893
67503W        W32488  16.218  38.117   3.061
67504W        W32489  24.859  25.602  14.437
67505W        W32490  44.703  32.306  12.059
67506W        W32491  12.629  28.836   0.848
67507W        W32492  21.678  17.507  13.044
67508W        W32493  22.148  34.484   0.909
67509W        W32494  18.707  27.625   4.324
67510W        W32495   2.610  19.167  12.865
67511W        W32496  44.974  13.697   0.473
67512W        W32497  23.091  44.745   0.158
67513W        W32498  24.496  15.695   2.292
67514W        W32499  26.966   0.942   1.783
67515W        W32500   6.177   1.807   0.165
67516W        W32501   6.247  25.068   4.094
67517W        W32502  29.068  19.951  13.448
67518W        W32503   0.716   8.536  13.380
67519W        W32504  32.427  27.565  14.823
67520W        W32505   8.189  41.442   2.069
67521W        W32506   3.998  30.137   4.117
67522W        W32507  26.622   4.735   2.821
67523W        W32508  32.836   5.706  13.958
67524W        W32509  10.592  44.802   0.952
67525W        W32510  22.978  22.107  14.365
67526W        W32511  42.076  16.544   4.935
67527W        W32512  17.451   3.831  12.428
67528W        W32513  41.410  26.517   1.339
67529W        W32514   1.459   7.404   1.270
67530W        W32515  22.635  27.609   2.258
67531W        W32516  23.503  44.940  14.868
67532W        W32517  24.332   0.979   3.239
67533W        W32518  43.935  41.907   3.808
67534W        W32519   7.644  37.655   4.534
67535W        W32520  28.457   7.487  10.801
67536W        W32521  16.658  18.243   0.851
67537W        W32522  14.054  28.512  11.931
67538W        W32523  28.985   7.318  13.424
67539W        W32524  15.217  32.152  12.919
67540W        W32525   2.893  24.193  12.914
67541W        W32526   2.428  43.975   2.817
67542W        W32527  27.462  17.933  10.846
67543W        W32528   8.403  23.054   0.326
67544W        W32529  25.985   1.684  11.969
67545W        W32530  32.629  37.476   3.168
67546W        W32531  25.717  14.752   4.057
67547W        W32532  31.073  42.528  13.093
67548W        W32533  25.986  35.939  14.544
67549W        W32534  17.835  34.659  13.548
67550W        W32535  28.916   4.306   0.959
67551W        W32536  25.090  34.598  10.585
67552W        W32537  25.505  18.210   2.988
67553W        W32538   4.328   1.243   1.818
67554W        W32539   8.269  27.474  13.074
67555W        W32540  33.300  27.208  12.444
67556W        W32541  10.306  33.508   1.307
67557W        W32542  39.391   4.055   2.299
67558W        W32543  43.273  15.635  11.576
67559W        W32544  40.329  34.376  13.566
67560W        W32545   0.205  42.555   4.104
67561W        W32546  44.214  16.329   1.842
67562W        W32547  31.925  44.228  10.373
67563W        W32548  33.901   9.931  12.491
67564W        W32549   0.380  24.601  10.706
67565W        W32550  38.846   3.387   0.951
67566W        W32551  31.886  29.082   1.327
67567W        W32552   0.821   1.836   4.390
67568W        W32553  36.950   7.159  13.833
67569W        W32554  39.654  40.475   3.222
67570W        W32555  10.834  30.151  12.372
67571W        W32556  18.161  34.777  10.816
67572W        W32557  15.211  37.384   2.272
67573W        W32558  37.425  21.501   2.861
67574W        W32559  40.507  21.747  14.286
67575W        W32560  18.116  22.429  10.674
67576W        W32561  17.746   4.857  13.096
67577W        W32562  29.895  33.182   3.026
67578W        W32563  13.066  14.217   4.140
67579W        W32564  44.101   1.491   3.451
67580W        W32565  43.249  37.332  12.461
67581W        W32566  28.811  41.691  12.392
67582W        W32567   0.920  36.022  13.284
67583W        W32568  16.269   1.471   3.763
67584W        W32569  10.902  23.110  10.441
67585W        W32570  30.856  20.238  14.049
67586W        W32571  16.111   1.541  12.039
67587W        W32572  37.097  25.528   0.439
67588W        W32573  36.000  34.535   0.555
67589W        W32574  21.047  23.987   1.831
67590W        W32575  17.124  31.748   2.559
67591W        W32576  28.710  13.639   2.345
67592W        W32577   0.703  40.726  14.906
67593W        W32578  16.131  42.868  10.932
67594W        W32579   8.270  10.574   1.852
67595W        W32580  15.110  12.589   0.291
67596W        W32581   6.032  43.869   4.804
67597W        W32582  25.516  34.335  10.572
67598W        W32583   3.339  37.489   1.747
67599W        W32584   6.133  20.126  11.187
67600W        W32585   3.391  11.255   2.657
67601W        W32586   5.250  17.268   4.555
67602W        W32587   7.678  18.272  12.547
67603W        W32588  26.096  44.757   3.621
67604W        W32589  13.786  21.418  12.536
67605W        W32590   6.036   1.310  13.050
67606W        W32591   1.436   4.962  10.670
67607W        W32592  20.277   7.384  11.495
67608W        W32593  25.616  36.346  13.302
67609W        W32594  31.350  36.897  12.537
67610W        W32595  39.927  29.537   4.711
67611W        W32596  17.319  19.904  10.743
67612W        W32597  41.401  17.737  14.500
67613W        W32598  27.452  15.618  11.105
67614W        W32599  42.348  39.259   3.795
67615W        W32600   9.783   3.221   2.420
67616W        W32601  21.749  31.371  11.943
67617W        W32602  41.568  25.741  14.629
67618W        W32603  22.249  28.094   4.856
67619W        W32604  25.688   0.415  11.048
67620W        W32605   6.586   7.423  11.088
67621W        W32606  14.683  40.126  13.512
67622W        W32607  39.674   8.229   0.782
67623W        W32608  26.679  19.828  13.474
67624W        W32609  10.852  20.135  11.269
67625W        W32610  29.050  20.991  14.990
67626W        W32611  13.565   3.301   2.827
67627W        W32612   3.456  30.356  11.483
67628W        W32613  10.253   3.729  10.952
67629W        W32614   3.707  23.108   1.369
67630W        W32615  39.907  16.602   1.768
67631W        W32616  26.671  29.843   1.277
67632W        W32617  28.241   2.966   2.540
67633W        W32618  11.240  28.008   2.620
67634W        W32619  44.396  16.795   0.654
67635W        W32620  16.561  20.628   2.574
67636W        W32621   6.274  17.302  12.485
67637W        W32622  22.758   1.396  11.042
67638W        W32623  38.272  17.199  13.986
67639W        W32624  22.173  30.227  11.173
67640W        W32625  34.936   1.270  13.746
67641W        W32626  35.177  21.972  12.873
67642W        W32627   4.458  27.491  13.695
67643W        W32628  20.482  14.857   1.353
67644W        W32629  37.246  35.732  14.450
67645W        W32630   8.396   2.882  13.611
67646W        W32631  32.925  10.646   0.756
67647W        W32632  17.910   0.567   3.296
67648W        W32633  24.271  12.222   2.165
67649W        W32634  19.211  24.655   4.124
67650W        W32635   3.339  21.974  12.009
67651W        W32636  27.171  18.316  12.805
67652W        W32637  42.974  39.730  12.435
67653W        W32638  19.143  33.748  12.595
67654W        W32639   5.799  37.120   2.645
67655W        W32640   8.875  41.025   4.060
67656W        W32641  42.434  22.011   5.125
67657W        W32642   8.137  38.805   2.750
67658W        W32643  24.723   9.814   4.930
67659W        W32644  23.576   9.384   4.595
67660W        W32645  19.491  24.676   0.265
67661W        W32646   7.267   1.708   2.138
67662W        W32647  17.084  17.092  12.227
67663W        W32648  21.087   4.882  13.447
67664W        W32649  33.579  18.491  13.940
67665W        W32650   5.316  11.326   1.820
67666W        W32651  11.527   9.643  13.552
67667W        W32652  35.718   9.226  12.009
67668W        W32653  43.542  36.883  12.443
67669W        W32654  35.932   0.511  14.983
67670W        W32655  18.777  32.648   2.297
67671W        W32656   4.724   1.450  14.534
67672W        W32657  30.157   5.102  14.515
67673W        W32658  24.642  42.351   4.316
67674W        W32659  24.014  35.414   1.307
67675W        W32660   6.632  33.345   3.140
67676W        W32661  27.986  41.092  12.552
67677W        W32662  44.320  15.640  13.603
67678W        W32663  36.639   3.181  13.806
67679W        W32664  22.694  17.700  11.853
67680W        W32665   9.861   8.177  12.472
67681W        W32666  27.176  27.125   0.519
67682W        W32667   5.547  37.452  14.399
67683W        W32668   5.031  31.422  14.879
67684W        W32669  17.820  42.324   0.434
67685W        W32670   0.908  18.149   0.876
67686W        W32671  14.878  29.504  14.368
67687W        W32672  21.157  33.107   3.637
67688W        W32673  17.092  25.916  13.412
67689W        W32674  38.819  15.285  13.909
67690W        W32675  40.611  39.925   4.015
67691W        W32676  17.229  12.639  14.035
67692W        W32677  44.167  24.583  14.853
67693W        W32678   1.513  15.141  14.032
67694W        W32679  23.092  33.375  13.332
67695W        W32680  19.467  29.710   4.068
67696W        W32681   1.167   4.651  14.329
67697W        W32682  39.577  31.068  13.899
67698W        W32683  16.684   3.410   2.242
67699W        W32684  36.918   3.456   2.834
67700W        W32685  36.498  26.874  14.449
67701W        W32686  17.272  27.588   1.700
67702W        W32687  33.964  22.219  11.916
67703W        W32688  11.942   0.743   3.552
67704W        W32689  30.522  27.523   1.351
67705W        W32690  28.151  31.594   1.251
67706W        W32691  40.264  24.091   1.950
67707W        W32692  36.226   4.859  13.793
67708W        W32693  25.492  12.107  11.494
67709W        W32694   9.206   6.449  13.332
67710W        W32695   9.292  39.947  11.495
67711W        W32696  31.251  13.809   3.261
67712W        W32697  10.367  15.592   0.246
67713W        W32698  13.558   5.844   0.746
67714W        W32699  20.537   0.425  10.508
67715W        W32700  37.404  21.752  11.957
67716W        W32701   6.424  44.122   1.199
67717W        W32702  38.106  13.648   3.349
67718W        W32703   6.901  35.561  12.665
67719W        W32704  14.012  26.930   1.751
67720W        W32705   3.838  42.443   4.124
67721W        W32706  16.814   6.372   9.613
67722W        W32707  15.139  12.136   3.809
67723W        W32708   9.161  12.092  14.854
67724W        W32709  37.745   2.041  10.267
67725W        W32710  12.140  27.985   2.349
67726W        W32711  14.158  14.623  11.474
67727W        W32712   2.327  31.154   3.559
67728W        W32713  30.299  27.613   0.852
67729W        W32714  21.996   4.737   4.218
67730W        W32715  28.787  15.763  12.469
67731W        W32716  15.286  38.547   0.429
67732W        W32717  35.521   0.226  14.834
67733W        W32718   3.576  11.671  11.198
67734W        W32719  15.340  21.044  14.945
67735W        W32720  37.936   7.141  14.339
67736W        W32721   9.880   3.298  13.062
67737W        W32722  29.444  18.650   1.436
67738W        W32723  18.796  26.208   4.654
67739W        W32724  35.025  13.617   4.667
67740W        W32725  19.198  11.801  11.351
67741W        W32726  15.348  11.389   4.798
67742W        W32727  18.560   5.348   1.707
67743W        W32728  41.071  41.132  14.726
67744W        W32729  14.871  13.226  12.907
67745W        W32730  18.625  20.986  13.065
67746W        W32731  24.540  15.572   4.604
67747W        W32732  10.253  15.787  12.242
67748W        W32733  39.397  24.465  12.098
67749W        W32734   2.289  34.749   1.290
67750W        W32735   3.342  14.398   2.459
67751W        W32736  33.917  18.834   1.830
67752W        W32737  11.773  22.233  12.072
67753W        W32738  18.362  12.745  10.352
67754W        W32739  38.839  42.371  12.173
67755W        W32740  26.902  12.254  12.077
67756W        W32741  43.600  23.659  10.270
67757W        W32742  22.259  16.798   0.766
67758W        W32743  15.810   8.651  12.077
67759W        W32744  30.198  21.430  11.287
67760W        W32745  26.558   4.848   2.246
67761W        W32746   7.942  14.300  10.796
67762W        W32747  11.522  20.309  11.596
67763W        W32748  19.826   0.350   3.463
67764W        W32749  25.178  43.306   2.236
67765W        W32750   3.254  20.774   0.776
67766W        W32751  23.597  29.558  11.450
67767W        W32752  41.654  13.675   1.084
67768W        W32753  37.986  41.522  10.364
67769W        W32754  18.716  37.816  12.860
67770W        W32755  27.610  31.664   0.057
67771W        W32756  16.589   8.184   3.639
67772W        W32757  21.154  20.282   1.653
67773W        W32758   5.816  34.318  12.964
67774W        W32759  11.593  36.704   0.386
67775W        W32760   3.012   6.931  13.923
67776W        W32761  35.849  10.261   3.745
67777W        W32762  15.088  31.967  11.178
67778W        W32763  29.401  41.899   4.572
67779W        W32764  40.001  41.063   1.766
67780W        W32765  16.803  39.038   0.996
67781W        W32766  27.547  18.989  13.030
67782W        W32767   8.364   7.308  14.304
67783W        W32768  41.839  16.040   0.215
67784W        W32769  39.894  40.931  13.552
67785W        W32770  40.930  34.154   0.783
67786W        W32771  15.824  14.814  14.502
67787W        W32772   4.128  19.244   2.427
67788W        W32773   3.092  28.107  11.185
67789W        W32774  11.744  17.756   0.595
67790W        W32775  44.196  40.974   3.182
67791W        W32776  33.012  22.108   4.710
67792W        W32777  35.846   4.590   3.597
67793W        W32778  36.095  17.535  11.492
67794W        W32779  43.174  10.588   3.193
67795W        W32780   2.403  31.170  12.509
67796W        W32781  43.581  15.942   4.948
67797W        W32782  35.854  14.572   1.260
67798W        W32783   5.228  25.201   0.692
67799W        W32784   6.090  19.841  13.498
67800W        W32785   1.947  36.158  14.767
67801W        W32786  35.135  18.128  12.495
67802W        W32787  33.694  24.432   0.244
67803W        W32788  23.519  44.478  14.369
67804W        W32789   3.763   6.690  13.489
67805W        W32790  16.777  33.591  14.368
67806W        W32791  30.570  20.948  12.279
67807W        W32792  38.550   6.743  10.839
67808W        W32793  31.934  25.710  10.804
67809W        W32794  20.609  12.601   1.697
67810W        W32795  10.594   1.832   3.786
67811W        W32796  22.789  12.524   0.319
67812W        W32797  15.711  43.199  14.996
67813W        W32798  23.641  18.784  12.970
67814W        W32799  38.383   5.496  12.219
67815W        W32800   7.408   3.472   1.804
67816W        W32801  30.618  20.441   0.237
67817W        W32802  39.336  43.789   4.702
67818W        W32803  44.374  23.407  11.180
67819W        W32804  10.304  19.208   1.672
67820W        W32805  40.037  41.987  13.931
67821W        W32806  43.633  31.438  12.005
67822W        W32807   3.001  19.508   0.449
67823W        W32808   9.669  43.441   3.113
67824W        W32809  10.387  40.963  13.910
67825W        W32810   9.432   6.107   0.420
67826W        W32811  32.458   3.933   3.614
67827W        W32812  35.779  23.541   2.850
67828W        W32813  15.089  14.414  11.046
67829W        W32814  43.194  33.093  13.397
67830W        W32815  11.805  32.188  14.878
67831W        W32816   8.177  33.361  11.164
67832W        W32817  35.230   9.308  12.152
67833W        W32818   4.795  38.478  13.462
67834W        W32819   3.327  18.746  11.547
67835W        W32820  14.025  39.966   0.291
67836W        W32821  33.618  25.920   3.800
67837W        W32822  27.019  40.462   1.999
67838W        W32823  16.607  31.365   1.705
67839W        W32824  31.865  29.169  11.537
67840W        W32825  17.681  10.584  13.590
67841W        W32826  12.759  18.567  10.703
67842W        W32827  43.056   9.347   1.824
67843W        W32828  42.618   3.845  10.500
67844W        W32829   9.001  22.727   4.100
67845W        W32830  19.801   9.638  10.928
67846W        W32831   8.944  28.440  13.760
67847W        W32832   7.083   7.289  14.328
67848W        W32833  11.513  33.855  14.341
67849W        W32834  12.902  23.163   3.539
67850W        W32835  16.849   6.180  11.659
67851W        W32836  36.156  27.958   4.229
67852W        W32837  22.171  33.325  14.050
67853W        W32838  19.485  32.904  12.464
67854W        W32839  39.757  11.179  12.397
67855W        W32840  14.780  25.516  10.963
67856W        W32841  40.431  27.525  12.168
67857W        W32842  40.531  35.477   0.861
67858W        W32843  44.578  22.919   4.113
67859W        W32844  29.293  32.489   2.288
67860W        W32845   4.943   0.201  12.000
67861W        W32846   4.255  14.844  12.905
67862W        W32847  33.233  25.872  14.073
67863W        W32848  26.525  38.053   3.570
67864W        W32849   1.332   7.139  11.067
67865W        W32850  24.712  33.636  13.909
67866W        W32851   3.724   4.273  13.555
67867W        W32852   0.005  21.548   0.758
67868W        W32853  24.311  31.610   3.042
67869W        W32854  42.859  21.678  11.808
67870W        W32855  19.814  19.994  13.867
67871W        W32856  26.194  19.805   3.717
67872W        W32857   5.186  17.245  12.432
67873W        W32858  42.775  16.097   0.749
67874W        W32859  23.102   7.862   0.965
67875W        W32860   6.348  26.040  12.161
67876W        W32861  28.588  34.249  13.027
67877W        W32862   3.977  21.046   2.871
67878W        W32863  10.330  24.987   4.197
67879W        W32864  15.160  13.844   1.453
67880W        W32865  35.802   3.403  14.334
67881W        W32866  33.662  23.172   3.842
67882W        W32867   5.221  14.166   3.707
67883W        W32868  44.287  21.951   3.203
67884W        W32869  41.025  35.642  13.409
67885W        W32870   0.545  19.870   3.826
67886W        W32871   6.398   0.379   1.770
67887W        W32872  36.804  32.547  12.949
67888W        W32873  11.301  35.872   1.138
67889W        W32874   8.811  33.142  11.642
67890W        W32875  22.188  20.791   3.233
67891W        W32876  17.371  40.364  11.927
67892W        W32877  24.512  21.615   3.386
67893W        W32878  13.120   4.375   0.004
67894W        W32879  11.791  28.939  13.960
67895W        W32880  31.636  20.787   4.565
67896W        W32881  25.086  30.678   1.246
67897W        W32882  44.060  26.240   9.753
67898W        W32883  17.287  23.610  14.952
67899W        W32884  35.545  16.005   0.452
67900W        W32885  20.991   5.921   3.703
67901W        W32886   4.820  24.586   2.411
67902W        W32887   6.370  28.454  12.031
67903W        W32888  27.074  11.858   1.224
67904W        W32889  41.372  36.794  13.952
67905W        W32890  32.162  15.968  13.498
67906W        W32891  11.651   0.428   4.547
67907W        W32892  31.173   0.945   1.456
67908W        W32893   4.602  32.576   4.741
67909W        W32894   1.239  11.731  13.583
67910W        W32895  30.210   7.815  12.560
67911W        W32896  24.697  20.745   2.626
67912W        W32897  30.635  29.230  14.473
67913W        W32898   7.532  36.377  12.046
67914W        W32899   9.538  27.447  12.884
67915W        W32900  24.440   4.926  10.609
67916W        W32901  36.320  37.452  13.984
67917W        W32902  19.656   8.821   2.153
67918W        W32903   5.860  13.041  11.235
67919W        W32904  24.526  40.502  14.577
67920W        W32905   2.698   6.182   0.504
67921W        W32906  42.573  29.864   1.704
67922W        W32907  23.637   3.399   4.527
67923W        W32908  27.219   7.376   4.239
67924W        W32909  39.975  41.784  12.931
67925W        W32910   9.726  33.669  14.228
67926W        W32911   1.899   8.937   3.482
67927W        W32912   9.683  26.697  14.346
67928W        W32913   7.939  39.468   2.321
67929W        W32914  41.813  44.495  11.963
67930W        W32915  23.836  37.984   4.284
67931W        W32916   3.113   3.404   1.289
67932W        W32917  35.646   7.733   4.915
67933W        W32918  29.337   1.717  12.242
67934W        W32919  10.419  22.301  10.998
67935W        W32920   6.640  33.548  14.800
67936W        W32921   5.863  15.551   4.466
67937W        W32922  40.047  37.124   3.265
67938W        W32923  32.818  41.475  14.003
67939W        W32924  19.064   0.026  13.414
67940W        W32925  25.952  15.077  14.824
67941W        W32926  13.186  37.255   1.713
67942W        W32927  26.462  33.437   5.044
67943W        W32928  26.752   9.518   4.147
67944W        W32929  32.096   2.203  12.617
67945W        W32930  42.119   1.387   2.634
67946W        W32931  23.501   7.230  14.758
67947W        W32932  10.247  44.916  13.905
67948W        W32933  18.445  28.531  10.697
67949W        W32934  12.249  24.104  12.141
67950W        W32935  40.325  28.533  10.737
67951W        W32936  25.721  34.049  11.413
67952W        W32937   7.835  14.208   4.796
67953W        W32938   1.344  35.359   2.858
67954W        W32939   8.215  44.693  10.789
67955W        W32940  22.802  40.722  14.840
67956W        W32941   2.683  20.962   2.866
67957W        W32942  23.704  21.076   0.463
67958W        W32943  33.887  39.097  11.722
67959W        W32944   7.315  17.499   3.660
67960W        W32945  26.996  17.371   4.708
67961W        W32946  37.305  31.754  12.178
67962W        W32947  28.774   3.447  14.310
67963W        W32948  22.657   3.325  10.180
67964W        W32949   9.879  18.070   3.484
67965W        W32950  24.940  39.494  10.610
67966W        W32951  20.987  10.145  12.423
67967W        W32952   2.970  13.745  10.500
67968W        W32953   4.165  20.830   1.722
67969W        W32954  32.943   4.564  12.433
67970W        W32955  14.794  30.558   2.291
67971W        W32956  22.741  34.274  11.813
67972W        W32957  10.402  19.316  13.545
67973W        W32958  18.036  21.743   0.777
67974W        W32959  19.355  32.361   3.428
67975W        W32960  40.977  16.015   0.970
67976W        W32961  39.836  34.163   1.525
67977W        W32962  30.021   9.638  12.580
67978W        W32963  22.109   1.055   4.773
67979W        W32964  36.008  41.280  10.646
67980W        W32965   8.362  33.811  14.422
67981W        W32966  24.005  27.019  14.340
67982W        W32967  27.570  39.553   1.510
67983W        W32968  19.743   8.806   3.352
67984W        W32969   3.409  31.960  13.126
67985W        W32970  32.425  20.815   1.534
67986W        W32971  36.949   8.441   2.698
67987W        W32972  16.918  24.008  12.851
67988W        W32973   1.234  22.716  10.587
67989W        W32974  11.718  14.530   4.418
67990W        W32975   8.615  43.013  14.473
67991W        W32976  20.404   8.921   4.130
67992W        W32977  19.608  13.310   0.781
67993W        W32978  20.798  15.304   1.280
67994W        W32979  35.540  16.950  13.162
67995W        W32980  25.015  40.512  14.778
67996W        W32981  18.738  37.063  10.669
67997W        W32982  23.010  15.930   2.222
67998W        W32983   7.142  38.041   3.766
67999W        W32984  21.396   4.109  10.517
68000W        W32985  38.242  11.949  11.655
68001W        W32986  20.563  24.723   0.786
68002W        W32987  37.981   9.627   9.888
68003W        W32988  23.540  42.184   3.054
68004W        W32989  11.759   1.966   0.522
68005W        W32990   4.235  28.087   4.136
68006W        W32991  41.834  28.412   1.374
68007W        W32992  15.355  20.526  14.957
68008W        W32993  15.390  36.484  12.937
68009W        W32994  14.287  13.672   2.378
68010W        W32995  10.879  17.584   2.194
68011W        W32996  17.129   7.376  12.043
68012W        W32997  25.026  36.581   4.503
68013W        W32998   6.807  22.237  10.708
68014W        W32999  15.869  15.308   2.263
68015W        W33000   9.572  12.675  11.198
68016W        W33001   6.420  31.523   2.732
68017W        W33002  40.714  15.080  12.406
68018W        W33003  28.042   7.978   1.507
68019W        W33004   2.624  16.149  11.417
68020W        W33005   1.969   2.258  10.553
68021W        W33006  11.481  19.610   1.343
68022W        W33007  10.896  42.794   2.288
68023W        W33008  27.588  43.228   9.877
68024W        W33009  32.474  14.273   2.207
68025W        W33010  27.651  24.187  14.203
68026W        W33011  20.739  40.358  14.226
68027W        W33012  37.444  30.923  10.685
68028W        W33013  20.635  26.606   2.228
68029W        W33014  27.253  30.291   2.912
68030W        W33015  10.576  12.235   1.824
68031W        W33016   3.248  41.863   2.318
68032W        W33017  18.438  20.670   3.963
68033W        W33018  17.789  27.193  14.893
68034W        W33019   0.309  42.556   2.275
68035W        W33020  33.938  13.676  10.528
68036W        W33021  15.557  13.236   1.365
68037W        W33022  22.991  31.120  11.806
68038W        W33023  24.501  27.048  13.779
68039W        W33024   6.906  40.070   0.407
68040W        W33025   6.037  44.567   2.257
68041W        W33026  40.986   5.764   4.338
68042W        W33027  37.979   0.357  13.606
68043W        W33028  39.211  36.354   4.344
68044W        W33029   1.274   2.539   1.612
68045W        W33030  29.916   1.662   0.015
68046W        W33031   5.733  30.123  14.223
68047W        W33032   5.771   6.912  12.423
68048W        W33033   9.285  28.706  10.734
68049W        W33034  40.013  35.514  14.686
68050W        W33035  13.171  27.976  10.021
68051W        W33036   3.191  41.514   0.265
68052W        W33037   6.055  32.069  14.054
68053W        W33038   5.939  24.828   3.234
68054W        W33039  44.250   2.296   4.533
68055W        W33040  29.042   5.940  13.245
68056W        W33041  23.195  11.351  13.100
68057W        W33042   6.475   3.636   3.663
68058W        W33043  38.575  44.948  14.784
68059W        W33044   4.275   5.864  14.418
68060W        W33045   8.407  15.058  11.854
68061W        W33046  35.533  11.560  12.104
68062W        W33047  32.933  12.859   3.422
68063W        W33048  26.941  35.023  14.567
68064W        W33049  32.791  17.174  12.791
68065W        W33050  15.971  21.427   2.751
68066W        W33051  11.357  14.670  13.591
68067W        W33052  37.237  36.291   1.310
68068W        W33053  19.647  40.457   1.854
68069W        W33054  20.602   4.398  12.375
68070W        W33055   3.062  17.141   3.893
68071W        W33056  41.851  41.039   0.272
68072W        W33057  36.964  26.437  12.069
68073W        W33058  11.033  34.632  13.831
68074W        W33059  42.829  17.384  14.321
68075W        W33060  41.369  13.143   2.206
68076W        W33061   0.275  21.146   1.300
68077W        W33062  30.382   2.008  14.346
68078W        W33063  26.273  12.921  12.383
68079W        W33064  33.174  34.867   2.805
68080W        W33065  20.170  20.671  12.050
68081W        W33066  21.119   6.081  12.497
68082W        W33067  29.735  33.205   4.923
68083W        W33068  43.372  32.124  11.660
68084W        W33069  41.483  13.079  13.637
68085W        W33070  40.339  21.345   3.242
68086W        W33071  27.802   0.493  12.028
68087W        W33072  10.866  24.084  13.326
68088W        W33073  29.262  40.651  13.518
68089W        W33074  37.199  27.943  14.833
68090W        W33075  25.066   5.925   3.745
68091W        W33076  33.588   5.643  12.373
68092W        W33077  25.902  25.034  13.320
68093W        W33078  43.997   2.372   3.789
68094W        W33079  17.308  13.336  11.471
68095W        W33080  41.807  16.869   0.490
68096W        W33081  38.971  16.159   3.523
68097W        W33082   9.179  33.803  10.583
68098W        W33083   6.079  34.216  13.764
68099W        W33084   0.229   5.097   3.637
68100W        W33085  42.258  19.030   2.068
68101W        W33086  42.482  33.327  14.419
68102W        W33087  37.803   6.924  11.892
68103W        W33088   9.889  27.753   2.629
68104W        W33089  27.849   6.054   4.135
68105W        W33090  15.103  29.092   0.372
68106W        W33091  24.095  10.161  14.881
68107W        W33092  24.235  35.513  12.522
68108W        W33093  12.782  18.999   2.321
68109W        W33094  43.441  18.918   2.635
68110W        W33095  25.141  20.696  12.102
68111W        W33096  10.616  31.426  11.953
68112W        W33097  39.363  43.914   1.503
68113W        W33098  36.151  33.829   4.561
68114W        W33099  18.093   5.198   1.955
68115W        W33100  34.002  41.105   2.314
68116W        W33101  35.135  41.958   2.628
68117W        W33102   7.133   8.834   1.544
68118W        W33103  43.105  41.897   1.352
68119W        W33104   2.377  39.079   2.766
68120W        W33105  13.088  39.982  11.176
68121W        W33106  25.638  16.195   4.257
68122W        W33107  12.523  13.659   2.928
68123W        W33108   5.320   7.458  11.918
68124W        W33109  30.582   2.643  12.428
68125W        W33110  33.909  37.882   2.309
68126W        W33111  25.984  12.327   3.331
68127W        W33112  40.526  13.916  11.082
68128W        W33113  25.053  30.191  14.321
68129W        W33114  16.258  15.253   4.435
68130W        W33115  34.967  39.830   4.017
68131W        W33116  34.868  43.093   3.660
68132W        W33117   7.638  37.421   2.192
68133W        W33118  27.111  23.428   4.978
68134W        W33119  28.468  38.381  14.004
68135W        W33120  23.513  21.280  14.459
68136W        W33121  38.797  25.095  14.024
68137W        W33122  30.596  44.483  12.690
68138W        W33123  14.442  36.968   4.098
68139W        W33124  25.963   0.091  10.693
68140W        W33125  29.012  15.214   3.983
68141W        W33126  38.604  13.879   0.918
68142W        W33127  40.932  13.619   0.525
68143W        W33128  25.052   8.330  12.553
68144W        W33129  44.348  32.171  13.603
68145W        W33130  14.073  29.451   2.909
68146W        W33131  19.502  26.605  12.392
68147W        W33132  34.825  22.070  13.312
68148W        W33133  29.194  29.103   3.057
68149W        W33134  39.043  23.988   3.596
68150W        W33135  16.650   7.899   1.266
68151W        W33136   9.347  36.361   2.975
68152W        W33137   9.450   8.343  14.171
68153W        W33138   8.375  16.999  11.135
68154W        W33139  20.799   8.111  13.290
68155W        W33140  43.917  44.535   1.703
68156W        W33141  28.689  39.312   0.435
68157W        W33142   9.757  18.099  13.878
68158W        W33143  28.494   1.842  12.812
68159W        W33144  37.155   9.312  10.120
68160W        W33145  15.229   8.410   1.392
68161W        W33146   1.508  17.341   2.686
68162W        W33147  42.380  39.065   3.290
68163W        W33148  44.799  35.637  14.196
68164W        W33149  30.185  41.524   4.441
68165W        W33150  39.988  27.075  14.623
68166W        W33151  25.104  31.759   2.627
68167W        W33152   4.949  41.299   0.514
68168W        W33153  43.332   7.230   3.819
68169W        W33154  37.842   7.923   0.504
68170W        W33155   1.824  44.298  13.085
68171W        W33156   3.443  39.922  11.595
68172W        W33157  13.501  10.611  12.128
68173W        W33158  24.916  35.477  13.946
68174W        W33159  34.865   1.445  11.159
68175W        W33160   5.710   6.210   2.629
68176W        W33161   3.582  44.721  12.996
68177W        W33162  10.629  32.480   4.116
68178W        W33163   9.145  33.895   3.384
68179W        W33164  26.810  14.863  11.348
68180W        W33165  14.852  19.739  14.925
68181W        W33166  11.757  43.751   1.655
68182W        W33167  21.751  35.854  10.630
68183W        W33168  19.564  20.838  10.717
68184W        W33169  33.389  34.569  11.647
68185W        W33170  32.103  26.427   2.809
68186W        W33171   1.294  23.759  14.122
68187W        W33172  16.728  30.079   3.701
68188W        W33173   8.683  44.222  12.511
68189W        W33174  32.586  31.958  14.902
68190W        W33175  14.796  26.269   2.340
68191W        W33176  15.367  22.110   3.392
68192W        W33177  19.500   7.506   2.333
68193W        W33178  10.103  21.637   1.005
68194W        W33179  33.183  17.800   0.853
68195W        W33180  11.887  34.029   4.200
68196W        W33181  42.181  13.599  13.013
68197W        W33182  19.706   7.168   0.985
68198W        W33183  14.253  43.300   4.652
68199W        W33184  34.141   1.335  13.398
68200W        W33185  39.431  26.696  13.534
68201W        W33186  31.085  33.432  12.447
68202W        W33187   8.918  20.101   3.324
68203W        W33188  14.196  30.125   0.491
68204W        W33189  37.903  43.922  14.624
68205W        W33190  30.074  40.816   1.469
68206W        W33191  37.051  25.043   0.047
68207W        W33192  23.445  34.313  13.178
68208W        W33193  24.690  34.930  13.476
68209W        W33194  36.068  38.025   2.846
68210W        W33195   8.264  12.817   3.504
68211W        W33196  28.624  37.573  11.415
68212W        W33197   0.290  16.116  13.557
68213W        W33198  29.492  38.462  10.738
68214W        W33199  36.148   0.752   4.581
68215W        W33200   4.422  34.978   0.245
68216W        W33201   5.165  35.503  14.363
68217W        W33202  30.732  23.734  13.146
68218W        W33203  11.974  24.044   0.328
68219W        W33204  26.414   4.175  12.413
68220W        W33205   2.465  18.427  11.694
68221W        W33206  24.311   5.102   4.329
68222W        W33207  20.658   3.429  13.954
68223W        W33208  28.837  38.701   3.648
68224W        W33209  40.005  17.753  13.958
68225W        W33210  13.366  33.578   3.198
68226W        W33211  44.243  43.792  13.002
68227W        W33212   6.798  40.828  14.422
68228W        W33213  33.505   5.238   2.661
68229W        W33214  33.406  41.905   0.376
68230W        W33215  23.868  18.296   3.732
68231W        W33216   3.388   2.707  11.050
68232W        W33217  39.346  35.962  14.456
68233W        W33218  28.452  23.704  11.124
68234W        W33219   5.621  31.919  13.521
68235W        W33220  25.172  37.332  10.357
68236W        W33221  29.173   3.032  12.500
68237W        W33222  10.316  24.167   2.601
68238W        W33223  15.722  32.096  14.954
68239W        W33224  25.156  13.881  13.042
68240W        W33225  31.572  37.191  13.045
68241W        W33226  31.203  19.207   0.522
68242W        W33227  32.337  18.163   3.620
68243W        W33228   5.908  34.538  10.654
68244W        W33229   0.846  26.899  13.809
68245W        W33230  16.746   3.726  13.525
68246W        W33231   6.376   8.752  14.785
68247W        W33232  19.474   8.695   2.679
68248W        W33233  44.148  18.870   2.857
68249W        W33234  30.360  40.954  11.131
68250W        W33235  25.481   6.762   0.491
68251W        W33236  44.457  41.004   3.640
68252W        W33237  36.560  15.208   4.854
68253W        W33238  33.553  40.872  12.977
68254W        W33239  28.073  30.462   2.083
68255W        W33240   4.984  14.258  11.935
68256W        W33241  44.805  35.383  11.531
68257W        W33242  20.185  38.351  12.956
68258W        W33243  14.201  23.205   4.602
68259W        W33244   9.469  20.734  10.990
68260W        W33245  13.216  13.809   2.318
68261W        W33246  30.076  30.103   1.137
68262W        W33247   4.135   3.528   1.333
68263W        W33248  39.355  22.773  12.115
68264W        W33249  12.529   2.153   1.454
68265W        W33250   5.666  28.960   0.860
68266W        W33251  29.586  14.408   0.769
68267W        W33252  27.862  37.857   1.826
68268W        W33253  28.105  39.870  11.687
68269W        W33254  37.875  44.752  10.486
68270W        W33255  11.938   9.586   3.084
68271W        W33256  19.144  40.879  11.947
68272W        W33257  30.536   9.929  14.887
68273W        W33258  26.772  13.264   4.586
68274W        W33259  30.971  30.906   1.473
68275W        W33260   0.014  43.801  14.932
68276W        W33261  16.068  40.254  14.398
68277W        W33262   1.445  24.105   0.832
68278W        W33263   5.374  18.883  13.860
68279W        W33264  31.034  14.651  13.204
68280W        W33265  13.600  29.304   4.174
68281W        W33266  33.215  37.358   1.517
68282W        W33267  18.451  17.671   4.649
68283W        W33268   3.216   0.480   1.354
68284W        W33269   3.970   6.436  13.915
68285W        W33270  32.554  13.729   1.928
68286W        W33271  14.761  38.383  12.696
68287W        W33272  14.742  19.494   0.937
68288W        W33273  41.913   1.627  12.988
68289W        W33274   2.189  33.079   4.761
68290W        W33275  36.160  40.028  13.589
68291W        W33276  19.092  28.419   2.161
68292W        W33277  13.192  21.683   4.162
68293W        W33278  40.416  29.666   1.810
68294W        W33279  37.344   7.061   3.520
68295W        W33280  41.096  31.989   4.307
68296W        W33281  32.512  11.185  12.211
68297W        W33282   2.988  34.023   1.334
68298W        W33283   8.646  12.174   3.425
68299W        W33284   2.148  40.461  13.430
68300W        W33285   4.290   4.707   3.913
68301W        W33286  14.710  20.009   0.922
68302W        W33287   2.558  31.998   3.291
68303W        W33288  41.460  10.286   1.273
68304W        W33289  28.282   3.382   0.292
68305W        W33290  39.984   8.729   3.290
68306W        W33291  32.520  21.519  13.003
68307W        W33292  12.870  17.899   3.866
68308W        W33293   4.877  40.649   2.237
68309W        W33294   1.056  33.817   2.633
68310W        W33295  28.801  41.301   0.279
68311W        W33296  12.778  26.044   1.719
68312W        W33297  32.943  32.432  13.879
68313W        W33298  34.815  27.751  12.464
68314W        W33299  38.356   9.729  12.530
68315W        W33300  21.680  37.124   4.716
68316W        W33301   2.169  18.200   1.316
68317W        W33302  13.431  21.144  14.972
68318W        W33303  32.219   7.856  14.874
68319W        W33304  33.975  19.290  12.553
68320W        W33305  28.979  20.485  14.850
68321W        W33306  17.688  41.525   2.254
68322W        W33307  19.665  15.948  10.730
68323W        W33308  10.483  34.403   4.167
68324W        W33309  29.989   9.216   4.541
68325W        W33310  24.028  28.044   3.832
68326W        W33311  32.936  40.184   4.654
68327W        W33312  21.327  28.584   2.875
68328W        W33313  37.139  30.525   0.407
68329W        W33314  28.907  42.587   2.291
68330W        W33315   4.437  18.178   4.374
68331W        W33316  38.402  27.935  10.815
68332W        W33317  38.419  42.662  12.084
68333W        W33318   7.754  24.254   1.161
68334W        W33319  22.582  44.443  14.184
68335W        W33320  36.538   7.017  12.132
68336W        W33321  43.786   8.108   0.907
68337W        W33322  25.295  11.728   4.832
68338W        W33323  11.333   6.765  14.827
68339W        W33324  41.104  40.552   1.407
68340W        W33325   0.457  39.018   2.409
68341W        W33326   8.692   9.456   2.006
68342W        W33327  36.200   5.675  14.803
68343W        W33328   4.681  39.148  11.630
68344W        W33329  44.027  39.230  13.759
68345W        W33330  22.871  27.420   3.937
68346W        W33331  36.603  31.096   4.561
68347W        W33332  39.498   4.507   1.355
68348W        W33333  37.113   2.839  10.956
68349W        W33334  21.588   1.640   1.472
68350W        W33335  21.284  38.791  11.066
68351W        W33336  43.648  23.439  14.835
68352W        W33337   1.888  24.533  10.830
68353W        W33338   9.618  16.428  13.762
68354W        W33339  33.625  43.382   1.471
68355W        W33340  11.878  27.744  11.659
68356W        W33341  12.625  16.421   2.810
68357W        W33342  33.919  30.998   4.147
68358W        W33343  28.750  15.769  14.396
68359W        W33344  33.403  28.727   2.152
68360W        W33345  18.196  28.456  14.235
68361W        W33346   8.193  13.573   1.696
68362W        W33347  22.758  20.117   1.906
68363W        W33348   1.528  16.460   0.979
68364W        W33349  40.928  14.127  13.398
68365W        W33350  20.090  36.941  12.052
68366W        W33351  40.877  33.869  14.301
68367W        W33352   9.956  13.625  13.357
68368W        W33353  33.304  40.818  11.590
68369W        W33354  10.705   2.925  13.122
68370W        W33355  19.733  41.692   2.414
68371W        W33356  34.520  33.157  11.068
68372W        W33357   3.576  36.893  11.357
68373W        W33358   8.286  12.975   4.801
68374W        W33359  37.517  15.746   2.653
68375W        W33360  41.999  37.368  13.063
68376W        W33361  43.075  42.502   2.220
68377W        W33362  17.865   8.870  10.945
68378W        W33363   1.534   9.748  10.648
68379W        W33364   5.399   7.747  10.724
68380W        W33365  28.661  38.989   2.671
68381W        W33366  12.616  19.435  14.048
68382W        W33367   2.259   1.018  11.915
68383W        W33368  21.762  43.533  11.520
68384W        W33369  20.476   4.689  14.563
68385W        W33370  29.494   1.405   0.127
68386W        W33371   6.367  30.140  13.495
68387W        W33372  24.182  23.810  13.632
68388W        W33373  34.295  31.973  14.335
68389W        W33374  30.830   5.221  13.759
68390W        W33375  27.539   5.956  12.790
68391W        W33376  27.141  34.907   3.873
68392W        W33377  11.451   1.967  12.220
68393W        W33378  24.290  16.120  13.021
68394W        W33379  14.095  12.393   4.588
68395W        W33380  27.935   9.728   0.875
68396W        W33381  25.052   0.354  13.430
68397W        W33382  27.430  19.330  13.837
68398W        W33383   2.513  16.725  13.151
68399W        W33384   9.314  24.967  10.751
68400W        W33385  10.618   3.522   4.608
68401W        W33386  18.683  44.368  13.017
68402W        W33387  25.046   9.315  12.890
68403W        W33388  23.570  41.934   4.409
68404W        W33389  39.327  27.231   4.241
68405W        W33390  44.012  12.313  11.120
68406W        W33391  33.620  12.177  13.748
68407W        W33392  40.941  20.173   2.897
68408W        W33393  30.591  44.920   2.229
68409W        W33394  28.680  12.563   3.705
68410W        W33395  40.527  28.084  12.524
68411W        W33396  25.026  37.990   3.264
68412W        W33397  43.473  43.962   2.724
68413W        W33398  38.900  15.137   1.704
68414W        W33399  23.005   8.140   3.993
68415W        W33400  37.895  18.858  10.936
68416W        W33401  40.430  38.738  13.362
68417W        W33402  43.025  26.192   0.028
68418W        W33403   0.659   0.466   2.227
68419W        W33404  16.871  40.292   1.757
68420W        W33405  39.009  15.870   0.973
68421W        W33406   4.436  21.530   3.647
68422W        W33407   7.520  41.448  12.862
68423W        W33408  11.331  29.439  11.674
68424W        W33409  15.067  17.083   4.143
68425W        W33410  12.547  38.338   2.919
68426W        W33411  42.576  32.579  12.516
68427W        W33412  25.544  37.230  12.488
68428W        W33413  27.747  26.633   4.179
68429W        W33414  26.567  31.903  13.037
68430W        W33415  26.927  34.299  12.966
68431W        W33416   6.422  24.938  12.163
68432W        W33417  20.120  38.359   3.758
68433W        W33418  24.866  11.296  11.970
68434W        W33419  35.932  36.010  12.635
68435W        W33420  12.442   6.015  14.404
68436W        W33421  35.900  31.254   2.398
68437W        W33422  36.695  33.927  14.299
68438W        W33423  41.833  36.947  13.377
68439W        W33424  37.476   5.510  11.650
68440W        W33425  20.625  28.353  11.694
68441W        W33426  19.635  16.385   3.189
68442W        W33427   4.835  29.249  13.572
68443W        W33428  17.667  24.664  11.559
68444W        W33429   6.392  42.518  14.550
68445W        W33430   0.369  43.948   2.736
68446W        W33431  32.931  13.122   0.834
68447W        W33432  31.194  13.301   4.532
68448W        W33433   3.926   6.445  13.054
68449W        W33434  25.991  36.959  10.685
68450W        W33435  20.065  23.155  10.899
68451W        W33436  40.099  42.233   2.421
68452W        W33437  13.882   4.184   2.309
68453W        W33438  35.676  37.030  11.135
68454W        W33439  39.395   5.532   3.354
68455W        W33440  31.414   1.894  14.868
68456W        W33441  38.961   8.671   2.309
68457W        W33442  34.662   2.690  10.794
68458W        W33443  12.662   2.220   4.191
68459W        W33444  12.855  14.070   1.389
68460W        W33445  26.972   3.828  10.339
68461W        W33446  12.789   3.828  14.086
68462W        W33447   9.938  22.522   0.809
68463W        W33448   5.371  20.975   3.124
68464W        W33449  29.518  14.250  13.231
68465W        W33450   4.880   1.421   4.565
68466W        W33451  12.912   4.326   0.487
68467W        W33452  20.027   9.646   0.253
68468W        W33453   0.338  25.110  12.441
68469W        W33454  12.749  40.854   4.603
68470W        W33455  37.057  23.234  14.249
68471W        W33456   7.257   0.985   0.397
68472W        W33457  38.456  40.157  12.593
68473W        W33458   8.703  43.135   3.368
68474W        W33459  32.842   0.485   2.512
68475W        W33460  17.303   9.086   0.598
68476W        W33461  38.383   5.800   3.836
68477W        W33462  42.417   1.435  10.864
68478W        W33463  28.559   1.563  13.605
68479W        W33464  15.544  43.852   4.261
68480W        W33465  25.034  38.547  10.692
68481W        W33466  21.270   1.192   2.841
68482W        W33467  31.646  29.422   2.585
68483W        W33468  17.029  22.632  12.274
68484W        W33469  35.402  26.402  11.151
68485W        W33470  15.917  36.963  11.555
68486W        W33471  37.011  38.914   1.907
68487W        W33472  32.951  43.453   0.200
68488W        W33473  25.081  37.586  13.434
68489W        W33474  18.103   4.091  13.843
68490W        W33475  20.355  22.629  11.168
68491W        W33476  16.757  16.705  10.767
68492W        W33477  43.093  42.949   1.253
68493W        W33478  44.353  15.274   4.561
68494W        W33479  11.364  31.877   1.513
68495W        W33480  27.584  19.502  12.463
68496W        W33481  28.494  12.331  11.818
68497W        W33482  41.650  25.641   1.383
68498W        W33483  11.603   8.849  11.897
68499W        W33484  14.144   8.423  10.594
68500W        W33485  18.675  12.021   0.348
68501W        W33486  16.032  35.119   3.257
68502W        W33487  20.388  23.699   3.173
68503W        W33488  10.199  38.450   0.882
68504W        W33489  21.789  18.732  14.007
68505W        W33490  22.103  33.780  13.793
68506W        W33491   4.301  42.780  10.863
68507W        W33492   5.966  42.429  10.792
68508W        W33493   5.479  37.288  12.909
68509W        W33494  25.594  31.908   2.609
68510W        W33495  14.129   8.389  11.525
68511W        W33496   9.187  34.597  13.514
68512W        W33497  20.522  27.442  13.794
68513W        W33498  19.300  13.546  14.054
68514W        W33499  24.085  41.189   4.252
68515W        W33500  44.518  10.134   1.642
68516W        W33501  21.182  27.979  14.362
68517W        W33502   6.372   0.552   4.856
68518W        W33503  30.472  25.928   2.338
68519W        W33504  16.335   7.578   4.086
68520W        W33505  30.456  28.090   4.312
68521W        W33506   8.298  26.564   0.438
68522W        W33507  23.403  31.965   4.085
68523W        W33508  22.183  40.563  11.545
68524W        W33509   2.299  44.461  12.952
68525W        W33510   4.693   8.792  12.477
68526W        W33511  12.901  19.275  14.477
68527W        W33512  30.331  32.735  11.050
68528W        W33513  34.617  39.011   2.191
68529W        W33514  37.577  27.538  13.889
68530W        W33515  39.635  20.901  11.135
68531W        W33516  31.114  21.177   1.202
68532W        W33517  30.030  39.439   0.887
68533W        W33518  16.895  24.178   4.105
68534W        W33519  30.964   0.276  11.619
68535W        W33520  25.938  28.945  13.528
68536W        W33521  22.087  16.311   2.344
68537W        W33522   1.113   9.824   3.153
68538W        W33523   1.291   6.400  14.788
68539W        W33524  21.244  20.482   5.048
68540W        W33525  28.569  10.569  11.674
68541W        W33526  32.379   7.010   2.616
68542W        W33527   9.422  40.448  12.514
68543W        W33528  34.119  18.724  11.046
68544W        W33529  42.269   3.165  14.302
68545W        W33530   9.969  43.940  10.683
68546W        W33531  37.848   4.661   3.757
68547W        W33532  22.444  34.039  10.561
68548W        W33533  33.601   6.515  14.017
68549W        W33534  13.607  33.693  11.559
68550W        W33535  40.812  18.527  11.619
68551W        W33536  32.447  38.418   1.252
68552W        W33537  27.116  40.901  12.544
68553W        W33538  32.873   4.230   2.777
68554W        W33539  15.589  19.919   2.999
68555W        W33540   6.599  17.209   2.247
68556W        W33541  25.262  37.918   2.106
68557W        W33542  24.446  12.702   2.192
68558W        W33543  43.908   7.147   1.346
68559W        W33544  21.196  39.344  11.848
68560W        W33545  14.693  40.302   0.757
68561W        W33546  22.205  10.372   1.831
68562W        W33547  11.579   3.206   1.377
68563W        W33548  13.299  17.032  12.562
68564W        W33549  44.712  37.950   2.886
68565W        W33550  27.644  21.804   0.953
68566W        W33551  36.638  28.456  10.724
68567W        W33552  32.503  19.455   3.225
68568W        W33553  17.602  39.909  12.032
68569W        W33554  23.289  35.954  11.665
68570W        W33555   6.623  18.691   4.383
68571W        W33556  17.824   6.831  12.133
68572W        W33557   1.844  35.279   1.823
68573W        W33558   4.775  35.508  14.806
68574W        W33559  14.745   5.272   2.462
68575W        W33560  27.030   8.301  14.594
68576W        W33561  21.620  10.023   2.264
68577W        W33562  41.086  17.635   1.489
68578W        W33563  44.930  39.463  14.517
68579W        W33564  20.994  21.481   3.611
68580W        W33565  24.609  17.145  11.293
68581W        W33566   1.319  27.071   3.798
68582W        W33567  43.132  22.142  12.924
68583W        W33568  10.764  17.620  13.362
68584W        W33569  41.225  31.205  12.044
68585W        W33570   6.722  18.656   1.002
68586W        W33571  14.859   3.482   0.849
68587W        W33572  26.896  17.769   1.680
68588W        W33573   2.774  32.102   1.329
68589W        W33574  25.881  29.394  11.999
68590W        W33575  44.450   1.511  10.509
68591W        W33576   9.589  16.908  11.592
68592W        W33577  36.166  44.873   0.797
68593W        W33578   6.441  35.826   4.170
68594W        W33579  17.035   7.807   2.751
68595W        W33580   1.432  24.712   0.219
68596W        W33581  16.148  13.036  10.852
68597W        W33582  18.803  30.472  11.091
68598W        W33583  32.355  13.076   3.567
68599W        W33584  36.960  25.611  14.566
68600W        W33585   0.449  20.383   0.753
68601W        W33586  44.066  13.195   3.730
68602W        W33587  33.055   2.552  13.031
68603W        W33588  43.616  21.056  13.075
68604W        W33589  23.651  25.993   1.897
68605W        W33590  41.081  39.972  14.668
68606W        W33591  10.863  41.731   2.231
68607W        W33592   3.625  43.465  11.904
68608W        W33593  18.325  17.794   0.918
68609W        W33594  26.024  30.458  14.116
68610W        W33595   8.178  27.525   3.942
68611W        W33596  44.277  22.083   4.484
68612W        W33597  10.544  25.083  11.067
68613W        W33598   1.107  44.540  13.442
68614W        W33599  31.062  38.849  13.954
68615W        W33600   8.444  24.503  14.358
68616W        W33601  38.402  36.021  14.598
68617W        W33602   0.627  19.801  13.377
68618W        W33603  30.999  22.626  12.898
68619W        W33604   5.335  41.907  11.451
68620W        W33605  21.147   9.114   0.335
68621W        W33606  33.256  42.423  13.442
68622W        W33607  29.897  44.740  14.800
68623W        W33608  39.576  28.652   4.343
68624W        W33609  22.222  39.919  11.037
68625W        W33610   4.462  10.109   2.678
68626W        W33611   5.612  26.566  12.001
68627W        W33612  33.447  28.971   4.520
68628W        W33613  18.062  33.584   4.689
68629W        W33614  30.489  38.922  10.826
68630W        W33615   4.701  28.197   0.344
68631W        W33616  25.896  14.616  12.465
68632W        W33617  27.628  26.236   4.676
68633W        W33618  36.907   7.329  10.415
68634W        W33619  42.274   5.011  11.213
68635W        W33620  41.438  27.214  14.543
68636W        W33621   7.513   5.762  12.900
68637W        W33622  26.618   0.548   5.537
68638W        W33623   4.956  16.213  13.470
68639W        W33624  27.470  19.750  10.505
68640W        W33625  30.281  24.720   2.706
68641W        W33626  30.660   6.896   2.820
68642W        W33627  36.966  34.206  13.338
68643W        W33628  30.077   7.095  14.575
68644W        W33629  22.050  15.691  10.780
68645W        W33630   4.382  29.071  14.882
68646W        W33631  27.023  25.816   4.079
68647W        W33632  25.063  24.216  11.726
68648W        W33633   4.393   7.430   2.311
68649W        W33634  19.707  40.656  14.871
68650W        W33635  39.507   1.974   4.221
68651W        W33636  17.642  22.202   2.260
68652W        W33637  10.701  18.764  12.608
68653W        W33638  18.806  35.928   4.415
68654W        W33639  14.118  10.231  14.073
68655W        W33640   6.635  40.277   1.296
68656W        W33641  17.508  42.000   0.732
68657W        W33642  12.308  11.722   4.183
68658W        W33643  23.899  25.283  11.191
68659W        W33644  20.592  12.104   0.476
68660W        W33645  14.404  38.414  11.236
68661W        W33646   1.713  29.836   0.226
68662W        W33647   9.231   1.799   1.838
68663W        W33648  19.749  14.165   3.321
68664W        W33649  41.306  19.504   4.042
68665W        W33650  41.679  29.539  14.963
68666W        W33651  32.621  41.476   4.209
68667W        W33652  32.826  28.002   4.655
68668W        W33653  12.581  17.584  13.600
68669W        W33654  28.649  16.778   2.519
68670W        W33655  41.824  14.629  14.478
68671W        W33656  35.671  15.681   3.178
68672W        W33657   6.134  27.753   0.243
68673W        W33658   6.879  25.622  13.375
68674W        W33659  35.100  44.967   2.538
68675W        W33660  18.615  20.312  14.727
68676W        W33661  17.003  39.762  13.920
68677W        W33662  25.046  36.982   0.779
68678W        W33663   5.122   3.579  10.789
68679W        W33664  18.076  31.129   4.214
68680W        W33665  28.286   0.952  12.862
68681W        W33666  32.930   2.085  11.975
68682W        W33667  28.880  27.628   0.470
68683W        W33668  43.272  26.875   3.693
68684W        W33669  24.588  13.682   3.337
68685W        W33670   6.159   4.519  11.544
68686W        W33671   2.912   2.017   2.898
68687W        W33672  15.787   6.817  12.215
68688W        W33673  36.866  20.951   3.165
68689W        W33674  44.804  44.993   3.934
68690W        W33675  21.443  12.037   4.615
68691W        W33676   7.141  12.399   3.660
68692W        W33677  15.317  16.160   3.199
68693W        W33678  18.407  37.131   3.785
68694W        W33679   2.101  21.755  12.404
68695W        W33680  19.743  19.593  11.603
68696W        W33681  20.617   0.837  10.831
68697W        W33682  32.720  44.372   2.706
68698W        W33683  44.051  11.806  11.624
68699W        W33684  31.152  16.812   4.369
68700W        W33685  33.626  37.606   1.682
68701W        W33686  41.699  12.557  12.490
68702W        W33687  38.573  40.287   0.998
68703W        W33688  32.205   8.698   2.391
68704W        W33689  13.641   7.344  12.280
68705W        W33690   8.352  14.276  10.438
68706W        W33691   9.896  28.570  14.191
68707W        W33692   3.016  29.663   4.229
68708W        W33693   1.500   4.369   0.546
68709W        W33694   0.454  13.199  10.736
68710W        W33695  28.053  25.126   9.856
68711W        W33696  44.270  20.238   1.359
68712W        W33697  22.437  13.306   4.742
68713W        W33698  24.559   3.259   4.646
68714W        W33699  23.816  19.595   3.661
68715W        W33700  31.591  43.248  12.026
68716W        W33701   0.269   9.960  11.591
68717W        W33702  38.153  11.580  10.737
68718W        W33703  36.373  42.605  14.929
68719W        W33704   9.222  43.743   2.323
68720W        W33705   0.671  15.412   0.867
68721W        W33706   1.109  11.453   4.513
68722W        W33707  32.411  37.280  12.131
68723W        W33708  30.177  29.595   1.336
68724W        W33709  34.720  16.392   2.781
68725W        W33710   9.414  26.237  14.143
68726W        W33711   3.374  24.432   2.728
68727W        W33712  35.955  32.355  10.759
68728W        W33713  24.597  37.853  13.398
68729W        W33714  43.170  31.613  11.948
68730W        W33715  27.541   4.937   1.917
68731W        W33716  30.854  12.886   3.097
68732W        W33717  28.010  27.941  12.990
68733W        W33718   2.905  12.799   4.558
68734W        W33719  10.190  31.207   1.934
68735W        W33720  44.292  27.295   2.289
68736W        W33721  24.967  30.825  12.325
68737W        W33722  11.462  21.366   0.890
68738W        W33723  22.793  44.260   4.695
68739W        W33724  20.950  18.233   1.224
68740W        W33725   0.496  27.240   3.238
68741W        W33726   6.117  28.933  10.364
68742W        W33727  27.267  43.454  11.928
68743W        W33728  39.604  22.020  13.879
68744W        W33729  17.679  21.215   4.353
68745W        W33730  11.814  24.922   0.321
68746W        W33731  15.316   3.712   1.226
68747W        W33732  16.356  16.416  13.389
68748W        W33733  43.422  25.047  13.545
68749W        W33734  10.103   7.286  12.948
68750W        W33735  33.995  23.732  12.012
68751W        W33736   1.918  33.012   4.306
68752W        W33737   9.205  10.228  11.582
68753W        W33738   6.535   0.874  11.166
68754W        W33739  28.253  34.393   2.725
68755W        W33740  12.612  12.416  14.952
68756W        W33741   2.289  26.280   1.779
68757W        W33742  26.465  37.364  13.363
68758W        W33743  20.697   3.832   1.128
68759W        W33744  11.636  19.188  10.990
68760W        W33745   7.899  42.387  11.851
68761W        W33746  16.270  37.932  12.353
68762W        W33747  28.895  14.174   1.223
68763W        W33748  34.904  13.076   0.887
68764W        W33749   5.389  19.648   0.923
68765W        W33750  30.362  37.672   3.861
68766W        W33751   5.316  38.468   3.059
68767W        W33752   7.074  23.624  14.332
68768W        W33753  15.395   8.488   0.256
68769W        W33754  26.183  42.764   0.186
68770W        W33755  29.006  27.034   0.639
68771W        W33756  38.471  33.404   1.333
68772W        W33757   8.362  20.452  13.972
68773W        W33758  40.216   2.260   0.400
68774W        W33759  36.435  30.059   0.486
68775W        W33760   7.367  12.408  11.562
68776W        W33761   3.303   5.154   1.649
68777W        W33762  41.257  14.665  10.167
68778W        W33763  14.270   9.734   3.339
68779W        W33764   9.971   2.845   2.094
68780W        W33765  21.778   3.462   0.963
68781W        W33766   3.419  13.956  10.314
68782W        W33767   2.963  33.450   3.634
68783W        W33768  29.148  32.937  10.923
68784W        W33769  33.495  13.324   4.206
68785W        W33770  27.244   7.318  14.519
68786W        W33771  43.101  44.011  10.756
68787W        W33772  13.068  33.350   4.591
68788W        W33773  27.288  32.955  14.697
68789W        W33774  16.408  15.992  12.484
68790W        W33775  43.862  38.596   3.740
68791W        W33776  23.711  29.075   3.615
68792W        W33777   4.176   1.718   2.617
68793W        W33778  24.459  41.146   1.277
68794W        W33779  13.283  10.527   3.649
68795W        W33780   3.339  28.519   0.801
68796W        W33781  11.818   1.915  11.490
68797W        W33782   3.205  33.766   0.943
68798W        W33783  41.313  35.864   1.333
68799W        W33784  25.221  17.283   1.977
68800W        W33785  17.302   9.969   3.594
68801W        W33786  19.274  28.033  14.063
68802W        W33787  39.016  28.699   2.106
68803W        W33788  31.543  18.836   0.005
68804W        W33789  42.850  43.579  11.925
68805W        W33790   3.946  22.780  12.001
68806W        W33791  30.082  35.443   1.713
68807W        W33792   4.814  17.783  10.711
68808W        W33793  44.414  15.263  10.774
68809W        W33794  32.577   5.303  11.518
68810W        W33795  28.976  12.330   1.044
68811W        W33796  15.836  26.454   4.104
68812W        W33797  19.714  10.317  14.819
68813W        W33798  25.546  20.521   4.170
68814W        W33799   4.338  24.989   1.246
68815W        W33800  13.247   7.439  13.927
68816W        W33801  15.525  34.132   2.382
68817W        W33802  12.717  24.155  11.926
68818W        W33803  36.607  40.085  11.146
68819W        W33804  21.697  10.403  14.756
68820W        W33805  22.789  40.730  13.930
68821W        W33806   5.752  31.367   1.200
68822W        W33807  25.437  13.270  13.984
68823W        W33808   2.717  16.877  10.565
68824W        W33809  37.480  21.712  14.682
68825W        W33810  11.160  19.184   4.465
68826W        W33811  42.675  34.402   4.045
68827W        W33812   1.489  13.990   3.321
68828W        W33813   2.596  15.126   3.292
68829W        W33814   3.951  43.357  12.489
68830W        W33815  37.642  41.002  12.063
68831W        W33816  17.060  38.177   1.457
68832W        W33817  43.905  11.721   0.250
68833W        W33818  13.166  30.127   0.700
68834W        W33819   1.164   1.985   4.018
68835W        W33820  29.137  42.795  12.678
68836W        W33821   4.883  33.017  14.815
68837W        W33822  37.944  44.061  14.127
68838W        W33823  42.948  21.199   4.305
68839W        W33824  25.317  33.985   0.218
68840W        W33825  16.875  19.399   5.158
68841W        W33826  23.468  40.455   4.133
68842W        W33827  27.740   4.347  12.058
68843W        W33828  39.888  43.684   0.301
68844W        W33829  30.141  23.094  13.747
68845W        W33830  44.825  22.987   0.001
68846W        W33831  31.196  28.083  10.231
68847W        W33832   7.394   3.555   9.772
68848W        W33833  20.240  25.791  12.107
68849W        W33834  24.079   8.298   1.115
68850W        W33835  25.211   8.417   3.141
68851W        W33836  25.588  40.144   4.697
68852W        W33837  25.876   8.414  12.463
68853W        W33838  26.733  18.252   0.884
68854W        W33839  43.517  44.991   2.787
68855W        W33840  25.233  13.319  10.789
68856W        W33841  16.597   3.973   1.440
68857W        W33842  24.953  14.148  14.810
68858W        W33843  34.001  16.585  12.557
68859W        W33844   8.911   5.079   2.547
68860W        W33845  25.801  29.181   1.372
68861W        W33846   2.032   5.475  13.957
68862W        W33847  42.273  35.664  13.872
68863W        W33848  29.679  38.872   1.033
68864W        W33849  27.164  44.533  13.875
68865W        W33850  31.798   7.521   4.522
68866W        W33851   5.949   2.560  10.759
68867W        W33852  42.010  38.123   3.298
68868W        W33853   6.742   9.652  14.874
68869W        W33854   3.972  25.469  12.641
68870W        W33855  18.493  13.321   0.813
68871W        W33856  22.368  37.539   0.320
68872W        W33857  19.535   5.928   2.300
68873W        W33858  37.544  22.735  12.096
68874W        W33859   1.592  19.804   1.672
68875W        W33860  15.666  24.445  12.363
68876W        W33861  11.444  36.296  13.455
68877W        W33862  10.913  19.269  13.458
68878W        W33863  32.011   8.335   1.707
68879W        W33864   8.913   1.629   4.742
68880W        W33865  32.962  33.685  13.523
68881W        W33866  19.772  28.657  10.697
68882W        W33867  44.241  30.007   4.122
68883W        W33868  32.950  44.784  11.629
68884W        W33869   4.988   0.329   2.799
68885W        W33870  38.437   0.032   0.740
68886W        W33871  39.983  29.470   2.001
68887W        W33872  36.152   9.757  13.446
68888W        W33873   8.967  18.739   3.762
68889W        W33874  26.872  38.091  11.460
68890W        W33875  42.611  22.164   1.587
68891W        W33876  11.099   8.741  11.011
68892W        W33877  27.156  43.276   3.682
68893W        W33878   1.154  28.191  14.948
68894W        W33879  21.020  38.615  14.674
68895W        W33880  33.582  20.091  12.429
68896W        W33881  22.054  31.216  13.882
68897W        W33882  35.247  11.162   1.677
68898W        W33883  19.028   2.623   5.034
68899W        W33884  18.135   0.306   3.684
68900W        W33885  28.141  10.945  13.975
68901W        W33886  38.965  15.555  12.446
68902W        W33887  24.995  16.335  13.797
68903W        W33888   9.753  44.369  12.995
68904W        W33889  14.858   0.949  11.101
68905W        W33890  28.100  25.544  11.990
68906W        W33891  43.318   2.897   0.326
68907W        W33892   7.841  26.801   4.676
68908W        W33893   0.259  23.290  10.622
68909W        W33894  39.690  23.131  10.707
68910W        W33895  34.886  25.702  12.152
68911W        W33896  26.073  27.520  13.313
68912W        W33897  20.179   5.750   3.236
68913W        W33898  36.582  38.894  12.409
68914W        W33899  13.319  23.953   0.838
68915W        W33900  17.287  13.635  11.958
68916W        W33901  33.881  28.773   2.838
68917W        W33902  18.501  42.268  14.279
68918W        W33903  30.822  35.455   0.578
68919W        W33904   7.472  39.493  12.148
68920W        W33905  43.457  20.131   0.836
68921W        W33906   0.307  42.034   2.269
68922W        W33907  22.558  40.858  10.792
68923W        W33908   2.555  43.701   4.320
68924W        W33909  41.561  32.603  12.552
68925W        W33910  43.829  26.353  13.669
68926W        W33911  14.240  26.453   4.431
68927W        W33912   5.658  33.127   0.530
68928W        W33913  19.036  14.162  14.869
68929W        W33914   9.262  31.813  13.237
68930W        W33915   7.099  21.614   2.493
68931W        W33916  17.748   4.173  11.185
68932W        W33917  10.948  31.148   2.113
68933W        W33918   6.901  21.667   0.929
68934W        W33919  10.742  16.223  13.008
68935W        W33920  12.599  27.967   1.179
68936W        W33921  11.766  25.229   0.878
68937W        W33922  11.605   4.409   1.776
68938W        W33923  42.372  13.379   1.773
68939W        W33924  14.350  15.136  13.006
68940W        W33925  10.600  19.853   4.090
68941W        W33926   6.391   6.031   1.669
68942W        W33927  22.934  30.139   2.048
68943W        W33928  37.486  24.685   4.154
68944W        W33929  43.839  41.077  13.301
68945W        W33930  14.328  40.985   4.161
68946W        W33931  41.466  34.522  12.087
68947W        W33932  21.162  26.423   3.897
68948W        W33933  17.279  31.994   4.702
68949W        W33934   2.218   3.981   0.431
68950W        W33935  22.173  22.686  11.627
68951W        W33936  30.970  28.403  14.364
68952W        W33937  12.770  36.871  13.474
68953W        W33938  28.935  37.977  10.511
68954W        W33939  18.504  27.151   0.785
68955W        W33940  18.807   1.032  13.870
68956W        W33941  18.596  31.108  10.027
68957W        W33942  39.652   2.379   2.901
68958W        W33943   3.254  36.036  10.850
68959W        W33944   7.750  43.540   0.471
68960W        W33945  36.772   4.447  12.640
68961W        W33946  31.095   2.803  11.706
68962W        W33947   3.899  16.972   1.414
68963W        W33948  39.558  28.503  12.939
68964W        W33949  15.706  22.495  13.562
68965W        W33950  28.538  24.043   2.653
68966W        W33951  21.572  32.619   0.866
68967W        W33952   5.323   7.145  12.312
68968W        W33953  12.896  42.978  13.002
68969W        W33954  32.178  22.178  11.754
68970W        W33955  32.410  36.257  14.361
68971W        W33956   3.995  27.396   3.555
68972W        W33957  33.140  38.540   3.630
68973W        W33958   7.974  19.241   5.005
68974W        W33959  23.029   9.714  11.193
68975W        W33960   4.360  11.102   1.191
68976W        W33961  24.293  40.952  12.895
68977W        W33962  13.821  17.738  13.059
68978W        W33963   3.567   7.394   2.655
68979W        W33964  36.451  12.478   4.109
68980W        W33965  30.486   3.504   1.479
68981W        W33966  16.832   8.711  11.780
68982W        W33967  31.091   7.386  12.141
68983W        W33968   9.928   8.230  13.978
68984W        W33969  44.098  10.693   2.494
68985W        W33970  12.887  19.305   2.737
68986W        W33971  19.332  14.589   4.581
68987W        W33972  25.023  18.496  13.366
68988W        W33973   5.774  14.712  13.721
68989W        W33974  33.343  25.187  11.271
68990W        W33975  17.830   1.816   4.124
68991W        W33976  11.750  44.517   1.253
68992W        W33977  13.042  19.035   4.165
68993W        W33978  33.283  31.970   0.831
68994W        W33979  20.926  23.170  10.427
68995W        W33980  35.453   2.834  12.805
68996W        W33981  30.035  38.455   4.565
68997W        W33982  29.590  10.330   3.592
68998W        W33983  39.632  15.185   3.627
68999W        W33984  41.059  39.108   4.449
69000W        W33985   0.702  36.217   2.268
69001W        W33986  44.093   1.142   3.847
69002W        W33987  28.710  31.615  14.005
69003W        W33988   8.912  42.270  11.584
69004W        W33989  38.101   9.097  12.543
69005W        W33990  15.137  15.702   4.564
69006W        W33991  40.626  35.927   1.923
69007W        W33992  38.053  37.229  14.815
69008W        W33993  18.800  22.461  14.924
69009W        W33994  33.163  10.393   3.652
69010W        W33995  11.650  34.582   2.140
69011W        W33996  37.568  34.807  10.832
69012W        W33997  23.468  40.120  12.944
69013W        W33998  17.821  16.871  10.681
69014W        W33999  35.053  33.979  13.462
69015W        W34000  30.190  20.130  11.193
69016W        W34001  18.135   2.434  10.769
69017W        W34002  13.542  39.496   3.748
69018W        W34003   1.819  20.564   1.239
69019W        W34004  21.749  22.565   2.402
69020W        W34005   8.600   8.111   1.731
69021W        W34006   7.680  31.695  13.933
69022W        W34007  40.551  26.412   1.919
69023W        W34008  18.327   1.982   4.560
69024W        W34009  18.222   6.731   2.819
69025W        W34010   1.907  40.512   0.729
69026W        W34011   6.770   5.228   1.738
69027W        W34012  41.738  20.652  14.506
69028W        W34013  17.498  34.295   1.887
69029W        W34014  12.178  44.555  12.521
69030W        W34015  12.249  23.049  11.993
69031W        W34016  30.537  40.723  10.696
69032W        W34017  10.728  14.514  11.025
69033W        W34018   8.477  38.058   3.483
69034W        W34019  26.272   6.710  13.297
69035W        W34020  10.853  12.814   0.422
69036W        W34021  34.047  15.633  12.222
69037W        W34022  31.942  41.951  11.237
69038W        W34023   6.273  37.050  10.917
69039W        W34024  21.498  29.244   3.697
69040W        W34025  44.875  36.432  11.268
69041W        W34026  10.348  14.684   1.256
69042W        W34027  35.027   1.868   2.915
69043W        W34028  31.466  37.773  13.343
69044W        W34029   3.167  40.996   0.795
69045W        W34030  10.636  38.442   4.515
69046W        W34031  18.847  28.466   0.415
69047W        W34032  17.595  23.998   2.136
69048W        W34033  27.991  32.040   0.081
69049W        W34034  35.971  32.356  13.431
69050W        W34035  22.355  30.378  14.917
69051W        W34036   5.131  10.247  11.597
69052W        W34037  42.065  10.593   2.323
69053W        W34038   5.443  29.109  11.546
69054W        W34039  40.989  33.743  10.182
69055W        W34040   9.780  24.514  12.088
69056W        W34041  30.256   8.467  13.799
69057W        W34042  17.768  22.561  11.041
69058W        W34043   0.821   7.194   3.613
69059W        W34044  13.612  22.752  14.743
69060W        W34045  29.527  43.096  12.499
69061W        W34046  39.665  28.269  14.023
69062W        W34047  26.678  29.451  12.981
69063W        W34048  21.153  36.132  12.412
69064W        W34049  37.753  44.950  12.892
69065W        W34050   1.691  18.961   1.344
69066W        W34051   2.857   4.159  13.184
69067W        W34052  35.456  20.673  11.090
69068W        W34053  16.641  21.585  14.522
69069W        W34054  35.007  29.991   4.113
69070W        W34055  18.947  18.998   2.481
69071W        W34056  16.240  37.917  10.925
69072W        W34057   4.392  32.458  11.979
69073W        W34058  20.264  43.400  14.053
69074W        W34059  41.141  33.619   3.682
69075W        W34060  30.280   4.804   5.078
69076W        W34061  41.108  19.233  13.035
69077W        W34062  18.555  38.309  12.918
69078W        W34063  31.897   1.738  14.968
69079W        W34064   9.204  29.896  13.035
69080W        W34065  30.051  41.825   2.718
69081W        W34066   8.497  15.812   1.852
69082W        W34067  22.294  33.642   3.346
69083W        W34068  30.175   1.904  13.465
69084W        W34069  16.953   7.183  14.981
69085W        W34070  22.623  37.566   3.654
69086W        W34071  20.691  29.441   3.221
69087W        W34072   4.809   4.035  10.203
69088W        W34073  30.993   1.543   3.084
69089W        W34074   4.271  10.789  10.498
69090W        W34075  17.175  43.217  13.197
69091W        W34076  31.107  15.935   5.302
69092W        W34077  33.628  41.587  11.117
69093W        W34078  41.519  29.518   2.875
69094W        W34079  14.213  44.028   0.869
69095W        W34080  44.578   0.847  12.457
69096W        W34081   8.162  38.099  10.704
69097W        W34082  41.472  13.412   1.766
69098W        W34083  40.772  16.099   2.312
69099W        W34084   4.468  36.105  13.905
69100W        W34085  31.162  43.779  11.564
69101W        W34086  35.629  11.902  11.737
69102W        W34087  44.454  15.599  14.124
69103W        W34088   2.672  30.686  13.216
69104W        W34089  18.406  25.730  11.085
69105W        W34090  37.243  39.500  12.240
69106W        W34091  23.491  17.601  14.474
69107W        W34092  20.133  13.727  11.029
69108W        W34093  24.430  13.166  13.890
69109W        W34094  39.989  13.126  11.667
69110W        W34095  31.834   6.040   1.821
69111W        W34096   7.221  24.913   1.016
69112W        W34097  21.953  31.535   4.655
69113W        W34098  12.614  22.646   4.855
69114W        W34099  42.984  22.205  14.263
69115W        W34100  26.026   3.922  14.453
69116W        W34101   1.015  20.552   0.253
69117W        W34102  15.961  41.459  13.799
69118W        W34103  31.589   2.931  11.933
69119W        W34104  14.742   1.557   0.744
69120W        W34105  14.140   5.941   2.637
69121W        W34106  34.914  20.501   4.343
69122W        W34107  13.724   5.738  12.431
69123W        W34108  11.896  43.896  14.002
69124W        W34109  10.885  14.356   4.056
69125W        W34110  28.788  44.269  13.445
69126W        W34111  36.076  14.883   3.184
69127W        W34112  41.580  41.085  13.953
69128W        W34113  44.521  34.490   5.470
69129W        W34114  30.413  18.100  10.523
69130W        W34115   6.015  37.138  13.513
69131W        W34116   1.336  38.005  14.027
69132W        W34117  40.970  36.211   2.274
69133W        W34118  21.343  19.606   1.238
69134W        W34119   2.200  13.891  12.066
69135W        W34120  29.034  13.771   3.620
69136W        W34121  39.941  37.309  13.809
69137W        W34122  35.991  17.244  13.963
69138W        W34123  25.507   5.553   1.450
69139W        W34124  21.687  18.304  11.237
69140W        W34125  20.001   4.441  14.513
69141W        W34126   8.954   8.832   0.367
69142W        W34127  12.158  32.873  11.174
69143W        W34128  20.248  28.448  10.729
69144W        W34129  41.647  21.245  10.402
69145W        W34130  44.389   8.159   1.378
69146W        W34131   1.431   9.156  14.548
69147W        W34132  26.851   6.276   0.386
69148W        W34133   2.982   8.430  12.048
69149W        W34134   7.350  16.167  11.588
69150W        W34135  12.227  41.706  12.772
69151W        W34136  19.578  21.558   2.005
69152W        W34137  18.724  39.891  14.407
69153W        W34138  13.630   5.598   3.301
69154W        W34139   5.317  21.380   2.773
69155W        W34140  18.672  14.830   3.859
69156W        W34141  40.099   6.698  13.963
69157W        W34142   2.775   8.620   0.348
69158W        W34143   1.351  16.462  11.585
69159W        W34144  41.554  38.469   0.903
69160W        W34145   6.701  44.908  14.986
69161W        W34146  17.707  41.069  14.866
69162W        W34147  37.430  12.165  13.562
69163W        W34148  42.541   7.482   2.260
69164W        W34149  34.601   8.409  11.683
69165W        W34150  22.273   2.104   2.153
69166W        W34151   0.830  26.259  12.992
69167W        W34152   9.806  31.018  11.915
69168W        W34153  34.957  11.661  11.513
69169W        W34154  28.538  18.530   1.890
69170W        W34155  33.493  17.995  11.055
69171W        W34156  17.922  33.401   3.410
69172W        W34157  27.027  44.041  13.841
69173W        W34158  20.624  11.713  11.478
69174W        W34159   5.865  31.676   2.169
69175W        W34160  40.925  29.083  11.737
69176W        W34161  20.712  17.666   3.122
69177W        W34162  23.668  23.665  11.160
69178W        W34163   2.017   1.261  13.637
69179W        W34164   3.383  24.766  11.911
69180W        W34165   7.094  27.617  10.882
69181W        W34166  42.614  38.343   2.874
69182W        W34167   6.834  13.557   2.617
69183W        W34168  18.540  18.180   0.666
69184W        W34169  34.781  34.543   2.679
69185W        W34170   8.367  42.955  13.493
69186W        W34171  22.021  25.938  12.134
69187W        W34172  20.052  44.717  13.466
69188W        W34173  11.276  17.860  14.964
69189W        W34174   6.206  34.339   1.790
69190W        W34175  37.956  30.507   3.648
69191W        W34176  30.749  44.294  14.528
69192W        W34177  12.612   1.861   0.467
69193W        W34178  33.060  34.793  11.973
69194W        W34179  12.828  31.976   0.474
69195W        W34180  40.269  30.581  11.241
69196W        W34181  16.745  16.095  14.477
69197W        W34182  30.215   6.607   2.813
69198W        W34183  34.421  34.501   4.580
69199W        W34184  31.559  31.341   3.365
69200W        W34185  40.499  33.497  12.945
69201W        W34186   4.231   4.189   0.657
69202W        W34187  19.954   5.882  14.374
69203W        W34188   2.300  10.708  14.797
69204W        W34189  26.557   6.431  12.430
69205W        W34190  22.730  40.314   0.204
69206W        W34191  19.866  11.610   1.997
69207W        W34192   0.086   3.009   3.119
69208W        W34193   3.557  18.150  10.668
69209W        W34194   1.844  39.545  13.517
69210W        W34195   2.436  26.581   1.360
69211W        W34196   7.413  33.257  12.688
69212W        W34197   2.964  13.662   4.039
69213W        W34198   1.352  20.655   0.647
69214W        W34199  29.680   0.829  14.393
69215W        W34200  35.070  23.431   2.286
69216W        W34201   0.863  18.755  14.762
69217W        W34202  34.099  20.337  14.077
69218W        W34203  37.074  15.519   1.743
69219W        W34204  23.643   4.165  10.697
69220W        W34205  34.210  36.964  11.076
69221W        W34206  32.137  20.058  12.523
69222W        W34207  10.084  12.208  14.022
69223W        W34208  24.110  43.950   5.353
69224W        W34209   3.769  13.361  13.036
69225W        W34210   2.386   9.403   1.197
69226W        W34211  11.078  37.913  11.483
69227W        W34212  24.220  12.296   1.392
69228W        W34213   4.847  17.459   2.331
69229W        W34214  14.468  34.430  12.487
69230W        W34215  27.057  26.116  10.343
69231W        W34216  19.320  17.800   0.439
69232W        W34217  44.411  14.008   4.052
69233W        W34218  10.738  15.094   0.908
69234W        W34219  44.380  25.189  12.917
69235W        W34220  31.155  35.854  12.030
69236W        W34221   9.633   7.739  11.288
69237W        W34222  29.868  10.348   2.590
69238W        W34223  29.561  28.123   2.373
69239W        W34224  12.587  25.464   4.885
69240W        W34225  11.795  32.174   2.213
69241W        W34226  41.673  19.508  11.558
69242W        W34227   4.714   3.506  11.959
69243W        W34228   1.374  16.686   4.680
69244W        W34229  38.234  20.253   3.287
69245W        W34230   4.814  38.148  14.787
69246W        W34231  16.079  39.424   4.482
69247W        W34232   5.591  42.348   0.182
69248W        W34233   9.441  19.587  12.845
69249W        W34234  17.273  12.086  11.981
69250W        W34235  11.246   5.445   2.305
69251W        W34236  22.721   1.178  10.544
69252W        W34237  22.513   3.799   3.476
69253W        W34238  11.596  13.198  14.016
69254W        W34239  34.103   5.538   0.866
69255W        W34240  10.398  33.779   2.778
69256W        W34241  16.222  10.721   0.289
69257W        W34242   8.270   0.340   3.795
69258W        W34243  43.074  34.877   3.223
69259W        W34244  31.837   5.568  11.469
69260W        W34245   0.884  37.007  14.953
69261W        W34246  30.041  15.273   4.619
69262W        W34247  37.429  13.909   4.120
69263W        W34248  18.366  25.122  11.701
69264W        W34249  18.204  18.549  11.677
69265W        W34250   3.473  31.950   1.249
69266W        W34251  25.655   2.072   2.238
69267W        W34252  14.274  32.498   1.973
69268W        W34253   4.460  14.580  12.108
69269W        W34254  20.935  27.692   4.159
69270W        W34255  19.752  37.023  14.947
69271W        W34256  44.499  38.058   1.903
69272W        W34257  19.456  23.242   1.193
69273W        W34258  24.164  19.694   3.181
69274W        W34259  18.489  37.889   3.249
69275W        W34260  41.130   4.357   3.653
69276W        W34261  12.613  43.366  10.683
69277W        W34262  19.891  10.335   0.761
69278W        W34263  43.747  27.690  12.444
69279W        W34264  39.565  40.523  13.723
69280W        W34265   6.669  25.589   2.067
69281W        W34266  32.063  19.519   0.300
69282W        W34267  39.863  20.043   0.760
69283W        W34268  11.634  34.400   1.669
69284W        W34269  44.714   0.495   2.020
69285W        W34270  37.961  30.999  12.494
69286W        W34271  38.988  21.949   2.084
69287W        W34272  34.880  20.665  14.906
69288W        W34273  28.435  23.097   2.404
69289W        W34274  11.557   2.486  12.168
69290W        W34275  43.016  30.538  14.309
69291W        W34276   1.411   7.210   0.283
69292W        W34277  18.275  22.546   1.612
69293W        W34278  16.663  29.632   5.561
69294W        W34279  24.989  12.227   4.069
69295W        W34280  44.857  16.276  14.447
69296W        W34281  17.817  29.042  11.553
69297W        W34282  27.647  21.540   1.420
69298W        W34283  32.690  30.881  14.914
69299W        W34284  40.258  41.504   1.968
69300W        W34285  10.539  39.103   9.984
69301W        W34286   7.231  41.932  12.952
69302W        W34287  16.837  31.666  14.456
69303W        W34288  31.154  22.429  10.952
69304W        W34289  38.714  38.416  14.536
69305W        W34290  39.395  44.521   4.142
69306W        W34291  20.371  40.441   4.744
69307W        W34292  37.096  38.986   3.821
69308W        W34293  27.659  20.332  14.664
69309W        W34294   9.628  11.702  10.708
69310W        W34295  33.834  34.104   4.162
69311W        W34296   4.686  25.446   2.131
69312W        W34297  27.549  29.166  14.795
69313W        W34298  23.341   2.254  10.756
69314W        W34299  13.699   6.512   3.717
69315W        W34300  30.795  16.751  10.721
69316W        W34301  18.197  18.334  14.297
69317W        W34302   6.678  24.967  12.639
69318W        W34303   7.531  28.023   4.126
69319W        W34304  44.473  24.689   9.886
69320W        W34305  19.185  21.770  12.846
69321W        W34306  21.650  14.302   4.321
69322W        W34307   0.994  16.729  11.964
69323W        W34308   7.486  24.693  13.461
69324W        W34309  20.504  32.409   1.220
69325W        W34310   3.814  41.701  11.650
69326W        W34311  14.759  36.892   2.755
69327W        W34312  25.531  23.488  14.550
69328W        W34313   0.501  29.011   1.316
69329W        W34314  39.330  11.249   2.337
69330W        W34315  38.610  28.399   2.307
69331W        W34316   1.688   8.174   4.538
69332W        W34317  17.647  20.951  14.924
69333W        W34318  12.989  21.786   2.844
69334W        W34319  39.821  44.688  11.526
69335W        W34320  41.271  40.757   0.922
69336W        W34321  30.944   3.905   2.123
69337W        W34322  31.301  28.828  13.455
69338W        W34323  22.206  24.134   1.251
69339W        W34324   2.417   2.813   0.660
69340W        W34325   7.174   4.922  12.408
69341W        W34326  14.770  23.579   0.763
69342W        W34327   0.772  12.155   1.602
69343W        W34328  39.520  36.433   0.638
69344W        W34329  11.584  38.606  12.711
69345W        W34330  37.881  20.782   4.430
69346W        W34331  42.992  38.807   1.341
69347W        W34332  27.112  42.865   4.133
69348W        W34333  27.202  11.276  13.739
69349W        W34334  19.541  26.090  13.229
69350W        W34335   1.749   5.328  11.155
69351W        W34336  32.317  34.293   1.628
69352W        W34337  38.793  44.167  14.046
69353W        W34338  44.696  31.520  10.595
69354W        W34339  44.220  41.438  12.265
69355W        W34340  39.718   5.713  13.290
69356W        W34341   3.257  34.607  11.080
69357W        W34342  29.247  26.665  10.804
69358W        W34343   2.763   7.421   3.181
69359W        W34344  43.988  22.526   2.792
69360W        W34345  19.708  43.118  10.686
69361W        W34346  18.048  34.842  13.109
69362W        W34347  40.491  31.835   1.450
69363W        W34348  27.333  41.410   1.604
69364W        W34349  27.666  16.270  13.146
69365W        W34350  23.131  19.283  10.699
69366W        W34351  16.696  13.812   3.083
69367W        W34352  38.215  18.236   1.345
69368W        W34353  18.477  15.341  11.055
69369W        W34354  22.606   2.906   0.828
69370W        W34355  36.617   6.670   0.805
69371W        W34356  32.350  21.844  11.397
69372W        W34357  43.112   5.790   4.042
69373W        W34358   8.683  36.055   1.925
69374W        W34359  31.095  43.266  12.593
69375W        W34360  21.492  41.529  11.630
69376W        W34361  16.529  26.676   0.324
69377W        W34362  40.323   0.976  10.761
69378W        W34363  27.378  18.169   3.203
69379W        W34364  14.057   7.889  11.545
69380W        W34365   8.782   4.705   1.705
69381W        W34366  24.062  11.195   2.291
69382W        W34367  14.072  15.602   3.347
69383W        W34368   9.473   3.245  11.001
69384W        W34369  11.902  12.414  10.791
69385W        W34370  11.022  32.734  12.985
69386W        W34371  34.067  34.404   1.374
69387W        W34372  35.047   1.837   0.660
69388W        W34373   5.480  31.528   0.783
69389W        W34374  18.088  35.029   2.720
69390W        W34375  15.824  17.066   4.509
69391W        W34376  24.092  36.825  13.391
69392W        W34377  27.056  40.343  11.228
69393W        W34378  39.694  34.353  10.917
69394W        W34379  28.174   6.401   4.379
69395W        W34380  28.733  12.842  14.008
69396W        W34381  25.285   1.919   1.224
69397W        W34382  39.234  14.806   2.751
69398W        W34383  43.019  24.680  10.693
69399W        W34384  43.041   4.338  12.610
69400W        W34385  44.855  35.869  12.469
69401W        W34386  34.846  13.804   0.257
69402W        W34387   8.338   2.799   4.606
69403W        W34388  32.786   6.429  13.333
69404W        W34389   6.051  39.929   0.475
69405W        W34390  27.083   9.702  10.724
69406W        W34391  39.313  34.873  11.649
69407W        W34392   9.776  35.779  14.937
69408W        W34393  33.339   4.439  10.317
69409W        W34394  35.926  20.299  14.231
69410W        W34395  18.049  32.090   4.286
69411W        W34396  18.655   0.428  14.550
69412W        W34397  38.535   5.809  12.612
69413W        W34398  10.112  14.620   0.751
69414W        W34399  18.757  43.790  11.161
69415W        W34400  25.464  33.551  11.265
69416W        W34401   4.396   0.732  12.425
69417W        W34402  20.666  23.770   1.404
69418W        W34403  28.622  19.689   4.605
69419W        W34404  38.652   0.538   2.729
69420W        W34405  26.932   4.385  14.707
69421W        W34406  10.865  42.781   3.637
69422W        W34407  16.988  44.113   0.765
69423W        W34408  42.077  10.808  13.608
69424W        W34409  41.450   6.324   3.021
69425W        W34410  42.950  19.465  13.640
69426W        W34411  20.592   1.918   1.363
69427W        W34412  24.281  37.145  12.097
69428W        W34413  24.822  24.709  13.369
69429W        W34414  22.673   9.720  11.967
69430W        W34415   3.799  33.387   1.152
69431W        W34416  41.946  28.683  12.459
69432W        W34417   1.148  26.148   1.405
69433W        W34418   9.045  24.501   3.152
69434W        W34419  24.474  19.551   2.245
69435W        W34420  35.930   5.923  12.537
69436W        W34421  42.730  22.225  10.068
69437W        W34422  18.971  44.321   0.150
69438W        W34423  10.251  18.933   0.270
69439W        W34424   2.948  13.278  13.357
69440W        W34425  28.618  43.897   4.029
69441W        W34426  22.239  39.064  13.032
69442W        W34427  33.602  11.467  10.297
69443W        W34428  25.488  32.911   0.006
69444W        W34429  31.891   0.430  14.801
69445W        W34430  22.165   5.368   4.232
69446W        W34431  27.013   2.495  10.109
69447W        W34432   7.846  43.053  13.488
69448W        W34433  26.714  32.065   4.082
69449W        W34434   2.132  24.730   2.895
69450W        W34435  44.611  30.976   1.416
69451W        W34436  33.175  39.616  10.683
69452W        W34437  34.506   5.172   0.750
69453W        W34438  40.735  20.491   5.017
69454W        W34439   3.978  21.166  12.506
69455W        W34440  41.641  23.424  10.894
69456W        W34441   4.282   5.762  12.117
69457W        W34442  13.361   4.162  13.135
69458W        W34443  25.225  36.262  12.990
69459W        W34444   2.852  42.335   3.758
69460W        W34445  27.526  18.090   2.288
69461W        W34446  10.423  17.201  14.429
69462W        W34447   9.133   2.871  14.865
69463W        W34448  26.129  36.819   2.729
69464W        W34449  41.068  31.680  11.511
69465W        W34450  39.583  16.684   0.194
69466W        W34451  19.044  39.527  11.485
69467W        W34452  19.273  16.740   3.150
69468W        W34453  24.928   0.833   4.204
69469W        W34454  25.854  37.186   1.295
69470W        W34455  19.651  33.155   3.283
69471W        W34456  29.984  30.031  10.867
69472W        W34457  29.211   6.857   1.453
69473W        W34458  18.561  19.498   0.336
69474W        W34459  44.295  28.740   4.689
69475W        W34460   1.730   4.923   0.507
69476W        W34461   4.766  37.666  13.867
69477W        W34462  16.744   3.440  14.477
69478W        W34463   7.701  26.591   5.147
69479W        W34464  24.700  31.346  14.907
69480W        W34465   9.382  21.144   2.193
69481W        W34466   1.721  36.006   0.810
69482W        W34467   6.813   7.807  14.329
69483W        W34468   7.159  18.299  13.876
69484W        W34469  36.343  26.735   0.821
69485W        W34470  13.862  27.213   0.906
69486W        W34471  24.390  37.816  12.911
69487W        W34472  30.980   8.903   0.856
69488W        W34473  18.062  16.052  11.787
69489W        W34474  24.109   7.363  12.920
69490W        W34475  10.164  12.392  10.676
69491W        W34476  43.273  23.551   3.117
69492W        W34477  29.719  31.325  10.168
69493W        W34478  10.059  39.511   0.786
69494W        W34479   7.774  42.516   0.362
69495W        W34480  16.632   8.160   2.674
69496W        W34481   8.664  16.699  12.505
69497W        W34482  40.897   5.139  12.003
69498W        W34483  31.013   5.755  11.115
69499W        W34484  15.527   3.278  13.935
69500W        W34485  32.977  40.525  11.953
69501W        W34486  32.253  43.329   1.327
69502W        W34487  18.619  36.395   0.288
69503W        W34488   2.059  37.145  11.400
69504W        W34489   5.934   5.405  13.347
69505W        W34490   8.219   4.464   2.249
69506W        W34491  39.728  35.000  13.435
69507W        W34492  23.544   6.772   4.152
69508W        W34493  40.506   2.827  13.048
69509W        W34494   4.721  34.547   0.727
69510W        W34495  24.056   4.935  13.697
69511W        W34496  36.328  30.357   4.154
69512W        W34497   3.863   7.126  10.107
69513W        W34498  23.296  23.291   1.376
69514W        W34499  44.332  27.459  13.511
69515W        W34500  43.271  11.679  12.099
69516W        W34501  12.877   0.529   4.434
69517W        W34502  16.319  24.201   0.950
69518W        W34503  19.372  11.278  13.496
69519W        W34504  38.509  12.980   2.694
69520W        W34505   0.555   7.285   2.768
69521W        W34506  21.214  27.706   2.737
69522W        W34507   8.483  11.481   4.331
69523W        W34508   1.966  26.194  14.781
69524W        W34509  43.339  34.010   4.119
69525W        W34510  40.879  40.523  12.490
69526W        W34511  26.894  26.143   3.631
69527W        W34512  34.692  17.322   1.248
69528W        W34513   6.202  44.905  11.110
69529W        W34514  12.648  38.910   1.742
69530W        W34515  32.827  13.816   0.148
69531W        W34516  36.897  22.729  14.850
69532W        W34517  19.551  19.105   0.353
69533W        W34518  28.167   3.390   3.620
69534W        W34519  15.291   4.259   4.960
69535W        W34520  27.272  43.888  13.393
69536W        W34521  27.417  42.827   2.354
69537W        W34522   1.219  17.235  14.985
69538W        W34523  17.569  13.719   1.858
69539W        W34524  41.724  26.237   3.276
69540W        W34525   2.205  43.454  11.589
69541W        W34526  20.517  44.730  14.214
69542W        W34527  29.949  12.665  12.965
69543W        W34528  26.108  21.319   2.730
69544W        W34529  32.828  43.439   0.678
69545W        W34530  32.546  21.187   1.897
69546W        W34531  32.625   1.687  13.299
69547W        W34532  19.112   9.795   4.734
69548W        W34533  16.019  14.054  11.239
69549W        W34534  26.536  19.284   1.230
69550W        W34535  31.117   0.770   1.964
69551W        W34536  28.974  15.750  11.981
69552W        W34537  11.112  13.260   2.840
69553W        W34538   7.322  28.903  13.073
69554W        W34539  35.487   4.191  12.841
69555W        W34540  41.302   0.498   0.240
69556W        W34541  32.836   2.472  12.332
69557W        W34542  39.896   4.306   4.096
69558W        W34543  13.261   6.611   0.028
69559W        W34544  34.267  36.109  13.001
69560W        W34545  31.293  35.342  11.192
69561W        W34546  30.797  38.973   3.728
69562W        W34547  35.454  13.827  11.444
69563W        W34548  21.950  20.202  14.337
69564W        W34549  41.201  12.860  11.658
69565W        W34550   6.658   9.537   4.539
69566W        W34551  16.571  30.948  12.109
69567W        W34552  31.055  18.547  14.824
69568W        W34553  18.221  35.478   4.015
69569W        W34554  19.369   6.074  10.691
69570W        W34555  18.584  41.411   4.244
69571W        W34556  17.631   7.796  14.771
69572W        W34557   2.843  30.193  13.296
69573W        W34558   1.072  13.622   4.111
69574W        W34559  16.041  22.067   3.795
69575W        W34560   4.936  44.881   1.266
69576W        W34561   1.372  17.681  14.452
69577W        W34562   4.894  22.167   3.698
69578W        W34563  39.957   4.911   0.245
69579W        W34564  18.757  34.081   4.438
69580W        W34565   4.399  38.793   2.182
69581W        W34566  15.610   4.534   0.895
69582W        W34567   3.667   5.368  14.767
69583W        W34568  14.792  20.835   3.403
69584W        W34569   1.722   3.641  10.682
69585W        W34570   7.552  33.538   2.687
69586W        W34571  17.466  43.306  13.626
69587W        W34572  30.919  23.242   2.090
69588W        W34573   6.008  11.691  11.752
69589W        W34574  19.704  33.199   0.313
69590W        W34575  33.429  29.396  13.281
69591W        W34576  29.883   7.856   4.600
69592W        W34577   1.354   7.951  11.663
69593W        W34578  23.485  18.607  13.427
69594W        W34579  13.196  18.784  10.563
69595W        W34580   1.498  27.466   4.077
69596W        W34581  43.972   4.835  10.824
69597W        W34582   2.997  11.653  12.148
69598W        W34583  43.063  30.335   0.718
69599W        W34584   3.536  32.051   2.473
69600W        W34585   2.027  10.337   1.566
69601W        W34586  16.254   9.908  12.163
69602W        W34587  37.943  32.566  13.698
69603W        W34588   2.437  30.337  14.218
69604W        W34589  15.328  39.032   3.600
69605W        W34590  13.391  36.928   2.668
69606W        W34591  36.914  37.831  10.763
69607W        W34592  12.676  11.802  14.300
69608W        W34593  29.221  24.347   2.106
69609W        W34594  35.066   6.122   4.920
69610W        W34595   3.289  24.951   2.736
69611W        W34596  13.079  41.078  11.470
69612W        W34597  15.240  30.473  12.579
69613W        W34598  20.608  10.298  14.919
69614W        W34599  38.611  12.313   0.296
69615W        W34600   2.018  21.479   3.183
69616W        W34601   4.566   2.544   1.931
69617W        W34602   3.888  41.602  12.140
69618W        W34603  25.761  35.934   2.265
69619W        W34604  38.379  18.701   1.231
69620W        W34605   6.858   3.523   0.060
69621W        W34606  26.585  12.049  11.674
69622W        W34607  30.907   2.998   0.744
69623W        W34608   1.085  31.403   0.702
69624W        W34609  30.143  24.150   0.359
69625W        W34610   0.562   5.686  12.065
69626W        W34611  25.042  12.648   4.378
69627W        W34612  35.845  41.494  13.545
69628W        W34613  24.663  20.741  12.349
69629W        W34614   7.174  29.453   1.768
69630W        W34615  32.921  25.045   0.502
69631W        W34616  33.071  24.763  11.950
69632W        W34617  19.840  34.404   1.444
69633W        W34618   2.370  21.489   2.768
69634W        W34619   9.595  14.329   1.762
69635W        W34620  37.950  10.941  12.477
69636W        W34621  16.180  13.446  14.094
69637W        W34622   1.174  18.122   2.275
69638W        W34623  21.219  24.286   1.388
69639W        W34624  15.012  32.445   2.841
69640W        W34625   9.607  34.860   3.217
69641W        W34626   4.365   9.099  13.986
69642W        W34627  43.236  22.185   4.551
69643W        W34628  21.743   7.364   2.458
69644W        W34629  44.301  24.731   3.400
69645W        W34630   2.881  19.643  12.134
69646W        W34631   5.173   5.146  14.450
69647W        W34632  10.265  29.390  12.538
69648W        W34633  44.672  11.201   0.224
69649W        W34634  13.089  19.695   2.460
69650W        W34635   5.444  14.063  12.147
69651W        W34636  37.583   6.378   5.386
69652W        W34637  40.519  19.177  11.070
69653W        W34638  19.459   6.037   3.818
69654W        W34639  35.119  29.159  14.374
69655W        W34640  31.429  16.600   1.686
69656W        W34641  36.440  22.245  13.992
69657W        W34642   5.439   9.437  10.229
69658W        W34643   8.118  16.739   2.012
69659W        W34644  15.583   4.960   3.143
69660W        W34645  21.594   0.728   3.108
69661W        W34646   3.769   0.950   2.418
69662W        W34647  20.016  38.987  13.990
69663W        W34648   4.796  43.406  12.464
69664W        W34649   3.986  43.382   1.279
69665W        W34650  24.918  19.376   4.198
69666W        W34651  10.864  11.497   4.252
69667W        W34652   0.274  10.795  11.555
69668W        W34653   3.968  40.881  13.469
69669W        W34654  39.536  24.864   3.280
69670W        W34655  35.747  15.161  12.490
69671W        W34656  44.946   3.493   1.806
69672W        W34657  36.005  28.047  13.511
69673W        W34658  41.513   6.334  13.465
69674W        W34659  36.918  37.939   3.404
69675W        W34660  26.991   8.242   4.596
69676W        W34661  13.052  18.226   2.666
69677W        W34662  33.541   2.980  14.803
69678W        W34663  11.167  43.029   3.230
69679W        W34664   6.828  35.557  13.528
69680W        W34665  27.876  12.000  13.918
69681W        W34666  26.879  22.618  12.601
69682W        W34667   4.874  26.902   3.263
69683W        W34668  29.651  44.490   2.318
69684W        W34669  28.020  21.633  11.409
69685W        W34670  13.251   7.112   2.168
69686W        W34671  28.650  16.534  11.197
69687W        W34672  40.389  29.441   1.248
69688W        W34673  44.757   7.101   0.719
69689W        W34674  29.555   4.811   0.463
69690W        W34675  31.013  16.658  11.568
69691W        W34676  27.740  23.171  11.655
69692W        W34677  13.628   9.177   3.569
69693W        W34678   0.024  38.673  10.930
69694W        W34679  24.074  13.320  12.439
69695W        W34680  37.068  44.793   3.433
69696W        W34681   8.673  33.225  11.148
69697W        W34682   4.991  33.997  13.934
69698W        W34683  12.598  43.349  12.078
69699W        W34684  10.253  31.664  11.016
69700W        W34685   1.479   8.158  12.885
69701W        W34686  17.623   9.733  14.804
69702W        W34687  31.317  20.231  14.317
69703W        W34688  18.770  27.135   2.133
69704W        W34689  19.416  25.740   0.237
69705W        W34690  36.963  25.701   2.650
69706W        W34691  34.016  23.542  11.113
69707W        W34692  38.573  33.709   0.049
69708W        W34693  16.069  14.496   2.064
69709W        W34694  42.299   8.848  12.952
69710W        W34695  22.906  30.541  10.207
69711W        W34696  11.715   8.186   2.756
69712W        W34697  32.976  22.643  13.977
69713W        W34698   0.746  19.365   3.742
69714W        W34699   7.496  15.625   3.200
69715W        W34700  33.868   0.898  10.762
69716W        W34701  44.370  43.586  10.685
69717W        W34702  41.770  28.135  13.377
69718W        W34703   6.205  20.200  11.702
69719W        W34704  42.508  19.803  10.658
69720W        W34705  32.417  14.750   3.968
69721W        W34706  40.415   0.343   2.786
69722W        W34707  14.796  12.314   2.052
69723W        W34708  22.051  39.465  11.778
69724W        W34709  39.655  32.295   2.349
69725W        W34710  12.117   4.927   0.916
69726W        W34711  28.674  31.470  12.489
69727W        W34712   2.146  29.618  13.847
69728W        W34713   7.073  16.586  11.444
69729W        W34714   8.718  31.660   2.570
69730W        W34715  30.687  31.500   2.811
69731W        W34716  11.922   6.848  11.947
69732W        W34717  26.002  31.894  13.277
69733W        W34718  44.010   4.492  12.394
69734W        W34719   1.739  28.002   4.900
69735W        W34720   9.308  14.193  14.033
69736W        W34721  32.358  31.055   1.415
69737W        W34722  15.668   0.061   1.916
69738W        W34723   9.367  42.741  10.511
69739W        W34724   4.937  40.026  13.247
69740W        W34725  15.542  10.150  10.622
69741W        W34726   5.653  20.767  13.386
69742W        W34727   0.752  33.116   0.024
69743W        W34728  22.248   4.430   3.201
69744W        W34729  31.965  30.779   4.705
69745W        W34730  20.570   2.390   1.583
69746W        W34731  37.856  22.816   0.935
69747W        W34732  43.714  37.493   4.619
69748W        W34733  31.564   8.899   3.166
69749W        W34734   8.293   3.757   0.332
69750W        W34735  27.477  41.576   0.182
69751W        W34736  29.263  31.441   4.703
69752W        W34737  14.604  12.283  12.101
69753W        W34738  31.648   8.456   0.340
69754W        W34739  31.550  39.611   0.951
69755W        W34740  11.841  18.122  10.499
69756W        W34741  40.834  12.594  11.199
69757W        W34742   1.273  26.296   3.249
69758W        W34743  20.941   3.634   0.435
69759W        W34744  30.796  19.976  12.585
69760W        W34745  41.444  10.248  13.811
69761W        W34746  23.623   0.919   1.331
69762W        W34747  11.413  24.497   1.412
69763W        W34748   4.439  15.851  10.939
69764W        W34749  27.009  35.778  12.040
69765W        W34750  28.141  38.511   4.565
69766W        W34751  15.365  15.212   4.690
69767W        W34752  29.049  21.271   0.462
69768W        W34753  43.588  18.982  11.666
69769W        W34754  26.466  30.305   1.340
69770W        W34755  28.742  32.735   2.020
69771W        W34756  21.133  25.937  12.941
69772W        W34757  40.594  40.279  10.363
69773W        W34758  38.982  20.865  12.063
69774W        W34759  28.348   2.533  11.687
69775W        W34760  27.713  37.606   4.279
69776W        W34761  22.184  42.791   0.285
69777W        W34762  41.786   7.494  14.762
69778W        W34763  29.447  32.936  12.478
69779W        W34764   6.789  44.345   1.936
69780W        W34765  38.496   4.975   2.697
69781W        W34766  34.118  31.863   1.663
69782W        W34767  12.283  42.889   0.454
69783W        W34768  21.202  33.014  13.873
69784W        W34769  30.920  24.516   1.351
69785W        W34770  27.564   4.495  11.613
69786W        W34771  10.214  10.081  12.450
69787W        W34772  27.531  36.761   4.450
69788W        W34773  40.081  17.780  12.477
69789W        W34774  39.931  26.664   2.787
69790W        W34775   9.804  22.835   4.518
69791W        W34776  10.912   5.976  10.132
69792W        W34777   5.833  35.806   0.727
69793W        W34778   3.912  18.716  13.166
69794W        W34779  42.429  15.221   1.295
69795W        W34780   5.818   9.383  14.348
69796W        W34781  40.065  14.167   0.415
69797W        W34782  41.065  43.052  11.036
69798W        W34783  40.445  27.648   0.843
69799W        W34784   9.004  19.885  10.839
69800W        W34785   6.088  29.432  11.000
69801W        W34786   4.394  23.268   1.908
69802W        W34787  14.647   3.910  12.589
69803W        W34788  21.923   1.255  12.943
69804W        W34789   3.220  24.215  12.489
69805W        W34790  21.691  19.104  14.437
69806W        W34791   4.793  20.106  13.304
69807W        W34792  23.703  26.255   2.845
69808W        W34793  10.456  18.532   0.532
69809W        W34794  26.885  40.548  12.865
69810W        W34795  36.483   4.563  10.487
69811W        W34796  20.263  36.246  13.751
69812W        W34797  22.708  23.937  14.388
69813W        W34798  25.637  16.066  12.126
69814W        W34799  28.588   3.650   2.229
69815W        W34800  23.906  29.903   2.356
69816W        W34801  11.345  30.608  13.827
69817W        W34802  22.142  31.347   0.671
69818W        W34803  17.852  13.277  14.091
69819W        W34804  16.074  39.345  13.852
69820W        W34805   0.215  26.792  14.014
69821W        W34806  18.714  20.651   0.843
69822W        W34807  44.676  12.170   2.833
69823W        W34808   9.203  18.002  11.159
69824W        W34809  33.501  35.096   1.837
69825W        W34810  40.384  31.541  13.827
69826W        W34811  18.733  23.684  14.960
69827W        W34812  14.708   7.732   0.445
69828W        W34813  25.031   7.094  14.413
69829W        W34814  10.344  31.192   0.867
69830W        W34815  10.375   9.250  12.066
69831W        W34816  24.927  15.634  10.557
69832W        W34817  10.155  21.730  11.546
69833W        W34818   5.278  25.717   0.779
69834W        W34819   1.288   3.647   2.653
69835W        W34820   9.739   9.984  13.078
69836W        W34821  21.157   6.810   2.065
69837W        W34822  21.261  44.189   2.097
69838W        W34823  19.404   7.959  11.085
69839W        W34824  15.392  12.543  10.795
69840W        W34825  25.452  25.394  11.059
69841W        W34826   0.530   2.893  14.600
69842W        W34827  30.397  28.954  14.059
69843W        W34828  41.628  13.541  12.217
69844W        W34829  31.901   1.371  11.155
69845W        W34830  30.137  36.926  14.748
69846W        W34831  28.930   3.675   4.147
69847W        W34832  36.558   1.773  12.465
69848W        W34833   0.877   4.873   5.114
69849W        W34834  22.341  41.458  14.550
69850W        W34835  29.943   3.254  13.913
69851W        W34836  37.497  32.416  13.435
69852W        W34837  21.476  38.514   2.387
69853W        W34838  31.593  30.855   3.216
69854W        W34839  25.372  41.310   1.255
69855W        W34840  28.755  34.615  14.385
69856W        W34841  23.186  30.628   1.971
69857W        W34842   6.612  34.525   1.530
69858W        W34843  14.513  31.831  11.888
69859W        W34844  39.500   8.960   0.266
69860W        W34845  35.551   2.521  13.187
69861W        W34846  27.939  32.639  10.637
69862W        W34847   5.477  42.388   1.048
69863W        W34848  35.871  10.392   4.239
69864W        W34849  42.204  19.269  12.019
69865W        W34850  15.089  39.031  14.347
69866W        W34851  36.653  42.121  13.622
69867W        W34852  23.788   7.743  12.483
69868W        W34853  10.840  15.833  11.449
69869W        W34854   6.985  23.498  12.062
69870W        W34855   6.373  39.531   4.915
69871W        W34856  18.240  35.914   4.294
69872W        W34857   2.569  33.090  12.450
69873W        W34858   8.347  13.168  14.970
69874W        W34859   9.835  36.558   1.724
69875W        W34860   8.090   4.045   5.095
69876W        W34861  37.055   5.429   1.426
69877W        W34862  34.462   4.295   2.062
69878W        W34863  17.317  16.586   3.269
69879W        W34864  15.606  33.261   1.877
69880W        W34865  26.647   3.813   0.262
69881W        W34866  10.640   9.479   0.928
69882W        W34867  43.917  20.227   4.146
69883W        W34868  18.571   9.062   1.177
69884W        W34869  20.694  19.102  14.335
69885W        W34870  20.505   9.146  14.693
69886W        W34871  27.481  23.981   0.256
69887W        W34872  38.254  24.453  11.581
69888W        W34873  30.293  28.299   3.303
69889W        W34874  32.405  17.255  13.963
69890W        W34875  38.129  34.167   1.219
69891W        W34876  26.233   0.846   2.938
69892W        W34877  31.680   2.979   0.029
69893W        W34878  15.546   3.208   2.175
69894W        W34879   4.338  13.258   2.804
69895W        W34880  43.656   4.512  12.031
69896W        W34881  22.345  35.987   3.660
69897W        W34882   2.606  24.616   2.242
69898W        W34883  37.508  20.705  11.045
69899W        W34884   2.257  42.934  14.959
69900W        W34885  12.839  30.048  11.479
69901W        W34886   9.861   9.297  11.778
69902W        W34887  15.765  33.404  11.179
69903W        W34888  38.063  19.995  13.322
69904W        W34889  21.324   6.729  13.054
69905W        W34890  30.650   5.647  12.029
69906W        W34891  38.006   3.395   3.597
69907W        W34892   2.805  19.941   3.715
69908W        W34893  18.266  34.077  13.457
69909W        W34894  22.454  23.435   0.197
69910W        W34895  38.375  40.296   1.924
69911W        W34896  30.773  40.266   4.100
69912W        W34897  10.312  25.113  12.514
69913W        W34898  20.510  18.544   0.411
69914W        W34899  13.832  20.458  13.422
69915W        W34900  12.725  39.804  11.573
69916W        W34901   3.020   5.196  10.837
69917W        W34902  27.528  34.860  13.576
69918W        W34903  40.861  14.702   1.164
69919W        W34904  32.596  42.243   0.032
69920W        W34905  42.325  33.990  13.441
69921W        W34906  33.135  26.184  10.791
69922W        W34907  11.041  32.963   2.806
69923W        W34908   9.170  42.981   4.196
69924W        W34909  40.432  39.859   3.314
69925W        W34910  25.166  37.774   4.604
69926W        W34911  17.664  21.305   1.797
69927W        W34912  25.580  22.162   2.673
69928W        W34913  38.593   9.686   3.192
69929W        W34914  14.578  12.825  13.026
69930W        W34915  39.359  31.262  14.379
69931W        W34916  10.034  25.385  12.177
69932W        W34917   8.885   1.986   0.148
69933W        W34918  21.976   6.679  12.524
69934W        W34919  36.479  17.231  10.393
69935W        W34920   8.569   8.286   0.300
69936W        W34921  24.633  15.565   0.494
69937W        W34922   8.348  40.477  14.776
69938W        W34923  42.363  19.508   1.168
69939W        W34924  36.380  28.951  13.966
69940W        W34925  40.034   5.104  11.509
69941W        W34926   5.362   6.501  12.843
69942W        W34927  11.592  22.471  13.921
69943W        W34928  24.220   8.231  10.746
69944W        W34929  36.478   8.365  12.471
69945W        W34930  42.265  22.627   4.493
69946W        W34931  40.318  19.677  11.968
69947W        W34932  16.999  27.637   2.138
69948W        W34933  10.146  20.171  12.927
69949W        W34934  41.966  16.523  12.139
69950W        W34935  29.599  28.359  11.603
69951W        W34936  39.305  11.598  14.419
69952W        W34937  11.345   6.293   3.114
69953W        W34938  11.721   7.289   5.020
69954W        W34939  20.340  16.249   5.022
69955W        W34940  42.995  41.449   3.158
69956W        W34941  30.002   5.354  12.374
69957W        W34942   6.327   5.693   3.083
69958W        W34943  28.361  19.513   3.590
69959W        W34944  16.977  34.390   1.881
69960W        W34945  16.243   7.980   4.958
69961W        W34946  24.763  41.858   2.586
69962W        W34947  30.785  11.663   4.073
69963W        W34948  25.007  35.188  11.441
69964W        W34949  33.065  12.407   4.638
69965W        W34950   2.379  38.621  10.592
69966W        W34951  33.610  19.814   2.534
69967W        W34952   2.755  29.227   2.852
69968W        W34953  19.673  36.333   2.668
69969W        W34954   3.232  31.182   4.046
69970W        W34955  33.899  12.835   4.995
69971W        W34956  42.953  44.288   4.630
69972W        W34957  11.220  41.450   1.131
69973W        W34958  31.351  27.093  11.561
69974W        W34959  40.988  27.581  13.410
69975W        W34960  44.833  40.788   2.373
69976W        W34961  29.199  32.814   2.874
69977W        W34962  23.929  31.582  11.018
69978W        W34963  39.499  35.456  12.485
69979W        W34964  20.581   0.987   1.263
69980W        W34965  15.587  12.378   0.264
69981W        W34966  27.709  34.010   1.414
69982W        W34967   5.951   3.778   0.002
69983W        W34968  38.969  31.195   4.051
69984W        W34969  20.479  40.347  10.605
69985W        W34970  24.619  37.761   2.714
69986W        W34971  14.744  30.012  13.013
69987W        W34972  17.846  17.679   0.778
69988W        W34973  44.999  36.782   2.733
69989W        W34974  36.108  24.996   2.811
69990W        W34975  34.894  26.651   1.951
69991W        W34976  22.559   6.701   4.748
69992W        W34977   4.854   2.913  13.478
69993W        W34978  25.225  36.582  13.569
69994W        W34979  10.413   1.815   4.836
69995W        W34980  12.691   5.295  12.918
69996W        W34981  37.022  12.930   3.843
69997W        W34982  21.347   8.390   3.711
69998W        W34983  33.595   4.307   2.597
69999W        W34984  31.923  40.523  14.693
70000W        W34985   5.839  41.027   3.773
70001W        W34986  33.338  38.024   1.684
70002W        W34987   7.221   0.756  12.970
70003W        W34988  42.205  37.456   3.114
70004W        W34989  16.008  27.499   0.056
70005W        W34990  16.339   8.804  11.986
70006W        W34991  30.484  41.970  12.545
70007W        W34992   1.966   8.015   2.390
70008W        W34993  26.934  18.522  12.344
70009W        W34994  33.046  16.620  11.279
70010W        W34995   5.158   4.689  14.194
70011W        W34996  41.885  41.339   4.168
70012W        W34997  29.403   8.277   1.407
70013W        W34998  23.649  30.367   1.329
70014W        W34999   6.401  15.196  13.368
70015W        W35000  24.570  20.199   4.460
70016W        W35001  14.535  39.253  12.926
70017W        W35002  37.375  37.961   4.449
70018W        W35003  31.604  34.423   3.336
70019W        W35004  14.670  12.826   3.879
70020W        W35005  21.488  16.015  11.582
70021W        W35006   0.056  23.571  10.184
70022W        W35007   0.016  24.051   3.743
70023W        W35008  40.603   3.503   2.264
70024W        W35009  11.328  37.531  11.186
70025W        W35010  30.787  32.693   2.437
70026W        W35011  43.888  34.014  13.298
70027W        W35012   3.290   8.900   3.682
70028W        W35013   0.237  33.523   3.702
70029W        W35014   7.494  38.832   3.099
70030W        W35015  20.210  15.541   0.223
70031W        W35016  42.816  35.061  14.198
70032W        W35017  27.865  37.106  14.312
70033W        W35018   8.576  19.354   3.457
70034W        W35019  30.981  26.109  13.452
70035W        W35020  38.710  24.510   0.174
70036W        W35021   7.828  13.730   3.187
70037W        W35022  31.554  13.460  12.496
70038W        W35023  22.140  26.023   1.674
70039W        W35024  37.132   5.173  11.431
70040W        W35025  32.627  19.540  14.194
70041W        W35026  26.068   7.466  14.809
70042W        W35027  35.422  35.850   3.995
70043W        W35028  19.097  29.895   4.401
70044W        W35029  14.549   6.292   1.521
70045W        W35030  21.179  21.041  14.904
70046W        W35031  17.733  28.428   4.116
70047W        W35032  43.551   3.242   4.081
70048W        W35033   4.098   8.051   1.101
70049W        W35034  37.992  43.517  13.993
70050W        W35035  42.817  43.078   3.078
70051W        W35036  13.140  38.745   2.699
70052W        W35037  42.390  33.723   1.358
70053W        W35038   2.704  36.629  11.113
70054W        W35039   8.050  27.805  12.745
70055W        W35040   8.265  42.752  10.585
70056W        W35041  32.378  34.511   2.665
70057W        W35042  38.871  16.894  12.035
70058W        W35043   7.488  22.145  11.204
70059W        W35044   3.733  22.185   1.718
70060W        W35045   0.172  26.470   4.925
70061W        W35046  23.474  24.169   4.502
70062W        W35047  33.957  20.271   4.219
70063W        W35048  19.189  12.428  12.121
70064W        W35049  27.833  43.952   1.265
70065W        W35050   8.777   3.980   0.452
70066W        W35051  12.188  43.455  14.023
70067W        W35052  10.061  31.388   4.515
70068W        W35053  32.009  10.870  12.145
70069W        W35054   5.895  17.766   3.259
70070W        W35055  42.299  24.490   4.548
70071W        W35056  40.369  32.258  10.425
70072W        W35057  40.809  26.172   2.290
70073W        W35058  29.573  35.193   4.511
70074W        W35059  17.605  19.493   0.164
70075W        W35060  27.098  31.808   1.188
70076W        W35061   9.135  13.824  13.714
70077W        W35062   4.328   7.982  13.188
70078W        W35063   0.243  34.141   2.318
70079W        W35064  18.578  14.359  11.136
70080W        W35065  42.086  30.547  13.387
70081W        W35066  21.736  36.824   3.740
70082W        W35067   8.125  40.336  12.990
70083W        W35068  26.251  29.483   1.281
70084W        W35069  32.455  37.480  11.256
70085W        W35070  37.487  19.209   4.889
70086W        W35071   8.339  27.617  11.493
70087W        W35072  33.853  22.717   4.912
70088W        W35073  43.046  19.222   4.410
70089W        W35074  24.795  32.475   4.151
70090W        W35075  15.703  27.106   1.129
70091W        W35076  44.392   1.291   0.303
70092W        W35077  27.507  11.340   4.117
70093W        W35078  19.023  32.409  14.383
70094W        W35079  22.225  30.906  13.055
70095W        W35080   1.189  21.087   1.414
70096W        W35081  34.591  37.322   0.720
70097W        W35082  11.324   3.251   2.475
70098W        W35083  18.518  18.245   1.200
70099W        W35084   3.419  23.143   3.668
70100W        W35085  43.871  20.138   3.112
70101W        W35086  24.256  14.687  13.494
70102W        W35087  10.368  42.353   0.964
70103W        W35088   5.716  29.014   3.315
70104W        W35089  14.475  30.068   2.156
70105W        W35090  42.970  24.932   3.174
70106W        W35091  19.944  39.934  11.680
70107W        W35092  12.157   8.862  11.048
70108W        W35093  30.075  39.029   1.801
70109W        W35094  43.027  43.542   3.086
70110W        W35095   3.169  35.879   2.861
70111W        W35096  38.944  33.437  14.233
70112W        W35097  15.083   4.268   4.417
70113W        W35098   2.999  38.236  11.981
70114W        W35099   8.792  43.942  12.959
70115W        W35100  17.662  30.708  11.592
70116W        W35101  22.646  17.242  12.099
70117W        W35102  43.822  42.999   3.580
70118W        W35103  28.137   5.910   3.696
70119W        W35104   0.816  22.189  10.952
70120W        W35105  14.248  36.649   1.746
70121W        W35106   3.318   6.921   4.567
70122W        W35107  23.079  31.418  13.892
70123W        W35108   6.651   6.197   2.360
70124W        W35109  31.536  28.448  12.460
70125W        W35110  12.344  18.096  13.038
70126W        W35111   9.854  10.389   3.699
70127W        W35112  35.457  19.751  14.855
70128W        W35113   7.363  21.821   3.671
70129W        W35114  36.969  10.447   0.465
70130W        W35115  37.758   2.940   1.609
70131W        W35116   5.857  26.834   2.570
70132W        W35117  20.799  23.334   3.177
70133W        W35118  34.575  37.253  14.446
70134W        W35119  15.571  15.686   3.206
70135W        W35120  23.623  39.418  11.675
70136W        W35121   5.485  29.189   1.284
70137W        W35122   5.113  21.587  11.905
70138W        W35123   4.030  41.765  11.207
70139W        W35124  18.829   0.039   4.450
70140W        W35125   5.724   6.502   4.146
70141W        W35126  20.748   7.464   2.366
70142W        W35127  26.333  43.925   2.217
70143W        W35128  31.116   1.585   4.925
70144W        W35129   6.881  37.792   1.977
70145W        W35130  30.035  41.350  10.445
70146W        W35131   1.495  29.968   2.774
70147W        W35132   1.744  21.564   2.158
70148W        W35133  17.700  16.627   3.623
70149W        W35134   3.634  21.126   3.237
70150W        W35135  16.548   4.810  12.899
70151W        W35136  41.982  10.426   4.351
70152W        W35137   5.167  29.347  11.190
70153W        W35138  13.861  16.698  12.312
70154W        W35139  18.797  22.157   4.176
70155W        W35140  35.549  24.702   0.915
70156W        W35141  10.374   5.851  12.977
70157W        W35142   1.647  37.637   5.100
70158W        W35143  16.246  17.571  12.896
70159W        W35144  42.377  44.086  11.512
70160W        W35145  40.074  22.971  12.933
70161W        W35146  28.382   5.883  14.028
70162W        W35147  17.172  12.339   1.274
70163W        W35148  11.911  14.383  11.878
70164W        W35149  10.631  40.117  14.729
70165W        W35150   6.681  41.428  13.218
70166W        W35151   4.812   9.226   3.244
70167W        W35152  41.030  40.066   3.698
70168W        W35153  38.311  42.856  14.910
70169W        W35154  42.385   7.121   0.970
70170W        W35155  24.286  43.365  12.395
70171W        W35156   1.292  24.734  12.986
70172W        W35157  24.005  22.482  10.608
70173W        W35158  28.443  40.274   2.411
70174W        W35159   2.203  41.633   2.314
70175W        W35160  35.269  19.997   3.767
70176W        W35161  16.565  26.601   3.306
70177W        W35162   0.211  18.284   5.193
70178W        W35163  18.124  22.231   2.857
70179W        W35164  35.995  40.979   2.916
70180W        W35165  40.268  31.598   1.860
70181W        W35166  43.789  44.954  11.674
70182W        W35167  36.170  35.014  11.417
70183W        W35168  40.795  35.476   0.155
70184W        W35169  22.975  13.794  12.436
70185W        W35170  12.437   7.843   3.631
70186W        W35171  32.171   5.883  12.398
70187W        W35172   0.293  43.506  10.654
70188W        W35173  39.176  26.690   1.716
70189W        W35174  10.887  16.074  14.798
70190W        W35175   1.581   4.708  14.011
70191W        W35176   6.649  27.436   2.222
70192W        W35177  18.077  44.536  13.427
70193W        W35178   5.852  43.614   1.770
70194W        W35179  29.989   8.620   1.751
70195W        W35180  27.917   8.861   3.651
70196W        W35181  23.600   4.710   1.356
70197W        W35182  13.916  26.044  10.579
70198W        W35183   0.322  33.507  10.423
70199W        W35184  37.911  29.958  14.113
70200W        W35185  22.042  21.640   1.657
70201W        W35186  29.823   0.144   3.671
70202W        W35187  24.526  35.987  13.474
70203W        W35188  25.068  30.489  11.922
70204W        W35189  18.076  15.899  14.525
70205W        W35190  10.354  20.605  14.488
70206W        W35191  15.022  11.925  14.305
70207W        W35192  21.103  21.609   2.206
70208W        W35193  25.706  15.303   2.752
70209W        W35194   8.803  20.176  12.268
70210W        W35195  34.314  44.819  13.556
70211W        W35196   7.193  24.203   0.822
70212W        W35197   2.234   7.661  12.085
70213W        W35198  36.561  31.551  13.356
70214W        W35199  15.516   3.406   1.607
70215W        W35200  40.812  22.919  12.391
70216W        W35201  31.389  41.892  10.470
70217W        W35202   5.390  43.602   4.148
70218W        W35203  33.944   4.290   3.807
70219W        W35204  24.774  14.552  13.523
70220W        W35205  37.935   4.412  13.891
70221W        W35206  37.347  36.123  11.481
70222W        W35207  33.907  32.579  12.157
70223W        W35208   1.357   4.169   2.819
70224W        W35209  24.524  39.685  12.483
70225W        W35210  30.811  15.658  11.620
70226W        W35211  29.027   6.978  14.419
70227W        W35212  30.475   0.463  13.611
70228W        W35213  14.069  35.832   3.553
70229W        W35214  19.637  23.761  11.897
70230W        W35215   6.124  20.741  13.623
70231W        W35216  11.662   1.269  14.876
70232W        W35217  13.168  27.750  14.535
70233W        W35218   3.772  24.789   2.883
70234W        W35219   6.770  40.590  11.188
70235W        W35220   9.172  25.479  10.831
70236W        W35221  26.914  14.307   1.240
70237W        W35222  44.658  34.044   3.399
70238W        W35223   2.195  44.929   0.533
70239W        W35224  29.391  34.579  11.044
70240W        W35225   3.076  29.371  10.711
70241W        W35226  32.422  37.387  13.037
70242W        W35227  31.680  23.565  10.354
70243W        W35228  21.633   7.026   4.727
70244W        W35229  36.001  36.395   2.321
70245W        W35230  38.353  26.499   3.668
70246W        W35231   6.077  42.198   0.323
70247W        W35232  28.403   7.799  12.992
70248W        W35233   7.366   1.907   4.572
70249W        W35234  34.022  32.919  13.537
70250W        W35235  11.246   1.048  13.072
70251W        W35236  37.047  18.646  14.955
70252W        W35237  29.748   4.201   9.970
70253W        W35238  38.438  22.999  12.508
70254W        W35239  21.299  40.256  11.020
70255W        W35240  34.865   0.731  11.515
70256W        W35241  25.654  32.495  14.207
70257W        W35242  11.817   4.020  11.554
70258W        W35243   0.032  32.749  10.891
70259W        W35244  29.342  18.347   4.406
70260W        W35245  33.367  25.133  14.607
70261W        W35246  26.474  26.484  11.075
70262W        W35247  33.682  26.129  10.815
70263W        W35248  37.480  20.256  14.352
70264W        W35249  38.615   0.465   0.969
70265W        W35250  10.206  16.831   2.233
70266W        W35251  42.466  33.849   2.732
70267W        W35252  19.285  12.628  14.985
70268W        W35253   1.859  35.031   1.345
70269W        W35254  22.769  44.485   0.694
70270W        W35255   3.295  20.195   2.995
70271W        W35256   4.476  35.891  12.577
70272W        W35257   2.491  19.726  14.440
70273W        W35258  40.045  42.910   2.759
70274W        W35259  10.179  23.017  10.750
70275W        W35260  27.417  41.790  12.355
70276W        W35261   5.885  37.384  10.997
70277W        W35262  31.364  41.309  12.986
70278W        W35263  26.991  22.140   3.330
70279W        W35264   2.301  40.167   4.566
70280W        W35265   8.404   0.259  10.693
70281W        W35266   0.437   2.457  10.721
70282W        W35267  43.389  44.234   0.422
70283W        W35268  35.313  38.939   1.302
70284W        W35269  37.591  13.414   4.091
70285W        W35270  26.237  26.603  14.309
70286W        W35271   7.182   1.083   1.861
70287W        W35272   1.944  35.675  14.958
70288W        W35273  38.377  21.302  10.294
70289W        W35274  13.939  19.357   3.930
70290W        W35275   1.549  33.044  14.505
70291W        W35276  12.010  31.715  14.954
70292W        W35277  15.503  44.871   4.126
70293W        W35278   1.686  22.969  10.624
70294W        W35279  24.020  27.237   2.178
70295W        W35280  31.458  17.829  11.193
70296W        W35281  44.309   6.495  10.738
70297W        W35282  11.437  26.935   3.750
70298W        W35283  24.052  35.842   0.276
70299W        W35284   1.485  40.012  10.786
70300W        W35285   7.314  25.715  11.006
70301W        W35286   7.670  38.577  14.838
70302W        W35287   0.524  23.314  11.594
70303W        W35288  17.821   5.563   0.364
70304W        W35289  39.438   0.227  14.799
70305W        W35290  43.174  41.367   2.659
70306W        W35291  30.519  39.317   4.401
70307W        W35292   0.366  26.781  11.020
70308W        W35293  16.332  10.109   3.700
70309W        W35294  26.437  13.077   3.324
70310W        W35295  23.987  38.435  10.710
70311W        W35296  11.613  10.446   4.673
70312W        W35297  28.545  25.169  11.878
70313W        W35298  21.514  30.312  14.466
70314W        W35299  13.234  34.614   0.457
70315W        W35300  33.431  39.368  11.656
70316W        W35301  30.429  15.569   2.126
70317W        W35302  14.259   6.488  14.809
70318W        W35303  37.274   2.783  12.116
70319W        W35304  18.259  38.876   4.177
70320W        W35305  14.361  36.795  14.307
70321W        W35306  42.402  34.865  13.550
70322W        W35307  22.325  39.113  10.023
70323W        W35308  12.717  32.513  14.752
70324W        W35309  43.256  17.715  10.354
70325W        W35310  41.975  12.104  14.225
70326W        W35311   8.127  31.157   1.781
70327W        W35312   4.728  21.521  12.682
70328W        W35313  24.067  20.981  13.489
70329W        W35314  44.907  44.747   2.584
70330W        W35315  15.626  22.617   0.315
70331W        W35316  18.281  31.052  14.564
70332W        W35317  32.157  27.941  11.522
70333W        W35318  23.946  14.592   2.782
70334W        W35319  32.903  15.759   1.697
70335W        W35320  13.219  42.843   2.742
70336W        W35321  21.463  32.391   5.012
70337W        W35322  37.914  13.796   4.234
70338W        W35323  34.166  17.059  12.696
70339W        W35324  20.519  41.908  13.495
70340W        W35325  17.150   6.451  13.375
70341W        W35326  15.091  11.230  14.900
70342W        W35327  29.780  18.450   4.085
70343W        W35328  29.520  19.215   2.142
70344W        W35329  12.942  15.260   1.797
70345W        W35330   0.625  40.591  14.411
70346W        W35331  29.082  13.249   4.350
70347W        W35332  21.791  44.827  13.026
70348W        W35333  12.160  28.127   3.390
70349W        W35334  42.284   6.659  11.363
70350W        W35335  27.264  25.137  12.689
70351W        W35336  32.328  13.933   3.835
70352W        W35337   5.827  23.255   3.370
70353W        W35338  22.495  26.199  13.456
70354W        W35339  19.044   3.925   3.756
70355W        W35340  33.964  44.116  13.607
70356W        W35341  20.278   9.854  12.628
70357W        W35342  21.031  14.809  11.588
70358W        W35343   0.452   3.264   2.820
70359W        W35344  12.651   4.415  12.459
70360W        W35345  42.636   0.248   2.654
70361W        W35346  33.826   5.298  14.575
70362W        W35347  29.396  42.896   0.358
70363W        W35348  38.366  19.452   0.808
70364W        W35349   3.783  35.570  14.724
70365W        W35350  21.682  13.603   4.765
70366W        W35351  35.656  13.042   3.662
70367W        W35352  39.004  29.372   1.879
70368W        W35353  17.430  38.513   2.865
70369W        W35354   5.515  15.332  14.960
70370W        W35355  10.207  38.146  14.361
70371W        W35356  11.411  20.351  13.631
70372W        W35357  41.722  17.091   3.105
70373W        W35358  15.557   5.361  13.546
70374W        W35359  37.130  30.450   2.654
70375W        W35360  34.092  42.701  13.550
70376W        W35361  38.286  32.046  12.618
70377W        W35362  32.993  36.981   2.349
70378W        W35363  33.584  42.966  10.144
70379W        W35364  24.133  41.253  12.517
70380W        W35365  17.355  38.703   5.077
70381W        W35366  23.112   3.268   1.873
70382W        W35367   5.297  42.115  12.842
70383W        W35368  18.442  36.753  13.628
70384W        W35369  32.089  30.780   4.207
70385W        W35370  11.431  31.306   2.241
70386W        W35371  43.822  30.741  12.645
70387W        W35372  42.071   9.370  10.618
70388W        W35373  20.780  25.700  13.332
70389W        W35374  43.739  34.126   2.247
70390W        W35375  44.051   5.673   1.246
70391W        W35376  41.884  37.948  12.031
70392W        W35377  23.163   4.958   2.869
70393W        W35378  35.162  14.475  14.496
70394W        W35379  25.277  33.950  13.056
70395W        W35380  14.577   8.780   0.937
70396W        W35381  30.669  29.524  14.920
70397W        W35382   3.231   2.753  12.983
70398W        W35383  11.450  30.986   2.682
70399W        W35384  43.808   2.486  11.835
70400W        W35385  30.592  35.611  10.497
70401W        W35386  22.700  16.273  10.658
70402W        W35387   6.064   6.898   4.996
70403W        W35388  34.192  11.741  12.064
70404W        W35389  24.252  24.590   1.359
70405W        W35390   2.541  38.430   1.322
70406W        W35391   2.394  36.368   1.312
70407W        W35392   2.459  38.480   2.046
70408W        W35393  22.570   7.532  14.039
70409W        W35394  32.834   2.573   1.425
70410W        W35395  20.396   8.840   1.536
70411W        W35396  35.272  43.204  11.615
70412W        W35397  17.100  38.290   2.498
70413W        W35398  31.544   3.990   3.248
70414W        W35399  30.378  11.245  11.448
70415W        W35400   0.363  39.651   1.172
70416W        W35401  34.715  22.807   3.804
70417W        W35402  16.668  29.793  13.038
70418W        W35403  39.420  15.847   1.914
70419W        W35404  29.938  19.254  11.172
70420W        W35405  30.524   0.225  11.019
70421W        W35406  25.520  20.106   0.912
70422W        W35407  42.401  17.751  12.170
70423W        W35408   8.554  28.266  12.007
70424W        W35409  30.436   7.764  11.762
70425W        W35410   0.416  31.731   1.417
70426W        W35411  33.061  31.405  14.402
70427W        W35412  26.694   9.320   0.470
70428W        W35413  21.811   9.844   2.704
70429W        W35414  27.665  32.693   0.664
70430W        W35415  21.056  21.270   4.086
70431W        W35416  25.231  24.105  14.400
70432W        W35417   4.977  31.685  11.053
70433W        W35418  43.935   5.963  14.419
70434W        W35419  17.956  39.953  11.215
70435W        W35420   1.670  31.832  10.341
70436W        W35421   2.363   7.075   0.959
70437W        W35422  44.495  44.375  12.007
70438W        W35423   8.455  26.284   3.191
70439W        W35424  26.966  35.953   4.290
70440W        W35425  31.413  41.694  12.004
70441W        W35426  36.043  41.457   2.357
70442W        W35427  34.290  38.133   4.074
70443W        W35428  22.261   6.619   0.810
70444W        W35429  33.335   6.774  11.778
70445W        W35430   3.233  43.958  10.603
70446W        W35431  23.918   1.690   4.849
70447W        W35432  26.024   6.729   0.425
70448W        W35433  42.086  15.227   3.622
70449W        W35434  27.661   6.692  13.407
70450W        W35435  19.849  29.490  13.062
70451W        W35436  25.970  28.647   1.355
70452W        W35437  40.314  32.612   0.788
70453W        W35438  23.076  43.758  14.236
70454W        W35439   4.546  19.056  11.970
70455W        W35440  13.996  24.544  12.934
70456W        W35441  34.630  14.086  11.099
70457W        W35442  25.711  28.466   1.761
70458W        W35443  10.461  32.569  14.430
70459W        W35444   0.634  14.820   3.679
70460W        W35445   4.056   6.505  12.560
70461W        W35446  24.253  11.351  12.900
70462W        W35447  40.648  15.075   4.465
70463W        W35448  35.033   8.652  14.725
70464W        W35449  15.657  43.450  10.104
70465W        W35450   6.293  11.877  13.572
70466W        W35451  29.465  41.579  14.320
70467W        W35452  35.927  18.171  11.987
70468W        W35453  24.457  15.217  12.656
70469W        W35454   1.656  26.591   2.524
70470W        W35455  26.721  38.824   4.074
70471W        W35456   8.780  40.102  14.788
70472W        W35457  33.009  39.954   1.885
70473W        W35458  22.936  42.875   2.197
70474W        W35459  32.977  19.636   0.775
70475W        W35460  27.625  31.478  11.582
70476W        W35461   8.117  20.145   2.098
70477W        W35462   0.720  15.283  14.442
70478W        W35463   3.487  40.496  13.936
70479W        W35464   0.823  38.049  11.569
70480W        W35465  14.328  31.888   4.059
70481W        W35466  39.787  20.912  12.474
70482W        W35467  11.772  23.506  12.638
70483W        W35468  28.891  38.560   0.891
70484W        W35469  34.582  23.333  14.232
70485W        W35470  41.722  22.021  12.331
70486W        W35471  19.788  34.452  12.984
70487W        W35472  19.028  29.966  12.127
70488W        W35473  36.865  36.770  11.977
70489W        W35474  33.999   9.306  11.188
70490W        W35475  32.639  28.577   4.361
70491W        W35476  25.585  35.796   3.682
70492W        W35477  26.207  42.213  10.985
70493W        W35478   2.276  34.985   4.029
70494W        W35479   5.375   0.856   0.365
70495W        W35480  10.313  43.744  12.104
70496W        W35481  11.017   6.958   9.685
70497W        W35482  25.004   0.684   4.680
70498W        W35483  21.802  23.276  12.858
70499W        W35484   0.914   3.562   1.675
70500W        W35485  15.069  43.339   3.779
70501W        W35486  16.726   8.206  14.049
70502W        W35487  37.958  21.023   1.292
70503W        W35488  23.762  39.504   1.471
70504W        W35489  26.093   1.456  13.859
70505W        W35490  37.651  26.525  12.473
70506W        W35491  33.657  37.911  12.001
70507W        W35492   6.811  11.346   3.135
70508W        W35493  35.517  18.329   4.756
70509W        W35494  28.230  43.631  14.333
70510W        W35495  11.938   2.765   2.648
70511W        W35496  26.476   3.733  14.713
70512W        W35497  18.809  25.930   0.815
70513W        W35498  37.735  42.249   2.008
70514W        W35499  38.465  15.769   2.845
70515W        W35500  15.107   7.749  13.113
70516W        W35501  31.576  11.168  12.043
70517W        W35502  17.869  20.368   0.406
70518W        W35503  15.071  20.607   0.380
70519W        W35504   1.881   2.755  10.404
70520W        W35505  28.367  28.259  11.989
70521W        W35506  21.297   6.404   0.257
70522W        W35507  29.458  44.722   1.851
70523W        W35508  24.978  43.470  10.717
70524W        W35509  39.176  11.582  10.709
70525W        W35510  26.015   2.291   0.783
70526W        W35511  24.966  25.395  12.981
70527W        W35512  24.677  16.513  13.036
70528W        W35513   1.135  33.403   4.139
70529W        W35514  25.284  23.372   3.339
70530W        W35515  34.997  13.730  10.321
70531W        W35516  29.704   8.430  12.046
70532W        W35517  30.468   5.741   4.654
70533W        W35518  16.990   1.010  11.501
70534W        W35519  41.302  32.562   3.823
70535W        W35520  35.833  24.953   0.529
70536W        W35521  32.638   7.138   3.505
70537W        W35522  43.545   5.485   3.985
70538W        W35523  21.513   0.719   3.626
70539W        W35524  30.791  29.931  13.891
70540W        W35525  23.659   0.783  12.561
70541W        W35526   7.423  21.806   0.824
70542W        W35527   2.977  37.150  12.034
70543W        W35528   1.900  21.084  14.942
70544W        W35529  32.529  36.457  14.876
70545W        W35530  35.030   9.785   5.375
70546W        W35531  11.882   4.628   1.262
70547W        W35532   2.796  37.354  14.524
70548W        W35533  26.953   6.533   2.495
70549W        W35534  10.918  37.932  14.471
70550W        W35535  36.831  37.557  12.489
70551W        W35536   3.138   3.740  14.286
70552W        W35537   0.251  12.136   1.461
70553W        W35538  25.123  34.932   0.740
70554W        W35539  38.381  19.526  11.461
70555W        W35540  32.595  33.356   3.296
70556W        W35541   6.627  20.947   0.779
70557W        W35542  23.693  40.294  13.446
70558W        W35543   8.753  30.364   0.830
70559W        W35544  28.628  21.760   4.157
70560W        W35545   5.139  33.954   4.088
70561W        W35546  39.713  20.740  11.645
70562W        W35547  43.381  43.475  14.881
70563W        W35548  35.622  17.188   0.244
70564W        W35549   4.568   8.706   9.790
70565W        W35550  11.091   8.442   0.249
70566W        W35551   0.004  43.029   4.050
70567W        W35552   9.182  23.753   1.067
70568W        W35553   6.809  28.952   0.356
70569W        W35554  17.769   7.507   4.108
70570W        W35555  25.689  15.801   0.876
70571W        W35556  32.939   4.031  14.320
70572W        W35557  12.223  32.594   1.005
70573W        W35558  20.136  31.803   1.325
70574W        W35559   3.290  39.054   1.802
70575W        W35560  26.279  33.777  11.940
70576W        W35561  27.388  21.345  12.046
70577W        W35562  33.019  21.380   4.773
70578W        W35563  10.680   2.423  11.143
70579W        W35564  19.641  28.323  10.017
70580W        W35565  25.586  10.621   0.833
70581W        W35566  25.690  42.004   1.769
70582W        W35567  35.821   6.010   3.767
70583W        W35568  31.012  25.535   2.795
70584W        W35569  11.036  37.171   4.878
70585W        W35570  22.118   5.275   3.336
70586W        W35571  23.134  39.959   2.679
70587W        W35572  19.781  29.386  11.656
70588W        W35573   8.037  41.282  12.965
70589W        W35574  14.598  39.129   0.441
70590W        W35575  17.737  37.864  12.013
70591W        W35576  37.021  20.696   2.670
70592W        W35577  44.279  14.507  10.310
70593W        W35578   0.571  34.957   1.789
70594W        W35579  36.854  31.085  10.650
70595W        W35580   3.986  30.010   1.141
70596W        W35581   5.230  32.912  10.628
70597W        W35582   6.828  38.890   1.481
70598W        W35583  31.335  21.986  10.720
70599W        W35584  28.607  19.628   0.879
70600W        W35585  32.652  40.150  14.099
70601W        W35586  10.777  11.335   4.766
70602W        W35587   5.472  19.305   2.795
70603W        W35588   7.474  16.012   4.679
70604W        W35589   9.851  14.401  11.219
70605W        W35590  17.779   4.640  13.582
70606W        W35591   1.239   9.669  11.611
70607W        W35592  23.055  40.860  13.507
70608W        W35593  12.661  17.619  12.547
70609W        W35594  38.807   0.196   0.411
70610W        W35595   9.342  23.766   2.037
70611W        W35596  27.642  43.081  12.878
70612W        W35597  19.558  24.982  11.996
70613W        W35598   3.609  24.749   2.376
70614W        W35599  17.704   1.924   2.249
70615W        W35600  15.620  22.390   4.655
70616W        W35601  15.665   8.201   3.675
70617W        W35602  37.385   2.404  11.044
70618W        W35603  20.072  34.947   0.733
70619W        W35604  38.892   7.823  11.072
70620W        W35605  17.347   4.533  11.923
70621W        W35606  12.047  35.047   0.868
70622W        W35607  29.786  14.905   4.326
70623W        W35608  38.052  32.498  12.184
70624W        W35609  22.944  31.177   3.996
70625W        W35610  30.147  40.409  14.265
70626W        W35611  17.056  26.767   3.389
70627W        W35612   0.170   8.109  11.154
70628W        W35613  12.088   6.251   5.027
70629W        W35614  27.089  44.044   1.738
70630W        W35615  33.138  11.785   3.180
70631W        W35616  36.894  26.015  10.564
70632W        W35617  14.316  33.826  10.728
70633W        W35618   9.718  14.835  11.447
70634W        W35619  20.613  38.504  10.428
70635W        W35620   5.349  16.620   3.865
70636W        W35621  19.165  29.519  13.254
70637W        W35622  21.046   8.529  12.616
70638W        W35623  26.974  18.604  11.599
70639W        W35624  15.063  33.572   3.797
70640W        W35625  12.275  31.216   0.856
70641W        W35626   9.768   6.290  10.127
70642W        W35627   8.107  44.874   3.634
70643W        W35628  30.071   4.670  11.104
70644W        W35629  24.147  16.024  14.839
70645W        W35630  21.710   1.511  13.789
70646W        W35631  32.449  26.936  10.784
70647W        W35632   8.610  18.588  10.817
70648W        W35633  38.827  33.301   4.156
70649W        W35634   8.077  16.711  13.249
70650W        W35635  34.547  32.742   0.870
70651W        W35636  41.498   0.843  13.169
70652W        W35637   9.343   3.315   2.086
70653W        W35638  39.983  10.714  13.578
70654W        W35639  42.617  27.414   1.739
70655W        W35640  13.106   9.066  11.434
70656W        W35641  30.003  32.934  10.144
70657W        W35642  25.773   7.813   0.053
70658W        W35643  43.500  43.826  11.059
70659W        W35644  26.623   3.415   2.390
70660W        W35645  24.531   8.812  13.809
70661W        W35646  28.696  18.914   1.245
70662W        W35647  22.710  30.587   2.172
70663W        W35648  42.370   0.340   1.226
70664W        W35649   4.197  12.863   3.117
70665W        W35650   2.711  15.430  10.825
70666W        W35651   9.971   7.402  12.103
70667W        W35652  17.109  31.130  11.049
70668W        W35653  25.150  18.771  12.912
70669W        W35654   8.868  34.909  10.689
70670W        W35655  21.241  23.968  11.565
70671W        W35656  26.929  18.608  14.307
70672W        W35657  14.251   4.925  13.366
70673W        W35658   4.965  37.778  12.409
70674W        W35659  24.762   8.166   0.362
70675W        W35660  37.629  24.067  10.519
70676W        W35661  38.104  16.230  12.008
70677W        W35662  27.792   9.674  14.358
70678W        W35663   4.825   5.185  11.617
70679W        W35664  27.134  29.476  13.314
70680W        W35665   7.180  35.876   0.873
70681W        W35666  19.518  33.688   0.329
70682W        W35667  24.006   1.721  14.507
70683W        W35668  36.863  24.950   1.068
70684W        W35669  13.332  30.806  11.964
70685W        W35670  38.809  28.141   0.282
70686W        W35671  18.232  39.016   1.708
70687W        W35672   5.381   9.106  12.225
70688W        W35673  11.692  34.083   1.272
70689W        W35674   6.152   1.370   4.318
70690W        W35675   0.703  36.446   1.438
70691W        W35676   9.749  31.221   3.289
70692W        W35677   0.974  25.284  11.819
70693W        W35678  33.616   1.549  12.719
70694W        W35679  21.082  15.076   0.411
70695W        W35680  23.471  16.678   0.473
70696W        W35681  29.716  41.445   4.663
70697W        W35682  44.987   0.392   4.707
70698W        W35683  12.478  20.341   2.721
70699W        W35684   5.875  38.041   2.382
70700W        W35685  23.115  28.505   1.629
70701W        W35686   6.249   6.896   0.651
70702W        W35687  39.040  37.088  11.612
70703W        W35688  15.196  12.175   2.424
70704W        W35689  32.613  34.857  11.113
70705W        W35690  31.120  39.993   2.350
70706W        W35691  21.106  37.952  13.850
70707W        W35692  26.697   6.971  13.139
70708W        W35693  12.089  16.958  12.373
70709W        W35694   7.251   5.615  11.607
70710W        W35695  30.494  17.660  14.195
70711W        W35696  30.640  21.332   1.503
70712W        W35697  20.741  21.815   2.841
70713W        W35698  17.344   9.762  11.047
70714W        W35699  39.338  35.370   1.776
70715W        W35700  17.222  32.151   0.504
70716W        W35701  31.539  32.568   1.835
70717W        W35702  31.952   2.223  13.139
70718W        W35703   5.850  14.576  11.463
70719W        W35704  20.601  28.874   4.521
70720W        W35705  32.836  43.859   3.987
70721W        W35706  17.208  23.535   1.313
70722W        W35707  25.572  23.176  14.014
70723W        W35708  22.068  24.165   3.713
70724W        W35709  21.859  29.633  14.940
70725W        W35710  22.989   3.325  14.970
70726W        W35711  31.105  43.348  13.508
70727W        W35712  24.865   8.958  13.209
70728W        W35713  33.065  13.080   0.337
70729W        W35714  41.843   6.826   1.298
70730W        W35715   9.807  30.729  10.995
70731W        W35716  29.038  11.701  11.897
70732W        W35717   3.223  15.172   0.336
70733W        W35718   9.676  11.936   4.578
70734W        W35719  26.409  33.606   2.840
70735W        W35720  25.903  44.778   4.102
70736W        W35721  34.610  43.277   2.676
70737W        W35722  20.482  11.321   4.771
70738W        W35723   5.935  11.572   2.449
70739W        W35724   8.499  24.660  13.303
70740W        W35725  23.864  24.048   0.567
70741W        W35726  26.977  29.344  14.180
70742W        W35727   9.979   1.706   0.781
70743W        W35728   1.623  10.527   1.815
70744W        W35729  11.687  32.993   1.728
70745W        W35730  42.367  29.615   0.802
70746W        W35731   2.463   3.355  14.926
70747W        W35732  42.836  11.387  10.258
70748W        W35733  38.987  33.542  11.108
70749W        W35734  22.605   2.816   2.359
70750W        W35735  17.234  32.177   1.041
70751W        W35736  20.295  17.324   4.261
70752W        W35737  39.144  38.680  14.471
70753W        W35738  19.757   8.851  13.974
70754W        W35739   3.791  26.720  12.959
70755W        W35740  40.105   0.678   2.058
70756W        W35741  38.506  22.775  11.204
70757W        W35742  14.565  18.496  14.239
70758W        W35743  16.170  17.566  12.391
70759W        W35744   8.150  33.771  13.627
70760W        W35745  12.421  36.311  14.783
70761W        W35746  20.833  34.345  12.815
70762W        W35747  24.249   6.778  14.839
70763W        W35748  26.454  10.644  11.557
70764W        W35749  13.264  14.384  13.396
70765W        W35750  26.473  21.658   0.015
70766W        W35751   9.405  37.008   4.600
70767W        W35752  37.050  37.550  12.980
70768W        W35753  38.992  33.883  11.505
70769W        W35754  44.837  42.075  13.757
70770W        W35755  40.252   4.190   3.742
70771W        W35756  40.639  20.005   0.383
70772W        W35757  40.046  17.390   1.315
70773W        W35758   2.419   2.763   2.823
70774W        W35759  15.543   0.513  13.103
70775W        W35760   8.105  18.750  10.820
70776W        W35761  16.721   5.820   3.983
70777W        W35762  37.974  25.449  14.413
70778W        W35763  38.434  44.214   3.099
70779W        W35764  41.784  42.372  13.476
70780W        W35765  28.020  30.646  14.662
70781W        W35766  12.832  34.868  14.305
70782W        W35767  12.840  11.238  13.038
70783W        W35768  43.756  35.794   0.826
70784W        W35769  16.458  11.124   2.849
70785W        W35770  21.685  26.461   4.489
70786W        W35771  27.217  12.016   2.697
70787W        W35772  23.770  27.587   4.016
70788W        W35773  16.532   2.927   3.198
70789W        W35774  43.945  15.756  14.974
70790W        W35775  31.372   4.230   3.681
70791W        W35776  10.221  23.783   3.424
70792W        W35777  37.509  18.133  14.493
70793W        W35778  15.257  34.750  12.976
70794W        W35779  26.658  43.585  11.152
70795W        W35780  39.396  33.131  13.818
70796W        W35781  25.191  41.876   4.656
70797W        W35782  36.023  24.238  11.086
70798W        W35783  38.878   5.133  14.846
70799W        W35784  11.439  29.924   1.837
70800W        W35785  38.550  28.933   4.093
70801W        W35786  12.265  41.827  13.265
70802W        W35787  23.523  30.897  12.495
70803W        W35788  34.468  12.537  13.749
70804W        W35789  25.077  42.607  12.922
70805W        W35790  24.491  23.505   4.159
70806W        W35791  32.178   9.322   1.834
70807W        W35792  34.276  26.199   3.134
70808W        W35793  13.713  34.691   0.252
70809W        W35794  26.254  18.851  10.516
70810W        W35795   5.184  44.855  14.937
70811W        W35796  41.868  17.802   0.461
70812W        W35797  27.011  13.741  10.749
70813W        W35798  44.983  27.193  10.916
70814W        W35799  29.572  16.557  14.936
70815W        W35800  11.866  22.620  11.211
70816W        W35801   2.884  39.370  10.653
70817W        W35802  38.974  42.303   1.178
70818W        W35803  37.199  43.577   1.868
70819W        W35804  28.910  15.171   2.020
70820W        W35805  44.953  25.169   1.829
70821W        W35806  38.528  14.280   4.646
70822W        W35807   0.317  22.833   2.628
70823W        W35808   9.873  31.519  10.711
70824W        W35809  28.903  23.646   2.791
70825W        W35810   4.300  33.346   1.788
70826W        W35811  13.029  41.322  10.736
70827W        W35812  18.722  15.500  13.519
70828W        W35813  23.745  42.522  14.461
70829W        W35814  30.862  38.676   1.585
70830W        W35815  15.136  27.142  13.145
70831W        W35816  24.276  32.818  12.909
70832W        W35817  37.549  22.211   3.151
70833W        W35818  34.468  35.038   0.943
70834W        W35819  13.860  19.080  14.864
70835W        W35820  15.271  35.087  10.688
70836W        W35821   4.826  10.050   4.744
70837W        W35822  22.038   9.284  13.878
70838W        W35823  34.133  25.924   0.248
70839W        W35824  42.163   0.217  12.282
70840W        W35825  19.106   1.183  11.946
70841W        W35826  37.610   5.325  12.441
70842W        W35827   0.846  41.212   3.815
70843W        W35828   8.661  10.634  14.425
70844W        W35829  18.655   5.479  12.947
70845W        W35830  16.079  29.954  11.663
70846W        W35831  25.059  41.055   2.791
70847W        W35832  35.952  25.934  10.492
70848W        W35833  28.707   4.305  11.729
70849W        W35834  44.548  14.240  10.687
70850W        W35835  14.463  12.194   3.017
70851W        W35836  22.433  16.845   4.956
70852W        W35837  21.527  30.863   0.189
70853W        W35838  28.771  22.794  10.937
70854W        W35839  21.344  33.983  11.535
70855W        W35840  21.684   7.815  10.676
70856W        W35841  30.085  18.149  12.066
70857W        W35842  27.999  14.064  11.549
70858W        W35843  37.436  30.462  10.975
70859W        W35844  44.939  23.669   2.799
70860W        W35845   6.297  26.066  14.114
70861W        W35846  35.329  33.638   2.612
70862W        W35847   0.016  19.259   4.895
70863W        W35848   3.488  11.376  11.612
70864W        W35849  15.791  25.080   3.417
70865W        W35850   0.368  13.983  11.896
70866W        W35851  38.114   3.786   3.890
70867W        W35852   9.360  12.196   4.258
70868W        W35853  14.219  40.891   2.290
70869W        W35854  34.911   1.257  11.633
70870W        W35855  32.714   5.208  14.923
70871W        W35856   7.388  42.838   2.277
70872W        W35857  33.561  11.371   0.973
70873W        W35858  16.838  30.653   4.271
70874W        W35859   7.443  14.083  14.557
70875W        W35860  16.411  19.509   4.943
70876W        W35861  27.332  18.867  14.078
70877W        W35862   1.768   9.341   2.768
70878W        W35863  37.796  37.166  12.124
70879W        W35864  37.842  11.290   0.108
70880W        W35865  27.330  11.252  11.941
70881W        W35866  21.087  29.644   2.388
70882W        W35867  15.933  15.138  13.730
70883W        W35868  43.901  21.787   1.899
70884W        W35869  33.426   2.288  11.984
70885W        W35870  22.674  10.337   3.632
70886W        W35871  12.247  20.632  12.741
70887W        W35872  42.491  18.407  14.303
70888W        W35873  16.599  11.815   1.687
70889W        W35874  11.098   1.979   3.692
70890W        W35875  22.253   4.009  14.813
70891W        W35876  15.996  19.627   3.183
70892W        W35877   2.401  39.159  10.665
70893W        W35878  42.127  43.061  14.022
70894W        W35879  38.406  23.276  11.172
70895W        W35880  42.732   4.390  11.673
70896W        W35881  23.147  11.403   0.318
70897W        W35882  12.182   0.404  13.128
70898W        W35883  33.822  26.944   0.439
70899W        W35884  24.980  15.022  14.863
70900W        W35885  11.184  23.841   0.774
70901W        W35886  28.163   9.912   2.215
70902W        W35887  28.366  27.672   1.909
70903W        W35888   4.890  22.067  13.546
70904W        W35889  40.454  44.223   1.501
70905W        W35890  15.683  25.735  10.485
70906W        W35891   2.366  19.829   2.067
70907W        W35892  31.442  14.841  13.792
70908W        W35893  16.053  36.896   0.549
70909W        W35894   7.214  26.718  12.636
70910W        W35895   0.811  40.624   1.314
70911W        W35896  15.653  41.180  11.171
70912W        W35897   5.484  20.324   1.364
70913W        W35898  15.231  13.189   3.625
70914W        W35899  25.232   2.965   0.779
70915W        W35900  31.082  41.082   0.016
70916W        W35901  37.519  13.292   0.616
70917W        W35902  11.661  29.619   3.010
70918W        W35903  40.735   1.699   3.990
70919W        W35904  37.303  36.090   2.914
70920W        W35905  43.207  21.877   2.182
70921W        W35906  27.480  24.868   2.710
70922W        W35907  19.296  11.638  10.383
70923W        W35908  22.677  42.090  14.735
70924W        W35909  44.008  30.935   4.184
70925W        W35910  37.611  42.116  14.479
70926W        W35911  44.941  16.053  10.728
70927W        W35912  14.576  37.044  10.854
70928W        W35913  19.603  14.923  10.581
70929W        W35914  42.859  41.260   1.907
70930W        W35915  24.645  29.870  14.306
70931W        W35916   1.950  31.937  14.346
70932W        W35917  34.950  40.867   2.081
70933W        W35918  38.981  40.937  11.857
70934W        W35919  23.012  43.970   3.230
70935W        W35920  10.834  26.117   2.888
70936W        W35921   8.234  21.456  14.806
70937W        W35922  14.560   8.231  14.388
70938W        W35923  11.605  19.999  13.968
70939W        W35924  28.252  32.861  11.389
70940W        W35925  35.721  30.110   4.871
70941W        W35926  12.702  13.288   3.259
70942W        W35927  40.377  31.875  12.654
70943W        W35928  38.581  44.447  11.432
70944W        W35929  33.577  35.565   0.275
70945W        W35930  41.684  21.168   3.137
70946W        W35931  43.443  35.025  12.326
70947W        W35932  15.579   2.513   3.181
70948W        W35933  24.226  22.258  12.485
70949W        W35934  11.266  30.202  12.082
70950W        W35935   2.628   3.823  14.693
70951W        W35936  34.595  37.819  12.007
70952W        W35937   7.170   6.256  10.456
70953W        W35938  15.306  32.684   0.224
70954W        W35939  32.584  26.733  13.476
70955W        W35940  44.711  10.676  13.861
70956W        W35941  40.125   7.092  13.635
70957W        W35942  29.702  38.354  13.404
70958W        W35943  27.622   3.110   3.651
70959W        W35944  16.040  33.877  12.709
70960W        W35945   1.644  35.810  14.520
70961W        W35946   9.842   4.324  14.927
70962W        W35947  12.199  35.905   0.683
70963W        W35948  31.156  12.789   3.953
70964W        W35949  20.102  31.013   3.687
70965W        W35950   3.202   4.216  13.954
70966W        W35951  22.794  14.280   3.312
70967W        W35952  31.870  22.053   1.182
70968W        W35953  11.894   4.168   0.485
70969W        W35954   8.151  31.043  13.573
70970W        W35955  12.271  31.977  13.622
70971W        W35956   2.355  20.732  13.568
70972W        W35957   4.767   4.394  10.561
70973W        W35958   2.684  43.724   3.270
70974W        W35959  33.867  34.897   3.591
70975W        W35960  11.658  37.486   0.030
70976W        W35961  27.423  32.706   4.153
70977W        W35962  38.225  33.423  12.579
70978W        W35963   2.472  21.926  14.891
70979W        W35964  38.787  29.601   3.680
70980W        W35965   1.831  25.754   2.747
70981W        W35966  13.279   8.257  10.963
70982W        W35967  13.263  16.223  11.597
70983W        W35968  12.900   1.235   4.510
70984W        W35969  44.099  21.569   0.004
70985W        W35970  27.719   5.607  14.833
70986W        W35971  31.362  13.644  10.875
70987W        W35972  13.867  41.559  10.976
70988W        W35973  14.696  17.002   0.462
70989W        W35974   8.271  26.159  11.686
70990W        W35975  35.994  16.760   4.092
70991W        W35976   2.462   8.697  11.072
70992W        W35977   3.312  35.010   1.785
70993W        W35978   4.666   8.346  12.998
70994W        W35979  43.096  10.222   0.440
70995W        W35980   2.045  25.519  12.714
70996W        W35981  17.774   3.767  12.030
70997W        W35982   3.663  19.706  11.485
70998W        W35983   5.399  31.054   4.780
70999W        W35984  19.161  31.412  12.599
71000W        W35985  12.575  25.271  11.170
71001W        W35986  39.992  29.610  14.030
71002W        W35987  22.935  34.468   1.272
71003W        W35988  36.371  25.131  13.828
71004W        W35989  11.284  22.516   4.529
71005W        W35990  29.482  31.992   2.970
71006W        W35991  23.594  37.392   3.846
71007W        W35992  27.676   8.412   0.135
71008W        W35993  42.604  16.396  13.502
71009W        W35994  12.909   4.222   4.604
71010W        W35995   3.503  32.553  11.486
71011W        W35996  17.609  23.579   0.379
71012W        W35997  33.529  31.615   4.641
71013W        W35998  23.438  22.799   1.242
71014W        W35999   0.971   5.089   0.059
71015W        W36000   3.379  23.528  12.551
71016W        W36001  20.183   2.235  11.661
71017W        W36002  34.358   0.377   2.484
71018W        W36003  41.031  20.481  10.665
71019W        W36004  25.454  28.672   1.329
71020W        W36005  35.789  27.521   0.858
71021W        W36006  38.105  41.071  12.371
71022W        W36007  36.415  39.397  13.790
71023W        W36008  35.931  38.675  10.914
71024W        W36009  23.584  12.207  10.639
71025W        W36010  16.645  24.297   1.341
71026W        W36011   7.787   1.415  12.823
71027W        W36012  18.857  34.612  13.538
71028W        W36013  25.992  16.011  13.413
71029W        W36014  15.929  23.807  11.016
71030W        W36015   2.778  22.122   0.773
71031W        W36016  44.168  37.525   0.356
71032W        W36017  44.735  44.535  13.288
71033W        W36018  26.073  32.150  11.163
71034W        W36019  23.972  35.321  11.512
71035W        W36020   0.776  12.722  14.018
71036W        W36021  40.341  37.504   3.070
71037W        W36022  35.775  38.255  14.762
71038W        W36023  26.720  21.626   4.182
71039W        W36024  19.610  32.024  13.145
71040W        W36025  10.804  12.738  13.085
71041W        W36026  11.107  31.275  12.873
71042W        W36027  34.933  43.509   4.252
71043W        W36028  14.237   4.422   3.413
71044W        W36029   1.254  12.789  14.828
71045W        W36030  17.125  32.870  13.333
71046W        W36031  33.909   6.773   4.480
71047W        W36032  16.050  12.130   5.003
71048W        W36033  34.039  28.524  10.673
71049W        W36034  10.439  10.761  14.730
71050W        W36035  36.325  31.334  14.998
71051W        W36036   1.438   1.486  12.369
71052W        W36037   9.390  29.378   2.199
71053W        W36038   9.780   9.843  12.586
71054W        W36039  35.797  19.950  11.100
71055W        W36040   6.664   5.984  14.309
71056W        W36041  27.069  42.722   1.972
71057W        W36042  31.022  41.291  14.525
71058W        W36043  36.387   4.062  10.675
71059W        W36044  21.249  30.608  11.625
71060W        W36045   2.662   9.496  13.481
71061W        W36046  18.053  22.972   1.401
71062W        W36047  34.424  44.058   3.211
71063W        W36048  31.645  41.823   2.329
71064W        W36049  12.781   9.769   1.305
71065W        W36050  36.972  21.727  14.524
71066W        W36051  17.027  29.535   3.081
71067W        W36052  22.671   3.334  11.058
71068W        W36053   4.887  19.443  11.966
71069W        W36054  20.689  11.635  11.982
71070W        W36055   8.319  18.728  12.992
71071W        W36056  24.089  28.221  11.170
71072W        W36057  12.701   2.932   1.908
71073W        W36058  44.752  21.025   3.256
71074W        W36059  26.113  26.738   3.619
71075W        W36060   2.608  29.371  12.065
71076W        W36061   6.176  23.688  11.182
71077W        W36062   4.874  16.568  12.621
71078W        W36063   0.984  35.550  13.092
71079W        W36064  21.161  32.740  10.769
71080W        W36065  22.229  33.970   0.715
71081W        W36066  19.060  21.115   0.269
71082W        W36067   6.847   3.367  11.525
71083W        W36068  33.068  15.092  13.188
71084W        W36069   1.375   1.015  12.595
71085W        W36070  11.545  30.641  14.884
71086W        W36071  18.565   3.369  13.081
71087W        W36072  19.037   0.461   2.800
71088W        W36073   4.428  13.179   4.844
71089W        W36074  23.628   6.199   0.318
71090W        W36075  14.384  22.745   1.830
71091W        W36076  13.474   4.769  13.803
71092W        W36077  12.719  34.528   4.681
71093W        W36078   8.809  29.928  10.683
71094W        W36079  28.712  33.385  13.530
71095W        W36080  12.472  36.710   0.732
71096W        W36081  34.484  34.340   4.088
71097W        W36082   2.259  27.434  13.511
71098W        W36083   4.812  10.042   1.755
71099W        W36084  38.641  12.140   1.659
71100W        W36085   6.565  15.120   4.172
71101W        W36086  17.858  33.095   2.836
71102W        W36087  23.970   4.653  11.361
71103W        W36088  29.316  39.367  14.845
71104W        W36089  40.482   4.372  11.168
71105W        W36090  18.684  37.984  13.621
71106W        W36091  11.646  27.067   2.830
71107W        W36092  41.765  19.174   0.252
71108W        W36093  27.472  10.301   3.098
71109W        W36094   1.673  30.099   0.842
71110W        W36095  12.734   1.747   3.200
71111W        W36096   8.356  22.019   1.321
71112W        W36097   2.314  32.549  10.690
71113W        W36098  18.334  44.904   4.569
71114W        W36099  29.408  14.181   1.244
71115W        W36100  37.012  33.100   2.218
71116W        W36101  23.139  33.431  13.837
71117W        W36102  40.342  22.314   0.768
71118W        W36103   8.149  22.696  12.911
71119W        W36104  23.667  20.322  11.604
71120W        W36105  35.561  38.040  11.171
71121W        W36106  16.572  21.088   3.127
71122W        W36107  13.732  11.035  11.237
71123W        W36108  26.670  22.646  11.232
71124W        W36109  31.694  21.644   3.272
71125W        W36110  16.266   5.271   0.981
71126W        W36111  38.274  35.087   3.732
71127W        W36112  19.846  24.138  12.152
71128W        W36113  18.720   0.415   0.057
71129W        W36114  28.247  38.051   4.888
71130W        W36115  23.857   4.144   0.367
71131W        W36116   4.872   1.974  10.918
71132W        W36117  23.994  38.913  12.486
71133W        W36118  24.934  17.295  12.824
71134W        W36119  27.312   4.358   2.407
71135W        W36120  39.567  13.798   1.900
71136W        W36121  23.129   0.156   2.265
71137W        W36122  17.731  23.694  11.534
71138W        W36123  33.104  11.194   1.916
71139W        W36124  12.622  28.115   2.564
71140W        W36125  10.323  35.813   4.279
71141W        W36126  24.841  19.054   3.297
71142W        W36127  33.313  20.543  14.324
71143W        W36128  42.950  25.685   0.940
71144W        W36129  42.448  32.963   0.894
71145W        W36130  10.645  25.349   4.669
71146W        W36131   0.250  19.182   3.637
71147W        W36132  11.889  43.028   2.664
71148W        W36133  35.460  19.328  13.440
71149W        W36134   9.268  14.179   3.521
71150W        W36135   0.410  38.613  13.273
71151W        W36136  43.365  27.730  13.265
71152W        W36137  11.351  12.787   2.444
71153W        W36138  40.359  44.604  13.796
71154W        W36139  41.050  30.711  11.958
71155W        W36140   3.455  27.436   3.225
71156W        W36141  24.779  40.957  13.070
71157W        W36142  18.139   0.897  14.542
71158W        W36143  30.925  20.945   2.233
71159W        W36144  15.573  35.159  11.092
71160W        W36145  22.800  15.249   2.563
71161W        W36146  12.825  23.075   4.048
71162W        W36147   4.600  41.011   4.650
71163W        W36148   3.430  30.855  11.564
71164W        W36149   0.407  33.419  14.802
71165W        W36150  30.596  31.936   0.654
71166W        W36151  16.748  44.795   2.299
71167W        W36152   6.804   0.310   3.237
71168W        W36153  11.745  13.588  14.947
71169W        W36154  28.043   8.726  12.057
71170W        W36155  14.147  13.603   1.243
71171W        W36156   2.874  25.447  13.312
71172W        W36157   2.691  39.866  12.098
71173W        W36158  32.105   2.240   2.753
71174W        W36159  18.609  10.650   0.058
71175W        W36160   0.165  38.946  14.744
71176W        W36161  11.125   5.457   5.032
71177W        W36162   4.749  24.277   4.630
71178W        W36163   2.007  42.785   2.365
71179W        W36164  15.388  17.471  13.452
71180W        W36165   5.607  33.542   1.146
71181W        W36166   7.850   3.115  14.215
71182W        W36167  27.572  18.498   1.958
71183W        W36168   9.663  12.135   3.331
71184W        W36169  38.137   5.993   0.863
71185W        W36170  22.170  31.603   1.128
71186W        W36171   7.929  25.427  14.390
71187W        W36172  26.149  31.584   1.100
71188W        W36173  33.291  11.615   4.431
71189W        W36174  28.689   3.313   3.488
71190W        W36175  33.886   5.435  13.188
71191W        W36176  41.718  32.972   3.964
71192W        W36177  16.812  21.068   0.814
71193W        W36178  19.680  43.223  13.326
71194W        W36179  24.679  38.618   4.609
71195W        W36180  19.983   6.015   3.885
71196W        W36181  15.663  17.621   1.715
71197W        W36182  24.531  17.331  10.817
71198W        W36183  21.249  21.063  13.364
71199W        W36184   8.866   7.972  11.348
71200W        W36185  18.230  34.168   0.321
71201W        W36186   4.747  37.895  10.654
71202W        W36187  15.220  14.715   1.917
71203W        W36188  32.066  44.452  14.860
71204W        W36189   8.686   4.260  12.149
71205W        W36190  11.226  41.942   3.765
71206W        W36191  31.405   1.463  11.069
71207W        W36192  21.954  25.013  13.256
71208W        W36193  18.697  19.536   2.165
71209W        W36194  11.920  22.570  12.526
71210W        W36195  13.239  39.155  12.576
71211W        W36196  31.858  18.071   4.833
71212W        W36197  41.548  30.658  13.910
71213W        W36198  26.236  22.839   4.588
71214W        W36199  38.864  38.810   3.713
71215W        W36200  20.149  30.429   1.689
71216W        W36201   5.699  10.577  13.348
71217W        W36202  30.723   0.279  12.098
71218W        W36203   3.145   2.752  14.724
71219W        W36204   1.396  20.915  13.079
71220W        W36205   7.313  15.725  11.145
71221W        W36206  26.461  35.036  14.384
71222W        W36207  44.522   2.811  11.514
71223W        W36208  13.713  34.528  12.004
71224W        W36209  20.728  42.049   4.859
71225W        W36210  43.641  19.276  14.967
71226W        W36211  33.380  23.700  13.533
71227W        W36212  26.234  26.249   4.912
71228W        W36213  23.164   5.769   2.506
71229W        W36214  34.332   2.914   4.279
71230W        W36215  17.225  28.973   3.111
71231W        W36216  34.447  34.008   3.393
71232W        W36217  22.550  21.579  12.617
71233W        W36218  26.990  37.872   4.949
71234W        W36219   1.677  32.828  12.882
71235W        W36220  44.726  39.759   2.243
71236W        W36221  30.870  29.958  12.902
71237W        W36222  25.558  41.738   2.202
71238W        W36223  10.251   1.910   4.181
71239W        W36224  39.753  10.156  14.363
71240W        W36225  12.281  26.311   0.160
71241W        W36226  10.767   6.438  13.562
71242W        W36227  11.643  40.066   3.184
71243W        W36228  25.711  27.207   2.316
71244W        W36229  42.275   4.166   2.660
71245W        W36230  38.886  36.829   1.664
71246W        W36231  18.723   0.041   1.239
71247W        W36232  26.770  12.206  13.933
71248W        W36233  18.150  41.452  11.590
71249W        W36234  18.128  10.616  11.706
71250W        W36235  15.258  31.872   3.736
71251W        W36236   4.367  18.047   1.806
71252W        W36237   7.309   7.332   4.674
71253W        W36238  15.230  10.167  14.884
71254W        W36239   8.521  31.981   2.180
71255W        W36240  12.172  12.587  14.239
71256W        W36241   9.849  40.273  12.131
71257W        W36242  15.330  26.481   2.699
71258W        W36243  29.349  40.393  13.977
71259W        W36244  16.616  11.932  10.774
71260W        W36245  23.155   3.650   0.888
71261W        W36246   5.996  31.567   4.298
71262W        W36247   8.680  35.537  12.416
71263W        W36248   7.354  21.325   3.769
71264W        W36249  15.830  41.746  14.921
71265W        W36250  16.132  28.563  11.494
71266W        W36251  19.865   7.736  13.391
71267W        W36252  25.519   0.189  13.573
71268W        W36253  26.768  27.898   3.325
71269W        W36254   5.850  37.310  11.876
71270W        W36255   8.910   2.010  11.472
71271W        W36256  25.218  28.702   4.996
71272W        W36257  13.977  10.632   2.472
71273W        W36258  42.203  22.472   3.995
71274W        W36259  11.083  37.427  11.628
71275W        W36260  42.449  41.927  11.239
71276W        W36261  34.821  33.608  11.975
71277W        W36262   4.484  10.033   3.637
71278W        W36263  37.602   6.399  13.852
71279W        W36264   1.973  18.459   2.037
71280W        W36265  26.893  22.543   1.713
71281W        W36266  38.301   6.683   3.780
71282W        W36267  38.419   4.156   3.140
71283W        W36268  36.626  31.460  14.585
71284W        W36269  31.062   3.794   3.583
71285W        W36270  36.004  36.731   4.828
71286W        W36271  41.132  33.218  11.495
71287W        W36272   7.123   5.161   0.751
71288W        W36273   3.284  32.221   2.892
71289W        W36274  18.823  10.463   0.494
71290W        W36275  44.710  20.646   2.873
71291W        W36276  21.208   9.172   1.224
71292W        W36277  16.298  25.420  12.586
71293W        W36278  38.998  23.288   1.792
71294W        W36279   1.860  37.516  14.491
71295W        W36280  27.582  25.572  12.781
71296W        W36281  21.129  19.505  12.136
71297W        W36282   2.637  40.640  13.116
71298W        W36283   5.450  26.973  12.968
71299W        W36284  11.232  15.269   0.705
71300W        W36285  40.072  41.597  12.460
71301W        W36286  32.877  33.009   4.678
71302W        W36287  11.150  12.449   2.798
71303W        W36288  17.544  43.092  12.846
71304W        W36289  15.695  35.500   3.338
71305W        W36290   3.302   0.747   1.786
71306W        W36291   9.257   2.738  11.459
71307W        W36292  20.773   1.468  11.601
71308W        W36293  31.022  30.421  13.107
71309W        W36294  44.424  38.649  11.777
71310W        W36295  34.649  30.495   1.234
71311W        W36296  16.422  12.631  12.343
71312W        W36297  44.419  38.936  13.567
71313W        W36298  22.506  39.220  12.612
71314W        W36299   6.332   0.501   3.342
71315W        W36300  31.399  29.104   3.296
71316W        W36301   6.920  43.748  11.492
71317W        W36302  26.806  27.388  11.232
71318W        W36303   7.683  32.609  11.742
71319W        W36304  44.395  31.894   2.751
71320W        W36305  14.509  32.618   3.071
71321W        W36306  32.398  38.086   0.825
71322W        W36307  24.540  10.270  14.065
71323W        W36308   3.483  19.842   4.300
71324W        W36309  26.540   6.971   0.914
71325W        W36310  42.776  24.040  13.458
71326W        W36311  34.392  13.095   5.081
71327W        W36312   6.141   3.786   4.054
71328W        W36313   5.445  10.669  11.685
71329W        W36314  39.956  31.027  14.871
71330W        W36315  22.021  39.476  12.429
71331W        W36316   3.463  41.305   3.117
71332W        W36317  21.270  24.132   0.405
71333W        W36318  38.322  14.160   1.318
71334W        W36319  10.252  18.814  12.083
71335W        W36320  25.032  37.017  14.809
71336W        W36321   9.700  10.340   0.046
71337W        W36322  30.637   1.643   1.162
71338W        W36323  37.521  42.920  14.464
71339W        W36324  15.177  13.352  12.529
71340W        W36325  30.132  44.495  11.227
71341W        W36326  42.208  15.652   2.343
71342W        W36327  43.031  10.544   3.764
71343W        W36328  24.024  41.992   3.156
71344W        W36329  25.068  34.628  13.737
71345W        W36330  14.194  43.568   2.822
71346W        W36331  24.730  34.992  13.992
71347W        W36332   8.965  22.597   0.767
71348W        W36333   2.843  42.999   1.709
71349W        W36334   6.960  17.157   1.415
71350W        W36335  41.819  27.434   2.702
71351W        W36336  30.444  24.891   3.150
71352W        W36337   1.327  22.155   3.305
71353W        W36338  34.575  31.069  13.494
71354W        W36339  28.051   5.862  12.336
71355W        W36340   5.950  37.084  13.006
71356W        W36341  36.118  24.724   4.202
71357W        W36342   9.874  27.526   3.128
71358W        W36343   7.492  29.198  11.821
71359W        W36344  38.626  44.843  12.081
71360W        W36345  35.940  18.685   0.238
71361W        W36346  20.705  36.622   0.473
71362W        W36347  18.132  33.448  14.554
71363W        W36348  35.129   7.338   5.175
71364W        W36349   8.796  27.953  10.727
71365W        W36350  43.316  40.238   3.767
71366W        W36351   2.897  14.645   2.578
71367W        W36352  20.708  21.315   3.190
71368W        W36353  22.984  34.516  13.060
71369W        W36354  20.308  29.618   9.492
71370W        W36355  37.837  18.984   4.527
71371W        W36356  25.445  35.563  13.931
71372W        W36357   6.831  38.736  11.114
71373W        W36358  17.173   9.424   1.376
71374W        W36359  38.293   6.858  14.550
71375W        W36360  33.531  42.510  10.672
71376W        W36361   0.531  13.810   3.298
71377W        W36362  32.541   0.580   3.698
71378W        W36363  40.763  19.286  13.893
71379W        W36364  22.289  11.237  12.554
71380W        W36365  21.842   3.729   5.018
71381W        W36366  30.034   2.871  11.908
71382W        W36367   8.372  44.918   4.138
71383W        W36368   5.427  39.629   4.904
71384W        W36369  11.417  20.807   3.325
71385W        W36370  37.001  11.860  13.392
71386W        W36371  32.658  12.782   1.611
71387W        W36372  29.181  39.248  13.369
71388W        W36373  29.725  36.380   2.710
71389W        W36374  37.167  12.391   1.799
71390W        W36375  29.041  26.071  14.595
71391W        W36376  35.346  41.607  13.465
71392W        W36377  23.162  20.977  13.057
71393W        W36378  37.106  40.659   0.351
71394W        W36379  10.264  15.253  11.012
71395W        W36380  17.105  43.924  12.954
71396W        W36381  20.844  44.213  14.883
71397W        W36382  24.951   2.744   3.066
71398W        W36383  42.296  28.857  13.377
71399W        W36384  28.749  43.685   0.298
71400W        W36385  39.213  39.829   3.689
71401W        W36386  22.518  19.166  12.895
71402W        W36387  22.412  41.986  11.981
71403W        W36388  33.342  21.114   4.154
71404W        W36389  42.112   4.402  14.842
71405W        W36390  24.029  10.728  11.171
71406W        W36391  42.963  32.425  11.594
71407W        W36392  43.324   2.593   2.362
71408W        W36393  41.328  32.518   1.908
71409W        W36394  12.559   3.893   2.218
71410W        W36395  31.524   3.078  10.351
71411W        W36396   9.631  30.608   2.657
71412W        W36397  18.054  14.380  14.623
71413W        W36398  16.324  31.491  13.577
71414W        W36399  36.610  35.107  11.866
71415W        W36400  34.465  39.910  11.547
71416W        W36401   1.174  30.456   1.783
71417W        W36402  35.562  19.073   0.223
71418W        W36403  18.554  36.365  13.966
71419W        W36404  26.171  28.235   0.456
71420W        W36405   0.836   8.021   4.900
71421W        W36406  24.561  41.838   3.555
71422W        W36407  41.975  37.493   0.411
71423W        W36408  31.120  35.282   4.216
71424W        W36409  44.488  29.212   3.700
71425W        W36410  10.893  44.783   3.888
71426W        W36411  44.832   4.480   1.582
71427W        W36412  33.357   6.211   9.877
71428W        W36413  29.237  13.524  11.654
71429W        W36414   9.329  28.370   2.217
71430W        W36415   2.482  25.971   2.710
71431W        W36416  25.505   1.914  12.141
71432W        W36417  20.865   8.306   4.670
71433W        W36418   1.016  28.110   1.154
71434W        W36419  27.723  27.065   2.277
71435W        W36420  34.085  33.952   2.788
71436W        W36421   8.903  16.359   3.516
71437W        W36422   8.845   7.132  14.434
71438W        W36423  21.194  17.744   2.955
71439W        W36424  42.806  10.696  12.808
71440W        W36425  25.763  22.264   1.208
71441W        W36426  11.379   1.024  11.263
71442W        W36427   5.366   2.964  14.836
71443W        W36428  20.710  18.647   1.866
71444W        W36429  20.646  15.462  14.906
71445W        W36430  20.190  41.511  11.232
71446W        W36431  39.885   1.491  12.485
71447W        W36432  19.729   8.484  14.373
71448W        W36433  24.109   9.233   4.617
71449W        W36434  26.716  33.517   0.330
71450W        W36435  42.327  29.094  12.900
71451W        W36436  41.358  14.658   1.009
71452W        W36437   7.560   7.593  11.471
71453W        W36438  14.636  23.057  10.686
71454W        W36439  31.997  37.803   0.960
71455W        W36440  29.167  13.765   1.477
71456W        W36441  43.918  44.344   3.225
71457W        W36442  31.957  25.118   1.763
71458W        W36443  21.018  30.666   3.766
71459W        W36444  40.030  44.732   4.216
71460W        W36445  34.324  31.964  11.586
71461W        W36446  21.630  30.429   5.150
71462W        W36447  37.019   9.184   4.121
71463W        W36448   0.180   6.646   1.984
71464W        W36449  12.286  26.935  10.646
71465W        W36450  32.933  41.564  13.096
71466W        W36451  23.572  23.950   4.044
71467W        W36452   4.481  26.642   0.256
71468W        W36453  14.212  32.611  14.586
71469W        W36454  30.533   5.745   0.852
71470W        W36455  13.175  33.941  12.984
71471W        W36456   7.499  34.415   4.131
71472W        W36457  38.377  28.232   4.580
71473W        W36458  44.801  41.741  11.245
71474W        W36459  20.170  16.646  14.366
71475W        W36460  20.029  37.623   0.809
71476W        W36461   2.442  36.243  13.475
71477W        W36462  28.489  14.329   4.621
71478W        W36463  10.341   8.593   2.785
71479W        W36464  42.515   7.494   4.166
71480W        W36465   9.870  39.017  14.431
71481W        W36466  15.897  43.837  10.457
71482W        W36467  33.131  11.786  14.364
71483W        W36468  35.332   8.877  13.817
71484W        W36469  42.794   4.770  14.038
71485W        W36470  30.556  33.239   0.003
71486W        W36471  43.574  30.841  10.432
71487W        W36472  44.221   2.394  11.506
71488W        W36473  17.205  28.063   2.475
71489W        W36474  21.240  13.388   4.107
71490W        W36475  20.267  41.002  11.688
71491W        W36476  22.128  24.604   4.037
71492W        W36477  18.619  21.567  12.964
71493W        W36478  18.809  34.354   1.333
71494W        W36479  12.248  31.294   3.127
71495W        W36480  33.519  13.362  10.993
71496W        W36481  23.475  39.091   1.442
71497W        W36482   0.524  18.435  11.926
71498W        W36483   2.739   0.528   3.611
71499W        W36484  12.865  28.613   0.216
71500W        W36485  43.982   5.895   2.806
71501W        W36486  29.112   4.533  11.522
71502W        W36487  14.549  15.128  12.514
71503W        W36488  25.549  39.884   2.260
71504W        W36489   0.306  38.423   4.524
71505W        W36490  37.674  15.764  13.975
71506W        W36491  35.968   6.156  13.057
71507W        W36492  26.329  13.230  11.513
71508W        W36493   3.495  33.079   1.790
71509W        W36494  15.311   6.226  13.061
71510W        W36495  27.607  44.965  10.356
71511W        W36496  18.790  35.146  14.709
71512W        W36497   4.937  37.904   1.223
71513W        W36498  14.285   2.830   1.878
71514W        W36499  13.304  22.593   0.944
71515W        W36500  28.548  36.227  14.231
71516W        W36501  28.071  30.033  12.992
71517W        W36502  23.286  42.439   4.838
71518W        W36503  13.628  21.687  13.887
71519W        W36504  32.563  39.885  13.520
71520W        W36505  20.830   5.762   2.911
71521W        W36506  33.367  16.229  11.326
71522W        W36507  36.053  34.023   3.721
71523W        W36508  28.623   4.364  12.234
71524W        W36509  19.871  14.261   2.773
71525W        W36510  35.337  32.057  14.380
71526W        W36511  28.676  21.483   3.669
71527W        W36512  40.367  22.089   2.374
71528W        W36513  12.873  35.029  10.622
71529W        W36514  15.130  22.689  11.207
71530W        W36515   4.021  22.728   4.256
71531W        W36516  41.195  12.241  11.182
71532W        W36517   4.450  15.357  12.152
71533W        W36518  15.167  39.949   2.816
71534W        W36519  37.078   7.594   4.024
71535W        W36520  30.207  39.352   0.381
71536W        W36521  12.070   4.250  11.143
71537W        W36522  27.229  25.561  12.377
71538W        W36523   3.417  30.658   0.256
71539W        W36524  19.974  38.129   4.194
71540W        W36525   6.782  23.893   0.705
71541W        W36526  20.494  18.719  13.628
71542W        W36527  17.258  16.852   3.777
71543W        W36528   8.469   3.003  11.089
71544W        W36529  27.979  32.080  14.017
71545W        W36530   2.220  21.948   4.377
71546W        W36531   7.155  15.249  13.862
71547W        W36532  16.325  27.288  13.415
71548W        W36533  23.107  38.604  11.099
71549W        W36534  40.120   2.206  12.922
71550W        W36535  39.178   3.363   4.992
71551W        W36536  17.813  24.961  13.512
71552W        W36537  31.626  13.401   3.244
71553W        W36538  29.568  36.029  11.138
71554W        W36539  30.492   1.248   2.709
71555W        W36540  43.654  22.429  10.981
71556W        W36541  16.628  25.844   2.637
71557W        W36542  32.302  14.099   1.051
71558W        W36543  10.901  28.400  13.672
71559W        W36544  24.735  34.145   3.219
71560W        W36545  36.793   6.368   1.182
71561W        W36546  34.349  39.413  11.255
71562W        W36547  24.508  39.496  14.319
71563W        W36548   4.770  37.641  11.594
71564W        W36549  15.771  15.356   9.951
71565W        W36550  14.304   5.771  13.645
71566W        W36551  20.191  34.373   4.799
71567W        W36552  21.803   4.965   4.636
71568W        W36553  20.578  14.502   2.185
71569W        W36554  44.430  13.264  13.641
71570W        W36555  37.133  44.952   4.716
71571W        W36556  26.081   4.278   0.734
71572W        W36557  30.110  15.916   0.423
71573W        W36558  43.662  40.032  13.527
71574W        W36559  22.689  39.775  10.796
71575W        W36560  22.152   5.812   1.271
71576W        W36561  44.357   0.338   1.254
71577W        W36562  24.071   3.151   4.866
71578W        W36563  12.417  40.120  11.928
71579W        W36564  27.532   2.959  14.327
71580W        W36565   9.678  35.131  12.530
71581W        W36566  25.966  25.568   4.277
71582W        W36567   4.728  11.224   3.301
71583W        W36568  27.481   0.724   3.113
71584W        W36569   2.439  15.085  13.603
71585W        W36570  39.813  41.245  11.544
71586W        W36571  12.712  16.186  14.678
71587W        W36572  19.380  16.125  14.083
71588W        W36573  28.520  26.694  14.556
71589W        W36574  19.225   0.277  14.850
71590W        W36575  34.910  43.945   3.440
71591W        W36576  42.186  19.561  11.581
71592W        W36577   5.588  16.839  14.902
71593W        W36578   7.797  23.769   1.413
71594W        W36579   5.128  35.287   3.168
71595W        W36580  25.281  38.892   0.955
71596W        W36581  15.034   8.107   0.325
71597W        W36582   1.001  10.911   4.413
71598W        W36583  29.931  19.768   3.590
71599W        W36584   2.280  29.701   2.315
71600W        W36585  15.352  40.998   0.964
71601W        W36586  41.304  26.042   0.502
71602W        W36587  37.094  34.393   2.638
71603W        W36588  29.816  27.609   0.657
71604W        W36589  24.066  14.655  13.001
71605W        W36590   0.046  38.004  14.324
71606W        W36591  23.068   9.794   2.413
71607W        W36592  13.245  30.095   1.790
71608W        W36593  10.280   2.705  11.327
71609W        W36594  44.432  24.384  10.310
71610W        W36595   2.709  31.560   3.507
71611W        W36596  42.387  16.771  13.794
71612W        W36597  16.763  19.006  10.320
71613W        W36598  29.004  24.337  11.644
71614W        W36599  36.289  24.313   0.557
71615W        W36600  26.728  19.560  14.325
71616W        W36601  23.214   6.682  14.942
71617W        W36602  13.629  31.867  11.575
71618W        W36603  31.149   3.345  11.177
71619W        W36604  40.443   1.912   4.350
71620W        W36605  37.481   5.808  12.627
71621W        W36606  26.776  34.074  10.274
71622W        W36607  39.249  37.038   3.756
71623W        W36608  20.677   1.949  10.714
71624W        W36609  22.326  42.976   4.463
71625W        W36610  11.943   5.369  13.981
71626W        W36611  28.870  44.020  13.000
71627W        W36612  38.443  26.684  11.212
71628W        W36613  14.087   4.673   4.221
71629W        W36614  17.101  11.615  10.625
71630W        W36615  31.231   2.776  14.895
71631W        W36616  16.219   5.802   1.821
71632W        W36617   8.969   6.709  13.707
71633W        W36618  23.603  25.154   1.485
71634W        W36619  17.478  43.872   0.833
71635W        W36620   3.088  22.170   2.400
71636W        W36621   1.952  24.070  11.183
71637W        W36622  33.081  31.413  12.981
71638W        W36623  35.848   2.825   0.337
71639W        W36624  22.631  13.631   4.076
71640W        W36625  36.863  34.417  13.913
71641W        W36626  44.543  37.467   3.168
71642W        W36627  28.078  11.872   2.074
71643W        W36628   7.952   5.743   2.247
71644W        W36629  27.013   3.079  10.767
71645W        W36630  27.480  32.162   3.381
71646W        W36631  28.885  29.279   2.031
71647W        W36632  33.018  39.786  13.347
71648W        W36633   3.952   3.245  10.651
71649W        W36634  44.891  38.706   4.358
71650W        W36635   3.882   4.324   3.924
71651W        W36636  24.179  11.541  10.929
71652W        W36637  29.469  30.516  13.386
71653W        W36638  27.087  19.698   4.097
71654W        W36639   0.900  40.029   1.777
71655W        W36640  44.896  23.924  13.347
71656W        W36641   2.054  42.306   4.492
71657W        W36642  11.246  18.278  13.427
71658W        W36643  19.603  21.710  14.039
71659W        W36644  10.117  32.896   2.157
71660W        W36645  13.964  34.011  11.712
71661W        W36646  39.023   8.426  14.671
71662W        W36647  37.494  30.099   0.374
71663W        W36648  16.943  17.368   2.895
71664W        W36649  31.471   9.997  10.244
71665W        W36650  19.142  23.484   0.788
71666W        W36651   8.276  38.269   1.633
71667W        W36652  17.659   5.726  14.442
71668W        W36653  26.464  32.627  14.369
71669W        W36654  18.777  20.586  11.869
71670W        W36655  23.081  36.445   3.728
71671W        W36656   3.309  43.453  11.486
71672W        W36657  17.633   5.194  14.437
71673W        W36658  27.919   5.665   0.343
71674W        W36659  13.133  38.274   3.519
71675W        W36660  10.920   8.409  13.103
71676W        W36661  29.139  20.377   2.096
71677W        W36662  36.898   5.037  12.035
71678W        W36663  24.708  27.501   1.788
71679W        W36664  34.884  35.015   0.596
71680W        W36665  25.043  29.044  13.270
71681W        W36666  21.756  32.594   3.851
71682W        W36667  13.312  41.094  12.623
71683W        W36668   0.825  14.892   4.843
71684W        W36669   7.429  37.079   3.359
71685W        W36670  25.056   1.010  14.588
71686W        W36671  20.954  37.318   4.207
71687W        W36672  21.131  44.792  11.585
71688W        W36673   1.761   2.236  12.309
71689W        W36674   2.956  34.151  12.072
71690W        W36675  14.236  36.311  14.448
71691W        W36676  36.586   5.226   2.876
71692W        W36677   7.261  24.224   1.725
71693W        W36678  17.053  36.107   2.278
71694W        W36679  10.963  36.964   1.495
71695W        W36680  14.769  20.703  12.938
71696W        W36681  14.428  11.709  11.496
71697W        W36682  10.095  33.938   3.201
71698W        W36683  34.601  33.911  11.556
71699W        W36684  30.126   6.810  11.859
71700W        W36685  44.516   9.362  14.237
71701W        W36686  34.640  34.978  10.722
71702W        W36687  16.063   6.350   1.420
71703W        W36688   9.996   1.193   1.714
71704W        W36689  27.466  11.637  14.556
71705W        W36690  35.593  43.356  11.225
71706W        W36691  34.344  40.531  14.817
71707W        W36692  26.808  37.425  12.131
71708W        W36693  35.748  14.314   2.776
71709W        W36694  38.969  14.620   0.324
71710W        W36695  44.884  30.350   0.974
71711W        W36696  37.545   7.219  13.057
71712W        W36697  20.602   1.039  12.213
71713W        W36698  28.820  33.700   4.813
71714W        W36699  38.484  37.088   3.222
71715W        W36700  11.562  36.392  12.540
71716W        W36701  30.858  15.901   1.846
71717W        W36702   1.181  10.130   3.750
71718W        W36703  14.303   6.243   0.536
71719W        W36704  43.324  33.833  11.192
71720W        W36705  35.639   5.241  13.358
71721W        W36706  42.045  14.252   3.633
71722W        W36707  33.620  33.554   0.227
71723W        W36708  16.036  11.781  14.350
71724W        W36709  31.982  30.577  12.614
71725W        W36710  18.809  14.670  12.172
71726W        W36711  28.717  22.944  11.414
71727W        W36712   2.784   1.745   3.326
71728W        W36713   6.226  37.971  13.351
71729W        W36714  39.028  10.974  10.229
71730W        W36715  15.408  31.082   0.490
71731W        W36716  27.586  15.228   0.033
71732W        W36717  29.845  11.503   2.337
71733W        W36718  12.777  11.839  10.839
71734W        W36719  44.974  29.395  13.286
71735W        W36720  19.729   5.236   4.477
71736W        W36721  17.806  32.922   4.591
71737W        W36722  37.760  21.758  11.104
71738W        W36723  21.386   5.725  10.453
71739W        W36724  18.786   2.807   0.658
71740W        W36725   3.360  20.577  13.890
71741W        W36726  44.370  40.508   0.247
71742W        W36727   6.832  22.480  12.508
71743W        W36728   7.186   6.156  12.933
71744W        W36729  21.708  38.411  14.916
71745W        W36730  40.919  29.472   1.162
71746W        W36731  43.521  10.666  13.039
71747W        W36732  32.339   1.841   0.886
71748W        W36733   3.858  24.072  10.732
71749W        W36734  35.202  34.473  13.337
71750W        W36735  34.112  19.056   3.623
71751W        W36736  32.686  43.876   0.378
71752W        W36737   9.261  41.797  10.428
71753W        W36738   7.329  17.225   2.943
71754W        W36739  11.156  37.840   1.431
71755W        W36740  37.304  25.022  11.058
71756W        W36741  16.419  14.640   1.162
71757W        W36742  41.901  27.746   2.241
71758W        W36743   7.549  29.997   2.060
71759W        W36744  24.089  12.302   0.361
71760W        W36745  43.362  19.545   4.134
71761W        W36746  28.250  20.275   1.776
71762W        W36747   5.622   9.801  11.878
71763W        W36748  12.818  33.900  13.358
71764W        W36749  17.026  32.983   4.154
71765W        W36750  13.086  14.417   0.289
71766W        W36751  12.002   8.119   0.347
71767W        W36752  38.785  16.534  11.613
71768W        W36753  27.875  20.787  11.467
71769W        W36754   4.289  38.361   4.084
71770W        W36755  33.170  34.151  11.270
71771W        W36756  25.129  30.271   2.695
71772W        W36757  14.011  44.046   2.842
71773W        W36758   7.145  18.666   0.183
71774W        W36759   3.276  42.047   3.590
71775W        W36760  35.684  12.133   1.937
71776W        W36761  38.032   1.056   4.999
71777W        W36762  41.449   9.713   4.586
71778W        W36763   3.310  35.496   1.897
71779W        W36764  19.227  15.657  12.809
71780W        W36765  13.157  30.367   4.494
71781W        W36766   1.640  28.004   3.454
71782W        W36767  22.534  33.677   2.361
71783W        W36768  18.192   3.500  12.294
71784W        W36769  31.676  38.068  12.934
71785W        W36770  29.953   5.027   4.764
71786W        W36771   0.538  38.973   1.905
71787W        W36772   2.414  43.661  11.137
71788W        W36773   3.214   2.747   4.486
71789W        W36774  32.605  13.297   1.402
71790W        W36775   4.699   7.492   1.245
71791W        W36776  11.184  12.080   3.150
71792W        W36777  10.111   1.270   3.286
71793W        W36778  28.502  35.685   2.166
71794W        W36779  41.533  26.487  12.503
71795W        W36780   0.755  11.385  10.127
71796W        W36781  25.590  20.610   0.762
71797W        W36782  40.449   0.343  13.222
71798W        W36783  38.025  14.796  14.382
71799W        W36784  39.598   4.207   0.433
71800W        W36785  40.716  15.627  12.422
71801W        W36786   5.444  34.838  11.373
71802W        W36787  20.784  38.643   1.293
71803W        W36788  44.151  36.763   4.645
71804W        W36789  23.265  23.249   0.294
71805W        W36790   9.226  32.361  13.393
71806W        W36791   6.724  42.021   4.117
71807W        W36792  19.495  17.002   2.731
71808W        W36793  43.100  18.152  14.936
71809W        W36794  34.352  14.552   1.233
71810W        W36795  34.406  35.108  11.198
71811W        W36796   0.725  10.373  13.509
71812W        W36797  32.469  27.220   4.732
71813W        W36798   8.909   5.862  12.875
71814W        W36799  27.223  21.834  12.031
71815W        W36800  14.693  20.994  11.570
71816W        W36801  41.991  27.532  13.944
71817W        W36802   6.157  30.156  12.584
71818W        W36803  22.139  37.926  14.979
71819W        W36804  12.576  24.229  14.721
71820W        W36805  15.321  37.612  11.601
71821W        W36806  38.731  32.222   3.260
71822W        W36807   9.092  42.965  14.267
71823W        W36808  30.702   1.229   9.768
71824W        W36809  15.520  38.653   4.095
71825W        W36810  15.796  34.383   5.088
71826W        W36811  16.474   7.710  13.831
71827W        W36812  37.694  36.896   3.075
71828W        W36813  40.822  20.014  11.193
71829W        W36814  25.034  22.722  11.474
71830W        W36815  36.345  43.175   1.933
71831W        W36816  38.548  11.558   0.856
71832W        W36817  26.557  20.425   2.185
71833W        W36818  41.901   4.558  13.474
71834W        W36819   8.690  15.342   1.767
71835W        W36820  27.006  41.346  13.013
71836W        W36821  42.263  37.133  13.598
71837W        W36822  22.796  15.775  12.861
71838W        W36823   6.823  43.233   4.616
71839W        W36824  43.504  26.945   1.647
71840W        W36825  38.283  29.408   2.304
71841W        W36826  17.080  39.830  14.811
71842W        W36827   6.451   7.216  11.936
71843W        W36828  42.908  12.586  12.524
71844W        W36829  31.811   9.732  10.640
71845W        W36830  34.676  36.370  14.409
71846W        W36831  27.712  36.848  13.860
71847W        W36832  24.056   6.658  10.701
71848W        W36833  21.185  38.727  12.472
71849W        W36834  40.302  12.337  11.488
71850W        W36835  17.226  24.973  10.352
71851W        W36836  26.188  34.969   0.764
71852W        W36837  22.384   1.625   4.233
71853W        W36838  11.877  40.223  11.651
71854W        W36839  36.341  31.855   1.956
71855W        W36840  34.334  26.059   2.260
71856W        W36841  30.227   1.091  11.035
71857W        W36842  16.103  11.079   3.698
71858W        W36843   8.164  26.316   4.534
71859W        W36844  22.432  30.653   0.734
71860W        W36845   6.733  44.822   1.706
71861W        W36846   1.728   8.856  11.628
71862W        W36847  37.888  21.205   3.302
71863W        W36848  23.420  22.771  12.430
71864W        W36849  35.066  16.260  13.354
71865W        W36850  19.250   8.127  11.554
71866W        W36851   5.453  35.997   1.035
71867W        W36852  31.451  19.986   1.885
71868W        W36853  14.690  24.826   1.437
71869W        W36854   0.636  30.666  13.503
71870W        W36855  33.528  30.425  13.891
71871W        W36856  18.080  24.453  14.302
71872W        W36857  42.197  19.961  13.955
71873W        W36858  41.586   7.060   3.968
71874W        W36859  29.503  11.097   0.851
71875W        W36860  23.541  10.661   2.854
71876W        W36861  14.939  13.413   3.975
71877W        W36862  10.411  27.402   0.287
71878W        W36863  29.640  12.390  13.793
71879W        W36864  22.861  18.648  11.598
71880W        W36865  30.645  31.376  11.865
71881W        W36866  14.577   5.402   2.010
71882W        W36867  23.464  34.223  10.700
71883W        W36868  15.441  30.503   4.137
71884W        W36869  27.421   6.708   4.626
71885W        W36870   4.214  27.212  11.227
71886W        W36871  11.868  42.241  12.500
71887W        W36872   8.198   1.359   4.842
71888W        W36873  38.016   4.359   2.790
71889W        W36874  27.559  23.098   1.015
71890W        W36875  43.980  30.133  11.621
71891W        W36876  35.848  25.472   2.818
71892W        W36877  43.445  25.770   0.732
71893W        W36878  43.007  43.250  13.794
71894W        W36879  11.687  15.837   1.831
71895W        W36880  41.705  11.896  13.809
71896W        W36881  42.087  11.724   1.767
71897W        W36882   8.491   0.572  11.092
71898W        W36883  35.665  36.511  11.035
71899W        W36884  27.899  42.490   3.169
71900W        W36885  29.469  23.568  11.585
71901W        W36886  27.719  34.631  14.528
71902W        W36887  26.770  40.804   2.327
71903W        W36888  33.089   0.295   4.777
71904W        W36889  41.525  42.514  12.990
71905W        W36890  10.630  36.052   0.443
71906W        W36891   4.313  39.544  14.113
71907W        W36892   7.386  41.806  11.281
71908W        W36893  10.954  27.789  10.103
71909W        W36894  26.679  13.297   5.081
71910W        W36895  22.247  20.462   4.975
71911W        W36896  42.875  14.558  14.255
71912W        W36897  19.079  11.216  10.673
71913W        W36898  15.291   9.910  14.417
71914W        W36899  17.782   3.464  12.582
71915W        W36900  41.228  31.543   1.849
71916W        W36901  27.210  17.555  11.073
71917W        W36902  24.297  34.623   2.246
71918W        W36903  30.639  21.711  11.607
71919W        W36904   0.482  41.388   0.370
71920W        W36905  33.507  36.937   0.438
71921W        W36906  42.768  41.457   4.021
71922W        W36907  38.842  37.796  14.413
71923W        W36908  13.295  20.482  14.794
71924W        W36909  13.588  40.443   2.180
71925W        W36910   9.903  29.167   3.199
71926W        W36911  19.580  30.190  10.633
71927W        W36912  27.911  19.642  10.787
71928W        W36913   9.926  30.979   2.341
71929W        W36914  40.081  27.931  14.923
71930W        W36915  22.747  28.423   4.188
71931W        W36916  44.506   6.986  13.778
71932W        W36917  42.608  29.087  11.130
71933W        W36918  41.560   5.160   9.942
71934W        W36919  31.325  38.897  11.547
71935W        W36920  26.720   9.277  14.946
71936W        W36921  28.974  19.606   2.707
71937W        W36922  16.811  35.491   0.703
71938W        W36923   9.779  36.628   0.796
71939W        W36924  38.792  44.966  10.735
71940W        W36925   0.029  20.565   3.331
71941W        W36926  25.157  21.735  11.177
71942W        W36927  12.822  37.158   4.922
71943W        W36928  32.643   7.144  11.175
71944W        W36929  24.162   5.715   2.792
71945W        W36930   7.389  38.405   0.235
71946W        W36931  37.752  36.175   0.876
71947W        W36932  22.700  32.862   3.670
71948W        W36933  19.644  44.051  13.121
71949W        W36934   0.797  17.395  10.338
71950W        W36935   2.541  11.715   1.390
71951W        W36936  18.333  26.446   1.229
71952W        W36937  39.526  32.431  10.707
71953W        W36938  39.804  13.338  12.940
71954W        W36939  36.462  34.576  10.206
71955W        W36940  11.311  30.546  14.345
71956W        W36941  41.948  44.494   1.649
71957W        W36942  10.766  28.838  12.967
71958W        W36943   3.280  31.972  12.137
71959W        W36944  36.943   9.613   1.656
71960W        W36945  44.882  13.302   4.647
71961W        W36946  25.557   8.788   3.304
71962W        W36947   2.322   6.775  14.316
71963W        W36948  34.050  37.619  12.232
71964W        W36949  12.916  29.523  12.133
71965W        W36950  10.706  21.110  11.451
71966W        W36951  30.582  38.262   3.282
71967W        W36952  34.350  35.372  10.553
71968W        W36953  34.585  35.618   2.165
71969W        W36954  24.718  40.537   2.737
71970W        W36955  22.195  19.755   3.152
71971W        W36956  37.972  30.754   1.277
71972W        W36957  12.387  30.260   1.752
71973W        W36958  34.811  33.169   0.926
71974W        W36959  39.279  40.835  14.402
71975W        W36960  30.913  31.860   5.165
71976W        W36961   5.249   4.221   3.558
71977W        W36962  38.450  32.171  12.140
71978W        W36963  40.512   1.477  11.685
71979W        W36964  13.196   5.155   0.296
71980W        W36965  19.505   5.691  11.923
71981W        W36966   2.760  40.491   1.870
71982W        W36967  30.294  44.415  11.707
71983W        W36968   6.648  28.532  11.125
71984W        W36969  26.247   4.984  11.564
71985W        W36970   3.440   8.144   1.462
71986W        W36971  32.514  22.050  12.175
71987W        W36972  42.059  32.846  13.858
71988W        W36973  21.002  10.137   1.332
71989W        W36974   5.898  20.139   3.788
71990W        W36975  29.555   9.489   3.270
71991W        W36976  32.517   5.713  12.027
71992W        W36977  21.759  33.455  13.172
71993W        W36978  29.405  14.176  14.365
71994W        W36979  21.438  10.899   1.480
71995W        W36980  20.961  39.472  14.264
71996W        W36981  14.160  15.737  11.758
71997W        W36982  31.027   3.432   3.089
71998W        W36983  41.240   2.986   2.802
71999W        W36984   9.060   7.340  10.679
72000W        W36985   4.920  34.787  10.651
72001W        W36986  28.878  27.079   4.625
72002W        W36987  33.873  20.740  12.925
72003W        W36988  36.297   1.305   0.480
72004W        W36989   9.613  30.185   1.272
72005W        W36990  12.568  39.396  10.734
72006W        W36991  44.992   2.716  14.514
72007W        W36992  30.022  32.596  12.450
72008W        W36993  37.954  35.591   3.813
72009W        W36994   4.952   4.872   1.536
72010W        W36995  37.346  35.646   2.115
72011W        W36996  43.692  15.970  11.545
72012W        W36997  26.511  23.189  14.287
72013W        W36998  18.817  22.723  11.239
72014W        W36999  15.627  38.580  12.576
72015W        W37000  25.950   5.805   0.400
72016W        W37001  17.265   8.704  12.120
72017W        W37002  32.471  40.908   1.792
72018W        W37003  30.978  43.347   1.019
72019W        W37004  44.541  35.070   1.763
72020W        W37005  38.927  40.053   3.320
72021W        W37006  25.985  27.996   1.749
72022W        W37007  14.616  29.324   0.325
72023W        W37008  33.862  14.909  11.048
72024W        W37009  27.762  11.189   1.798
72025W        W37010  20.326  38.484  12.492
72026W        W37011   8.905  35.484   2.538
72027W        W37012  40.941  30.448   4.639
72028W        W37013  44.659   5.269   0.757
72029W        W37014  38.607  24.623  12.955
72030W        W37015  41.636  18.146   4.185
72031W        W37016  28.382  16.945   1.396
72032W        W37017  17.320   7.989  10.231
72033W        W37018  41.517  15.606  10.511
72034W        W37019  14.535   4.948   0.790
72035W        W37020  16.737  32.660   0.319
72036W        W37021  37.436   4.765  10.663
72037W        W37022   8.147  22.257   3.292
72038W        W37023  16.824  28.642   2.359
72039W        W37024   6.302  17.270   4.760
72040W        W37025  38.813  21.666   3.533
72041W        W37026   7.883  19.341  13.420
72042W        W37027  36.087  37.421   2.239
72043W        W37028  32.209  20.844   2.282
72044W        W37029  22.123  16.759   2.669
72045W        W37030  31.974  32.802   1.681
72046W        W37031  15.219  41.373   3.929
72047W        W37032  23.671  43.434  14.344
72048W        W37033  20.225  38.077  13.899
72049W        W37034  26.783  39.999   4.581
72050W        W37035  38.794  40.076  11.961
72051W        W37036  31.573  22.573  12.168
72052W        W37037  43.785  19.739  11.186
72053W        W37038  25.856   5.380  12.012
72054W        W37039  39.600  11.910  14.734
72055W        W37040  18.190  19.280   3.591
72056W        W37041   5.710  21.670   2.556
72057W        W37042  12.553  44.736  13.256
72058W        W37043  23.729   3.891   4.102
72059W        W37044   7.449  42.310   1.504
72060W        W37045  41.987  32.050   4.184
72061W        W37046  29.461   4.519  12.363
72062W        W37047  19.714  23.652   3.685
72063W        W37048  36.884  38.092  12.422
72064W        W37049  27.626   3.946  12.844
72065W        W37050  31.593  21.398   2.807
72066W        W37051   8.710  14.426  14.752
72067W        W37052  29.378  24.437   1.294
72068W        W37053  22.633   2.668  12.941
72069W        W37054  13.862   3.328   2.406
72070W        W37055  37.193  33.940  14.636
72071W        W37056   8.664  19.796  14.443
72072W        W37057  38.635  25.519  12.329
72073W        W37058  12.274  40.336   4.822
72074W        W37059   4.729  36.550   4.345
72075W        W37060  41.898  17.692  12.855
72076W        W37061  13.425  25.227  10.595
72077W        W37062  44.892  11.277  10.714
72078W        W37063  31.651  35.894   4.586
72079W        W37064  40.757  26.459   4.154
72080W        W37065  42.579  39.127   0.897
72081W        W37066   8.137  44.394  11.663
72082W        W37067  41.356  13.844  14.291
72083W        W37068  44.545  44.699   3.571
72084W        W37069  39.814   5.032   1.864
72085W        W37070  38.514  37.432   4.025
72086W        W37071  25.592  30.649   1.414
72087W        W37072  13.231  17.291   2.688
72088W        W37073  16.105   5.273  13.614
72089W        W37074  26.439  34.394   2.817
72090W        W37075  32.445  18.099  13.626
72091W        W37076   4.771  40.532   2.703
72092W        W37077  31.578  24.518   2.736
72093W        W37078  33.928   0.229   3.314
72094W        W37079  35.902  21.319   0.807
72095W        W37080   8.428  11.508   0.895
72096W        W37081   6.491  18.204   2.537
72097W        W37082  34.056  13.296   2.792
72098W        W37083  30.461  14.078  11.222
72099W        W37084  17.426  37.595  11.709
72100W        W37085  11.957  19.255  12.550
72101W        W37086   8.805  13.080   4.665
72102W        W37087   6.334   1.911  12.560
72103W        W37088  11.357  25.812   4.889
72104W        W37089  41.549  44.405   4.430
72105W        W37090  32.228  14.079   3.242
72106W        W37091   2.914  31.229   2.612
72107W        W37092   9.666  20.229  11.752
72108W        W37093  38.833  32.022  14.487
72109W        W37094  18.625  32.286   1.311
72110W        W37095  42.275   6.431  13.966
72111W        W37096  35.620  17.122   2.705
72112W        W37097  11.348  25.272   2.701
72113W        W37098  11.322  12.477   4.123
72114W        W37099  17.813   1.854   3.230
72115W        W37100  12.224  44.053  13.386
72116W        W37101   3.526  14.741   0.377
72117W        W37102  17.985  16.725  11.909
72118W        W37103  40.345   3.450  13.790
72119W        W37104  36.449  33.440   1.464
72120W        W37105  33.122  14.546  11.498
72121W        W37106  29.022  41.025   1.441
72122W        W37107  36.725  13.827   4.708
72123W        W37108  13.875   5.401   1.019
72124W        W37109  44.074  34.450   0.956
72125W        W37110  30.108  13.750   0.410
72126W        W37111   2.266  12.844  10.776
72127W        W37112  30.903  44.980  10.696
72128W        W37113  27.214  32.073   2.136
72129W        W37114  13.907  43.333   1.301
72130W        W37115  10.698  31.123  10.644
72131W        W37116   1.043   3.191   2.749
72132W        W37117  38.269  43.159   1.458
72133W        W37118  33.657  35.015  13.889
72134W        W37119   7.392   4.406   2.832
72135W        W37120  25.623   0.753   1.618
72136W        W37121  39.660  23.079  13.884
72137W        W37122  28.598  29.941   0.145
72138W        W37123  14.560   5.578  11.345
72139W        W37124  41.969  34.570  14.299
72140W        W37125  39.601  21.660  14.266
72141W        W37126  29.578  43.045  13.984
72142W        W37127  25.393  16.044  11.661
72143W        W37128  23.010  40.832  10.476
72144W        W37129   7.741  36.082  12.556
72145W        W37130   8.374  42.702  11.084
72146W        W37131   5.130  17.368   1.704
72147W        W37132  17.633  25.378   2.439
72148W        W37133  12.658   0.323  10.723
72149W        W37134   9.665  14.970   4.550
72150W        W37135  11.121  38.483  14.558
72151W        W37136  25.429  11.142   2.767
72152W        W37137  39.936  38.232  12.190
72153W        W37138  37.599   7.496  10.180
72154W        W37139   2.175  20.200   2.374
72155W        W37140   7.223   7.358  12.370
72156W        W37141  30.439   7.760   0.733
72157W        W37142  38.778  38.125   2.131
72158W        W37143  22.188  30.722  13.822
72159W        W37144   3.075   0.376   0.869
72160W        W37145  32.845   4.318  11.523
72161W        W37146  30.087  26.724  12.066
72162W        W37147  30.116  35.430  10.660
72163W        W37148  18.157  40.511  13.860
72164W        W37149  25.528  13.114  12.825
72165W        W37150  34.573  35.058   1.970
72166W        W37151  24.786  21.285   2.810
72167W        W37152   7.838  36.919   4.084
72168W        W37153   4.498  39.036   3.374
72169W        W37154  29.726  36.490  11.288
72170W        W37155  13.680  25.227  11.601
72171W        W37156  37.135  44.304  12.493
72172W        W37157  26.244   5.261  10.146
72173W        W37158   1.268  36.750   0.669
72174W        W37159  10.118   7.840   3.733
72175W        W37160  37.402  14.056  10.656
72176W        W37161  23.551  14.890   3.596
72177W        W37162  42.444   6.949   1.951
72178W        W37163  39.443  17.677   3.141
72179W        W37164  35.356   7.250  13.111
72180W        W37165  19.513  14.117  12.990
72181W        W37166  20.061  44.889  11.093
72182W        W37167  25.676  28.131  10.661
72183W        W37168  33.097  15.544   0.342
72184W        W37169  28.761   6.190  11.053
72185W        W37170  33.044   9.602   2.389
72186W        W37171   2.344  25.652  10.708
72187W        W37172  15.977  28.613  14.870
72188W        W37173   5.460  44.963   0.393
72189W        W37174  10.202   1.914   1.296
72190W        W37175  27.368  29.008  11.916
72191W        W37176  23.572  30.818  14.408
72192W        W37177   1.866  39.124   4.953
72193W        W37178  17.023  37.788   4.886
72194W        W37179  40.029  24.284   9.884
72195W        W37180  33.211  37.787  11.076
72196W        W37181  21.058  33.648   0.679
72197W        W37182  27.110  28.115  12.804
72198W        W37183  40.404  14.718  12.140
72199W        W37184  22.285   7.482  13.610
72200W        W37185  33.523  28.538   4.940
72201W        W37186  25.485  36.808  10.713
72202W        W37187  37.572  10.338  14.521
72203W        W37188  24.677  12.653  14.258
72204W        W37189  42.458  24.553  11.765
72205W        W37190   2.177  36.459   3.111
72206W        W37191  18.123  27.139  10.637
72207W        W37192   2.685  13.765   0.073
72208W        W37193  18.531  22.728  14.010
72209W        W37194  44.176   8.285  12.329
72210W        W37195  36.381  12.088  12.313
72211W        W37196   2.338  34.571   4.834
72212W        W37197   0.477  22.953   4.090
72213W        W37198   3.778  17.479   1.385
72214W        W37199  20.580  15.881   0.321
72215W        W37200  17.541  14.671   1.821
72216W        W37201   0.194  30.289  12.832
72217W        W37202   1.050   4.375   1.270
72218W        W37203  29.752  38.903   2.187
72219W        W37204  26.391   3.609  11.154
72220W        W37205  21.706   0.858   4.502
72221W        W37206  20.138   4.477  12.624
72222W        W37207  34.888   7.736   0.914
72223W        W37208   9.621  38.354   3.609
72224W        W37209  11.722  17.325  11.180
72225W        W37210  10.194  20.167   0.707
72226W        W37211  18.631   9.256   2.306
72227W        W37212  39.381   5.921   3.706
72228W        W37213   9.131  34.558   3.300
72229W        W37214  30.429  21.533   2.753
72230W        W37215  27.170  34.414   4.198
72231W        W37216  27.512  12.345  10.649
72232W        W37217  18.207   0.648  12.409
72233W        W37218  31.638   9.194  13.543
72234W        W37219  15.783   2.406  13.787
72235W        W37220  35.364  20.174  11.237
72236W        W37221  35.235  13.341   1.202
72237W        W37222  29.908  27.678  10.664
72238W        W37223  17.563  36.024   3.675
72239W        W37224  12.013  30.184  13.389
72240W        W37225   8.766  31.790   0.847
72241W        W37226  16.692  25.603   1.179
72242W        W37227  24.968  27.961   1.913
72243W        W37228  33.484   8.859   3.524
72244W        W37229  10.727  23.761  14.454
72245W        W37230  44.493  40.836   2.771
72246W        W37231  28.661  25.094   2.216
72247W        W37232  20.971  20.880  13.879
72248W        W37233   3.347   2.836   0.208
72249W        W37234  22.605  22.499  14.356
72250W        W37235  42.411   9.281   1.909
72251W        W37236  13.299  41.234  13.575
72252W        W37237  18.437  11.812  10.245
72253W        W37238   6.023   8.100   2.592
72254W        W37239  17.049  23.592  13.431
72255W        W37240   8.889  21.852   3.741
72256W        W37241  42.435   1.227   4.645
72257W        W37242  38.986  38.819  10.690
72258W        W37243  42.857  23.687   3.543
72259W        W37244  26.058  31.652  13.827
72260W        W37245  44.320  26.513  14.388
72261W        W37246   1.724  18.437   1.502
72262W        W37247  28.693  11.876  11.016
72263W        W37248  33.089  33.583   0.906
72264W        W37249  24.120  19.060   4.744
72265W        W37250   9.934  11.658  14.939
72266W        W37251  14.819  38.320   3.628
72267W        W37252  18.404  25.153  11.162
72268W        W37253   7.811   1.526  10.522
72269W        W37254  29.419   7.696  11.623
72270W        W37255  27.916  44.755  13.086
72271W        W37256  14.055  25.339  12.492
72272W        W37257  17.146  15.656   1.846
72273W        W37258  26.623  39.405   1.295
72274W        W37259  28.543  11.445  10.773
72275W        W37260  22.563  16.553   0.385
72276W        W37261  41.103   7.793  11.611
72277W        W37262   5.218  29.987   4.617
72278W        W37263   5.845   3.487   2.245
72279W        W37264  16.564  44.806   1.413
72280W        W37265  35.299  44.743   3.162
72281W        W37266  14.800   8.008   3.665
72282W        W37267  25.914   2.434   1.706
72283W        W37268   3.554  29.192  10.671
72284W        W37269  21.072  16.370  12.987
72285W        W37270  34.897  18.456   0.451
72286W        W37271  14.666  10.728   0.317
72287W        W37272  34.746  35.398  13.327
72288W        W37273  41.184  22.201   2.813
72289W        W37274  33.439  13.903  11.779
72290W        W37275  28.085   5.642  10.756
72291W        W37276  15.264  43.774  11.552
72292W        W37277  38.083   5.839   3.175
72293W        W37278   1.491  40.581  11.994
72294W        W37279  10.907   7.879  11.537
72295W        W37280  32.976   0.991   0.224
72296W        W37281  27.494  34.492   1.617
72297W        W37282  18.842  41.422  10.799
72298W        W37283  43.520   0.498   2.757
72299W        W37284  18.768  34.125  13.796
72300W        W37285  33.046  34.903  12.981
72301W        W37286  28.944  36.478  10.679
72302W        W37287  38.763  10.878  14.394
72303W        W37288  40.593  32.632  10.703
72304W        W37289  21.786  16.575  14.866
72305W        W37290   5.169  18.665   4.654
72306W        W37291  21.478  27.586   1.195
72307W        W37292  26.102  21.000   1.472
72308W        W37293  16.132  12.545  12.757
72309W        W37294   7.630  21.067  10.373
72310W        W37295  25.198   4.217  12.631
72311W        W37296  14.402  35.417  14.874
72312W        W37297  31.632  36.389   3.848
72313W        W37298   8.174   0.007   1.754
72314W        W37299  10.325  32.836  13.964
72315W        W37300  40.273  25.247  12.451
72316W        W37301  30.164  43.363   2.207
72317W        W37302  33.534  27.343   3.759
72318W        W37303  14.749  23.076   1.620
72319W        W37304  31.477  26.060  12.121
72320W        W37305  34.694  44.527  10.217
72321W        W37306  21.672   4.491   2.244
72322W        W37307  19.812   4.369   2.258
72323W        W37308  41.294  38.877  14.681
72324W        W37309  42.381   9.387  13.331
72325W        W37310  30.410  27.044   0.348
72326W        W37311  17.630  26.354   2.663
72327W        W37312  29.834  20.248   0.901
72328W        W37313  42.803  37.908  12.952
72329W        W37314  29.987  37.354  13.740
72330W        W37315   5.030  41.955   3.188
72331W        W37316  28.459   6.215  11.483
72332W        W37317  30.710   7.873  12.614
72333W        W37318  16.274  38.872  12.569
72334W        W37319  42.476  38.517   2.399
72335W        W37320  36.785  11.677   3.229
72336W        W37321  42.339   7.305   4.606
72337W        W37322  17.215  34.356   2.762
72338W        W37323  44.474  39.430  10.903
72339W        W37324  21.169   7.838  10.844
72340W        W37325  32.124  14.813  10.657
72341W        W37326  16.048  18.816  11.535
72342W        W37327  16.711  35.396  10.679
72343W        W37328  15.317  24.089   4.476
72344W        W37329  34.036  33.187  13.059
72345W        W37330  34.930  40.481   2.871
72346W        W37331  20.099  37.047  13.334
72347W        W37332  17.720  29.119   2.458
72348W        W37333  42.958  27.485  13.060
72349W        W37334  15.549  36.061  10.709
72350W        W37335  26.623   1.476   1.347
72351W        W37336   0.725   4.824  12.371
72352W        W37337   6.489  21.002   2.186
72353W        W37338  22.377  42.684   3.228
72354W        W37339   4.371  24.575   3.805
72355W        W37340  15.818   6.839   0.975
72356W        W37341  22.710   2.947   0.204
72357W        W37342  18.308  42.460   0.241
72358W        W37343  40.773  40.842   4.498
72359W        W37344   9.856  25.557   3.113
72360W        W37345  38.810  17.981   9.749
72361W        W37346  23.936  26.493   2.441
72362W        W37347   6.765  28.838   1.919
72363W        W37348  17.234  21.615   1.737
72364W        W37349  24.616  36.530   3.346
72365W        W37350  13.683   8.239   4.398
72366W        W37351  26.187  29.949   1.577
72367W        W37352  15.201  10.948  14.436
72368W        W37353  24.013   8.881  14.466
72369W        W37354  20.551  35.663  14.491
72370W        W37355  11.204  24.008  14.298
72371W        W37356  29.021  20.448  13.458
72372W        W37357  16.188   4.722   4.063
72373W        W37358  23.236  34.913   1.253
72374W        W37359  43.792  22.545   2.287
72375W        W37360  11.493  15.666   5.037
72376W        W37361  22.788  24.198  13.512
72377W        W37362  17.279   5.331  12.590
72378W        W37363  24.140  32.979   0.635
72379W        W37364   7.776   6.956   4.889
72380W        W37365  28.526  11.881  10.517
72381W        W37366  37.240  15.497   0.288
72382W        W37367  37.470  22.872   4.570
72383W        W37368  36.393  41.375   3.624
72384W        W37369  20.489   9.889   0.287
72385W        W37370  44.871  43.343  12.843
72386W        W37371  42.100  44.336   3.673
72387W        W37372   6.827  41.110   2.121
72388W        W37373   4.737  10.520  12.556
72389W        W37374   8.311  17.238   4.348
72390W        W37375   5.219  37.358   1.403
72391W        W37376  18.904  19.499   1.353
72392W        W37377  32.017  30.407  12.139
72393W        W37378  38.668  36.959  14.831
72394W        W37379  18.467  28.700   3.684
72395W        W37380  25.657  37.008  12.019
72396W        W37381  44.297  23.119   2.346
72397W        W37382  27.891  24.519  12.955
72398W        W37383  27.985  41.513  13.475
72399W        W37384  34.614  43.454  12.153
72400W        W37385   0.345   4.764   3.252
72401W        W37386  10.846  30.967  13.254
72402W        W37387   4.419  20.508   1.330
72403W        W37388  44.028   2.836  10.585
72404W        W37389  37.114   8.347   0.221
72405W        W37390   8.331  19.020   4.245
72406W        W37391  11.324  35.948  12.657
72407W        W37392  36.209  27.614  14.796
72408W        W37393  20.762  23.157   2.216
72409W        W37394  35.897  24.947   3.749
72410W        W37395   7.187  36.993   1.398
72411W        W37396  39.727  27.729  14.551
72412W        W37397  10.308  41.574  14.291
72413W        W37398  15.053  26.997   1.761
72414W        W37399  26.849  40.344   0.756
72415W        W37400   9.694   2.024  13.394
72416W        W37401  32.657  42.976   1.219
72417W        W37402   7.071  16.588  14.699
72418W        W37403  24.395  26.937  10.990
72419W        W37404  39.020   7.667  14.243
72420W        W37405   7.746  44.974  13.647
72421W        W37406  12.219  40.608   0.036
72422W        W37407  15.275  23.206  11.142
72423W        W37408  33.621   0.813  11.218
72424W        W37409  11.070   0.743  13.453
72425W        W37410  29.596  19.552  10.069
72426W        W37411  39.561  16.305   0.573
72427W        W37412   0.693  27.093   1.255
72428W        W37413  41.442  21.649  13.008
72429W        W37414  44.706  29.227  13.881
72430W        W37415  42.196  38.735  12.951
72431W        W37416  32.693  18.560   3.511
72432W        W37417  25.069  36.994  12.553
72433W        W37418  43.544  30.203   0.848
72434W        W37419  15.245  14.710   3.509
72435W        W37420  41.914  19.692   0.977
72436W        W37421   4.273   9.300   1.921
72437W        W37422  25.641  24.499   1.204
72438W        W37423  37.427  11.546  13.333
72439W        W37424  12.744  38.414   1.923
72440W        W37425  25.582  44.092  14.387
72441W        W37426  12.612  13.123  12.028
72442W        W37427   5.273   8.952  10.382
72443W        W37428   3.569  23.271  11.173
72444W        W37429  15.859  10.321  10.252
72445W        W37430  31.693  14.071   3.603
72446W        W37431  41.937  20.639   4.802
72447W        W37432   7.248  19.073  12.475
72448W        W37433  15.291  38.070   0.651
72449W        W37434   1.946  10.862  12.234
72450W        W37435  16.253  24.176   0.323
72451W        W37436   1.796  24.377   0.372
72452W        W37437  32.430  36.156  11.256
72453W        W37438  43.172  12.462  10.767
72454W        W37439  32.995  17.481  13.596
72455W        W37440  19.352  30.406   9.640
72456W        W37441  24.505  15.340   2.725
72457W        W37442  23.165  27.672  14.690
72458W        W37443   5.398  26.855   2.824
72459W        W37444  13.901  35.406   0.696
72460W        W37445   9.347  39.499  11.214
72461W        W37446  26.640   2.664   2.846
72462W        W37447  12.601  35.407   1.850
72463W        W37448   9.039   6.500   5.307
72464W        W37449  11.512   6.896  10.165
72465W        W37450  11.113   2.400   1.229
72466W        W37451   8.351  42.925   1.412
72467W        W37452   3.469   1.767   3.699
72468W        W37453  30.365  34.946  12.529
72469W        W37454  44.336  34.068   4.164
72470W        W37455  21.327  14.015   0.842
72471W        W37456  41.013  44.537  11.148
72472W        W37457  38.105  15.046  13.437
72473W        W37458  29.347  23.022   1.477
72474W        W37459  37.259  37.106   0.860
72475W        W37460   4.723  17.713   3.691
72476W        W37461  38.587  26.166   1.787
72477W        W37462  41.339   1.205  11.895
72478W        W37463   2.384  15.583  13.535
72479W        W37464  33.572   3.208  14.338
72480W        W37465  19.762   7.391  12.647
72481W        W37466  30.254  44.395   1.673
72482W        W37467  27.168  14.227   2.297
72483W        W37468  22.541  43.015   9.840
72484W        W37469  37.651  25.064  14.817
72485W        W37470  40.331  19.149  12.009
72486W        W37471   9.017  12.948  10.119
72487W        W37472   2.428   4.176  12.871
72488W        W37473  37.483  27.754  14.351
72489W        W37474   4.563  13.337   1.252
72490W        W37475   5.219   9.723  11.534
72491W        W37476  39.535   9.368   2.278
72492W        W37477  16.244  16.558   2.464
72493W        W37478  21.672  29.517   3.261
72494W        W37479   8.791   3.802   3.152
72495W        W37480   2.727  27.542   2.494
72496W        W37481  32.100  11.444   3.979
72497W        W37482  14.541  20.848   1.225
72498W        W37483   5.801   2.622   1.214
72499W        W37484  25.514  13.065   3.231
72500W        W37485  22.267  20.952   2.239
72501W        W37486   8.704   1.189  11.480
72502W        W37487   6.261   0.831  12.104
72503W        W37488   7.710  10.015  12.685
72504W        W37489  15.152  27.865   1.327
72505W        W37490   6.112  37.503  14.113
72506W        W37491  28.678  12.795  11.578
72507W        W37492  26.184  15.525   2.729
72508W        W37493  18.502  38.007   4.797
72509W        W37494  29.165  33.701  13.457
72510W        W37495  24.218  18.098  11.127
72511W        W37496  14.250  11.005   0.470
72512W        W37497  42.911  10.847  13.757
72513W        W37498  43.857   6.742  10.679
72514W        W37499  11.825  43.045   3.579
72515W        W37500  18.763  27.349  11.388
72516W        W37501   9.068  28.243   3.719
72517W        W37502  31.418  20.722  14.522
72518W        W37503  41.185   1.940   4.160
72519W        W37504  13.099   7.704   9.790
72520W        W37505  26.625  41.044  12.625
72521W        W37506   9.888  38.891  10.645
72522W        W37507  24.130  42.694  13.323
72523W        W37508  44.299  40.222  10.221
72524W        W37509  35.988   9.339   2.607
72525W        W37510  41.093   3.996  10.972
72526W        W37511  11.630  39.210  14.090
72527W        W37512  31.542  20.497   0.843
72528W        W37513  27.403  36.454  14.064
72529W        W37514  20.929  35.138   1.651
72530W        W37515  24.156  14.120   2.679
72531W        W37516   0.881   1.758   2.224
72532W        W37517   0.333  44.866  11.277
72533W        W37518  26.085  24.596  10.435
72534W        W37519  23.120   0.198  12.371
72535W        W37520   3.761   2.517   2.841
72536W        W37521  44.499  35.530  10.820
72537W        W37522   1.184   7.611   3.815
72538W        W37523  39.277  16.622  14.777
72539W        W37524  20.007  32.721   0.292
72540W        W37525  33.875  30.662  11.323
72541W        W37526  33.595  36.895  11.905
72542W        W37527  24.732  33.383   0.999
72543W        W37528  37.089  26.702   3.198
72544W        W37529  37.345  33.924  13.072
72545W        W37530  17.853  25.654  14.353
72546W        W37531  43.425   3.055  14.827
72547W        W37532  22.141  40.971   0.277
72548W        W37533  16.624  31.643   1.236
72549W        W37534  39.664  41.891   0.082
72550W        W37535   7.340  17.682   3.172
72551W        W37536   1.317   8.689   1.242
72552W        W37537  38.437  15.941  13.646
72553W        W37538  26.489  37.568  13.829
72554W        W37539   1.412  41.853   4.133
72555W        W37540  43.732  21.359  10.872
72556W        W37541  42.304  19.433   2.382
72557W        W37542  34.966  30.472   4.670
72558W        W37543  19.867   1.014  14.508
72559W        W37544  31.028  42.036   4.563
72560W        W37545  23.967  35.968  12.578
72561W        W37546  36.634  34.117   4.645
72562W        W37547  40.372  18.016   0.305
72563W        W37548  21.728  24.037  14.312
72564W        W37549  24.786  28.840   2.616
72565W        W37550  38.594  19.608  13.880
72566W        W37551  34.989  31.625  12.134
72567W        W37552  14.112  35.539   4.944
72568W        W37553  28.018  22.463   5.019
72569W        W37554  39.866  12.850  14.322
72570W        W37555  38.777  34.442  11.298
72571W        W37556  16.936   2.699   5.151
72572W        W37557  25.413   8.845  11.991
72573W        W37558   9.190  17.240  13.770
72574W        W37559  41.512  12.841  10.686
72575W        W37560  33.943  28.698  12.555
72576W        W37561   8.995  16.738   1.460
72577W        W37562  27.882   2.025  12.041
72578W        W37563  42.744  42.933   2.183
72579W        W37564  22.224  14.849  11.554
72580W        W37565  10.129   1.431  12.495
72581W        W37566  32.678  12.165  13.312
72582W        W37567   3.699  14.110   1.795
72583W        W37568  27.549   3.868   3.304
72584W        W37569  21.084  13.445   3.207
72585W        W37570  16.177  13.565  11.145
72586W        W37571  13.622   2.481  14.479
72587W        W37572  35.195  16.162   1.186
72588W        W37573  31.912  33.654  14.060
72589W        W37574  26.024  22.847  14.143
72590W        W37575   5.656  25.050   2.766
72591W        W37576  12.206   8.349   2.896
72592W        W37577   4.648  19.658   2.650
72593W        W37578  34.848  38.578  13.992
72594W        W37579  34.454  13.032  13.576
72595W        W37580  33.185  27.260  14.867
72596W        W37581  23.588  31.262  14.659
72597W        W37582  14.381  30.970   3.764
72598W        W37583  39.317  36.542  11.165
72599W        W37584  42.771  10.285  12.475
72600W        W37585  22.471  19.693  12.561
72601W        W37586  28.971  18.722   1.663
72602W        W37587  36.599  14.792   0.420
72603W        W37588   5.647  13.104  13.108
72604W        W37589  14.747  19.223   1.381
72605W        W37590   9.379  28.260  12.796
72606W        W37591  43.893  14.429   2.319
72607W        W37592  17.543   9.901   2.183
72608W        W37593  28.889   8.377   1.468
72609W        W37594  30.318  14.294  11.662
72610W        W37595  28.815  28.348  10.240
72611W        W37596  12.582  19.708   3.699
72612W        W37597  41.231  28.975  13.459
72613W        W37598   7.411  34.625   1.842
72614W        W37599  27.368  19.226   1.413
72615W        W37600  13.472  21.985   0.152
72616W        W37601  34.547   5.271   2.166
72617W        W37602  44.317   1.508   0.781
72618W        W37603  28.923  38.383   2.339
72619W        W37604  15.558  36.142   0.111
72620W        W37605   5.819  25.569  12.010
72621W        W37606  28.516  26.784   3.412
72622W        W37607  35.822  36.976  14.941
72623W        W37608   6.779  29.188   3.149
72624W        W37609  29.104  13.778  11.244
72625W        W37610  15.713  39.839  14.547
72626W        W37611   4.436  38.994   0.335
72627W        W37612  16.754  16.605  14.413
72628W        W37613  37.644  27.203  12.022
72629W        W37614   1.431   5.953  13.469
72630W        W37615  23.892  38.290   1.758
72631W        W37616  26.068  31.791  14.517
72632W        W37617  31.124  15.768  11.226
72633W        W37618  28.611   1.237  14.048
72634W        W37619  43.243  11.284  14.440
72635W        W37620  38.356  15.061   4.106
72636W        W37621  38.173  25.475   9.863
72637W        W37622  22.924   3.717   0.295
72638W        W37623   9.656   8.829  11.979
72639W        W37624  18.349  33.044   3.702
72640W        W37625   2.377   4.876  11.565
72641W        W37626  31.036   6.223  11.321
72642W        W37627  24.944  15.034  12.608
72643W        W37628   4.146  33.418   2.850
72644W        W37629  34.489  42.287  14.829
72645W        W37630  33.610  23.613   9.836
72646W        W37631  42.998   6.368  14.547
72647W        W37632  35.552  39.013  11.037
72648W        W37633  22.767  20.888   0.842
72649W        W37634  12.287  27.994  10.666
72650W        W37635  15.792  15.438   5.066
72651W        W37636  34.631  35.507   1.135
72652W        W37637  41.359  35.371   1.480
72653W        W37638  13.722  20.486  11.490
72654W        W37639  31.122  11.332  11.190
72655W        W37640  44.934  17.600  14.265
72656W        W37641   5.099  44.423  14.534
72657W        W37642  19.693  35.988  11.858
72658W        W37643   6.288   9.550   4.153
72659W        W37644  32.901  10.826  13.809
72660W        W37645  22.229  35.403   5.012
72661W        W37646   1.762  15.697   1.844
72662W        W37647   8.078   4.813   1.909
72663W        W37648  11.440  33.696   3.331
72664W        W37649  16.814  35.051  11.865
72665W        W37650  35.164   5.082  11.483
72666W        W37651  14.595   5.950  12.136
72667W        W37652  38.325   3.703  10.713
72668W        W37653  44.989  27.968  11.435
72669W        W37654  10.897  21.843   1.803
72670W        W37655   0.253  35.140  11.115
72671W        W37656   2.930  10.146   0.445
72672W        W37657  23.596  23.632   4.475
72673W        W37658  28.430  12.133   2.407
72674W        W37659   3.897  23.525  12.464
72675W        W37660   0.247   0.539   3.314
72676W        W37661  21.655  13.202   5.135
72677W        W37662   5.780   9.433   4.990
72678W        W37663  38.061   6.974   0.019
72679W        W37664  22.651  41.420  10.752
72680W        W37665   8.597  18.979  13.853
72681W        W37666  39.253  40.258   1.835
72682W        W37667   4.855  42.583  14.325
72683W        W37668  10.189  22.019  13.534
72684W        W37669   0.851   4.069   0.781
72685W        W37670  39.588   9.081  13.451
72686W        W37671  23.668  23.545   0.405
72687W        W37672  12.606  28.930  10.257
72688W        W37673  42.956   9.573   3.977
72689W        W37674  21.733  43.870  13.050
72690W        W37675  43.672  42.980  11.209
72691W        W37676   0.432  29.197   0.474
72692W        W37677  29.577  41.245  10.232
72693W        W37678  32.629  24.151  11.513
72694W        W37679  12.024  12.189   2.233
72695W        W37680  24.530  16.175   3.266
72696W        W37681  13.218  41.805  10.393
72697W        W37682   0.441  40.802   2.746
72698W        W37683  12.662  29.034  12.016
72699W        W37684  16.562   3.535  11.323
72700W        W37685  17.133  39.616   4.183
72701W        W37686  28.622  18.740   3.321
72702W        W37687   0.486  29.133  12.186
72703W        W37688  42.975   7.528  10.663
72704W        W37689   4.894  33.659  11.231
72705W        W37690   0.406  20.043  14.878
72706W        W37691  42.927  43.820  12.567
72707W        W37692  39.040  43.878   2.325
72708W        W37693  37.988  15.323   1.273
72709W        W37694   2.611   2.664   0.011
72710W        W37695   2.850  36.510   4.504
72711W        W37696  41.731   6.485  13.957
72712W        W37697  10.630  19.733   0.924
72713W        W37698  36.848   7.383  14.803
72714W        W37699  14.345  35.834  13.550
72715W        W37700  25.520  42.118  14.944
72716W        W37701  18.236  27.064  12.020
72717W        W37702  30.178   4.478  13.379
72718W        W37703   4.925  33.475  13.488
72719W        W37704  25.408  44.535   2.747
72720W        W37705  41.276  32.147  14.601
72721W        W37706  15.404  25.027  12.862
72722W        W37707  22.921  24.625  12.413
72723W        W37708   1.971  40.853   3.703
72724W        W37709  14.270  21.299  13.494
72725W        W37710  23.153  12.089   2.749
72726W        W37711  36.645  31.567   3.699
72727W        W37712   1.882  24.180  12.717
72728W        W37713  10.171   4.231  13.064
72729W        W37714  26.443  30.112  14.338
72730W        W37715  24.289   6.750  12.665
72731W        W37716   4.296   1.225  12.364
72732W        W37717  32.492  33.343   3.820
72733W        W37718  29.692  22.107  12.346
72734W        W37719  22.806  21.034   3.141
72735W        W37720  14.621  26.116  11.575
72736W        W37721  28.267  39.030  10.619
72737W        W37722  28.963  22.148   4.047
72738W        W37723  36.366   9.380  13.150
72739W        W37724  20.857  27.648   2.349
72740W        W37725  44.836  14.875  13.401
72741W        W37726  11.892  12.752  11.548
72742W        W37727  39.854  14.293  13.948
72743W        W37728  28.115   3.986  12.964
72744W        W37729  41.903  33.464   4.167
72745W        W37730   4.679  37.630   1.686
72746W        W37731  26.223  44.070  12.557
72747W        W37732  39.975  15.826  11.521
72748W        W37733  16.291  17.278  11.492
72749W        W37734  10.253  37.687   3.169
72750W        W37735  32.128  16.833   2.398
72751W        W37736  43.419   7.333  13.065
72752W        W37737   7.158  27.656  14.378
72753W        W37738   0.334  35.423   1.671
72754W        W37739  27.457  19.126  14.875
72755W        W37740   5.758   6.346   3.116
72756W        W37741  28.529  20.261  13.510
72757W        W37742  12.681  15.479  10.131
72758W        W37743  42.508  15.705  14.872
72759W        W37744  13.541  39.107  11.591
72760W        W37745  11.771   5.765   0.628
72761W        W37746  40.253  43.729   1.403
72762W        W37747  32.619  38.755  12.379
72763W        W37748   5.941  29.387  12.780
72764W        W37749  20.499  12.793   0.452
72765W        W37750   1.926  23.308  12.821
72766W        W37751  25.783  26.592   0.249
72767W        W37752  44.965  11.351  14.793
72768W        W37753   0.954   7.966   3.409
72769W        W37754  33.488  34.934  12.199
72770W        W37755  35.800  25.079  14.987
72771W        W37756  19.712  18.532   1.940
72772W        W37757   1.248   7.482  11.434
72773W        W37758  35.136   1.610  13.363
72774W        W37759   9.772  13.523   3.247
72775W        W37760  41.919  35.783   1.084
72776W        W37761  32.128  38.612   2.167
72777W        W37762  31.360  21.258  12.481
72778W        W37763  24.643  40.949   3.543
72779W        W37764   4.568   1.288  10.336
72780W        W37765   4.152  34.849  12.573
72781W        W37766  18.712  43.782  13.442
72782W        W37767  43.112   9.828  14.116
72783W        W37768   7.948   5.448  14.385
72784W        W37769  23.686  40.509   2.200
72785W        W37770  34.034  26.564   4.785
72786W        W37771  27.557  38.726   2.885
72787W        W37772  27.594  44.400  12.686
72788W        W37773  28.227  43.434  11.146
72789W        W37774  35.349   2.241   3.163
72790W        W37775   8.898   0.304  10.882
72791W        W37776   8.044  11.691  14.314
72792W        W37777  29.708  43.552   2.387
72793W        W37778  32.604  35.088   0.929
72794W        W37779   1.524  28.958   3.751
72795W        W37780  27.740  19.049   3.663
72796W        W37781  25.418  18.706   2.994
72797W        W37782  21.013  17.698   4.402
72798W        W37783  16.561  23.615  12.440
72799W        W37784   6.191   8.143   3.839
72800W        W37785  25.977  34.912   2.954
72801W        W37786  27.384  21.264   3.777
72802W        W37787  20.012  28.507  13.819
72803W        W37788  30.516  22.941   0.045
72804W        W37789  37.555  21.236  13.759
72805W        W37790   4.986  24.444   1.248
72806W        W37791   0.967  18.533   4.136
72807W        W37792   0.020  20.467  10.393
72808W        W37793  17.113  35.035   4.073
72809W        W37794  22.018  18.059  11.544
72810W        W37795  20.018  43.828  13.858
72811W        W37796  27.930  19.018   0.827
72812W        W37797  37.307  15.357   4.497
72813W        W37798  11.268   3.287   1.788
72814W        W37799  37.889  38.967  11.950
72815W        W37800  25.771   0.528  14.387
72816W        W37801  31.429  15.210  12.879
72817W        W37802  12.263  32.174   1.910
72818W        W37803  13.215  13.232   3.257
72819W        W37804   0.834   8.602   1.053
72820W        W37805  33.442  17.276  13.448
72821W        W37806  39.529   9.892   3.083
72822W        W37807   6.285  39.635   0.955
72823W        W37808  26.461  44.035  12.104
72824W        W37809  26.214  22.806  11.121
72825W        W37810   4.869  36.847  12.573
72826W        W37811  10.761  24.520   0.390
72827W        W37812  17.661  25.899  14.818
72828W        W37813  40.514  18.920   4.334
72829W        W37814  15.084  34.882   1.128
72830W        W37815   4.962  29.124   1.421
72831W        W37816  28.077  41.844   3.326
72832W        W37817  14.441  34.286  10.937
72833W        W37818   1.775  36.621  14.600
72834W        W37819   4.150  29.973  13.952
72835W        W37820  16.996  30.903   1.485
72836W        W37821  29.215  26.126   3.159
72837W        W37822   3.967  40.798  14.402
72838W        W37823  11.347  23.916  12.043
72839W        W37824  43.707  29.087   0.952
72840W        W37825  22.706  34.684   3.713
72841W        W37826  35.993  21.722  13.366
72842W        W37827  19.245  39.292  13.299
72843W        W37828  44.847  34.513   1.164
72844W        W37829   7.809  33.026   4.471
72845W        W37830  24.526   6.421   0.137
72846W        W37831   7.048  23.676  13.481
72847W        W37832  15.753   5.912   0.419
72848W        W37833  38.505   1.029   4.027
72849W        W37834  36.934   4.135   4.608
72850W        W37835   0.867  19.263   0.008
72851W        W37836  18.029  14.587   0.379
72852W        W37837  27.886  28.952  12.035
72853W        W37838   1.020   0.039   1.374
72854W        W37839  36.978   0.335  12.637
72855W        W37840  24.563   6.260   4.872
72856W        W37841  28.871  43.297   1.702
72857W        W37842  34.702  27.045  11.979
72858W        W37843  29.940  26.153   3.832
72859W        W37844  36.972   4.156  13.933
72860W        W37845  42.506   2.668   2.217
72861W        W37846  12.817   8.434   3.234
72862W        W37847  28.614  44.336  11.151
72863W        W37848  14.823  17.806   3.545
72864W        W37849  18.599   4.524  12.017
72865W        W37850  32.389  14.178   1.703
72866W        W37851   9.374  35.588  12.978
72867W        W37852  16.577  18.913   1.392
72868W        W37853  25.622  38.743  14.842
72869W        W37854  27.421  33.144   3.905
72870W        W37855   8.166  23.052  12.392
72871W        W37856  30.243   4.280   9.831
72872W        W37857  41.475  44.505  14.299
72873W        W37858  26.275  28.035  11.482
72874W        W37859  12.694   3.239  12.174
72875W        W37860  27.949  40.418   2.417
72876W        W37861   6.291  36.863   2.757
72877W        W37862  26.787  21.351  10.693
72878W        W37863  19.501  14.101  13.968
72879W        W37864  10.572  26.542   2.722
72880W        W37865  26.120  32.547  13.984
72881W        W37866  39.831  11.121   2.247
72882W        W37867   6.248  44.828  14.758
72883W        W37868  15.045  16.068   2.764
72884W        W37869  39.322  22.240  14.314
72885W        W37870  15.250  44.025   2.192
72886W        W37871  18.984  12.194   1.762
72887W        W37872  33.067  18.258  14.731
72888W        W37873  19.797  28.407  14.872
72889W        W37874  11.649  18.198   3.372
72890W        W37875   2.813  43.536   1.631
72891W        W37876  20.568   7.801  12.051
72892W        W37877  14.232  43.298  12.746
72893W        W37878  43.469   5.670  11.010
72894W        W37879   4.984  41.056   1.294
72895W        W37880   7.874  29.780  14.394
72896W        W37881   6.165  31.080   1.389
72897W        W37882   3.454  37.364   1.258
72898W        W37883   7.524  16.406   0.378
72899W        W37884  41.868  41.559   0.164
72900W        W37885  19.275   2.063   3.182
72901W        W37886  27.255   6.262   3.421
72902W        W37887   1.156  33.908   4.307
72903W        W37888  29.521  14.749   3.487
72904W        W37889  14.151  40.839  14.019
72905W        W37890   9.544  25.773  11.621
72906W        W37891  31.442  10.004   4.540
72907W        W37892  43.748  17.163   2.673
72908W        W37893  28.051  13.943  13.349
72909W        W37894   6.389   9.656   0.241
72910W        W37895  16.220  43.379   3.974
72911W        W37896   9.427  15.636  11.959
72912W        W37897  40.944  23.544   1.420
72913W        W37898  43.431  39.404  11.856
72914W        W37899  23.170  41.775  11.600
72915W        W37900  41.972  18.763   0.478
72916W        W37901  23.810   8.614   3.643
72917W        W37902  31.098  18.794  13.518
72918W        W37903  33.717   1.323  12.018
72919W        W37904  44.183  42.282  13.227
72920W        W37905  13.656  14.242   2.402
72921W        W37906  20.282  24.091   4.154
72922W        W37907  21.594  33.988  11.987
72923W        W37908   0.148  26.871   4.588
72924W        W37909  41.332   3.896   4.579
72925W        W37910   3.576  18.144  12.001
72926W        W37911  29.595  19.653  11.183
72927W        W37912   9.740   5.170  14.381
72928W        W37913   1.388  19.292  14.048
72929W        W37914  18.534  44.322  13.597
72930W        W37915  19.914  35.256   4.871
72931W        W37916  20.533  42.759   3.647
72932W        W37917  34.716  18.589  11.821
72933W        W37918  13.689  42.998  10.996
72934W        W37919  20.149  40.527   2.621
72935W        W37920  28.122  32.151  10.645
72936W        W37921  15.803  20.215   5.022
72937W        W37922  35.316  26.499   4.185
72938W        W37923  25.114   1.911  13.040
72939W        W37924  27.873  42.461   0.586
72940W        W37925  32.905  18.679  10.674
72941W        W37926   0.264  29.517   3.763
72942W        W37927  41.338  20.589  13.823
72943W        W37928  10.482  35.462   0.290
72944W        W37929   9.094  31.109  10.622
72945W        W37930  14.631  36.086   2.378
72946W        W37931  38.260   4.217   0.225
72947W        W37932  10.548  21.605  13.569
72948W        W37933  29.589   3.180  11.872
72949W        W37934   4.818  10.139  14.838
72950W        W37935  20.651   1.850  12.905
72951W        W37936   5.669  18.655   3.031
72952W        W37937  36.480  19.434  14.699
72953W        W37938  43.944  39.270   4.525
72954W        W37939  32.426  18.074   4.151
72955W        W37940  31.475  40.298  10.736
72956W        W37941  14.082  20.857   0.291
72957W        W37942   5.291  13.215   2.396
72958W        W37943  34.246  37.360  14.062
72959W        W37944  41.962   0.652  13.329
72960W        W37945  37.687   0.139  11.446
72961W        W37946   1.909  37.885  10.513
72962W        W37947  22.166  31.681  12.148
72963W        W37948  30.241  41.086   3.200
72964W        W37949  16.598  43.559   2.736
72965W        W37950  38.007   7.975  11.178
72966W        W37951  31.615  31.572  12.662
72967W        W37952   1.242  24.693   0.685
72968W        W37953   9.695  18.279  14.831
72969W        W37954   4.343  38.764   1.648
72970W        W37955  40.979   3.077  12.987
72971W        W37956  18.924   7.411   0.376
72972W        W37957  41.202  22.535  13.066
72973W        W37958  13.361  40.959  10.530
72974W        W37959  13.679  31.371  14.362
72975W        W37960  44.592  25.501  14.431
72976W        W37961  10.414  44.321   1.129
72977W        W37962  22.677  21.686  12.116
72978W        W37963  12.286   3.338   0.611
72979W        W37964  44.739  39.044  10.626
72980W        W37965  40.066   0.507  14.686
72981W        W37966  21.008  30.086  14.802
72982W        W37967  19.810   1.438  10.468
72983W        W37968   8.633  30.065   1.273
72984W        W37969   9.146  25.606   4.719
72985W        W37970  17.028  31.618   3.570
72986W        W37971  15.616  25.628  13.880
72987W        W37972   8.809  14.490   3.591
72988W        W37973  34.962  39.624   0.883
72989W        W37974  28.411   9.060  14.922
72990W        W37975  41.114  30.089  10.226
72991W        W37976  29.068  21.235   4.724
72992W        W37977  25.875   9.930  11.085
72993W        W37978  22.101   9.796  13.853
72994W        W37979   4.563  38.252   4.510
72995W        W37980   3.337  35.074   0.836
72996W        W37981  11.352  25.672  11.302
72997W        W37982  25.670   7.373   4.130
72998W        W37983  17.813   1.433  14.836
72999W        W37984  27.233  26.948  13.471
73000W        W37985  29.139  35.886  11.409
73001W        W37986  11.756  31.745   0.834
73002W        W37987  15.953  30.275   1.006
73003W        W37988  19.716   1.519   0.466
73004W        W37989  14.043  37.627   2.787
73005W        W37990   8.281  11.654  12.876
73006W        W37991  37.846   1.884  14.527
73007W        W37992  40.607  10.598  14.541
73008W        W37993  40.272   8.279  14.493
73009W        W37994  39.643  24.226  13.658
73010W        W37995  31.568   2.298   1.152
73011W        W37996  28.945  12.143  11.647
73012W        W37997  39.592  28.022   1.708
73013W        W37998  36.347  32.730  10.920
73014W        W37999   9.295   0.518  11.491
73015W        W38000   1.887  36.071  12.942
73016W        W38001   3.848  19.229  13.330
73017W        W38002  20.568  15.501  12.516
73018W        W38003  23.226  42.471   0.840
73019W        W38004  35.391   1.496  13.814
73020W        W38005  26.722   1.389  13.327
73021W        W38006  13.054  11.363  14.287
73022W        W38007   7.133  20.616  14.707
73023W        W38008  24.457   0.282   2.238
73024W        W38009  15.195  38.617  12.900
73025W        W38010  10.133  29.636  11.143
73026W        W38011  10.702  26.398  13.405
73027W        W38012  15.819  22.440  14.443
73028W        W38013  13.360  17.091  13.104
73029W        W38014  18.878  11.970  10.959
73030W        W38015  23.460  41.261  11.171
73031W        W38016  43.317  24.384  10.987
73032W        W38017   9.175  35.837  12.480
73033W        W38018  39.593  28.102  14.916
73034W        W38019  23.985   2.620   1.187
73035W        W38020  44.857  27.130  13.361
73036W        W38021   1.347  43.049   3.220
73037W        W38022  12.682  15.290  11.071
73038W        W38023  43.258  13.934  12.453
73039W        W38024  34.260  28.429   2.730
73040W        W38025  15.145  28.959   0.890
73041W        W38026  10.768  44.489   1.476
73042W        W38027  23.182  15.420  12.816
73043W        W38028  14.501  17.110  12.310
73044W        W38029  24.767   2.673  14.452
73045W        W38030   6.712  17.322   3.611
73046W        W38031  31.518  10.954   1.214
73047W        W38032  14.096  27.044  12.155
73048W        W38033  18.217  24.677   3.746
73049W        W38034  40.823   0.366   3.128
73050W        W38035  41.092  36.925   0.446
73051W        W38036  25.144   3.741  12.456
73052W        W38037  42.297  10.125   4.628
73053W        W38038   8.275  31.182   4.692
73054W        W38039  25.089  35.788  13.050
73055W        W38040  18.596   1.471   1.505
73056W        W38041   3.876  21.500  11.436
73057W        W38042  35.432  11.477  11.562
73058W        W38043   9.162   6.204  14.965
73059W        W38044   6.408  31.731   2.219
73060W        W38045   9.194  24.656  12.424
73061W        W38046  22.214  42.963  12.832
73062W        W38047  32.008   1.956  10.978
73063W        W38048  18.883   5.364   3.556
73064W        W38049  10.850  37.110  10.666
73065W        W38050  37.293  27.019  13.307
73066W        W38051  25.676  30.997   0.477
73067W        W38052   2.546   3.398  13.728
73068W        W38053  31.968   4.849  13.800
73069W        W38054  11.529  44.938  13.125
73070W        W38055   9.646  32.204   0.365
73071W        W38056  14.008  18.681  13.672
73072W        W38057  40.442  20.574   3.653
73073W        W38058  12.863   4.250  12.924
73074W        W38059   3.381   3.341  13.844
73075W        W38060   2.019  13.158  11.994
73076W        W38061  24.712   0.792   1.397
73077W        W38062  41.073   8.211   0.527
73078W        W38063   7.664   8.095   4.629
73079W        W38064  36.961  34.138  12.790
73080W        W38065  11.204  29.098   3.581
73081W        W38066  12.050  23.614  11.414
73082W        W38067   0.485  22.703   4.561
73083W        W38068  32.366  41.041   4.292
73084W        W38069  37.090  26.316   0.259
73085W        W38070   3.439  33.080  14.015
73086W        W38071   5.885  28.097   2.380
73087W        W38072  41.884  15.504   1.958
73088W        W38073  37.312  35.047   1.298
73089W        W38074  29.992  19.186  13.254
73090W        W38075   7.669  32.073   4.036
73091W        W38076  42.603   4.224  14.810
73092W        W38077  37.089  40.377  13.597
73093W        W38078  13.056  18.431  11.988
73094W        W38079  16.383  25.413   2.744
73095W        W38080  14.119  42.341   1.399
73096W        W38081  15.886  39.573   3.139
73097W        W38082  41.370  12.060   0.031
73098W        W38083  22.219  10.130   4.520
73099W        W38084   0.009  13.907  13.582
73100W        W38085  28.705   0.461   2.897
73101W        W38086  31.762  38.289   0.478
73102W        W38087  25.361  32.308   3.447
73103W        W38088  22.723  24.686  11.911
73104W        W38089  18.610  21.643   4.215
73105W        W38090  32.613  23.089  13.174
73106W        W38091  41.506  32.095   3.999
73107W        W38092  34.652   4.452   0.199
73108W        W38093  33.946  27.956  11.590
73109W        W38094  10.112  10.746  10.567
73110W        W38095   0.920   2.714   1.211
73111W        W38096  41.969  34.868  13.858
73112W        W38097  28.898  36.522  14.898
73113W        W38098  25.144   8.332   2.170
73114W        W38099  38.362  26.146  14.490
73115W        W38100  19.786  26.263  11.471
73116W        W38101  34.992  27.073   3.572
73117W        W38102  23.742  15.824   2.016
73118W        W38103  31.743  29.406   4.424
73119W        W38104   1.993  23.424  14.710
73120W        W38105  39.195  27.081   4.725
73121W        W38106  32.450  14.161  12.583
73122W        W38107  10.247  22.211  13.079
73123W        W38108  16.877  38.651   1.747
73124W        W38109   5.909  31.145   4.718
73125W        W38110   9.776   2.242   2.777
73126W        W38111  17.356  43.858   1.835
73127W        W38112  38.662  31.635   0.729
73128W        W38113  17.637  40.535   5.027
73129W        W38114   2.278  11.262   1.701
73130W        W38115  41.561  16.699   0.936
73131W        W38116  10.279   2.476  12.439
73132W        W38117  30.829   2.757   0.263
73133W        W38118  37.894  23.879  12.507
73134W        W38119   8.240  34.452   4.850
73135W        W38120  23.667  28.766   3.197
73136W        W38121  34.801   8.689   2.571
73137W        W38122  18.288  38.818  10.839
73138W        W38123   3.444  13.711  11.776
73139W        W38124  13.210   8.122   2.424
73140W        W38125   8.725  44.300   3.818
73141W        W38126   9.258  38.414   1.701
73142W        W38127   4.356  31.792  10.244
73143W        W38128  18.599  18.457  13.975
73144W        W38129  30.442   4.462   3.790
73145W        W38130  44.281  43.705  14.342
73146W        W38131   3.738  26.845   4.133
73147W        W38132  36.400   3.247  13.329
73148W        W38133  10.224  31.715   1.851
73149W        W38134  34.847  13.373   5.093
73150W        W38135   6.370  17.518  13.824
73151W        W38136   7.948  14.368   2.700
73152W        W38137  36.366  30.811   0.050
73153W        W38138   7.989   3.169  13.734
73154W        W38139   4.012  24.099   4.241
73155W        W38140  33.472  26.029   0.785
73156W        W38141  33.700  43.945   0.166
73157W        W38142  29.879  26.252  14.855
73158W        W38143  44.416  13.584   3.720
73159W        W38144  28.559  13.627   0.862
73160W        W38145  30.890  31.861  13.062
73161W        W38146  15.115  35.001   2.812
73162W        W38147  33.330  15.110  13.654
73163W        W38148  11.779  30.772  12.612
73164W        W38149  30.924  11.564   9.980
73165W        W38150  44.979   6.365  13.327
73166W        W38151  40.515  29.505  12.446
73167W        W38152  43.003  19.269  12.614
73168W        W38153   1.679  42.035   3.256
73169W        W38154  23.149  38.372  12.442
73170W        W38155  28.168   1.308   2.296
73171W        W38156   2.340   5.473   2.374
73172W        W38157  28.442   0.173   5.053
73173W        W38158  26.195   7.163   2.708
73174W        W38159  10.392  13.118  14.565
73175W        W38160  24.138   6.053   4.082
73176W        W38161  22.936   1.732  12.518
73177W        W38162  35.434  24.066  11.229
73178W        W38163  24.127  20.022  10.761
73179W        W38164  19.090  33.559   1.738
73180W        W38165  27.945  14.721  11.094
73181W        W38166  39.098   4.133  14.629
73182W        W38167  16.407   6.226  14.959
73183W        W38168  30.858   5.668   0.454
73184W        W38169   0.196  29.966   1.650
73185W        W38170  26.739  17.228  10.708
73186W        W38171  24.447  30.058  11.190
73187W        W38172   6.203  13.690  11.656
73188W        W38173  22.983  40.882   2.608
73189W        W38174  25.956   5.400   1.696
73190W        W38175  15.783  10.609   3.111
73191W        W38176  27.931  11.752  14.358
73192W        W38177  19.267  32.530  10.728
73193W        W38178   1.709   1.120   1.683
73194W        W38179  27.048  32.471   3.214
73195W        W38180  36.954  28.121   2.746
73196W        W38181   6.962  25.670   1.617
73197W        W38182  43.800  38.362   2.379
73198W        W38183  38.233  31.252   4.781
73199W        W38184  43.585  36.635   4.934
73200W        W38185  41.643  24.543   9.958
73201W        W38186  14.047  30.705  14.855
73202W        W38187  18.212  32.860  11.983
73203W        W38188  17.056  44.233   3.578
73204W        W38189  33.493  14.472   3.830
73205W        W38190   3.008   7.355  14.832
73206W        W38191  29.692  44.523  13.373
73207W        W38192  43.804  12.420   4.122
73208W        W38193  39.467  21.788   2.342
73209W        W38194   0.894   9.199  14.811
73210W        W38195  39.013  44.299  12.672
73211W        W38196  27.567  27.686   4.821
73212W        W38197  39.490   6.020   3.156
73213W        W38198  13.635   4.769   3.589
73214W        W38199   9.835  14.894  13.129
73215W        W38200   6.427  15.386  11.421
73216W        W38201  24.588  31.930  12.193
73217W        W38202  38.550   5.353  10.312
73218W        W38203  11.230  16.910   3.412
73219W        W38204   8.813   7.365  13.044
73220W        W38205   8.509   9.580   0.742
73221W        W38206   9.068  26.086   4.535
73222W        W38207   5.496  33.784  14.352
73223W        W38208  16.214   5.233   2.637
73224W        W38209  16.522  27.659   2.306
73225W        W38210  32.415  24.490  14.835
73226W        W38211  21.557  25.107   5.075
73227W        W38212  16.281  35.976  13.423
73228W        W38213   1.827  41.412   1.102
73229W        W38214  15.281  41.776   3.623
73230W        W38215  12.276  30.187   0.829
73231W        W38216  33.342   2.974  11.285
73232W        W38217   8.428   5.242  14.402
73233W        W38218  31.034  41.952  12.248
73234W        W38219  30.246  16.720  10.890
73235W        W38220  18.819  23.055   2.768
73236W        W38221  32.668  13.100   5.044
73237W        W38222   9.777  24.441  11.204
73238W        W38223  22.820  13.801   3.128
73239W        W38224  28.659  33.094  13.971
73240W        W38225  41.322  20.761   0.256
73241W        W38226  44.428   0.208   3.685
73242W        W38227  24.133  16.362  12.446
73243W        W38228  40.082   6.597  11.693
73244W        W38229  40.327   5.225   2.271
73245W        W38230  16.037  33.561   1.886
73246W        W38231  41.550  21.703   2.299
73247W        W38232  41.356  22.976  14.446
73248W        W38233  15.023  34.663  14.901
73249W        W38234  18.024  38.186  13.344
73250W        W38235  15.318  25.680  13.454
73251W        W38236  13.129   0.596  10.770
73252W        W38237  28.380  23.568   2.816
73253W        W38238  34.877  25.977   1.261
73254W        W38239  34.840  11.607  13.763
73255W        W38240   0.703  17.289   4.825
73256W        W38241  37.916  17.824   1.411
73257W        W38242  11.643   9.444  10.761
73258W        W38243  21.081  27.441   0.273
73259W        W38244   6.154  29.894  13.962
73260W        W38245  42.076  32.056  14.017
73261W        W38246  40.239  41.573  11.574
73262W        W38247  24.611  20.680  11.829
73263W        W38248  31.780  40.831  10.772
73264W        W38249  28.421  35.900   2.640
73265W        W38250  12.688  24.614   0.865
73266W        W38251  35.474  16.591   1.306
73267W        W38252  39.963  31.681   1.111
73268W        W38253  35.792   2.823   2.722
73269W        W38254   8.669  30.233  11.084
73270W        W38255  22.493  32.763   5.253
73271W        W38256  38.365  35.049  11.330
73272W        W38257   4.922  40.497  10.199
73273W        W38258  43.701  11.669   0.736
73274W        W38259   3.703   4.176  14.075
73275W        W38260   9.841  14.577  13.532
73276W        W38261  29.761  44.456  10.314
73277W        W38262  29.474  32.581  10.709
73278W        W38263  43.531  22.771   2.728
73279W        W38264  14.060  18.720  10.754
73280W        W38265  19.644  31.711  11.898
73281W        W38266  19.763  25.777  13.572
73282W        W38267  20.278   7.365   1.876
73283W        W38268  11.136  12.863   3.784
73284W        W38269  41.118  37.326  11.972
73285W        W38270  39.573  30.373  11.883
73286W        W38271   4.917  18.469  14.262
73287W        W38272  24.575  35.963  14.014
73288W        W38273  34.374  23.733  13.904
73289W        W38274  41.078  31.650   3.301
73290W        W38275   7.636  26.176   1.972
73291W        W38276  22.039  33.735  12.017
73292W        W38277  42.843   1.799   0.973
73293W        W38278  41.987  14.150   1.892
73294W        W38279  26.659  23.758  13.447
73295W        W38280  20.135  21.539  11.528
73296W        W38281  42.943  20.827   2.679
73297W        W38282  17.218  35.507  10.473
73298W        W38283  19.444  44.410   2.224
73299W        W38284  29.348  19.559  12.653
73300W        W38285  43.379  40.771   3.845
73301W        W38286  18.739   4.800   4.651
73302W        W38287   5.975  24.073  13.800
73303W        W38288  38.550  38.605   0.468
73304W        W38289  14.177  15.749  13.044
73305W        W38290  11.307  16.412   3.552
73306W        W38291  36.168  35.535  11.100
73307W        W38292  31.497  31.393  11.914
73308W        W38293  38.966   3.554   1.773
73309W        W38294  36.970   3.442   1.866
73310W        W38295   0.017  44.809  14.079
73311W        W38296  24.940  17.486  11.136
73312W        W38297  37.527  20.083   1.244
73313W        W38298  44.088   7.427   0.297
73314W        W38299  18.860  30.133  12.603
73315W        W38300  24.276  42.740  14.346
73316W        W38301   2.742  32.050  13.845
73317W        W38302  16.465  18.220   3.246
73318W        W38303  20.772  42.707   4.121
73319W        W38304   4.595   8.208   4.670
73320W        W38305  13.333  33.456   4.104
73321W        W38306   9.895  30.176   1.723
73322W        W38307   2.830  15.822  13.439
73323W        W38308  26.011  31.334  13.444
73324W        W38309   1.989  14.957  11.157
73325W        W38310  17.146  15.177   2.580
73326W        W38311  26.500  11.535  11.730
73327W        W38312  19.094   9.531  11.179
73328W        W38313  17.553  19.766  13.689
73329W        W38314  41.375  15.612   5.448
73330W        W38315  29.025  25.774  11.891
73331W        W38316  11.393   3.084  14.892
73332W        W38317  15.608  10.540  14.742
73333W        W38318  18.450  41.901   4.369
73334W        W38319  16.726  24.745  13.772
73335W        W38320  15.693  32.564  11.687
73336W        W38321  24.236  22.082  11.103
73337W        W38322  23.477   2.246   3.454
73338W        W38323  32.583  25.669  11.515
73339W        W38324  43.008  21.845   9.869
73340W        W38325  24.331  26.454   2.807
73341W        W38326  38.454  16.993   4.726
73342W        W38327  43.393  18.461  12.921
73343W        W38328  10.185  13.235  11.569
73344W        W38329  25.030  26.068  11.159
73345W        W38330   0.976  26.576   5.081
73346W        W38331  36.326  29.962   3.248
73347W        W38332  21.840   2.249   2.403
73348W        W38333  24.995  16.271   0.304
73349W        W38334   0.664  25.735   0.084
73350W        W38335  38.409  44.847   2.209
73351W        W38336   0.038  44.318   2.887
73352W        W38337   8.120   8.864   4.760
73353W        W38338   7.937  31.085   0.902
73354W        W38339   4.071   6.170   3.790
73355W        W38340   9.855  14.738   1.387
73356W        W38341   7.160   4.193  11.698
73357W        W38342  29.667   3.004  12.343
73358W        W38343  16.063  39.323  11.576
73359W        W38344  14.777  40.512   0.269
73360W        W38345  29.219  22.804  11.226
73361W        W38346  29.506  27.987  13.291
73362W        W38347  40.636  44.876  11.183
73363W        W38348  25.514  16.173   2.297
73364W        W38349  10.833  29.915   0.980
73365W        W38350  22.315  18.053  11.971
73366W        W38351   2.978  14.813   4.209
73367W        W38352   7.146   5.032  14.312
73368W        W38353  42.955  23.960   3.104
73369W        W38354  39.293   6.186  10.732
73370W        W38355  18.952  22.948  14.904
73371W        W38356  13.578   7.056  10.031
73372W        W38357   6.692  16.691   1.927
73373W        W38358  27.910  37.506  13.108
73374W        W38359  36.344  25.090   2.307
73375W        W38360  41.811  21.558   0.252
73376W        W38361  23.260  12.909  11.076
73377W        W38362  29.945  23.085   3.306
73378W        W38363   4.193  28.572   2.369
73379W        W38364  30.017  11.147   0.754
73380W        W38365  37.743  13.467   4.578
73381W        W38366  30.539  41.257   2.299
73382W        W38367   4.862   6.516   3.619
73383W        W38368   4.856  15.295  10.456
73384W        W38369  41.999  19.204   0.765
73385W        W38370  11.863  31.917   4.208
73386W        W38371  33.524  27.020  10.784
73387W        W38372  24.624  15.097   3.811
73388W        W38373  43.002   0.312  12.068
73389W        W38374  12.350  12.640  11.994
73390W        W38375   1.360  41.487   0.805
73391W        W38376   4.513   3.195  12.757
73392W        W38377  24.503  32.891   4.192
73393W        W38378  31.984  11.904  11.841
73394W        W38379  14.306  44.302  12.920
73395W        W38380  18.675   4.874   1.287
73396W        W38381   0.190  13.207  12.545
73397W        W38382  29.638  22.161  14.643
73398W        W38383  43.485  37.319   3.711
73399W        W38384  15.163  29.481   1.171
73400W        W38385   1.011  15.435  10.045
73401W        W38386  19.039   5.147   2.352
73402W        W38387  32.947  38.512  14.593
73403W        W38388  17.738  11.919  11.621
73404W        W38389   9.171  23.719  14.342
73405W        W38390  14.185  21.638   3.079
73406W        W38391   0.844  31.947   4.546
73407W        W38392  26.786   6.519   3.451
73408W        W38393  27.827  36.070   3.763
73409W        W38394  44.436   1.239  11.497
73410W        W38395   3.761   5.699   3.631
73411W        W38396  25.134   3.624   1.931
73412W        W38397   8.447   4.361  14.488
73413W        W38398  26.011  20.004   4.184
73414W        W38399  22.973  13.103   3.675
73415W        W38400  18.829  26.724   4.805
73416W        W38401  38.346  35.684  12.511
73417W        W38402  31.019  25.545   0.094
73418W        W38403  13.752  36.840  12.377
73419W        W38404   9.332  19.595  11.132
73420W        W38405  12.626  43.132  13.418
73421W        W38406  13.093   2.405   2.382
73422W        W38407  32.488  41.281  12.102
73423W        W38408  28.986  26.336   2.304
73424W        W38409  29.091  16.644   0.845
73425W        W38410  34.803  39.524  14.930
73426W        W38411  21.081   8.946  13.535
73427W        W38412  33.232  35.977  14.378
73428W        W38413  22.155  10.577   3.660
73429W        W38414  39.604  26.129  14.909
73430W        W38415  14.045  13.931   4.122
73431W        W38416   1.211   7.161  13.374
73432W        W38417   7.215  24.210  13.441
73433W        W38418   5.229   1.078   2.699
73434W        W38419  18.502  15.513   0.721
73435W        W38420  18.689  36.296   2.179
73436W        W38421  40.811  30.634  12.566
73437W        W38422  34.213  17.344  13.698
73438W        W38423  20.687   9.149  14.221
73439W        W38424  39.224  11.241  11.087
73440W        W38425  43.013  28.462   0.462
73441W        W38426   1.674   8.414  13.597
73442W        W38427  22.639  17.218  13.427
73443W        W38428  41.447   4.222   4.105
73444W        W38429  43.872  31.010  11.676
73445W        W38430  28.199  32.465  11.068
73446W        W38431   8.883  13.622  10.753
73447W        W38432   3.530   6.017   4.959
73448W        W38433   3.462  38.205   1.020
73449W        W38434  19.819   0.797   3.137
73450W        W38435  36.037   1.738   0.685
73451W        W38436  22.237  37.871  11.576
73452W        W38437  29.460  40.429   3.465
73453W        W38438   4.341  38.461  12.605
73454W        W38439   8.969  24.191   1.277
73455W        W38440  40.843  36.431  12.364
73456W        W38441  23.367  25.273  11.014
73457W        W38442  25.678  17.215   4.117
73458W        W38443  33.572  13.597   4.660
73459W        W38444   0.846   3.172   3.614
73460W        W38445  22.242   7.115  13.244
73461W        W38446  12.357  25.932  13.513
73462W        W38447   9.905  34.028   2.728
73463W        W38448  42.592  10.082   0.402
73464W        W38449  20.017  14.633   3.405
73465W        W38450  41.887  31.599   0.745
73466W        W38451  14.472  15.340   1.018
73467W        W38452  39.745  18.154  12.381
73468W        W38453  24.982  16.158   1.485
73469W        W38454  12.649   4.918   4.047
73470W        W38455  33.432   4.373   0.362
73471W        W38456  16.639  12.434   4.752
73472W        W38457  10.616  30.113  14.768
73473W        W38458  19.058   5.786  13.069
73474W        W38459  10.227  41.066  11.671
73475W        W38460  12.354   0.449   4.296
73476W        W38461  15.279  25.673   2.252
73477W        W38462   2.135  17.277  11.846
73478W        W38463  32.173  18.075   2.134
73479W        W38464   1.590  23.755  12.891
73480W        W38465   8.585  14.679  10.707
73481W        W38466  24.679  33.850  14.437
73482W        W38467  17.982   0.318   5.082
73483W        W38468  41.305   7.867   2.840
73484W        W38469  29.139  35.391   2.192
73485W        W38470  17.926  16.810  13.312
73486W        W38471  34.695   5.821  11.110
73487W        W38472  19.642  10.229   4.902
73488W        W38473  17.638   7.340  13.551
73489W        W38474  33.121   6.836  13.363
73490W        W38475  35.569  27.518   3.059
73491W        W38476  44.907   8.710  13.718
73492W        W38477  36.511   8.885   0.828
73493W        W38478  35.106  21.197  12.857
73494W        W38479   2.508  28.592   3.947
73495W        W38480  40.874  28.226   4.022
73496W        W38481  27.975  37.572   0.483
73497W        W38482  11.862   9.068  14.483
73498W        W38483  32.995   5.656  10.723
73499W        W38484  38.492  13.462   2.513
73500W        W38485  44.244   9.749  13.453
73501W        W38486  20.842   0.181   3.600
73502W        W38487  27.077  44.658   3.670
73503W        W38488  11.730  30.684  13.482
73504W        W38489   8.820  41.561   0.914
73505W        W38490  36.546   0.711  11.945
73506W        W38491  36.658  26.961   2.763
73507W        W38492  24.778  42.179  12.000
73508W        W38493  34.970   2.913  12.552
73509W        W38494   8.225  39.461   4.596
73510W        W38495  23.267   0.019  14.325
73511W        W38496  32.399   0.397  14.744
73512W        W38497  13.747  36.807   0.120
73513W        W38498   7.861  43.385  13.897
73514W        W38499  14.846  42.076   3.561
73515W        W38500  25.235  13.196  14.468
73516W        W38501  15.262   2.351   3.862
73517W        W38502  35.774  38.272  13.846
73518W        W38503  16.162  24.506   1.400
73519W        W38504   7.227   0.918  14.461
73520W        W38505   4.745  27.573  10.487
73521W        W38506  35.416   3.714  12.644
73522W        W38507   7.269   9.857   3.958
73523W        W38508   4.840  43.027  12.071
73524W        W38509  34.814  27.259   4.544
73525W        W38510  26.130  19.078   0.514
73526W        W38511  25.729  37.802   0.858
73527W        W38512  36.082  12.346   1.017
73528W        W38513   3.127  22.680   0.780
73529W        W38514  25.297  41.597  15.000
73530W        W38515  23.019  24.680  13.473
73531W        W38516  42.329  23.731   1.672
73532W        W38517  33.018  23.082  11.498
73533W        W38518  36.534  16.634  13.941
73534W        W38519  40.384   9.811   1.608
73535W        W38520  30.635   0.829   1.807
73536W        W38521   5.885  23.011   2.400
73537W        W38522  12.197  19.980   4.534
73538W        W38523  11.774  43.520  14.379
73539W        W38524  24.953  43.462   5.095
73540W        W38525  40.910  33.321   5.079
73541W        W38526  44.932  23.726  13.807
73542W        W38527   9.726  41.777   4.864
73543W        W38528  17.571   2.009  12.920
73544W        W38529  10.366  11.633   0.278
73545W        W38530  44.077  14.394   2.791
73546W        W38531  20.935  26.590   0.355
73547W        W38532  12.703   7.596   1.626
73548W        W38533  22.388  20.020   0.734
73549W        W38534  33.825  24.125   1.332
73550W        W38535  25.591  16.330  11.234
73551W        W38536  12.896  41.138  14.514
73552W        W38537  19.236  40.938  13.127
73553W        W38538  10.246  40.495   2.073
73554W        W38539  20.985  25.489   4.584
73555W        W38540  19.674  27.863   3.445
73556W        W38541  38.568  26.391   3.210
73557W        W38542  43.659  23.126   4.487
73558W        W38543  26.361  24.536  14.732
73559W        W38544   2.906  11.296   2.887
73560W        W38545  36.644  21.936  11.224
73561W        W38546  33.417  39.334   3.330
73562W        W38547  18.647   0.515  14.051
73563W        W38548   2.245  11.634   0.948
73564W        W38549  22.312   0.180   1.215
73565W        W38550   9.125  28.093   2.854
73566W        W38551  14.605  18.970  14.425
73567W        W38552  27.955  13.538  10.684
73568W        W38553  41.627   0.174  11.090
73569W        W38554  25.460  23.675  12.873
73570W        W38555  28.216  27.910   3.933
73571W        W38556  31.424  35.917   3.736
73572W        W38557   8.150   8.277  14.319
73573W        W38558  17.789  36.583   4.649
73574W        W38559  12.293   8.833   3.584
73575W        W38560  28.149   2.761  14.999
73576W        W38561   4.850  42.535   4.202
73577W        W38562   0.331  29.041   2.671
73578W        W38563  33.320  23.072   1.093
73579W        W38564  28.611  17.396  10.842
73580W        W38565   7.221  24.552   4.731
73581W        W38566  15.013  12.196   1.111
73582W        W38567  17.563  17.786   1.423
73583W        W38568   5.490  24.637   3.649
73584W        W38569   9.752  41.503  10.542
73585W        W38570   7.299   3.659  10.253
73586W        W38571  25.167   9.146  12.400
73587W        W38572  33.425  28.192   0.005
73588W        W38573  43.818  10.881   1.690
73589W        W38574   3.798  35.468   1.268
73590W        W38575  12.476  37.288  13.566
73591W        W38576  21.694  43.418  14.039
73592W        W38577   3.273  40.581  10.594
73593W        W38578  15.442  31.999  11.982
73594W        W38579  43.379   7.178  10.685
73595W        W38580  40.809   9.009   4.924
73596W        W38581  38.086  41.455   0.775
73597W        W38582  27.677  18.793  14.491
73598W        W38583  20.668   8.847   0.973
73599W        W38584   2.253  10.690   2.875
73600W        W38585  21.154  11.375   1.346
73601W        W38586  38.305  10.258   1.540
73602W        W38587   5.475   4.293   2.610
73603W        W38588  33.041   5.917   5.018
73604W        W38589   9.664  41.513  11.893
73605W        W38590  38.048  36.071   2.176
73606W        W38591  22.575   4.950   0.019
73607W        W38592  33.784  26.141   2.236
73608W        W38593  31.287  27.413   4.891
73609W        W38594  26.052   4.288   1.263
73610W        W38595   3.099  39.282   1.357
73611W        W38596   4.719  40.037  12.022
73612W        W38597   3.421  44.595  14.310
73613W        W38598  24.645  23.856  10.429
73614W        W38599  38.850  37.401  12.544
73615W        W38600  38.041  42.973  14.463
73616W        W38601  33.812  36.875   3.778
73617W        W38602  22.989  10.448  10.692
73618W        W38603   8.833  14.833  13.435
73619W        W38604  18.511  31.883   4.239
73620W        W38605  34.886  41.767   0.002
73621W        W38606  12.282  28.648   1.614
73622W        W38607  19.230   2.206  12.143
73623W        W38608  39.062  41.938   4.621
73624W        W38609  15.533  42.040   2.786
73625W        W38610   4.980   5.724   1.681
73626W        W38611  14.414  41.271   4.592
73627W        W38612  28.580  27.886  10.977
73628W        W38613  23.898  23.562  14.934
73629W        W38614  44.936  19.240   4.387
73630W        W38615   3.199  39.634  13.587
73631W        W38616  33.096  32.104  10.730
73632W        W38617  17.107  22.018   2.795
73633W        W38618   4.664  31.240  12.776
73634W        W38619   2.961  41.928   2.743
73635W        W38620   1.579  25.313   1.453
73636W        W38621  22.837  10.564  12.368
73637W        W38622  21.237  44.292  12.329
73638W        W38623  27.666  13.127   0.845
73639W        W38624  24.011   4.844  10.337
73640W        W38625  15.220   0.680  13.985
73641W        W38626   4.384  43.453  11.555
73642W        W38627  40.632   4.140  12.463
73643W        W38628  28.652  25.601   2.610
73644W        W38629  10.637  43.391  13.023
73645W        W38630   2.484  15.910   9.963
73646W        W38631  13.626  23.446  10.687
73647W        W38632  14.744  37.521  10.657
73648W        W38633  30.050   9.377   0.575
73649W        W38634  20.332  43.842   0.560
73650W        W38635   6.865  39.086  14.480
73651W        W38636  37.544   9.296   1.714
73652W        W38637  32.754   5.831   2.091
73653W        W38638  35.816  24.279   1.200
73654W        W38639  25.014  17.860   3.280
73655W        W38640  32.939   9.332   1.399
73656W        W38641  24.487  20.687  13.438
73657W        W38642  35.016  17.559   4.639
73658W        W38643  18.818  24.117   4.709
73659W        W38644  23.143  23.173   3.294
73660W        W38645  27.420  17.991  12.282
73661W        W38646  13.974  27.284   0.003
73662W        W38647   5.394  22.339  13.517
73663W        W38648   5.366  38.548   0.855
73664W        W38649  34.422  21.055  13.732
73665W        W38650   7.436  44.603   5.086
73666W        W38651  11.121  14.200   1.330
73667W        W38652  36.789   1.912   4.717
73668W        W38653   4.730  10.776  10.800
73669W        W38654  32.538  43.511  14.435
73670W        W38655   2.550   3.283  10.628
73671W        W38656  21.475  12.752  12.383
73672W        W38657  41.281  29.566  14.601
73673W        W38658   6.987   9.353   4.139
73674W        W38659  32.098  36.482  11.510
73675W        W38660  28.637  35.506   1.685
73676W        W38661  15.854  21.731  13.938
73677W        W38662  21.221  19.684   3.609
73678W        W38663   9.835  24.797  10.729
73679W        W38664  27.075  31.793  12.951
73680W        W38665  30.234  15.157   2.605
73681W        W38666  31.719  12.695  11.115
73682W        W38667  15.798   6.292  12.910
73683W        W38668  19.739   1.884  10.748
73684W        W38669  40.269  30.121   2.093
73685W        W38670  27.803  25.839   0.954
73686W        W38671  34.969  22.684   2.015
73687W        W38672  27.414  36.176   3.180
73688W        W38673  29.888  13.196  12.018
73689W        W38674  32.822   3.275   0.903
73690W        W38675   0.924   6.790   1.362
73691W        W38676  40.899  13.851   5.164
73692W        W38677   2.779  34.348   2.209
73693W        W38678  32.925  34.993  11.516
73694W        W38679  13.734  18.567   3.797
73695W        W38680  27.164  27.825   4.435
73696W        W38681  40.033  25.127  12.895
73697W        W38682  30.864  36.420   3.416
73698W        W38683  28.371  22.758   4.080
73699W        W38684   8.332  21.755   0.875
73700W        W38685  26.289  37.509  12.041
73701W        W38686  33.644  41.956   1.245
73702W        W38687  18.153  44.784   3.733
73703W        W38688   4.698  22.291   0.437
73704W        W38689  13.820  21.474  11.571
73705W        W38690  37.901  26.917  13.325
73706W        W38691   5.396  13.368  11.129
73707W        W38692  26.886   3.469  11.215
73708W        W38693  33.579  26.401  13.441
73709W        W38694  30.627   1.095  11.357
73710W        W38695  37.829  34.568  12.594
73711W        W38696  19.639   5.230  14.801
73712W        W38697  41.169  21.109   4.528
73713W        W38698  31.926  16.404  14.242
73714W        W38699  10.424   4.808  11.955
73715W        W38700  42.959  32.387   4.093
73716W        W38701  32.216  42.397  11.425
73717W        W38702  13.829  19.941  13.469
73718W        W38703  11.264  22.802   0.784
73719W        W38704  28.142  12.244  11.436
73720W        W38705   9.932  36.760  13.448
73721W        W38706  23.229  16.847  12.630
73722W        W38707  30.940   9.677   2.233
73723W        W38708  34.098  24.259  12.000
73724W        W38709  19.654  16.779   0.480
73725W        W38710  35.673   9.800   2.297
73726W        W38711  14.721  38.657   0.239
73727W        W38712  22.487   6.931   0.403
73728W        W38713  29.246   2.168  12.526
73729W        W38714  21.734  21.573   0.827
73730W        W38715  39.405  29.670  12.441
73731W        W38716   7.973   1.238   2.657
73732W        W38717  15.619  13.420   0.245
73733W        W38718  18.302   9.719  11.320
73734W        W38719   4.727   6.944  12.162
73735W        W38720  32.570  22.773  11.100
73736W        W38721  25.437  41.546   3.188
73737W        W38722  14.654  32.400  14.404
73738W        W38723   8.896  33.379  10.685
73739W        W38724  22.995  19.701  12.412
73740W        W38725  10.045  13.627   3.977
73741W        W38726   2.226  14.123  12.529
73742W        W38727  38.748  17.199   2.640
73743W        W38728  21.519   0.862  14.932
73744W        W38729  37.260  32.024   4.109
73745W        W38730  13.407  21.109  11.591
73746W        W38731  34.134  39.109   2.385
73747W        W38732  21.787   2.732  14.821
73748W        W38733  31.206  28.050   5.012
73749W        W38734  38.581   8.661   4.066
73750W        W38735  15.050  29.617   0.267
73751W        W38736  13.477  17.680  11.710
73752W        W38737   2.234  42.939   0.548
73753W        W38738   5.222  28.056   9.925
73754W        W38739  14.707  21.510   3.706
73755W        W38740  13.742  22.929   1.973
73756W        W38741  15.822  32.603  14.968
73757W        W38742  39.958  15.716  11.029
73758W        W38743   3.328  22.640  13.670
73759W        W38744  19.059  17.004   3.537
73760W        W38745  19.796   3.240   3.553
73761W        W38746  22.697  35.981  10.238
73762W        W38747  15.885  26.470   2.741
73763W        W38748  11.332   6.130   0.300
73764W        W38749  27.294  16.096  11.060
73765W        W38750   1.517   5.537  11.585
73766W        W38751  20.531  39.293   0.008
73767W        W38752  24.070  37.337  13.555
73768W        W38753  16.319  41.816  12.911
73769W        W38754  31.938  26.233  10.829
73770W        W38755   9.395   6.881   2.963
73771W        W38756  31.927  10.135   3.233
73772W        W38757  30.522   0.280   3.086
73773W        W38758   2.352  14.087  13.447
73774W        W38759  34.508  30.338  11.624
73775W        W38760  10.787   0.792   1.154
73776W        W38761  33.469   6.752   0.529
73777W        W38762  11.405  32.451  13.408
73778W        W38763  40.596  25.475   0.324
73779W        W38764  34.562  38.101   0.598
73780W        W38765   5.287  40.424   2.651
73781W        W38766  25.644   0.749  12.810
73782W        W38767  30.084  21.014  10.213
73783W        W38768  15.610   6.259   1.650
73784W        W38769   4.407   7.231  13.985
73785W        W38770  29.118  35.418  14.073
73786W        W38771   0.292  23.061   0.186
73787W        W38772  42.257  42.325  10.423
73788W        W38773  31.703  39.274   0.174
73789W        W38774  31.339  35.021   2.198
73790W        W38775  30.667  17.216  14.417
73791W        W38776  34.616  41.297  14.334
73792W        W38777   8.845   4.725   3.296
73793W        W38778  14.157  43.138  12.275
73794W        W38779  31.520   8.937   1.816
73795W        W38780  20.775  15.021   4.496
73796W        W38781   4.032   5.129   3.672
73797W        W38782   2.939  30.899  10.765
73798W        W38783  33.708  24.510   3.700
73799W        W38784  29.171   7.847  13.462
73800W        W38785  41.427   6.972   4.883
73801W        W38786  42.289   2.999   4.058
73802W        W38787   1.288  10.214  12.312
73803W        W38788  44.867  15.013  10.743
73804W        W38789  39.274  18.383   3.700
73805W        W38790  13.592  34.313  13.956
73806W        W38791  28.972  33.134   3.212
73807W        W38792  11.375   5.072   1.489
73808W        W38793   7.746  20.274  11.195
73809W        W38794  16.610   2.667   0.189
73810W        W38795   4.832  35.854  14.187
73811W        W38796   9.510  41.559   4.406
73812W        W38797   6.819  18.486  12.139
73813W        W38798  15.307   8.170   0.778
73814W        W38799  24.289  23.109   1.669
73815W        W38800  23.470  31.057   1.885
73816W        W38801  13.846  42.361  12.539
73817W        W38802  37.432  31.344   0.799
73818W        W38803  19.183  20.306  14.626
73819W        W38804  10.317  30.672   3.235
73820W        W38805  28.567   9.272  10.959
73821W        W38806  17.586  16.952   4.949
73822W        W38807  33.002   8.686  13.028
73823W        W38808  18.967   3.851  14.063
73824W        W38809  43.560  40.894   0.552
73825W        W38810  25.717   7.455  13.887
73826W        W38811  30.963  23.295   3.956
73827W        W38812  43.459  16.775   1.651
73828W        W38813  27.994   2.697  13.486
73829W        W38814   1.113   4.492  14.838
73830W        W38815  43.892  21.631   3.106
73831W        W38816  33.442  27.714  12.971
73832W        W38817  27.570   8.761   1.330
73833W        W38818  13.076   4.178  14.524
73834W        W38819  17.186  40.468  11.477
73835W        W38820   9.722   1.941   1.596
73836W        W38821  16.137  22.578   3.799
73837W        W38822   9.859  28.802  11.991
73838W        W38823  28.993  36.380  12.621
73839W        W38824  23.264  23.650  13.425
73840W        W38825  13.185  24.913   3.845
73841W        W38826   1.509  42.758   4.107
73842W        W38827  31.898  32.167   0.870
73843W        W38828  37.742  40.731   0.468
73844W        W38829  28.358  13.171  10.958
73845W        W38830  14.823  29.684  10.815
73846W        W38831  31.840  22.043  13.182
73847W        W38832   6.567  23.044   0.764
73848W        W38833  44.906  37.089   3.141
73849W        W38834  30.306  25.140   0.486
73850W        W38835  40.773  37.655  14.777
73851W        W38836  33.664  42.265   4.675
73852W        W38837  29.703  36.916   1.419
73853W        W38838  29.116   4.284  12.065
73854W        W38839  20.048   2.489   0.378
73855W        W38840  21.766  43.101  14.452
73856W        W38841   2.530  35.578  11.813
73857W        W38842  44.343   1.193  14.260
73858W        W38843  18.796  43.721   3.285
73859W        W38844  41.468  35.770  14.089
73860W        W38845  44.778  26.950   2.304
73861W        W38846  43.890  25.403  11.888
73862W        W38847   9.430  42.606   4.851
73863W        W38848  18.051   2.209  12.737
73864W        W38849  13.223   0.776   0.071
73865W        W38850   0.025  43.403   3.444
73866W        W38851  13.724  35.610   3.212
73867W        W38852  37.013  34.364  11.455
73868W        W38853  28.475  17.621  14.735
73869W        W38854  40.566  44.077  11.458
73870W        W38855  30.025   3.247  13.091
73871W        W38856  41.320  27.160   4.987
73872W        W38857  23.153  26.963   1.219
73873W        W38858  37.531  35.639   3.062
73874W        W38859  24.398   0.417   1.196
73875W        W38860  20.236   7.131  12.311
73876W        W38861  38.756   7.754  12.459
73877W        W38862  36.825  29.033  12.794
73878W        W38863  30.392   2.023   0.905
73879W        W38864  22.598  41.250  11.234
73880W        W38865  25.996  44.938  12.601
73881W        W38866  34.925   0.701  13.831
73882W        W38867  15.246   4.590  14.623
73883W        W38868  28.124  32.970  14.722
73884W        W38869  16.389  38.845  14.981
73885W        W38870   5.924  27.160  10.920
73886W        W38871  41.034  12.687  13.114
73887W        W38872  27.032  38.318   3.731
73888W        W38873  15.829   1.215  10.733
73889W        W38874  25.125   9.084  13.865
73890W        W38875  35.105  27.420  13.803
73891W        W38876  40.220  15.826  12.611
73892W        W38877  21.261  36.654   1.342
73893W        W38878   9.303  41.328  14.483
73894W        W38879  20.526  37.213  11.985
73895W        W38880   0.496  20.641  11.859
73896W        W38881  40.232  18.361  11.827
73897W        W38882  17.237  40.229  13.914
73898W        W38883  21.014  33.095  13.027
73899W        W38884   9.892  22.539   4.082
73900W        W38885   1.504  41.314  12.809
73901W        W38886   9.553   6.844  11.185
73902W        W38887  17.445  19.698  12.820
73903W        W38888  37.040   4.650   0.286
73904W        W38889  17.648   4.136   2.924
73905W        W38890  44.057   5.657   4.029
73906W        W38891  34.354  39.411   1.415
73907W        W38892  11.327  44.986  14.728
73908W        W38893  41.607  17.267  11.895
73909W        W38894   1.853   1.919   4.534
73910W        W38895   2.437   3.371  13.053
73911W        W38896  35.759  40.471  12.173
73912W        W38897  11.938  36.963   4.346
73913W        W38898  26.625  27.524   1.266
73914W        W38899  28.874   6.013   0.385
73915W        W38900  18.360  20.884  13.566
73916W        W38901  39.035  25.630   3.165
73917W        W38902  26.023  14.374   1.717
73918W        W38903  39.372  34.607  12.091
73919W        W38904  22.735   7.175   0.884
73920W        W38905   2.008  33.083   1.613
73921W        W38906   3.673  36.331   0.306
73922W        W38907   4.218  27.231  12.440
73923W        W38908  26.621   8.765  12.460
73924W        W38909  10.956  31.318   3.473
73925W        W38910   1.352  21.979   1.268
73926W        W38911   6.633  10.337  13.850
73927W        W38912  30.049  42.049   1.742
73928W        W38913   3.236  21.613   0.206
73929W        W38914  26.691   4.877   1.185
73930W        W38915  29.509  37.099   0.946
73931W        W38916  37.487  14.329  12.579
73932W        W38917  24.624   1.711   0.749
73933W        W38918   4.754  44.400   2.767
73934W        W38919  31.473  14.648  11.787
73935W        W38920  33.223   2.872  10.658
73936W        W38921   5.713   9.728   4.592
73937W        W38922  39.552  42.074   0.581
73938W        W38923   2.400  40.580   0.001
73939W        W38924  40.012  24.269   0.253
73940W        W38925  37.394   9.770   1.894
73941W        W38926  15.713  32.985  11.436
73942W        W38927  26.667  41.849   1.343
73943W        W38928  19.063  35.967   1.646
73944W        W38929  18.320  29.702  14.436
73945W        W38930  25.776  16.660   4.026
73946W        W38931  41.986   3.731   2.880
73947W        W38932  18.776  16.795   4.624
73948W        W38933  44.532  17.293  14.364
73949W        W38934   9.207  35.086   4.157
73950W        W38935  24.803   1.104   3.777
73951W        W38936  16.571   5.060  11.204
73952W        W38937   6.828  24.604   1.482
73953W        W38938  39.912  29.508  12.507
73954W        W38939  21.551  34.925  12.095
73955W        W38940  28.153  11.596  10.264
73956W        W38941  34.992  14.377  12.579
73957W        W38942   9.536  36.085  14.364
73958W        W38943  10.680  14.823  11.481
73959W        W38944  41.128  26.002  10.290
73960W        W38945  26.075   4.701  12.405
73961W        W38946  20.395  40.674   0.690
73962W        W38947  30.672  34.983  13.922
73963W        W38948  28.030  22.107   3.301
73964W        W38949  37.416  14.760   3.831
73965W        W38950   9.835   6.409   0.508
73966W        W38951  41.329  23.297  14.902
73967W        W38952  34.944   4.977  12.490
73968W        W38953   6.704  31.988   1.868
73969W        W38954  11.319  19.494   0.853
73970W        W38955  24.675  35.025  12.125
73971W        W38956  39.285   3.204   2.689
73972W        W38957  33.833  12.665   0.860
73973W        W38958   9.344  26.487   4.356
73974W        W38959  27.348  35.474  12.886
73975W        W38960  32.506  28.932  10.148
73976W        W38961  20.147  11.657  11.281
73977W        W38962   7.815  11.861   1.366
73978W        W38963   7.962  14.633  13.920
73979W        W38964  22.322   6.976   1.736
73980W        W38965   9.219  10.203   2.856
73981W        W38966   1.846  33.312  13.644
73982W        W38967  15.281  14.155   0.620
73983W        W38968   1.081  36.921  11.515
73984W        W38969  15.355  27.016   2.639
73985W        W38970  20.698   6.639   3.269
73986W        W38971  37.381  41.447  11.073
73987W        W38972   7.177  12.715  14.515
73988W        W38973   0.214  13.600  14.952
73989W        W38974  21.541  44.909  13.478
73990W        W38975   2.123  27.683  14.992
73991W        W38976  42.648  20.512   3.716
73992W        W38977   2.932  31.047  12.431
73993W        W38978  15.661  22.274   2.964
73994W        W38979   4.758  42.821  11.564
73995W        W38980  34.323  39.456   3.291
73996W        W38981  26.459  30.199   3.244
73997W        W38982  34.440   7.730   0.646
73998W        W38983  29.474  27.870  11.443
73999W        W38984  42.994  30.827   0.055
74000W        W38985  20.750  33.534  13.018
74001W        W38986  10.226  12.133  14.958
74002W        W38987   9.216   8.724   2.684
74003W        W38988  33.875  38.702  10.783
74004W        W38989  15.616   9.918   4.199
74005W        W38990  28.005  33.846  14.781
74006W        W38991  11.213  34.069   2.502
74007W        W38992  14.034   1.344   1.302
74008W        W38993  19.104  16.259   3.204
74009W        W38994  25.489  37.698  12.225
74010W        W38995  44.758  36.033  13.800
74011W        W38996  29.663   2.770   2.376
74012W        W38997  25.275  22.578  14.563
74013W        W38998  23.191  16.850  13.188
74014W        W38999  20.678  41.621  11.140
74015W        W39000  14.657   1.828  11.116
74016W        W39001  36.962   5.280   1.929
74017W        W39002  24.072   9.312   0.944
74018W        W39003  32.428   4.492  14.509
74019W        W39004   8.129  22.500   2.792
74020W        W39005   1.480  37.231   4.807
74021W        W39006  43.000  11.732  11.640
74022W        W39007  23.447  19.256  13.061
74023W        W39008  42.572   5.159   3.818
74024W        W39009  43.491  28.479  13.871
74025W        W39010  26.635  43.302  12.878
74026W        W39011  22.439  26.676  11.872
74027W        W39012  22.863  10.606   0.184
74028W        W39013   0.895  12.226   2.105
74029W        W39014  43.850  43.017  11.893
74030W        W39015  19.635   1.838   0.939
74031W        W39016  18.977  18.988   1.421
74032W        W39017   6.715  10.481   0.156
74033W        W39018  13.266  24.629  12.392
74034W        W39019  13.576  35.554  10.485
74035W        W39020  38.893  31.522   4.623
74036W        W39021   5.449   1.576   3.726
74037W        W39022  42.841  34.015  13.331
74038W        W39023  15.454  32.313  10.968
74039W        W39024  19.745  35.332   0.443
74040W        W39025  43.795  39.928   3.241
74041W        W39026   3.990  41.714  14.347
74042W        W39027  33.866  28.943   2.294
74043W        W39028  43.245  43.469   2.635
74044W        W39029  39.845  20.209   2.933
74045W        W39030  30.531  10.528  10.133
74046W        W39031  18.268  38.348  14.362
74047W        W39032  31.224   0.207  14.023
74048W        W39033  31.625  42.840   2.237
74049W        W39034  25.264  19.375  14.394
74050W        W39035  19.920   3.457   2.219
74051W        W39036  43.944  29.239  12.516
74052W        W39037  32.008  38.851  13.910
74053W        W39038  25.034  42.048  11.430
74054W        W39039  10.358  25.697   0.783
74055W        W39040  44.710  38.603  11.339
74056W        W39041  20.745   2.448  13.735
74057W        W39042   1.528   9.361   2.321
74058W        W39043   6.413  13.654   1.285
74059W        W39044  16.437  15.804   4.157
74060W        W39045  19.285  38.852   4.337
74061W        W39046   6.272  28.002  14.728
74062W        W39047   9.721  34.056  13.902
74063W        W39048  30.260  27.599   0.331
74064W        W39049  39.570  26.188  13.591
74065W        W39050   8.402  11.504   1.428
74066W        W39051   0.144  42.770   3.627
74067W        W39052   3.278  37.604   2.764
74068W        W39053   9.184  34.824  14.905
74069W        W39054   7.282  44.509  13.344
74070W        W39055  15.409   1.980   4.729
74071W        W39056   9.354   6.841   5.080
74072W        W39057  29.214  33.666   3.579
74073W        W39058  10.298   1.949   0.396
74074W        W39059  39.400  21.909  13.404
74075W        W39060  19.875   0.912  11.720
74076W        W39061  27.202  40.326   4.612
74077W        W39062  16.099  14.759  14.051
74078W        W39063   5.305  40.243  11.029
74079W        W39064  38.102  40.879  13.855
74080W        W39065  43.513  23.190  13.817
74081W        W39066  30.935  29.701   4.139
74082W        W39067  18.076  24.307   2.180
74083W        W39068  14.624  14.542   1.235
74084W        W39069  11.182  34.911   0.650
74085W        W39070  22.924   5.581   2.931
74086W        W39071  41.080  14.562   0.144
74087W        W39072  12.289  18.711  11.400
74088W        W39073  13.838  16.871   0.347
74089W        W39074  40.806  39.789  13.014
74090W        W39075  11.497  26.615   5.041
74091W        W39076  42.165  28.377   3.781
74092W        W39077   4.710   6.181  14.400
74093W        W39078   8.371  35.138  14.766
74094W        W39079  18.665  16.126   2.306
74095W        W39080  32.879  22.959   3.765
74096W        W39081  22.827   1.099   4.991
74097W        W39082   7.177  26.015   2.678
74098W        W39083   0.384   3.483  12.151
74099W        W39084  14.255  31.388   1.461
74100W        W39085  29.897  11.364  13.375
74101W        W39086  40.280  21.468  11.955
74102W        W39087  37.131   8.474  11.033
74103W        W39088  17.614  16.599  14.310
74104W        W39089  16.660  17.759   2.106
74105W        W39090  40.255  36.867   3.671
74106W        W39091   2.392  31.011   0.197
74107W        W39092  16.327  28.297  12.076
74108W        W39093  24.363  14.323   5.071
74109W        W39094   9.457  32.758   1.261
74110W        W39095   0.938  26.346  11.486
74111W        W39096  19.026  17.563   1.401
74112W        W39097   9.125  29.324   0.247
74113W        W39098  24.243   7.702  14.833
74114W        W39099  34.158  36.751   0.841
74115W        W39100  26.525   6.323  13.932
74116W        W39101  23.249  37.519  14.225
74117W        W39102  22.465  25.079  13.391
74118W        W39103  29.067  27.181  13.105
74119W        W39104  19.764  38.381   0.456
74120W        W39105  37.575  22.060  10.677
74121W        W39106  35.957  36.810   4.315
74122W        W39107  17.870  38.668  13.417
74123W        W39108   0.040  18.347   3.934
74124W        W39109  44.230  24.445  13.670
74125W        W39110  12.633  31.452  14.155
74126W        W39111  22.676   3.439   0.742
74127W        W39112   1.771  11.289   3.549
74128W        W39113   7.072  39.766   2.288
74129W        W39114   1.801  23.924   2.381
74130W        W39115  35.815  28.555  11.104
74131W        W39116  15.627  19.624  13.026
74132W        W39117  16.330  14.735  14.532
74133W        W39118   7.885  15.334  13.131
74134W        W39119  15.166  22.262  11.723
74135W        W39120   8.734  18.119   2.428
74136W        W39121  35.403  22.460   1.890
74137W        W39122  13.066   7.542   5.100
74138W        W39123   1.032  38.039   0.307
74139W        W39124  42.715  35.036   2.334
74140W        W39125  41.723  20.187   4.671
74141W        W39126   9.623  44.756   3.824
74142W        W39127  30.390  35.612   2.840
74143W        W39128  33.934  34.279   4.639
74144W        W39129  14.092  39.135  14.167
74145W        W39130  37.647  11.697  14.801
74146W        W39131  42.859  37.885  13.811
74147W        W39132   7.503  40.946  11.566
74148W        W39133  28.071  33.824  10.988
74149W        W39134  38.588  12.235   3.379
74150W        W39135   7.376   1.779   3.637
74151W        W39136   6.640  13.866   4.452
74152W        W39137  36.060   0.011   1.730
74153W        W39138   6.225   3.145   3.690
74154W        W39139  18.653   2.868   4.716
74155W        W39140  38.580   9.680   3.733
74156W        W39141  33.028  14.046  11.482
74157W        W39142  18.641  18.792  13.589
74158W        W39143  26.999  31.990  13.924
74159W        W39144  43.515   8.811   4.557
74160W        W39145  44.030  10.357  13.007
74161W        W39146  15.631   0.037   2.787
74162W        W39147   4.819   7.710  11.031
74163W        W39148   7.119   5.454  12.992
74164W        W39149   2.698  14.987  14.998
74165W        W39150  34.502  37.084  14.938
74166W        W39151  40.073   2.801   4.124
74167W        W39152  33.081   3.299  14.904
74168W        W39153  10.704  20.504  13.908
74169W        W39154  39.742  40.784   4.520
74170W        W39155  37.185  44.228   4.241
74171W        W39156  35.349  37.795  11.569
74172W        W39157   7.701  30.245  12.926
74173W        W39158  26.163  20.482   1.524
74174W        W39159  11.341  26.511   1.646
74175W        W39160  16.783  32.928   2.847
74176W        W39161  34.957  44.159  13.074
74177W        W39162  14.344  21.242   4.265
74178W        W39163  16.062  13.057  11.382
74179W        W39164  41.994  11.573  12.323
74180W        W39165  36.566  20.002  10.744
74181W        W39166  25.338  17.412   1.473
74182W        W39167   8.297  14.679  14.359
74183W        W39168  10.822   1.887   0.132
74184W        W39169  40.489  29.214   2.165
74185W        W39170  27.988  17.090  13.716
74186W        W39171  26.470  29.615  14.431
74187W        W39172   6.023  11.831  13.073
74188W        W39173  23.816  19.210   3.300
74189W        W39174   0.678  37.392  14.684
74190W        W39175  21.957  21.771   3.760
74191W        W39176   6.238  15.914  14.807
74192W        W39177  28.571  17.272   2.331
74193W        W39178   8.935  30.094  13.429
74194W        W39179  41.306  40.521   4.068
74195W        W39180  33.145  26.128  12.196
74196W        W39181  26.566  12.835   4.866
74197W        W39182  11.557  40.882  12.035
74198W        W39183  43.037  29.036   1.134
74199W        W39184  38.490  28.815  14.549
74200W        W39185  22.819  15.831  11.946
74201W        W39186  37.961  26.924  12.314
74202W        W39187  43.169  44.437  11.043
74203W        W39188   0.864  27.604   1.311
74204W        W39189   8.425   8.417   5.099
74205W        W39190  10.858  35.583   3.211
74206W        W39191  26.263   5.812  13.328
74207W        W39192   4.719  21.219   4.010
74208W        W39193   1.847  40.883  14.391
74209W        W39194  24.441  38.854  11.619
74210W        W39195  23.523  19.366   4.907
74211W        W39196  25.895  19.711  11.482
74212W        W39197  43.469  17.671  13.498
74213W        W39198   0.786   1.789   1.719
74214W        W39199  25.619  38.016   4.441
74215W        W39200   2.874   3.039   0.895
74216W        W39201   6.134   9.128   3.913
74217W        W39202   6.743  10.826  12.033
74218W        W39203   6.804   7.435   4.154
74219W        W39204   4.169  44.063   0.174
74220W        W39205  23.250   0.958   3.168
74221W        W39206  41.563  42.575   2.237
74222W        W39207  23.934  18.820   1.654
74223W        W39208  30.371  33.497   2.491
74224W        W39209  18.062  31.962  11.071
74225W        W39210   1.850  36.383   3.643
74226W        W39211  31.433  21.482   1.510
74227W        W39212   3.723  37.868  12.466
74228W        W39213   2.863  29.617  11.112
74229W        W39214  22.385  37.451   4.115
74230W        W39215  13.672  43.646   2.767
74231W        W39216  13.728  10.823   1.751
74232W        W39217  23.030  43.976  11.103
74233W        W39218  28.984   8.398  14.342
74234W        W39219  12.154  35.476   4.578
74235W        W39220   5.398  39.312  14.402
74236W        W39221  41.043  21.918  14.799
74237W        W39222  25.725   6.323  12.881
74238W        W39223  34.192  25.239   1.043
74239W        W39224  38.892  16.026   1.452
74240W        W39225  26.579  15.586   0.014
74241W        W39226   7.854   4.735   3.409
74242W        W39227  38.012   8.167  12.605
74243W        W39228  36.873  18.585   2.893
74244W        W39229   7.795  12.299   2.919
74245W        W39230  16.859   2.312   2.496
74246W        W39231  39.439  14.854   0.522
74247W        W39232  31.529  35.563   0.255
74248W        W39233  44.932  38.460   1.475
74249W        W39234  28.801  37.576   0.940
74250W        W39235   6.702  31.798   5.020
74251W        W39236  40.504  14.329   1.858
74252W        W39237   2.966  11.196   2.377
74253W        W39238  37.435  20.741  14.468
74254W        W39239  15.356  13.054  10.795
74255W        W39240  32.559   3.845  13.118
74256W        W39241  10.257  19.176   1.171
74257W        W39242  22.543  21.109   1.261
74258W        W39243   5.290   6.361   3.374
74259W        W39244  35.926  42.476   3.311
74260W        W39245   1.511  26.546  12.630
74261W        W39246  26.698  34.236   4.836
74262W        W39247  29.864  32.010  11.581
74263W        W39248   6.300  25.661   3.337
74264W        W39249   8.323  32.298   3.871
74265W        W39250  13.137  35.481  13.020
74266W        W39251  27.619  30.636   0.845
74267W        W39252  35.803  13.958  13.950
74268W        W39253  14.349  34.923  11.533
74269W        W39254   3.086  14.124  13.808
74270W        W39255  10.649  40.875   0.255
74271W        W39256  14.804  28.957   3.464
74272W        W39257  23.639  35.814  14.052
74273W        W39258  39.570  27.787  12.151
74274W        W39259   2.021  13.658  12.499
74275W        W39260  39.025   3.299  12.811
74276W        W39261  17.790   8.882  11.443
74277W        W39262   0.988  13.331  14.607
74278W        W39263  35.763   2.391  11.606
74279W        W39264  43.433   8.400  12.993
74280W        W39265  25.326   0.759  11.237
74281W        W39266  38.752  28.598  13.389
74282W        W39267  34.954  44.520   2.279
74283W        W39268  33.427   8.137   0.278
74284W        W39269   0.826  20.696  13.323
74285W        W39270  16.776   5.444   0.350
74286W        W39271  29.467  26.999  12.813
74287W        W39272  40.777   3.221  10.583
74288W        W39273  32.176   3.580   2.462
74289W        W39274  25.484  42.340  12.424
74290W        W39275  25.052  29.503   4.621
74291W        W39276  34.076  25.025  12.967
74292W        W39277  20.857  33.632  14.329
74293W        W39278  12.871  20.475  11.115
74294W        W39279  23.288   5.215  11.359
74295W        W39280  13.581  28.489   4.514
74296W        W39281  40.767   8.479  13.617
74297W        W39282  33.846   7.312   1.803
74298W        W39283   2.500  39.985   9.938
74299W        W39284   9.338  30.634  10.744
74300W        W39285  44.960  14.996   0.353
74301W        W39286   6.028  40.435   1.792
74302W        W39287  38.568   6.443  13.169
74303W        W39288  19.316  20.200   0.629
74304W        W39289  32.448  39.982   4.597
74305W        W39290  22.485   6.349   1.923
74306W        W39291  41.592  27.146  11.984
74307W        W39292   5.487  23.673   3.822
74308W        W39293   6.861  44.899  13.394
74309W        W39294  16.162   1.206   4.211
74310W        W39295  33.271  24.202  10.801
74311W        W39296   8.133  11.858   0.198
74312W        W39297  30.680  23.511  13.844
74313W        W39298  23.080  35.025  13.148
74314W        W39299   6.016  17.642   2.029
74315W        W39300  19.740   8.263   2.857
74316W        W39301  29.820  39.246  14.813
74317W        W39302   4.418  19.068   1.855
74318W        W39303  32.597  44.326  13.777
74319W        W39304  23.772  27.225   2.809
74320W        W39305  36.026  27.447  11.631
74321W        W39306  11.825  24.256  13.449
74322W        W39307   4.866  25.636   1.595
74323W        W39308  42.406  28.891  11.577
74324W        W39309  18.857  33.958   1.962
74325W        W39310  26.569  13.339   2.317
74326W        W39311  42.463  28.449   3.335
74327W        W39312  37.442   0.680  13.508
74328W        W39313   7.451  35.472  14.139
74329W        W39314  11.953   6.442   0.924
74330W        W39315   5.434  44.199  13.281
74331W        W39316   1.277   8.736   0.297
74332W        W39317  24.780  32.107  11.195
74333W        W39318  15.054   7.658  13.999
74334W        W39319  25.758  13.400   3.853
74335W        W39320  10.844  35.845   4.129
74336W        W39321  30.402  34.574  11.460
74337W        W39322  40.473   7.817   0.879
74338W        W39323  22.758   4.471  10.476
74339W        W39324  16.438  30.602  11.748
74340W        W39325  23.568  12.698  14.785
74341W        W39326  13.803  40.010   2.900
74342W        W39327  35.051   0.294   1.618
74343W        W39328   2.504  11.295   2.171
74344W        W39329   0.931  12.720   0.447
74345W        W39330  18.564  22.238  14.521
74346W        W39331   6.620  13.668   3.605
74347W        W39332   8.700   4.892   1.234
74348W        W39333  22.973   2.274  12.991
74349W        W39334  24.986  43.444   3.108
74350W        W39335  26.576  30.399   3.692
74351W        W39336  28.592  32.973   0.024
74352W        W39337  16.785  32.515   4.160
74353W        W39338  10.234  43.194   5.100
74354W        W39339  41.586   1.832   2.498
74355W        W39340  13.557   8.936  15.000
74356W        W39341  35.577  36.828  12.506
74357W        W39342  31.406  40.573   1.652
74358W        W39343   9.824  27.112  10.392
74359W        W39344  11.778  27.896  12.143
74360W        W39345  12.880  11.614   0.153
74361W        W39346  38.361   3.192   2.416
74362W        W39347  13.794  10.528  11.102
74363W        W39348  26.644   0.749   0.762
74364W        W39349  42.827  13.666  12.410
74365W        W39350  22.510  31.507  12.501
74366W        W39351  25.688  32.168  10.807
74367W        W39352  25.405  22.675  12.362
74368W        W39353  11.721  38.922   1.755
74369W        W39354  36.430  40.114  12.751
74370W        W39355  15.655  42.116   0.891
74371W        W39356  26.230   0.335   3.067
74372W        W39357   5.923  23.231   1.944
74373W        W39358  44.467   4.165   2.359
74374W        W39359  43.845  20.335   2.621
74375W        W39360   5.215  34.485  13.772
74376W        W39361   2.893  43.748  14.435
74377W        W39362   8.999  17.779   0.851
74378W        W39363  27.580  40.600   0.297
74379W        W39364  13.365  43.705   2.082
74380W        W39365  29.664  27.096  13.270
74381W        W39366  22.893  37.106  14.361
74382W        W39367  34.027  34.239   3.222
74383W        W39368  16.024  34.695   4.574
74384W        W39369  37.482  19.931  10.573
74385W        W39370  38.376  10.363   0.011
74386W        W39371  28.423  23.561  13.982
74387W        W39372  42.572  38.427  11.163
74388W        W39373   7.432  39.309   0.325
74389W        W39374  24.097  40.391   4.794
74390W        W39375  24.287  27.592   4.110
74391W        W39376  25.964  18.677   4.726
74392W        W39377  22.108  10.030   0.995
74393W        W39378  35.923  23.678   3.325
74394W        W39379   7.244  12.719  12.872
74395W        W39380  40.519  21.198   0.117
74396W        W39381  31.715   0.318  13.960
74397W        W39382   3.475   1.248   3.691
74398W        W39383  43.920  16.529   1.405
74399W        W39384  44.354  28.699   0.988
74400W        W39385   4.463  11.557   1.439
74401W        W39386  36.034  18.141  13.464
74402W        W39387  22.681   1.056   0.417
74403W        W39388  18.620  44.917  11.372
74404W        W39389  26.199  15.297  12.034
74405W        W39390  22.785  23.452   1.226
74406W        W39391  26.721  15.616   3.279
74407W        W39392  33.035   0.084  12.047
74408W        W39393   9.194  16.348   1.200
74409W        W39394  42.586  22.257  10.566
74410W        W39395  27.168  34.124  11.083
74411W        W39396  42.053  40.514  12.267
74412W        W39397  29.830  17.060   1.263
74413W        W39398  40.941  13.972   2.789
74414W        W39399   3.752  20.691   3.718
74415W        W39400  43.484  22.352   1.385
74416W        W39401  20.526  17.819   2.273
74417W        W39402  15.153  36.569   2.706
74418W        W39403  19.727  18.019  10.209
74419W        W39404  33.920  38.867  11.274
74420W        W39405   3.822  34.897   0.918
74421W        W39406   5.423  30.099  11.165
74422W        W39407  20.558   0.929   0.411
74423W        W39408  25.185  25.544   2.263
74424W        W39409  43.291  21.723  12.615
74425W        W39410  42.042  33.916   3.620
74426W        W39411  39.382  23.080   1.468
74427W        W39412  31.204  16.792  13.568
74428W        W39413  15.556  17.647  11.575
74429W        W39414   1.839  35.119  13.432
74430W        W39415   3.507  25.265  11.769
74431W        W39416   0.782  44.485   2.253
74432W        W39417  42.886  40.052   3.577
74433W        W39418  40.579  25.951  13.922
74434W        W39419  18.314  33.945   1.167
74435W        W39420   0.823  23.670  13.340
74436W        W39421  39.326  37.155  13.322
74437W        W39422  14.192   9.697  12.471
74438W        W39423  39.142   6.305   0.175
74439W        W39424   2.582  39.372   1.372
74440W        W39425  31.697   3.912  12.017
74441W        W39426  36.520   6.963  14.734
74442W        W39427   6.867   4.859  13.450
74443W        W39428  17.915  35.335   3.253
74444W        W39429  14.868  29.931   1.847
74445W        W39430   7.426  38.036   3.296
74446W        W39431  14.187  15.760   0.814
74447W        W39432   5.166  16.239   4.140
74448W        W39433  10.280  39.719   4.255
74449W        W39434  14.040  43.449  11.873
74450W        W39435   7.819  21.044   1.445
74451W        W39436   7.386  23.439   1.206
74452W        W39437  42.904  10.167   3.399
74453W        W39438  35.512  17.051  14.205
74454W        W39439  23.231  11.807  14.811
74455W        W39440  38.877  32.015  12.379
74456W        W39441  30.129   4.320   0.026
74457W        W39442   3.751  30.908  14.830
74458W        W39443   5.722   7.317   1.299
74459W        W39444  39.770  31.017  12.368
74460W        W39445  16.034  29.043   1.201
74461W        W39446  28.002  15.768   0.981
74462W        W39447   6.927  10.579   4.535
74463W        W39448  33.774  42.025  10.593
74464W        W39449  17.148  19.282   3.736
74465W        W39450   9.079  13.430  13.364
74466W        W39451  40.141  17.328  13.165
74467W        W39452   3.670  27.511   2.685
74468W        W39453  31.385   6.388   1.145
74469W        W39454  25.974  37.966  11.342
74470W        W39455  31.937  37.468  12.111
74471W        W39456  41.906  40.505   1.754
74472W        W39457  10.839   8.254   9.870
74473W        W39458  37.653  37.693  13.927
74474W        W39459   4.358  43.709  12.668
74475W        W39460  21.250   4.926   0.830
74476W        W39461  29.377  15.728   4.647
74477W        W39462  20.139   7.916  14.862
74478W        W39463  41.403  27.512   0.007
74479W        W39464  20.037  20.179   4.136
74480W        W39465  12.231   3.558  14.722
74481W        W39466  30.613  40.739  13.132
74482W        W39467  29.735  31.673   4.706
74483W        W39468   8.981   2.722   0.808
74484W        W39469  33.121  26.531  11.868
74485W        W39470   3.522  14.699   4.615
74486W        W39471   2.208  21.796   2.257
74487W        W39472  34.811   5.475  10.307
74488W        W39473   5.918   7.878   0.891
74489W        W39474   7.065   9.060   3.592
74490W        W39475   4.380   7.627   3.820
74491W        W39476  38.001  34.054  10.421
74492W        W39477  32.130  27.593   4.873
74493W        W39478  12.530  31.437  10.337
74494W        W39479  22.940  34.125  10.622
74495W        W39480  10.585  20.714  13.454
74496W        W39481  32.527   4.447   3.635
74497W        W39482  11.231   2.812   0.294
74498W        W39483  23.244   7.284  12.069
74499W        W39484  26.908  15.530   4.192
74500W        W39485  27.100  35.948   4.806
74501W        W39486  24.083  34.375  13.798
74502W        W39487  22.206   4.899   1.414
74503W        W39488   3.580  21.966   4.131
74504W        W39489  27.098  36.875   1.690
74505W        W39490  33.386  22.765   3.629
74506W        W39491  10.001  41.413   2.642
74507W        W39492  20.160  41.252   4.435
74508W        W39493   1.292  16.231  11.112
74509W        W39494  14.032  38.476  14.781
74510W        W39495  15.558  20.425   2.809
74511W        W39496  21.143   3.284   0.129
74512W        W39497   6.889  34.415   2.931
74513W        W39498  25.164   4.456  14.232
74514W        W39499  23.718  17.046  14.997
74515W        W39500  12.586   5.358   1.794
74516W        W39501  19.121  27.395   4.113
74517W        W39502   5.257  13.013   0.657
74518W        W39503  44.515  42.278  12.077
74519W        W39504  25.722  44.203  13.373
74520W        W39505   8.180   2.408   3.263
74521W        W39506  21.699  19.833  14.867
74522W        W39507  16.188  16.652  11.975
74523W        W39508   7.147  29.962   1.702
74524W        W39509   6.347  14.220  11.576
74525W        W39510  43.434   8.646   0.211
74526W        W39511  17.605  26.016  12.075
74527W        W39512  32.483   4.084   1.423
74528W        W39513   6.902  35.910   3.327
74529W        W39514   1.547  27.696  12.818
74530W        W39515   6.059  25.085   1.773
74531W        W39516  19.818  27.889  14.913
74532W        W39517   3.969  19.750   3.258
74533W        W39518  43.157   6.279   4.190
74534W        W39519  30.164  31.957   4.596
74535W        W39520  43.825  18.796  14.942
74536W        W39521  10.317  22.999  14.468
74537W        W39522  24.645   9.080  12.391
74538W        W39523  32.129  43.742  13.499
74539W        W39524  10.251  44.920  10.790
74540W        W39525  28.570  42.247   2.117
74541W        W39526   3.378   0.510  13.302
74542W        W39527   1.250  26.841  14.573
74543W        W39528  11.233   5.589  13.609
74544W        W39529  17.612   8.312   2.097
74545W        W39530   1.781  38.881   1.322
74546W        W39531  30.695   4.366  13.274
74547W        W39532  29.161  10.087  14.989
74548W        W39533  11.313  30.133   4.586
74549W        W39534  43.339  34.752  11.468
74550W        W39535  29.427  32.584   1.114
74551W        W39536  37.402  22.525   1.828
74552W        W39537  34.390  14.205   2.921
74553W        W39538  22.685  25.098  12.510
74554W        W39539  21.778   9.355   4.627
74555W        W39540  40.401  37.393  12.403
74556W        W39541  10.829  28.064   0.446
74557W        W39542  40.360  15.349  12.683
74558W        W39543  19.339   7.914   2.062
74559W        W39544  13.586  42.358  12.987
74560W        W39545   0.878  43.340   1.871
74561W        W39546  28.485  39.902   1.346
74562W        W39547  16.863   9.369  13.940
74563W        W39548  36.056  18.191   1.937
74564W        W39549   3.273  41.846   4.068
74565W        W39550  17.985  41.181  12.597
74566W        W39551  12.236  13.145   4.522
74567W        W39552   4.015  37.714   0.263
74568W        W39553  36.481  18.441  13.452
74569W        W39554  38.268  13.098  12.939
74570W        W39555  36.283  39.705   3.828
74571W        W39556  30.930  29.195  13.407
74572W        W39557   4.523  17.358  10.715
74573W        W39558  30.415  36.157   0.400
74574W        W39559  13.665  43.138   2.645
74575W        W39560   7.721  35.832   0.705
74576W        W39561  27.612  32.394   0.227
74577W        W39562  22.455   7.686   3.197
74578W        W39563  39.965  40.984   4.074
74579W        W39564  25.995  40.506  12.457
74580W        W39565  18.025  12.414   1.823
74581W        W39566  20.276  22.578  12.099
74582W        W39567  30.628  20.207   2.335
74583W        W39568  26.898  33.698   0.840
74584W        W39569  33.515   1.423  13.233
74585W        W39570   2.340  28.584   0.421
74586W        W39571   2.723   1.026   4.884
74587W        W39572  10.730  24.146  12.830
74588W        W39573   7.294   8.256  14.835
74589W        W39574  20.748   0.714   4.854
74590W        W39575  15.208   3.877   3.130
74591W        W39576  30.764  25.285  12.957
74592W        W39577  31.963  35.882  13.489
74593W        W39578  38.492  13.255  10.421
74594W        W39579   0.047  31.006   3.432
74595W        W39580  13.135  10.444  10.386
74596W        W39581  20.633   8.358   1.900
74597W        W39582  39.809  20.938   0.561
74598W        W39583  10.749   0.599  10.643
74599W        W39584   7.332  11.936  13.505
74600W        W39585  42.264   9.377   4.429
74601W        W39586  15.363  29.252  14.929
74602W        W39587   0.820  21.297   4.086
74603W        W39588  23.646  32.484   3.628
74604W        W39589  15.702  42.417  12.502
74605W        W39590  18.917  25.322   2.359
74606W        W39591  29.389  17.529   2.362
74607W        W39592   4.333  16.688  12.528
74608W        W39593  35.837   2.471  12.395
74609W        W39594  28.720  33.088   0.849
74610W        W39595  44.034  18.300  11.499
74611W        W39596  14.745  33.000   4.316
74612W        W39597  29.953  24.384  14.233
74613W        W39598  39.117  28.098   3.602
74614W        W39599  26.263  22.014  13.661
74615W        W39600  13.062  24.161   2.732
74616W        W39601  13.787  35.202   0.230
74617W        W39602  36.461  44.284   3.784
74618W        W39603  20.120  19.978  14.277
74619W        W39604  19.656  16.458   1.864
74620W        W39605   3.238   8.184  11.474
74621W        W39606   6.309  20.317  12.192
74622W        W39607  17.058  23.253   3.184
74623W        W39608  16.832  26.092  11.511
74624W        W39609  32.050  30.599   3.205
74625W        W39610  40.866  30.455   0.048
74626W        W39611  21.744  38.655  11.692
74627W        W39612  24.532  44.240   2.779
74628W        W39613  24.056   1.285  11.257
74629W        W39614   1.251  19.752  12.470
74630W        W39615   1.081  34.620  13.028
74631W        W39616   1.393  23.187   0.796
74632W        W39617   1.679   6.386   4.131
74633W        W39618  44.397  16.017  14.969
74634W        W39619  34.623  20.932   4.090
74635W        W39620   5.613  17.444   2.941
74636W        W39621  44.546  24.157   9.878
74637W        W39622  14.376  17.386  12.946
74638W        W39623  38.850  16.247  12.477
74639W        W39624  22.812  24.610   1.149
74640W        W39625   5.785   3.198   1.808
74641W        W39626  28.868   7.618   0.994
74642W        W39627  32.032  14.915  12.391
74643W        W39628   1.241  18.550   3.612
74644W        W39629  12.712  27.713  14.780
74645W        W39630  22.595  29.393   3.249
74646W        W39631  24.715  14.999  11.863
74647W        W39632   9.869   9.369   0.331
74648W        W39633   4.686  19.681   0.362
74649W        W39634   0.864   6.871   4.128
74650W        W39635  38.476  39.219  11.574
74651W        W39636  37.049  35.597   2.868
74652W        W39637  22.208   4.459  10.427
74653W        W39638  24.307  44.479  11.359
74654W        W39639   0.580  16.644   4.245
74655W        W39640  41.319  40.812  12.505
74656W        W39641  38.469   3.202  13.934
74657W        W39642   6.637  36.394  11.210
74658W        W39643  41.067  30.384   2.828
74659W        W39644  39.018  12.190  12.957
74660W        W39645  33.857  16.736   0.349
74661W        W39646  24.683  34.094   1.216
74662W        W39647  14.594  27.535  13.900
74663W        W39648  38.994  11.341   1.057
74664W        W39649  18.889  25.560   3.162
74665W        W39650  34.666  13.482   3.425
74666W        W39651   7.845   7.688  11.906
74667W        W39652   1.734  10.399  12.151
74668W        W39653  14.225  20.998   1.864
74669W        W39654   2.280  11.585   3.230
74670W        W39655  26.612  30.324  12.431
74671W        W39656  35.311   1.317   3.594
74672W        W39657  28.044  27.148  10.833
74673W        W39658  20.980   4.942   1.798
74674W        W39659  24.952  37.808  11.195
74675W        W39660   3.783  17.537   0.384
74676W        W39661   0.762  43.613   2.773
74677W        W39662  13.315  20.270   1.159
74678W        W39663  43.654  27.012   1.173
74679W        W39664  20.746  38.596   0.309
74680W        W39665  10.338  19.526   2.717
74681W        W39666   6.424  21.163  13.444
74682W        W39667   0.297  39.824   4.042
74683W        W39668  23.027  16.070  13.824
74684W        W39669  23.991  14.014   2.178
74685W        W39670  43.046  26.103  13.208
74686W        W39671  39.497   6.876   1.193
74687W        W39672  24.469  26.999   1.872
74688W        W39673  22.982  23.704  12.510
74689W        W39674  37.944  23.048  11.375
74690W        W39675  11.283   8.183   3.059
74691W        W39676  25.934   3.935  11.907
74692W        W39677   4.719  30.877   0.805
74693W        W39678  11.179   2.932  12.867
74694W        W39679  31.101  16.074   3.716
74695W        W39680  19.642  23.649   2.777
74696W        W39681  34.136  23.274   4.404
74697W        W39682  23.547  33.396  12.548
74698W        W39683   7.783  21.035   3.699
74699W        W39684  41.819  10.640   0.408
74700W        W39685  44.889  17.325  13.346
74701W        W39686  43.553  10.156  12.983
74702W        W39687  43.963  15.645   1.083
74703W        W39688  28.946  21.433   3.229
74704W        W39689  44.666  28.704  12.555
74705W        W39690  30.965  35.581   3.785
74706W        W39691   2.737  30.114  11.086
74707W        W39692  42.227  16.117   3.150
74708W        W39693  30.853  27.925   4.610
74709W        W39694  43.441   2.471   4.730
74710W        W39695  44.862   2.425  11.509
74711W        W39696   7.364   7.132   1.998
74712W        W39697  27.046   9.186  10.675
74713W        W39698  10.249  36.896  11.657
74714W        W39699   1.664  31.094  12.139
74715W        W39700   2.127   2.218   1.995
74716W        W39701  38.931  42.327   3.433
74717W        W39702  28.835  16.292   1.368
74718W        W39703  27.448  27.298  14.382
74719W        W39704   1.124  23.969  10.547
74720W        W39705  27.674  35.331   1.267
74721W        W39706  18.262  43.477   2.960
74722W        W39707  40.339   2.103  10.162
74723W        W39708  37.390   8.660   3.756
74724W        W39709  34.076  35.586   1.899
74725W        W39710  36.612   0.880   0.412
74726W        W39711   0.713  39.102  10.279
74727W        W39712   8.409  10.593   2.783
74728W        W39713  35.842   0.868  13.921
74729W        W39714  34.527  12.186   2.646
74730W        W39715  36.485  31.111   1.285
74731W        W39716  39.998  41.917  11.057
74732W        W39717  36.414  30.351  12.445
74733W        W39718   8.861   4.211  14.954
74734W        W39719  34.038  39.094   0.040
74735W        W39720  10.058  15.321   4.590
74736W        W39721   4.823  26.144   1.486
74737W        W39722  44.914  23.746   1.200
74738W        W39723   5.951  22.818  12.423
74739W        W39724  33.316   4.292   3.070
74740W        W39725  18.199  12.707  13.320
74741W        W39726   7.454  31.525  13.498
74742W        W39727   7.685  18.266  13.436
74743W        W39728  33.155  19.686  13.852
74744W        W39729  28.539  34.108   3.984
74745W        W39730   7.482  37.067   4.886
74746W        W39731  28.098  41.225   2.043
74747W        W39732  25.122  10.765  13.189
74748W        W39733  44.276  12.820  14.826
74749W        W39734  12.284  32.536  10.771
74750W        W39735   7.735  31.039  12.436
74751W        W39736  12.213   6.916   0.953
74752W        W39737  43.570  23.306   2.739
74753W        W39738  31.666  28.702  13.858
74754W        W39739   5.499  39.453  12.099
74755W        W39740  42.065  23.425   0.422
74756W        W39741  31.419  23.674  11.341
74757W        W39742   2.429   5.890  14.559
74758W        W39743  40.116  24.449   2.467
74759W        W39744  21.818  30.367   4.633
74760W        W39745   0.135  33.987   2.798
74761W        W39746  26.916  29.042  12.765
74762W        W39747  16.680  23.661   4.904
74763W        W39748  23.288   7.623  12.538
74764W        W39749  37.573  40.073   2.847
74765W        W39750  37.391  28.638  11.998
74766W        W39751   1.957  38.900  10.743
74767W        W39752   0.710  12.270  11.138
74768W        W39753  27.547  36.701   0.040
74769W        W39754  44.725   0.855  11.086
74770W        W39755  43.516  43.758   3.222
74771W        W39756  16.265  43.258   1.735
74772W        W39757   7.851  10.054   3.245
74773W        W39758   5.897  13.303  12.666
74774W        W39759  30.291  43.835   0.754
74775W        W39760   0.279  11.719   1.767
74776W        W39761  38.006  18.081   3.692
74777W        W39762  33.012  40.039   2.401
74778W        W39763  23.574  16.602  13.439
74779W        W39764   9.501   3.813  13.391
74780W        W39765  41.435  43.961   4.774
74781W        W39766   5.463  23.115  11.075
74782W        W39767  39.471  29.913   3.540
74783W        W39768  43.466  37.551   2.426
74784W        W39769   7.842  38.347  10.357
74785W        W39770  34.515  24.149  14.215
74786W        W39771   2.366  31.343   0.873
74787W        W39772   3.371  26.210  14.856
74788W        W39773  11.210  17.213   4.234
74789W        W39774  28.514  23.138  12.090
74790W        W39775  30.546  35.372   3.280
74791W        W39776   1.440  39.784  14.734
74792W        W39777  11.464   5.160   9.571
74793W        W39778   5.787  32.945  14.416
74794W        W39779   9.220  14.337   3.032
74795W        W39780  14.059  41.889   2.718
74796W        W39781  32.966  37.363  13.047
74797W        W39782  20.028  33.642   0.394
74798W        W39783   1.416  36.953  14.780
74799W        W39784  23.479  22.958   0.690
74800W        W39785   7.244  36.500   1.241
74801W        W39786   5.112  26.495  11.939
74802W        W39787  22.976   8.089  12.561
74803W        W39788   4.424   2.440   4.732
74804W        W39789  37.201   7.696   2.783
74805W        W39790  14.197  11.919  12.937
74806W        W39791  20.004  27.883   2.021
74807W        W39792  34.793  15.878   2.789
74808W        W39793  35.569   4.437   4.288
74809W        W39794  40.997  18.669  10.707
74810W        W39795  44.833  29.835  12.010
74811W        W39796   4.363  23.072   2.773
74812W        W39797  10.567   6.347  13.082
74813W        W39798  32.368  32.480   1.785
74814W        W39799  11.840   1.724  13.934
74815W        W39800   8.323  32.785   3.727
74816W        W39801  13.067  21.245   1.240
74817W        W39802  15.720  32.627   1.230
74818W        W39803   5.690   3.149   1.226
74819W        W39804  34.652  15.178   4.942
74820W        W39805  20.588  21.626  10.215
74821W        W39806  22.565  14.302  13.687
74822W        W39807  31.216  36.707   1.755
74823W        W39808  15.305   2.361   4.394
74824W        W39809  17.288   0.058  11.514
74825W        W39810  24.074   5.821   4.574
74826W        W39811  29.351  42.268   0.990
74827W        W39812  42.299  41.279   3.872
74828W        W39813  24.225  24.029   0.071
74829W        W39814  28.505  31.657   3.405
74830W        W39815  32.491  40.192  14.636
74831W        W39816   3.505   4.485   2.309
74832W        W39817  43.538  18.357   3.255
74833W        W39818  19.259   8.312   0.493
74834W        W39819  37.952   1.002   0.317
74835W        W39820  31.582  16.409   0.640
74836W        W39821  41.312  31.813  11.957
74837W        W39822  25.665  32.469  11.233
74838W        W39823  19.206  16.212  14.993
74839W        W39824  31.633   1.971   4.129
74840W        W39825  17.318  18.011   1.815
74841W        W39826  40.723   0.844   0.403
74842W        W39827  25.047  26.606   4.213
74843W        W39828   7.091  28.714   1.166
74844W        W39829  13.205  14.724  11.922
74845W        W39830  27.722  44.543   0.448
74846W        W39831   3.709  11.539   4.252
74847W        W39832   4.207  12.167  10.490
74848W        W39833  19.432  35.028   2.669
74849W        W39834   8.627  18.627  13.432
74850W        W39835  27.583  40.767  14.793
74851W        W39836  20.225  18.493  11.212
74852W        W39837  17.317   6.250  14.362
74853W        W39838   3.863  34.335  13.240
74854W        W39839  14.450  18.640  12.340
74855W        W39840  20.267  29.984   2.688
74856W        W39841  14.070   0.060   4.034
74857W        W39842  10.695  20.689   3.180
74858W        W39843   3.001  16.628   3.241
74859W        W39844  18.323  11.285   0.181
74860W        W39845  29.579  11.905  12.014
74861W        W39846  31.860  43.748  10.158
74862W        W39847  41.288  26.552   3.348
74863W        W39848  21.591  44.439  14.430
74864W        W39849  33.590  12.096  11.541
74865W        W39850   5.408  27.836  11.238
74866W        W39851  21.495  42.512  11.556
74867W        W39852   4.368  21.824  12.989
74868W        W39853  23.748  15.815   1.026
74869W        W39854  23.490  17.783   0.391
74870W        W39855  41.513  10.598   4.448
74871W        W39856  28.264  23.915  13.089
74872W        W39857  17.231  18.663  11.541
74873W        W39858  20.275  17.730  11.557
74874W        W39859  39.907  40.736   0.242
74875W        W39860  18.601  44.766  13.357
74876W        W39861  13.066  31.610  10.350
74877W        W39862   9.359   5.459   3.390
74878W        W39863  28.145  23.524   2.357
74879W        W39864  32.840  17.617  12.473
74880W        W39865   2.217  12.897  14.489
74881W        W39866  44.065   1.764  10.767
74882W        W39867  44.229   0.496   3.301
74883W        W39868  32.498  11.181   2.633
74884W        W39869  31.557  15.853  11.462
74885W        W39870  28.690  38.835  13.842
74886W        W39871  40.436  25.153  13.446
74887W        W39872  36.840  12.580   2.865
74888W        W39873  34.559  13.857   0.678
74889W        W39874  42.737   9.563   0.408
74890W        W39875  36.094  11.268   1.555
74891W        W39876  20.205  15.187  11.736
74892W        W39877  43.825  40.812   2.165
74893W        W39878  35.017  10.168   2.712
74894W        W39879  28.988   4.176  13.024
74895W        W39880  41.736   5.269  10.441
74896W        W39881  32.560  39.423   3.421
74897W        W39882  14.637   3.517   3.700
74898W        W39883  22.290   5.793  14.820
74899W        W39884  35.078  40.819  11.619
74900W        W39885  37.558   2.813   3.174
74901W        W39886  18.240  21.714  12.064
74902W        W39887  35.535  15.633  12.350
74903W        W39888  44.599  32.878  12.493
74904W        W39889  41.398   5.656  13.914
74905W        W39890   7.390  34.908   1.394
74906W        W39891  22.074   1.238   4.285
74907W        W39892   0.666   1.333   1.950
74908W        W39893  32.580   7.118   4.455
74909W        W39894  36.545  38.958   4.538
74910W        W39895  27.933  33.901  13.790
74911W        W39896   4.660  11.788  14.452
74912W        W39897   5.798  28.240   2.866
74913W        W39898  34.928   7.678  11.916
74914W        W39899  12.895  11.076   4.169
74915W        W39900  35.326   6.001  14.449
74916W        W39901  35.421   9.855   1.842
74917W        W39902   9.283   6.461   3.676
74918W        W39903   8.806  34.079   2.469
74919W        W39904   4.411  28.926  11.524
74920W        W39905  33.655  17.043  12.535
74921W        W39906   2.304  13.337  14.193
74922W        W39907  30.104  28.070   1.682
74923W        W39908  14.173  31.114  10.560
74924W        W39909   1.747  22.435  12.005
74925W        W39910  28.271   3.712  11.645
74926W        W39911  26.405  22.615   1.813
74927W        W39912  42.064   8.782   0.844
74928W        W39913  30.572  39.941  14.505
74929W        W39914   4.897  18.268   2.790
74930W        W39915  43.880  38.941   1.592
74931W        W39916  10.682  34.276  12.926
74932W        W39917  15.169   5.954  14.847
74933W        W39918   4.292  16.986  13.393
74934W        W39919  15.123   3.327   3.827
74935W        W39920  16.373  25.307  13.092
74936W        W39921   6.529  28.938  12.054
74937W        W39922  35.606  39.865   2.668
74938W        W39923  18.057  27.229   4.082
74939W        W39924  34.533  34.979   1.453
74940W        W39925  20.063  34.907  12.980
74941W        W39926   1.992  27.392   4.190
74942W        W39927  19.691  24.600  12.896
74943W        W39928  41.510  11.854  11.150
74944W        W39929  13.092   1.840  12.585
74945W        W39930  20.603  38.467   4.580
74946W        W39931  29.109  15.769  10.228
74947W        W39932  12.184   5.961  13.479
74948W        W39933  15.952   9.799  11.197
74949W        W39934  13.553  39.014   2.881
74950W        W39935  40.253  15.586   1.515
74951W        W39936  43.552  28.169  12.025
74952W        W39937  14.421   5.195  14.633
74953W        W39938  43.929  34.560  14.002
74954W        W39939   9.947  32.204   4.625
74955W        W39940  14.310  24.708  13.774
74956W        W39941  23.602  13.205   0.735
74957W        W39942  30.478  35.157   3.760
74958W        W39943  17.385  22.081  13.557
74959W        W39944  42.824   2.283  11.475
74960W        W39945   0.404  14.670  14.073
74961W        W39946  18.024  33.915  14.866
74962W        W39947  26.615  38.894   2.284
74963W        W39948  26.412  12.327  14.346
74964W        W39949  20.542  39.970  10.948
74965W        W39950  29.314   3.145   1.732
74966W        W39951  22.212  42.198   3.205
74967W        W39952   9.024  20.336   1.174
74968W        W39953  40.858  41.689  11.982
74969W        W39954  41.757  24.550   4.408
74970W        W39955  31.384  34.573   2.878
74971W        W39956  38.618  10.852  13.094
74972W        W39957   1.790  20.553  14.807
74973W        W39958   7.404   3.840   4.928
74974W        W39959  21.036   9.800   3.169
74975W        W39960  39.830   1.826  10.833
74976W        W39961  16.339  37.428  12.407
74977W        W39962  16.433  28.871   4.504
74978W        W39963   3.722  31.144   3.158
74979W        W39964  43.783   0.491  14.368
74980W        W39965  33.381  20.585  11.697
74981W        W39966   4.761  43.517   0.959
74982W        W39967  41.826  34.868  14.794
74983W        W39968  26.523  18.320  11.603
74984W        W39969  40.657  26.228  14.902
74985W        W39970  37.121   5.159   0.436
74986W        W39971   4.653  31.724  13.960
74987W        W39972   8.859  41.432  14.244
74988W        W39973  23.223   7.597   2.804
74989W        W39974  29.053   3.942   3.160
74990W        W39975   9.143  23.610   4.728
74991W        W39976  12.737  19.559  10.703
74992W        W39977  30.076  30.831   4.721
74993W        W39978   5.350   6.212  12.407
74994W        W39979  29.180  19.033   0.306
74995W        W39980   4.955  27.988  13.811
74996W        W39981  11.423   9.807  14.896
74997W        W39982  18.089  36.829   0.836
74998W        W39983  33.337  43.944   4.026
74999W        W39984   9.676  14.625   3.044
75000W        W39985  30.186  21.988   2.797
75001W        W39986  21.784  38.815  13.007
75002W        W39987  43.393  42.561   3.849
75003W        W39988   0.392  15.280   3.607
75004W        W39989   1.778   7.963   3.221
75005W        W39990  14.743  37.810   4.068
75006W        W39991  34.611  33.391  11.525
75007W        W39992  32.092  36.997  13.711
75008W        W39993   5.270  28.164  12.484
75009W        W39994  15.543  29.942   0.965
75010W        W39995  27.145   7.397  14.000
75011W        W39996  17.825  13.676  12.049
75012W        W39997  28.708  10.288   0.207
75013W        W39998  39.938   3.613   0.773
75014W        W39999  34.422  43.753  13.413
75015W        W40000  10.665  31.576   2.307
75016W        W40001  41.011  25.191   3.034
75017W        W40002  39.684  36.746  13.410
75018W        W40003  40.310  42.093   3.286
75019W        W40004  17.531   0.353  11.070
75020W        W40005  26.760  15.177   4.830
75021W        W40006  11.143  24.732   2.337
75022W        W40007  33.652  35.451  11.499
75023W        W40008  44.280  44.177  14.521
75024W        W40009  20.646   8.888  13.795
75025W        W40010  24.331  31.098  13.974
75026W        W40011  15.006  14.809   0.974
75027W        W40012   5.686   0.864  10.766
75028W        W40013  41.344  32.402  11.295
75029W        W40014  29.903  26.661   3.677
75030W        W40015  15.577  29.402   2.642
75031W        W40016  35.870  39.612   1.319
75032W        W40017   4.239  13.122  10.507
75033W        W40018   8.684  27.175   0.809
75034W        W40019  21.577  43.845   3.241
75035W        W40020  34.004  32.061  14.764
75036W        W40021  12.637   5.928  12.217
75037W        W40022  43.629  15.582   4.582
75038W        W40023   0.064   7.969  14.846
75039W        W40024   0.588  32.564   1.885
75040W        W40025   5.290  39.478   3.001
75041W        W40026   6.069   8.707   1.041
75042W        W40027  25.598  11.311   2.296
75043W        W40028  18.864   0.733  11.281
75044W        W40029  24.555  15.241  11.438
75045W        W40030   5.290  16.890  10.788
75046W        W40031  17.932  20.349  13.469
75047W        W40032  29.143   5.237  14.426
75048W        W40033  34.345  17.087   3.735
75049W        W40034  41.356  35.922  12.945
75050W        W40035  43.446  29.423  11.442
75051W        W40036  27.386  23.628  14.749
75052W        W40037   5.935  32.079   0.533
75053W        W40038   2.515  43.509   1.192
75054W        W40039  44.262   3.229  12.201
75055W        W40040  17.256  17.764  14.884
75056W        W40041   8.334  41.066  13.335
75057W        W40042  22.561  44.854   3.599
75058W        W40043  37.024  41.026   3.712
75059W        W40044  14.326   3.481  11.728
75060W        W40045   3.961   1.743   0.847
75061W        W40046  10.317  12.333   1.334
75062W        W40047  39.421  11.742  13.387
75063W        W40048  39.881  27.456  14.964
75064W        W40049  29.951  18.808  10.375
75065W        W40050  17.836  24.496  12.026
75066W        W40051  32.855  42.526   1.463
75067W        W40052  32.393  10.754  14.868
75068W        W40053  34.634  20.556  10.680
75069W        W40054  19.765  10.770   1.017
75070W        W40055  13.255  15.915   4.110
75071W        W40056   7.115  42.374   3.698
75072W        W40057  27.941  42.993   3.215
75073W        W40058  31.504   2.676   2.017
75074W        W40059  41.339   5.090   3.704
75075W        W40060   1.773   0.858  13.400
75076W        W40061  29.571   2.042  14.968
75077W        W40062  32.341   9.726  14.406
75078W        W40063  31.185  21.719   1.886
75079W        W40064  30.636   3.844   4.121
75080W        W40065   5.508  32.946   4.862
75081W        W40066  24.120  22.794  13.849
75082W        W40067  41.034  38.859   3.993
75083W        W40068  32.626  27.672   5.017
75084W        W40069  39.837   9.120   3.693
75085W        W40070  23.317  15.010  11.989
75086W        W40071  24.971  41.561   2.967
75087W        W40072  13.797  44.499  11.911
75088W        W40073  36.324  29.139  11.702
75089W        W40074   6.361  27.514   3.538
75090W        W40075  11.459  35.019   3.604
75091W        W40076   7.116  28.010  14.767
75092W        W40077  38.862  34.389   4.808
75093W        W40078  35.009  32.909  14.483
75094W        W40079  20.072   4.918  14.818
75095W        W40080  38.160  29.773  11.202
75096W        W40081  44.697  40.475   4.713
75097W        W40082  22.030  17.686   1.761
75098W        W40083  28.921  30.642  14.776
75099W        W40084  38.543  11.856   2.616
75100W        W40085  23.873  21.183   1.644
75101W        W40086   6.994  24.519   4.073
75102W        W40087  14.377  13.660  11.652
75103W        W40088  37.966   8.183   3.258
75104W        W40089  41.857  24.447   0.182
75105W        W40090  23.695  37.054  14.905
75106W        W40091  27.002   7.993   1.447
75107W        W40092  15.070  36.065  10.891
75108W        W40093  41.625   4.265   1.988
75109W        W40094   1.818   1.355   1.234
75110W        W40095   5.969   4.285   2.804
75111W        W40096   2.163  23.002   2.457
75112W        W40097  36.335   0.836  12.600
75113W        W40098   9.829  24.290  10.715
75114W        W40099  28.202  21.504  14.778
75115W        W40100  32.937  26.591   3.349
75116W        W40101   1.030  31.625  14.757
75117W        W40102  21.743   6.927   2.143
75118W        W40103  41.841  16.649  12.624
75119W        W40104  32.575  21.848   2.752
75120W        W40105  44.208  15.258   5.509
75121W        W40106  13.461  25.980  12.429
75122W        W40107  14.621  24.632  12.578
75123W        W40108  30.861  42.840   4.913
75124W        W40109  30.765  33.534   2.070
75125W        W40110  31.716  34.184   0.382
75126W        W40111  15.389  34.482  12.548
75127W        W40112   8.299   3.560  13.698
75128W        W40113  21.629   4.275   1.770
75129W        W40114  11.380  44.867   4.611
75130W        W40115  25.758  19.501   3.786
75131W        W40116  44.097  23.136   4.731
75132W        W40117  20.654   6.999  11.565
75133W        W40118  37.254   7.636  13.094
75134W        W40119  18.730  11.734   1.781
75135W        W40120  27.325  42.996  13.316
75136W        W40121   0.487  42.285   0.489
75137W        W40122  31.240  13.580  14.540
75138W        W40123   0.263  27.782   4.648
75139W        W40124  36.841  21.724   0.946
75140W        W40125   2.950   0.356  13.047
75141W        W40126   7.398  42.902  13.287
75142W        W40127  16.590  12.429   0.538
75143W        W40128  19.861   7.338   1.469
75144W        W40129  25.498  23.016   1.727
75145W        W40130   8.304  34.708  13.361
75146W        W40131  37.442   9.445  11.778
75147W        W40132   1.769  44.935  11.439
75148W        W40133   2.483  26.104  13.506
75149W        W40134  11.283   9.372   2.716
75150W        W40135   4.244  30.138   4.572
75151W        W40136  43.045  36.534   1.228
75152W        W40137   4.533   3.095   2.905
75153W        W40138  41.702  28.553   3.647
75154W        W40139  15.024  40.770  12.786
75155W        W40140  42.411  12.640  13.540
75156W        W40141   2.328  34.387  13.757
75157W        W40142  16.213  41.982   3.321
75158W        W40143   0.974  15.249  12.598
75159W        W40144  37.401   3.180   1.880
75160W        W40145   8.622  16.745  10.701
75161W        W40146  16.156  14.813   0.416
75162W        W40147  15.332   0.268   0.286
75163W        W40148  22.053  11.432   4.069
75164W        W40149   2.043  30.610   4.104
75165W        W40150  42.901   1.288  11.706
75166W        W40151  20.014  12.964  11.439
75167W        W40152   4.051  32.404   0.232
75168W        W40153  40.790  29.945   1.314
75169W        W40154  43.850  18.550  14.486
75170W        W40155  31.489   4.829  13.102
75171W        W40156  29.520  21.239   5.009
75172W        W40157   2.798  37.388  12.470
75173W        W40158  12.223  44.385  12.992
75174W        W40159   4.354  44.162  11.162
75175W        W40160   2.482  15.427   0.816
75176W        W40161  22.730   6.382   3.787
75177W        W40162  36.383  33.100  11.479
75178W        W40163  18.229   5.694   1.946
75179W        W40164  20.877  29.235  10.170
75180W        W40165  30.804  40.280   3.365
75181W        W40166  33.114   7.785   0.496
75182W        W40167  34.393  34.100  12.543
75183W        W40168  38.977  13.854   3.810
75184W        W40169   2.511  40.996  12.387
75185W        W40170  26.636  43.356   1.427
75186W        W40171  26.590  13.854   1.394
75187W        W40172  42.258  12.085  10.595
75188W        W40173  12.150  13.743   0.941
75189W        W40174  19.707  23.487   0.822
75190W        W40175  15.504  28.208  13.616
75191W        W40176  31.517  30.765  10.707
75192W        W40177  20.868  31.596   1.543
75193W        W40178   1.880   6.300  11.973
75194W        W40179  28.125  18.492   4.231
75195W        W40180  27.993  27.023   4.474
75196W        W40181  33.864  28.735  14.340
75197W        W40182   9.458  26.022   2.247
75198W        W40183  31.835  27.854   4.145
75199W        W40184  13.280  25.925   3.396
75200W        W40185  28.898   4.850   1.828
75201W        W40186  36.030  24.692   1.435
75202W        W40187   6.827  35.473  11.410
75203W        W40188  42.436   7.212  12.146
75204W        W40189  12.073   9.343   3.550
75205W        W40190  26.496  18.504   4.028
75206W        W40191  44.726   4.187   1.186
75207W        W40192  11.050  33.581  12.091
75208W        W40193  38.005  20.676  12.090
75209W        W40194  17.315  10.637   1.606
75210W        W40195  17.484   1.761   4.720
75211W        W40196  32.677  15.156   2.355
75212W        W40197  31.016  17.256  10.650
75213W        W40198  44.077  35.722  13.790
75214W        W40199  44.028   0.266   2.755
75215W        W40200   2.732  18.963   2.813
75216W        W40201  30.583  11.602   0.775
75217W        W40202  28.714  40.028  13.284
75218W        W40203   6.926  14.680   0.259
75219W        W40204  25.842  44.751  13.080
75220W        W40205  37.407  19.248   4.369
75221W        W40206   0.845  16.946  14.084
75222W        W40207  21.499   1.232  11.045
75223W        W40208  28.150  15.267  10.069
75224W        W40209  18.190  10.958   1.731
75225W        W40210   5.027  16.963  12.030
75226W        W40211  28.197  15.311   2.466
75227W        W40212   5.902  17.338  11.549
75228W        W40213  14.786  10.845   3.561
75229W        W40214   6.742  10.148  13.378
75230W        W40215  10.076  36.069   1.792
75231W        W40216  44.162  36.809  13.619
75232W        W40217   9.305  18.297   0.178
75233W        W40218   5.276  39.358   1.975
75234W        W40219  24.519   9.135  12.885
75235W        W40220  42.756  30.688   3.597
75236W        W40221  34.587  17.845   4.592
75237W        W40222  39.005   0.959  14.214
75238W        W40223  42.806   0.478   3.327
75239W        W40224  11.749  29.446  12.110
75240W        W40225  36.030  24.730  11.151
75241W        W40226  25.704   7.485  10.105
75242W        W40227   1.471  44.102   1.458
75243W        W40228  12.836   7.434   2.102
75244W        W40229  23.445  10.939  12.893
75245W        W40230  43.289  24.071  13.414
75246W        W40231  31.346   3.333   1.346
75247W        W40232  14.709  22.823   1.177
75248W        W40233   0.047  32.035   4.032
75249W        W40234  25.337  25.568  13.571
75250W        W40235  31.962  13.193  12.638
75251W        W40236  36.796  24.520   4.974
75252W        W40237  30.583  37.884  13.270
75253W        W40238  19.652  37.955  10.486
75254W        W40239  43.979  33.501   0.900
75255W        W40240   0.270  17.972   4.167
75256W        W40241  22.706  14.488   3.756
75257W        W40242  21.957  30.085  14.650
75258W        W40243  27.383  44.852  12.512
75259W        W40244   1.486  21.626   3.089
75260W        W40245   9.302   7.596   0.500
75261W        W40246  31.630  23.646   3.014
75262W        W40247  30.854   3.329   5.082
75263W        W40248  16.097  12.314   0.385
75264W        W40249  26.485  11.072   0.407
75265W        W40250  24.020  41.343   1.519
75266W        W40251  19.162  15.794   0.292
75267W        W40252  34.503  41.005   3.990
75268W        W40253   6.203  40.197   2.481
75269W        W40254  16.253  20.473   0.802
75270W        W40255  32.889  41.414   3.769
75271W        W40256  38.010  13.598   0.105
75272W        W40257  33.387   1.156   0.498
75273W        W40258  35.859  23.486  13.885
75274W        W40259  41.960   9.263   1.612
75275W        W40260  26.708  22.100  13.406
75276W        W40261  25.420   8.818   1.856
75277W        W40262  37.189  12.310   0.753
75278W        W40263  24.686  40.083   3.715
75279W        W40264   4.668  10.772  13.452
75280W        W40265  41.436   4.946  10.726
75281W        W40266   9.228   7.436  14.581
75282W        W40267   1.195   2.274  11.140
75283W        W40268   6.004  25.016  14.139
75284W        W40269   5.382  40.717  14.134
75285W        W40270  25.229  25.899  11.633
75286W        W40271  32.613  18.451  14.930
75287W        W40272  10.166  29.395   1.651
75288W        W40273   6.549  16.051  11.973
75289W        W40274  17.261  23.119  14.212
75290W        W40275  17.258  17.658   2.623
75291W        W40276   6.274   1.548   0.931
75292W        W40277  22.125  20.960   4.812
75293W        W40278  26.693   9.326   1.985
75294W        W40279   6.496  13.730   2.237
75295W        W40280   0.273  33.483   2.825
75296W        W40281  42.351  13.155   0.838
75297W        W40282  35.962  29.129   3.936
75298W        W40283  15.801   4.296  13.966
75299W        W40284  28.171  20.210   2.755
75300W        W40285  24.284   3.282   2.387
75301W        W40286  12.962  17.455   2.256
75302W        W40287   1.194  35.418   3.377
75303W        W40288  29.570  15.651   2.171
75304W        W40289  22.894  30.077  14.282
75305W        W40290  12.789  26.471   3.201
75306W        W40291   8.630  32.577   4.539
75307W        W40292  25.520   4.150  11.515
75308W        W40293   7.292  27.225  12.560
75309W        W40294  29.668  26.125  14.375
75310W        W40295  17.639  25.993   3.051
75311W        W40296  11.847  22.238  14.337
75312W        W40297  42.328  31.014  12.833
75313W        W40298  41.600  31.883   2.075
75314W        W40299  10.376  31.930   3.715
75315W        W40300  10.189  19.220  10.543
75316W        W40301  37.629  44.485   4.380
75317W        W40302  17.167  25.587   2.229
75318W        W40303  39.872  37.761   0.296
75319W        W40304   8.794  19.881  13.425
75320W        W40305   5.291   2.219  11.141
75321W        W40306   9.756  36.616   3.803
75322W        W40307  37.492  20.063   0.326
75323W        W40308  25.807  18.813  11.034
75324W        W40309  33.180  16.814   0.808
75325W        W40310  32.036  15.787  11.601
75326W        W40311  40.106  26.143  13.427
75327W        W40312  23.732  41.498   4.616
75328W        W40313  37.532  23.251   1.134
75329W        W40314   4.292  43.039   3.697
75330W        W40315  25.031  41.422   2.445
75331W        W40316  37.353   4.177  12.081
75332W        W40317  25.289  23.555  11.594
75333W        W40318  41.109  27.355   2.745
75334W        W40319   4.974  33.661   4.508
75335W        W40320  26.908  40.591   3.435
75336W        W40321  29.604  19.174  12.915
75337W        W40322   8.407   6.733   2.674
75338W        W40323   8.770  31.892  14.504
75339W        W40324  21.123  15.291  11.387
75340W        W40325  35.642   3.227  11.593
75341W        W40326  29.167  23.679  11.160
75342W        W40327  36.500  36.594   4.642
75343W        W40328  39.654   6.815  14.832
75344W        W40329  38.956  37.842  13.487
75345W        W40330  23.196  13.657   1.797
75346W        W40331  29.178  13.209   4.864
75347W        W40332   1.069   2.920   3.219
75348W        W40333  33.709  19.047  10.352
75349W        W40334  22.002  15.493  13.413
75350W        W40335   4.101   9.654   3.688
75351W        W40336  18.856  14.123   1.845
75352W        W40337   3.334   1.608   0.365
75353W        W40338  13.114  18.033  13.982
75354W        W40339   6.599  19.296  10.610
75355W        W40340  14.649  22.197   4.836
75356W        W40341  29.737  32.291   0.161
75357W        W40342  23.671  28.235   3.155
75358W        W40343  18.339  22.046   1.815
75359W        W40344   7.761  31.412   4.626
75360W        W40345  20.169  19.407  11.145
75361W        W40346  11.373  25.213   0.298
75362W        W40347  29.529  28.311   1.891
75363W        W40348   1.396   6.314   4.638
75364W        W40349  31.355  18.118   1.157
75365W        W40350  19.039  18.607  13.309
75366W        W40351  34.692  38.025  12.873
75367W        W40352  17.887  36.697   2.163
75368W        W40353  41.872  16.360   0.627
75369W        W40354  33.325  28.522   3.708
75370W        W40355  13.940  32.010  11.969
75371W        W40356  44.056  20.979  10.909
75372W        W40357   1.620  22.201   3.723
75373W        W40358  13.147   1.836  11.046
75374W        W40359  13.999   9.478  10.710
75375W        W40360  14.655  38.125  11.584
75376W        W40361   4.875  11.373   4.775
75377W        W40362  12.963  33.854  14.558
75378W        W40363   6.787  22.598   0.926
75379W        W40364  33.582  14.217   4.267
75380W        W40365  39.300  33.469   0.532
75381W        W40366   4.608   7.694  11.824
75382W        W40367  12.893   5.163   4.433
75383W        W40368  10.458   5.660  11.565
75384W        W40369  27.254  11.113  10.658
75385W        W40370   0.363  29.494   1.442
75386W        W40371  39.610   6.744   4.489
75387W        W40372   2.268  44.514   4.197
75388W        W40373  29.459   7.254   2.706
75389W        W40374  44.042  17.616   3.864
75390W        W40375  33.645  29.389   4.078
75391W        W40376   2.942  26.234   4.888
75392W        W40377  17.185  16.082   1.057
75393W        W40378   6.480   0.905  13.942
75394W        W40379   7.795  42.986  11.598
75395W        W40380   2.281  30.873  12.936
75396W        W40381  20.155  20.169  11.864
75397W        W40382  21.570  31.110   1.058
75398W        W40383   6.161  12.830  14.517
75399W        W40384  41.290  27.049   3.570
75400W        W40385  37.423  18.127  11.034
75401W        W40386   4.778  26.479  11.136
75402W        W40387  33.005  13.521   1.161
75403W        W40388   2.264  18.854   4.939
75404W        W40389   3.764   4.863   9.791
75405W        W40390  41.550  34.049  11.593
75406W        W40391  27.812  29.115  14.351
75407W        W40392  32.190  13.436   0.511
75408W        W40393  23.685  39.876   0.297
75409W        W40394   8.093  13.615   0.762
75410W        W40395  17.203   6.950   2.669
75411W        W40396  12.034  34.991  10.397
75412W        W40397  20.214  23.473  12.070
75413W        W40398  29.210  34.437  10.510
75414W        W40399  17.752  19.965   4.105
75415W        W40400   6.256  13.159  11.632
75416W        W40401   2.296  17.066  11.394
75417W        W40402  42.572  38.902  13.782
75418W        W40403  28.517  34.582  11.048
75419W        W40404  42.516   3.408  12.946
75420W        W40405  27.033  10.037  14.684
75421W        W40406  39.361  19.501  11.984
75422W        W40407   1.092  37.385  12.404
75423W        W40408   5.552  29.926  14.952
75424W        W40409  16.751  21.938  14.870
75425W        W40410  42.601   7.421   1.350
75426W        W40411  40.851   8.753  11.629
75427W        W40412   5.234   8.059  14.058
75428W        W40413  21.983  32.605   2.577
75429W        W40414  36.023  29.790  12.587
75430W        W40415  22.249  32.890  11.098
75431W        W40416  17.050  19.030   2.368
75432W        W40417  26.996  38.798   4.532
75433W        W40418  41.742  34.000   3.204
75434W        W40419  14.464  32.221  12.661
75435W        W40420  44.294  18.325   0.439
75436W        W40421  33.014  14.399   2.706
75437W        W40422   7.932  24.448  14.339
75438W        W40423  21.574  20.145  12.784
75439W        W40424   4.449  20.629  11.596
75440W        W40425  29.686   8.207   1.849
75441W        W40426  21.863  28.408  12.934
75442W        W40427  42.542  11.342   1.408
75443W        W40428  38.484  41.424  10.461
75444W        W40429  19.123  34.217  12.378
75445W        W40430  42.427  16.210  11.143
75446W        W40431  36.368  30.378  11.307
75447W        W40432  38.687   8.709  10.456
75448W        W40433  42.443   3.173   2.368
75449W        W40434  28.641  22.624  14.849
75450W        W40435  40.199  37.786   3.872
75451W        W40436   7.125  15.171   3.766
75452W        W40437   1.699  23.611  11.160
75453W        W40438  30.576  36.635   0.445
75454W        W40439  19.977  10.230   2.833
75455W        W40440  14.098   0.692   4.985
75456W        W40441  31.645  35.839   2.602
75457W        W40442  24.817  28.511  14.831
75458W        W40443  31.509  44.532  13.551
75459W        W40444  10.439  19.300  14.310
75460W        W40445  13.535  19.475   4.397
75461W        W40446  16.095   7.918   1.275
75462W        W40447   1.251  14.393  12.120
75463W        W40448  23.302   5.752   3.292
75464W        W40449  30.201   8.353  12.098
75465W        W40450  32.062  28.666  13.135
75466W        W40451  31.906  11.668  10.944
75467W        W40452  43.695  41.465   3.563
75468W        W40453  41.855  36.743   2.738
75469W        W40454  26.705  40.136   1.764
75470W        W40455   1.346  37.010   3.232
75471W        W40456  39.350  44.913   2.340
75472W        W40457   3.414  40.478  14.798
75473W        W40458   6.826   3.099  10.643
75474W        W40459  21.045  11.668   0.863
75475W        W40460  30.475  39.733  10.385
75476W        W40461   4.120  39.721  13.064
75477W        W40462  29.638  37.566   0.482
75478W        W40463   0.747  20.300   1.182
75479W        W40464   9.229   1.442  13.102
75480W        W40465  21.285  16.754   2.336
75481W        W40466  10.399  32.985   1.252
75482W        W40467   4.134  41.689   0.266
75483W        W40468  13.101  39.377  10.776
75484W        W40469  26.514  21.280  13.513
75485W        W40470  16.275   8.546   2.752
75486W        W40471  44.147   8.121   4.950
75487W        W40472   5.681  43.359  14.070
75488W        W40473  19.282   1.763   0.387
75489W        W40474  11.254   0.043   2.665
75490W        W40475  12.436  26.486  11.551
75491W        W40476  19.321  43.736  11.159
75492W        W40477   8.404  17.311  14.942
75493W        W40478  28.407  44.876  11.610
75494W        W40479  37.903  14.293   1.644
75495W        W40480  11.211   7.628  10.698
75496W        W40481   0.885  42.856   3.250
75497W        W40482  21.638   1.981  11.926
75498W        W40483  17.107  30.018   0.681
75499W        W40484   1.951   8.630  12.022
75500W        W40485  42.056   8.117   2.956
75501W        W40486  23.586   1.971  14.776
75502W        W40487  20.568  28.379   4.516
75503W        W40488  22.646  17.672  13.972
75504W        W40489  38.372  20.467  10.636
75505W        W40490  39.353   3.245   1.877
75506W        W40491  12.634  16.675   4.735
75507W        W40492  11.757  42.188   0.963
75508W        W40493   7.662  10.258  14.009
75509W        W40494  13.596  40.923  11.909
75510W        W40495  26.700  27.146   3.769
75511W        W40496  40.004  35.399   0.755
75512W        W40497  41.761  32.778  13.409
75513W        W40498   0.491   0.788  12.968
75514W        W40499   6.587   5.325   2.211
75515W        W40500  28.588  29.980   2.686
75516W        W40501  20.455  16.301   4.018
75517W        W40502  31.537  19.137  13.504
75518W        W40503   1.051   2.849  10.562
75519W        W40504  29.244  20.995   3.226
75520W        W40505  20.179  40.496   3.606
75521W        W40506  14.663  35.591  14.430
75522W        W40507  20.498  31.064  11.498
75523W        W40508  30.942  24.378  11.691
75524W        W40509   9.157  11.813   4.578
75525W        W40510  18.716  11.925  13.755
75526W        W40511  19.288  23.283  13.003
75527W        W40512  35.858  14.244  13.529
75528W        W40513  13.381  11.798   3.146
75529W        W40514  24.448  16.623  13.913
75530W        W40515  23.448  41.292   0.874
75531W        W40516  30.890  39.185  10.173
75532W        W40517  32.484   3.270   2.157
75533W        W40518  27.111  19.751  12.511
75534W        W40519  34.144  25.872  10.639
75535W        W40520  39.018  24.630   2.959
75536W        W40521   4.384  35.415   4.755
75537W        W40522   0.356   3.489  10.768
75538W        W40523  18.185  44.921  14.833
75539W        W40524  34.138  32.374   2.493
75540W        W40525  40.405   0.015  14.560
75541W        W40526  25.483   5.395  13.326
75542W        W40527  13.067  17.107  12.115
75543W        W40528   7.838  17.709   3.345
75544W        W40529  15.408  44.708  12.554
75545W        W40530  42.726  33.232   2.775
75546W        W40531  21.173  13.170  14.998
75547W        W40532  35.516  28.489  13.907
75548W        W40533  38.548   2.815   0.767
75549W        W40534  44.310   2.785   3.784
75550W        W40535  22.802   4.117  14.892
75551W        W40536  31.647  35.146   4.173
75552W        W40537   0.457  21.571   0.008
75553W        W40538   4.451  22.120  12.413
75554W        W40539   8.639  44.347  14.504
75555W        W40540   9.584  24.112   0.914
75556W        W40541  38.691  35.397   4.487
75557W        W40542   8.977  22.183   0.459
75558W        W40543  34.457  11.355   2.269
75559W        W40544  23.574  37.554  14.946
75560W        W40545   6.223  41.286  12.996
75561W        W40546  26.758  11.317  12.875
75562W        W40547   5.841   5.744   0.386
75563W        W40548  30.317   5.304  13.637
75564W        W40549  12.550  24.092   3.664
75565W        W40550  26.113  42.739  11.054
75566W        W40551  39.394  12.609  12.054
75567W        W40552  43.361  17.858   3.207
75568W        W40553  29.430   1.612  10.267
75569W        W40554  34.649  25.060  14.285
75570W        W40555   3.231   4.253   1.842
75571W        W40556   3.656  19.191  12.815
75572W        W40557   4.776   0.764  14.385
75573W        W40558  30.028  14.660   0.753
75574W        W40559  14.204  38.627  14.297
75575W        W40560  43.888  41.932  11.136
75576W        W40561   4.927  39.327  11.226
75577W        W40562   6.212  31.692   0.310
75578W        W40563  24.475  35.928   0.012
75579W        W40564  40.782  28.495  14.868
75580W        W40565  44.597  31.543   0.479
75581W        W40566   1.907   2.840   4.100
75582W        W40567  11.529  22.347  11.518
75583W        W40568   1.968  33.389  11.472
75584W        W40569  28.932  44.986  11.611
75585W        W40570   8.591  28.260  13.436
75586W        W40571   4.701  40.542  12.163
75587W        W40572  30.177   9.505  13.056
75588W        W40573  16.267  28.617   3.258
75589W        W40574   6.581  21.228  12.469
75590W        W40575  37.137  16.745  12.697
75591W        W40576  11.211  37.054  12.966
75592W        W40577  11.169  44.464   2.711
75593W        W40578  43.960  25.890  12.773
75594W        W40579  35.538  37.470   1.431
75595W        W40580  30.893   4.850  11.510
75596W        W40581  34.325  17.167   0.907
75597W        W40582   1.785  41.849   3.757
75598W        W40583  41.344   2.715  13.316
75599W        W40584  31.022  24.939  11.129
75600W        W40585   9.950   4.260   4.054
75601W        W40586   3.182  26.976  12.341
75602W        W40587  18.654  10.989   0.430
75603W        W40588   3.794  15.288   5.016
75604W        W40589  27.410  33.979   3.343
75605W        W40590  43.140   6.941  13.938
75606W        W40591  19.275  32.924  13.408
75607W        W40592  40.990  43.517   1.899
75608W        W40593  41.444  25.449   0.937
75609W        W40594  20.513  23.953  14.387
75610W        W40595  22.418  44.371  13.326
75611W        W40596  16.274   2.199   1.352
75612W        W40597  29.584  30.657   4.612
75613W        W40598  36.964  22.001  12.060
75614W        W40599  38.898  35.842  10.933
75615W        W40600  32.358  12.252  10.693
75616W        W40601   4.295   2.925  13.145
75617W        W40602   7.473  14.315  11.491
75618W        W40603  27.653  31.741   9.930
75619W        W40604  25.093  31.600   1.253
75620W        W40605  23.734  15.721   1.528
75621W        W40606  42.439  30.431   0.612
75622W        W40607  29.874  41.332  12.922
75623W        W40608   6.755   7.132   2.736
75624W        W40609  13.934  11.768  10.843
75625W        W40610  30.150  12.624  13.811
75626W        W40611  35.546  31.007  12.807
75627W        W40612  26.753  27.844  11.479
75628W        W40613  29.876  37.915   4.619
75629W        W40614  20.644  43.198   3.422
75630W        W40615  14.998  12.739   4.260
75631W        W40616   0.798  33.446   2.880
75632W        W40617  40.305  25.487   1.750
75633W        W40618  39.048  16.985  14.455
75634W        W40619  31.554  31.771   3.079
75635W        W40620  17.149  31.324   1.218
75636W        W40621  15.200   4.673  10.754
75637W        W40622  17.791  19.661  14.713
75638W        W40623  21.061   5.147   0.323
75639W        W40624  24.490  39.691   2.771
75640W        W40625  24.927  38.597   4.032
75641W        W40626  43.434   1.774  12.546
75642W        W40627  25.114   1.513  12.142
75643W        W40628  42.284  26.518   0.338
75644W        W40629  26.196  10.564   4.595
75645W        W40630  27.638   7.479  13.867
75646W        W40631  13.562   2.033  14.918
75647W        W40632  39.900  13.632   1.149
75648W        W40633  21.672  17.001   2.728
75649W        W40634  12.234   0.952   3.162
75650W        W40635  41.942  17.533   2.888
75651W        W40636   2.887  26.927  13.716
75652W        W40637   0.054   2.909  11.602
75653W        W40638  16.169   8.006   2.838
75654W        W40639  36.551  35.643   2.948
75655W        W40640   5.171  40.446   0.450
75656W        W40641  13.661  13.415   1.154
75657W        W40642   6.962   5.898   1.324
75658W        W40643  37.841   9.583   2.089
75659W        W40644  14.302  12.175  11.700
75660W        W40645  33.475  27.217   2.435
75661W        W40646  16.752  20.439  12.825
75662W        W40647  34.589   3.243   1.249
75663W        W40648  28.405   4.653  14.944
75664W        W40649  19.515  26.909   3.294
75665W        W40650   4.933  13.153   0.294
75666W        W40651  40.446  31.477   4.528
75667W        W40652   3.423  42.498   1.211
75668W        W40653   4.457   4.459   1.631
75669W        W40654  27.835  40.426   3.620
75670W        W40655  38.787  12.459   4.291
75671W        W40656   3.539  14.736  14.304
75672W        W40657  42.443  34.760  12.227
75673W        W40658  43.018  23.055  12.042
75674W        W40659   7.976  22.088   3.767
75675W        W40660  17.251  41.739  11.225
75676W        W40661  38.404   4.842   1.258
75677W        W40662  32.487  43.028  14.237
75678W        W40663  37.177  28.490  10.730
75679W        W40664  44.384  44.511   3.087
75680W        W40665  25.016  22.653  10.980
75681W        W40666  34.297   0.404   3.009
75682W        W40667  13.332  32.830  14.569
75683W        W40668  40.788  35.246   3.967
75684W        W40669  12.865  27.496   3.379
75685W        W40670  28.203  10.229  11.717
75686W        W40671  40.427   4.254  13.372
75687W        W40672   2.136   7.836   2.847
75688W        W40673   0.386  43.006  10.510
75689W        W40674  33.356  41.756  10.704
75690W        W40675  27.959   9.863  12.006
75691W        W40676   2.719  28.565   0.797
75692W        W40677   1.776   3.494   3.418
75693W        W40678  27.673  24.265   1.922
75694W        W40679  31.481   2.973  10.991
75695W        W40680  13.655   7.127   1.806
75696W        W40681   3.677  15.044  12.189
75697W        W40682  43.197  27.771  11.959
75698W        W40683   3.788  34.490   0.236
75699W        W40684  15.316  12.614   2.751
75700W        W40685  17.208  39.970  11.619
75701W        W40686  22.090  26.500  13.538
75702W        W40687   6.520  42.343  11.166
75703W        W40688  26.405  25.197  13.412
75704W        W40689  19.820  17.238  11.023
75705W        W40690  23.148  26.293   1.745
75706W        W40691  35.226  14.111   2.700
75707W        W40692  22.569   8.940  12.616
75708W        W40693  18.539  30.247  13.981
75709W        W40694   6.806  21.482  11.118
75710W        W40695  37.114  35.978  10.679
75711W        W40696   7.334  21.784  11.548
75712W        W40697  22.822  41.750   1.820
75713W        W40698   7.865  25.382  10.331
75714W        W40699   7.338  35.080   3.180
75715W        W40700   7.275  18.148   4.963
75716W        W40701  10.641  14.554   4.484
75717W        W40702  21.265   3.596   3.150
75718W        W40703  12.100   9.214  14.063
75719W        W40704  43.728  24.569   2.122
75720W        W40705  30.184   7.657  14.845
75721W        W40706  40.548  32.917   2.270
75722W        W40707  42.508  21.165   4.020
75723W        W40708   7.906   0.477  13.600
75724W        W40709  34.299  13.737   3.678
75725W        W40710   1.988  26.104   4.544
75726W        W40711  22.428  31.103  13.504
75727W        W40712  30.172  29.400  11.051
75728W        W40713  26.677   8.396   1.436
75729W        W40714  25.737  17.336  13.331
75730W        W40715  14.772  18.956  12.619
75731W        W40716  30.951   7.809   4.822
75732W        W40717   0.539  28.589  13.456
75733W        W40718  16.633  42.461   3.303
75734W        W40719  13.878  43.452  13.575
75735W        W40720  11.525  41.340  11.720
75736W        W40721   1.719  24.571   0.830
75737W        W40722  44.738  40.946  13.855
75738W        W40723  13.546  33.995   2.883
75739W        W40724  37.033  25.763   1.296
75740W        W40725   8.676   6.110  12.486
75741W        W40726  39.004  41.920  11.979
75742W        W40727  22.466  34.470   4.664
75743W        W40728  21.979  41.371  13.122
75744W        W40729  17.037  39.751   1.680
75745W        W40730  34.852  27.974   0.895
75746W        W40731   5.794   1.383   4.710
75747W        W40732   7.554  27.422   1.412
75748W        W40733  36.037  31.053  14.073
75749W        W40734  34.089  22.509   3.914
75750W        W40735  15.676  30.609   1.716
75751W        W40736  12.876   5.322   2.797
75752W        W40737   7.430  21.038  14.860
75753W        W40738   2.253   7.824  13.846
75754W        W40739  17.680  40.556  11.305
75755W        W40740  33.088  15.073  11.544
75756W        W40741  10.777  43.558   1.351
75757W        W40742  44.718  29.983   1.295
75758W        W40743   7.297  32.173  14.982
75759W        W40744  35.813  13.329   2.793
75760W        W40745  27.407  14.982   0.457
75761W        W40746   0.334  43.433   1.841
75762W        W40747  18.622  35.536   0.660
75763W        W40748  33.896  43.270   5.100
75764W        W40749  39.054  20.132   0.006
75765W        W40750  11.653   9.600  10.248
75766W        W40751  23.401  13.022  13.908
75767W        W40752  15.692   9.859  12.940
75768W        W40753   4.321  20.746  14.920
75769W        W40754  44.381  44.683   5.248
75770W        W40755  40.053  11.279  14.057
75771W        W40756  11.196  17.727  13.096
75772W        W40757  22.645  18.220   0.663
75773W        W40758  16.582  11.462  10.540
75774W        W40759  31.849  43.401   4.159
75775W        W40760  28.831  20.096   4.288
75776W        W40761   4.414  34.184   1.339
75777W        W40762  19.240  24.158   5.030
75778W        W40763   1.475  34.759   0.603
75779W        W40764  25.640  29.655   2.321
75780W        W40765  23.697   3.909  12.159
75781W        W40766  15.838  39.790   1.244
75782W        W40767  26.483  36.441   0.470
75783W        W40768  39.998   9.312   2.044
75784W        W40769  26.426  20.164  12.149
75785W        W40770   2.994   5.908  11.500
75786W        W40771  24.051  33.774  11.863
75787W        W40772  26.464  26.228   0.930
75788W        W40773  44.722  22.532  13.509
75789W        W40774  24.330  21.759   0.293
75790W        W40775  15.614   6.508   3.262
75791W        W40776  31.182  23.128  11.479
75792W        W40777  36.808  22.710  14.282
75793W        W40778  13.021  33.037  14.976
75794W        W40779  35.083  39.061  14.880
75795W        W40780  10.600  38.792   0.817
75796W        W40781  38.347  11.528  13.739
75797W        W40782  31.998  14.217   2.770
75798W        W40783  14.767  41.771   0.807
75799W        W40784   2.448   3.181  14.260
75800W        W40785   3.935  39.775  11.548
75801W        W40786  40.908  15.621   2.230
75802W        W40787  17.148   7.141   4.442
75803W        W40788  11.943  30.301  14.869
75804W        W40789   7.769  12.685   0.768
75805W        W40790  23.579  20.726   5.566
75806W        W40791  14.817  40.754   3.146
75807W        W40792  38.461  10.507  13.485
75808W        W40793  34.859  32.866   3.684
75809W        W40794  18.835  30.923   3.944
75810W        W40795   1.442  24.500   4.245
75811W        W40796   1.822   9.219   0.339
75812W        W40797  16.420  13.825  12.880
75813W        W40798  41.554  31.383   3.218
75814W        W40799  12.637  32.402  12.520
75815W        W40800  10.145  25.185  13.522
75816W        W40801   0.373  38.059   2.178
75817W        W40802   2.016  14.196   2.915
75818W        W40803  16.653   1.283   4.040
75819W        W40804  13.188   3.311   1.255
75820W        W40805  31.148  33.893  12.725
75821W        W40806   2.228  28.405   4.321
75822W        W40807  44.852  39.154  12.538
75823W        W40808   7.801  44.901  12.529
75824W        W40809  13.686   8.361   2.269
75825W        W40810  33.903  28.090  14.791
75826W        W40811  11.323   1.414   3.364
75827W        W40812  19.972  34.192   2.707
75828W        W40813   0.733   0.279  13.008
75829W        W40814  32.104   3.175  10.189
75830W        W40815  14.307   6.330  11.423
75831W        W40816  42.196  27.062  13.003
75832W        W40817   9.742  11.377  14.474
75833W        W40818  11.352  23.565   4.626
75834W        W40819  38.708  32.469   4.984
75835W        W40820  35.374  12.095   1.421
75836W        W40821  12.675   2.445  14.060
75837W        W40822   9.712  33.684   1.862
75838W        W40823  16.500   3.117  13.007
75839W        W40824  12.753  27.522  14.312
75840W        W40825   8.713  38.825  12.229
75841W        W40826  14.066  20.447  14.020
75842W        W40827   7.183  14.782  12.661
75843W        W40828  13.211  37.286   0.762
75844W        W40829  16.918  11.238   0.219
75845W        W40830  23.777  27.927   1.212
75846W        W40831   7.482  41.538   4.191
75847W        W40832  39.534  39.950  12.597
75848W        W40833  18.306   2.165  11.171
75849W        W40834   2.535   9.918  12.024
75850W        W40835  10.339  36.929  10.769
75851W        W40836  37.294  13.126  12.909
75852W        W40837  30.494  35.729   4.571
75853W        W40838  19.212   2.870  13.575
75854W        W40839   7.176   8.870  12.022
75855W        W40840   5.992  13.603  13.078
75856W        W40841  40.873  34.153  14.770
75857W        W40842   8.916  41.826   2.220
75858W        W40843  27.251   0.483  13.513
75859W        W40844  16.767  35.575  14.768
75860W        W40845  43.072  13.721   0.571
75861W        W40846  34.670  30.941   4.832
75862W        W40847   4.868  31.390   3.322
75863W        W40848   2.984  44.674  14.558
75864W        W40849  26.172  15.285  12.928
75865W        W40850  38.306  38.439   3.716
75866W        W40851  19.466  29.498   3.167
75867W        W40852  22.193   7.145   2.661
75868W        W40853  12.688  26.733  13.070
75869W        W40854  22.426  14.383   2.195
75870W        W40855  15.121  14.421   4.298
75871W        W40856  28.584   6.171   3.625
75872W        W40857   4.836  41.593  12.167
75873W        W40858  31.588  31.619   0.440
75874W        W40859   5.384  24.643   4.943
75875W        W40860   4.714   2.380  14.406
75876W        W40861  21.154   7.398   3.810
75877W        W40862   8.380  22.201  12.106
75878W        W40863  26.698  27.050   0.369
75879W        W40864  12.241   4.557  14.465
75880W        W40865  28.171  29.181  12.435
75881W        W40866  44.870  18.069  11.483
75882W        W40867  11.571  21.301   5.043
75883W        W40868  32.878  31.496   2.241
75884W        W40869  35.182   7.068   2.459
75885W        W40870  16.250  25.910   9.792
75886W        W40871   7.706  13.434  12.979
75887W        W40872  28.497  19.871  12.442
75888W        W40873  11.861  42.058   2.224
75889W        W40874  37.881   8.103   4.079
75890W        W40875   5.796  20.327   4.251
75891W        W40876  37.111  13.287   1.444
75892W        W40877  44.661  41.443  13.264
75893W        W40878   3.339  11.404  10.194
75894W        W40879  34.613   4.392   4.646
75895W        W40880   5.385  40.863   2.343
75896W        W40881   2.783   3.182  11.098
75897W        W40882  10.392  31.184  11.062
75898W        W40883   1.635  37.359  12.547
75899W        W40884  10.165  23.510   1.386
75900W        W40885  42.257  10.115  12.507
75901W        W40886   8.751   9.690   0.247
75902W        W40887  37.670  14.682  11.922
75903W        W40888  18.007  31.426   2.266
75904W        W40889   0.699   2.712   2.208
75905W        W40890  12.746  31.056  12.538
75906W        W40891  12.650   3.983   4.234
75907W        W40892  24.439  38.918  14.427
75908W        W40893  18.878  29.629  10.715
75909W        W40894  22.469  43.407  12.938
75910W        W40895  19.180  21.251   2.106
75911W        W40896  12.934   2.349  11.034
75912W        W40897  25.758  41.025  12.894
75913W        W40898  27.461   3.383  12.052
75914W        W40899  36.880  21.466   3.133
75915W        W40900  29.226   6.440  13.141
75916W        W40901  13.541  44.578   0.420
75917W        W40902  11.216  30.254  12.946
75918W        W40903   0.615  34.395  12.963
75919W        W40904  20.080  21.093   2.826
75920W        W40905  40.500  16.298   2.692
75921W        W40906  43.100   9.914   4.325
75922W        W40907  16.791   9.709  10.340
75923W        W40908  22.732  31.044  10.097
75924W        W40909   4.416  28.651   0.236
75925W        W40910   4.361  16.600   0.613
75926W        W40911  32.011  32.065   3.069
75927W        W40912  20.004  33.351   2.150
75928W        W40913   6.181  35.987   4.656
75929W        W40914  29.621  18.667  12.693
75930W        W40915  31.690  30.153  14.507
75931W        W40916   8.494  42.664   3.421
75932W        W40917  37.310  18.616  14.485
75933W        W40918   1.324   7.658  14.355
75934W        W40919  24.997  32.949   1.078
75935W        W40920  23.622  17.138  12.465
75936W        W40921  16.795  13.840   0.639
75937W        W40922  33.787  31.545   2.053
75938W        W40923  20.644  16.716  11.369
75939W        W40924   4.973   5.745   0.866
75940W        W40925  10.527  22.454  10.265
75941W        W40926   7.865  38.295   1.280
75942W        W40927  43.198  22.562  14.561
75943W        W40928  21.521   4.519  10.798
75944W        W40929  38.737  16.541   3.238
75945W        W40930  23.721   4.217  14.133
75946W        W40931  12.733  21.733  11.528
75947W        W40932   2.665  34.988  10.757
75948W        W40933   5.816  13.323   2.735
75949W        W40934  24.466  43.674   3.323
75950W        W40935   4.059  24.511   2.487
75951W        W40936   7.254  29.462   2.596
75952W        W40937  36.760   2.931   3.415
75953W        W40938  35.623  11.044   3.627
75954W        W40939  18.080   3.047  12.051
75955W        W40940   5.489  13.590  13.030
75956W        W40941  13.830  31.877   2.907
75957W        W40942   6.784   0.051   2.516
75958W        W40943  42.926  31.188  12.559
75959W        W40944   1.243  16.203   1.944
75960W        W40945   9.081  17.241   1.405
75961W        W40946  27.119  13.382  13.450
75962W        W40947  39.294  34.422  14.522
75963W        W40948   2.451   2.311  10.770
75964W        W40949  35.424   4.148  11.781
75965W        W40950  37.512  42.014   4.541
75966W        W40951  32.478  39.727  14.907
75967W        W40952  26.780   4.461   3.248
75968W        W40953  10.209  36.625   2.525
75969W        W40954  38.501  32.559  14.442
75970W        W40955  29.528  15.612  12.989
75971W        W40956  13.298  35.643   1.331
75972W        W40957   5.099  42.366   2.517
75973W        W40958  28.272   2.919   2.002
75974W        W40959   0.372  17.880  10.703
75975W        W40960  12.199  25.233  14.235
75976W        W40961  12.254  44.434  11.562
75977W        W40962   3.895  29.584  10.468
75978W        W40963  40.867  19.017  11.419
75979W        W40964  31.291   3.393  10.685
75980W        W40965  18.818   1.774  13.839
75981W        W40966   4.766  36.470   0.858
75982W        W40967  12.112  25.093  12.799
75983W        W40968  36.469   0.584  10.945
75984W        W40969  25.679  38.070   3.933
75985W        W40970  40.982   0.219   4.495
75986W        W40971  20.711  17.024  11.765
75987W        W40972  13.208  38.320   4.014
75988W        W40973  44.905  18.340   2.575
75989W        W40974  43.566   4.808   0.964
75990W        W40975  29.462   3.257  12.858
75991W        W40976   9.857   0.400  10.680
75992W        W40977  23.621  34.379   2.708
75993W        W40978  12.382  31.416   1.334
75994W        W40979   1.027  11.792   2.815
75995W        W40980  13.342   4.260   4.313
75996W        W40981  14.333  40.874  12.490
75997W        W40982  39.094   7.873   4.624
75998W        W40983  42.582  25.140  12.969
75999W        W40984  11.360   3.284   4.211
76000W        W40985  36.434  14.747   4.607
76001W        W40986  37.119  44.021  13.086
76002W        W40987   3.838  24.974  12.630
76003W        W40988  35.817   4.843   0.814
76004W        W40989  25.914  27.523  11.345
76005W        W40990   5.289   5.566   3.437
76006W        W40991  29.296  39.523  12.382
76007W        W40992  18.618  23.190  14.230
76008W        W40993  28.614  11.059   2.639
76009W        W40994  27.222  11.632   3.088
76010W        W40995   0.202   1.465  14.863
76011W        W40996  26.521  13.601   3.231
76012W        W40997  37.983  43.026   1.865
76013W        W40998  43.094  39.014   0.872
76014W        W40999  31.990   1.857   4.595
76015W        W41000   7.712  17.222   3.294
76016W        W41001  39.229  20.668  11.365
76017W        W41002  17.919  38.262   2.816
76018W        W41003  39.694   4.812  11.937
76019W        W41004  11.888  39.677   4.157
76020W        W41005  36.611  41.015  13.879
76021W        W41006   8.520   0.514   4.754
76022W        W41007   8.238  26.608  10.852
76023W        W41008  36.997   3.144   2.420
76024W        W41009  25.767  44.106   5.148
76025W        W41010   6.115  26.506  12.174
76026W        W41011  19.198  26.212   2.543
76027W        W41012  30.695  13.691   2.288
76028W        W41013   6.488   3.605  11.221
76029W        W41014  23.631  12.689  12.365
76030W        W41015  28.818  36.909   2.266
76031W        W41016   9.205  39.479  11.713
76032W        W41017   3.468   7.261  11.760
76033W        W41018  25.404  28.902   5.440
76034W        W41019  41.377   9.595  14.807
76035W        W41020  14.399  44.889  11.684
76036W        W41021  40.030  30.476  13.046
76037W        W41022  10.136  13.583  13.843
76038W        W41023  37.054   5.409  12.366
76039W        W41024  40.565   8.973  12.444
76040W        W41025   4.896  13.307  13.416
76041W        W41026  22.665  25.249  11.538
76042W        W41027  36.105   2.627  11.213
76043W        W41028  26.223   6.953  12.382
76044W        W41029  26.404  30.672   0.923
76045W        W41030   3.716  26.631   2.797
76046W        W41031   6.815  12.403   3.216
76047W        W41032   5.948  40.436   0.361
76048W        W41033   2.033   0.900   3.644
76049W        W41034   3.328  18.517   1.344
76050W        W41035  12.151  23.961   1.032
76051W        W41036  17.998  42.055  10.773
76052W        W41037  40.571   8.316   1.767
76053W        W41038  37.865  19.271   4.087
76054W        W41039  42.992  14.669   1.118
76055W        W41040  20.768  16.275   0.576
76056W        W41041   5.031  23.912  10.457
76057W        W41042  36.280  27.163  14.076
76058W        W41043  12.007   4.802  14.066
76059W        W41044   8.171  40.968   4.619
76060W        W41045  39.389  31.625   0.290
76061W        W41046   0.518  33.068   3.808
76062W        W41047  26.417  11.285  11.107
76063W        W41048  32.537  43.449  11.458
76064W        W41049  32.650  30.151  14.251
76065W        W41050  41.418  18.223   3.346
76066W        W41051  31.386  27.955   0.259
76067W        W41052  29.699  39.805  13.940
76068W        W41053   9.688   6.239  12.566
76069W        W41054   2.812   4.541  12.802
76070W        W41055  30.975  23.112  14.845
76071W        W41056  28.950   9.653  11.930
76072W        W41057  16.083  35.474  12.134
76073W        W41058  14.076   3.921  14.425
76074W        W41059   7.242  10.265  13.439
76075W        W41060  35.511  36.956  13.554
76076W        W41061  33.879  19.246  14.416
76077W        W41062  11.631  12.574   0.009
76078W        W41063  20.194  16.725   4.890
76079W        W41064  32.989  13.615   2.198
76080W        W41065  17.756   2.162  13.447
76081W        W41066  35.077   5.133   3.743
76082W        W41067   6.606   1.533   1.329
76083W        W41068  36.329  19.948   4.678
76084W        W41069  32.045   4.956   0.881
76085W        W41070   1.364   6.739   1.640
76086W        W41071  43.944  25.030   4.859
76087W        W41072   1.070  30.684  10.923
76088W        W41073  25.507  14.904  11.648
76089W        W41074  43.474  43.250   3.177
76090W        W41075  37.924  15.940  11.630
76091W        W41076   4.090  23.182   0.046
76092W        W41077  38.049   6.304   3.440
76093W        W41078   2.408  31.522  13.823
76094W        W41079  33.383  36.157   1.913
76095W        W41080  44.713   3.939   4.163
76096W        W41081   7.068   6.713  12.235
76097W        W41082   2.892  14.185   2.821
76098W        W41083  28.483  31.769  12.858
76099W        W41084   9.752  18.814  11.665
76100W        W41085  24.914  24.157  11.248
76101W        W41086  10.809  29.399   3.697
76102W        W41087  32.151  42.854  10.243
76103W        W41088  40.038  15.342   2.303
76104W        W41089  12.244  25.371  12.330
76105W        W41090  18.023   6.965   3.273
76106W        W41091  36.416  22.164   4.130
76107W        W41092  43.955   3.132   2.685
76108W        W41093  15.352   3.852   4.617
76109W        W41094  42.038  26.929  11.805
76110W        W41095  39.940  11.726   4.272
76111W        W41096  12.498  18.820   0.917
76112W        W41097  37.411  22.018   0.931
76113W        W41098  33.400  21.691  10.194
76114W        W41099  43.948  30.531   0.804
76115W        W41100  12.301  41.597   2.702
76116W        W41101  44.429  36.936   3.223
76117W        W41102  33.674  41.550   4.122
76118W        W41103  34.986  35.455   2.453
76119W        W41104   1.872  44.435   0.721
76120W        W41105  12.265   5.075  14.459
76121W        W41106   2.226  42.905  13.900
76122W        W41107  32.066  38.343  11.664
76123W        W41108   9.395  33.862  11.415
76124W        W41109   1.363  33.943   0.009
76125W        W41110  35.428  32.605  14.345
76126W        W41111  25.949  10.665  11.548
76127W        W41112  43.462  15.045   3.354
76128W        W41113  34.527   7.731  12.806
76129W        W41114  37.999  29.241   1.853
76130W        W41115   4.300   9.457  14.396
76131W        W41116  34.132   3.313  12.633
76132W        W41117  28.622  24.933   3.210
76133W        W41118  14.613  21.583  12.957
76134W        W41119  44.510  40.380  12.074
76135W        W41120  23.016  42.494  12.889
76136W        W41121  14.085  12.407   3.975
76137W        W41122  23.552   4.785  10.083
76138W        W41123  25.710  21.745  11.162
76139W        W41124  23.318  26.768   1.858
76140W        W41125  26.125  39.632   4.086
76141W        W41126   8.441   9.081   2.879
76142W        W41127   2.795  43.316   0.744
76143W        W41128   2.539  31.636   1.266
76144W        W41129  37.138  27.219   2.792
76145W        W41130  36.412  31.842  14.869
76146W        W41131  14.630  29.178   2.228
76147W        W41132  23.146  18.545  12.979
76148W        W41133   6.423  28.193   5.117
76149W        W41134  20.609  32.986   2.920
76150W        W41135  29.715  22.718   0.745
76151W        W41136  40.857  19.589  14.695
76152W        W41137  36.829  22.240  14.680
76153W        W41138  27.969  44.866   3.689
76154W        W41139  15.360  25.632   9.809
76155W        W41140  40.476   6.733   4.904
76156W        W41141  41.529  35.333  12.579
76157W        W41142  25.229  31.170   2.202
76158W        W41143  41.295  23.251   4.168
76159W        W41144  32.500   8.544   1.741
76160W        W41145  11.558  26.955  12.094
76161W        W41146  26.155  14.279  13.029
76162W        W41147  19.275  23.336   1.839
76163W        W41148  35.633  14.810   3.495
76164W        W41149  25.522  34.633  13.972
76165W        W41150  13.699  34.602   3.192
76166W        W41151   6.936  32.630  13.021
76167W        W41152  42.383  14.837   0.392
76168W        W41153  40.931  19.003  13.496
76169W        W41154  43.525  11.688   4.092
76170W        W41155   0.268   8.153   2.311
76171W        W41156  17.238   0.867  10.552
76172W        W41157  20.161  40.549   3.113
76173W        W41158  38.081  25.118  12.132
76174W        W41159  36.831  19.537  14.326
76175W        W41160  44.297  14.784   3.665
76176W        W41161  43.525  15.117   2.223
76177W        W41162   0.026  24.945   2.324
76178W        W41163  19.717  15.084   2.241
76179W        W41164  14.900  36.664   3.187
76180W        W41165  40.494  33.507   3.237
76181W        W41166  40.113   7.256  14.130
76182W        W41167  30.890   0.320   0.072
76183W        W41168  29.033  33.135  14.324
76184W        W41169  41.983   5.720  14.415
76185W        W41170  35.117  16.891  12.856
76186W        W41171  32.114  43.278   4.569
76187W        W41172  25.727  32.952   0.876
76188W        W41173   1.601  14.453   1.290
76189W        W41174   0.312  36.972  13.892
76190W        W41175  22.083  43.267   1.415
76191W        W41176  34.266  33.924   4.391
76192W        W41177  22.947  24.201  12.035
76193W        W41178  42.380  16.075  10.649
76194W        W41179  41.558  18.759   4.606
76195W        W41180  36.744  15.473   2.827
76196W        W41181  22.622  34.028   3.338
76197W        W41182   4.700   5.267   2.763
76198W        W41183   1.338  40.762  11.296
76199W        W41184  11.615   6.436  14.007
76200W        W41185  38.500   6.318   1.037
76201W        W41186  13.685  38.871  11.119
76202W        W41187  14.185  35.431   1.829
76203W        W41188  13.593  43.459  12.114
76204W        W41189   1.548  28.473  11.611
76205W        W41190  11.280  14.087  11.639
76206W        W41191  17.197  12.123  10.716
76207W        W41192  38.117  40.931  11.865
76208W        W41193  29.951  13.574  11.046
76209W        W41194   6.190   9.260  10.746
76210W        W41195  28.146  41.961  12.855
76211W        W41196   4.251  21.324  12.940
76212W        W41197  40.232  44.405  10.614
76213W        W41198  22.113   7.674   0.782
76214W        W41199  12.539   2.026  11.127
76215W        W41200  25.636  37.548   2.172
76216W        W41201  44.252  16.358  14.019
76217W        W41202  21.716  27.359  12.887
76218W        W41203  21.951   2.737   0.828
76219W        W41204  33.878  14.029   4.656
76220W        W41205  23.077  37.888   2.721
76221W        W41206  36.430  23.946  14.752
76222W        W41207  14.202  18.928  14.084
76223W        W41208   7.553   6.692  11.308
76224W        W41209  20.695  38.616   2.653
76225W        W41210  27.577  33.077   1.015
76226W        W41211  12.656   1.543  14.411
76227W        W41212  16.465  19.704   4.132
76228W        W41213  11.765  36.660  13.030
76229W        W41214  17.299  34.522   3.244
76230W        W41215   1.794  14.286   3.902
76231W        W41216  12.786   6.578   1.639
76232W        W41217  29.855  35.568  11.084
76233W        W41218  29.102   6.416   0.612
76234W        W41219  35.075   6.108   1.712
76235W        W41220  21.286  43.876   2.820
76236W        W41221  13.798  34.107   3.341
76237W        W41222  24.007  21.345   2.472
76238W        W41223  42.559  26.248  11.957
76239W        W41224  36.985  17.285   3.760
76240W        W41225  18.991  30.045   0.898
76241W        W41226  20.095   6.891  14.807
76242W        W41227  31.079  39.807   2.843
76243W        W41228  33.316  37.104   1.957
76244W        W41229  38.259  25.288  11.145
76245W        W41230  44.502  24.019   0.162
76246W        W41231  34.144  21.503  11.106
76247W        W41232  20.933   4.432  14.509
76248W        W41233  23.935  19.216  12.940
76249W        W41234   0.725  36.947  10.312
76250W        W41235  22.559   9.243   4.811
76251W        W41236   3.011  26.651  14.555
76252W        W41237  33.444  22.947  14.077
76253W        W41238  43.421  43.822   1.352
76254W        W41239   9.020  39.343  14.459
76255W        W41240  43.419  44.050   0.907
76256W        W41241  30.239  36.470  11.231
76257W        W41242  13.053  43.318   0.860
76258W        W41243  38.487   4.733   3.687
76259W        W41244  30.564  13.636   0.975
76260W        W41245   9.832   9.128  14.404
76261W        W41246   4.223  11.592   2.476
76262W        W41247  15.727   7.832   1.983
76263W        W41248  27.679   9.050   9.993
76264W        W41249  13.413  36.330   2.729
76265W        W41250  31.616  13.606   4.401
76266W        W41251  15.931   6.924   4.478
76267W        W41252  22.645  36.138   4.958
76268W        W41253  40.725   3.412   0.364
76269W        W41254  13.835  31.060  11.204
76270W        W41255  30.962  35.789  11.184
76271W        W41256   0.263  24.607   1.703
76272W        W41257  36.551  21.724   1.387
76273W        W41258  26.102  27.026  11.578
76274W        W41259  24.459  32.217  10.766
76275W        W41260  27.519  19.502   3.790
76276W        W41261  21.260   6.888   0.920
76277W        W41262  22.113  33.438   0.889
76278W        W41263  17.681  11.318  12.379
76279W        W41264  13.202  41.923   2.270
76280W        W41265  35.637  18.553   1.848
76281W        W41266   3.257  37.578  12.596
76282W        W41267  13.501   6.211  12.388
76283W        W41268  18.611   8.274  13.335
76284W        W41269  20.555  13.360  10.679
76285W        W41270  17.645  39.785  12.521
76286W        W41271  17.160  16.251   2.085
76287W        W41272   5.634  18.206  14.779
76288W        W41273  12.209  13.164  13.816
76289W        W41274  35.615  38.123   4.168
76290W        W41275  32.224  23.725   0.350
76291W        W41276  38.824  15.178  11.506
76292W        W41277  27.721  26.613  11.598
76293W        W41278  33.510  31.529  11.720
76294W        W41279  24.199  39.775   1.419
76295W        W41280   5.883   1.916   4.394
76296W        W41281  20.207  29.210   2.019
76297W        W41282  11.634  38.640  13.486
76298W        W41283  12.806  39.271   4.757
76299W        W41284  26.731  23.981  12.995
76300W        W41285  11.372   9.636  12.535
76301W        W41286  30.015  44.567   1.258
76302W        W41287  40.947  25.570  13.979
76303W        W41288  17.153  43.688   3.655
76304W        W41289  34.862   9.254   1.677
76305W        W41290   0.527  43.769   4.394
76306W        W41291  44.582  34.063   1.970
76307W        W41292  41.558  20.067  14.988
76308W        W41293  22.038  24.496  13.119
76309W        W41294  31.007  39.042   0.705
76310W        W41295  26.016  22.675   1.430
76311W        W41296  21.414   3.418   1.952
76312W        W41297   4.278  30.959  14.985
76313W        W41298  33.349  18.672  11.573
76314W        W41299  27.991  43.066   1.188
76315W        W41300  17.987  35.891   2.168
76316W        W41301  17.185   8.473   2.335
76317W        W41302  27.499  35.183   3.061
76318W        W41303   5.320  36.922   2.672
76319W        W41304  39.007  22.235  13.482
76320W        W41305  22.183   1.351  11.660
76321W        W41306  41.436  37.961  14.455
76322W        W41307  31.529  25.559   0.346
76323W        W41308   1.253   3.144  13.866
76324W        W41309  35.407  17.278   0.720
76325W        W41310  37.305   4.079   4.240
76326W        W41311   6.302   7.912  14.258
76327W        W41312   6.211  19.158  12.206
76328W        W41313  36.559  19.917   1.716
76329W        W41314  13.648  35.228   1.242
76330W        W41315  27.324  10.174  10.667
76331W        W41316  14.247  11.884   0.758
76332W        W41317   3.460  33.729  12.849
76333W        W41318  13.655   1.252   3.187
76334W        W41319  14.201   1.286   2.128
76335W        W41320  38.388   1.342  11.450
76336W        W41321  22.632   9.988  13.873
76337W        W41322  12.825   7.970  14.536
76338W        W41323  14.138  27.785  13.785
76339W        W41324   5.917  24.457  10.734
76340W        W41325  36.917   0.698  11.482
76341W        W41326  34.979  34.829   2.227
76342W        W41327  37.755   9.856   5.514
76343W        W41328  24.293  42.571   0.365
76344W        W41329  14.696  20.547  14.488
76345W        W41330  42.133  34.323   3.971
76346W        W41331   8.714  17.078   0.341
76347W        W41332  38.415   9.371   4.246
76348W        W41333  44.529  18.443  11.584
76349W        W41334   0.703  33.386   1.966
76350W        W41335   9.662  13.542   2.286
76351W        W41336   8.198  43.806  13.863
76352W        W41337  38.337  11.712   1.698
76353W        W41338  43.554   2.721  13.520
76354W        W41339   4.441  19.122   2.795
76355W        W41340  30.657   1.924   3.827
76356W        W41341   0.180  29.861   1.135
76357W        W41342  32.154   5.271  12.915
76358W        W41343  41.752  29.602   1.824
76359W        W41344  25.057  12.744   4.976
76360W        W41345  15.148   4.769   1.033
76361W        W41346  39.464   8.033  10.684
76362W        W41347  19.406  28.548  11.083
76363W        W41348  38.509  10.230  10.709
76364W        W41349  12.892  42.876   4.314
76365W        W41350  10.384  40.886  11.141
76366W        W41351  23.502   7.294  10.759
76367W        W41352  39.292  23.660  12.930
76368W        W41353  36.843  19.685  11.375
76369W        W41354  41.540   1.259  13.483
76370W        W41355  18.788  23.250  11.388
76371W        W41356  11.089  19.203  11.553
76372W        W41357  35.563   1.935   1.826
76373W        W41358  27.953  22.437  13.605
76374W        W41359  37.480  37.980  10.812
76375W        W41360  22.029  34.461  12.418
76376W        W41361  32.614  40.478   1.018
76377W        W41362  10.844  17.248  12.074
76378W        W41363  28.910  30.095   2.247
76379W        W41364   1.023   3.282  10.264
76380W        W41365  23.787  18.345   0.825
76381W        W41366  28.588  33.978  10.813
76382W        W41367  25.221  28.074   4.711
76383W        W41368   7.783   2.449   0.719
76384W        W41369  37.645   5.236  10.684
76385W        W41370  27.225   4.675   0.453
76386W        W41371  15.391  24.459   2.753
76387W        W41372   7.724  19.520  11.218
76388W        W41373   7.730  12.336   2.405
76389W        W41374  34.187  15.737  10.927
76390W        W41375   7.678   7.265   1.018
76391W        W41376  29.354  26.064   2.004
76392W        W41377  16.571  15.736  12.969
76393W        W41378  38.653  31.690   1.865
76394W        W41379  13.242   0.848   4.623
76395W        W41380  44.114  27.561  10.906
76396W        W41381  10.681   8.433   0.604
76397W        W41382  34.946  29.150  10.041
76398W        W41383  32.613  25.583   1.227
76399W        W41384   8.705  17.188  12.387
76400W        W41385  15.713   1.534  14.355
76401W        W41386  20.591  34.313   1.000
76402W        W41387  39.971  27.593  13.297
76403W        W41388  19.560  39.115  10.722
76404W        W41389  38.421  33.068  13.566
76405W        W41390  14.018   6.924   2.359
76406W        W41391  31.990  17.664  12.045
76407W        W41392   9.537  28.638   3.688
76408W        W41393   3.335  10.921   0.336
76409W        W41394  40.380  37.068  13.022
76410W        W41395  22.271  17.721   2.212
76411W        W41396  39.912  21.275   1.463
76412W        W41397  44.327  14.879   0.933
76413W        W41398   8.529   6.832   3.540
76414W        W41399  34.675  44.937  14.269
76415W        W41400  13.211  39.689  13.574
76416W        W41401  37.969   2.505  12.679
76417W        W41402   9.211  38.080   2.447
76418W        W41403   7.138   0.681   3.749
76419W        W41404  40.029  36.443  11.809
76420W        W41405  20.676  32.593  14.440
76421W        W41406  30.113  21.202  12.168
76422W        W41407   0.934   5.732  13.393
76423W        W41408  17.154  16.540  14.012
76424W        W41409  30.036  28.389  12.941
76425W        W41410   4.102  28.052  11.154
76426W        W41411  31.368  22.708   2.659
76427W        W41412  36.101   3.032   0.761
76428W        W41413   7.876  20.108  14.854
76429W        W41414  39.336   7.646   4.225
76430W        W41415   8.801   2.955   0.306
76431W        W41416  38.036  22.492  14.307
76432W        W41417   9.469  32.184  12.935
76433W        W41418  44.626  20.734   4.257
76434W        W41419  43.448  34.344  11.177
76435W        W41420  40.330  25.779   2.539
76436W        W41421  21.583  25.956   4.558
76437W        W41422  30.394  27.154   2.814
76438W        W41423  25.631  35.308   0.290
76439W        W41424   9.085   9.152  14.061
76440W        W41425  13.788  27.041  10.855
76441W        W41426  12.771  23.246  11.872
76442W        W41427  20.995  14.143   0.294
76443W        W41428  43.976  28.576  10.095
76444W        W41429   7.269  18.039   0.859
76445W        W41430  29.133  25.733   0.337
76446W        W41431  40.315  28.750   2.405
76447W        W41432  20.985  17.238   2.223
76448W        W41433   0.924  24.989  10.368
76449W        W41434  36.845  38.930  11.920
76450W        W41435  33.214   5.171   2.114
76451W        W41436  42.498   0.548  10.819
76452W        W41437   9.817  36.516  10.583
76453W        W41438   6.756   8.320  12.526
76454W        W41439  22.723  43.842  10.705
76455W        W41440  44.258  43.513   0.715
76456W        W41441   5.914  19.768   0.909
76457W        W41442  23.019  40.468   3.878
76458W        W41443  39.860  29.224  13.651
76459W        W41444  43.553  26.197  10.994
76460W        W41445  36.968  26.994  12.273
76461W        W41446  33.678  40.755   3.616
76462W        W41447  28.151  42.509  13.572
76463W        W41448  27.805  21.576  13.832
76464W        W41449   5.047  18.898  11.997
76465W        W41450   2.705   8.000   4.774
76466W        W41451  29.786  24.069   0.933
76467W        W41452   6.707   0.282   3.797
76468W        W41453  11.601   3.200   3.768
76469W        W41454  42.106  28.999  14.506
76470W        W41455  21.712   0.256  12.089
76471W        W41456   3.938  29.105   2.540
76472W        W41457  32.824  33.575   2.419
76473W        W41458  10.975  10.346   2.446
76474W        W41459  39.204  30.504   0.689
76475W        W41460  17.691  37.634   0.706
76476W        W41461   7.213  17.534  10.552
76477W        W41462  10.415  40.939  12.484
76478W        W41463  37.663  41.368   4.109
76479W        W41464   6.171  26.955  14.827
76480W        W41465  19.891   0.384  11.879
76481W        W41466  28.265  43.334   1.960
76482W        W41467   3.587  22.014   2.261
76483W        W41468  19.620  22.104   3.614
76484W        W41469  12.655  29.500  11.701
76485W        W41470  20.443   3.704   3.371
76486W        W41471   4.223  34.595  14.945
76487W        W41472   5.199  18.860   0.024
76488W        W41473   9.222  33.143   2.346
76489W        W41474  39.517  25.893   3.289
76490W        W41475  30.685  26.956  13.172
76491W        W41476  37.401  31.865   0.946
76492W        W41477  32.620  24.699   3.525
76493W        W41478   0.786  17.645   0.750
76494W        W41479  43.811  27.312   4.352
76495W        W41480  19.118  21.277  11.155
76496W        W41481  24.613  16.377  10.539
76497W        W41482   8.619  18.285  12.169
76498W        W41483  32.163  22.533   2.288
76499W        W41484  31.476  34.342   4.373
76500W        W41485  35.928  30.540   1.716
76501W        W41486  26.389  43.236   3.145
76502W        W41487  17.440   1.010  13.872
76503W        W41488  33.188  37.872  12.931
76504W        W41489   5.026  38.074   4.221
76505W        W41490  31.033  34.599   1.123
76506W        W41491  38.362  34.071   4.043
76507W        W41492  32.139  27.677  11.031
76508W        W41493   9.309  37.851   2.893
76509W        W41494   2.446  37.481   0.632
76510W        W41495  38.293   7.271  13.387
76511W        W41496  38.866  32.450  10.087
76512W        W41497  17.634  34.525   4.539
76513W        W41498  36.555  20.229  13.373
76514W        W41499  12.096  11.823  12.561
76515W        W41500   2.087   7.812  14.838
76516W        W41501  32.457  31.935   3.323
76517W        W41502  29.514  18.212   0.191
76518W        W41503  15.681   8.722   3.931
76519W        W41504  34.049   5.561   3.337
76520W        W41505  29.445  12.155  11.603
76521W        W41506  23.106  32.134  12.181
76522W        W41507  31.586  30.173  12.546
76523W        W41508  20.050   3.660   3.750
76524W        W41509  36.500  23.615   3.567
76525W        W41510  41.221   0.705   3.137
76526W        W41511  36.241  21.909   4.543
76527W        W41512  43.510   3.969  13.793
76528W        W41513  42.606  33.698   3.642
76529W        W41514  15.811   7.873  14.436
76530W        W41515  33.675  22.604   0.317
76531W        W41516  39.860  25.518  12.063
76532W        W41517  14.422  10.785  13.519
76533W        W41518  13.715  36.099   2.306
76534W        W41519  33.408  34.567  13.956
76535W        W41520   1.468   7.388   3.450
76536W        W41521  29.881  34.744   4.372
76537W        W41522  23.998   4.518   0.002
76538W        W41523  23.011  23.119  11.642
76539W        W41524  13.269  14.615   0.793
76540W        W41525  37.021  34.468   4.529
76541W        W41526  29.204  38.824   1.217
76542W        W41527  24.036  33.894  11.321
76543W        W41528  27.767   2.496   1.314
76544W        W41529  19.192  17.175  14.861
76545W        W41530  44.025  42.364  14.083
76546W        W41531  29.653  41.087  12.470
76547W        W41532   8.512  23.583  11.240
76548W        W41533  44.512  30.934  10.686
76549W        W41534  22.316  34.056  13.275
76550W        W41535   6.493  35.299   2.706
76551W        W41536   9.432  17.203  10.711
76552W        W41537  36.788  15.614  12.980
76553W        W41538  13.725  43.398  13.074
76554W        W41539  40.916   0.982   3.845
76555W        W41540  11.225  43.287   1.403
76556W        W41541  28.258  39.506   2.057
76557W        W41542  10.799   5.374   0.427
76558W        W41543  22.592  17.744   4.531
76559W        W41544  23.377   7.871  11.121
76560W        W41545  28.470  22.820   1.169
76561W        W41546  38.917  34.448   2.893
76562W        W41547  41.933   8.861  12.223
76563W        W41548  16.947  23.493   1.753
76564W        W41549  39.932   1.962   2.835
76565W        W41550  23.237  44.209  12.481
76566W        W41551  10.122  30.936   0.437
76567W        W41552   0.501  38.850   4.155
76568W        W41553  16.406  34.596  13.400
76569W        W41554  17.100   4.221  11.019
76570W        W41555  24.301   6.250   3.649
76571W        W41556   3.707  35.247  13.279
76572W        W41557  35.579  12.798  14.986
76573W        W41558  35.886  44.334   2.322
76574W        W41559  23.339  32.583  10.518
76575W        W41560   6.496  34.317   3.788
76576W        W41561  34.496  41.169  13.337
76577W        W41562  41.735  40.256  14.721
76578W        W41563  39.451  41.065   1.519
76579W        W41564  36.209   2.194   2.918
76580W        W41565  24.200   1.316  14.228
76581W        W41566   0.548  33.653   3.301
76582W        W41567  17.161   8.495  10.323
76583W        W41568  23.471  42.794  11.073
76584W        W41569  36.846  37.030  14.106
76585W        W41570   5.075  39.791   3.735
76586W        W41571  24.056  36.884  11.699
76587W        W41572  43.007  40.243  11.831
76588W        W41573  43.392  15.357  11.166
76589W        W41574   5.869  17.045  13.019
76590W        W41575  17.685  18.227  12.275
76591W        W41576  26.219  38.908  11.957
76592W        W41577  27.162  16.348   3.901
76593W        W41578  15.847   5.864   1.391
76594W        W41579  13.789  10.377  14.965
76595W        W41580  36.417   1.450   1.874
76596W        W41581  36.304  39.623  11.991
76597W        W41582   8.834   0.212   1.355
76598W        W41583   2.301  16.942  14.422
76599W        W41584  32.836  21.540  10.527
76600W        W41585  32.382   0.664   2.296
76601W        W41586  32.746  41.870  14.316
76602W        W41587   9.801  20.436   4.257
76603W        W41588  36.319  39.337  12.443
76604W        W41589   1.694  35.133   2.562
76605W        W41590  18.669   5.962  13.848
76606W        W41591  17.319   7.285  12.552
76607W        W41592  20.292  39.861   4.879
76608W        W41593   1.619  27.864   2.370
76609W        W41594   7.935  44.691   4.352
76610W        W41595  11.143  43.321  12.995
76611W        W41596  26.589  15.605   1.935
76612W        W41597  37.599  38.444  14.511
76613W        W41598  11.400  17.313  12.853
76614W        W41599  13.273  29.630  13.482
76615W        W41600  29.747  16.540  10.894
76616W        W41601  40.548   6.254  13.329
76617W        W41602  34.620   5.450   4.608
76618W        W41603  13.606  30.626   4.575
76619W        W41604  42.526  36.508  12.882
76620W        W41605  44.803  27.257   4.669
76621W        W41606   7.719  27.451  13.879
76622W        W41607  35.818   7.362  12.458
76623W        W41608  17.277  10.320   2.282
76624W        W41609  12.964  27.103  11.172
76625W        W41610  22.774  30.091  14.784
76626W        W41611   3.702  30.989  11.975
76627W        W41612  43.506   6.195  11.531
76628W        W41613   5.920  18.978   4.465
76629W        W41614  16.218  37.435  14.309
76630W        W41615  21.871  44.342   4.450
76631W        W41616  14.273  23.497  14.511
76632W        W41617   9.377  43.038   3.728
76633W        W41618  10.081   0.068   3.836
76634W        W41619  27.267   8.225  10.678
76635W        W41620  41.071  16.246   2.716
76636W        W41621  36.012  27.544   2.233
76637W        W41622   2.214  18.537  14.839
76638W        W41623  40.325   3.171  13.378
76639W        W41624  29.358  41.352  12.943
76640W        W41625  39.942  18.591  11.488
76641W        W41626  36.957  36.622  12.875
76642W        W41627  33.031  37.626  14.543
76643W        W41628  43.012  44.216   4.010
76644W        W41629   5.633  33.287  12.934
76645W        W41630   9.334   5.814  13.887
76646W        W41631  20.706  30.002   4.398
76647W        W41632  10.667  38.255   0.852
76648W        W41633  42.806  13.067   1.795
76649W        W41634  16.223  17.072   2.357
76650W        W41635  44.235   1.343  14.777
76651W        W41636  36.240   8.662  13.906
76652W        W41637  37.738  27.408  13.397
76653W        W41638   9.225   4.873  14.220
76654W        W41639  10.477   1.719   0.882
76655W        W41640   6.360  41.418   1.584
76656W        W41641  43.017  29.441  11.985
76657W        W41642   6.424  30.615   1.379
76658W        W41643  44.360  12.157   1.846
76659W        W41644  13.233  38.543   2.183
76660W        W41645  11.177  29.049  14.638
76661W        W41646   0.202  13.166   2.415
76662W        W41647  22.740  42.939  12.845
76663W        W41648  35.922  21.201  10.722
76664W        W41649   5.283  26.776   0.824
76665W        W41650  35.448  13.768   1.403
76666W        W41651   2.430  28.842   3.012
76667W        W41652   4.429  18.420  14.428
76668W        W41653   7.744  20.664   0.382
76669W        W41654  44.941  42.988  11.970
76670W        W41655  23.722   9.656   0.755
76671W        W41656  15.708  19.031   1.729
76672W        W41657  34.274  17.404  13.152
76673W        W41658   0.851  14.004  10.217
76674W        W41659  37.438   5.794   1.378
76675W        W41660  16.251  23.726   0.029
76676W        W41661   3.483  16.688   1.610
76677W        W41662  20.180  29.536   3.889
76678W        W41663  17.749  19.693  14.185
76679W        W41664  28.641  24.622   2.763
76680W        W41665  16.950  13.348   2.269
76681W        W41666  36.491  40.125  11.924
76682W        W41667   5.567  27.530  12.393
76683W        W41668  29.132  10.548   3.322
76684W        W41669   4.562   5.654   3.151
76685W        W41670  25.050   4.207  11.246
76686W        W41671  29.936  44.859   1.688
76687W        W41672  40.563  42.857  10.631
76688W        W41673   8.623   1.262   1.689
76689W        W41674  26.671  39.308   3.173
76690W        W41675  29.556  17.949   4.131
76691W        W41676  25.505  31.398   2.609
76692W        W41677   2.715  20.192   1.237
76693W        W41678   4.306   7.092  13.480
76694W        W41679  37.120  14.648  14.485
76695W        W41680  10.842  38.056  12.427
76696W        W41681   5.751  32.114   4.776
76697W        W41682  11.222  22.963  14.327
76698W        W41683  18.709  39.436   4.709
76699W        W41684  16.626  20.537   2.074
76700W        W41685  34.450  28.582  12.453
76701W        W41686  23.475  26.603   0.791
76702W        W41687  28.136   6.252   3.335
76703W        W41688  40.810  38.958   1.866
76704W        W41689  35.096  34.651   1.385
76705W        W41690  13.146  28.647  14.786
76706W        W41691  30.572  40.267  11.868
76707W        W41692  19.566  10.196   1.146
76708W        W41693  16.640  16.064  10.739
76709W        W41694  34.933  37.561  12.449
76710W        W41695  21.537  28.615  13.876
76711W        W41696  41.051  37.584   4.019
76712W        W41697  15.744  12.682  11.605
76713W        W41698   7.672   9.711   2.260
76714W        W41699   1.488  35.435  12.355
76715W        W41700  37.603  27.240   5.256
76716W        W41701  37.917  39.538   1.964
76717W        W41702  30.186  19.152   3.594
76718W        W41703  33.997  38.559   4.089
76719W        W41704  43.382  42.202   0.954
76720W        W41705  40.057  33.401   1.677
76721W        W41706  39.820  37.997   1.427
76722W        W41707  13.092  11.829  13.426
76723W        W41708  39.911  44.610  13.564
76724W        W41709  16.735  35.986   4.336
76725W        W41710   8.880  42.175  12.085
76726W        W41711  16.179  18.331  11.575
76727W        W41712  28.105  29.524  13.831
76728W        W41713  15.866  10.289  12.058
76729W        W41714   5.691  20.179  11.567
76730W        W41715  27.152   5.086   0.135
76731W        W41716  10.641  42.820   0.920
76732W        W41717   6.323  26.275  11.306
76733W        W41718   9.068  24.462   0.062
76734W        W41719   0.706   1.743  13.064
76735W        W41720  41.708  20.817   3.830
76736W        W41721  35.069  15.691  12.584
76737W        W41722  12.351  39.661  14.489
76738W        W41723  37.060   0.199   0.875
76739W        W41724  41.208   8.871   3.650
76740W        W41725   6.107  40.284  11.983
76741W        W41726   6.280   6.919   2.720
76742W        W41727   5.167  28.575   2.150
76743W        W41728  27.998  39.913   1.523
76744W        W41729   5.723  15.230  10.718
76745W        W41730  12.265   1.222  14.412
76746W        W41731  15.655  18.053   3.357
76747W        W41732  33.611  12.403  11.942
76748W        W41733  10.671  14.255  12.660
76749W        W41734  17.174  23.771   3.114
76750W        W41735  13.755  28.407  10.554
76751W        W41736  12.575  30.387  13.488
76752W        W41737  32.025  34.367   9.800
76753W        W41738  19.575   5.862  13.988
76754W        W41739  42.396  20.703  11.165
76755W        W41740  35.676  17.757   0.793
76756W        W41741  43.104  22.145   1.726
76757W        W41742  19.540  18.069  12.444
76758W        W41743  40.082  32.173   0.992
76759W        W41744  40.160  34.902   3.006
76760W        W41745  25.637   9.579  14.899
76761W        W41746  18.730  30.547   1.816
76762W        W41747  39.332  27.165   1.398
76763W        W41748  17.202  15.054   2.038
76764W        W41749   3.057   4.019  12.092
76765W        W41750   9.674  16.343   0.957
76766W        W41751  16.131   0.479   3.737
76767W        W41752   6.937  14.865   1.258
76768W        W41753  27.554   0.246   5.271
76769W        W41754  27.462   3.177  13.813
76770W        W41755  17.563  35.450  12.215
76771W        W41756  31.238   8.757   1.306
76772W        W41757  26.648  37.141   1.745
76773W        W41758  32.383   8.066   1.477
76774W        W41759  12.635  29.387   1.755
76775W        W41760  39.026  23.392   3.651
76776W        W41761  16.604  33.397   3.540
76777W        W41762  17.438  10.430  12.332
76778W        W41763  43.964  26.631   5.526
76779W        W41764   0.783  36.106  13.760
76780W        W41765   9.219  27.140   1.501
76781W        W41766   4.902  39.177   3.095
76782W        W41767  22.073  43.903   1.719
76783W        W41768  39.907  12.658   3.176
76784W        W41769   1.497  11.951   0.009
76785W        W41770  33.063  12.321  14.506
76786W        W41771  34.195  38.056   1.252
76787W        W41772  20.131  26.080  13.852
76788W        W41773  22.594  30.718   1.241
76789W        W41774  39.824  33.377  11.107
76790W        W41775  29.093  32.898  11.966
76791W        W41776  29.783  30.374   3.753
76792W        W41777   0.743   2.289  12.493
76793W        W41778   7.611  25.361  12.208
76794W        W41779  13.108  34.407   1.408
76795W        W41780  32.362  31.391   0.799
76796W        W41781  27.871  21.614   3.274
76797W        W41782  12.078   3.276   2.611
76798W        W41783  21.512   9.802   1.307
76799W        W41784  35.766  11.496   3.444
76800W        W41785  26.945  42.312   0.270
76801W        W41786   8.453  26.166   3.701
76802W        W41787  18.093   7.315   4.469
76803W        W41788  33.354  21.621  11.528
76804W        W41789  41.792  42.294  12.587
76805W        W41790   2.261  10.170  14.811
76806W        W41791  44.922  28.880  11.555
76807W        W41792  10.088  29.146  10.315
76808W        W41793  33.121   1.264   3.777
76809W        W41794   5.790  36.853  11.015
76810W        W41795  22.519  32.482  10.951
76811W        W41796  26.765   8.194  10.857
76812W        W41797  41.993   3.376  13.879
76813W        W41798   1.839  36.414   4.559
76814W        W41799   2.850   7.290   2.665
76815W        W41800  31.176   7.841  14.861
76816W        W41801  29.469  24.604  11.556
76817W        W41802   7.628  43.898  10.743
76818W        W41803  19.621  20.626   2.948
76819W        W41804  31.024  32.975   4.939
76820W        W41805   9.149  38.024   4.247
76821W        W41806   7.368   4.525  12.772
76822W        W41807   0.825  21.058  14.156
76823W        W41808  33.066  29.652   0.915
76824W        W41809  10.629   9.950  13.593
76825W        W41810   7.338  23.245   1.989
76826W        W41811  25.989  10.694   1.484
76827W        W41812  23.476  34.472   0.423
76828W        W41813  24.502  42.513  11.601
76829W        W41814   3.085  19.022  11.956
76830W        W41815  14.786  14.377  13.989
76831W        W41816  14.054  32.625   4.188
76832W        W41817   4.019  17.242   0.008
76833W        W41818  10.328  42.309  10.281
76834W        W41819  17.646  17.279   1.373
76835W        W41820  40.672   0.433  12.206
76836W        W41821  25.023  21.599  10.660
76837W        W41822  17.433   0.758  13.393
76838W        W41823  32.040  40.998   2.031
76839W        W41824  35.324  39.970   0.731
76840W        W41825  24.626  40.349   1.731
76841W        W41826  26.882  19.028   1.500
76842W        W41827  17.554  11.876  12.361
76843W        W41828  37.233  32.811  11.121
76844W        W41829  22.541   6.382   5.175
76845W        W41830  16.340  28.957  10.593
76846W        W41831  34.340  13.730   3.136
76847W        W41832   3.974  19.938   4.117
76848W        W41833   6.152  31.079   2.873
76849W        W41834  31.544  17.221   2.272
76850W        W41835  30.434   0.190  10.517
76851W        W41836   7.733   1.036  14.539
76852W        W41837  16.680  30.873   1.885
76853W        W41838   1.224  40.890   4.001
76854W        W41839  17.980  43.981   0.695
76855W        W41840  43.920  29.744   0.150
76856W        W41841   1.783  24.281   1.265
76857W        W41842  13.133  44.725  11.970
76858W        W41843  26.664  30.050   1.769
76859W        W41844  34.020  13.268   0.537
76860W        W41845  14.317  44.195   3.675
76861W        W41846  12.749  22.171  11.876
76862W        W41847  32.166  22.825   0.861
76863W        W41848  30.515  29.124  12.636
76864W        W41849  20.311   7.427   1.238
76865W        W41850  39.382  32.399   1.171
76866W        W41851  19.561   6.604  14.447
76867W        W41852   6.211  36.671  11.256
76868W        W41853  26.071  33.983  13.320
76869W        W41854  36.348  31.965  14.320
76870W        W41855   2.012   0.872   1.255
76871W        W41856  44.685  38.013   1.368
76872W        W41857  33.627  16.661   2.587
76873W        W41858   6.011  42.822   2.702
76874W        W41859  30.340  34.598   4.153
76875W        W41860  36.296  43.001  13.801
76876W        W41861  26.737  21.052  14.422
76877W        W41862   4.157   2.812  11.178
76878W        W41863  33.818  11.601  14.007
76879W        W41864  20.385  14.356  11.610
76880W        W41865  12.690  11.501   1.197
76881W        W41866  35.990   2.091  13.322
76882W        W41867   3.227   6.853  11.972
76883W        W41868  28.978  44.527   1.367
76884W        W41869  29.328  43.251   9.911
76885W        W41870  37.940  36.378  11.039
76886W        W41871   7.034  40.165   4.729
76887W        W41872  32.855  12.806  13.019
76888W        W41873  26.572  40.056  10.091
76889W        W41874  31.415   9.631  11.731
76890W        W41875  29.950  25.708  10.767
76891W        W41876  13.363  19.757  13.446
76892W        W41877  25.908  29.471   4.956
76893W        W41878  40.791  27.409   1.872
76894W        W41879   3.525  31.472  12.950
76895W        W41880   6.191  23.585   3.245
76896W        W41881  40.338  17.341  14.017
76897W        W41882  36.547  44.228   1.779
76898W        W41883  38.880  40.971  13.403
76899W        W41884  27.605  43.532   3.797
76900W        W41885   7.602  27.526   2.276
76901W        W41886   2.241  26.576   5.055
76902W        W41887  17.302  26.443   1.017
76903W        W41888  27.062  32.960   4.409
76904W        W41889  13.353  18.957   0.722
76905W        W41890  31.387  29.125  13.920
76906W        W41891  34.345   7.954   3.307
76907W        W41892  19.665  37.861   0.469
76908W        W41893   2.240  19.488  14.861
76909W        W41894  31.343   0.582  11.463
76910W        W41895  14.404  20.692   4.394
76911W        W41896  26.886  34.692   5.127
76912W        W41897  23.980  19.544   4.179
76913W        W41898   1.713  42.948  13.938
76914W        W41899  23.701   8.313  10.756
76915W        W41900  28.648  25.599  13.591
76916W        W41901   3.418  30.551  10.981
76917W        W41902  28.869  42.333   0.764
76918W        W41903  27.634  21.571   0.472
76919W        W41904   5.300  16.822   4.812
76920W        W41905  30.128  38.626  13.411
76921W        W41906   9.891  32.596  12.300
76922W        W41907  34.023   7.069  10.713
76923W        W41908  22.700  40.761  11.773
76924W        W41909   2.222  26.924  14.508
76925W        W41910  16.138  42.870   2.691
76926W        W41911   1.938  43.782  11.191
76927W        W41912  35.672  23.862  11.613
76928W        W41913  38.844  22.095   0.374
76929W        W41914  22.441  17.080  12.932
76930W        W41915  21.163  42.907  10.834
76931W        W41916  15.307  25.974  10.233
76932W        W41917  10.423  14.189  12.227
76933W        W41918  29.907  10.246   1.804
76934W        W41919   6.375  19.505   0.730
76935W        W41920  29.029  17.164  14.004
76936W        W41921  22.651  28.868  12.606
76937W        W41922   3.280  16.357   2.440
76938W        W41923  38.782  23.505   0.936
76939W        W41924  22.295  17.337   4.431
76940W        W41925  35.407  43.033   4.984
76941W        W41926   8.130  35.831   4.582
76942W        W41927  25.494  11.189   3.714
76943W        W41928  15.090  13.403  11.301
76944W        W41929  31.987  38.714   3.032
76945W        W41930   9.337  44.973  14.289
76946W        W41931   4.863  27.422   3.273
76947W        W41932  27.405  26.520   1.423
76948W        W41933   7.405   8.909   0.332
76949W        W41934  17.954  28.661   3.712
76950W        W41935  33.126  40.316  14.320
76951W        W41936  21.705  16.243   4.677
76952W        W41937  28.463  37.009   0.844
76953W        W41938   2.462  26.086  14.952
76954W        W41939  25.484  37.988   2.946
76955W        W41940  44.022  35.029   5.042
76956W        W41941   8.344  39.799  14.828
76957W        W41942  37.018   7.847   5.009
76958W        W41943   9.215  28.927  13.907
76959W        W41944  28.593  33.970   0.816
76960W        W41945  39.414  20.920   4.936
76961W        W41946  32.505  35.151   2.332
76962W        W41947  24.115  27.244  14.805
76963W        W41948  26.498  29.565   1.753
76964W        W41949  37.996  41.003   1.679
76965W        W41950  35.076  20.119   0.911
76966W        W41951   8.263  24.309  13.612
76967W        W41952  22.750  40.898   3.405
76968W        W41953  13.115  28.968  10.248
76969W        W41954  40.389  33.434   5.365
76970W        W41955  15.061  11.947  12.451
76971W        W41956  30.442  17.754   4.566
76972W        W41957  28.177   5.917   1.251
76973W        W41958  34.741  24.730  11.275
76974W        W41959  24.162   0.927   1.270
76975W        W41960  11.169  14.568  14.061
76976W        W41961  36.949   6.193  10.609
76977W        W41962  20.506  14.098  11.170
76978W        W41963  16.577  30.036  12.393
76979W        W41964  12.152  34.082   2.186
76980W        W41965   0.000  42.247  12.886
76981W        W41966  22.333  40.997  14.783
76982W        W41967   6.626  22.559  14.010
76983W        W41968  18.255   7.021  10.670
76984W        W41969  17.925   6.872  13.427
76985W        W41970   4.886   0.255  14.454
76986W        W41971  26.446   6.479   0.864
76987W        W41972   8.622  15.935  11.848
76988W        W41973  41.016  15.506  10.417
76989W        W41974  18.779   6.184   2.747
76990W        W41975   7.692  20.029   2.825
76991W        W41976   0.073  42.872  14.893
76992W        W41977  17.987  23.674  13.743
76993W        W41978  42.418  23.036  14.518
76994W        W41979  27.355  44.133   0.482
76995W        W41980  40.442  20.839   3.211
76996W        W41981  11.703   4.227   4.806
76997W        W41982  20.091   5.899  13.265
76998W        W41983   6.275   7.319   3.150
76999W        W41984  34.017  11.439   3.751
77000W        W41985  14.344   2.237  11.911
77001W        W41986  22.088   3.195   0.011
77002W        W41987  33.491   1.619  10.218
77003W        W41988  34.958  18.447  14.490
77004W        W41989  19.083  20.770   2.763
77005W        W41990  41.708   0.982   0.348
77006W        W41991  37.104  44.751   0.610
77007W        W41992   5.193  42.202  11.956
77008W        W41993  17.507   0.256   3.370
77009W        W41994  27.787  39.710   1.945
77010W        W41995   4.974  42.844   2.728
77011W        W41996  19.699  37.044  13.006
77012W        W41997  29.530  43.174   0.769
77013W        W41998  30.537  43.870  14.325
77014W        W41999  16.400   1.746  10.982
77015W        W42000  33.032  24.243  13.063
77016W        W42001   7.346  30.626  11.590
77017W        W42002  11.155  15.169  10.691
77018W        W42003  28.091  17.446  12.017
77019W        W42004  12.184  39.242  13.133
77020W        W42005  19.232  24.921   2.437
77021W        W42006  10.152  13.225   0.872
77022W        W42007  34.015  27.469   0.397
77023W        W42008  36.880  26.670  11.111
77024W        W42009   7.922  32.527  14.553
77025W        W42010  22.125  15.035   3.311
77026W        W42011  23.023  31.840   3.288
77027W        W42012  38.235  34.663   1.319
77028W        W42013  18.231  31.500  14.260
77029W        W42014  42.288  22.180   5.607
77030W        W42015  36.102   0.867   2.849
77031W        W42016  35.828  41.738   1.560
77032W        W42017  17.761  29.510   3.552
77033W        W42018  33.406   8.706  13.389
77034W        W42019  14.356  41.505  13.522
77035W        W42020  25.387   9.850  11.261
77036W        W42021  29.424  17.725   0.008
77037W        W42022  12.790  40.537  11.071
77038W        W42023  12.741  14.868  14.244
77039W        W42024  28.121  14.377  14.472
77040W        W42025  27.730  16.023   0.609
77041W        W42026  13.406  29.502   0.324
77042W        W42027   2.406  16.319   3.951
77043W        W42028  42.572  31.119   5.047
77044W        W42029  32.558  38.325   2.243
77045W        W42030   4.751  28.426  13.333
77046W        W42031  16.687   1.869   2.725
77047W        W42032  36.440  10.816  13.009
77048W        W42033  43.498  38.929   1.220
77049W        W42034  37.694  38.622  13.667
77050W        W42035  17.550  20.115   2.644
77051W        W42036   5.157  25.150   2.890
77052W        W42037  40.453  14.301  13.465
77053W        W42038  26.903  32.751  12.871
77054W        W42039   4.880  26.406  10.096
77055W        W42040  34.668  18.522  13.251
77056W        W42041  18.967   9.406  12.526
77057W        W42042  11.112  14.104   3.285
77058W        W42043  42.099   8.113  13.037
77059W        W42044  44.488  42.895   1.484
77060W        W42045  17.665  24.248  12.432
77061W        W42046  43.116  29.420  10.154
77062W        W42047  20.613  17.678   1.024
77063W        W42048  36.610  26.588  12.429
77064W        W42049  23.293   8.338   4.375
77065W        W42050  39.155  28.102  13.992
77066W        W42051  34.615  26.224  11.984
77067W        W42052  34.816  27.542  11.986
77068W        W42053  44.398   9.981  12.986
77069W        W42054   9.298  10.304  14.636
77070W        W42055  27.015  35.806   0.916
77071W        W42056  24.607  13.191   2.243
77072W        W42057  30.913  12.606   0.125
77073W        W42058  35.096  10.302  12.844
77074W        W42059  12.195  39.898   1.267
77075W        W42060   9.190  40.945   2.704
77076W        W42061  39.157   3.016   0.751
77077W        W42062  28.878   0.028  12.936
77078W        W42063  26.608  34.028   2.010
77079W        W42064   3.194  30.126  12.001
77080W        W42065  37.366  26.617   4.600
77081W        W42066  37.970   8.854   1.879
77082W        W42067   9.359  17.182  14.351
77083W        W42068  20.703  29.753   0.527
77084W        W42069  20.786   1.965   3.264
77085W        W42070  17.860  40.582   1.072
77086W        W42071   2.882  12.237  10.979
77087W        W42072  14.667  15.807  14.920
77088W        W42073  22.055   0.483   4.691
77089W        W42074  14.195  27.102   5.034
77090W        W42075  16.062  32.962  12.969
77091W        W42076  29.592  42.855  11.152
77092W        W42077  31.211   9.469  13.272
77093W        W42078  31.541  38.781   1.342
77094W        W42079  34.477  38.923  14.046
77095W        W42080   7.561  23.838   5.099
77096W        W42081  40.530  19.246   2.860
77097W        W42082  42.344   3.919   4.187
77098W        W42083  30.711  38.482  14.038
77099W        W42084   1.048   1.424  13.350
77100W        W42085  44.397   8.622   0.441
77101W        W42086   9.528  29.925   3.350
77102W        W42087   6.161  34.895   4.162
77103W        W42088   3.280   3.289  11.090
77104W        W42089  33.430  40.654   1.722
77105W        W42090  26.517   9.336   0.962
77106W        W42091  17.123  16.133   2.617
77107W        W42092  31.481  24.960  14.080
77108W        W42093  26.797   4.688   0.130
77109W        W42094  35.043  14.917   0.388
77110W        W42095  27.913  26.203   0.216
77111W        W42096  44.004  22.558   0.239
77112W        W42097   2.262   7.083  11.008
77113W        W42098  31.582   6.468   2.620
77114W        W42099  44.384   9.308  13.222
77115W        W42100  32.010   0.782  12.500
77116W        W42101  17.736  32.052  11.914
77117W        W42102  32.213  26.301   4.291
77118W        W42103   7.541  25.852   4.546
77119W        W42104  23.070  16.503   3.712
77120W        W42105  30.943   6.386   4.560
77121W        W42106   8.335  10.642   0.252
77122W        W42107   5.311  28.549  14.033
77123W        W42108  33.853   9.888   1.956
77124W        W42109  39.535  35.960   0.408
77125W        W42110  16.955  28.133  13.032
77126W        W42111  31.012  17.240   4.628
77127W        W42112  17.578  22.558  13.728
77128W        W42113   6.043  17.216   1.730
77129W        W42114   8.968   4.849   4.600
77130W        W42115  36.936  26.671  13.485
77131W        W42116  25.440  34.953  11.274
77132W        W42117  38.282  38.689  10.033
77133W        W42118  12.433  36.054   2.875
77134W        W42119  27.646  41.083  13.415
77135W        W42120   8.126  32.634   4.536
77136W        W42121  43.384  41.438  12.219
77137W        W42122  22.048  43.775   0.157
77138W        W42123   8.365  28.074  14.358
77139W        W42124   7.634  13.683   1.003
77140W        W42125  19.101  32.689  12.939
77141W        W42126  13.077  22.957  13.142
77142W        W42127   9.223  34.413   4.609
77143W        W42128   3.860  12.513   2.789
77144W        W42129  34.381  41.535   1.456
77145W        W42130   7.917  30.081  13.446
77146W        W42131  19.760  33.823   2.347
77147W        W42132  18.048   1.201   4.957
77148W        W42133  21.734  19.562  13.496
77149W        W42134  18.516  40.478  12.452
77150W        W42135  22.684  30.989   3.592
77151W        W42136  42.576  11.666  10.660
77152W        W42137  26.564   6.284  13.404
77153W        W42138   2.140  20.777  11.100
77154W        W42139  38.071   9.324   1.713
77155W        W42140  40.765  29.419   2.578
77156W        W42141   9.317  30.916   4.028
77157W        W42142  18.751  35.919  10.941
77158W        W42143  35.590   2.393   4.609
77159W        W42144  41.014  25.133   0.196
77160W        W42145   9.192  36.687  10.701
77161W        W42146  30.651  22.534  13.273
77162W        W42147  25.507  13.843   2.861
77163W        W42148   8.867  28.287   3.244
77164W        W42149   8.763  13.920  14.865
77165W        W42150  11.415   9.341   1.152
77166W        W42151  30.277  23.940   0.835
77167W        W42152  34.668  17.480   1.737
77168W        W42153  38.894  13.437   0.847
77169W        W42154  20.422  26.918   0.749
77170W        W42155  40.342   7.364   3.706
77171W        W42156   1.055  40.183  14.506
77172W        W42157  21.045  21.148   0.430
77173W        W42158   3.988  13.730   0.390
77174W        W42159  36.157  23.894   1.997
77175W        W42160  37.256  23.549   1.899
77176W        W42161  10.182  41.531  14.822
77177W        W42162  15.713  43.532   3.868
77178W        W42163  18.242   2.381   0.714
77179W        W42164   3.381  19.846   0.362
77180W        W42165  21.196  34.904   3.660
77181W        W42166  40.822  13.269  14.277
77182W        W42167  11.891  14.825  14.494
77183W        W42168  41.481  10.700  12.344
77184W        W42169  22.940  42.377  10.632
77185W        W42170   3.549  29.254  14.322
77186W        W42171  22.727  44.249  12.369
77187W        W42172  14.710  30.991  11.182
77188W        W42173  36.105  30.430   0.353
77189W        W42174  14.147  36.305   4.894
77190W        W42175  11.489  36.798   2.704
77191W        W42176  41.757  44.342  13.297
77192W        W42177   8.370   9.128   1.747
77193W        W42178   2.742   9.948  12.560
77194W        W42179  25.432  11.918   0.452
77195W        W42180  33.781  29.028  11.524
77196W        W42181  37.119  43.029   1.356
77197W        W42182  10.356   1.770  11.183
77198W        W42183  37.022  17.023   2.753
77199W        W42184   9.648  31.997   1.683
77200W        W42185  20.240  18.784   2.725
77201W        W42186  11.606  39.939  12.912
77202W        W42187  39.042  34.898  14.314
77203W        W42188  23.466  29.221   0.455
77204W        W42189  37.637   0.733  11.959
77205W        W42190  30.426   4.682   1.797
77206W        W42191  38.164  12.199   1.869
77207W        W42192  11.838  39.456   1.291
77208W        W42193   2.878   4.836  11.446
77209W        W42194  18.153  20.038  14.760
77210W        W42195  27.063  28.554   0.251
77211W        W42196  35.837   6.753   9.477
77212W        W42197  42.595   7.043  12.662
77213W        W42198  12.616  33.166  14.052
77214W        W42199  36.802  25.171  12.500
77215W        W42200  25.102   1.076   3.004
77216W        W42201  20.820  22.660  10.304
77217W        W42202  28.214  10.112   4.813
77218W        W42203  37.312  42.522  12.018
77219W        W42204   3.913  30.059   1.642
77220W        W42205  12.799  28.650   3.232
77221W        W42206  43.835  11.335  11.668
77222W        W42207   8.911  23.574  13.522
77223W        W42208  36.974  24.105   4.060
77224W        W42209   3.838  40.491   2.707
77225W        W42210   6.430  19.455   2.215
77226W        W42211  18.640  10.000   4.746
77227W        W42212  22.230  30.892  14.774
77228W        W42213   3.744  36.421  13.878
77229W        W42214  14.102  14.646   1.320
77230W        W42215  42.468  22.156  14.414
77231W        W42216  27.399   1.410   0.956
77232W        W42217   3.239  37.977   1.899
77233W        W42218  25.667  39.788   3.840
77234W        W42219  29.517  17.398  14.010
77235W        W42220  17.848   2.911  14.024
77236W        W42221   2.488  18.007   2.305
77237W        W42222  23.757  22.548   4.501
77238W        W42223  35.898  37.906  12.377
77239W        W42224  38.020  30.018   3.412
77240W        W42225  23.033   4.200  12.685
77241W        W42226  15.301  30.135  14.994
77242W        W42227  11.854  34.896   1.645
77243W        W42228  11.282  29.637  10.888
77244W        W42229  44.511  37.949  14.362
77245W        W42230  31.525  38.897  10.684
77246W        W42231  39.025  44.754  11.148
77247W        W42232  26.323  26.602   2.468
77248W        W42233   6.282  36.046   0.627
77249W        W42234  10.681  19.110   4.671
77250W        W42235  34.577   8.606  12.582
77251W        W42236  33.632   0.849   2.337
77252W        W42237  40.531  27.083  11.958
77253W        W42238  19.509  15.823  12.075
77254W        W42239  43.401  27.410   1.454
77255W        W42240   1.987  28.161  11.517
77256W        W42241  44.686  14.098   0.375
77257W        W42242  23.021  32.398  10.892
77258W        W42243   3.992  27.699   1.248
77259W        W42244  16.665  12.678  14.447
77260W        W42245  33.886  43.373  10.366
77261W        W42246  22.118  11.721  12.483
77262W        W42247  42.897   1.962   4.558
77263W        W42248  17.655  39.595   0.815
77264W        W42249  19.828  28.682   0.336
77265W        W42250  44.925   6.872  13.492
77266W        W42251  13.535  42.387   0.424
77267W        W42252  37.107  29.683   1.209
77268W        W42253  28.961  10.965  14.574
77269W        W42254  29.483  13.940   2.773
77270W        W42255  11.760  39.840  10.793
77271W        W42256   2.087  14.191  13.895
77272W        W42257  31.187  11.612  12.435
77273W        W42258   9.245   4.399   0.829
77274W        W42259  15.261  20.812   0.826
77275W        W42260  17.829   9.910   4.551
77276W        W42261  41.513  37.665   0.814
77277W        W42262  17.022  38.752  10.376
77278W        W42263  22.654  39.800  14.505
77279W        W42264  22.060  26.991  13.639
77280W        W42265  32.306  17.161  13.018
77281W        W42266  16.759  19.655  13.379
77282W        W42267  40.759  31.614  14.176
77283W        W42268  10.918  42.053  13.574
77284W        W42269  28.871  35.188  13.291
77285W        W42270   4.006   3.696  11.361
77286W        W42271   1.292  11.838   4.200
77287W        W42272  12.728  23.605   1.740
77288W        W42273  10.013  41.500   4.532
77289W        W42274  28.809  21.625  13.913
77290W        W42275  14.847  30.824  13.524
77291W        W42276  31.864  31.082  11.695
77292W        W42277  15.831   0.924   3.844
77293W        W42278  14.170   6.983  14.961
77294W        W42279  32.820  11.639   1.851
77295W        W42280  19.523  18.521   1.446
77296W        W42281  19.244  22.175  10.568
77297W        W42282  34.977  23.164   1.816
77298W        W42283  24.629   2.917   5.510
77299W        W42284  43.878  41.007   1.283
77300W        W42285  20.229  41.247  12.656
77301W        W42286   8.521  43.874   1.271
77302W        W42287  35.579  25.651  11.647
77303W        W42288  20.279  44.346   2.604
77304W        W42289  38.409  19.952  10.677
77305W        W42290   6.144  16.501   1.669
77306W        W42291   8.798  39.803  14.375
77307W        W42292  16.984  29.526   0.844
77308W        W42293  43.964  33.019  10.767
77309W        W42294   2.765  10.072  11.241
77310W        W42295  36.421  26.262   4.748
77311W        W42296  40.009  36.062  12.799
77312W        W42297  18.631  41.495   3.726
77313W        W42298  14.777  15.461   3.608
77314W        W42299  21.490  44.793   4.608
77315W        W42300   4.794  27.374   1.450
77316W        W42301  43.316  36.587   4.484
77317W        W42302  17.126   3.983   3.686
77318W        W42303  20.182  18.149   0.248
77319W        W42304   9.872  26.602  11.146
77320W        W42305   9.734  13.174  13.979
77321W        W42306  17.190  43.461  12.749
77322W        W42307  15.820   0.055   3.757
77323W        W42308  28.184  15.352   0.701
77324W        W42309  35.324  32.777   3.219
77325W        W42310  26.017   4.269   3.697
77326W        W42311   0.671  26.706   2.189
77327W        W42312  24.071  20.740   1.859
77328W        W42313  10.012  28.370   3.717
77329W        W42314  43.601  16.146  10.741
77330W        W42315  35.906  42.388  11.250
77331W        W42316   7.802   4.802   3.929
77332W        W42317   3.994   6.388  12.034
77333W        W42318  27.590  12.828   2.821
77334W        W42319  25.800  25.529   4.763
77335W        W42320  18.003  43.046   2.988
77336W        W42321  36.543  35.613  11.960
77337W        W42322  22.256   2.039  14.373
77338W        W42323  23.383  16.130  13.434
77339W        W42324  44.721  28.453   4.773
77340W        W42325  44.517  10.391  14.856
77341W        W42326  18.064   5.120  11.543
77342W        W42327  24.694  13.104  13.400
77343W        W42328  29.518  12.021  12.648
77344W        W42329  31.333  25.093   0.109
77345W        W42330  14.769  31.573   3.299
77346W        W42331  39.320   2.725  11.751
77347W        W42332  32.625   8.304  13.428
77348W        W42333  18.630   2.682   4.221
77349W        W42334  27.582   6.223  11.042
77350W        W42335  31.965  39.459  13.961
77351W        W42336  11.761   8.921   3.640
77352W        W42337  32.523  18.154  14.136
77353W        W42338   5.474   1.932  12.016
77354W        W42339   3.383  26.172  12.455
77355W        W42340   9.613  35.432   4.451
77356W        W42341  38.622   7.189  13.791
77357W        W42342  36.224  25.698   0.391
77358W        W42343  24.464  44.536   3.242
77359W        W42344  24.501  37.867   1.364
77360W        W42345  44.619  26.668  12.077
77361W        W42346   2.305  43.503   2.631
77362W        W42347  18.791  11.479  11.119
77363W        W42348  44.418  36.188  14.601
77364W        W42349   6.335  38.576   3.620
77365W        W42350  42.207  40.520  11.787
77366W        W42351   7.461  36.988  11.040
77367W        W42352  23.757   5.702  10.470
77368W        W42353  34.956   6.833   4.533
77369W        W42354  28.646  27.617   4.065
77370W        W42355   1.727  27.903  11.144
77371W        W42356   1.653   6.353  12.885
77372W        W42357   8.899  37.077  11.080
77373W        W42358  38.988  12.535   0.027
77374W        W42359  25.258   8.592  14.503
77375W        W42360  31.186  32.105  13.446
77376W        W42361  34.507  11.823  14.993
77377W        W42362   2.794  35.349   4.575
77378W        W42363  34.118  40.100  13.967
77379W        W42364  39.026   6.595  11.521
77380W        W42365   6.408  31.442   3.269
77381W        W42366  37.990  31.276   1.201
77382W        W42367  41.210  35.374  13.882
77383W        W42368  33.893  17.932   3.532
77384W        W42369   7.732   4.394   2.126
77385W        W42370  28.710  21.048  10.512
77386W        W42371   0.108   4.900  13.075
77387W        W42372  24.993  34.166  11.715
77388W        W42373  24.656  37.074   3.317
77389W        W42374  28.007  27.422  14.072
77390W        W42375  17.845  23.080   1.856
77391W        W42376  19.553  12.660   0.449
77392W        W42377  11.500   2.206  11.746
77393W        W42378  14.112  40.441   1.456
77394W        W42379  11.770  23.272  11.881
77395W        W42380  41.146  37.328  10.835
77396W        W42381  10.817  12.915  12.597
77397W        W42382   3.730  43.630   1.636
77398W        W42383   0.397  36.532  13.610
77399W        W42384  26.929  26.560   3.158
77400W        W42385  40.803  24.145  14.332
77401W        W42386  30.254  20.989   1.427
77402W        W42387  24.445  33.320   5.420
77403W        W42388  12.746  15.736   1.713
77404W        W42389  15.873  15.972  11.703
77405W        W42390   2.508   1.504   4.817
77406W        W42391  15.194  41.770   1.688
77407W        W42392  21.215  16.213   2.582
77408W        W42393  10.932   6.427   3.404
77409W        W42394  35.975  37.868   3.899
77410W        W42395  27.718   8.520  13.842
77411W        W42396  42.986  25.000   0.155
77412W        W42397  24.476  34.846  11.121
77413W        W42398  17.113  30.712  13.988
77414W        W42399  43.494   2.472   3.872
77415W        W42400  35.505   4.678  14.503
77416W        W42401   6.182  22.729  10.765
77417W        W42402   2.591  12.662  10.305
77418W        W42403  13.211  20.450  12.161
77419W        W42404  20.644  32.142  13.097
77420W        W42405  32.015  28.951  10.361
77421W        W42406  26.168  16.277   2.173
77422W        W42407   1.814  26.572   0.313
77423W        W42408  43.171  10.398  13.901
77424W        W42409   5.321  24.039  12.424
77425W        W42410  16.733  18.715  12.353
77426W        W42411   4.028  28.457   1.882
77427W        W42412  37.206  26.188  12.897
77428W        W42413   0.891   9.884  13.467
77429W        W42414  18.698   2.006   1.453
77430W        W42415  23.663  37.662  11.319
77431W        W42416  19.815  21.975   2.648
77432W        W42417  40.293  40.542  11.360
77433W        W42418  44.802  20.996   3.809
77434W        W42419  30.161  33.659   1.391
77435W        W42420  10.759  20.996   3.618
77436W        W42421  15.137  18.818  12.000
77437W        W42422   3.333  41.816   5.087
77438W        W42423  13.363  32.849  11.520
77439W        W42424  27.034  25.151   2.673
77440W        W42425  17.910   9.764  11.710
77441W        W42426   5.180  37.034   4.961
77442W        W42427  14.680  39.728   2.924
77443W        W42428  30.840  44.411   4.877
77444W        W42429   8.664  42.665  12.135
77445W        W42430   8.407   0.895  14.975
77446W        W42431   0.709  41.443   1.887
77447W        W42432  12.155  18.539   2.735
77448W        W42433   0.223  29.159  14.101
77449W        W42434  25.659  38.899   4.366
77450W        W42435  33.932  44.697   2.615
77451W        W42436  31.177  25.461  11.121
77452W        W42437  32.032  16.884  14.107
77453W        W42438  18.523  44.754   2.597
77454W        W42439  20.057  14.422  12.957
77455W        W42440  16.782  31.647   0.337
77456W        W42441  44.760  42.472  12.488
77457W        W42442  16.214   5.456   1.452
77458W        W42443  22.359  24.468  10.762
77459W        W42444  33.526  18.115  14.980
77460W        W42445  44.944   0.897   2.337
77461W        W42446   2.885  38.993  13.296
77462W        W42447  11.274   4.063   3.801
77463W        W42448  28.896  13.115  12.023
77464W        W42449  37.352  42.275  12.491
77465W        W42450   4.016  41.922   2.799
77466W        W42451  35.097  32.499   2.783
77467W        W42452  42.834  11.333  14.740
77468W        W42453   9.267  41.554   4.902
77469W        W42454   7.929   2.832  13.361
77470W        W42455  17.306  31.145   0.080
77471W        W42456  39.962  42.940   4.390
77472W        W42457  44.260   4.272   3.289
77473W        W42458  38.731   9.430  11.098
77474W        W42459  13.498  33.636  14.308
77475W        W42460  38.248  27.332  13.410
77476W        W42461  40.765  18.967   0.293
77477W        W42462  16.681  17.467   4.168
77478W        W42463  13.800   6.113  13.830
77479W        W42464  19.418   7.646  11.678
77480W        W42465   3.256  37.257  11.221
77481W        W42466  32.360  18.140   0.909
77482W        W42467   8.821  28.416   0.062
77483W        W42468   5.140  24.792  14.731
77484W        W42469  21.615  10.141   0.828
77485W        W42470  14.869   2.799  14.314
77486W        W42471  16.699  17.264   2.226
77487W        W42472  24.596  11.772  11.694
77488W        W42473   1.748   7.803  10.774
77489W        W42474  30.171  24.010   1.384
77490W        W42475   5.748  39.513  13.489
77491W        W42476   3.760  38.911  10.587
77492W        W42477   2.623  22.712  11.873
77493W        W42478  14.408  25.147   3.199
77494W        W42479  22.728   1.486  11.602
77495W        W42480  23.799   9.470  12.482
77496W        W42481  27.425  40.621  13.470
77497W        W42482  23.725  43.209  11.190
77498W        W42483   5.028  23.678   1.861
77499W        W42484  25.107  40.241   3.282
77500W        W42485  21.090  32.634   2.669
77501W        W42486  26.665  41.087   1.639
77502W        W42487   5.447  24.728  11.590
77503W        W42488  14.170  44.824   0.364
77504W        W42489  12.050  18.546  13.192
77505W        W42490  40.266  33.481  10.821
77506W        W42491  31.478  42.277  13.891
77507W        W42492  10.320   1.781  10.661
77508W        W42493  41.821   1.196   0.832
77509W        W42494  34.347  23.792   1.813
77510W        W42495   7.788  16.349   2.098
77511W        W42496  41.728  44.035   1.840
77512W        W42497  23.342  41.523   0.408
77513W        W42498   6.880  39.584  10.944
77514W        W42499  16.222  38.135   4.476
77515W        W42500  44.294   6.618   1.944
77516W        W42501   7.868  37.842   2.396
77517W        W42502   6.907  26.707   0.346
77518W        W42503  41.619  38.518   2.442
77519W        W42504  29.357  43.466  11.725
77520W        W42505  36.840   3.812   3.234
77521W        W42506  26.431   7.704   4.637
77522W        W42507  29.001   1.373   0.935
77523W        W42508  44.066  31.513   0.351
77524W        W42509  25.005   4.294   2.695
77525W        W42510  29.924  27.192  12.644
77526W        W42511   5.714  14.764  10.477
77527W        W42512  33.394  11.372  12.000
77528W        W42513  23.272  30.494   4.703
77529W        W42514   1.523   6.163  14.369
77530W        W42515  23.214  27.985   2.293
77531W        W42516  39.273   3.459  13.573
77532W        W42517  25.719  36.716   4.277
77533W        W42518   6.243  37.077   4.702
77534W        W42519  30.667  14.540   0.414
77535W        W42520  35.085  24.408  13.984
77536W        W42521   9.388  38.060  13.662
77537W        W42522  23.196  31.668  11.918
77538W        W42523   4.907  43.997  11.013
77539W        W42524   8.097  40.935   1.871
77540W        W42525  18.386  38.529   2.669
77541W        W42526  27.105  25.227  10.648
77542W        W42527  40.087  17.918   2.271
77543W        W42528  19.990  32.923  12.857
77544W        W42529  35.985  16.277  12.890
77545W        W42530   0.884  27.883   0.274
77546W        W42531  17.142  19.641   9.965
77547W        W42532  41.351  14.655  12.193
77548W        W42533  22.539  26.611  10.601
77549W        W42534  41.850  33.357  13.808
77550W        W42535  15.555  24.242   3.515
77551W        W42536  36.105  10.128  13.115
77552W        W42537   5.257   9.479   3.344
77553W        W42538  15.318  35.294  12.994
77554W        W42539   4.739   6.083   1.230
77555W        W42540  42.863  24.697   2.722
77556W        W42541  32.163   4.600  12.439
77557W        W42542  42.914   5.956   0.383
77558W        W42543  41.508   9.017  14.553
77559W        W42544  22.655  42.926  10.467
77560W        W42545   2.133   1.843  11.568
77561W        W42546  14.153  39.523  12.661
77562W        W42547  25.039  11.557   2.784
77563W        W42548  35.555  29.640  12.293
77564W        W42549  29.986  21.495   2.461
77565W        W42550  42.268  40.088   4.213
77566W        W42551  38.775  11.621  14.016
77567W        W42552  33.341  39.823   4.062
77568W        W42553   6.747   8.851  10.542
77569W        W42554  10.406   5.695  12.472
77570W        W42555   4.229  42.905   1.519
77571W        W42556  12.760   2.677  13.587
77572W        W42557  40.834  41.960  12.399
77573W        W42558  20.227  10.317   0.374
77574W        W42559  35.341   5.310   4.143
77575W        W42560  39.997  27.921   3.881
77576W        W42561  10.778   8.857   0.308
77577W        W42562   1.935  41.795  13.274
77578W        W42563  34.013  41.046  12.934
77579W        W42564  30.565  22.581  11.644
77580W        W42565  38.007  39.629   0.718
77581W        W42566  25.993  42.341   4.838
77582W        W42567  43.680   6.079   9.922
77583W        W42568  20.903  29.020  12.218
77584W        W42569  19.174  20.254  13.020
77585W        W42570   1.856  28.471   1.294
77586W        W42571   0.286  23.613  11.948
77587W        W42572   5.887  44.839   2.769
77588W        W42573  22.594  31.952   2.341
77589W        W42574  17.196   7.723   1.234
77590W        W42575  13.574  42.369  12.090
77591W        W42576  32.965  32.586   4.020
77592W        W42577  19.554  28.092   2.183
77593W        W42578  34.876  33.055  12.470
77594W        W42579   6.167   0.482   9.728
77595W        W42580  31.047  20.033   4.356
77596W        W42581   4.315  28.709  13.137
77597W        W42582  29.102  30.087  11.090
77598W        W42583  25.455  18.684   0.785
77599W        W42584   2.767  40.521   2.770
77600W        W42585  29.563  15.355  10.728
77601W        W42586  14.206   0.377  10.983
77602W        W42587  14.207  26.919   1.237
77603W        W42588  34.064  22.747  14.965
77604W        W42589  24.511  39.505  12.003
77605W        W42590   4.835  28.600  12.841
77606W        W42591  43.016   6.409   3.686
77607W        W42592  32.806  42.955   2.892
77608W        W42593  16.396  26.439   2.837
77609W        W42594  35.547  30.556  14.479
77610W        W42595   3.788   5.941  12.127
77611W        W42596  32.173  43.838   1.242
77612W        W42597  18.996  20.798   2.259
77613W        W42598  10.885  38.147  14.964
77614W        W42599  17.680  26.245  12.913
77615W        W42600  33.079  43.233   4.574
77616W        W42601   7.372   9.220  12.528
77617W        W42602  33.126  31.389   2.727
77618W        W42603   5.888  14.293  11.949
77619W        W42604   5.904  31.451  11.569
77620W        W42605  18.014  24.772  10.741
77621W        W42606  33.040  11.291   0.886
77622W        W42607  39.738  32.113  14.411
77623W        W42608   9.000  31.979   1.291
77624W        W42609   6.864  34.035  13.812
77625W        W42610   2.704  33.465  13.339
77626W        W42611  31.219  30.595   2.273
77627W        W42612   7.426  42.722   2.784
77628W        W42613   0.998   9.771   1.770
77629W        W42614  24.275   1.374   4.638
77630W        W42615  21.031   0.320   0.371
77631W        W42616  17.071  35.897   2.743
77632W        W42617  16.122   8.330   0.950
77633W        W42618  10.577  20.688   1.835
77634W        W42619  23.770  15.688   9.853
77635W        W42620  22.353  22.047  14.348
77636W        W42621  27.993  36.478  14.928
77637W        W42622  19.461  16.757  13.600
77638W        W42623  10.344  36.142   2.377
77639W        W42624  30.567  43.751   0.321
77640W        W42625  15.221  18.324   4.682
77641W        W42626  20.289  32.038   4.568
77642W        W42627  27.308   3.197   0.479
77643W        W42628  15.060   1.375  12.058
77644W        W42629   6.014  21.762   1.777
77645W        W42630   6.624   1.889   5.026
77646W        W42631   8.292  25.186  10.577
77647W        W42632  17.502  27.072   3.226
77648W        W42633  21.663   3.276   3.237
77649W        W42634  32.142  37.535  14.403
77650W        W42635   8.727  15.755   0.028
77651W        W42636   9.946  40.231  13.286
77652W        W42637   9.753   2.719   4.250
77653W        W42638   1.685   0.310   3.177
77654W        W42639  44.696  22.478   3.555
77655W        W42640  12.969  22.654   3.395
77656W        W42641  13.630  22.552  13.927
77657W        W42642  21.770  35.526   1.663
77658W        W42643  14.838  29.170  13.981
77659W        W42644  32.170  24.479   3.598
77660W        W42645   8.201  16.370   2.399
77661W        W42646  44.410  27.722  10.503
77662W        W42647  41.652  23.220   2.691
77663W        W42648  38.984  10.576  13.443
77664W        W42649  34.423   4.490  14.309
77665W        W42650  24.525   9.880   1.208
77666W        W42651  27.091  32.943  12.381
77667W        W42652   1.775   6.607   3.174
77668W        W42653   4.269   2.990  14.843
77669W        W42654  23.642  15.714  12.232
77670W        W42655  15.262   4.233  13.811
77671W        W42656  14.481  21.623   2.616
77672W        W42657  17.603  35.518   2.292
77673W        W42658  13.260   8.635  14.707
77674W        W42659  21.772  12.266  14.919
77675W        W42660  33.946  18.372  12.890
77676W        W42661  37.644  29.113  10.931
77677W        W42662  41.667   8.913  11.134
77678W        W42663   2.881   7.504   4.672
77679W        W42664  37.391  25.110  13.330
77680W        W42665  39.085  31.963  10.103
77681W        W42666   5.925   4.351  14.274
77682W        W42667  29.904  43.936   1.075
77683W        W42668   6.712  39.642  11.440
77684W        W42669  12.716  17.634  11.031
77685W        W42670  35.114   7.831   1.368
77686W        W42671  31.394  33.715   2.656
77687W        W42672   5.456   1.940   2.592
77688W        W42673  30.146   6.805  12.360
77689W        W42674  24.923  10.779   2.245
77690W        W42675   1.563  17.980  12.492
77691W        W42676   7.458  26.284  11.925
77692W        W42677  30.566  27.062   4.257
77693W        W42678  42.364  28.383  12.492
77694W        W42679  31.531  22.639   4.655
77695W        W42680  33.917  34.432  13.910
77696W        W42681  15.999  36.918  14.158
77697W        W42682  40.894  28.119   5.014
77698W        W42683  44.045  41.156  10.543
77699W        W42684  42.830  12.634  14.288
77700W        W42685  32.633  38.902   3.243
77701W        W42686  39.471  23.623   3.897
77702W        W42687  35.107   4.748   1.618
77703W        W42688  14.578   7.783   4.087
77704W        W42689   2.909   4.489  12.298
77705W        W42690  22.921  32.261   0.881
77706W        W42691   0.732   6.914   3.158
77707W        W42692   2.232  16.541  11.405
77708W        W42693  28.138  16.525   3.122
77709W        W42694  29.726  18.674   0.433
77710W        W42695  28.671   0.350  10.569
77711W        W42696  19.366  19.849   3.601
77712W        W42697  15.400  12.048  11.545
77713W        W42698   5.395   7.016   2.818
77714W        W42699  10.833   1.215  13.345
77715W        W42700  41.905   2.808  14.920
77716W        W42701  11.175  28.025  12.964
77717W        W42702  39.719  20.578   5.173
77718W        W42703  43.075  32.499  12.450
77719W        W42704  15.302   9.396  13.591
77720W        W42705   6.796  29.348  11.424
77721W        W42706  34.941  19.720  14.987
77722W        W42707  27.389  13.074  13.091
77723W        W42708  40.021  13.617  14.772
77724W        W42709  12.654   8.546   1.763
77725W        W42710  26.196  32.607   3.579
77726W        W42711   6.908  31.144   0.322
77727W        W42712   4.843   6.491   2.341
77728W        W42713  27.725  35.021   1.673
77729W        W42714   9.257  22.005  13.736
77730W        W42715  33.612  35.694   3.647
77731W        W42716  18.194  30.004   3.819
77732W        W42717  41.203  11.139  13.322
77733W        W42718   1.727  37.327   0.517
77734W        W42719  13.879  17.828   3.189
77735W        W42720   9.886  13.297   1.315
77736W        W42721   0.496  13.680  12.329
77737W        W42722   1.130  28.654  14.673
77738W        W42723  39.052  18.748  12.421
77739W        W42724   5.081  32.402  14.067
77740W        W42725  10.440  39.908  12.247
77741W        W42726  33.632  22.062   0.279
77742W        W42727  20.011  10.796   0.484
77743W        W42728   5.533  18.805  13.023
77744W        W42729  15.020   3.862  13.481
77745W        W42730  30.133  39.917   2.253
77746W        W42731  32.091   9.710  13.946
77747W        W42732  24.620  40.279  13.556
77748W        W42733   4.175  10.702   4.289
77749W        W42734  24.381  27.443   4.989
77750W        W42735   1.787  28.684   4.104
77751W        W42736  31.169  40.546  11.083
77752W        W42737  27.780  38.220  11.213
77753W        W42738  27.846  37.172   4.566
77754W        W42739   4.875  28.917   2.925
77755W        W42740  43.196  44.699   4.141
77756W        W42741  31.593   1.254   1.340
77757W        W42742   0.737   3.205  12.627
77758W        W42743  23.841  11.179  11.024
77759W        W42744  23.831  34.397   5.113
77760W        W42745   9.655  44.619  14.466
77761W        W42746   8.756   6.374   4.888
77762W        W42747  26.116  11.404   2.323
77763W        W42748   6.936  16.255  12.980
77764W        W42749  29.587  15.298  12.590
77765W        W42750  35.999  16.775   1.415
77766W        W42751  11.274  25.635   3.465
77767W        W42752   8.380  33.352   2.404
77768W        W42753  17.054  21.289   3.281
77769W        W42754   0.536   6.671   4.519
77770W        W42755  41.009  37.328   0.118
77771W        W42756  35.674  40.091   1.294
77772W        W42757  39.285   9.059   3.699
77773W        W42758  18.320  42.553  12.652
77774W        W42759  43.742  13.100  11.042
77775W        W42760  20.517   3.300  13.459
77776W        W42761   8.108  12.732  12.808
77777W        W42762  15.759  40.688  11.257
77778W        W42763   4.120  23.082   2.310
77779W        W42764  36.719  22.834   4.245
77780W        W42765   8.192  23.245  11.485
77781W        W42766  33.067  29.158  12.484
77782W        W42767  12.883  21.406   4.959
77783W        W42768  12.181  37.374   2.360
77784W        W42769  15.159  12.666   3.746
77785W        W42770  23.309  11.756   1.242
77786W        W42771  25.520  12.080   3.177
77787W        W42772  24.970  41.311   1.944
77788W        W42773   4.027  14.778   0.499
77789W        W42774  33.853  40.878  12.408
77790W        W42775   4.278   6.332  10.422
77791W        W42776  24.590  33.596  12.800
77792W        W42777   3.695  12.052  12.880
77793W        W42778  33.414  42.177   3.728
77794W        W42779  41.257  25.496   2.665
77795W        W42780  39.816  40.893  11.168
77796W        W42781  36.555   3.541  12.010
77797W        W42782  28.155  41.765   1.401
77798W        W42783  13.882  22.560  14.372
77799W        W42784   8.113   2.397  11.894
77800W        W42785   9.663  28.030  11.469
77801W        W42786  19.348  11.452  12.057
77802W        W42787  23.688  22.772   4.042
77803W        W42788  35.312  42.790  14.172
77804W        W42789  33.985  37.610  11.739
77805W        W42790  41.913   2.748  14.379
77806W        W42791  41.901  31.163  11.559
77807W        W42792  26.253  40.967   0.295
77808W        W42793  29.350   4.399  14.307
77809W        W42794  37.149   5.252   2.893
77810W        W42795  38.339   9.660  12.002
77811W        W42796  28.125  32.166   2.544
77812W        W42797  37.022   6.487  11.531
77813W        W42798  37.964   6.813   2.136
77814W        W42799  24.234  27.632  13.879
77815W        W42800  21.813  43.451  14.814
77816W        W42801  30.980  28.883   0.254
77817W        W42802   6.961   2.122   1.813
77818W        W42803  30.969  39.816  10.536
77819W        W42804  21.759  13.188  12.442
77820W        W42805   3.953  36.694  10.738
77821W        W42806  17.657  40.327   2.641
77822W        W42807  22.615  23.511   0.686
77823W        W42808  27.988  17.176  11.330
77824W        W42809  13.313  28.659  10.610
77825W        W42810  18.803  22.607   1.665
77826W        W42811   6.872   4.709   0.838
77827W        W42812  21.301   2.845  12.566
77828W        W42813  23.122   4.651  12.426
77829W        W42814  38.375  23.115   4.830
77830W        W42815  40.890  34.940  13.855
77831W        W42816  12.711  32.796   0.517
77832W        W42817  29.384  26.640   1.433
77833W        W42818  16.147  21.104   3.668
77834W        W42819  35.821   8.137  12.982
77835W        W42820   0.519  41.271  13.763
77836W        W42821  19.478  30.785  11.588
77837W        W42822  19.599  11.174   0.742
77838W        W42823  18.828  17.171   3.964
77839W        W42824  39.008  44.510  10.695
77840W        W42825  23.159   5.630   0.238
77841W        W42826  16.914  35.442  13.053
77842W        W42827  20.184  25.384   3.036
77843W        W42828  41.517   9.343  13.800
77844W        W42829   9.589  11.793  11.627
77845W        W42830  25.917  25.606  14.410
77846W        W42831  13.540   3.052  13.283
77847W        W42832  22.549  31.377  13.946
77848W        W42833  11.215  31.337   2.980
77849W        W42834   2.325   3.860  11.477
77850W        W42835  20.976  27.917   1.699
77851W        W42836  12.589   5.744   2.882
77852W        W42837  26.537  34.210  12.651
77853W        W42838   3.660   6.692   1.389
77854W        W42839   0.342  28.113   2.692
77855W        W42840   3.681  20.969  10.296
77856W        W42841  15.585  39.002   0.390
77857W        W42842  43.603  14.568   4.254
77858W        W42843   0.173  26.700   2.587
77859W        W42844   7.336  29.826  14.384
77860W        W42845   2.380  15.622  14.462
77861W        W42846  41.498  32.182   4.584
77862W        W42847  38.883  26.095  14.371
77863W        W42848  28.131  14.461   0.861
77864W        W42849  11.329  38.073  11.949
77865W        W42850  28.543   9.522   3.423
77866W        W42851  34.066  26.633  13.372
77867W        W42852  44.820  42.754   1.845
77868W        W42853   7.920   0.119   1.238
77869W        W42854  16.288  39.010   2.465
77870W        W42855   4.037  26.627   3.193
77871W        W42856  28.178   5.641   4.107
77872W        W42857  23.169  38.338  14.793
77873W        W42858   8.419   7.393  12.032
77874W        W42859  27.453  29.236  13.925
77875W        W42860  33.166  25.406  12.358
77876W        W42861   1.383  40.507   0.862
77877W        W42862  43.187  21.662  14.897
77878W        W42863  30.482  28.721  10.421
77879W        W42864  34.608  18.134  11.488
77880W        W42865   0.202  11.515  11.037
77881W        W42866  32.931  26.976   4.528
77882W        W42867  23.227  42.082   1.762
77883W        W42868   2.553  34.543   1.763
77884W        W42869   1.535  13.176  12.918
77885W        W42870  41.451  16.484  12.917
77886W        W42871  37.537  27.982  13.475
77887W        W42872   2.245   2.409   0.987
77888W        W42873   4.451  11.210   0.215
77889W        W42874  36.792  20.337  13.904
77890W        W42875  22.689  36.382   2.416
77891W        W42876  14.285  30.043  11.161
77892W        W42877   0.996  41.862  11.806
77893W        W42878   1.267   0.218  13.766
77894W        W42879  25.382  25.174  13.240
77895W        W42880  33.865   1.200   1.391
77896W        W42881  16.099  15.270   3.534
77897W        W42882  19.332  29.956  12.578
77898W        W42883  35.631  26.222  11.973
77899W        W42884  34.497  40.245   2.707
77900W        W42885  31.606   0.781  11.846
77901W        W42886   6.976  40.455   2.905
77902W        W42887  30.888  10.676  10.488
77903W        W42888  20.756  44.266  13.967
77904W        W42889   2.225  37.383   4.314
77905W        W42890   4.761  15.565  14.977
77906W        W42891  26.657  42.506  13.472
77907W        W42892  27.588  39.034  14.953
77908W        W42893  28.867  22.242   1.947
77909W        W42894   5.441   2.453  14.772
77910W        W42895  43.375  20.384  12.601
77911W        W42896   8.108  27.624   2.259
77912W        W42897  43.902  21.138   3.816
77913W        W42898  12.866  30.433   1.779
77914W        W42899  20.306   5.590   1.771
77915W        W42900  20.683  30.096  12.864
77916W        W42901  13.560  40.844   2.973
77917W        W42902   6.904   5.338   2.638
77918W        W42903   1.529  24.219  13.974
77919W        W42904   7.759  19.996   4.558
77920W        W42905  30.560  29.857   1.101
77921W        W42906   2.927  20.300  14.005
77922W        W42907   4.193   7.588   1.304
77923W        W42908  23.677  29.428  12.528
77924W        W42909   4.953  23.477  12.550
77925W        W42910  39.667  18.493  14.952
77926W        W42911  42.567  26.251   3.559
77927W        W42912  24.757   6.772  12.458
77928W        W42913   0.629  19.203   3.214
77929W        W42914  27.901  31.700   4.964
77930W        W42915  44.913   4.704   2.457
77931W        W42916   5.097  31.438  14.018
77932W        W42917  14.017  10.621  12.058
77933W        W42918  26.633   3.406  10.730
77934W        W42919  36.108  36.086  14.025
77935W        W42920  16.281   7.928  13.379
77936W        W42921  43.940  39.613  13.444
77937W        W42922  26.532  41.796   3.338
77938W        W42923  38.568  36.438  14.893
77939W        W42924  11.015  26.863  12.201
77940W        W42925  15.037  28.235  14.915
77941W        W42926   9.915   6.219   3.241
77942W        W42927  18.769  38.108  10.828
77943W        W42928  34.599   2.787   1.488
77944W        W42929  16.713  21.090   4.505
77945W        W42930   7.905  20.714   0.925
77946W        W42931  38.588  44.889   3.224
77947W        W42932  14.539  14.796   4.941
77948W        W42933  39.397   9.727   2.626
77949W        W42934  30.101  17.262   0.331
77950W        W42935   5.531   5.935  11.630
77951W        W42936  21.286   0.660  12.737
77952W        W42937  22.674  12.688  10.275
77953W        W42938  31.084  23.156   2.562
77954W        W42939  36.334  38.078  14.370
77955W        W42940   2.288  39.739   0.168
77956W        W42941  19.669  37.569  13.094
77957W        W42942  12.399  36.657   4.293
77958W        W42943  41.394  12.912   0.361
77959W        W42944  14.558  18.497  10.883
77960W        W42945  14.548  30.899  14.394
77961W        W42946  23.798  25.893   0.466
77962W        W42947  13.112   1.517   2.668
77963W        W42948  44.371   2.717   2.009
77964W        W42949  26.659  22.287  11.583
77965W        W42950   6.156  24.495   2.340
77966W        W42951  22.201  19.941   4.073
77967W        W42952  38.273  27.230   2.869
77968W        W42953  13.491   6.926  14.007
77969W        W42954  33.986   0.526   2.153
77970W        W42955  38.016  15.295   3.192
77971W        W42956  12.100  13.064  12.889
77972W        W42957  35.591   3.667   3.803
77973W        W42958  27.281  22.772  10.576
77974W        W42959   9.989  23.700  13.887
77975W        W42960  17.130  14.308   4.690
77976W        W42961   1.779  15.036   0.057
77977W        W42962   1.301  28.013   4.564
77978W        W42963  11.689  31.408  10.579
77979W        W42964   6.251   0.059   2.430
77980W        W42965  17.261  22.250  10.736
77981W        W42966  18.113  11.566   3.831
77982W        W42967  24.641   2.314   1.570
77983W        W42968  19.899   3.611  14.238
77984W        W42969   5.321  41.839   3.700
77985W        W42970  14.714   9.198   1.426
77986W        W42971   2.008   8.475   3.735
77987W        W42972  16.088  10.782  10.414
77988W        W42973  19.142  25.633   1.655
77989W        W42974   3.080  27.890   2.312
77990W        W42975  34.160   4.694  10.404
77991W        W42976  24.538  26.109   4.761
77992W        W42977  36.313  20.483   0.864
77993W        W42978   1.740  16.350  14.207
77994W        W42979  22.704  10.060  10.995
77995W        W42980  12.217   9.987   3.293
77996W        W42981  24.606  30.729   3.153
77997W        W42982  35.810  33.113   0.631
77998W        W42983  39.724  14.059   2.377
77999W        W42984  32.515  41.782   1.896
78000W        W42985  38.332  23.151  13.741
78001W        W42986   3.899  32.420  12.903
78002W        W42987   6.155   2.395   1.596
78003W        W42988  42.744  16.005   0.241
78004W        W42989  14.144  28.107   3.212
78005W        W42990  29.476  44.686   0.878
78006W        W42991  44.698   4.333  11.072
78007W        W42992   6.238  36.918   0.409
78008W        W42993   3.866   5.162  10.222
78009W        W42994  40.539  27.846   3.168
78010W        W42995  22.097  12.321   0.308
78011W        W42996  21.132  22.863  12.839
78012W        W42997   2.965  25.085  11.075
78013W        W42998  28.338  33.969   9.819
78014W        W42999   5.398  19.474  14.268
78015W        W43000  10.649   6.202  12.116
78016W        W43001  35.089  25.905  12.953
78017W        W43002  15.771  23.347   0.989
78018W        W43003   6.171   0.949   3.567
78019W        W43004   4.183  20.680   2.245
78020W        W43005  32.601   5.894  14.368
78021W        W43006  32.409  41.744   2.409
78022W        W43007   9.697   3.916   0.261
78023W        W43008  36.337  14.075   3.368
78024W        W43009  39.058  17.722  11.663
78025W        W43010  24.212   7.201   1.385
78026W        W43011  37.992  44.958   1.006
78027W        W43012   2.139  26.268  12.926
78028W        W43013  22.457  12.862  10.754
78029W        W43014  40.852   7.868   1.488
78030W        W43015   1.296   4.695   4.516
78031W        W43016  33.502   9.848   0.025
78032W        W43017   1.489  12.856  11.179
78033W        W43018  11.656  23.320   2.293
78034W        W43019  18.231  10.303  13.065
78035W        W43020  36.254  28.077   3.323
78036W        W43021   2.699   7.412   4.187
78037W        W43022  39.988  39.110  14.812
78038W        W43023  24.600  43.180   3.323
78039W        W43024   3.177  31.166   2.145
78040W        W43025   7.321  35.934  10.717
78041W        W43026  22.546   8.225   2.197
78042W        W43027  10.751  15.018  11.009
78043W        W43028   2.432  36.929   3.828
78044W        W43029  16.653  40.640   3.216
78045W        W43030  32.357  24.032  11.940
78046W        W43031  12.296   8.801   2.409
78047W        W43032  33.097  27.436   2.163
78048W        W43033  15.744  19.952   3.528
78049W        W43034  21.978  39.030  12.069
78050W        W43035  35.005   3.713  14.906
78051W        W43036  13.188  20.739   3.857
78052W        W43037   6.984  17.250   0.021
78053W        W43038  38.042  34.541  10.207
78054W        W43039  42.931   2.857   1.952
78055W        W43040  33.483  22.082   2.218
78056W        W43041  33.276  38.909  14.419
78057W        W43042  25.607  12.401  12.209
78058W        W43043  29.334  20.543  11.142
78059W        W43044   1.227  18.681  12.903
78060W        W43045  33.609  37.678  12.467
78061W        W43046  42.146  14.257  10.271
78062W        W43047  26.696  29.947  13.900
78063W        W43048   4.172  40.975  10.713
78064W        W43049  36.569  16.614  11.578
78065W        W43050   1.349  15.668   2.169
78066W        W43051  38.099   8.854  14.557
78067W        W43052  20.737  11.743   4.595
78068W        W43053  29.312  14.820   0.404
78069W        W43054  13.162   7.958  11.647
78070W        W43055  43.532  42.678  11.629
78071W        W43056  11.597  37.647  13.057
78072W        W43057  14.272  35.093   0.453
78073W        W43058  20.946  12.565  11.786
78074W        W43059  42.257  38.045  11.270
78075W        W43060  39.854  30.000   2.349
78076W        W43061  38.944   2.816  13.018
78077W        W43062  38.818  43.291   0.367
78078W        W43063  29.648  43.597  12.546
78079W        W43064  40.353   2.419   5.113
78080W        W43065  20.784  13.227   2.843
78081W        W43066  37.291  43.465   4.585
78082W        W43067   6.030  44.842  13.884
78083W        W43068  17.697   3.907  12.899
78084W        W43069  43.403  10.668  12.132
78085W        W43070  42.075  43.968  10.687
78086W        W43071  10.322  36.133  11.242
78087W        W43072   0.922  10.753  14.969
78088W        W43073  20.967  40.924   1.457
78089W        W43074  35.185   5.034   0.354
78090W        W43075  14.218  14.736   3.369
78091W        W43076  26.225  15.534   3.399
78092W        W43077  25.958  13.186   4.278
78093W        W43078  12.966  37.879   2.769
78094W        W43079  39.908  10.206  12.019
78095W        W43080  13.167  32.539   0.005
78096W        W43081  43.975  18.014  12.527
78097W        W43082   2.449  12.718  13.070
78098W        W43083  21.252  43.704   2.327
78099W        W43084  27.956  36.761   2.870
78100W        W43085  39.570  13.646   0.715
78101W        W43086  40.484   9.664  11.235
78102W        W43087   5.199  35.934   3.639
78103W        W43088   7.327  20.663   2.200
78104W        W43089   3.812  11.100  12.468
78105W        W43090  40.621  34.099  10.259
78106W        W43091  10.150  34.004   0.450
78107W        W43092  33.954  34.160  12.301
78108W        W43093  13.881   9.430   3.134
78109W        W43094  20.142   3.264  13.824
78110W        W43095  34.669  16.227  14.989
78111W        W43096  35.507  19.500   2.284
78112W        W43097  36.803  15.168  13.370
78113W        W43098  17.471  20.463   2.138
78114W        W43099   6.698   0.276  14.576
78115W        W43100  37.838  23.520   3.233
78116W        W43101  16.222  23.083   4.734
78117W        W43102  32.896  35.535   3.629
78118W        W43103  27.746   4.647  12.480
78119W        W43104  13.136   4.692  14.544
78120W        W43105  12.061  44.808  12.093
78121W        W43106  18.332   1.731   4.121
78122W        W43107  11.312  40.529  10.993
78123W        W43108  29.224  13.633  14.402
78124W        W43109  37.085  23.983  11.899
78125W        W43110   3.388  23.302  13.134
78126W        W43111  34.319   3.810  12.630
78127W        W43112   7.405  13.266   4.326
78128W        W43113   5.785  21.262   2.953
78129W        W43114   9.709  14.578   2.221
78130W        W43115   1.340  44.727  13.890
78131W        W43116   3.821  25.155   2.137
78132W        W43117   0.333  33.127  14.098
78133W        W43118  35.787  10.895   4.112
78134W        W43119  39.041  28.743  10.644
78135W        W43120  31.586  12.708   2.610
78136W        W43121  22.456  21.006  14.401
78137W        W43122  44.237  20.771   2.672
78138W        W43123  28.921  27.653   3.604
78139W        W43124  35.201  21.100  13.364
78140W        W43125  19.177  25.797  13.427
78141W        W43126  11.237  35.419   1.375
78142W        W43127   7.075  17.150   3.988
78143W        W43128  39.419  33.613  11.373
78144W        W43129  44.906  36.853  12.748
78145W        W43130  29.142  18.530  12.521
78146W        W43131  39.655  31.791  13.059
78147W        W43132  18.617  25.585   1.739
78148W        W43133  15.147  11.918   1.901
78149W        W43134  22.717   3.823  12.516
78150W        W43135  34.017  23.010  12.840
78151W        W43136  41.967  40.473  12.792
78152W        W43137   0.971  43.626   0.396
78153W        W43138   4.573  18.337   2.397
78154W        W43139  26.198  34.484   2.164
78155W        W43140  28.950   5.912  10.302
78156W        W43141  25.718  11.826   4.463
78157W        W43142  44.153  12.657   1.800
78158W        W43143  30.921  42.499  14.912
78159W        W43144  25.573  33.425   0.404
78160W        W43145  15.832  20.400   2.159
78161W        W43146   2.975   4.941  10.403
78162W        W43147  38.594  23.469   2.878
78163W        W43148  38.020  38.343  13.357
78164W        W43149  17.161   9.350  13.395
78165W        W43150  33.113  21.286   9.965
78166W        W43151  19.933  43.040   0.775
78167W        W43152  31.351  27.071  14.308
78168W        W43153   1.784  20.273   1.659
78169W        W43154  11.679  13.846  14.483
78170W        W43155   0.160   1.050   0.654
78171W        W43156  42.380  22.464  12.397
78172W        W43157  30.169  25.757   3.578
78173W        W43158  14.683  21.801  14.778
78174W        W43159   6.341  39.549   4.363
78175W        W43160   7.661   2.794  13.819
78176W        W43161  41.604  39.872  12.611
78177W        W43162  20.302  28.215   2.754
78178W        W43163  16.868  18.871   1.872
78179W        W43164   5.622   5.332   0.164
78180W        W43165   5.249  31.045   0.721
78181W        W43166  38.794  29.728   5.069
78182W        W43167  26.473  35.992   3.609
78183W        W43168  14.164   9.222  10.273
78184W        W43169  38.035  30.975  13.923
78185W        W43170  35.326   4.431  11.237
78186W        W43171  17.691   0.057   3.821
78187W        W43172  20.256  40.863  13.009
78188W        W43173   9.543  11.218  13.587
78189W        W43174  42.091  35.631   2.769
78190W        W43175   2.452  32.279   1.760
78191W        W43176  28.658   6.689  11.597
78192W        W43177  29.385   4.815  14.665
78193W        W43178  31.420  31.071  12.855
78194W        W43179  43.851  37.846   2.104
78195W        W43180   9.211  20.569  14.918
78196W        W43181  32.049  43.242  13.247
78197W        W43182  25.548   7.227  14.377
78198W        W43183  27.941  40.211   0.361
78199W        W43184  32.884  26.657  10.909
78200W        W43185  20.491  20.338  14.427
78201W        W43186  11.274  21.148   3.717
78202W        W43187  10.159  39.820  10.951
78203W        W43188   3.650  20.206  12.461
78204W        W43189  31.972   2.789   2.837
78205W        W43190  37.302  36.290  13.941
78206W        W43191  39.130  24.589   0.447
78207W        W43192  29.724  14.058   4.098
78208W        W43193  28.594  27.094  11.957
78209W        W43194  44.418  34.655  10.299
78210W        W43195  43.719   2.925  12.607
78211W        W43196  34.643  41.294  12.848
78212W        W43197  37.981   1.329  14.802
78213W        W43198  31.019  21.028  11.168
78214W        W43199  28.200  35.458   1.392
78215W        W43200  42.367  20.072  12.371
78216W        W43201  30.789  29.448  12.985
78217W        W43202   9.886  10.914   4.487
78218W        W43203   9.112  29.048   0.690
78219W        W43204  33.423  39.041  12.603
78220W        W43205  16.309  41.019  14.961
78221W        W43206   8.403  20.612   1.851
78222W        W43207   4.636  23.026  14.887
78223W        W43208  32.700  12.786  11.184
78224W        W43209  37.738  24.051  11.043
78225W        W43210   5.794  35.336  14.903
78226W        W43211  21.530  14.261   3.344
78227W        W43212   2.597  28.087   4.102
78228W        W43213  42.895  42.364  12.663
78229W        W43214  22.160  36.490  11.485
78230W        W43215   6.749  43.270  11.388
78231W        W43216  28.792  20.116   0.894
78232W        W43217  43.549  17.770  14.011
78233W        W43218  17.628  38.080   4.687
78234W        W43219   0.016   8.570   2.085
78235W        W43220  32.154  40.476  12.922
78236W        W43221  26.754   2.852   1.835
78237W        W43222  18.327  12.831  10.855
78238W        W43223  19.634   4.368   3.192
78239W        W43224  10.744  44.812   1.894
78240W        W43225   4.954  37.442  12.019
78241W        W43226  20.446  30.988  14.253
78242W        W43227  14.692  32.050  13.102
78243W        W43228  43.922  36.173  11.698
78244W        W43229   1.252  32.611  13.954
78245W        W43230  10.294  30.602   2.317
78246W        W43231  20.732  43.293   1.112
78247W        W43232  21.614  20.504   1.748
78248W        W43233  26.551  22.466  12.059
78249W        W43234  30.960  25.932  12.547
78250W        W43235  19.393  18.382   5.050
78251W        W43236  28.226  11.631   5.047
78252W        W43237  25.679  21.687  14.976
78253W        W43238  37.353  15.108   1.818
78254W        W43239   7.104  27.604  11.685
78255W        W43240  32.832  23.084   4.670
78256W        W43241   4.478   5.730   1.491
78257W        W43242  30.026  14.338  13.327
78258W        W43243  29.683  29.924  12.582
78259W        W43244  21.554  21.223   0.480
78260W        W43245  11.562  42.787  14.872
78261W        W43246  25.979  27.052  13.973
78262W        W43247   2.892  19.309   4.668
78263W        W43248  17.427   9.810  11.551
78264W        W43249  41.911  44.769  12.397
78265W        W43250  11.625  36.276  10.855
78266W        W43251   1.741  32.721  12.368
78267W        W43252   8.151   2.370  14.766
78268W        W43253   5.176  34.848   1.446
78269W        W43254  35.162  35.643  12.942
78270W        W43255  43.777  35.032   1.330
78271W        W43256  14.779   1.988  12.587
78272W        W43257  21.737  12.294   1.072
78273W        W43258  34.443  35.584  11.002
78274W        W43259  14.708  22.605  12.978
78275W        W43260  18.070   9.436   2.945
78276W        W43261   4.708  25.610  13.083
78277W        W43262  36.628   5.390   4.992
78278W        W43263  22.518  15.175   4.178
78279W        W43264  37.931  16.819  10.287
78280W        W43265  16.714  36.547  11.194
78281W        W43266  34.582  24.956   4.167
78282W        W43267  40.526  29.112  12.100
78283W        W43268  18.102  39.522   2.609
78284W        W43269   2.017   8.319  14.952
78285W        W43270   3.946   3.769   4.556
78286W        W43271  36.098  26.605   4.476
78287W        W43272  19.688  32.410   2.677
78288W        W43273  42.233   2.201  12.049
78289W        W43274   3.100  12.519  13.851
78290W        W43275  10.800  39.415   0.401
78291W        W43276  23.608  29.610  13.049
78292W        W43277  13.307   1.777  13.901
78293W        W43278   2.715  20.047   1.744
78294W        W43279  38.881  37.195   0.303
78295W        W43280  23.247  34.820  13.948
78296W        W43281  12.976  11.398  12.548
78297W        W43282  43.918   1.228   2.797
78298W        W43283  40.464  25.671   0.820
78299W        W43284   7.185  14.304  13.437
78300W        W43285  24.948  13.113   1.018
78301W        W43286  38.658  13.025   4.339
78302W        W43287  10.368  19.716   0.478
78303W        W43288  19.076  17.332  11.411
78304W        W43289  16.797  35.100  11.117
78305W        W43290   8.936   9.289  11.039
78306W        W43291   2.260  30.693   2.159
78307W        W43292  20.747  22.994   4.510
78308W        W43293   2.992  25.403  10.671
78309W        W43294  37.082  36.438  10.427
78310W        W43295  40.762  11.169  12.404
78311W        W43296  36.909  42.496  11.656
78312W        W43297  29.774  19.656   2.206
78313W        W43298   9.251  35.844  14.758
78314W        W43299  27.141  21.751  10.650
78315W        W43300  29.439  20.972   4.477
78316W        W43301  19.176  30.820  12.017
78317W        W43302  35.405  14.169  12.330
78318W        W43303  43.370  14.754  14.282
78319W        W43304  16.777  43.836  10.816
78320W        W43305  43.711  10.246  11.951
78321W        W43306  40.413  15.728  11.265
78322W        W43307  28.908  38.041  13.302
78323W        W43308  25.379  43.963  13.067
78324W        W43309  38.397  29.185  13.614
78325W        W43310  26.436  18.785   5.003
78326W        W43311  30.578   4.086  12.834
78327W        W43312  26.242  22.099   3.910
78328W        W43313  22.697   2.645   1.271
78329W        W43314   3.382   9.857   4.958
78330W        W43315  35.262  22.033   0.928
78331W        W43316  22.681  31.424  14.438
78332W        W43317  24.607  22.416  12.160
78333W        W43318  37.486   3.170  14.866
78334W        W43319  44.092  18.691   4.020
78335W        W43320   7.724  11.066  10.631
78336W        W43321  41.371  39.501   4.197
78337W        W43322  11.160  39.390  14.993
78338W        W43323  42.025  14.601   1.679
78339W        W43324  33.197  17.334   0.141
78340W        W43325  27.116  35.557   1.328
78341W        W43326  28.335  32.226   4.518
78342W        W43327  18.952  44.227   2.284
78343W        W43328  11.851  43.121   2.158
78344W        W43329  44.782   1.918  12.014
78345W        W43330   3.723  37.945  11.515
78346W        W43331  29.932  34.361  12.940
78347W        W43332  25.324   0.814   3.375
78348W        W43333  42.486  40.548   4.216
78349W        W43334   7.085   9.441  13.939
78350W        W43335  29.350  33.184  11.635
78351W        W43336  40.880   5.557  11.072
78352W        W43337  11.325  24.912  12.373
78353W        W43338  42.471  30.225  11.990
78354W        W43339  43.580   5.968   4.194
78355W        W43340  21.208   6.523  11.919
78356W        W43341  42.417  41.366   0.921
78357W        W43342   2.760  38.352  12.475
78358W        W43343  27.182  14.329  12.522
78359W        W43344  10.176  11.080  11.842
78360W        W43345  29.693   4.273  14.734
78361W        W43346  25.588  25.065  10.700
78362W        W43347  36.157  16.297   1.530
78363W        W43348  13.720  16.762  13.297
78364W        W43349  16.379   4.464  12.104
78365W        W43350  20.282  31.971   4.067
78366W        W43351  23.461  16.082   4.133
78367W        W43352  21.584   9.249  12.454
78368W        W43353   7.525  39.742  12.609
78369W        W43354  21.340  29.015   4.138
78370W        W43355  10.154   1.730  11.697
78371W        W43356  35.142  40.088  12.535
78372W        W43357   2.455  23.846   1.730
78373W        W43358  12.682  40.231  12.379
78374W        W43359  42.014  28.580  11.448
78375W        W43360  35.014  13.083   4.712
78376W        W43361  15.923  27.626  11.120
78377W        W43362  37.903  32.546   0.686
78378W        W43363  14.217  31.905  13.307
78379W        W43364  38.929  31.206   3.133
78380W        W43365  36.445   5.295  13.123
78381W        W43366  11.720  28.922  10.764
78382W        W43367  19.164  39.012   3.139
78383W        W43368  14.580  21.682  12.052
78384W        W43369  36.865   7.707  13.792
78385W        W43370  15.247  25.401  10.776
78386W        W43371  34.499  30.680   0.397
78387W        W43372  27.012  20.998  12.054
78388W        W43373  34.439   6.215  12.336
78389W        W43374  12.292   1.799   1.172
78390W        W43375  16.872  26.465   0.672
78391W        W43376   3.963  12.512  12.465
78392W        W43377  15.565  32.017  14.462
78393W        W43378   1.822  36.537  13.164
78394W        W43379   4.772  41.405  13.537
78395W        W43380  31.387  17.300   0.793
78396W        W43381  44.783   7.236  11.498
78397W        W43382  11.134  20.682  14.811
78398W        W43383   9.384  25.467   4.287
78399W        W43384  19.250  19.715  12.153
78400W        W43385  37.373  39.547  13.477
78401W        W43386  37.044  33.387  11.581
78402W        W43387  14.857  28.098   0.410
78403W        W43388   3.321  10.657  12.032
78404W        W43389  32.506  16.981   1.262
78405W        W43390  14.684  10.023   2.785
78406W        W43391  43.782  33.266  12.158
78407W        W43392  12.871  38.307  11.547
78408W        W43393  21.295   1.781   0.451
78409W        W43394  40.067  16.285   0.768
78410W        W43395  20.088  26.616  13.723
78411W        W43396  14.800   3.596  14.883
78412W        W43397  19.608  22.164  13.745
78413W        W43398  34.160  10.755  12.911
78414W        W43399   9.715   1.648   4.136
78415W        W43400  39.470  21.543   1.450
78416W        W43401  44.525   6.778  12.593
78417W        W43402  31.505   4.396  11.871
78418W        W43403  29.638  29.217  13.014
78419W        W43404  13.322   0.361  11.192
78420W        W43405  19.587  44.749  11.417
78421W        W43406   0.285   7.340   3.738
78422W        W43407  15.188  34.842   0.367
78423W        W43408  26.019  11.153   0.608
78424W        W43409  39.753   8.621   3.741
78425W        W43410   0.986  32.282  10.773
78426W        W43411  38.493  39.422  12.040
78427W        W43412   4.241  31.029   3.037
78428W        W43413  44.348  40.871   1.120
78429W        W43414  21.583   9.576  13.904
78430W        W43415  25.923   1.884  12.466
78431W        W43416  35.158  36.826  12.040
78432W        W43417  12.444  22.043   0.246
78433W        W43418   8.394  18.096  13.414
78434W        W43419   5.858   2.885   2.242
78435W        W43420  44.618  31.339  12.056
78436W        W43421  38.951   0.516   3.808
78437W        W43422  19.051  42.062  12.459
78438W        W43423  37.267  11.176  13.010
78439W        W43424  16.841  26.679  14.523
78440W        W43425  11.118   2.434  13.979
78441W        W43426   7.199   3.664  12.958
78442W        W43427  21.572  37.844   3.036
78443W        W43428  20.078  20.472  12.523
78444W        W43429  25.121  33.011  11.045
78445W        W43430  16.187  40.318  10.718
78446W        W43431  44.560  23.768   3.709
78447W        W43432  10.377  12.348   4.194
78448W        W43433  32.160  31.601  14.345
78449W        W43434  26.491  42.331  13.938
78450W        W43435  33.548  32.996  13.271
78451W        W43436  27.558  10.175  14.387
78452W        W43437  22.498  14.225  10.240
78453W        W43438  30.976  11.349  12.045
78454W        W43439  15.787  43.391   1.014
78455W        W43440  24.587  22.665   1.531
78456W        W43441  12.166  15.629  12.009
78457W        W43442  29.400  29.653  12.947
78458W        W43443   2.384   6.454  10.700
78459W        W43444  12.621  19.096   3.105
78460W        W43445  28.002  35.175  11.571
78461W        W43446   3.906  29.656  11.601
78462W        W43447   0.900  10.382  13.995
78463W        W43448  12.719  40.346   0.802
78464W        W43449  14.391  14.665   3.871
78465W        W43450   5.441  24.731  10.790
78466W        W43451  27.939   3.139  14.019
78467W        W43452  32.438  28.534   3.496
78468W        W43453  14.331  44.828   4.476
78469W        W43454  28.748  34.858  14.835
78470W        W43455  13.749  21.230  14.136
78471W        W43456  12.232  15.027   1.621
78472W        W43457  42.890  16.086  13.199
78473W        W43458  26.621  30.543   2.883
78474W        W43459  17.767  34.129  13.401
78475W        W43460  36.112  44.719  13.888
78476W        W43461  11.907   2.051  13.520
78477W        W43462  15.688  16.592   2.708
78478W        W43463  18.220  23.730   0.727
78479W        W43464   6.359  36.542  14.884
78480W        W43465  37.691  23.907   3.528
78481W        W43466  34.288  12.590  11.030
78482W        W43467  10.472   0.888  14.326
78483W        W43468  10.596  44.200  12.191
78484W        W43469  20.244   1.798   0.397
78485W        W43470   0.838  24.761  11.698
78486W        W43471  18.607   1.086  13.339
78487W        W43472  37.730   5.252   3.681
78488W        W43473  25.128  17.202   2.514
78489W        W43474   5.038  32.817  11.099
78490W        W43475  40.665   3.232   1.826
78491W        W43476  25.211   4.608  12.970
78492W        W43477  28.475  34.813  11.562
78493W        W43478  33.574  33.426   3.215
78494W        W43479   6.623   4.365   3.458
78495W        W43480  39.505  29.490   1.803
78496W        W43481   4.345  25.404   5.113
78497W        W43482  25.675   9.779  12.211
78498W        W43483  13.709  30.938   1.939
78499W        W43484   8.713  34.547   4.648
78500W        W43485  38.912  31.398  11.042
78501W        W43486   1.949  12.331  12.418
78502W        W43487   4.698  44.440  14.196
78503W        W43488  16.917  27.696   1.226
78504W        W43489  37.495  19.663   4.054
78505W        W43490  44.994  19.030  11.548
78506W        W43491  18.757  25.278  10.233
78507W        W43492  24.057  21.641  14.844
78508W        W43493  25.431  25.568   4.389
78509W        W43494   0.483  38.251  14.691
78510W        W43495  39.294   3.379  10.707
78511W        W43496  34.111  41.477  12.087
78512W        W43497  18.090  39.609  12.710
78513W        W43498  35.850  17.081  11.500
78514W        W43499  42.164  25.695  12.535
78515W        W43500  16.268  28.704  13.030
78516W        W43501   0.692  13.852  11.508
78517W        W43502  26.425  13.127  13.995
78518W        W43503  36.306  18.105  14.860
78519W        W43504  16.255   3.220  12.549
78520W        W43505  34.434  23.625  14.939
78521W        W43506  39.984   2.358  11.567
78522W        W43507  41.348  20.897  14.722
78523W        W43508  44.490  16.551  13.236
78524W        W43509  36.477  35.768  13.784
78525W        W43510  36.619  41.112  14.783
78526W        W43511  43.371   9.598   2.424
78527W        W43512  15.025  23.470  10.791
78528W        W43513  18.163  32.330  11.958
78529W        W43514  43.354  28.709   0.766
78530W        W43515  21.617  17.399  14.416
78531W        W43516  38.133  41.400  12.886
78532W        W43517  36.924  18.457   3.393
78533W        W43518   0.560  10.366  11.641
78534W        W43519  20.501  10.345  13.289
78535W        W43520  36.505  20.960   1.764
78536W        W43521  27.235  21.716   4.101
78537W        W43522  39.779  21.232   2.003
78538W        W43523  19.504  21.069   5.055
78539W        W43524  30.150  33.301  11.891
78540W        W43525  41.395  41.912  10.574
78541W        W43526  35.013  26.205  14.309
78542W        W43527  19.828  33.564  14.057
78543W        W43528   6.523  18.101  10.318
78544W        W43529   2.666  38.866   4.688
78545W        W43530  17.937  30.844  12.577
78546W        W43531  40.013  35.642   1.235
78547W        W43532  10.671  36.488   0.751
78548W        W43533  14.382  16.074  12.647
78549W        W43534  39.861  34.625   1.259
78550W        W43535  13.835  43.106  14.330
78551W        W43536  22.243  28.531   4.183
78552W        W43537  22.636  23.799  12.100
78553W        W43538  23.004  35.497  11.936
78554W        W43539  21.173   7.765   2.409
78555W        W43540  20.247  28.060   0.523
78556W        W43541  17.750  40.558  14.777
78557W        W43542  25.908   6.924   0.891
78558W        W43543  13.074  27.410   9.795
78559W        W43544   8.837   6.437   1.415
78560W        W43545  42.961  18.722  13.088
78561W        W43546  23.491  38.620   3.587
78562W        W43547  20.142  10.061  14.924
78563W        W43548  13.803  20.151   1.033
78564W        W43549  39.089  14.786  14.478
78565W        W43550  17.128   5.439   0.999
78566W        W43551  15.541   9.853  12.061
78567W        W43552   2.776  31.114   4.333
78568W        W43553  27.533  34.557  10.528
78569W        W43554   3.466   2.697   1.763
78570W        W43555  30.554  13.294  14.758
78571W        W43556  29.667  41.102  14.327
78572W        W43557  25.756   7.212   1.348
78573W        W43558  11.137  41.879  14.099
78574W        W43559  15.605  19.490  13.877
78575W        W43560   5.883  10.073   2.798
78576W        W43561   2.403  13.401   2.789
78577W        W43562  37.806  29.106  14.754
78578W        W43563  35.528  13.194  11.168
78579W        W43564  27.117   9.624   3.279
78580W        W43565  36.864  35.897   2.032
78581W        W43566  13.233   7.550   2.431
78582W        W43567  35.679  37.387  11.504
78583W        W43568   8.724  10.415   3.598
78584W        W43569   6.124   3.484   4.505
78585W        W43570  32.912  21.668  14.960
78586W        W43571  28.001  26.065   2.653
78587W        W43572  44.473   4.307  12.501
78588W        W43573  42.789   0.295   2.137
78589W        W43574  40.994   9.254  12.492
78590W        W43575  11.409  43.893  13.802
78591W        W43576   7.461  35.790  11.960
78592W        W43577  15.544  20.297   1.499
78593W        W43578  23.634  17.296   3.204
78594W        W43579  41.483  13.851  10.700
78595W        W43580   2.041  24.314   3.613
78596W        W43581  32.547  20.882   1.027
78597W        W43582  29.539  35.520  12.384
78598W        W43583  31.075  40.310  12.001
78599W        W43584   9.506  22.401  11.479
78600W        W43585  33.500  43.176   3.700
78601W        W43586  33.863  26.649   1.724
78602W        W43587  21.916   4.817  10.695
78603W        W43588  35.456  13.323  13.470
78604W        W43589  11.719  19.826  11.609
78605W        W43590  14.873   3.678  14.376
78606W        W43591  41.777  27.779  10.331
78607W        W43592  22.476  23.175  13.311
78608W        W43593  40.465   5.166   3.631
78609W        W43594  23.145  36.882   1.300
78610W        W43595   6.328   7.646  13.304
78611W        W43596  27.669  37.993  14.796
78612W        W43597   1.350  20.175   1.966
78613W        W43598  19.217  10.708  10.677
78614W        W43599  40.229   6.809   1.879
78615W        W43600  23.947  21.053  14.250
78616W        W43601  26.482   5.687   0.461
78617W        W43602   5.888  40.128  14.931
78618W        W43603  33.143  16.081   1.251
78619W        W43604  27.203   3.661   0.270
78620W        W43605  24.156  12.821  12.565
78621W        W43606  42.454  12.935   2.621
78622W        W43607  26.582  38.818  11.106
78623W        W43608  16.826  15.146  13.060
78624W        W43609  30.698  33.697  12.843
78625W        W43610  27.100   4.728  10.509
78626W        W43611  34.731  18.553   2.305
78627W        W43612  40.117  28.007   1.839
78628W        W43613   8.189  36.841   2.236
78629W        W43614  21.943  12.327   3.339
78630W        W43615  13.309  39.289   4.170
78631W        W43616  40.324  19.151   1.661
78632W        W43617   9.785  32.598   1.848
78633W        W43618   5.458   6.940  14.888
78634W        W43619   5.923  37.104  10.552
78635W        W43620   6.449  22.512   1.316
78636W        W43621   1.012  13.169  14.120
78637W        W43622  38.118  16.034  11.056
78638W        W43623  20.056  20.178  11.057
78639W        W43624  11.537  35.787  13.446
78640W        W43625   9.058  16.161   0.201
78641W        W43626   5.106  23.134  14.648
78642W        W43627   2.792   6.922   3.369
78643W        W43628  29.612  21.750   1.242
78644W        W43629   7.692   5.409  11.878
78645W        W43630  25.672  17.687  12.931
78646W        W43631  38.363  42.363  10.709
78647W        W43632   4.467  30.714   5.045
78648W        W43633  18.332  24.673  12.960
78649W        W43634  36.331   8.247  14.506
78650W        W43635  22.984   8.709   4.163
78651W        W43636  26.526  34.155   4.364
78652W        W43637  32.966  38.069  10.693
78653W        W43638  17.802  33.410   4.266
78654W        W43639   0.516  32.679  12.596
78655W        W43640   9.087  41.972   0.798
78656W        W43641  41.266  35.289   1.965
78657W        W43642   7.970  40.133  14.001
78658W        W43643  10.158   5.508  14.279
78659W        W43644   1.453  30.922  11.681
78660W        W43645  26.440  13.397  12.011
78661W        W43646  25.751  19.060  12.508
78662W        W43647  35.111  36.622  13.332
78663W        W43648   7.782  33.470  13.017
78664W        W43649  15.128  41.827  14.875
78665W        W43650   0.239  24.366  13.376
78666W        W43651  14.566  32.087   3.081
78667W        W43652  41.229  37.100   4.737
78668W        W43653   2.231   5.192  12.873
78669W        W43654  28.981  33.930  13.884
78670W        W43655  44.801   0.281  12.369
78671W        W43656   0.259  10.380  10.755
78672W        W43657  22.259  15.260  10.510
78673W        W43658  39.451  26.562  12.778
78674W        W43659   6.322  40.570   4.214
78675W        W43660  43.484  36.775   3.605
78676W        W43661  23.987  36.611  14.175
78677W        W43662  29.413  22.708   0.301
78678W        W43663  37.394  33.950  12.515
78679W        W43664  19.270   1.255   0.503
78680W        W43665  42.364   3.890  13.073
78681W        W43666  27.259  28.659   1.197
78682W        W43667  34.308  20.398  13.008
78683W        W43668  13.443  38.532   1.304
78684W        W43669  40.283   7.772   3.374
78685W        W43670  16.049   3.779   5.172
78686W        W43671  25.898   0.364  13.893
78687W        W43672  25.298  11.217  12.389
78688W        W43673  34.109  14.955   4.331
78689W        W43674  12.362  27.547   0.989
78690W        W43675  25.743  14.310   4.812
78691W        W43676  25.094   4.762   4.239
78692W        W43677  23.435  13.116  13.058
78693W        W43678  14.486  32.958   1.861
78694W        W43679  39.576  10.352  11.572
78695W        W43680  23.107  20.014   4.184
78696W        W43681  27.155  16.238   0.902
78697W        W43682  32.198   0.953  12.976
78698W        W43683  44.983  43.744  12.512
78699W        W43684  36.117  36.359  10.850
78700W        W43685  10.213  20.206  13.765
78701W        W43686  16.210  27.311  14.564
78702W        W43687  28.499  13.538  12.031
78703W        W43688  43.421  44.269   3.186
78704W        W43689  14.116  23.458  12.994
78705W        W43690  42.584  26.598  10.764
78706W        W43691   8.205   5.615  13.425
78707W        W43692  36.961  14.083   0.651
78708W        W43693  10.171   0.469   2.908
78709W        W43694   5.116   5.310   1.963
78710W        W43695  13.569  40.833  11.393
78711W        W43696  36.426  44.399  14.431
78712W        W43697  42.763  13.362  13.729
78713W        W43698  38.314   7.344  14.760
78714W        W43699  36.861   7.350  13.356
78715W        W43700  34.214  44.304  14.865
78716W        W43701   1.205  43.269   2.731
78717W        W43702  10.393  12.769  12.301
78718W        W43703  14.148   1.822   4.487
78719W        W43704  42.971  13.742  11.071
78720W        W43705   9.816  32.857  14.557
78721W        W43706  22.447  15.846  10.484
78722W        W43707  20.223  40.351   4.114
78723W        W43708  41.235  28.162   4.389
78724W        W43709  39.404  17.831  13.085
78725W        W43710  27.109  42.994   1.044
78726W        W43711  21.973  28.327  13.810
78727W        W43712  36.119  42.964   4.247
78728W        W43713  40.422  38.961   0.591
78729W        W43714  23.167  22.524  10.115
78730W        W43715   4.890   3.203  11.551
78731W        W43716  14.589  37.375  13.200
78732W        W43717  40.711  42.348  10.660
78733W        W43718  38.121  10.151   9.803
78734W        W43719  40.875  43.304  10.636
78735W        W43720   2.877  25.685   4.755
78736W        W43721  26.576  23.513   1.027
78737W        W43722  36.902  27.754  11.574
78738W        W43723  29.025  36.205  14.489
78739W        W43724  43.435  39.848  11.589
78740W        W43725   2.302  19.350  10.926
78741W        W43726  32.190  31.120  14.925
78742W        W43727  41.085  22.306  13.904
78743W        W43728   9.163  12.236  11.605
78744W        W43729  14.176  32.130  14.375
78745W        W43730  31.816  18.191   3.513
78746W        W43731  22.106  31.568   3.628
78747W        W43732  41.087   9.136   2.746
78748W        W43733  29.675   3.943   1.363
78749W        W43734  34.250  19.073  12.909
78750W        W43735  26.005  43.446   3.413
78751W        W43736  26.657  39.297   1.851
78752W        W43737  13.347  22.161   2.736
78753W        W43738  35.370  32.997   3.705
78754W        W43739  31.575  44.716   2.270
78755W        W43740  19.981   4.421   0.406
78756W        W43741   8.341  17.135  11.621
78757W        W43742  14.945  23.109  14.878
78758W        W43743  20.032  28.203  12.204
78759W        W43744   2.177  21.205   0.392
78760W        W43745   0.348  18.677   3.706
78761W        W43746  44.854  38.361   0.946
78762W        W43747  38.592  24.513  11.993
78763W        W43748   3.268   6.613   1.094
78764W        W43749  41.619  15.058  12.047
78765W        W43750  19.001  25.536   3.698
78766W        W43751  18.390  43.465  10.723
78767W        W43752  27.648  14.344  11.297
78768W        W43753  35.044  35.488   0.774
78769W        W43754  13.737  27.933   5.212
78770W        W43755  17.049  40.465  12.833
78771W        W43756  26.937  37.146  13.460
78772W        W43757  28.160  34.970  12.971
78773W        W43758  22.161  27.221  11.119
78774W        W43759  36.758   9.010  10.277
78775W        W43760  28.167  32.583  12.666
78776W        W43761  10.897  10.210  12.996
78777W        W43762  39.361   1.520  13.347
78778W        W43763  41.089  34.410   5.493
78779W        W43764  14.045  29.552   3.774
78780W        W43765  24.778   3.855   2.825
78781W        W43766  35.985  16.971  14.450
78782W        W43767   5.753  31.185   1.833
78783W        W43768   7.220  34.065   3.162
78784W        W43769  25.069  38.105  13.393
78785W        W43770   1.735  14.242  14.279
78786W        W43771  28.188  30.285   2.860
78787W        W43772   2.085  31.395   0.375
78788W        W43773  15.216  12.850  12.471
78789W        W43774  35.559  30.314  14.002
78790W        W43775  32.466  38.302  14.480
78791W        W43776  12.522  33.310   1.266
78792W        W43777  40.084   2.450   3.718
78793W        W43778  17.611  14.623  14.457
78794W        W43779  21.020  28.617   4.330
78795W        W43780   9.942  21.450   4.109
78796W        W43781  34.173  32.489  10.589
78797W        W43782  17.067  34.602  11.927
78798W        W43783  33.376  36.625   3.776
78799W        W43784  37.722   3.778   4.228
78800W        W43785   1.958  21.536   0.720
78801W        W43786  27.677  27.737  14.319
78802W        W43787   2.021  26.990   3.255
78803W        W43788  22.547  26.703  13.655
78804W        W43789   0.949  40.352   3.107
78805W        W43790  25.420  41.332   0.423
78806W        W43791  41.925  30.641   4.976
78807W        W43792   3.657  37.271   2.833
78808W        W43793  18.749   4.564   3.103
78809W        W43794  37.371   3.030  11.665
78810W        W43795   7.642  12.771   0.281
78811W        W43796  30.346  18.794  13.153
78812W        W43797  18.173   2.369   1.688
78813W        W43798  22.626  29.131  10.715
78814W        W43799  33.894  42.527   4.298
78815W        W43800  13.493  35.761   5.180
78816W        W43801  44.396  40.559  13.904
78817W        W43802  42.056  23.923   0.239
78818W        W43803  19.793  18.996  14.913
78819W        W43804  18.367   8.952  10.246
78820W        W43805  28.549   2.593   4.925
78821W        W43806  31.601   3.785  13.372
78822W        W43807  44.911   3.416  11.497
78823W        W43808  11.074  31.443  13.372
78824W        W43809  23.643   9.863  12.126
78825W        W43810  14.102  31.453   0.420
78826W        W43811  22.627   5.886   3.816
78827W        W43812   4.460  24.468   1.276
78828W        W43813  43.281   1.073   4.744
78829W        W43814  27.814   5.782  11.172
78830W        W43815  18.679   6.972  14.679
78831W        W43816  25.067  36.403   2.575
78832W        W43817  10.222  17.955   2.916
78833W        W43818   4.710  37.338  12.463
78834W        W43819  40.656  22.894  12.909
78835W        W43820   3.283  31.355  11.575
78836W        W43821  39.981  40.616  10.758
78837W        W43822  18.858   6.452   0.350
78838W        W43823  27.536  36.564  14.548
78839W        W43824  38.320  12.686   4.105
78840W        W43825  23.024  29.131  14.108
78841W        W43826   3.935  17.584   4.740
78842W        W43827  36.835   2.320  13.854
78843W        W43828  18.849  40.548   3.885
78844W        W43829  34.107  12.236  13.460
78845W        W43830  10.357  38.527   2.778
78846W        W43831  16.740  19.230   4.172
78847W        W43832  21.132  15.712  12.626
78848W        W43833  27.449   7.746  14.317
78849W        W43834  23.235  35.489   0.240
78850W        W43835  34.581  25.807   3.581
78851W        W43836  37.880  24.644   3.823
78852W        W43837  23.119  40.809   1.621
78853W        W43838  19.606  27.742   4.728
78854W        W43839  24.213  21.134  14.691
78855W        W43840  37.054  10.941   3.661
78856W        W43841  23.974  16.895  13.316
78857W        W43842   5.081  18.235   1.085
78858W        W43843  38.311   5.858   1.736
78859W        W43844  28.130   6.572  11.671
78860W        W43845  38.749  42.244  13.819
78861W        W43846   5.296  26.026   0.274
78862W        W43847  19.522   6.971  10.761
78863W        W43848  18.363  35.087   0.407
78864W        W43849  25.931  24.036   2.719
78865W        W43850  16.711  19.610  11.843
78866W        W43851   1.378  43.514  11.966
78867W        W43852  23.906  35.493  10.574
78868W        W43853  29.281   9.660   4.154
78869W        W43854   3.435   8.152  14.851
78870W        W43855   0.249  37.366  11.427
78871W        W43856  35.266   8.676   2.298
78872W        W43857  37.958  20.175  12.018
78873W        W43858  27.644  30.063  10.460
78874W        W43859  29.765   9.792   4.195
78875W        W43860  30.341  30.279   3.250
78876W        W43861   6.114   4.354   0.937
78877W        W43862  18.520  20.904  11.561
78878W        W43863  18.018  21.741   2.672
78879W        W43864  22.791   5.859   3.337
78880W        W43865   1.983  23.083   4.624
78881W        W43866  43.364  26.560   1.209
78882W        W43867   9.947   8.588  11.521
78883W        W43868  41.368   5.354  12.104
78884W        W43869   9.823  10.696  11.881
78885W        W43870  27.938  25.122   2.765
78886W        W43871  30.354  24.990  13.103
78887W        W43872  20.538  33.906  12.375
78888W        W43873  12.994  44.000   0.726
78889W        W43874  39.867  26.839   0.733
78890W        W43875  22.102   0.549   1.526
78891W        W43876  22.152  29.611   0.382
78892W        W43877  26.636  13.162  13.457
78893W        W43878  22.471  13.154   3.759
78894W        W43879  44.962  30.596   1.415
78895W        W43880  43.010   3.787  12.656
78896W        W43881  31.902  31.638   0.849
78897W        W43882  21.636   8.130   1.298
78898W        W43883  24.738  38.988  10.654
78899W        W43884  16.254  42.921   3.720
78900W        W43885  34.077   1.210  12.392
78901W        W43886   1.320  36.870   2.279
78902W        W43887  39.563  11.404  14.855
78903W        W43888  14.624  21.064  14.389
78904W        W43889  29.219  19.142  13.866
78905W        W43890  20.964  44.479   4.180
78906W        W43891  11.784   7.113  14.255
78907W        W43892   2.050  12.800  12.651
78908W        W43893   1.113   6.193   2.831
78909W        W43894  35.799   2.885  14.442
78910W        W43895  15.356  33.716  13.939
78911W        W43896  22.136  22.926  10.627
78912W        W43897  37.911  38.578   0.465
78913W        W43898  17.164  20.325  11.498
78914W        W43899  30.026  22.756  11.591
78915W        W43900  36.100  14.688  13.599
78916W        W43901  17.684  20.174   3.639
78917W        W43902  43.465  22.075   4.097
78918W        W43903  19.592  32.439   1.175
78919W        W43904   3.023   2.889   1.375
78920W        W43905  29.939  44.816  11.601
78921W        W43906  38.508  39.572  11.220
78922W        W43907  31.555  10.276  12.603
78923W        W43908  20.480  23.652   2.285
78924W        W43909  30.992  13.528   3.664
78925W        W43910  34.313  16.266  11.125
78926W        W43911  11.687  33.857   2.674
78927W        W43912  19.820  21.517   2.914
78928W        W43913  11.133   2.808  14.511
78929W        W43914  19.107  24.664  12.251
78930W        W43915   5.425  15.574  14.497
78931W        W43916  41.385   3.395   2.480
78932W        W43917  42.475   3.766  10.981
78933W        W43918  36.904  20.161   2.684
78934W        W43919   2.535   9.674  10.469
78935W        W43920  35.927  40.987  13.464
78936W        W43921   8.325  13.470   4.617
78937W        W43922  38.917  32.918   2.781
78938W        W43923  25.998  35.927   0.958
78939W        W43924  40.853  13.041  12.429
78940W        W43925  10.119   2.980   5.034
78941W        W43926  32.344   3.969   2.156
78942W        W43927  19.823  11.152  14.700
78943W        W43928   2.521   2.790   1.196
78944W        W43929  43.318  40.852  14.485
78945W        W43930   1.947  12.177  14.894
78946W        W43931  44.938   9.407   1.448
78947W        W43932  14.157  38.182   1.935
78948W        W43933  34.993  31.564   0.343
78949W        W43934  19.569   7.792  12.966
78950W        W43935   1.985  14.447  13.454
78951W        W43936  23.335  38.040   3.675
78952W        W43937  15.110  23.246  14.422
78953W        W43938  21.317  27.740  10.244
78954W        W43939   3.434   5.888   2.461
78955W        W43940  17.877  18.150   4.144
78956W        W43941  24.619  23.095   2.685
78957W        W43942  27.159  13.656   0.575
78958W        W43943  44.911  27.580  12.293
78959W        W43944   7.039  13.130  14.197
78960W        W43945   8.777  14.119   4.672
78961W        W43946  17.771  17.003   1.774
78962W        W43947  31.562  17.152   3.853
78963W        W43948  28.435   9.174  11.745
78964W        W43949  38.003  12.818   0.864
78965W        W43950  35.609  16.807   0.691
78966W        W43951   0.852  27.414  12.113
78967W        W43952  29.697   9.577   0.954
78968W        W43953   1.527  30.630  14.530
78969W        W43954  30.663  10.022   4.583
78970W        W43955  27.725   8.005  13.969
78971W        W43956  12.230  38.146   0.350
78972W        W43957  44.729  28.792  10.523
78973W        W43958   7.392  12.827  13.907
78974W        W43959  16.851  19.668   0.928
78975W        W43960  15.587  33.578   3.693
78976W        W43961   0.419  23.763  10.502
78977W        W43962  20.517  42.797  14.925
78978W        W43963   1.798  38.139  14.285
78979W        W43964  39.525  13.743   5.107
78980W        W43965  33.464  40.454   2.639
78981W        W43966   6.370  16.574  10.831
78982W        W43967  14.922  30.204  13.463
78983W        W43968  30.983  24.049  10.802
78984W        W43969   9.777  44.868   2.386
78985W        W43970  20.762   9.451   0.306
78986W        W43971  13.802  34.490   0.726
78987W        W43972   7.740  12.449  11.143
78988W        W43973  19.771  30.187  12.507
78989W        W43974   2.536  31.441   2.904
78990W        W43975  33.450  39.057  11.248
78991W        W43976  40.849  12.739  13.585
78992W        W43977  41.174  44.412   0.985
78993W        W43978  10.184  21.807   2.388
78994W        W43979   3.012   0.909   3.856
78995W        W43980   7.412  18.166  11.175
78996W        W43981  14.627  16.056  10.419
78997W        W43982  15.732   3.358   5.102
78998W        W43983  40.943  40.093  13.425
78999W        W43984  44.109  39.512   2.744
79000W        W43985  40.774  28.015  13.611
79001W        W43986  36.560  31.527  10.660
79002W        W43987   9.687  21.796   3.206
79003W        W43988  16.847  13.159  13.910
79004W        W43989  13.292  42.969   1.906
79005W        W43990  37.778  42.339   4.194
79006W        W43991  23.214  20.760   4.701
79007W        W43992   8.189  26.377   0.896
79008W        W43993  29.066  30.171   2.725
79009W        W43994  44.910  19.597   5.708
79010W        W43995  39.764  35.940   2.686
79011W        W43996  28.039  12.020  10.576
79012W        W43997  33.545  20.318   3.584
79013W        W43998  39.647  37.765  11.794
79014W        W43999  43.088  14.256   2.703
79015W        W44000  11.921  43.743  14.845
79016W        W44001  19.628  16.098   4.060
79017W        W44002  42.654  16.151  11.646
79018W        W44003  44.905  18.170  10.990
79019W        W44004   2.909  21.951   2.844
79020W        W44005  40.574  23.638   0.199
79021W        W44006   8.961  37.548   0.341
79022W        W44007  24.807   3.313  11.227
79023W        W44008  16.035  33.045   4.700
79024W        W44009  13.131  32.213   0.961
79025W        W44010  36.310  17.800   3.399
79026W        W44011  35.560   7.214   4.901
79027W        W44012  11.142  38.534   4.577
79028W        W44013  16.652   4.985   2.213
79029W        W44014  37.314  10.325  11.433
79030W        W44015  37.477   0.537   4.100
79031W        W44016  31.634  25.056  13.081
79032W        W44017  19.271  40.926   3.423
79033W        W44018  41.745  28.029   0.919
79034W        W44019  36.920  18.832  12.444
79035W        W44020  28.000  38.384   4.090
79036W        W44021  12.395   9.809   4.264
79037W        W44022  31.753  36.415   4.410
79038W        W44023  17.263  22.771   3.202
79039W        W44024  33.598  35.935   2.453
79040W        W44025  17.242   2.533  11.969
79041W        W44026  34.131  19.075  11.698
79042W        W44027  31.135  28.555  11.617
79043W        W44028  39.365   9.383  13.068
79044W        W44029   8.808  42.990  11.745
79045W        W44030  33.093  34.103   0.074
79046W        W44031   7.549  44.301   1.990
79047W        W44032  31.519  22.055  14.737
79048W        W44033   5.653  25.483   2.174
79049W        W44034  11.022   3.673   2.476
79050W        W44035  20.250   1.011   1.696
79051W        W44036  21.666  24.489   0.408
79052W        W44037  38.945  17.483  14.362
79053W        W44038  16.572  34.614   4.563
79054W        W44039  26.730  22.935   3.464
79055W        W44040  28.694  13.515  11.120
79056W        W44041  19.992  42.503   1.689
79057W        W44042   1.801  34.595  13.447
79058W        W44043   3.693  32.361   0.723
79059W        W44044  15.734   5.494  12.668
79060W        W44045   5.098  16.226   1.775
79061W        W44046  37.343  11.134   0.051
79062W        W44047  41.313   1.305   2.252
79063W        W44048  18.101  19.039   1.408
79064W        W44049  35.016  30.676  14.725
79065W        W44050  10.640  19.085  13.016
79066W        W44051  35.830   5.664   1.864
79067W        W44052  15.641   3.349  10.930
79068W        W44053  27.993  14.588  11.599
79069W        W44054  33.972   1.711   0.005
79070W        W44055  14.156   1.863   1.090
79071W        W44056   5.174  29.480   2.178
79072W        W44057  35.384  40.402   3.116
79073W        W44058  35.616   0.790  11.267
79074W        W44059  34.511  12.085   0.428
79075W        W44060  23.655  14.849   0.625
79076W        W44061   5.694  39.329  13.997
79077W        W44062  11.655  29.201   3.335
79078W        W44063   1.492  26.051  14.924
79079W        W44064  13.211  42.033   4.455
79080W        W44065  23.964  33.163  14.294
79081W        W44066  17.025  36.547   3.240
79082W        W44067  30.686  30.708   2.321
79083W        W44068   3.698  34.045  10.655
79084W        W44069  17.082   8.273  11.949
79085W        W44070  42.719   3.425  14.394
79086W        W44071  35.884  14.132  11.641
79087W        W44072  43.204   1.423   3.098
79088W        W44073  28.414   1.376   2.740
79089W        W44074   3.671  10.506  14.806
79090W        W44075   0.457  18.489   4.228
79091W        W44076  42.986  12.962   1.310
79092W        W44077   7.194  41.476   4.630
79093W        W44078  22.298   0.278  13.884
79094W        W44079  32.555  44.544   4.491
79095W        W44080  34.415  37.905   2.708
79096W        W44081   7.270  37.718  13.116
79097W        W44082  32.409   0.833  13.968
79098W        W44083  10.632  24.411   4.877
79099W        W44084  14.712   5.852   1.797
79100W        W44085  12.146  22.103  12.422
79101W        W44086  37.685  38.015  14.785
79102W        W44087  19.355  31.418  11.085
79103W        W44088  25.480   5.572   4.240
79104W        W44089   9.828  35.017   3.690
79105W        W44090  44.872  39.787   1.286
79106W        W44091  15.526  24.588   4.482
79107W        W44092   2.017   1.928   0.985
79108W        W44093  21.356  41.757  13.773
79109W        W44094   6.924  34.122   4.727
79110W        W44095  24.831  13.326  10.433
79111W        W44096   2.643  24.515   1.323
79112W        W44097  13.820   8.269  13.854
79113W        W44098  40.282  29.209   2.634
79114W        W44099  30.134   2.488   0.888
79115W        W44100   0.927  15.375   2.265
79116W        W44101  33.495  19.618   2.074
79117W        W44102   1.938  35.547  12.614
79118W        W44103  36.699  10.081  13.801
79119W        W44104   9.257  33.818  14.051
79120W        W44105  28.414  32.425   0.289
79121W        W44106  20.151  14.180  14.852
79122W        W44107   2.758  20.007  13.589
79123W        W44108  18.289  26.973  13.480
79124W        W44109  15.123  25.689   1.232
79125W        W44110  16.375  36.801  11.738
79126W        W44111  33.087  44.313   4.320
79127W        W44112  30.431  19.613   3.597
79128W        W44113  29.953   1.363   5.067
79129W        W44114  16.556  16.207   3.848
79130W        W44115  11.223  11.767   0.091
79131W        W44116  31.417  25.873  13.591
79132W        W44117   5.824  14.630  14.664
79133W        W44118  30.268  10.900   1.244
79134W        W44119   5.643  41.454  11.419
79135W        W44120   7.306  36.178  11.169
79136W        W44121  14.540  13.689   4.179
79137W        W44122   1.699   9.850   0.985
79138W        W44123  14.796  44.315  13.080
79139W        W44124   2.862   8.896   1.874
79140W        W44125   5.132  18.939   3.997
79141W        W44126  29.449   4.687  11.876
79142W        W44127  32.333  12.440   4.275
79143W        W44128  20.234   4.060  10.140
79144W        W44129  19.808  40.500  11.203
79145W        W44130  15.380  26.120  13.813
79146W        W44131  44.401  40.513   0.769
79147W        W44132  24.214   7.467  14.287
79148W        W44133  34.699  14.622  14.328
79149W        W44134  15.710  11.741   5.070
79150W        W44135  40.712  24.256   3.185
79151W        W44136   9.514   5.242   1.310
79152W        W44137   6.418  21.570  10.790
79153W        W44138   5.183   3.245   1.145
79154W        W44139   3.785   8.654   0.302
79155W        W44140   0.698  19.807  10.008
79156W        W44141  34.987  42.072  12.147
79157W        W44142   3.542  28.029  10.269
79158W        W44143  31.477  39.535  14.235
79159W        W44144  13.997  15.884  11.033
79160W        W44145   2.453   8.069   0.781
79161W        W44146  20.178  38.890  12.930
79162W        W44147  42.512  20.822   0.913
79163W        W44148  44.998  15.540  14.033
79164W        W44149   3.662  16.862  11.532
79165W        W44150  44.300  25.350   4.176
79166W        W44151  24.040  24.686   4.954
79167W        W44152   5.988  28.040   0.926
79168W        W44153   3.761  31.890   3.713
79169W        W44154   7.705  36.595  12.537
79170W        W44155  14.044   4.128   0.877
79171W        W44156  34.980   9.849  12.588
79172W        W44157  33.039   6.703   1.863
79173W        W44158  35.497  11.128   1.208
79174W        W44159  34.817  38.338  10.733
79175W        W44160   4.747   9.475   0.807
79176W        W44161  18.046  23.919  11.177
79177W        W44162   8.423  15.167  14.511
79178W        W44163  34.055  12.221  11.331
79179W        W44164  43.565  13.908  13.471
79180W        W44165  24.286  34.616  13.387
79181W        W44166  44.893   5.693   2.347
79182W        W44167   6.910  40.744   1.231
79183W        W44168  40.331  20.042   1.681
79184W        W44169  42.949  27.714  14.916
79185W        W44170  38.853  21.799   2.552
79186W        W44171  42.192  40.064  11.195
79187W        W44172  31.980  34.835  14.301
79188W        W44173  42.389  29.723   3.425
79189W        W44174  34.244  24.301  12.492
79190W        W44175   4.463  15.801  11.445
79191W        W44176  34.624   5.064  13.429
79192W        W44177  40.996  43.293  13.704
79193W        W44178  19.568  38.438  12.128
79194W        W44179   6.768  32.418  10.680
79195W        W44180  37.225  17.145  12.042
79196W        W44181   6.412  29.059  11.204
79197W        W44182  22.728   1.369   2.203
79198W        W44183   2.848   6.988   4.839
79199W        W44184   4.396  22.015   3.893
79200W        W44185  40.198   8.281   0.880
79201W        W44186  22.346  43.655   2.849
79202W        W44187   1.580  17.730  13.170
79203W        W44188  42.380  36.068   0.931
79204W        W44189   5.663  14.735   0.841
79205W        W44190   7.306  32.930  11.935
79206W        W44191  34.561  21.767   3.785
79207W        W44192  13.672  31.832  10.715
79208W        W44193  26.066  21.095  13.270
79209W        W44194  10.280  33.053  14.427
79210W        W44195   1.998  16.879   0.445
79211W        W44196   0.405  17.698  14.450
79212W        W44197  13.750   2.370  12.551
79213W        W44198  26.459   9.909  13.077
79214W        W44199  16.211  14.071  12.486
79215W        W44200  22.216   0.252   4.248
79216W        W44201  21.306   3.131   2.399
79217W        W44202  42.897  18.809   4.146
79218W        W44203  40.941   9.436   2.358
79219W        W44204  25.269   6.736  12.428
79220W        W44205  25.964  33.350  14.393
79221W        W44206   5.974  13.030   0.042
79222W        W44207  38.529  42.311   1.490
79223W        W44208  12.734  19.066  10.906
79224W        W44209  12.612  23.653  13.100
79225W        W44210  10.401   7.618  13.414
79226W        W44211  40.982  28.412   0.771
79227W        W44212  16.508   3.661   9.429
79228W        W44213   3.501  22.327  11.570
79229W        W44214  29.021  26.759  10.336
79230W        W44215   6.024  32.436  12.464
79231W        W44216  35.417   0.995  12.925
79232W        W44217   9.332  20.526  13.028
79233W        W44218  21.121  15.265  11.889
79234W        W44219  38.908  20.350   9.837
79235W        W44220  20.068  10.287   4.105
79236W        W44221  23.061  29.555   0.402
79237W        W44222  43.507  24.810  14.141
79238W        W44223  20.669  30.377   3.399
79239W        W44224  44.241   9.486  12.766
79240W        W44225  11.850  15.219   3.784
79241W        W44226  41.734  36.499   1.899
79242W        W44227  33.391  35.941  13.419
79243W        W44228  10.960  26.985   1.388
79244W        W44229  23.917   2.435  14.775
79245W        W44230  17.598  16.403  13.265
79246W        W44231   3.184   6.882   1.512
79247W        W44232  23.988   2.544  12.085
79248W        W44233   5.070   0.540  10.289
79249W        W44234   2.131  24.990  11.036
79250W        W44235  40.538  24.466   2.171
79251W        W44236  35.428  37.103  10.689
79252W        W44237  41.275  17.246  12.394
79253W        W44238   1.240  44.046  13.341
79254W        W44239  33.553  21.359   3.742
79255W        W44240  34.815   7.392   1.415
79256W        W44241  17.102  44.339   2.277
79257W        W44242  39.550  44.663  13.918
79258W        W44243   8.646  24.193  14.924
79259W        W44244  42.392  13.439  10.644
79260W        W44245   3.996  10.703  13.233
79261W        W44246   7.722  26.698   0.924
79262W        W44247  37.361   4.854   3.730
79263W        W44248   4.388  34.887   1.994
79264W        W44249  24.553  24.998  13.039
79265W        W44250  34.457  30.541   4.548
79266W        W44251   5.017  14.312  11.411
79267W        W44252   1.038  40.405   4.017
79268W        W44253  13.404  43.851   3.175
79269W        W44254  18.037  20.375  11.551
79270W        W44255  16.718  33.239   2.393
79271W        W44256  33.773  26.927  12.307
79272W        W44257  25.554  12.184   4.798
79273W        W44258  34.471  24.034  12.883
79274W        W44259  36.903  24.760  10.856
79275W        W44260  26.491  23.586   1.637
79276W        W44261   3.023  17.393  10.993
79277W        W44262   8.866  35.489  11.918
79278W        W44263   0.878  15.136  10.556
79279W        W44264  17.560  44.794  12.118
79280W        W44265  40.769  10.751   2.789
79281W        W44266  22.791  19.729   0.500
79282W        W44267  28.095  13.496   4.597
79283W        W44268   7.463   0.800   2.243
79284W        W44269   7.712  34.401   4.967
79285W        W44270  36.481   5.828  12.565
79286W        W44271  31.627  28.958  11.095
79287W        W44272   7.400  29.161  13.539
79288W        W44273  43.582  25.176   1.314
79289W        W44274  21.259   5.451  13.467
79290W        W44275   0.301  11.832  13.897
79291W        W44276  17.921  26.580  10.008
79292W        W44277  32.469  37.580   0.887
79293W        W44278  32.607   1.365   0.936
79294W        W44279  12.747  33.513   1.670
79295W        W44280   9.816  40.699   0.725
79296W        W44281  16.801  26.611  11.986
79297W        W44282  21.176   4.169  14.141
79298W        W44283   0.070   5.433  11.575
79299W        W44284  16.474  36.933  14.406
79300W        W44285  23.241  41.254   2.867
79301W        W44286   0.470   3.988  10.800
79302W        W44287  11.077  28.922   1.374
79303W        W44288   9.495  22.869   4.091
79304W        W44289  10.931  22.126   0.454
79305W        W44290   4.003  35.435   3.792
79306W        W44291  34.849  16.413   4.108
79307W        W44292  43.484  26.531  11.554
79308W        W44293  43.773  32.070  12.830
79309W        W44294   6.734  30.705  11.203
79310W        W44295  15.976  18.522  12.017
79311W        W44296  28.994  32.464  11.713
79312W        W44297   5.801  44.964  10.343
79313W        W44298  41.935  32.223  11.546
79314W        W44299  14.702  44.674  10.673
79315W        W44300  38.841  18.863   5.053
79316W        W44301   8.355  16.828   0.649
79317W        W44302  30.997  43.368  14.962
79318W        W44303  11.124  28.718  13.326
79319W        W44304  11.360   5.836  14.815
79320W        W44305  10.792  12.595   4.048
79321W        W44306  43.247   0.086   0.832
79322W        W44307   2.860  42.730  13.447
79323W        W44308  15.134  42.522  10.705
79324W        W44309  12.404  27.593  13.916
79325W        W44310  41.045  19.237   0.666
79326W        W44311  27.747  23.940  12.885
79327W        W44312  12.954   4.858  11.466
79328W        W44313  38.486  20.061   4.252
79329W        W44314  29.923   1.823  11.512
79330W        W44315  27.595  28.540   3.924
79331W        W44316  23.103  27.630  12.503
79332W        W44317  10.910   1.841  14.110
79333W        W44318  39.459  42.102  12.143
79334W        W44319  10.290  39.055   2.771
79335W        W44320  27.789  41.320   4.278
79336W        W44321  14.569  36.077  10.801
79337W        W44322  23.427  36.965  12.536
79338W        W44323  16.120   1.718   0.287
79339W        W44324   0.773  23.826  11.135
79340W        W44325  19.198   4.456   4.668
79341W        W44326  38.893   4.564  10.703
79342W        W44327  34.085   0.016   2.229
79343W        W44328  32.515   7.812   5.002
79344W        W44329  35.017   5.633  13.957
79345W        W44330  26.961  14.708  11.823
79346W        W44331  12.817  36.082  13.769
79347W        W44332  13.580  12.818  12.929
79348W        W44333  26.386   1.153  12.005
79349W        W44334  14.575  11.238   1.813
79350W        W44335  37.316  27.244  14.282
79351W        W44336  21.555  13.787   4.283
79352W        W44337  19.201  20.863   0.874
79353W        W44338  11.836  41.506  14.738
79354W        W44339  16.610  29.031  12.009
79355W        W44340  39.502  17.141  12.423
79356W        W44341  16.269  18.710   2.689
79357W        W44342   5.488   6.463  11.060
79358W        W44343  10.295   8.978  11.469
79359W        W44344  11.144  27.552  10.512
79360W        W44345  42.510  31.457   0.041
79361W        W44346  12.924  38.834   0.252
79362W        W44347   7.895  42.406   0.872
79363W        W44348  43.573  18.621  13.438
79364W        W44349   1.210   9.304   1.909
79365W        W44350  19.972   5.452  12.139
79366W        W44351  21.268  23.119   3.154
79367W        W44352  14.609  26.089   1.854
79368W        W44353   9.636  12.728  13.098
79369W        W44354   7.884   5.645   3.232
79370W        W44355  36.827  10.679  14.736
79371W        W44356  28.418  37.231   2.231
79372W        W44357   1.757   3.857  14.087
79373W        W44358  26.234  14.784  13.033
79374W        W44359  32.525  28.112   1.081
79375W        W44360  26.116  36.537  12.524
79376W        W44361  44.317  20.941  13.979
79377W        W44362   9.468   1.148  14.485
79378W        W44363  24.930  30.759   2.703
79379W        W44364  15.555   4.436  13.331
79380W        W44365  32.598  35.012  11.975
79381W        W44366   2.487  26.034   4.722
79382W        W44367  24.066  33.533   0.082
79383W        W44368  41.933   4.208  13.061
79384W        W44369   7.857  23.780  12.008
79385W        W44370   5.262  26.253  13.944
79386W        W44371  42.918  16.315   2.116
79387W        W44372   9.791  38.683  14.831
79388W        W44373  26.005  30.401   3.122
79389W        W44374  40.909  41.892  11.512
79390W        W44375  43.282  16.025  11.916
79391W        W44376   5.400  13.114  14.369
79392W        W44377   3.414  26.139   3.761
79393W        W44378  31.759  38.002  14.971
79394W        W44379  15.311  18.207  14.845
79395W        W44380   5.329   5.660   0.487
79396W        W44381  39.144  24.061  12.590
79397W        W44382  17.155   0.682   1.628
79398W        W44383   4.891  30.871  12.505
79399W        W44384   3.718  32.381  14.801
79400W        W44385  39.638   7.311   1.427
79401W        W44386  11.766  35.479   0.006
79402W        W44387  20.927  39.054  13.954
79403W        W44388  28.104  35.547  14.025
79404W        W44389  41.503  42.886   0.227
79405W        W44390  43.676  37.625   3.339
79406W        W44391  23.194  44.411   0.947
79407W        W44392   2.960  42.027   1.847
79408W        W44393  34.285  41.890   0.603
79409W        W44394  13.721   2.468  13.878
79410W        W44395  42.075  34.429  14.802
79411W        W44396  23.697   7.253   1.304
79412W        W44397  34.506   5.713   3.019
79413W        W44398  43.407   4.361   0.151
79414W        W44399  12.789   0.750   4.867
79415W        W44400  43.042  26.217   3.799
79416W        W44401  22.532  17.332   3.173
79417W        W44402  41.446  12.504   3.823
79418W        W44403  15.534  39.342   0.809
79419W        W44404  44.503  22.931  11.048
79420W        W44405  27.430  23.089   2.384
79421W        W44406  15.822   3.534   1.214
79422W        W44407  18.340  22.293  13.787
79423W        W44408  41.483  30.000  13.366
79424W        W44409  18.117   5.460  11.954
79425W        W44410   4.560  30.230  13.056
79426W        W44411  33.852  18.219  11.957
79427W        W44412   2.744   1.874  10.796
79428W        W44413  27.142  14.376  11.469
79429W        W44414  33.946   7.091  13.935
79430W        W44415  35.898  19.132   0.952
79431W        W44416  20.233   0.031  12.101
79432W        W44417  22.658  29.090  14.522
79433W        W44418   2.310  25.335   0.526
79434W        W44419   5.794  20.055  14.863
79435W        W44420  14.091  44.939   1.752
79436W        W44421  14.568   8.625  11.644
79437W        W44422  18.210  38.793  12.159
79438W        W44423  26.063  25.965  12.817
79439W        W44424  34.504   6.291  14.335
79440W        W44425   6.412  11.371  12.948
79441W        W44426  41.739  10.705   1.368
79442W        W44427  24.125  16.059   2.304
79443W        W44428  25.442  19.210  12.933
79444W        W44429  26.556   8.810  14.735
79445W        W44430  20.566  39.793  14.089
79446W        W44431  18.241  33.529   2.011
79447W        W44432  23.779  23.521  13.477
79448W        W44433  38.350   3.249   1.032
79449W        W44434   2.717  30.937   2.214
79450W        W44435  15.649  18.798   4.131
79451W        W44436  21.811  38.123   4.462
79452W        W44437  27.783  40.914   2.384
79453W        W44438  10.729   0.770   0.662
79454W        W44439  43.683  26.897   3.392
79455W        W44440  20.600   5.932   1.378
79456W        W44441   8.846   2.620   4.519
79457W        W44442  16.170  32.999  11.648
79458W        W44443  11.123  41.913   0.857
79459W        W44444  28.598   5.369  11.840
79460W        W44445   5.770  35.820   1.465
79461W        W44446   8.098  24.285   0.753
79462W        W44447  30.662  41.364  11.164
79463W        W44448   3.754  42.915  13.322
79464W        W44449  33.408  26.602   0.445
79465W        W44450   3.716  21.129  11.103
79466W        W44451  13.237  33.360  11.295
79467W        W44452  38.326   4.237  12.032
79468W        W44453  15.209   2.289  13.060
79469W        W44454  21.441  42.497  10.657
79470W        W44455   3.272  30.348  14.001
79471W        W44456   9.359  29.102  12.598
79472W        W44457  43.765  22.972  12.359
79473W        W44458  40.924   5.383   3.643
79474W        W44459  41.988   3.179   4.557
79475W        W44460  11.551  20.915  11.524
79476W        W44461   2.957   3.274  12.957
79477W        W44462  16.854  37.363  11.076
79478W        W44463   0.499  38.240  14.154
79479W        W44464  17.244  37.278  14.527
79480W        W44465  18.304  22.193   0.909
79481W        W44466  18.110  21.236   0.592
79482W        W44467  18.036  29.661   3.093
79483W        W44468   5.302  11.910   1.685
79484W        W44469  32.943  24.609  10.664
79485W        W44470  41.228  32.862   4.228
79486W        W44471  17.193  15.366  14.358
79487W        W44472   5.666  17.818   0.150
79488W        W44473  28.598  16.265  11.648
79489W        W44474  28.924   2.763   4.141
79490W        W44475  11.721  25.752  13.398
79491W        W44476   3.977  26.374  14.214
79492W        W44477   0.257   9.703   0.686
79493W        W44478   8.392   0.959   2.493
79494W        W44479  36.249  15.717   1.146
79495W        W44480  22.963   1.053   1.846
79496W        W44481  27.180  27.700  14.839
79497W        W44482   9.766  43.684   0.359
79498W        W44483  13.606  44.509   1.874
79499W        W44484   3.007  40.938   3.719
79500W        W44485  41.905  41.024   1.654
79501W        W44486   0.508   6.389   0.827
79502W        W44487  22.177  34.837  12.024
79503W        W44488  12.156  24.581  11.869
79504W        W44489  19.053  40.861   1.470
79505W        W44490  25.611  44.593   2.269
79506W        W44491  13.069   5.592   9.810
79507W        W44492  27.063  44.458   2.778
79508W        W44493  33.503  18.889  13.473
79509W        W44494  39.236  13.077   3.169
79510W        W44495  36.820  43.272   4.722
79511W        W44496   8.461  33.355   0.731
79512W        W44497  18.958  34.523  11.541
79513W        W44498  24.139  22.281  13.963
79514W        W44499  24.249  20.218  13.961
79515W        W44500  13.262  31.635   4.056
79516W        W44501   4.959  15.079   1.906
79517W        W44502  38.306  37.040  12.069
79518W        W44503  28.196  12.690  11.112
79519W        W44504  17.779  10.721   3.922
79520W        W44505  11.783  44.787   0.817
79521W        W44506   5.192  20.315   2.696
79522W        W44507  19.618   4.694  12.436
79523W        W44508  16.564  33.375  14.847
79524W        W44509  12.721  18.789  12.210
79525W        W44510  39.519   1.512   3.146
79526W        W44511  24.900  39.949   4.180
79527W        W44512   2.896  12.222   2.985
79528W        W44513  12.233   8.270   0.797
79529W        W44514  43.708  44.297  11.005
79530W        W44515   2.906  16.847  13.466
79531W        W44516  19.517  14.677   1.621
79532W        W44517   9.575  42.402  13.072
79533W        W44518   7.915   6.665   3.166
79534W        W44519   7.838  12.771   3.143
79535W        W44520  15.502  39.143   2.670
79536W        W44521  37.780  26.900   4.475
79537W        W44522   3.721   8.151   0.283
79538W        W44523  27.274  21.451  13.389
79539W        W44524  26.770  19.900   2.106
79540W        W44525  23.283  21.687  14.210
79541W        W44526  10.919  40.139   1.621
79542W        W44527  27.301  37.454   4.543
79543W        W44528  25.823  12.319  10.330
79544W        W44529  23.423  20.039  12.593
79545W        W44530   7.746  43.707   4.148
79546W        W44531  34.527  14.167  13.376
79547W        W44532  11.797   1.552  10.558
79548W        W44533  41.301  37.906   2.349
79549W        W44534   2.273   7.298   2.317
79550W        W44535  10.780  20.511  13.031
79551W        W44536  11.741  44.026   4.597
79552W        W44537  41.870   9.692   0.463
79553W        W44538  32.405   5.938   1.698
79554W        W44539  19.167   8.987  11.100
79555W        W44540  29.454  13.800  14.936
79556W        W44541  19.348   1.494   1.828
79557W        W44542  40.447  37.875   3.403
79558W        W44543   8.228  15.578   4.734
79559W        W44544   8.318   0.925   1.427
79560W        W44545  19.572  36.497   1.157
79561W        W44546  41.820   7.291   1.744
79562W        W44547  42.960  14.075  11.480
79563W        W44548  33.194  12.754   1.962
79564W        W44549  39.524  39.241   2.816
79565W        W44550  12.326   5.874   4.193
79566W        W44551  36.482  28.428  14.506
79567W        W44552  20.355  28.456  12.951
79568W        W44553  10.180  43.427  11.714
79569W        W44554  30.707  16.690  13.341
79570W        W44555   1.873  10.408   4.745
79571W        W44556  15.300  29.720  11.120
79572W        W44557  44.323  42.495   1.214
79573W        W44558  35.846  42.981  13.083
79574W        W44559   7.678  39.245  10.934
79575W        W44560  31.411   5.639  11.771
79576W        W44561  37.630  35.459  12.059
79577W        W44562  17.827  30.071  13.497
79578W        W44563  13.411   1.362   3.628
79579W        W44564  29.810  24.898   2.774
79580W        W44565  33.907  43.595  13.531
79581W        W44566  17.425  30.811   1.212
79582W        W44567  41.076  27.590   5.163
79583W        W44568  32.451  32.687  13.729
79584W        W44569  16.786  41.268  14.847
79585W        W44570  42.424  20.682  13.067
79586W        W44571   3.048   3.392  10.646
79587W        W44572  35.527  31.175   3.311
79588W        W44573  25.165  44.263  11.120
79589W        W44574  44.289  24.193  14.219
79590W        W44575   4.194   6.247   2.318
79591W        W44576  19.418  36.636   0.690
79592W        W44577  27.920  43.419   2.886
79593W        W44578  36.893   5.750   4.667
79594W        W44579   3.708  16.357  14.760
79595W        W44580  43.244  30.364   1.754
79596W        W44581  12.497  34.069  14.359
79597W        W44582  35.840  31.398   0.570
79598W        W44583  37.143  16.803   3.619
79599W        W44584  40.525  24.276  12.530
79600W        W44585  36.891   6.155   0.197
79601W        W44586  19.291  24.298  13.067
79602W        W44587  17.307   3.671   3.322
79603W        W44588   9.495   3.273  12.680
79604W        W44589  13.227  29.177   5.013
79605W        W44590   9.153  21.482   0.913
79606W        W44591  31.426  37.600  11.205
79607W        W44592  30.029  18.525   3.137
79608W        W44593  43.708  44.060   1.751
79609W        W44594  44.213  43.825  10.246
79610W        W44595  43.522  21.945  11.614
79611W        W44596  18.650   4.282   3.532
79612W        W44597  19.960  15.100   0.279
79613W        W44598  43.821   7.607  12.842
79614W        W44599  16.048  20.025  11.105
79615W        W44600  40.489  26.499   1.413
79616W        W44601  35.115  25.442  14.902
79617W        W44602  32.697  36.515   0.364
79618W        W44603  22.029  13.276  12.999
79619W        W44604   5.387  11.766  12.364
79620W        W44605  37.050   9.902  13.459
79621W        W44606  40.445  23.767  12.500
79622W        W44607  43.008  16.916  14.464
79623W        W44608  21.026  40.262  10.573
79624W        W44609  24.588  16.807  10.852
79625W        W44610  13.154   9.417   3.663
79626W        W44611  30.248  10.666  11.061
79627W        W44612   9.468  33.820  14.669
79628W        W44613  16.734  34.169   2.865
79629W        W44614   6.865  17.696   0.856
79630W        W44615  29.514  11.692   3.570
79631W        W44616  14.165  21.686   0.292
79632W        W44617  31.165  39.525  14.897
79633W        W44618  41.758  37.090   4.709
79634W        W44619  22.062  38.283   1.916
79635W        W44620  38.035  14.026  11.735
79636W        W44621   3.518  10.460   1.185
79637W        W44622  26.992  42.031   3.261
79638W        W44623  13.283  27.159  10.693
79639W        W44624  26.929  12.362  14.448
79640W        W44625  44.736  34.964   4.690
79641W        W44626  17.041  42.999   1.293
79642W        W44627  40.991   2.522   3.724
79643W        W44628   5.444  25.985  13.451
79644W        W44629  22.291  32.792  12.816
79645W        W44630  24.182  10.453  12.914
79646W        W44631  19.357  30.221   4.102
79647W        W44632  25.436   2.265  12.890
79648W        W44633  17.626  43.262   3.344
79649W        W44634  17.229  41.515  14.380
79650W        W44635   8.872  20.000   0.257
79651W        W44636  10.583  34.125  12.422
79652W        W44637  14.198  26.806  10.636
79653W        W44638  25.248  33.008   2.565
79654W        W44639  18.942  32.159  11.583
79655W        W44640   2.511  34.907  13.997
79656W        W44641  38.724  33.538  10.670
79657W        W44642  44.426   4.312  10.120
79658W        W44643  40.983  11.139  12.857
79659W        W44644   4.268  36.384   4.152
79660W        W44645  18.103  44.266  11.968
79661W        W44646  15.738  22.053   0.993
79662W        W44647  21.607  30.522   4.165
79663W        W44648  19.293  41.505   0.362
79664W        W44649  17.882   2.895  10.807
79665W        W44650   7.809  13.958  12.930
79666W        W44651  11.714  12.596   2.125
79667W        W44652  21.020  11.848  10.733
79668W        W44653  33.401   6.146   3.603
79669W        W44654   9.401  42.628  12.649
79670W        W44655  26.598  32.560   1.220
79671W        W44656  39.007  37.521   2.681
79672W        W44657   2.830   2.362   1.328
79673W        W44658   2.831  43.492  14.879
79674W        W44659  21.635  12.360   0.571
79675W        W44660  16.450  22.159   1.662
79676W        W44661  23.907  31.438  11.501
79677W        W44662  23.868  33.760   0.957
79678W        W44663  28.426  14.825   2.203
79679W        W44664   0.064   6.698   0.834
79680W        W44665  26.092   0.293  14.794
79681W        W44666   5.290  18.093  13.450
79682W        W44667  32.510  29.457   0.056
79683W        W44668  43.167   6.369  12.140
79684W        W44669  14.532  29.940  11.608
79685W        W44670   6.137  29.519   2.491
79686W        W44671  43.046  11.820   3.199
79687W        W44672  13.568  26.638  12.657
79688W        W44673  35.140  34.841  10.821
79689W        W44674   3.452  22.783  13.161
79690W        W44675  15.741  19.522  12.131
79691W        W44676   4.688  26.455  12.225
79692W        W44677   2.140  26.226  13.903
79693W        W44678  11.586  32.980  12.112
79694W        W44679  38.906  22.718  14.388
79695W        W44680  14.880  18.772   3.082
79696W        W44681  16.125  35.008   0.657
79697W        W44682  14.575  35.944  13.069
79698W        W44683   2.879  12.817  11.590
79699W        W44684  24.960  40.434   0.307
79700W        W44685  34.438  43.958   1.629
79701W        W44686   7.663   3.443  12.370
79702W        W44687  11.461  25.654   0.034
79703W        W44688   6.429  36.100   3.327
79704W        W44689   5.295  34.836   2.996
79705W        W44690   5.324  18.535   3.720
79706W        W44691   2.883   9.156   2.348
79707W        W44692  27.572   9.175  11.501
79708W        W44693  32.065   3.513   3.412
79709W        W44694  32.854  34.365  12.141
79710W        W44695   9.281  10.195  13.184
79711W        W44696  25.941  34.511   3.699
79712W        W44697  18.667  30.436   0.945
79713W        W44698  23.109  41.712   2.647
79714W        W44699  34.319  40.689  13.435
79715W        W44700   8.412   9.313  11.034
79716W        W44701  19.185  23.435  14.897
79717W        W44702   3.983  26.432   0.240
79718W        W44703  37.858  25.074   2.395
79719W        W44704  20.750  29.330  12.596
79720W        W44705   7.839   3.285   9.751
79721W        W44706  40.974   8.681  14.874
79722W        W44707  36.556  27.032   0.438
79723W        W44708  16.122  22.564   1.769
79724W        W44709  34.564  33.104   3.261
79725W        W44710  15.331  24.683   3.725
79726W        W44711   9.712  38.542   4.538
79727W        W44712  42.177  30.841   0.393
79728W        W44713  31.959   6.582  11.655
79729W        W44714  24.746  11.077   0.387
79730W        W44715  36.158  19.034  13.039
79731W        W44716   5.855  40.607   2.383
79732W        W44717  44.732   1.785   1.314
79733W        W44718  20.189  27.989  10.111
79734W        W44719  26.980  44.369   1.349
79735W        W44720  23.397  42.220  14.132
79736W        W44721  25.393  23.122  14.955
79737W        W44722  38.522  33.755  12.283
79738W        W44723   8.164  21.753   4.133
79739W        W44724   1.096   9.165   9.950
79740W        W44725  15.206   9.878   2.640
79741W        W44726   4.645  18.771   4.034
79742W        W44727  31.083  21.881   4.702
79743W        W44728  33.774  39.504  12.592
79744W        W44729  18.338  33.916  11.214
79745W        W44730   0.275  32.532  14.565
79746W        W44731  38.338  24.788   4.080
79747W        W44732  35.707  20.297   0.100
79748W        W44733  17.093   4.379   1.104
79749W        W44734  22.395  44.356   2.202
79750W        W44735   2.281  16.304   4.439
79751W        W44736  37.832  42.534  14.264
79752W        W44737  29.459  37.983  12.424
79753W        W44738  34.672  24.236  10.760
79754W        W44739   2.836  41.749  13.426
79755W        W44740  13.106  13.888  13.312
79756W        W44741  27.171  30.556   2.115
79757W        W44742  11.560   3.781   0.365
79758W        W44743  16.129  28.416  14.400
79759W        W44744  24.220   3.405   3.358
79760W        W44745  24.253  35.415   2.527
79761W        W44746  29.687  43.526  13.337
79762W        W44747   6.194  32.330   0.941
79763W        W44748  20.051  36.091   0.171
79764W        W44749   5.416   1.529   2.200
79765W        W44750  27.704   3.203  12.503
79766W        W44751  42.987  20.757  10.846
79767W        W44752  18.726  13.520  13.333
79768W        W44753  39.544  28.646  14.345
79769W        W44754  28.775  36.927   0.400
79770W        W44755   5.089   4.188  13.910
79771W        W44756  31.147  17.691   0.497
79772W        W44757  13.579   8.362  13.416
79773W        W44758   7.719  38.103   1.746
79774W        W44759  24.654  32.621   3.649
79775W        W44760  40.127  32.566   0.103
79776W        W44761   2.810   6.171  13.463
79777W        W44762  36.911  24.134  14.504
79778W        W44763  19.722   8.227  13.378
79779W        W44764  33.138  39.692   4.562
79780W        W44765  18.570  13.705   1.739
79781W        W44766  24.019  11.366   0.095
79782W        W44767  22.341  26.770  10.156
79783W        W44768  35.084  33.905  14.395
79784W        W44769  19.120  38.546   0.845
79785W        W44770   3.793  34.474   4.794
79786W        W44771  16.074  21.588  12.214
79787W        W44772  22.492  11.946  10.692
79788W        W44773  15.531  13.627   1.780
79789W        W44774  36.924   1.510  11.072
79790W        W44775  43.947  27.234   3.074
79791W        W44776  17.413  25.158   5.013
79792W        W44777   9.374   2.938   3.335
79793W        W44778  29.868  43.797  12.961
79794W        W44779  44.226  21.998   2.356
79795W        W44780  18.134  28.931  10.734
79796W        W44781  34.553  35.358   4.110
79797W        W44782   2.833  21.323  11.067
79798W        W44783  41.697  36.024   3.467
79799W        W44784  29.628  17.954  10.622
79800W        W44785  27.986  38.430  12.608
79801W        W44786  15.224  32.565   4.870
79802W        W44787  40.364  37.315  13.506
79803W        W44788  42.443  18.042   4.888
79804W        W44789  20.645  12.372   0.038
79805W        W44790  16.459  44.471  12.723
79806W        W44791  28.719  19.212  11.937
79807W        W44792  39.078  42.856   4.461
79808W        W44793  42.369  27.138  14.560
79809W        W44794  37.357  15.336   0.781
79810W        W44795   0.255   0.675  14.272
79811W        W44796  36.833  24.868   1.563
79812W        W44797   6.794  29.689  12.827
79813W        W44798  38.473  24.973   0.328
79814W        W44799  18.709   3.824   0.921
79815W        W44800  23.973  12.190  11.493
79816W        W44801  23.677   3.408   3.479
79817W        W44802  41.592  17.636   1.434
79818W        W44803  23.923  37.539  12.209
79819W        W44804   9.004  43.472   4.265
79820W        W44805  35.556  25.067  12.031
79821W        W44806  14.963  23.513   1.982
79822W        W44807   2.467  44.243  11.611
79823W        W44808   4.485   0.180  11.081
79824W        W44809  44.799  33.953   3.875
79825W        W44810   8.660   0.341   3.001
79826W        W44811  19.208  14.760   2.723
79827W        W44812  14.271   4.698  11.981
79828W        W44813   8.605  14.116   1.179
79829W        W44814   7.881  16.856   4.835
79830W        W44815   9.776  17.564   1.173
79831W        W44816  33.367  33.965  13.233
79832W        W44817   3.480  41.860   2.791
79833W        W44818  28.431  19.252   3.126
79834W        W44819   4.202  35.078  13.455
79835W        W44820  31.707   8.832   2.304
79836W        W44821  20.229   4.880  11.370
79837W        W44822  36.532  11.181   0.365
79838W        W44823  10.064   6.823   3.741
79839W        W44824  36.653  44.954   4.958
79840W        W44825  22.287   4.781   4.623
79841W        W44826  32.988  16.009   4.484
79842W        W44827  32.650  35.318   4.028
79843W        W44828   9.898  40.196  14.976
79844W        W44829  19.140  20.980  12.560
79845W        W44830  28.674   1.735  14.951
79846W        W44831  29.649   9.259   4.132
79847W        W44832  30.623  15.027  13.310
79848W        W44833  22.842  40.868  12.532
79849W        W44834  11.640  38.116   2.276
79850W        W44835  24.582   5.977   0.941
79851W        W44836  19.035   3.718   3.271
79852W        W44837  35.538  34.587  11.093
79853W        W44838  39.566  24.044   1.176
79854W        W44839   7.891  39.583   0.292
79855W        W44840  29.353  36.898  13.284
79856W        W44841  20.572  40.011   0.422
79857W        W44842   0.222   2.723  14.975
79858W        W44843  26.280  24.168  11.215
79859W        W44844  38.502  30.430   0.508
79860W        W44845  23.438  27.380   1.354
79861W        W44846   1.961  23.446   2.268
79862W        W44847  13.630  24.717   4.046
79863W        W44848  17.549   0.466  13.869
79864W        W44849  28.953  26.897   3.110
79865W        W44850  15.679  18.043   0.729
79866W        W44851  28.963  44.773  13.401
79867W        W44852  33.050  26.160   4.228
79868W        W44853   6.237   9.297   3.421
79869W        W44854   5.309  29.704   0.349
79870W        W44855  11.717  13.242  11.563
79871W        W44856   8.242  32.540  10.613
79872W        W44857   8.926  37.893  13.513
79873W        W44858  20.765  15.953  14.849
79874W        W44859  44.086  11.276  12.111
79875W        W44860  19.727   6.967   3.207
79876W        W44861  37.545  39.809   1.642
79877W        W44862  43.206   4.349  11.848
79878W        W44863  16.731  23.677   3.327
79879W        W44864  36.988  28.346   1.775
79880W        W44865  34.388   1.860   1.366
79881W        W44866  18.476  28.027  14.308
79882W        W44867  18.779  38.844  13.509
79883W        W44868   1.906   7.483   1.637
79884W        W44869   7.436  44.482   0.357
79885W        W44870  12.755   7.991   0.101
79886W        W44871   8.573  39.015  13.255
79887W        W44872  11.642  35.830   3.179
79888W        W44873  12.325  36.079  14.337
79889W        W44874  27.004  39.582  13.887
79890W        W44875  23.542  23.552  13.946
79891W        W44876  17.979  28.158  13.331
79892W        W44877  12.839  15.193   0.560
79893W        W44878  32.891  19.551   3.697
79894W        W44879  15.739  43.376  10.612
79895W        W44880   7.460  44.797  11.973
79896W        W44881   2.049  41.195  12.573
79897W        W44882  20.765  21.227  13.518
79898W        W44883  34.678  33.983  12.971
79899W        W44884  19.495  43.430   3.817
79900W        W44885  42.545  27.072  11.042
79901W        W44886  30.332  30.396   4.599
79902W        W44887  25.617   7.700  14.569
79903W        W44888  18.871  25.067  12.499
79904W        W44889  15.675  14.279  12.498
79905W        W44890  30.515  27.917   2.357
79906W        W44891  27.816   9.355   3.396
79907W        W44892  36.376  22.957  11.166
79908W        W44893  13.047  29.141  12.824
79909W        W44894  33.440  20.480   1.825
79910W        W44895  28.355  22.004  11.418
79911W        W44896   5.953  20.308   0.292
79912W        W44897   5.677  44.296  11.601
79913W        W44898  44.586  41.419  12.629
79914W        W44899  41.670  18.408  10.254
79915W        W44900  25.909  30.523   0.914
79916W        W44901  28.415  29.137   0.401
79917W        W44902  17.996  37.762   0.020
79918W        W44903  14.764   9.726  10.735
79919W        W44904  34.455  38.508  11.958
79920W        W44905  40.782  34.150   5.156
79921W        W44906  32.743  29.672   2.841
79922W        W44907  14.614  37.897   1.809
79923W        W44908  38.827  31.992  13.361
79924W        W44909  13.105  16.800   1.419
79925W        W44910   2.991  18.245   2.217
79926W        W44911  10.010  43.768  12.531
79927W        W44912  24.722   6.141   3.355
79928W        W44913  26.747  21.743   2.123
79929W        W44914   1.317  19.012  14.991
79930W        W44915  28.793  13.630   4.095
79931W        W44916  30.836  30.116   3.202
79932W        W44917  38.548   6.224   3.584
79933W        W44918   2.729  44.238  14.452
79934W        W44919  23.532  26.009   3.290
79935W        W44920  32.061  26.591  13.497
79936W        W44921  40.798  32.565  12.062
79937W        W44922   3.307  13.142   0.226
79938W        W44923  23.642  23.400   3.999
79939W        W44924  14.067  26.486   1.465
79940W        W44925   9.742  33.604  10.511
79941W        W44926  15.315  38.785   2.174
79942W        W44927  30.440   2.351   2.969
79943W        W44928  41.932  43.223   2.743
79944W        W44929   0.730   8.435   3.260
79945W        W44930  22.677  39.911  10.279
79946W        W44931  37.599  16.158  11.984
79947W        W44932   4.281  44.102  14.147
79948W        W44933   2.450  23.044  11.085
79949W        W44934  17.846  25.675   0.738
79950W        W44935  24.209  21.267   2.007
79951W        W44936  11.152   2.932   2.970
79952W        W44937  16.053  33.265   4.219
79953W        W44938  30.838  29.182   4.187
79954W        W44939  27.905  37.541  14.964
79955W        W44940  40.979  15.231   0.383
79956W        W44941  13.380  22.656  13.474
79957W        W44942  43.191  28.623  14.865
79958W        W44943  18.881  39.869   0.880
79959W        W44944  44.155  10.203  10.765
79960W        W44945  38.787  38.362  12.592
79961W        W44946  21.670  13.076   2.329
79962W        W44947  41.726  22.462   4.210
79963W        W44948  44.433   8.615  13.016
79964W        W44949  29.644  32.150   4.898
79965W        W44950  14.864  29.625  13.358
79966W        W44951  34.894   0.797  10.752
79967W        W44952   2.356  27.122  12.031
79968W        W44953  22.979  43.867   1.282
79969W        W44954  31.338   6.317  14.517
79970W        W44955  31.497  26.133   0.297
79971W        W44956  24.106  43.362   1.929
79972W        W44957   4.812  19.045   1.263
79973W        W44958  19.736  19.268   3.082
79974W        W44959  16.081   6.976  12.614
79975W        W44960  18.455  11.133  14.185
79976W        W44961  16.581  43.626   0.444
79977W        W44962  41.154   1.573   2.658
79978W        W44963  31.750  23.194  12.101
79979W        W44964  34.620  14.064   3.388
79980W        W44965  23.132  17.495  13.864
79981W        W44966  10.243  28.146  13.138
79982W        W44967   5.783  43.846   3.220
79983W        W44968  24.030   6.580   4.933
79984W        W44969  32.100  42.853   1.149
79985W        W44970  32.573   6.636  11.142
79986W        W44971   5.962   9.943   0.176
79987W        W44972  16.149   9.280   1.376
79988W        W44973  14.637  28.818   0.248
79989W        W44974  24.390  21.284  10.200
79990W        W44975  11.757  12.766   1.259
79991W        W44976  44.441  33.623  10.553
79992W        W44977   5.716  31.566   0.309
79993W        W44978   5.327  43.501  11.321
79994W        W44979  36.487  21.564  14.842
79995W        W44980   2.139  42.611  11.880
79996W        W44981  44.486  36.003  10.596
79997W        W44982  19.131  11.481  12.529
79998W        W44983  16.837   5.172  14.906
79999W        W44984   7.184   0.751  10.598
80000W        W44985  29.853  28.429   2.893
80001W        W44986   8.179   4.233  12.152
80002W        W44987  35.166  39.136   3.094
80003W        W44988   8.569  11.227  13.952
80004W        W44989   7.212   5.752   2.668
80005W        W44990  10.410  23.187   2.344
80006W        W44991  19.277  42.916  13.447
80007W        W44992  38.079   3.002  12.580
80008W        W44993  25.645  20.696  11.651
80009W        W44994  42.719  21.993   0.240
80010W        W44995   7.657  23.958  14.334
80011W        W44996  39.147  42.657   3.955
80012W        W44997  42.658  41.967   4.301
80013W        W44998  38.022  17.127  13.516
80014W        W44999  17.191  30.864  11.483
80015W        W45000  25.389  43.523   4.157
80016W        W45001  28.910   0.894   4.626
80017W        W45002  12.264   0.724  14.265
80018W        W45003  32.023  35.003   4.522
80019W        W45004  10.875  16.593  14.783
80020W        W45005  35.095   2.635   4.570
80021W        W45006   6.912  12.317  10.755
80022W        W45007  13.275   8.403  10.466
80023W        W45008  35.039   0.351   4.267
80024W        W45009  15.389   5.250   0.875
80025W        W45010  25.653  23.003   2.830
80026W        W45011  36.526  11.639   2.783
80027W        W45012  39.964  19.550  11.616
80028W        W45013  44.730  36.446  13.035
80029W        W45014  43.787  31.403  10.648
80030W        W45015  31.895   0.055  14.425
80031W        W45016  37.955  42.389  11.954
80032W        W45017  28.249  23.885  14.832
80033W        W45018  10.521  37.990  11.142
80034W        W45019  19.041   0.748  14.726
80035W        W45020   8.144  19.654   4.316
80036W        W45021  36.588  42.564  10.906
80037W        W45022  36.014  28.538   3.236
80038W        W45023  21.186  10.701   2.602
80039W        W45024   4.328  31.557   2.939
80040W        W45025  44.964  35.400  14.634
80041W        W45026  41.673   8.379  10.667
80042W        W45027  34.816  24.117   1.385
80043W        W45028  16.243   2.852   3.661
80044W        W45029  17.204  31.857  11.349
80045W        W45030   4.994  19.943  11.954
80046W        W45031   4.198  18.212  11.288
80047W        W45032  13.543  21.285  10.689
80048W        W45033  31.102  42.403  10.501
80049W        W45034   9.474   1.810   0.725
80050W        W45035  23.155   8.851  13.912
80051W        W45036  44.433  33.077  12.036
80052W        W45037  22.016  28.628   0.294
80053W        W45038  23.739  10.259   1.825
80054W        W45039  24.165   4.163   4.667
80055W        W45040  27.396  15.604  14.715
80056W        W45041   9.307  36.855   0.770
80057W        W45042   5.078  18.219  10.694
80058W        W45043  34.676  39.377  10.838
80059W        W45044  32.071  36.159  10.808
80060W        W45045  33.019  38.380  13.398
80061W        W45046   6.905  36.584  13.631
80062W        W45047  16.550   0.025  12.078
80063W        W45048  40.253  42.473  12.485
80064W        W45049   8.673  27.016   1.644
80065W        W45050  40.442  21.590   1.400
80066W        W45051  41.273  42.661  14.444
80067W        W45052  44.363  44.414   3.967
80068W        W45053   2.099  19.190  13.485
80069W        W45054  39.768  17.607  13.347
80070W        W45055   0.064  20.752   4.601
80071W        W45056  13.547  13.596  12.642
80072W        W45057   6.718  32.398   4.567
80073W        W45058   2.760  28.962   4.232
80074W        W45059  30.223  27.101   1.426
80075W        W45060  40.221  39.695   3.748
80076W        W45061  43.092  23.357  10.287
80077W        W45062  36.034  15.604  12.494
80078W        W45063   4.990  30.006  11.820
80079W        W45064  19.529  40.055   1.499
80080W        W45065  19.062  17.356   0.304
80081W        W45066  32.430  26.253  14.232
80082W        W45067  23.128  42.314  12.409
80083W        W45068   6.895  37.610   4.090
80084W        W45069  27.041  28.585  12.536
80085W        W45070  25.839  27.040  11.136
80086W        W45071  40.469  17.184  13.536
80087W        W45072   3.199   9.130  13.000
80088W        W45073  38.145  10.418   2.825
80089W        W45074  33.358   3.636   4.704
80090W        W45075  13.965  28.176   0.047
80091W        W45076  20.037  30.701  14.474
80092W        W45077  23.564  12.577   0.299
80093W        W45078   4.938  29.525   0.647
80094W        W45079  39.521   0.434   2.233
80095W        W45080  17.903   7.683   2.913
80096W        W45081  23.339   8.721   2.151
80097W        W45082  43.418  31.139  11.450
80098W        W45083  11.334  32.677   0.429
80099W        W45084  12.866   5.842  14.658
80100W        W45085  35.482   5.909   2.161
80101W        W45086  15.880   4.485  14.818
80102W        W45087  21.714   1.533   0.664
80103W        W45088  38.855  20.748   3.834
80104W        W45089   8.871  29.980  12.413
80105W        W45090  35.479  16.800  11.692
80106W        W45091  21.328   5.494   4.185
80107W        W45092  26.214  29.420  11.098
80108W        W45093  27.946  31.430  13.399
80109W        W45094  42.358  14.681   3.440
80110W        W45095  44.542  19.739   1.805
80111W        W45096  32.923   5.920   3.613
80112W        W45097   4.253   9.748  12.709
80113W        W45098   5.437   8.285  12.044
80114W        W45099  40.625  31.890   2.320
80115W        W45100  27.560  14.036  12.180
80116W        W45101  12.115  16.606  14.235
80117W        W45102  18.626  37.367   4.176
80118W        W45103  24.276   3.302  14.486
80119W        W45104  16.786   1.869   0.363
80120W        W45105   9.393  31.735  12.707
80121W        W45106  34.646  33.654  13.360
80122W        W45107   7.734  33.963  13.836
80123W        W45108  30.543  20.770  10.759
80124W        W45109  39.903  36.963   1.037
80125W        W45110  30.131  21.586  11.785
80126W        W45111  41.832  13.606  14.350
80127W        W45112  44.919  30.303   2.747
80128W        W45113  16.650  30.936  10.751
80129W        W45114  12.582  24.662   1.429
80130W        W45115  13.890  22.114  10.063
80131W        W45116  30.617  42.226  13.788
80132W        W45117  23.285  15.485  11.163
80133W        W45118   0.557   9.710   4.950
80134W        W45119  27.180  38.413  14.487
80135W        W45120  35.463   2.692   3.403
80136W        W45121   0.985   9.273  14.317
80137W        W45122  13.281  37.439  11.948
80138W        W45123  16.367   2.377  13.192
80139W        W45124   2.271   9.121   2.759
80140W        W45125  20.710  31.702   4.173
80141W        W45126   2.929   0.811   2.829
80142W        W45127  35.550  42.147   3.135
80143W        W45128   3.241   3.949  11.626
80144W        W45129  25.228  22.057   3.865
80145W        W45130  30.522   2.330   5.315
80146W        W45131  21.684   8.930  10.612
80147W        W45132  32.997  15.832  14.875
80148W        W45133  40.123  21.115   4.489
80149W        W45134  37.060  42.426  13.742
80150W        W45135  14.244  18.541   1.095
80151W        W45136  20.771  14.555  11.200
80152W        W45137  10.561  32.039   1.191
80153W        W45138  31.396  23.001  14.338
80154W        W45139  44.858   7.893  12.041
80155W        W45140  10.298  43.476  10.792
80156W        W45141  36.380  32.026  13.344
80157W        W45142   5.112   7.802   3.100
80158W        W45143   5.266  15.514   0.433
80159W        W45144  31.896  24.267   1.432
80160W        W45145  40.581  30.447   2.385
80161W        W45146  14.715  43.935  14.225
80162W        W45147   7.880  19.039   0.209
80163W        W45148  29.684  42.044  14.294
80164W        W45149  21.279  32.814  14.342
80165W        W45150  38.442  44.074   0.942
80166W        W45151  42.969  39.512   0.793
80167W        W45152  44.882   8.147  11.596
80168W        W45153  28.552  34.628  12.067
80169W        W45154   5.157  17.114   2.672
80170W        W45155  19.970  29.954   1.822
80171W        W45156  33.899   0.178  12.390
80172W        W45157  36.113  18.543   0.692
80173W        W45158  41.581  37.640  10.841
80174W        W45159   6.775  10.583   3.644
80175W        W45160  40.521   2.731   3.868
80176W        W45161   9.147  35.813  11.550
80177W        W45162  22.642  24.010   2.910
80178W        W45163  14.012  35.033  13.149
80179W        W45164  30.506   2.208   4.806
80180W        W45165  35.019  30.404  13.842
80181W        W45166  35.002  38.769   9.909
80182W        W45167   8.342  13.203   0.571
80183W        W45168   8.797  17.205  11.395
80184W        W45169  35.333  16.946  12.157
80185W        W45170  27.330  33.020   4.856
80186W        W45171  36.095  15.990   3.222
80187W        W45172  21.119  24.729  11.256
80188W        W45173  34.363  17.336  11.883
80189W        W45174  27.869  12.606   4.032
80190W        W45175  26.515  14.562   3.228
80191W        W45176  31.344   4.178  11.428
80192W        W45177  14.467   7.369   0.148
80193W        W45178   8.107  29.190   4.542
80194W        W45179  12.829  41.605  14.326
80195W        W45180  23.691  42.288   1.762
80196W        W45181  14.684  41.966  11.269
80197W        W45182  18.879  36.628  12.394
80198W        W45183   2.010  22.190   1.949
80199W        W45184  41.427  36.662   0.777
80200W        W45185  27.623  42.306  13.970
80201W        W45186  43.767  28.451  13.015
80202W        W45187  40.467  30.381   1.408
80203W        W45188  32.077  13.384   2.336
80204W        W45189   8.857  37.908   1.184
80205W        W45190  43.704   8.376  14.432
80206W        W45191  15.185   7.230   0.911
80207W        W45192  19.549  35.996  12.346
80208W        W45193  37.880  41.068   4.733
80209W        W45194   0.688  29.525  11.896
80210W        W45195  20.980  23.193  10.940
80211W        W45196  19.571  41.988  12.498
80212W        W45197  42.735  42.488  10.522
80213W        W45198  22.054   7.184   3.767
80214W        W45199  33.682  34.115  11.886
80215W        W45200  37.028  16.776  10.539
80216W        W45201  38.582  21.981   1.377
80217W        W45202  30.721   5.302   3.875
80218W        W45203  10.728   0.325  13.254
80219W        W45204  42.053   9.330  12.919
80220W        W45205  42.398  32.690   1.345
80221W        W45206  39.357  14.076  13.008
80222W        W45207  11.713  20.072   0.859
80223W        W45208  40.891  31.915  12.657
80224W        W45209  26.894  35.318   1.711
80225W        W45210   5.477  27.150  12.047
80226W        W45211  32.527  20.434  11.261
80227W        W45212  30.553   3.370  13.131
80228W        W45213   8.342  14.060   0.578
80229W        W45214  31.849  32.907  11.560
80230W        W45215  13.744   4.950   0.345
80231W        W45216  34.925  41.275  10.085
80232W        W45217  34.174   9.899   4.968
80233W        W45218   6.905  27.539  14.849
80234W        W45219  11.267  30.915   1.754
80235W        W45220  16.140  25.038  13.511
80236W        W45221  11.295   1.763  10.572
80237W        W45222  24.423  35.583  10.561
80238W        W45223  17.834  41.275  10.615
80239W        W45224  35.698  31.701  11.680
80240W        W45225  20.687  25.045   4.623
80241W        W45226  19.182  11.834   0.356
80242W        W45227   3.974  35.959   4.153
80243W        W45228  42.690  39.813  13.809
80244W        W45229  39.855  26.044   2.399
80245W        W45230   8.830   9.210  11.918
80246W        W45231  19.762  34.465   4.466
80247W        W45232   7.696   7.961   1.726
80248W        W45233  19.170  34.534  10.634
80249W        W45234  18.641  12.979  11.236
80250W        W45235  15.768  23.622   2.967
80251W        W45236  24.607  12.813   3.655
80252W        W45237   1.955  25.911   0.825
80253W        W45238   0.010  43.321   2.464
80254W        W45239  13.966  29.395   4.545
80255W        W45240  21.705  11.591   4.609
80256W        W45241   2.864  29.041  14.911
80257W        W45242  27.682  21.241  14.757
80258W        W45243  28.949  41.316   1.884
80259W        W45244  30.618   5.287   4.403
80260W        W45245  37.424  14.805  14.909
80261W        W45246  18.617   6.643   1.130
80262W        W45247  13.184   5.117   2.446
80263W        W45248  33.264   6.121   5.453
80264W        W45249   1.682  40.118  11.260
80265W        W45250  39.566  17.783   0.442
80266W        W45251   4.452   5.414  11.357
80267W        W45252  32.881  31.920  12.101
80268W        W45253  26.421  14.566  11.159
80269W        W45254  31.940  32.253   4.619
80270W        W45255  20.305  40.886  13.939
80271W        W45256  30.143  19.224  14.253
80272W        W45257  10.575  43.402   2.887
80273W        W45258   5.872  36.946   4.369
80274W        W45259  11.319   4.758  10.926
80275W        W45260  40.041  11.197  11.430
80276W        W45261  21.827   6.303   0.892
80277W        W45262  13.950  32.229   1.697
80278W        W45263  20.636  29.572   4.111
80279W        W45264  38.148   2.810  11.241
80280W        W45265  10.141  34.855   3.217
80281W        W45266  21.572   1.981  12.474
80282W        W45267   2.393   0.937  10.219
80283W        W45268   4.432  11.092  11.371
80284W        W45269  23.655  17.849   0.883
80285W        W45270   9.795  37.471   3.347
80286W        W45271  28.939  23.294  12.882
80287W        W45272  34.471  29.060   4.087
80288W        W45273  36.546   8.240  13.837
80289W        W45274  39.344  32.030  11.629
80290W        W45275  32.125  31.499   1.308
80291W        W45276  32.360   0.907  10.713
80292W        W45277   3.660  18.064   3.405
80293W        W45278  20.707  23.397   5.438
80294W        W45279   5.505  18.074   2.342
80295W        W45280  37.722   2.602   1.996
80296W        W45281  24.204  15.084   0.976
80297W        W45282  37.392   7.893   3.268
80298W        W45283   7.343   1.217  11.740
80299W        W45284  20.680  31.854   2.373
80300W        W45285  26.696   7.449   0.866
80301W        W45286   7.434  36.586  13.367
80302W        W45287   0.327  35.484   4.049
80303W        W45288  10.935  38.317   4.081
80304W        W45289   7.808  29.897  10.849
80305W        W45290   0.407   1.874  14.346
80306W        W45291  36.512  21.985   2.730
80307W        W45292   6.376  18.258   4.600
80308W        W45293  42.899  30.134   1.419
80309W        W45294  30.456   0.782  10.441
80310W        W45295  44.008  32.214   1.449
80311W        W45296   9.547  35.337   1.779
80312W        W45297   1.425   9.710  11.140
80313W        W45298  42.786  21.194  12.018
80314W        W45299   3.277  43.824  13.799
80315W        W45300  24.107  43.018   4.225
80316W        W45301  22.635  39.265   4.614
80317W        W45302  22.668   4.997   1.613
80318W        W45303   1.801  22.727  12.449
80319W        W45304  16.342  42.682  13.073
80320W        W45305  38.367  40.852  14.288
80321W        W45306  36.020  12.370   4.399
80322W        W45307   3.932  25.521  13.533
80323W        W45308  13.670  17.816   1.375
80324W        W45309  36.965  17.797   3.715
80325W        W45310  40.574  19.821   4.132
80326W        W45311  28.068   5.869  12.863
80327W        W45312  22.008  21.582  13.514
80328W        W45313  41.555  18.751  12.984
80329W        W45314  41.429   6.403  10.642
80330W        W45315  28.311   7.699   4.635
80331W        W45316   2.674  33.945  11.565
80332W        W45317  14.842  24.931   4.511
80333W        W45318  14.228  38.853   0.221
80334W        W45319  19.387   6.369  11.431
80335W        W45320  38.481  21.004  12.466
80336W        W45321  23.749  10.835   0.416
80337W        W45322  41.298  18.152   0.392
80338W        W45323   4.501  34.370  11.453
80339W        W45324  36.499  19.052   4.133
80340W        W45325  16.817  15.168  10.240
80341W        W45326  17.596  43.330   2.833
80342W        W45327   4.204  27.032   0.487
80343W        W45328   1.486  30.541  12.827
80344W        W45329  35.282  26.156   3.298
80345W        W45330  12.218  22.986  13.017
80346W        W45331  43.007  29.954  11.976
80347W        W45332  28.852  18.027   1.305
80348W        W45333   7.234  40.826  11.131
80349W        W45334  44.453  20.731   1.889
80350W        W45335   2.129  11.412  11.487
80351W        W45336  27.453  23.104   0.499
80352W        W45337   7.984   2.666   2.848
80353W        W45338  16.559  41.556   3.348
80354W        W45339  26.121  42.842   2.938
80355W        W45340  18.637  39.387   2.886
80356W        W45341  31.507  20.623  12.633
80357W        W45342  29.672  14.559   3.948
80358W        W45343  11.125  32.575   0.900
80359W        W45344  44.206  15.534   3.283
80360W        W45345  40.975  14.246   0.943
80361W        W45346  10.868   9.814  12.433
80362W        W45347   0.461  12.161  11.598
80363W        W45348  20.122   0.681  10.688
80364W        W45349  39.494  18.418   4.176
80365W        W45350  27.105  20.067   3.383
80366W        W45351   6.371  10.908  13.214
80367W        W45352  22.454  43.409  11.560
80368W        W45353  18.289  33.163  13.416
80369W        W45354   1.216  42.963  10.553
80370W        W45355  21.749  28.341   2.689
80371W        W45356  34.997  19.082   0.856
80372W        W45357  22.238  43.523  13.397
80373W        W45358   7.848  15.583  14.879
80374W        W45359  35.897   3.455   3.284
80375W        W45360   9.791  37.919  12.468
80376W        W45361  28.133   1.668  13.290
80377W        W45362   2.345  23.024  14.052
80378W        W45363  34.161  13.269   3.301
80379W        W45364  44.279  28.212   4.627
80380W        W45365  21.579  13.552  11.108
80381W        W45366  24.450  19.531  13.781
80382W        W45367  36.771  29.604   2.189
80383W        W45368  16.987   6.354   2.374
80384W        W45369  32.608  29.367  12.593
80385W        W45370  31.007  43.826   3.248
80386W        W45371   0.030  21.496  10.653
80387W        W45372  23.159  44.532   1.892
80388W        W45373  22.346   2.933  11.510
80389W        W45374  21.071   0.967  11.071
80390W        W45375   1.742  21.158  14.318
80391W        W45376   3.993  42.243   3.215
80392W        W45377  14.857  38.833  14.769
80393W        W45378   3.764   2.770  12.954
80394W        W45379  32.498  10.486   1.233
80395W        W45380   3.186  23.355   0.535
80396W        W45381  16.774  31.129   0.314
80397W        W45382  13.260  31.054   1.342
80398W        W45383   3.200   4.166  10.029
80399W        W45384  15.285  18.880   3.378
80400W        W45385   8.226  21.231   4.604
80401W        W45386  30.528  35.060  13.006
80402W        W45387  19.668  13.804  10.778
80403W        W45388  38.620  27.189  12.087
80404W        W45389  44.019   7.403  12.420
80405W        W45390  30.999  44.279  12.461
80406W        W45391  36.763  30.055  12.103
80407W        W45392  25.193  21.660   4.628
80408W        W45393  40.302  41.567   4.461
80409W        W45394  13.689  27.095  11.866
80410W        W45395  42.480  21.950  11.584
80411W        W45396   6.838  36.112  12.628
80412W        W45397  13.173  14.325   2.188
80413W        W45398  36.798  24.632   0.257
80414W        W45399  26.241  19.706  14.301
80415W        W45400  34.047  14.734  10.600
80416W        W45401  16.462  33.342   4.558
80417W        W45402  40.731  39.902   0.948
80418W        W45403  37.643  40.435   0.913
80419W        W45404  42.287  18.069  11.749
80420W        W45405  43.243  38.923  13.501
80421W        W45406  26.975  23.729  13.872
80422W        W45407  18.614  39.947  12.157
80423W        W45408  27.640  14.457   2.354
80424W        W45409   4.884  35.033   0.627
80425W        W45410  13.316   3.302   2.340
80426W        W45411  42.694  30.074  11.556
80427W        W45412  12.078  11.750  14.876
80428W        W45413  40.393  22.205   4.367
80429W        W45414  40.764  12.035   1.234
80430W        W45415  38.545  41.684  11.981
80431W        W45416  29.400  33.066  12.974
80432W        W45417  44.542  17.043  13.042
80433W        W45418  33.118  18.778   3.273
80434W        W45419  17.260   2.486   2.881
80435W        W45420  36.527  23.722   2.560
80436W        W45421  35.963  43.736  12.514
80437W        W45422  42.755   3.345  10.888
80438W        W45423  19.956  26.843  14.160
80439W        W45424  27.207  39.706   4.651
80440W        W45425  33.600  18.007  12.692
80441W        W45426  44.699  25.145   2.696
80442W        W45427   9.456   0.356  13.763
80443W        W45428  14.309   9.200   3.259
80444W        W45429   2.283  34.432  13.232
80445W        W45430  39.076   2.965  12.403
80446W        W45431  35.496  31.891  14.848
80447W        W45432  22.229  22.415  12.075
80448W        W45433  24.535  27.577   3.238
80449W        W45434  22.596  19.532   4.833
80450W        W45435  31.521  10.683  12.294
80451W        W45436  37.412  12.375  12.011
80452W        W45437   0.713  34.114   4.064
80453W        W45438   5.711  35.022   2.722
80454W        W45439  41.945  20.180   3.338
80455W        W45440  31.169   7.292   0.447
80456W        W45441   9.400  43.560  14.917
80457W        W45442  33.805  30.581  12.535
80458W        W45443  22.752  38.257   2.512
80459W        W45444   7.312   5.151  13.391
80460W        W45445   5.601  42.451   2.403
80461W        W45446  42.453   0.400   4.049
80462W        W45447   1.540  17.090   1.774
80463W        W45448  38.066   7.281   2.454
80464W        W45449  44.662   8.876   2.795
80465W        W45450  25.754  35.418   4.791
80466W        W45451   2.253   3.773   0.911
80467W        W45452  41.966  43.035  10.951
80468W        W45453  32.416  40.743   3.531
80469W        W45454  33.133  32.448   1.299
80470W        W45455  39.009  37.550  13.974
80471W        W45456  38.718   7.463   2.853
80472W        W45457  36.951  31.632   3.246
80473W        W45458   4.822  12.285   1.146
80474W        W45459   5.310  12.841  13.934
80475W        W45460  32.347   8.044   4.048
80476W        W45461  11.396   4.214  12.731
80477W        W45462  25.080  41.236   0.809
80478W        W45463  35.950   1.450  12.499
80479W        W45464   8.577  35.163   0.547
80480W        W45465   1.750  42.769  12.163
80481W        W45466  36.058  39.241   3.851
80482W        W45467  43.382  38.057   2.335
80483W        W45468   1.653  29.653  12.118
80484W        W45469  11.371  37.031  10.492
80485W        W45470  31.515  11.897   0.451
80486W        W45471  15.056  24.063   2.706
80487W        W45472  23.093  37.859  14.980
80488W        W45473  41.462  34.521   2.568
80489W        W45474   5.397  11.156   1.256
80490W        W45475  19.090  23.741   0.349
80491W        W45476  31.457  18.184  10.488
80492W        W45477  14.734  23.570  14.750
80493W        W45478  31.537  15.765   3.600
80494W        W45479  20.351  34.503  12.895
80495W        W45480  25.681  23.511  13.512
80496W        W45481  18.257  39.418  13.157
80497W        W45482  23.245  16.726  14.511
80498W        W45483  38.568   3.842   1.852
80499W        W45484   3.496  17.391  13.975
80500W        W45485  13.343   1.548  12.942
80501W        W45486  12.375   8.835   2.902
80502W        W45487   7.780  33.259   3.064
80503W        W45488  20.188  28.699   1.996
80504W        W45489  29.375  43.975  14.065
80505W        W45490  43.822   6.274   4.586
80506W        W45491  32.962  24.174  14.466
80507W        W45492  13.695  22.803  11.825
80508W        W45493  10.677   3.981   1.768
80509W        W45494  27.794  34.216   1.911
80510W        W45495  10.834   6.657  11.352
80511W        W45496   5.186  32.598  14.553
80512W        W45497   8.685  35.874   3.315
80513W        W45498  17.352  16.645  11.472
80514W        W45499  42.757   6.923   4.571
80515W        W45500   2.337  31.252   2.073
80516W        W45501  42.125  20.140   2.859
80517W        W45502   1.093  37.120   4.422
80518W        W45503   6.741  25.065  11.768
80519W        W45504  17.758  37.355  11.405
80520W        W45505   2.147   2.160  11.150
80521W        W45506   8.261  10.310  11.475
80522W        W45507   3.765   5.303   3.264
80523W        W45508  25.086   3.242  13.866
80524W        W45509  40.624  34.831  14.302
80525W        W45510  22.702  28.164  14.180
80526W        W45511  27.656  28.065   2.206
80527W        W45512  14.078  14.499  13.900
80528W        W45513   7.956  25.522   1.782
80529W        W45514  18.693  43.057  11.641
80530W        W45515  35.994  44.515   3.748
80531W        W45516  21.505  16.187  11.100
80532W        W45517  26.126  16.543   2.666
80533W        W45518  44.067   5.942  13.475
80534W        W45519  41.961  30.025  12.090
80535W        W45520  23.997  11.093   0.886
80536W        W45521   7.964  24.280  11.993
80537W        W45522  32.889   9.735  14.276
80538W        W45523  43.791  10.178   1.103
80539W        W45524  12.668  41.319   4.383
80540W        W45525  23.136  33.881  14.790
80541W        W45526  29.748  23.899   4.976
80542W        W45527  13.213  44.986   0.529
80543W        W45528  35.964  22.485  12.908
80544W        W45529  15.834  29.401   1.778
80545W        W45530  22.638  22.751   5.060
80546W        W45531   1.250   0.540   2.090
80547W        W45532  31.046  21.575  10.888
80548W        W45533  16.060  22.044  11.098
80549W        W45534  27.955  36.161   0.325
80550W        W45535  16.115  44.919   1.693
80551W        W45536  39.065  43.798   3.873
80552W        W45537   9.196   3.418   3.085
80553W        W45538   4.370  29.523  12.492
80554W        W45539  16.780  19.491  11.357
80555W        W45540  44.713  17.560  12.934
80556W        W45541  15.325  16.772  14.406
80557W        W45542  16.573  34.540  11.992
80558W        W45543  21.806  10.529  11.957
80559W        W45544  14.361  13.236  10.851
80560W        W45545  25.140  26.017  13.383
80561W        W45546  22.095  17.742   2.686
80562W        W45547  26.418   1.886  12.621
80563W        W45548  39.588  35.489  13.387
80564W        W45549  30.456  18.744  11.146
80565W        W45550  39.387  22.627   0.720
80566W        W45551  23.748  14.834  13.528
80567W        W45552   6.709  26.705  13.450
80568W        W45553   4.277  16.902   2.681
80569W        W45554  37.524  11.445   3.175
80570W        W45555  10.384  37.242   4.591
80571W        W45556  10.380  14.275   1.877
80572W        W45557   9.283  36.279   0.005
80573W        W45558  43.249  32.013   1.811
80574W        W45559   7.187  38.410   2.949
80575W        W45560  25.460  18.109   4.086
80576W        W45561  11.692  42.589  10.676
80577W        W45562   0.388   4.670   5.008
80578W        W45563  41.842  29.348  13.986
80579W        W45564   8.219  16.463  12.367
80580W        W45565  30.713  42.760   4.203
80581W        W45566  20.757  41.917   0.986
80582W        W45567   6.446  35.651   3.571
80583W        W45568  20.085  16.518   1.206
80584W        W45569  21.585  30.599   1.177
80585W        W45570   5.638   3.968   0.889
80586W        W45571  14.882  27.839  14.209
80587W        W45572  31.062   0.943  10.703
80588W        W45573  16.415  14.649   2.640
80589W        W45574  43.569  39.038  13.875
80590W        W45575  30.529  26.167   0.547
80591W        W45576  30.665  40.238   2.290
80592W        W45577  10.542  23.733  13.121
80593W        W45578  17.305   1.394  14.878
80594W        W45579  40.522   9.875  13.390
80595W        W45580  10.156  26.897   3.948
80596W        W45581  15.231  21.557   4.492
80597W        W45582   2.823   0.065   4.502
80598W        W45583  16.101  20.696  11.993
80599W        W45584  40.762  37.848  12.991
80600W        W45585  15.643   9.159   1.206
80601W        W45586  29.129  42.914   2.621
80602W        W45587   9.675  35.847  13.536
80603W        W45588  30.674  42.240  12.935
80604W        W45589  11.793  38.426   0.447
80605W        W45590   9.151  23.904  12.437
80606W        W45591   0.675   6.381   4.111
80607W        W45592  37.755  36.428   4.174
80608W        W45593  34.525  22.807   1.763
80609W        W45594  16.182  23.952  12.278
80610W        W45595   4.650  22.992   2.293
80611W        W45596  24.049  13.111   1.024
80612W        W45597  12.099  17.356   4.191
80613W        W45598  10.164  12.798   4.093
80614W        W45599  22.986  27.579   0.363
80615W        W45600  11.114   6.371  13.925
80616W        W45601   2.228  41.394  13.498
80617W        W45602  20.667  37.137   0.421
80618W        W45603  19.024   6.148  14.954
80619W        W45604   7.662  15.102   3.774
80620W        W45605  18.925  36.643  14.943
80621W        W45606  13.223  36.902  12.482
80622W        W45607  11.130  44.789   0.190
80623W        W45608   5.547   4.315   2.007
80624W        W45609  17.841  13.583   3.173
80625W        W45610  36.412  43.340   0.896
80626W        W45611  35.592  38.860   3.058
80627W        W45612  19.657  39.077   4.634
80628W        W45613  42.582   1.331  13.841
80629W        W45614   8.893  24.259   2.705
80630W        W45615   7.835  29.392  11.505
80631W        W45616  20.845  36.783   3.415
80632W        W45617  24.982  34.991   3.118
80633W        W45618  32.777  27.158  12.573
80634W        W45619  10.154   7.660   3.239
80635W        W45620  40.852   8.474   3.457
80636W        W45621  15.487  19.527   3.361
80637W        W45622   5.878  40.112   1.350
80638W        W45623  25.920   4.813  14.482
80639W        W45624  23.701  36.358  11.488
80640W        W45625  33.039  40.101   3.725
80641W        W45626  18.273  20.712  11.139
80642W        W45627  21.223   0.006   4.210
80643W        W45628  37.811  44.190  11.076
80644W        W45629  13.698   1.360  10.579
80645W        W45630  11.210  20.147   2.695
80646W        W45631  41.912   1.673   4.826
80647W        W45632  39.360   2.229   1.720
80648W        W45633  13.379  41.963   3.944
80649W        W45634  17.709  34.878  11.425
80650W        W45635  26.965   5.807  11.514
80651W        W45636   0.346  39.399  10.845
80652W        W45637   8.798  38.107   1.677
80653W        W45638  28.129  35.035  13.948
80654W        W45639  20.481  14.348  13.791
80655W        W45640  37.590  13.168   1.600
80656W        W45641  16.255  16.807  10.607
80657W        W45642  20.766   9.575  14.498
80658W        W45643  18.576  15.818  11.172
80659W        W45644  24.001  15.542   2.367
80660W        W45645   4.817  39.183   5.004
80661W        W45646  12.709   4.134  12.022
80662W        W45647   0.662   4.199  13.406
80663W        W45648  42.886  41.257   1.396
80664W        W45649  31.360  38.503   1.747
80665W        W45650  14.046   9.231  12.874
80666W        W45651  10.549  30.143  10.615
80667W        W45652  29.617  32.575  13.016
80668W        W45653  24.799  34.576   0.941
80669W        W45654  31.439  37.443   1.855
80670W        W45655  17.930  15.163  13.917
80671W        W45656  13.769   3.969   1.265
80672W        W45657  20.642   6.607  13.354
80673W        W45658  28.155  12.643  12.165
80674W        W45659  40.271  24.640  14.949
80675W        W45660   6.657  23.401   3.305
80676W        W45661  24.670  12.687  11.203
80677W        W45662  12.039  40.026  11.181
80678W        W45663  23.791  37.348  11.728
80679W        W45664  30.860  22.096   1.074
80680W        W45665  41.574  33.935  13.937
80681W        W45666   8.629  27.101   2.914
80682W        W45667   1.322  21.739   3.612
80683W        W45668   2.280   7.258   0.068
80684W        W45669  43.589  32.405  12.458
80685W        W45670  18.278  38.421   3.706
80686W        W45671  17.767  13.881   3.592
80687W        W45672  13.163  15.728   0.066
80688W        W45673  24.389  27.955  13.374
80689W        W45674  16.827   3.681  14.941
80690W        W45675  34.995  32.944  10.959
80691W        W45676  22.626  25.141   1.892
80692W        W45677  37.414   4.686  12.071
80693W        W45678  19.577  28.798  10.241
80694W        W45679   1.187  29.048   1.910
80695W        W45680  25.656  30.570  14.494
80696W        W45681  26.597  30.430  11.935
80697W        W45682  41.139  21.249  10.256
80698W        W45683   6.355  25.570   3.844
80699W        W45684   6.831  35.106  12.370
80700W        W45685  39.079  21.509   5.205
80701W        W45686  41.516  35.691  11.301
80702W        W45687  20.504  35.770   1.398
80703W        W45688  11.186  31.319  11.971
80704W        W45689  28.402  32.630   3.278
80705W        W45690  25.022  16.045  14.823
80706W        W45691   0.714   5.896  13.849
80707W        W45692  30.564  33.679  11.181
80708W        W45693  34.842  39.549   3.255
80709W        W45694  14.365  12.540  12.531
80710W        W45695  44.792  30.588   3.611
80711W        W45696  24.206  34.016   5.089
80712W        W45697  22.529  20.259   1.461
80713W        W45698  22.302  43.331   0.020
80714W        W45699  40.906  29.540  11.497
80715W        W45700  27.516  13.431   4.133
80716W        W45701  32.885  29.094  14.916
80717W        W45702  44.233  28.963   2.749
80718W        W45703   8.580  13.830   4.294
80719W        W45704   1.862   7.648  14.382
80720W        W45705  22.200   3.134  11.025
80721W        W45706   7.917   0.704   2.569
80722W        W45707  10.384  34.414   0.697
80723W        W45708  19.290  14.823  10.984
80724W        W45709  24.918  40.619  11.628
80725W        W45710  40.434  32.873   1.311
80726W        W45711   9.844  15.416   0.286
80727W        W45712  44.376  23.241  14.209
80728W        W45713  20.406  42.760   3.137
80729W        W45714   7.986  35.663   2.801
80730W        W45715  41.406   2.837   4.877
80731W        W45716   9.637   1.329   4.834
80732W        W45717   0.425   1.068   1.153
80733W        W45718  13.257  12.368  13.540
80734W        W45719  15.046  39.396   2.719
80735W        W45720  21.135  41.185   4.641
80736W        W45721  14.755  11.199  13.008
80737W        W45722  22.721  16.935  12.500
80738W        W45723  36.355  44.524   2.410
80739W        W45724  37.195  43.070   4.247
80740W        W45725   2.412  38.811  13.260
80741W        W45726  16.685  43.915  13.563
80742W        W45727  11.944  24.080  11.195
80743W        W45728  44.453  13.177  10.544
80744W        W45729   9.301  35.581   4.062
80745W        W45730  29.423   4.511  12.908
80746W        W45731  20.701  17.729  11.226
80747W        W45732  35.064  28.510  11.647
80748W        W45733  38.908  21.578  14.892
80749W        W45734  40.043  42.143   3.724
80750W        W45735  31.359  25.389  13.818
80751W        W45736  42.166  40.809  10.826
80752W        W45737  42.339  10.111  14.927
80753W        W45738  31.727  23.731   1.748
80754W        W45739  42.450   3.129  13.806
80755W        W45740   2.908  21.439   2.802
80756W        W45741  28.855  22.648   3.823
80757W        W45742  21.585  25.051   3.080
80758W        W45743  42.266   5.170  11.974
80759W        W45744  21.288  23.084   0.297
80760W        W45745  26.413  24.190  11.739
80761W        W45746  23.506  23.044  11.519
80762W        W45747  23.420   0.914  13.348
80763W        W45748   4.301  26.680   5.042
80764W        W45749  32.124   6.016  10.260
80765W        W45750   9.137   5.203   0.035
80766W        W45751  29.031  29.662   2.848
80767W        W45752  16.976  13.726  11.537
80768W        W45753  19.442  28.149   0.842
80769W        W45754  26.752  21.177  11.604
80770W        W45755  29.042  40.866   2.803
80771W        W45756  26.086  18.658   3.744
80772W        W45757  38.997  29.054  12.308
80773W        W45758  11.073   6.732   0.765
80774W        W45759  34.779   9.397  12.369
80775W        W45760  38.300  10.632   3.416
80776W        W45761   8.893  34.539   2.737
80777W        W45762  37.132  11.263   4.502
80778W        W45763  41.359  13.759  12.613
80779W        W45764  36.418  44.946  13.545
80780W        W45765  39.831  23.616   0.895
80781W        W45766  35.164  22.720   4.102
80782W        W45767  29.461  42.751   3.844
80783W        W45768  42.907   9.115   1.393
80784W        W45769   5.685   4.416   0.637
80785W        W45770  30.103   2.152   0.047
80786W        W45771   3.302  15.876  14.966
80787W        W45772  22.677  24.658   3.181
80788W        W45773  22.195  38.839   2.696
80789W        W45774  20.278   8.820   3.277
80790W        W45775  14.319   6.982  10.685
80791W        W45776  35.307  27.061   3.150
80792W        W45777  12.109   7.881  10.998
80793W        W45778  23.820  11.352  12.018
80794W        W45779  11.263  27.802  12.321
80795W        W45780   4.390   9.787  11.743
80796W        W45781  14.300  31.872   2.660
80797W        W45782  27.602   6.753  11.076
80798W        W45783  42.928  30.022   4.146
80799W        W45784  27.878  17.980  11.170
80800W        W45785  11.308   5.629   0.449
80801W        W45786  19.968   5.959  11.969
80802W        W45787  21.248  41.744   3.951
80803W        W45788  17.585  13.685   2.750
80804W        W45789   4.517  11.121  13.831
80805W        W45790  23.789  15.865   3.809
80806W        W45791  39.021  12.077   0.511
80807W        W45792   1.705  26.422  12.099
80808W        W45793  10.784  42.767  11.212
80809W        W45794  21.147   6.416   0.757
80810W        W45795  33.042  39.521   2.165
80811W        W45796   3.996  12.371  14.150
80812W        W45797  13.845  24.716   1.756
80813W        W45798  30.640  43.475  12.444
80814W        W45799   3.816  21.414  11.940
80815W        W45800   4.755  19.575   1.289
80816W        W45801  40.115  42.994   3.418
80817W        W45802  35.586  21.234   4.601
80818W        W45803  31.980  29.671  11.505
80819W        W45804   0.723   0.803   0.242
80820W        W45805  11.396  21.106   1.716
80821W        W45806  44.574  22.406  11.068
80822W        W45807  11.668   1.186   4.608
80823W        W45808  36.645   5.737   4.108
80824W        W45809   1.775  37.501  11.673
80825W        W45810  37.552  19.100  11.366
80826W        W45811  28.984  38.527  10.657
80827W        W45812  43.814   1.424   0.618
80828W        W45813  26.919  40.557  13.401
80829W        W45814  10.240  44.475   0.262
80830W        W45815   0.858  12.409  14.474
80831W        W45816   3.708  27.632  12.867
80832W        W45817  31.079  23.086  13.849
80833W        W45818  21.705   9.262   1.740
80834W        W45819  23.503  37.911  13.012
80835W        W45820  35.985  15.774  13.682
80836W        W45821  15.712  40.004   1.726
80837W        W45822  37.936  13.259   3.725
80838W        W45823  40.585  38.008  11.933
80839W        W45824  35.590   1.709   0.433
80840W        W45825  22.694  29.862   3.417
80841W        W45826   8.167  28.556  14.484
80842W        W45827   9.828  12.026  12.052
80843W        W45828  43.813  18.161  13.026
80844W        W45829  34.123  36.063  12.069
80845W        W45830  15.073  33.805  12.314
80846W        W45831  41.218   2.797  12.317
80847W        W45832  17.411   4.774  12.608
80848W        W45833   8.849   4.383  13.522
80849W        W45834  38.574  44.501   1.857
80850W        W45835  10.407  43.453  12.577
80851W        W45836   1.936   6.746  10.696
80852W        W45837  19.777   4.868  10.993
80853W        W45838  34.615  10.527  12.863
80854W        W45839  41.396  16.379   3.607
80855W        W45840  37.450  12.175  14.549
80856W        W45841  37.326  34.111  11.968
80857W        W45842  30.201  12.783  10.716
80858W        W45843  22.513  31.598   4.786
80859W        W45844   1.465  36.546  11.447
80860W        W45845   5.173  35.437   0.392
80861W        W45846  25.585  38.308  10.473
80862W        W45847  19.810  32.773   3.615
80863W        W45848  25.683  44.966   2.660
80864W        W45849  41.661  28.256   4.092
80865W        W45850  43.728  10.169  10.453
80866W        W45851  44.318  20.106  12.665
80867W        W45852   7.222  11.833  10.698
80868W        W45853  36.123   6.658   0.699
80869W        W45854  26.407  23.478  14.692
80870W        W45855  21.698  31.243  10.586
80871W        W45856  33.928  43.460   2.420
80872W        W45857  23.772  41.550  12.084
80873W        W45858  39.461  40.406  11.575
80874W        W45859  19.043   3.406   2.786
80875W        W45860  18.476   8.751  13.477
80876W        W45861   8.154  28.154  13.693
80877W        W45862  12.818  26.216   1.243
80878W        W45863   4.292  26.937  11.661
80879W        W45864  44.591  23.964   2.054
80880W        W45865  40.093  26.676  14.298
80881W        W45866  39.489  13.580  14.791
80882W        W45867  36.847   6.974  14.319
80883W        W45868  22.873  19.543  11.078
80884W        W45869  22.498  36.006   1.751
80885W        W45870  22.314   6.749  12.892
80886W        W45871   1.974   9.414   4.141
80887W        W45872  34.057  12.509   1.389
80888W        W45873  41.593   0.835  10.752
80889W        W45874   5.896  36.316  11.931
80890W        W45875  26.525  15.247   4.354
80891W        W45876   3.199   1.529   1.322
80892W        W45877  10.536   8.095   0.188
80893W        W45878  13.569  42.966   3.637
80894W        W45879  26.514   4.595   5.014
80895W        W45880  43.951  24.718  14.414
80896W        W45881  19.355  27.740  11.954
80897W        W45882  40.831  17.251  13.907
80898W        W45883  12.079  35.517  10.476
80899W        W45884  14.243  10.452  13.143
80900W        W45885  21.507  16.814  11.112
80901W        W45886  28.612  30.935  12.484
80902W        W45887  36.927   4.820  10.586
80903W        W45888  29.480  17.284  11.288
80904W        W45889  23.608  42.411  12.230
80905W        W45890  44.814  40.291   0.413
80906W        W45891  11.762  38.367   3.762
80907W        W45892  16.824   5.186  12.045
80908W        W45893  33.926  11.936   3.779
80909W        W45894   0.957  25.646  11.438
80910W        W45895  42.951  44.792  14.862
80911W        W45896  33.986  28.255  11.162
80912W        W45897  12.287   4.786   2.924
80913W        W45898   8.363  19.801   3.350
80914W        W45899   2.773  39.900   0.033
80915W        W45900  16.036   7.865  11.609
80916W        W45901  25.428  30.134   2.307
80917W        W45902  42.246  39.043  13.376
80918W        W45903   9.675  42.404   0.140
80919W        W45904  27.585   4.445  12.923
80920W        W45905  37.324  38.265   3.378
80921W        W45906  25.087   3.768   4.103
80922W        W45907  21.522  21.549   1.848
80923W        W45908  38.058  21.499   2.224
80924W        W45909  35.363  31.133   4.113
80925W        W45910  21.115   8.628  11.267
80926W        W45911  12.089   6.396  13.787
80927W        W45912  20.494  35.825   3.439
80928W        W45913  33.392  27.864   0.972
80929W        W45914  36.071  28.113  14.465
80930W        W45915  34.076   2.983  13.068
80931W        W45916  13.689   0.953  14.349
80932W        W45917  19.528   1.407   3.174
80933W        W45918   6.364   9.032   9.989
80934W        W45919   8.223  13.213   3.831
80935W        W45920  30.636  27.621  13.236
80936W        W45921  26.377   2.808  14.047
80937W        W45922  30.805  25.224   1.915
80938W        W45923   2.388  19.711   1.230
80939W        W45924  34.147  27.502   2.806
80940W        W45925   6.002  20.117  12.558
80941W        W45926  39.263  22.834  12.963
80942W        W45927  44.514   5.280   1.915
80943W        W45928   7.655   4.119   5.393
80944W        W45929  28.443  23.410  13.052
80945W        W45930  34.711  16.856  14.963
80946W        W45931   4.236  30.056  12.075
80947W        W45932  35.925  21.523   4.878
80948W        W45933  10.136   3.649   3.360
80949W        W45934  14.646  37.870  13.014
80950W        W45935   0.980  41.001   1.947
80951W        W45936  14.751  19.451  13.520
80952W        W45937  26.097  37.851   1.737
80953W        W45938  20.901  27.128   3.410
80954W        W45939  17.313  22.540   2.719
80955W        W45940   5.161  11.685  14.411
80956W        W45941  12.703  10.292  14.515
80957W        W45942  16.311   9.120   4.340
80958W        W45943  26.229  25.079  11.589
80959W        W45944   2.376   0.152   2.779
80960W        W45945  12.256  29.744   1.793
80961W        W45946  34.961  13.850  14.478
80962W        W45947  23.166   2.893  13.571
80963W        W45948  37.274  28.402  13.271
80964W        W45949  20.682  11.393  12.429
80965W        W45950  30.256  13.275   0.212
80966W        W45951   6.769   2.217  10.846
80967W        W45952  43.338  11.130   2.325
80968W        W45953   2.898  21.668   1.696
80969W        W45954  13.481  20.418  12.606
80970W        W45955   7.081   4.438  12.182
80971W        W45956   8.135  32.486  11.555
80972W        W45957  13.765  43.944   2.361
80973W        W45958  42.436   7.343  10.728
80974W        W45959  40.464   5.443   1.156
80975W        W45960   7.570   2.896   0.832
80976W        W45961  10.651  37.380   3.043
80977W        W45962   2.934  32.418   3.366
80978W        W45963  37.529  22.213  14.899
80979W        W45964  29.633  20.632  11.544
80980W        W45965  30.537  41.503   4.055
80981W        W45966  44.779  16.236   4.339
80982W        W45967  16.269  17.783   4.766
80983W        W45968  30.038  10.734   1.672
80984W        W45969  19.562  19.219   2.117
80985W        W45970  29.018  27.129  10.714
80986W        W45971  43.046  20.483   2.319
80987W        W45972  31.561  13.061  14.899
80988W        W45973  24.077  25.077   1.282
80989W        W45974  26.632  35.167   2.362
80990W        W45975  33.671  41.401  13.106
80991W        W45976   4.770  24.500  14.971
80992W        W45977  33.368  43.988  14.738
80993W        W45978  29.068  26.603   4.567
80994W        W45979   7.621  18.014  12.995
80995W        W45980  11.630   2.827  11.035
80996W        W45981  29.369  37.286  11.075
80997W        W45982   4.775   2.210   3.558
80998W        W45983  36.329  22.958   4.545
80999W        W45984  28.547   5.946   3.145
81000W        W45985  14.289  36.538   1.244
81001W        W45986  35.080   5.187   4.588
81002W        W45987   5.475  34.024   0.358
81003W        W45988  43.287   0.680  13.408
81004W        W45989   9.136  13.622   0.798
81005W        W45990  11.117   7.778   3.602
81006W        W45991  35.974  27.855  12.573
81007W        W45992  42.368   6.816   2.914
81008W        W45993  22.113  24.710  11.155
81009W        W45994  12.814  32.397   3.653
81010W        W45995  18.910  37.126   3.805
81011W        W45996  17.282  18.862  13.410
81012W        W45997  39.395  12.144   1.121
81013W        W45998   8.985  15.861   3.704
81014W        W45999  10.156  12.718   2.653
81015W        W46000  18.659  20.491   2.552
81016W        W46001  35.840  44.229  11.090
81017W        W46002   8.343  35.093  10.721
81018W        W46003  36.384  34.019  14.729
81019W        W46004  37.537  32.011   3.677
81020W        W46005   3.442  28.721  14.366
81021W        W46006  16.198   6.207   0.461
81022W        W46007  40.630  34.949   0.345
81023W        W46008  30.175  19.750   4.564
81024W        W46009  43.905   6.225  10.620
81025W        W46010   5.272  12.079  11.156
81026W        W46011  34.533  10.690   3.661
81027W        W46012  26.395  33.577   0.711
81028W        W46013  36.062  41.966   3.089
81029W        W46014  41.584  40.368  12.439
81030W        W46015  40.044  20.876   1.747
81031W        W46016  30.795  37.962  13.936
81032W        W46017   6.245  42.383   2.636
81033W        W46018  37.322  11.701  11.691
81034W        W46019  26.350  17.175   4.716
81035W        W46020  34.747  22.609   3.281
81036W        W46021  21.927  36.292  14.840
81037W        W46022  29.496  19.194  11.417
81038W        W46023   5.261  39.905   2.717
81039W        W46024  27.726   5.602   4.421
81040W        W46025  40.020  32.153   4.081
81041W        W46026  33.883  22.172   4.918
81042W        W46027  16.433  15.168  13.965
81043W        W46028   5.231  12.347   0.721
81044W        W46029   0.537   2.709   0.841
81045W        W46030  14.527  42.439   0.356
81046W        W46031  14.368  37.977   0.594
81047W        W46032  37.256  12.894  11.965
81048W        W46033  13.292  35.917  10.943
81049W        W46034  43.384  41.597  12.714
81050W        W46035   1.245  38.884   1.365
81051W        W46036  40.335   0.541  13.688
81052W        W46037  21.009  12.096   2.376
81053W        W46038  40.027  37.352  12.766
81054W        W46039  38.501  26.721   2.822
81055W        W46040  39.720   7.320   0.889
81056W        W46041  39.500  24.527  13.213
81057W        W46042  28.134  43.227  11.613
81058W        W46043   3.791  30.839  10.157
81059W        W46044  25.408  34.847  12.284
81060W        W46045  12.250  19.493  12.015
81061W        W46046  36.533  30.739   3.299
81062W        W46047  14.069  38.388   0.670
81063W        W46048   2.665  25.065   0.218
81064W        W46049  12.279   9.738  12.934
81065W        W46050  38.000   8.469   1.483
81066W        W46051  17.905   7.163   2.800
81067W        W46052  44.716  38.290   2.494
81068W        W46053  14.163  36.827   2.252
81069W        W46054  24.497  37.497  10.752
81070W        W46055  24.733  13.693   1.342
81071W        W46056   4.963  21.596   1.232
81072W        W46057   6.445  12.309   4.538
81073W        W46058   6.743  22.622   4.297
81074W        W46059  31.746  19.213   3.557
81075W        W46060  13.832  33.988  14.984
81076W        W46061  30.431  37.370   0.003
81077W        W46062  41.775  39.087  11.175
81078W        W46063  40.890   1.730  14.865
81079W        W46064  39.504  41.861  14.176
81080W        W46065  37.493  33.888   2.901
81081W        W46066  19.065  15.243   1.442
81082W        W46067  24.790  39.335   3.332
81083W        W46068  22.252  14.383   3.424
81084W        W46069   8.270  39.946  10.871
81085W        W46070  42.320  13.635   1.072
81086W        W46071  29.059   5.178  13.899
81087W        W46072  36.726  23.901  10.718
81088W        W46073  16.641   1.942  14.436
81089W        W46074   3.511  20.824   0.317
81090W        W46075   8.219  40.056   1.544
81091W        W46076   6.684  30.107  12.522
81092W        W46077  30.955  42.077   0.203
81093W        W46078  31.587  37.606   4.842
81094W        W46079  17.184  11.395  13.545
81095W        W46080  36.070   1.856   1.850
81096W        W46081   9.295  22.911  12.460
81097W        W46082   1.285  16.568   3.264
81098W        W46083  23.863   2.940   2.266
81099W        W46084  24.991  27.751   2.416
81100W        W46085  38.040  22.513   2.275
81101W        W46086   3.745  18.314  11.528
81102W        W46087  24.161  11.118  10.621
81103W        W46088  29.794   2.388   1.277
81104W        W46089  19.252   2.556   3.045
81105W        W46090  24.113  16.787   2.824
81106W        W46091  14.660  20.529   3.787
81107W        W46092  12.069  28.933   3.531
81108W        W46093  37.167   6.206   3.658
81109W        W46094  16.250  14.014  13.334
81110W        W46095  40.811  33.511  10.755
81111W        W46096  19.728  34.991  11.805
81112W        W46097   7.268   8.202  12.568
81113W        W46098  10.140   4.713   4.196
81114W        W46099   8.756  25.535  11.151
81115W        W46100  34.108  36.591   3.076
81116W        W46101   4.169   0.904  11.988
81117W        W46102  21.473  10.795   1.993
81118W        W46103  40.704  37.982  11.018
81119W        W46104  29.514  24.519   2.931
81120W        W46105  44.105  13.225   5.306
81121W        W46106  17.215  20.287  14.444
81122W        W46107   0.286   8.256  13.333
81123W        W46108   3.028  13.668   3.338
81124W        W46109  12.690   3.458  11.243
81125W        W46110   7.180  29.997   2.643
81126W        W46111   1.189  21.225  12.181
81127W        W46112   6.711  39.956   0.895
81128W        W46113  40.234   7.468  11.432
81129W        W46114   7.289   2.234   0.801
81130W        W46115  16.876   8.293  11.489
81131W        W46116  30.383  38.674   3.587
81132W        W46117  22.218  39.503   3.413
81133W        W46118  34.903   5.925  13.556
81134W        W46119  18.765  20.230  12.254
81135W        W46120  32.614  23.020  11.851
81136W        W46121   4.847   3.441   3.445
81137W        W46122   9.721   4.757   4.965
81138W        W46123  25.007  20.650  10.442
81139W        W46124   3.251  44.098   0.239
81140W        W46125  35.291  33.521   3.642
81141W        W46126  18.901   6.719  13.405
81142W        W46127  16.099  15.669  12.121
81143W        W46128  16.166  43.398  14.791
81144W        W46129  13.817   6.309   0.724
81145W        W46130   6.393  34.790  12.380
81146W        W46131   6.396   7.263   1.774
81147W        W46132  35.460  19.337  12.528
81148W        W46133   3.418  42.973  11.316
81149W        W46134   9.475  20.573  10.475
81150W        W46135  25.051   1.288   0.621
81151W        W46136   9.784  44.214   0.370
81152W        W46137  10.186  13.754  11.964
81153W        W46138  38.087  36.368  13.605
81154W        W46139  42.429   9.105  11.570
81155W        W46140  41.650  38.078   2.707
81156W        W46141   1.935   0.791  13.878
81157W        W46142  25.086  15.534   0.770
81158W        W46143  43.050  13.424   2.531
81159W        W46144  22.763  23.708  10.358
81160W        W46145  15.257   8.924  13.395
81161W        W46146  35.866  25.077   1.126
81162W        W46147   5.166  12.141   4.633
81163W        W46148   4.414   7.747  14.047
81164W        W46149  37.833  21.520  12.101
81165W        W46150  14.774  24.511  14.881
81166W        W46151  33.439  29.369  10.612
81167W        W46152  20.250  34.349   4.289
81168W        W46153   3.040  38.861  13.783
81169W        W46154  30.235  16.227   3.575
81170W        W46155  38.200  34.869   1.798
81171W        W46156  37.944  38.266   4.533
81172W        W46157  37.022  37.957   0.768
81173W        W46158   9.640  31.114  13.971
81174W        W46159   0.756  27.874  14.770
81175W        W46160  31.616  17.702   5.123
81176W        W46161  21.186   2.922   1.128
81177W        W46162  44.651  43.117   2.750
81178W        W46163  24.046   7.321   4.727
81179W        W46164  36.540  18.433   1.807
81180W        W46165  28.174  34.878   4.895
81181W        W46166   8.326  14.823   4.316
81182W        W46167   7.709  35.338  11.140
81183W        W46168   6.480  12.655  11.678
81184W        W46169  36.493  23.554  12.599
81185W        W46170  28.355  43.724   3.101
81186W        W46171  24.346  18.438   3.907
81187W        W46172   5.381  26.581   1.733
81188W        W46173  36.036  40.861   4.706
81189W        W46174   0.454  39.734  13.028
81190W        W46175  35.943  36.455  12.354
81191W        W46176  30.386  22.151   3.240
81192W        W46177  36.763   3.903   0.961
81193W        W46178   4.256   9.341  13.084
81194W        W46179   2.147  23.071   1.425
81195W        W46180   1.961  35.133  12.938
81196W        W46181  44.934  32.768  14.223
81197W        W46182   1.662  43.394   4.624
81198W        W46183  29.576  19.128   0.702
81199W        W46184   7.280  29.684  13.468
81200W        W46185   4.267   4.437  12.880
81201W        W46186  38.499  35.353   2.690
81202W        W46187   5.873   2.501   0.062
81203W        W46188  41.545   1.918   4.565
81204W        W46189  33.339   9.833   0.549
81205W        W46190  38.207  35.571   4.569
81206W        W46191  37.441   5.685  12.127
81207W        W46192  28.527  29.655  10.620
81208W        W46193  18.986  41.952  10.682
81209W        W46194  26.618  20.719  13.037
81210W        W46195  29.184   1.222  10.558
81211W        W46196  12.223  16.120  12.147
81212W        W46197  33.689   3.999   5.000
81213W        W46198   0.243   0.262  13.928
81214W        W46199  28.623  25.657  12.659
81215W        W46200  44.023  11.848   4.106
81216W        W46201  13.078  39.970   0.281
81217W        W46202  38.916   3.514  13.934
81218W        W46203  22.701  17.905  12.312
81219W        W46204  44.388  15.726   1.439
81220W        W46205  14.272  28.211  14.619
81221W        W46206  22.719  27.129   0.468
81222W        W46207  20.509   9.859  13.548
81223W        W46208   2.351  37.642   4.744
81224W        W46209  31.930   7.844  14.402
81225W        W46210  41.497  30.332   2.293
81226W        W46211  11.849  32.101  12.158
81227W        W46212  32.397  13.269  12.392
81228W        W46213  25.435  24.053  13.208
81229W        W46214  25.256  24.841   1.345
81230W        W46215  15.669   9.195   3.536
81231W        W46216   6.944  30.223   0.457
81232W        W46217  38.142  21.214  10.781
81233W        W46218  39.367   0.408  11.017
81234W        W46219  41.553  22.235   5.015
81235W        W46220   7.424  30.863  12.034
81236W        W46221  44.241  32.964   4.296
81237W        W46222   4.316   0.803   0.255
81238W        W46223  33.161  40.059   0.021
81239W        W46224   7.061  44.036  13.337
81240W        W46225  15.299  29.627   2.224
81241W        W46226  42.212  37.423  12.572
81242W        W46227  34.360  44.952   2.761
81243W        W46228  15.620  41.356   3.573
81244W        W46229   1.016  28.023   1.670
81245W        W46230   2.728  24.291  12.444
81246W        W46231  39.003   8.864   0.889
81247W        W46232   6.947  22.277   2.695
81248W        W46233   9.665  10.838   0.344
81249W        W46234  29.787  16.976   5.046
81250W        W46235  19.742  43.402   2.766
81251W        W46236  11.058  30.057  14.418
81252W        W46237  26.992  11.191   2.881
81253W        W46238   7.385  16.312   0.884
81254W        W46239  11.973  30.092  11.253
81255W        W46240  13.226   2.151   1.900
81256W        W46241  38.403  40.397  14.559
81257W        W46242  15.729  14.303  10.595
81258W        W46243  42.887   1.269   3.915
81259W        W46244  36.434  41.001   1.944
81260W        W46245  26.034   4.481   2.771
81261W        W46246  19.722  28.602   4.580
81262W        W46247   5.946  42.963   4.906
81263W        W46248  35.923   9.303   4.632
81264W        W46249  16.768  23.671  14.929
81265W        W46250  40.280   4.879  10.445
81266W        W46251  12.604  33.726   2.921
81267W        W46252  26.190  24.712   2.803
81268W        W46253  37.368  36.804  13.970
81269W        W46254  33.941  38.161   2.754
81270W        W46255  18.297  18.009  13.876
81271W        W46256  27.246  25.912  11.977
81272W        W46257  11.216  27.822   4.569
81273W        W46258  36.836   6.627  11.050
81274W        W46259  22.824  20.685   1.343
81275W        W46260   6.580  39.873  10.664
81276W        W46261  18.958  36.128  13.696
81277W        W46262  30.509  24.913  11.091
81278W        W46263  27.546  37.117  14.739
81279W        W46264  15.627  12.656  12.686
81280W        W46265  17.190  16.906  14.400
81281W        W46266   9.101  16.801  11.595
81282W        W46267   2.881  31.445  10.688
81283W        W46268  41.383  22.682   3.493
81284W        W46269  15.145  29.132  13.057
81285W        W46270  34.530  23.949  11.952
81286W        W46271  11.890  10.824   2.262
81287W        W46272  22.912  20.076  11.954
81288W        W46273  26.580  33.618   9.975
81289W        W46274  19.200  42.978  11.631
81290W        W46275  16.229   0.833   0.851
81291W        W46276  30.768  25.653   1.036
81292W        W46277  33.906   7.702  13.895
81293W        W46278  34.849  13.264  10.573
81294W        W46279   0.748   3.268  11.286
81295W        W46280  30.936  35.427  10.829
81296W        W46281  24.229  14.285  10.777
81297W        W46282  22.519  30.474   5.055
81298W        W46283  27.035  10.436  14.306
81299W        W46284  27.682  28.945   1.253
81300W        W46285   8.370  28.132   2.350
81301W        W46286  12.146   1.413   2.888
81302W        W46287  42.012  14.328  13.301
81303W        W46288   5.083  33.845  10.778
81304W        W46289  16.762   2.876   0.670
81305W        W46290  33.059  13.903  13.818
81306W        W46291   2.014  40.919  11.753
81307W        W46292  41.453   4.921  14.492
81308W        W46293  19.522   6.210  11.895
81309W        W46294  24.043  28.451   4.161
81310W        W46295   2.150   4.459   2.311
81311W        W46296   9.291  42.696  14.689
81312W        W46297  21.181   5.158  13.896
81313W        W46298  20.155  36.825  12.844
81314W        W46299  13.169   6.741  13.168
81315W        W46300  35.514  19.290   3.108
81316W        W46301  21.992  34.436  14.904
81317W        W46302  12.170  20.303   0.637
81318W        W46303  25.476  43.021   4.221
81319W        W46304  19.685  32.416  14.002
81320W        W46305  25.945  40.897  13.397
81321W        W46306   7.816  42.989  12.957
81322W        W46307  36.419  17.562   1.904
81323W        W46308  11.166  39.576   2.658
81324W        W46309  43.710  32.890   3.024
81325W        W46310   6.252  31.095  13.593
81326W        W46311  24.183  34.194   4.497
81327W        W46312  11.452  18.621  13.092
81328W        W46313  17.759  12.802   0.883
81329W        W46314  12.282   6.688   4.795
81330W        W46315  39.085  39.548   0.154
81331W        W46316  30.485  20.027   2.789
81332W        W46317   8.387  28.595   4.152
81333W        W46318  28.003  42.069   0.987
81334W        W46319  16.218  35.939   0.794
81335W        W46320  22.706  41.525   1.369
81336W        W46321  23.427  13.865   4.592
81337W        W46322  14.857  21.315   4.189
81338W        W46323  43.907   3.255  14.910
81339W        W46324  34.531  11.206  12.898
81340W        W46325  40.407  15.696  11.779
81341W        W46326  15.830  20.336   0.053
81342W        W46327  22.067  11.572  10.700
81343W        W46328  11.204  16.698   1.522
81344W        W46329   9.871  10.815   2.274
81345W        W46330   0.313  22.285  10.463
81346W        W46331  31.956   2.685  14.055
81347W        W46332  16.039   4.282   0.763
81348W        W46333  12.126  41.747  10.637
81349W        W46334  22.185  41.723   3.039
81350W        W46335  23.087  13.350   3.182
81351W        W46336  41.641  36.188   4.831
81352W        W46337  19.630   0.421  13.150
81353W        W46338   3.375  32.223  10.634
81354W        W46339  11.808  37.316   1.858
81355W        W46340  27.967  43.484  12.924
81356W        W46341   0.811  18.325  13.416
81357W        W46342  33.966  35.341   2.829
81358W        W46343  35.159  14.137   4.562
81359W        W46344  30.808   2.641   3.244
81360W        W46345   8.988  19.084   1.332
81361W        W46346  36.378  24.999   1.214
81362W        W46347  16.431   7.518  11.481
81363W        W46348  20.105  38.055   3.350
81364W        W46349  13.798  18.639   4.387
81365W        W46350  12.294   3.902   0.791
81366W        W46351  24.698   3.371   1.180
81367W        W46352  38.356  21.041  13.326
81368W        W46353  40.077  37.466  11.836
81369W        W46354  18.060  24.508  13.374
81370W        W46355  16.988  12.681  12.401
81371W        W46356  10.388  22.168   2.714
81372W        W46357  21.175   8.345  10.851
81373W        W46358  25.284  34.428   2.799
81374W        W46359  13.790   5.604  13.748
81375W        W46360  44.374   7.675  12.131
81376W        W46361   6.322   8.621  11.923
81377W        W46362  17.367  13.243   1.796
81378W        W46363  10.720  26.595  12.924
81379W        W46364  43.028  18.477  13.549
81380W        W46365  32.459  10.211  12.168
81381W        W46366  31.364  14.495   4.895
81382W        W46367  27.093  12.652  11.233
81383W        W46368  12.158  17.717   0.229
81384W        W46369   1.207  23.683   4.714
81385W        W46370  41.451   7.242  11.215
81386W        W46371  24.210   1.413  12.231
81387W        W46372  32.885  41.242   5.100
81388W        W46373  21.624   2.725   3.218
81389W        W46374   1.680   8.832  13.899
81390W        W46375  34.802  27.021   3.099
81391W        W46376  44.052  26.172  11.136
81392W        W46377  26.241  25.158  14.380
81393W        W46378   1.954  24.168  12.178
81394W        W46379  35.312  30.691  11.138
81395W        W46380  30.649  38.957  13.139
81396W        W46381  24.664  15.711   4.086
81397W        W46382  12.594   7.260  10.614
81398W        W46383  24.105  28.864  13.022
81399W        W46384  18.315  40.315   2.390
81400W        W46385  13.649  18.042  14.510
81401W        W46386   9.123   7.709  12.085
81402W        W46387  20.732  22.708   3.878
81403W        W46388  29.558  44.290   2.887
81404W        W46389  28.939  14.881   0.801
81405W        W46390  27.512  41.260  12.427
81406W        W46391  39.429  41.138   4.305
81407W        W46392  37.522   4.743  14.046
81408W        W46393  28.193   3.788  13.537
81409W        W46394   0.255   2.505  13.726
81410W        W46395   0.705   8.000  12.156
81411W        W46396  36.946   4.963   4.058
81412W        W46397  28.051   5.460   2.788
81413W        W46398   4.935  23.942  10.951
81414W        W46399  26.180   3.744  13.405
81415W        W46400  18.967  33.951  14.896
81416W        W46401  23.985  44.524  12.898
81417W        W46402  27.703  14.200   0.847
81418W        W46403  40.769   9.681   1.934
81419W        W46404  13.089   3.286   4.611
81420W        W46405  39.217  14.650  12.188
81421W        W46406   0.460  12.100   3.389
81422W        W46407  20.590  20.771   4.640
81423W        W46408  13.052  17.230  11.220
81424W        W46409   9.716   9.172   3.193
81425W        W46410  11.798  40.492   4.573
81426W        W46411  16.427   1.972   3.781
81427W        W46412   3.196  36.537   4.081
81428W        W46413   1.400   1.484  12.916
81429W        W46414  20.061   0.767  13.392
81430W        W46415  24.898  22.516  10.509
81431W        W46416  44.273  15.240   1.752
81432W        W46417   2.880  30.155  14.399
81433W        W46418  15.583  16.573  13.743
81434W        W46419   2.791  16.382   4.530
81435W        W46420  21.267   1.944  14.544
81436W        W46421  17.821   2.121   4.560
81437W        W46422  20.665   7.848  14.780
81438W        W46423  23.181  17.952   4.141
81439W        W46424   2.832  24.731   2.722
81440W        W46425   0.361  33.685   4.592
81441W        W46426  11.161  28.161   4.169
81442W        W46427  22.582   5.935   1.575
81443W        W46428   1.246  29.938  10.513
81444W        W46429  40.956   0.669  12.593
81445W        W46430   1.336  33.462  14.263
81446W        W46431   2.493  23.011   4.550
81447W        W46432  39.091   4.827   2.422
81448W        W46433  35.908   5.207  12.861
81449W        W46434   3.167  33.906  12.476
81450W        W46435  10.859  26.101   0.335
81451W        W46436   9.456  12.947  10.393
81452W        W46437  26.315  37.331   2.649
81453W        W46438  15.718  26.085  12.416
81454W        W46439  29.349  13.112  14.270
81455W        W46440  42.362  16.862   2.786
81456W        W46441  13.078  42.091  13.853
81457W        W46442  42.972  33.539   2.367
81458W        W46443  19.247   2.939  11.194
81459W        W46444  37.093   9.373  14.438
81460W        W46445   8.397  28.777  11.987
81461W        W46446  33.165  32.754   2.772
81462W        W46447  36.387   2.808   1.408
81463W        W46448  29.952   2.777  14.221
81464W        W46449   2.296  41.450   4.741
81465W        W46450  25.073  38.477  13.761
81466W        W46451   9.931   1.980   2.088
81467W        W46452  24.148  36.149  14.281
81468W        W46453  37.596  16.823   4.576
81469W        W46454  17.661  24.023  14.000
81470W        W46455  16.001  18.566   4.624
81471W        W46456   3.704  40.322  14.399
81472W        W46457  41.581  42.861  13.667
81473W        W46458   9.361  16.541   4.740
81474W        W46459  26.308   4.657  11.172
81475W        W46460  44.441  11.373  14.807
81476W        W46461  11.821   8.924  11.445
81477W        W46462  43.351  44.784  14.525
81478W        W46463  36.816  36.089   1.560
81479W        W46464   5.843  24.502   2.830
81480W        W46465   2.843   0.856   4.345
81481W        W46466  30.346  34.055  12.994
81482W        W46467  42.841  43.795   3.710
81483W        W46468  40.598  44.583   4.842
81484W        W46469  30.282  11.381   4.968
81485W        W46470  39.538  32.592   1.622
81486W        W46471  35.997  40.303   0.947
81487W        W46472  38.677   9.681  10.630
81488W        W46473  30.176  22.436  11.229
81489W        W46474  27.002   7.838   2.830
81490W        W46475  19.581  13.249   4.916
81491W        W46476  19.539  33.608  11.596
81492W        W46477   3.471  27.631   1.404
81493W        W46478  16.155  33.650   0.699
81494W        W46479   8.565  22.447  10.696
81495W        W46480  39.029  14.643   1.633
81496W        W46481   8.144   7.818   2.700
81497W        W46482  21.838  28.420  14.442
81498W        W46483  39.256   6.228  11.245
81499W        W46484  15.114  13.906  11.131
81500W        W46485  14.861  14.558   2.698
81501W        W46486  19.266   3.421  10.938
81502W        W46487   1.410  33.971  12.165
81503W        W46488  41.834   8.146  13.482
81504W        W46489  12.802  13.202  10.676
81505W        W46490  36.867   1.221   3.643
81506W        W46491  37.608   9.994   9.852
81507W        W46492  23.238  12.765   2.793
81508W        W46493  29.402  10.126   2.682
81509W        W46494  26.056  33.399   4.182
81510W        W46495  43.190  21.744   2.696
81511W        W46496   5.821  40.187  10.919
81512W        W46497  28.482  31.039   1.785
81513W        W46498  12.920  16.674  12.531
81514W        W46499  17.369   1.317  12.541
81515W        W46500   2.242  39.328  11.147
81516W        W46501  11.410  16.193   4.044
81517W        W46502   6.328  23.721   4.214
81518W        W46503  26.546  18.423  14.860
81519W        W46504  20.965  35.822   3.228
81520W        W46505  13.862  11.684   3.034
81521W        W46506   0.268  38.636   1.054
81522W        W46507  24.596  25.183   1.269
81523W        W46508  34.531  36.564   3.930
81524W        W46509  19.483  16.292  10.332
81525W        W46510   5.358  18.777  11.547
81526W        W46511   5.301  37.549  10.019
81527W        W46512  35.154  16.302   3.669
81528W        W46513   3.708  22.226   1.208
81529W        W46514  39.907  24.536   2.014
81530W        W46515   7.161   1.406   4.095
81531W        W46516   9.467  14.639  12.855
81532W        W46517  17.232  27.216   1.358
81533W        W46518   1.786  21.282   2.598
81534W        W46519   5.308  11.458  10.463
81535W        W46520  18.251  17.193  11.984
81536W        W46521  44.247  19.617   2.757
81537W        W46522  30.580  32.554   2.888
81538W        W46523   5.754  44.335   2.680
81539W        W46524   8.872  14.839   1.225
81540W        W46525   8.786  22.696  14.365
81541W        W46526  34.572   4.592  13.625
81542W        W46527  23.320  25.785   0.260
81543W        W46528   5.764  28.004  12.506
81544W        W46529  23.256  13.561  12.826
81545W        W46530  43.000   5.716   2.695
81546W        W46531   1.324  42.994  13.060
81547W        W46532  25.131  27.403  10.710
81548W        W46533  10.196  35.879  10.793
81549W        W46534  24.766  21.169  12.951
81550W        W46535  30.595   1.699  12.013
81551W        W46536  39.271  26.430  12.293
81552W        W46537  24.210  27.575   1.770
81553W        W46538  29.982  29.822  11.332
81554W        W46539  18.671   7.635   2.743
81555W        W46540   3.217  24.647   3.191
81556W        W46541  41.896  28.601  13.560
81557W        W46542  16.948  23.475  13.936
81558W        W46543  30.927  31.634   0.903
81559W        W46544  21.916   2.970   5.072
81560W        W46545  44.295   5.324   0.379
81561W        W46546  21.339  33.527  14.850
81562W        W46547   4.478  20.766   0.410
81563W        W46548  24.785  17.230   4.604
81564W        W46549   2.389   5.363   3.821
81565W        W46550  25.586  34.344   0.968
81566W        W46551  36.831  36.625   1.415
81567W        W46552  19.687  19.226  11.215
81568W        W46553  30.038  36.472  11.702
81569W        W46554  41.955  29.993  12.683
81570W        W46555  35.633   6.637  12.109
81571W        W46556  41.905  11.199  14.542
81572W        W46557   6.960  24.152  12.967
81573W        W46558  16.430   9.341  14.769
81574W        W46559   3.361  19.062  13.243
81575W        W46560   9.489  10.962  13.147
81576W        W46561  41.789  16.625   3.864
81577W        W46562  18.443  28.090   2.955
81578W        W46563   9.318   1.689   0.225
81579W        W46564   7.221  41.276  14.564
81580W        W46565   5.033  17.033   3.171
81581W        W46566  32.859  39.673  11.084
81582W        W46567  38.916  24.285   1.735
81583W        W46568  20.364  30.171  13.267
81584W        W46569  17.067  10.774  12.407
81585W        W46570  35.748  32.504   1.451
81586W        W46571  36.000   8.379  13.428
81587W        W46572  16.298  20.552   3.026
81588W        W46573   0.512  26.688   1.631
81589W        W46574  28.650  27.543   4.585
81590W        W46575  20.531  33.414  12.566
81591W        W46576  16.291  40.411  13.815
81592W        W46577  23.823  29.427  11.016
81593W        W46578  29.380   9.205   0.776
81594W        W46579  30.085  28.729  14.736
81595W        W46580  30.707  25.250   4.074
81596W        W46581  26.000   3.948  11.388
81597W        W46582  42.010  19.650  10.688
81598W        W46583  40.271  13.604  13.899
81599W        W46584  44.423  17.156   4.878
81600W        W46585  17.341  38.974   9.985
81601W        W46586   1.272  24.638   4.707
81602W        W46587  11.332  12.539  14.578
81603W        W46588   9.182  16.966   0.568
81604W        W46589   4.022   7.087   4.630
81605W        W46590  33.610  33.301   4.134
81606W        W46591  39.925   0.747  12.866
81607W        W46592  39.820  30.544  11.492
81608W        W46593  12.824  25.947   4.168
81609W        W46594  36.380   7.362   0.022
81610W        W46595  22.397  17.927  12.722
81611W        W46596   7.400   0.314   3.996
81612W        W46597   8.135  13.207  12.571
81613W        W46598  16.366   5.971  13.436
81614W        W46599  39.493   5.244   0.315
81615W        W46600  10.769  13.119   1.953
81616W        W46601  16.617  35.546   4.577
81617W        W46602  25.143  42.196   4.230
81618W        W46603  27.246  26.451  14.220
81619W        W46604   0.008  23.526   3.765
81620W        W46605  35.437  36.638  14.804
81621W        W46606  26.016  43.905  11.653
81622W        W46607  39.394  34.500  13.081
81623W        W46608   7.099  41.559  12.093
81624W        W46609  37.073  14.831   1.193
81625W        W46610  24.920   8.434  13.073
81626W        W46611  40.663  44.971   2.011
81627W        W46612  35.612  23.701  12.520
81628W        W46613  10.841  37.887   1.832
81629W        W46614  17.340  10.477   3.740
81630W        W46615  18.083  42.419  13.086
81631W        W46616  11.320  38.351   0.156
81632W        W46617  20.275  35.416   4.524
81633W        W46618   5.104   6.722  12.466
81634W        W46619  18.722  23.972   3.678
81635W        W46620  18.286  39.946  13.095
81636W        W46621  22.541   3.182   5.223
81637W        W46622  31.462   8.002   2.678
81638W        W46623  39.944  36.635   1.953
81639W        W46624  23.769  10.312   4.562
81640W        W46625   5.879   4.228  11.210
81641W        W46626   2.263  34.976   1.762
81642W        W46627  28.574  12.690  13.138
81643W        W46628  15.034  27.818  12.578
81644W        W46629  41.007  13.806   0.036
81645W        W46630   4.860  19.174  12.413
81646W        W46631  37.021  38.972   1.391
81647W        W46632   9.450  27.473   4.058
81648W        W46633  19.467  41.779   4.637
81649W        W46634  21.740   9.771   1.824
81650W        W46635  44.993  40.535  12.189
81651W        W46636  23.247   3.707  13.484
81652W        W46637  41.629  27.944  13.821
81653W        W46638  43.553  24.610  10.583
81654W        W46639  26.960  44.027   3.089
81655W        W46640  39.209  37.090   4.403
81656W        W46641  17.251   7.258  13.087
81657W        W46642  32.443  34.419   2.140
81658W        W46643   3.263  13.639  13.750
81659W        W46644  36.349  26.654   1.672
81660W        W46645  32.428   1.214   1.392
81661W        W46646  42.669  37.421  10.750
81662W        W46647  10.929  34.403  14.352
81663W        W46648  23.944  16.320  11.526
81664W        W46649  20.253  40.527  14.314
81665W        W46650  12.699  20.103  10.713
81666W        W46651  44.424  38.443  14.472
81667W        W46652  27.017  14.730   3.161
81668W        W46653   5.687  23.751  12.139
81669W        W46654   2.184  41.124  13.943
81670W        W46655  14.445  22.047   3.271
81671W        W46656   9.385  43.002   2.865
81672W        W46657  21.683  18.498   5.406
81673W        W46658  44.396  29.107  14.651
81674W        W46659  19.020  34.917  14.131
81675W        W46660  20.007  43.956  12.297
81676W        W46661  28.750  29.651   1.417
81677W        W46662  10.848   7.864   9.530
81678W        W46663   0.321  19.512   1.301
81679W        W46664   5.470   6.419  13.334
81680W        W46665  37.909  37.615   0.791
81681W        W46666  14.604  41.521   0.359
81682W        W46667   0.270  43.813  14.455
81683W        W46668  21.998   9.147   0.794
81684W        W46669  34.601  34.048  14.488
81685W        W46670  27.512   5.321  13.866
81686W        W46671  14.820   1.425   4.103
81687W        W46672  20.969  40.016  13.861
81688W        W46673  26.360  37.575  14.867
81689W        W46674  28.178  27.543   4.320
81690W        W46675  27.624  21.749  11.094
81691W        W46676  20.168  16.372  13.904
81692W        W46677  20.684  38.282  14.875
81693W        W46678  20.004   2.625   4.006
81694W        W46679   7.948   0.743   0.442
81695W        W46680  12.368   7.310   3.618
81696W        W46681   3.154  33.243  13.578
81697W        W46682  17.650  28.170   0.904
81698W        W46683  41.223  15.470  12.342
81699W        W46684  39.051   5.478   1.947
81700W        W46685   3.222  21.538   2.210
81701W        W46686   4.241  13.947  12.575
81702W        W46687   9.196  19.431  10.656
81703W        W46688  44.806  31.470  11.548
81704W        W46689  10.345  31.747  13.335
81705W        W46690  14.100  24.610   3.225
81706W        W46691  43.943  15.431  13.296
81707W        W46692  38.393  43.001  11.287
81708W        W46693  19.051  28.703   0.841
81709W        W46694  19.747  35.521   1.782
81710W        W46695  33.915  22.705  12.160
81711W        W46696  39.806  22.259   0.802
81712W        W46697  15.766  12.392  13.120
81713W        W46698  15.873  40.682   2.408
81714W        W46699  25.180  29.334   4.161
81715W        W46700  24.114  37.675   9.648
81716W        W46701  23.669  35.553   4.545
81717W        W46702  43.919   5.279   2.040
81718W        W46703  30.747  17.548  13.220
81719W        W46704  33.641   4.750  13.539
81720W        W46705  21.447   8.695   1.291
81721W        W46706  19.764  26.057   3.643
81722W        W46707  21.886   1.717   4.159
81723W        W46708  16.054  41.415   0.234
81724W        W46709  31.447  38.852   0.417
81725W        W46710   7.394  12.250  14.541
81726W        W46711  29.442   2.478  10.953
81727W        W46712  25.028  27.093   0.750
81728W        W46713  32.374  27.022  11.615
81729W        W46714  19.758   8.645   9.511
81730W        W46715  12.346  19.292   0.780
81731W        W46716   3.807  36.799  13.496
81732W        W46717  30.931  42.303  14.431
81733W        W46718  17.011  26.883   1.033
81734W        W46719   5.795  43.629   0.266
81735W        W46720   4.765   0.918   3.425
81736W        W46721  39.883   0.725   3.326
81737W        W46722  26.027  27.721   0.504
81738W        W46723  12.752  18.456  12.586
81739W        W46724  39.303  11.084  14.450
81740W        W46725   7.478  20.630   4.540
81741W        W46726  30.102  18.672   1.738
81742W        W46727   1.071   0.432   4.925
81743W        W46728  16.257   7.749   0.250
81744W        W46729  21.337  29.411   1.060
81745W        W46730  25.213  37.577  10.816
81746W        W46731   2.594  38.552  11.937
81747W        W46732  38.339   1.723  12.842
81748W        W46733   2.867  23.489  13.346
81749W        W46734  41.892  17.001  10.678
81750W        W46735  10.776  37.428   3.524
81751W        W46736  15.724   7.110  13.427
81752W        W46737  43.578  31.638   1.900
81753W        W46738  23.038  16.506  13.545
81754W        W46739   7.875   9.261   1.177
81755W        W46740   4.241  26.529   0.711
81756W        W46741  15.570   9.782  10.222
81757W        W46742  30.392  26.434  13.993
81758W        W46743  18.276  12.707   0.072
81759W        W46744  41.461  13.696  14.780
81760W        W46745   1.838  26.678  13.009
81761W        W46746  10.120  13.145  13.553
81762W        W46747  17.221  19.168  10.165
81763W        W46748  41.716  18.402  11.086
81764W        W46749  31.022   5.492   0.937
81765W        W46750  43.050  26.714   0.826
81766W        W46751  28.909  42.495   1.253
81767W        W46752  20.946  14.716  10.749
81768W        W46753   2.074  28.635  14.930
81769W        W46754  38.005  29.980   4.918
81770W        W46755  22.201   5.323   4.747
81771W        W46756  25.171  27.043   3.570
81772W        W46757  38.923  21.349  10.683
81773W        W46758  30.996  36.210   0.823
81774W        W46759  36.937  27.193   1.450
81775W        W46760  42.516  10.446   4.986
81776W        W46761  33.648  25.504  11.528
81777W        W46762  34.099  35.992  13.854
81778W        W46763   2.324   6.871   3.675
81779W        W46764  26.107  35.169  14.944
81780W        W46765  40.840  33.708   5.419
81781W        W46766   5.290  12.249  12.641
81782W        W46767   7.180  18.057  13.385
81783W        W46768  14.595  43.454   2.035
81784W        W46769  29.181  44.350   3.269
81785W        W46770  38.451  29.164  14.149
81786W        W46771  28.546  18.790  10.945
81787W        W46772  33.592  28.430  10.896
81788W        W46773   9.744   9.074   0.775
81789W        W46774   1.966   5.761  11.656
81790W        W46775  36.774  18.666  11.960
81791W        W46776  42.715   3.255   2.810
81792W        W46777   3.020   6.843  14.756
81793W        W46778  20.489  16.056  12.158
81794W        W46779   0.928  34.181  14.817
81795W        W46780  37.375  37.487  10.729
81796W        W46781  43.474   1.697  14.447
81797W        W46782   6.129  19.321   0.295
81798W        W46783   8.737  23.416   2.924
81799W        W46784  33.403  25.930  13.590
81800W        W46785   0.001  13.697   4.942
81801W        W46786  13.770  13.715   2.501
81802W        W46787  10.428   2.994  12.248
81803W        W46788  35.017   8.491  14.227
81804W        W46789  21.250  17.793  12.804
81805W        W46790  10.743  30.465  13.082
81806W        W46791  10.598  22.526   2.383
81807W        W46792  20.253  24.095   2.469
81808W        W46793  39.967  38.445  11.727
81809W        W46794  26.134  40.964   1.728
81810W        W46795   8.642  17.267   1.700
81811W        W46796  34.346  19.353   2.263
81812W        W46797   2.337   4.859  14.426
81813W        W46798  44.919  10.917   2.597
81814W        W46799   8.682  31.373   1.164
81815W        W46800  23.620  22.297   3.110
81816W        W46801  42.386  39.103  10.200
81817W        W46802  16.949  33.481   0.234
81818W        W46803  43.205  41.458   3.725
81819W        W46804  25.037  42.873  14.846
81820W        W46805  32.636  32.958  12.473
81821W        W46806  32.537  22.673   4.062
81822W        W46807   9.713   3.052   3.713
81823W        W46808   8.335   2.496  13.298
81824W        W46809  36.581  20.465   4.116
81825W        W46810  15.176  30.635  11.962
81826W        W46811   7.272   6.968   5.038
81827W        W46812  40.898  13.539  12.577
81828W        W46813  36.333  31.236   3.174
81829W        W46814  44.515  36.826  11.438
81830W        W46815  33.401  38.231  11.574
81831W        W46816  19.596  14.417  10.785
81832W        W46817   8.447  13.309   3.372
81833W        W46818  23.456   1.095  12.182
81834W        W46819  21.126  25.911  12.038
81835W        W46820  14.538   0.741  10.727
81836W        W46821  22.574  10.991   2.391
81837W        W46822  29.103  19.526  11.165
81838W        W46823  35.953  40.288  12.680
81839W        W46824  42.406  29.980  11.134
81840W        W46825  20.466  10.596   4.263
81841W        W46826  31.576  23.665   3.543
81842W        W46827  10.383  22.924  12.191
81843W        W46828  27.037  44.501  10.432
81844W        W46829  42.576   1.804  14.633
81845W        W46830  31.618   9.605   9.926
81846W        W46831  30.643  17.712   2.613
81847W        W46832  39.325  20.264  14.567
81848W        W46833  32.036  10.235  12.843
81849W        W46834  11.205  36.585  10.782
81850W        W46835  42.527   1.014  10.586
81851W        W46836  29.052  23.955  13.483
81852W        W46837   6.442  19.981   2.253
81853W        W46838  39.464  21.028   1.644
81854W        W46839  26.301  36.443   3.357
81855W        W46840  30.548  16.367   0.921
81856W        W46841  21.016  19.638   0.819
81857W        W46842  12.409  20.468   4.925
81858W        W46843  29.742   4.218   4.431
81859W        W46844  31.409  19.159   1.824
81860W        W46845  23.717  41.919  10.630
81861W        W46846   4.671  24.737  11.114
81862W        W46847  37.526  20.640   2.924
81863W        W46848  21.902   6.718   2.596
81864W        W46849  29.359  40.846  11.193
81865W        W46850  31.141  26.180  14.405
81866W        W46851  33.372  23.683   4.040
81867W        W46852  18.100  26.181  13.990
81868W        W46853  29.166   4.910  12.652
81869W        W46854  21.709  24.805  13.914
81870W        W46855  25.526  29.934  13.387
81871W        W46856   0.512  16.507  14.841
81872W        W46857   7.660  34.682  12.025
81873W        W46858   0.858  15.085   0.428
81874W        W46859  34.804  13.883   2.931
81875W        W46860   0.749  27.299   0.763
81876W        W46861  26.917  14.084   2.789
81877W        W46862  41.755   7.738  14.285
81878W        W46863  27.968  26.706  11.150
81879W        W46864  20.157  33.891   4.615
81880W        W46865  13.816  36.491   1.498
81881W        W46866   7.464  20.667  11.541
81882W        W46867  40.262  18.218   3.744
81883W        W46868  39.479  32.414   4.660
81884W        W46869  42.562  18.808   1.706
81885W        W46870  28.649  28.768   4.189
81886W        W46871  35.645  17.276  11.940
81887W        W46872  32.692  28.167   1.548
81888W        W46873  27.481  39.804  13.785
81889W        W46874  13.722  33.212  11.482
81890W        W46875  14.752   9.792  13.532
81891W        W46876  44.838  44.440  13.782
81892W        W46877  29.533   8.256   4.122
81893W        W46878  43.540   6.993  14.875
81894W        W46879   0.260  30.708  11.914
81895W        W46880  32.545   7.526   2.692
81896W        W46881  36.863  36.376   3.448
81897W        W46882   8.314  36.657   4.220
81898W        W46883  36.525  21.075  12.344
81899W        W46884  29.147  41.815  10.620
81900W        W46885  13.366  37.326  10.287
81901W        W46886  32.791  44.426  13.046
81902W        W46887  22.301  19.755   0.303
81903W        W46888  19.594  42.718   1.073
81904W        W46889  33.006   2.917   3.299
81905W        W46890   8.596   7.657   0.840
81906W        W46891  30.382  29.078   1.384
81907W        W46892   0.157  12.652  12.845
81908W        W46893  13.041   7.621  11.280
81909W        W46894   2.240  26.096   3.160
81910W        W46895   1.334  25.993  11.515
81911W        W46896  13.744  43.868  12.538
81912W        W46897  13.599  12.069  11.140
81913W        W46898   1.211  13.616   0.820
81914W        W46899  39.339  34.627   3.118
81915W        W46900  10.893   1.047   3.544
81916W        W46901  29.182  30.553   3.117
81917W        W46902  41.586   7.258  13.442
81918W        W46903  30.449   5.852   3.111
81919W        W46904  41.867  14.169  11.603
81920W        W46905  11.945  36.390   0.010
81921W        W46906  17.394  26.654  13.057
81922W        W46907  36.464  18.550   2.329
81923W        W46908  15.678  12.897   0.299
81924W        W46909  44.845  28.891  14.860
81925W        W46910  15.504  23.378   4.454
81926W        W46911  31.957  35.760   3.156
81927W        W46912   2.190  16.974   3.194
81928W        W46913   9.456  21.922  10.521
81929W        W46914  20.185   7.100  12.826
81930W        W46915  44.430  27.106   5.003
81931W        W46916  44.845  19.307   1.912
81932W        W46917  27.502  14.853   2.736
81933W        W46918  32.629  33.483   0.612
81934W        W46919  28.741   5.821  11.631
81935W        W46920  28.659   9.622  11.467
81936W        W46921  14.555  21.036   3.843
81937W        W46922  12.922  13.761   4.590
81938W        W46923  34.382   0.232   4.041
81939W        W46924  14.915  41.432   5.439
81940W        W46925  13.679  16.813  10.530
81941W        W46926  15.799   2.021   1.549
81942W        W46927  11.202  24.756  11.810
81943W        W46928  29.184  31.600  11.173
81944W        W46929  44.552  41.300  10.732
81945W        W46930  23.223   0.447  13.520
81946W        W46931  35.936  26.626  13.031
81947W        W46932  31.670   3.411   2.412
81948W        W46933   3.394   9.020   0.828
81949W        W46934   0.548  23.263  13.205
81950W        W46935  10.657  27.127  11.836
81951W        W46936   2.447   5.622   1.902
81952W        W46937  30.200   6.859  13.277
81953W        W46938  24.104  16.471   3.234
81954W        W46939  32.381   7.386  13.364
81955W        W46940  26.026   2.870   0.459
81956W        W46941  21.728  33.616  11.600
81957W        W46942  32.080  19.611   2.870
81958W        W46943  37.353  29.929  12.979
81959W        W46944  14.317  22.909   3.743
81960W        W46945  12.127  26.869   0.183
81961W        W46946  26.348   7.982  13.281
81962W        W46947  30.075  39.374   4.625
81963W        W46948   0.287  27.561   2.483
81964W        W46949  42.948  20.161   3.444
81965W        W46950   2.115  26.143  12.118
81966W        W46951   7.782   1.899   3.304
81967W        W46952  39.360   4.928  14.914
81968W        W46953  41.881  14.661   0.368
81969W        W46954  10.859  33.217   4.595
81970W        W46955  41.409   3.752  12.649
81971W        W46956  40.519  43.026   4.583
81972W        W46957  12.753  44.312  11.551
81973W        W46958  23.916   9.814   2.153
81974W        W46959  19.385  39.897   2.354
81975W        W46960   1.341  31.493  12.043
81976W        W46961  29.377  38.042   0.255
81977W        W46962  21.815  39.307  12.863
81978W        W46963  28.447   5.436   1.205
81979W        W46964  40.322  35.180  14.919
81980W        W46965   3.764  35.764  13.364
81981W        W46966  11.394   3.383   0.880
81982W        W46967  23.975  28.475  11.623
81983W        W46968  29.019  28.001   3.167
81984W        W46969  40.405  13.600   1.369
81985W        W46970  14.894  33.796   3.044
81986W        W46971  14.493  12.815  12.084
81987W        W46972  25.300  37.548  11.715
81988W        W46973  10.918   8.325  12.160
81989W        W46974   3.301   6.389   1.684
81990W        W46975  41.012  30.658  13.957
81991W        W46976  18.950  34.518   4.211
81992W        W46977   7.670  43.847   0.885
81993W        W46978   2.644  44.134   0.374
81994W        W46979  36.866  37.469   0.804
81995W        W46980   0.962   4.222   4.551
81996W        W46981  25.271  21.161  13.899
81997W        W46982   1.297   1.930  11.686
81998W        W46983   6.559  15.301  10.946
81999W        W46984  12.033  35.096  11.705
82000W        W46985  36.991   6.256  12.548
82001W        W46986   7.479  24.104  13.022
82002W        W46987  18.743   2.397   0.984
82003W        W46988  37.078  33.510  13.939
82004W        W46989  16.293  18.104  13.996
82005W        W46990   8.089  32.330  13.620
82006W        W46991  24.406   9.833   3.097
82007W        W46992   2.071  34.433   1.845
82008W        W46993  42.073  20.575  11.673
82009W        W46994  11.672  29.864  13.848
82010W        W46995  29.077  38.683  14.763
82011W        W46996  22.737  43.333   3.678
82012W        W46997  11.904  43.911  12.067
82013W        W46998  13.687  41.668   3.035
82014W        W46999  39.536  29.030   3.107
82015W        W47000   8.429  24.019   0.401
82016W        W47001   1.225  30.094  13.826
82017W        W47002   2.204   2.627  12.955
82018W        W47003  36.470  27.139  14.907
82019W        W47004  23.019  30.038  13.752
82020W        W47005  19.318  10.365   0.165
82021W        W47006  29.359   8.198  11.687
82022W        W47007  30.045  29.718  11.834
82023W        W47008  17.944  22.656  11.536
82024W        W47009  31.383  17.669  14.480
82025W        W47010  23.473   4.001   2.233
82026W        W47011  10.781  18.960  13.947
82027W        W47012  34.062  19.690   1.274
82028W        W47013  15.357   7.070   2.203
82029W        W47014  15.727  18.290   1.211
82030W        W47015   6.080  43.205  10.693
82031W        W47016  18.527  23.121   3.258
82032W        W47017  16.395  12.317  11.684
82033W        W47018  40.693  17.108   3.112
82034W        W47019  27.993  40.895   1.241
82035W        W47020  27.487   6.212  13.512
82036W        W47021   2.567  17.889   2.794
82037W        W47022  27.713  24.745   4.154
82038W        W47023  42.325  27.010   1.864
82039W        W47024  31.936  37.122  10.586
82040W        W47025  42.374  35.168  13.942
82041W        W47026  39.432   6.922   0.681
82042W        W47027  37.340  25.199   4.810
82043W        W47028  11.857   1.512   0.283
82044W        W47029  43.765  23.759   3.184
82045W        W47030  40.067  18.633   3.493
82046W        W47031  41.077   0.249   2.259
82047W        W47032  25.974  44.136  12.102
82048W        W47033  18.144  43.180   3.889
82049W        W47034   9.289  44.148  12.930
82050W        W47035  17.689   0.708  12.039
82051W        W47036  25.862  22.900   0.797
82052W        W47037  39.500  34.052  11.639
82053W        W47038  32.623  19.999   3.682
82054W        W47039  21.067  25.391  14.510
82055W        W47040  42.318  10.868  14.247
82056W        W47041  32.718  10.953   1.104
82057W        W47042  29.649   0.402   0.348
82058W        W47043  44.883   4.790  11.700
82059W        W47044  24.434  37.429   4.206
82060W        W47045  30.661  24.140  10.412
82061W        W47046  41.391  41.801   0.110
82062W        W47047   5.745  24.051   2.522
82063W        W47048  21.313  18.079   4.147
82064W        W47049  36.393  19.791  13.573
82065W        W47050  10.332  36.123  12.154
82066W        W47051   3.019   3.500  11.477
82067W        W47052  18.244   3.923   2.472
82068W        W47053  17.144  44.580  11.239
82069W        W47054  18.134   7.901  10.919
82070W        W47055  43.484  40.038   0.456
82071W        W47056  35.892  29.029   4.478
82072W        W47057  44.552   3.388  13.888
82073W        W47058  12.640  27.142  12.456
82074W        W47059  16.768  44.488  14.425
82075W        W47060  24.238   7.719   0.770
82076W        W47061  43.491   3.816  10.675
82077W        W47062   1.068  33.606   3.295
82078W        W47063  40.466  30.074  12.086
82079W        W47064   0.863  10.290   2.801
82080W        W47065   7.388   5.080  10.166
82081W        W47066  41.974   6.868  12.612
82082W        W47067  43.028   9.900  13.589
82083W        W47068  19.346  35.530   2.751
82084W        W47069  24.011   9.299   3.843
82085W        W47070  37.896   9.363  13.931
82086W        W47071  27.117  35.107   4.899
82087W        W47072  15.339  38.674  14.029
82088W        W47073   6.747  26.079   1.853
82089W        W47074   3.497  18.622   3.596
82090W        W47075  31.172  29.065  12.977
82091W        W47076  40.389  12.262   2.641
82092W        W47077  39.634  20.452  10.499
82093W        W47078  30.633   6.362   1.853
82094W        W47079  42.761  15.627   4.174
82095W        W47080  33.449  17.264   5.094
82096W        W47081  36.089  26.435  12.198
82097W        W47082  17.566  42.666   0.136
82098W        W47083   5.151  39.083  14.790
82099W        W47084  23.940  38.935   3.185
82100W        W47085  10.687  43.414   3.783
82101W        W47086  43.557  16.779  13.344
82102W        W47087  34.477  44.485   2.928
82103W        W47088  11.399  10.152  12.800
82104W        W47089   1.348  16.694  14.796
82105W        W47090   6.000   9.363   1.946
82106W        W47091  27.463  42.228   3.225
82107W        W47092   6.239  31.081  14.114
82108W        W47093  30.882  18.860  10.569
82109W        W47094   0.347   5.626   4.560
82110W        W47095   0.894  42.789   1.022
82111W        W47096  14.110  22.705   2.650
82112W        W47097  30.922  33.942   2.334
82113W        W47098  12.899  36.990   2.868
82114W        W47099  18.631  37.336  10.240
82115W        W47100  21.132   7.850   2.908
82116W        W47101  14.623  17.660   4.022
82117W        W47102  43.886  41.245  12.607
82118W        W47103  36.929  44.459   4.652
82119W        W47104  20.337   0.994   3.103
82120W        W47105  26.898  22.417  14.279
82121W        W47106  11.752   7.967   1.887
82122W        W47107   8.355  37.348   1.229
82123W        W47108  10.255   7.553   2.732
82124W        W47109  22.399  27.533   1.232
82125W        W47110  37.930  28.305  12.584
82126W        W47111   1.163  28.707  12.815
82127W        W47112   4.317  10.359  13.401
82128W        W47113  25.893   2.984  14.063
82129W        W47114  21.793   0.405   2.734
82130W        W47115  31.151   6.146   4.986
82131W        W47116  26.585  39.755  12.046
82132W        W47117  38.395  18.073  10.972
82133W        W47118  42.347   4.126   2.103
82134W        W47119  42.455  13.356  14.161
82135W        W47120  20.008   2.325   3.123
82136W        W47121  19.744  44.372   0.724
82137W        W47122   4.233  12.340   3.085
82138W        W47123   0.853  16.858   3.370
82139W        W47124   3.892  26.507   1.785
82140W        W47125   2.113  15.892  12.063
82141W        W47126  16.836  35.500   4.099
82142W        W47127  27.978   3.650  13.996
82143W        W47128   8.426   9.380  12.435
82144W        W47129   5.251  44.204  11.919
82145W        W47130   6.230  33.608   3.322
82146W        W47131  35.170   3.967  11.078
82147W        W47132  30.427   5.216  12.754
82148W        W47133  44.785  19.208   0.796
82149W        W47134  21.915   2.271  14.992
82150W        W47135  11.868  17.259   0.514
82151W        W47136  13.424   6.280  11.453
82152W        W47137  12.242  18.918  12.840
82153W        W47138  25.222  11.236   0.376
82154W        W47139  16.477   2.418  14.586
82155W        W47140  36.941  43.880   4.562
82156W        W47141  14.901  41.795   4.033
82157W        W47142  41.267  27.982   0.763
82158W        W47143  34.112   7.971  13.490
82159W        W47144   4.198  18.558   4.085
82160W        W47145  35.380  30.491   0.775
82161W        W47146  29.005  31.556  13.583
82162W        W47147  10.744  18.993   1.449
82163W        W47148  38.139  40.538   0.797
82164W        W47149  21.321  35.500  10.553
82165W        W47150  28.935  10.937  12.625
82166W        W47151   7.658  12.069  12.382
82167W        W47152   6.980   1.463   0.418
82168W        W47153   3.903   7.604   2.274
82169W        W47154  27.206  32.412   3.769
82170W        W47155  15.057  38.855   1.725
82171W        W47156  16.869  29.002   0.880
82172W        W47157  34.601   9.165  13.232
82173W        W47158   3.009   0.264  11.090
82174W        W47159  18.681  42.963   4.614
82175W        W47160   5.916  29.049   2.456
82176W        W47161  28.406  42.715   0.314
82177W        W47162   6.721  26.031   2.368
82178W        W47163  31.584   1.007  12.306
82179W        W47164  17.024  17.919  14.438
82180W        W47165  37.296  25.103  13.825
82181W        W47166  31.551  26.600  10.273
82182W        W47167  28.717  13.107   2.308
82183W        W47168  35.160   8.820   0.245
82184W        W47169  15.300   9.408  11.047
82185W        W47170  15.204  17.826   0.641
82186W        W47171  24.019  31.509   4.782
82187W        W47172  16.070  40.994  11.512
82188W        W47173  39.409  39.200  10.736
82189W        W47174   4.931  36.380  10.664
82190W        W47175  35.400  13.046  14.324
82191W        W47176  15.309  14.153   1.839
82192W        W47177  24.621   8.890  11.460
82193W        W47178  40.560  20.279  13.381
82194W        W47179  28.127  24.058   3.782
82195W        W47180  41.317  39.877  10.727
82196W        W47181  44.891  30.345  12.116
82197W        W47182  37.402  43.288  13.334
82198W        W47183  35.030  32.165  12.202
82199W        W47184  30.938  29.942   1.448
82200W        W47185  18.312  33.773   3.416
82201W        W47186  10.729  23.020  11.353
82202W        W47187   0.903  14.562   0.622
82203W        W47188  24.758  15.218   4.297
82204W        W47189  35.360  44.096   1.492
82205W        W47190  42.283  19.062  13.771
82206W        W47191   6.131  35.898  11.728
82207W        W47192  23.783   4.718   3.610
82208W        W47193   2.682   7.803   2.856
82209W        W47194  40.221  38.490   0.684
82210W        W47195   6.711  34.949   0.702
82211W        W47196   2.845  37.374   2.600
82212W        W47197  12.295  15.147   4.626
82213W        W47198   4.300  30.129   3.697
82214W        W47199  41.463  23.944   4.852
82215W        W47200   7.696  24.183   3.767
82216W        W47201  37.299  36.336   0.267
82217W        W47202  22.829  13.154   4.175
82218W        W47203   1.832  12.594   2.736
82219W        W47204  27.475  18.095  11.510
82220W        W47205   0.305   4.682  11.421
82221W        W47206   3.769  40.548  13.041
82222W        W47207  35.156   2.369   3.665
82223W        W47208  29.953   1.584  12.429
82224W        W47209  37.505  42.602   0.184
82225W        W47210  13.206  16.064   0.461
82226W        W47211  23.906  37.173  12.569
82227W        W47212  30.110  12.392   4.744
82228W        W47213  34.303  19.884  11.732
82229W        W47214  34.892  35.958  14.974
82230W        W47215  17.145  35.043   1.451
82231W        W47216  40.257  39.345   3.360
82232W        W47217  42.973  42.394   3.612
82233W        W47218  39.601  27.930   3.575
82234W        W47219   9.657  31.449  13.041
82235W        W47220  30.171  26.730   4.118
82236W        W47221  31.362   3.816   2.385
82237W        W47222  17.355  40.000   0.747
82238W        W47223  44.554   9.748  12.008
82239W        W47224   9.471  27.387  11.136
82240W        W47225  30.549  38.495   2.786
82241W        W47226  18.440  13.252  12.638
82242W        W47227  27.473  31.621  12.062
82243W        W47228  26.227  33.577  13.986
82244W        W47229  22.564   8.291   1.305
82245W        W47230  29.952   1.148  14.860
82246W        W47231   3.018  17.689   4.404
82247W        W47232  21.548  35.837  14.322
82248W        W47233  12.410   5.328   1.299
82249W        W47234  44.360  43.826   3.826
82250W        W47235   8.620  31.593  13.975
82251W        W47236  33.591  17.103   4.208
82252W        W47237  19.615  36.638   4.167
82253W        W47238   2.583  19.806  11.748
82254W        W47239  19.335  25.645  11.951
82255W        W47240  35.974  20.259  12.508
82256W        W47241  21.757  14.508  14.663
82257W        W47242  23.724   8.266   4.096
82258W        W47243   9.736   4.012   1.787
82259W        W47244  43.410  38.763   1.703
82260W        W47245   2.161  31.106  12.050
82261W        W47246  16.301  36.863  11.235
82262W        W47247  36.568  31.626   4.584
82263W        W47248  23.176  42.344   2.240
82264W        W47249  39.527  12.593   1.377
82265W        W47250   4.273  36.842   3.258
82266W        W47251  15.134   7.584   2.339
82267W        W47252  44.413   1.784   1.714
82268W        W47253  31.148  22.756  10.531
82269W        W47254  44.849  11.687   2.872
82270W        W47255  31.660  44.602  11.661
82271W        W47256   7.317  19.891  10.478
82272W        W47257  12.295  12.591  12.975
82273W        W47258  43.998  39.805  13.924
82274W        W47259  44.379  17.036  14.796
82275W        W47260  19.120  13.018   3.107
82276W        W47261  33.082  44.909   5.133
82277W        W47262  21.156  36.033   4.721
82278W        W47263  29.730  24.649  13.742
82279W        W47264  11.663  37.366  14.518
82280W        W47265  15.757  22.940   1.854
82281W        W47266   2.687  24.673  12.756
82282W        W47267  27.262  38.096  10.953
82283W        W47268  13.509  34.407  14.868
82284W        W47269  37.364   3.756  14.398
82285W        W47270  38.398  39.978  14.950
82286W        W47271  19.251  21.591   3.613
82287W        W47272  38.922  29.832  14.378
82288W        W47273  12.797  31.523  11.382
82289W        W47274  23.679   5.965   3.617
82290W        W47275  25.563  33.833  13.470
82291W        W47276  15.554  35.503  14.514
82292W        W47277  19.822  42.720  13.433
82293W        W47278  24.509  34.424   0.289
82294W        W47279   0.805   3.243  10.776
82295W        W47280  34.636  21.505   0.466
82296W        W47281  14.396   4.304   0.522
82297W        W47282   9.808  19.063   3.876
82298W        W47283  36.483  25.161   0.740
82299W        W47284  25.127  24.955  10.978
82300W        W47285   4.009  15.572   4.349
82301W        W47286  22.753  16.137  14.569
82302W        W47287   5.612  20.283  11.068
82303W        W47288  12.804  21.213  14.240
82304W        W47289  22.200  16.986  14.949
82305W        W47290  44.016   6.397  12.306
82306W        W47291  40.459  20.758  13.867
82307W        W47292  30.774  27.018   1.373
82308W        W47293  17.126   9.905   2.587
82309W        W47294  31.475  17.177   2.793
82310W        W47295  25.972   2.483  13.905
82311W        W47296  22.432  15.770  14.320
82312W        W47297  30.114  19.253  13.743
82313W        W47298  32.499  29.464   4.703
82314W        W47299  23.691   6.208   4.271
82315W        W47300  17.272  37.394   3.576
82316W        W47301   8.150  35.311  13.260
82317W        W47302  15.119  12.060   0.298
82318W        W47303   8.260   2.888  12.036
82319W        W47304  18.805  18.065  10.785
82320W        W47305  15.739  17.363   4.102
82321W        W47306  44.115  33.500   4.823
82322W        W47307  38.447  22.681   4.032
82323W        W47308  12.317  33.235  12.457
82324W        W47309  29.961  19.965  14.965
82325W        W47310  23.341   3.762  12.539
82326W        W47311   0.554   0.985   3.512
82327W        W47312  39.133  10.163   2.719
82328W        W47313  39.912   6.283  12.063
82329W        W47314  17.741   9.601   5.854
82330W        W47315  19.981  16.834  13.733
82331W        W47316  34.708  27.651   4.201
82332W        W47317  32.907  23.626  13.736
82333W        W47318  42.568  31.110   3.272
82334W        W47319  42.944   7.757   4.138
82335W        W47320  38.374  28.437  11.221
82336W        W47321  18.545  42.320  11.703
82337W        W47322   2.312   4.328  13.391
82338W        W47323  14.067  30.342   2.389
82339W        W47324  28.559  22.213   2.394
82340W        W47325  32.405  35.092  14.282
82341W        W47326   9.483  17.733   3.534
82342W        W47327  13.141  36.948  11.969
82343W        W47328   7.803  31.509   0.643
82344W        W47329  43.732  43.770  12.912
82345W        W47330  34.283  35.879   0.549
82346W        W47331  31.210  25.987   4.518
82347W        W47332  20.002  20.984   1.845
82348W        W47333  29.729  29.531   4.672
82349W        W47334  33.040  21.831  11.923
82350W        W47335  32.144  29.498   3.376
82351W        W47336  28.660  26.642   3.887
82352W        W47337  15.113   5.906  12.243
82353W        W47338  15.651  31.571   0.001
82354W        W47339  10.611  31.532   0.423
82355W        W47340   2.188   9.811   3.772
82356W        W47341  31.431  29.338  13.389
82357W        W47342  20.172  31.251  11.162
82358W        W47343  22.060   7.180  12.712
82359W        W47344  42.541  40.300  12.106
82360W        W47345   6.732  27.847   3.712
82361W        W47346  25.460  43.265   2.856
82362W        W47347  31.608  19.953   3.126
82363W        W47348   5.964  13.290  14.372
82364W        W47349   6.187  10.141  11.646
82365W        W47350  42.577  18.257  13.436
82366W        W47351  20.629  43.448  14.425
82367W        W47352  36.991   1.807   4.240
82368W        W47353  31.013   3.205  14.679
82369W        W47354  42.073  35.692   1.595
82370W        W47355  16.208   7.836  14.749
82371W        W47356  26.885  40.612  11.638
82372W        W47357   8.131  20.179   2.609
82373W        W47358  12.594  29.032  11.500
82374W        W47359   1.959  20.077   0.744
82375W        W47360   5.222   5.323   1.444
82376W        W47361  31.936  37.348  14.819
82377W        W47362  19.584   9.732   3.610
82378W        W47363   3.897  36.361   4.533
82379W        W47364  31.966  22.918  11.183
82380W        W47365  31.157  40.552   0.986
82381W        W47366  35.188  19.816   1.331
82382W        W47367   4.543  38.429   2.559
82383W        W47368  30.918  20.725  10.381
82384W        W47369  23.738  35.658   0.929
82385W        W47370   3.626   1.347   0.743
82386W        W47371   3.275  33.002   4.660
82387W        W47372   7.365  17.498   2.108
82388W        W47373  39.859  43.156   0.398
82389W        W47374  31.446   9.777  11.224
82390W        W47375  18.904  35.182   2.796
82391W        W47376   1.548  42.733  11.624
82392W        W47377  22.049  17.208  11.435
82393W        W47378   8.213  27.413  12.447
82394W        W47379  21.662  37.652   4.650
82395W        W47380  13.769  13.222   0.302
82396W        W47381  34.897   3.406  13.307
82397W        W47382  15.042  18.305   2.860
82398W        W47383  43.370  14.866  13.409
82399W        W47384  15.096  14.088   2.730
82400W        W47385   1.434  19.556   2.089
82401W        W47386   1.801  30.329   0.381
82402W        W47387  20.529  28.953   2.326
82403W        W47388  10.087  37.450  10.706
82404W        W47389  41.061  29.616   0.649
82405W        W47390   4.601  26.103  13.019
82406W        W47391  35.419   4.901   1.214
82407W        W47392  26.935  20.138  12.219
82408W        W47393  23.100  26.248   0.153
82409W        W47394   1.540  32.477   0.842
82410W        W47395  19.576  39.587  12.440
82411W        W47396  41.808  33.283  13.301
82412W        W47397  15.156   3.225  14.544
82413W        W47398   5.751   6.499  12.100
82414W        W47399  43.859  12.721  11.385
82415W        W47400  44.961  20.486  14.378
82416W        W47401   0.832  27.486   2.917
82417W        W47402   2.803   6.426   1.464
82418W        W47403   5.985  40.594   0.853
82419W        W47404   9.651   3.057  11.453
82420W        W47405  21.118  43.091   2.728
82421W        W47406  37.385  10.026  11.026
82422W        W47407  30.567  27.907  14.878
82423W        W47408  37.861  43.819  10.717
82424W        W47409  42.397  26.647   2.224
82425W        W47410  16.639   6.464   0.403
82426W        W47411  18.135  19.018   3.168
82427W        W47412   2.774  30.198  13.812
82428W        W47413   1.735  43.567  13.547
82429W        W47414  36.529  16.100  14.768
82430W        W47415  20.114  36.550   2.408
82431W        W47416  27.164  17.837   3.560
82432W        W47417  27.004   3.422  13.559
82433W        W47418  20.645  21.295  14.020
82434W        W47419  24.546  22.132   1.716
82435W        W47420  24.954  17.524  14.558
82436W        W47421   2.202  20.208   1.199
82437W        W47422  24.424  18.835   0.856
82438W        W47423  17.709   8.723   1.318
82439W        W47424   5.634  21.764   0.396
82440W        W47425  15.487  42.240   2.305
82441W        W47426   5.510  19.090   1.857
82442W        W47427   1.672  13.994  10.665
82443W        W47428  18.896  41.774  11.151
82444W        W47429  35.934   4.944   1.321
82445W        W47430   9.941  28.323   0.475
82446W        W47431  18.281  42.479  10.859
82447W        W47432   2.486  40.103   2.076
82448W        W47433  34.552  27.497   2.414
82449W        W47434  18.730  44.358   5.037
82450W        W47435  30.721  23.790  11.218
82451W        W47436  12.539   6.413  14.053
82452W        W47437   9.789   2.315  12.521
82453W        W47438  36.450  39.617  12.835
82454W        W47439   5.924  15.550   1.025
82455W        W47440  20.519  41.366   3.804
82456W        W47441   8.724  31.629   1.598
82457W        W47442  18.264  42.914   3.411
82458W        W47443  23.016  43.557   1.716
82459W        W47444   9.755  42.403   4.103
82460W        W47445   9.528  34.938   2.220
82461W        W47446  10.812  14.851   0.446
82462W        W47447   0.791  41.877   0.101
82463W        W47448  43.037   2.207   0.112
82464W        W47449  20.028  44.981   3.163
82465W        W47450  44.208  16.271  12.000
82466W        W47451  33.749  36.032  10.994
82467W        W47452  26.116   3.943   3.041
82468W        W47453  40.103  41.930   2.840
82469W        W47454  38.031  15.091  10.928
82470W        W47455  24.584  31.201   0.435
82471W        W47456  12.302  18.664   4.649
82472W        W47457  44.567   2.891   2.934
82473W        W47458  14.350   0.327   0.283
82474W        W47459  13.545  15.745   4.630
82475W        W47460  32.488  12.974   0.418
82476W        W47461  15.161  22.936  10.726
82477W        W47462  23.699  13.665   3.240
82478W        W47463   7.773  36.386   3.195
82479W        W47464  32.491  43.765  11.912
82480W        W47465  12.613   2.396   2.207
82481W        W47466   4.434   8.172  11.883
82482W        W47467   1.817  19.748   2.853
82483W        W47468   8.601  32.360   0.951
82484W        W47469  40.381  23.891   9.819
82485W        W47470  22.777  18.260  11.933
82486W        W47471  24.133  13.021   1.932
82487W        W47472   9.843  38.386  10.739
82488W        W47473  33.879   4.844  14.009
82489W        W47474   8.265  21.037   2.622
82490W        W47475  23.798  35.849  10.929
82491W        W47476  17.043  35.455  14.347
82492W        W47477  29.849  32.422  13.468
82493W        W47478  18.250  28.373   4.649
82494W        W47479  38.369   3.709   2.312
82495W        W47480  44.513  43.702   5.104
82496W        W47481  34.469  38.550   2.384
82497W        W47482   2.177  41.575  14.322
82498W        W47483  23.513  43.776   1.953
82499W        W47484  42.201  33.498  11.119
82500W        W47485  30.224  44.133   0.355
82501W        W47486  32.753  22.270   4.287
82502W        W47487  16.269  16.658   1.040
82503W        W47488  12.117   1.518  13.524
82504W        W47489  42.401  39.807   4.637
82505W        W47490  12.732  24.483  13.355
82506W        W47491  36.415  30.462   1.989
82507W        W47492  36.481  37.587  14.461
82508W        W47493  17.500  44.902   2.951
82509W        W47494  36.102  13.910  14.799
82510W        W47495  34.880  31.025   3.896
82511W        W47496   5.848  18.608  10.775
82512W        W47497  13.228   7.716  13.473
82513W        W47498  23.902   3.336  14.853
82514W        W47499  14.817  12.367  14.381
82515W        W47500  35.203   1.062   1.392
82516W        W47501  14.220  24.961  14.393
82517W        W47502  29.918  12.109  12.341
82518W        W47503   1.003  35.040  13.401
82519W        W47504  11.068  25.628  13.562
82520W        W47505  35.136  14.624   2.200
82521W        W47506   0.448   7.984   3.301
82522W        W47507  22.018   1.919  12.785
82523W        W47508  31.564  23.412   1.324
82524W        W47509  22.977   6.946   3.313
82525W        W47510  29.269  41.597   0.187
82526W        W47511  37.009  25.926  12.048
82527W        W47512  34.522  25.416   4.936
82528W        W47513   3.961  22.748  12.919
82529W        W47514   7.843  10.587   0.774
82530W        W47515  40.941   5.164  10.731
82531W        W47516   8.763  35.965   2.422
82532W        W47517  37.386  17.530  12.361
82533W        W47518  35.989  42.256  12.600
82534W        W47519  15.526  32.302  14.033
82535W        W47520  39.101  24.721  10.858
82536W        W47521  41.310  33.440   5.385
82537W        W47522  36.988  41.335  12.123
82538W        W47523  40.824  19.092  11.906
82539W        W47524  22.702  30.146   2.983
82540W        W47525   5.495  10.913   2.179
82541W        W47526   7.688  12.571  13.545
82542W        W47527  21.136  27.174   2.647
82543W        W47528  26.966  43.435   2.731
82544W        W47529  43.010  32.037   2.275
82545W        W47530  41.580  11.285   4.045
82546W        W47531  26.614   5.352   1.910
82547W        W47532  36.151   3.156   3.636
82548W        W47533  13.384  10.081  14.776
82549W        W47534  10.289  31.473   2.883
82550W        W47535   3.201  38.046  12.399
82551W        W47536  13.196  13.081   2.754
82552W        W47537  44.827   5.193   2.320
82553W        W47538  15.775  22.974  12.623
82554W        W47539   4.297  33.314  10.535
82555W        W47540  43.894  29.348   2.751
82556W        W47541  17.649  15.571  14.583
82557W        W47542  17.134  29.697  13.745
82558W        W47543   3.270  11.715   5.037
82559W        W47544   2.503  31.003  14.271
82560W        W47545  30.123  25.301   2.702
82561W        W47546   7.958  22.169  14.495
82562W        W47547  31.903  44.780   4.376
82563W        W47548   8.363  34.575  14.955
82564W        W47549  37.951  34.490  10.705
82565W        W47550   1.838   0.963   2.680
82566W        W47551  17.612  13.801  12.681
82567W        W47552  12.741  11.098   1.933
82568W        W47553  41.547  25.064  12.856
82569W        W47554  39.844  12.743  13.828
82570W        W47555  23.138   2.298  11.695
82571W        W47556  36.131   5.299  13.516
82572W        W47557  13.040   2.570   3.298
82573W        W47558  38.999  16.750   2.793
82574W        W47559  12.871  19.529   1.238
82575W        W47560  33.660  31.135   2.969
82576W        W47561  24.615  43.319  11.988
82577W        W47562  19.899  31.752  10.466
82578W        W47563  32.822  22.119   3.424
82579W        W47564  41.479  17.132   1.323
82580W        W47565   3.419   1.987   1.337
82581W        W47566  34.354  41.610  12.517
82582W        W47567  43.255  42.427   4.859
82583W        W47568   9.913  14.070  13.615
82584W        W47569  42.273  35.701  12.085
82585W        W47570  38.041  28.038  14.379
82586W        W47571  42.736   3.397  13.455
82587W        W47572  14.885  21.321  14.871
82588W        W47573  41.392   2.810   0.280
82589W        W47574  10.054  31.467  12.012
82590W        W47575  19.138  32.389  12.022
82591W        W47576  16.591  17.710  14.212
82592W        W47577  23.420  42.742  13.479
82593W        W47578   6.653  19.106  11.937
82594W        W47579  25.234   9.337   2.351
82595W        W47580  14.631  15.640  12.459
82596W        W47581  21.521  31.088  11.569
82597W        W47582   6.922   2.699  10.939
82598W        W47583  38.842  27.937  14.399
82599W        W47584  33.110  30.368  14.436
82600W        W47585   5.219   4.562  10.709
82601W        W47586  18.824  12.669   3.974
82602W        W47587  28.660  36.832  12.850
82603W        W47588  30.963  12.797  11.499
82604W        W47589  42.510  26.699  14.311
82605W        W47590  43.526  44.843  13.706
82606W        W47591   0.454   4.331  13.895
82607W        W47592  15.359  37.241  12.595
82608W        W47593  12.004  32.556  13.107
82609W        W47594  41.459  30.835   0.919
82610W        W47595   9.389  13.884  11.579
82611W        W47596  24.287  37.430   0.308
82612W        W47597  18.378   8.396  12.841
82613W        W47598  10.345   8.012  12.567
82614W        W47599  36.470   8.621  13.441
82615W        W47600   4.221  41.259  14.421
82616W        W47601   9.037  32.199  11.957
82617W        W47602  22.805  24.083   2.412
82618W        W47603  22.561  25.447   0.791
82619W        W47604   6.629  36.868   2.348
82620W        W47605   3.493  35.129   2.266
82621W        W47606  24.852   2.128   0.994
82622W        W47607  21.934  44.454   2.354
82623W        W47608  38.165  30.053   2.915
82624W        W47609  31.412   6.670   3.795
82625W        W47610   2.763   9.174   3.682
82626W        W47611  20.508  44.383  10.544
82627W        W47612   2.671  14.229   2.346
82628W        W47613  22.027  27.990  10.724
82629W        W47614  39.871  11.409   4.662
82630W        W47615  37.874  25.044   5.053
82631W        W47616  10.290   4.840   2.853
82632W        W47617  22.637   9.919   9.967
82633W        W47618   2.171  39.026  14.760
82634W        W47619  27.090  38.547  10.615
82635W        W47620  11.553  34.534   3.814
82636W        W47621  41.938  27.659  13.446
82637W        W47622   4.138  16.013   2.524
82638W        W47623  10.236  15.100   4.183
82639W        W47624  27.664   9.686   1.311
82640W        W47625  44.510  36.481  13.929
82641W        W47626  26.653  14.531   0.240
82642W        W47627   7.752  21.068   4.598
82643W        W47628  27.024  34.625  10.421
82644W        W47629  12.911  22.148   3.571
82645W        W47630  36.753  27.079  13.210
82646W        W47631  18.776  33.179  10.903
82647W        W47632   4.819  21.580  10.454
82648W        W47633  28.628  16.610   1.752
82649W        W47634  28.001   9.740   1.749
82650W        W47635  37.775  13.501  14.350
82651W        W47636  10.222  40.481  14.048
82652W        W47637  38.491   5.437   4.188
82653W        W47638  39.329  18.058  12.110
82654W        W47639  41.579  10.705  13.619
82655W        W47640  11.172  26.217   3.276
82656W        W47641  14.344  22.155  12.389
82657W        W47642  31.795  24.994   0.462
82658W        W47643  44.049  28.357   1.232
82659W        W47644   0.685  38.377   0.911
82660W        W47645  19.678  35.534   3.136
82661W        W47646  36.638  35.545   3.436
82662W        W47647  21.296  15.931   1.914
82663W        W47648  36.561  42.859  11.578
82664W        W47649  21.691  23.344   2.980
82665W        W47650  16.325  35.480   4.153
82666W        W47651  25.145  33.173  14.724
82667W        W47652   7.999  16.057   4.661
82668W        W47653  32.679  22.287  13.476
82669W        W47654  30.862  18.640  11.841
82670W        W47655  44.872   7.689  10.336
82671W        W47656  34.855  35.386   2.929
82672W        W47657  19.881   6.627   9.901
82673W        W47658  43.320  31.449   1.487
82674W        W47659  24.134  17.028   3.311
82675W        W47660  15.860  21.188  14.025
82676W        W47661  13.508   1.315   1.349
82677W        W47662   6.286  10.291  10.266
82678W        W47663   1.702   3.769  14.619
82679W        W47664  13.167  14.195  14.791
82680W        W47665  29.616  23.287   4.203
82681W        W47666   3.228  13.699   4.624
82682W        W47667  38.907  34.538  10.285
82683W        W47668  29.673  41.595  12.496
82684W        W47669  18.917   0.320   3.296
82685W        W47670   0.220  10.611   1.170
82686W        W47671   4.654   7.650   0.351
82687W        W47672  32.205  22.564   2.857
82688W        W47673   3.875  25.981   4.806
82689W        W47674  34.175  37.981   3.184
82690W        W47675  40.508  44.071   4.784
82691W        W47676   8.159  14.133   1.443
82692W        W47677  32.349  36.626  11.103
82693W        W47678  33.539  33.851   0.779
82694W        W47679  25.387  22.666   2.569
82695W        W47680  40.602  24.906  13.001
82696W        W47681   0.405  41.061  14.324
82697W        W47682   1.907  38.635  11.179
82698W        W47683  35.921  11.756  12.352
82699W        W47684   6.521  42.490  12.195
82700W        W47685  42.684  44.714  11.133
82701W        W47686  43.102  16.516  13.400
82702W        W47687  33.148  43.529   1.439
82703W        W47688  40.553  39.038  12.437
82704W        W47689  16.227  30.959  13.463
82705W        W47690  32.134  20.182  14.914
82706W        W47691  19.068  12.797   2.616
82707W        W47692  12.312  40.880  10.736
82708W        W47693  29.922  37.354  12.819
82709W        W47694  27.971  13.306  12.002
82710W        W47695   8.684  13.553  13.008
82711W        W47696   0.220   0.338  12.905
82712W        W47697  21.300  38.236   3.265
82713W        W47698  14.605  40.018   0.308
82714W        W47699  26.191  42.988   3.590
82715W        W47700  25.299   8.109   0.366
82716W        W47701  21.675  14.756   3.208
82717W        W47702   9.056  21.738   2.644
82718W        W47703  30.781  14.906   4.180
82719W        W47704  12.766  12.701  12.805
82720W        W47705  40.704   1.319  10.669
82721W        W47706  43.526  23.127   1.830
82722W        W47707  28.946  37.425   2.242
82723W        W47708  18.886  35.394  13.078
82724W        W47709  37.653   8.845   1.469
82725W        W47710  31.637  32.530  14.512
82726W        W47711   4.749  18.647  14.774
82727W        W47712  34.581  36.936  14.019
82728W        W47713   9.252  26.366  14.628
82729W        W47714  27.293  28.153   1.242
82730W        W47715  42.971   5.897  14.304
82731W        W47716  44.564  23.587  11.620
82732W        W47717  35.639  17.142  10.669
82733W        W47718  24.487  35.558  12.089
82734W        W47719  26.299  27.042  12.581
82735W        W47720  17.381  35.953  12.126
82736W        W47721   5.224  16.573   3.371
82737W        W47722  24.513   1.861   9.713
82738W        W47723  37.797  27.393  12.492
82739W        W47724  39.517   8.900   2.833
82740W        W47725   2.561  17.457  11.619
82741W        W47726   8.929  42.455   0.859
82742W        W47727  24.058   2.040   9.554
82743W        W47728   4.525  38.663   1.174
82744W        W47729  25.984   5.456   2.617
82745W        W47730  25.309  37.791  13.009
82746W        W47731  34.288  30.506   0.832
82747W        W47732   2.687  30.422   0.924
82748W        W47733  17.714  18.707  11.998
82749W        W47734  24.688  13.688  14.723
82750W        W47735  42.821  32.764  13.600
82751W        W47736  12.021  35.568  11.513
82752W        W47737  14.450  13.276   3.848
82753W        W47738  19.767  27.366   3.339
82754W        W47739  41.854  42.481   0.292
82755W        W47740  36.329  15.660   4.582
82756W        W47741  25.218  10.248  10.346
82757W        W47742   1.770  14.727   3.086
82758W        W47743  32.687   1.633  12.757
82759W        W47744  44.842  37.800   9.850
82760W        W47745  33.945   6.810   2.121
82761W        W47746  33.324  21.890   1.739
82762W        W47747   3.002  22.357  11.978
82763W        W47748  17.870   6.484   0.153
82764W        W47749  13.895   8.265  12.183
82765W        W47750  43.904  18.387   1.821
82766W        W47751  18.249   6.268  12.735
82767W        W47752  27.888  41.993  12.357
82768W        W47753  33.439   9.048  12.983
82769W        W47754  42.858  42.770  12.333
82770W        W47755  24.300  12.799  11.610
82771W        W47756  13.064   0.177  14.557
82772W        W47757  44.055  26.991   0.294
82773W        W47758  15.126  37.512  13.414
82774W        W47759  32.042  28.090   0.309
82775W        W47760  12.773  42.434   4.569
82776W        W47761   2.363  41.925  13.575
82777W        W47762   1.255  19.167  13.028
82778W        W47763  27.751   3.445   0.334
82779W        W47764  39.852  16.104   1.882
82780W        W47765   1.286  30.212  11.504
82781W        W47766  44.033  37.629   1.220
82782W        W47767  17.044  25.092   2.237
82783W        W47768  25.162  23.028   0.478
82784W        W47769  34.999  24.924  13.912
82785W        W47770  19.651  28.328   3.232
82786W        W47771  32.210   4.142   4.751
82787W        W47772  37.653  20.139   2.199
82788W        W47773   2.531  12.633   1.340
82789W        W47774  10.567  25.252  12.089
82790W        W47775   3.703  12.796  14.349
82791W        W47776  24.602   6.762  13.084
82792W        W47777  11.892  23.768   2.276
82793W        W47778  14.247  40.099   4.681
82794W        W47779  11.687  22.097   3.163
82795W        W47780  14.263   3.179  13.005
82796W        W47781  38.853  37.623   2.179
82797W        W47782  39.962  14.785   2.234
82798W        W47783  17.272  41.500   4.990
82799W        W47784   0.299  38.921   4.681
82800W        W47785  22.643  19.101   5.151
82801W        W47786  32.349  20.635  14.819
82802W        W47787  38.521   8.720   3.176
82803W        W47788  30.514   6.427  14.428
82804W        W47789   7.227  41.987  10.786
82805W        W47790  32.006   4.178  14.509
82806W        W47791  24.717   9.595   0.813
82807W        W47792  10.808  32.476   1.902
82808W        W47793   5.772  15.689  12.553
82809W        W47794   9.871  10.644  13.893
82810W        W47795  22.713  32.923  12.036
82811W        W47796  30.141  42.963   0.790
82812W        W47797  39.120  22.108   5.091
82813W        W47798  18.840  26.110   3.741
82814W        W47799  34.255   6.436   4.685
82815W        W47800   3.945  13.527   2.603
82816W        W47801   5.824  10.206   4.746
82817W        W47802  15.843  38.365  13.387
82818W        W47803  18.570  34.071  10.494
82819W        W47804  27.643  18.769  10.751
82820W        W47805  26.223  42.912  11.529
82821W        W47806  41.028   1.784  11.864
82822W        W47807  34.024  38.520  12.737
82823W        W47808  37.411   6.304  10.811
82824W        W47809  42.268  21.678   0.751
82825W        W47810   7.774   1.908  10.151
82826W        W47811  20.923   9.141   4.847
82827W        W47812  12.847  28.842  10.693
82828W        W47813  18.828   1.413  14.207
82829W        W47814   9.785  21.986  11.209
82830W        W47815  40.843  27.143  13.090
82831W        W47816  33.800   7.587   4.088
82832W        W47817  27.878   3.773   1.069
82833W        W47818   1.315   7.767   3.123
82834W        W47819   3.347  16.512  13.555
82835W        W47820   7.200  42.273   0.531
82836W        W47821  21.552  38.541  10.654
82837W        W47822  16.702   0.538   1.903
82838W        W47823  28.963  30.272   1.721
82839W        W47824  14.554   9.551   2.945
82840W        W47825  35.103  44.382  11.903
82841W        W47826  27.388  20.133   1.289
82842W        W47827  25.742  43.105  10.714
82843W        W47828  21.408  44.001  10.369
82844W        W47829  41.880  44.902  13.930
82845W        W47830   0.731  19.377   0.956
82846W        W47831  42.865   7.358   0.478
82847W        W47832  38.981  40.937   3.237
82848W        W47833   5.406  27.233  13.824
82849W        W47834  33.179   7.861  12.562
82850W        W47835  41.155   0.634  13.941
82851W        W47836   7.167  16.590   3.157
82852W        W47837  44.304   2.958   4.280
82853W        W47838  40.161  25.658   1.257
82854W        W47839  18.296  26.432  14.422
82855W        W47840  29.396   4.160   0.849
82856W        W47841  23.864  20.558   1.411
82857W        W47842  16.009  16.849  11.513
82858W        W47843   5.237  13.830  11.741
82859W        W47844  18.590  43.265   3.277
82860W        W47845  23.972  17.683   4.741
82861W        W47846  20.577  34.696  11.558
82862W        W47847  38.377  12.696   3.559
82863W        W47848  38.097  36.430   3.762
82864W        W47849   1.507  34.312  13.067
82865W        W47850  28.465  26.941  12.424
82866W        W47851  33.156   2.255   0.896
82867W        W47852  32.637  15.766   0.232
82868W        W47853   8.202  38.471  14.917
82869W        W47854  30.497  41.929   4.570
82870W        W47855  13.332   3.546   0.760
82871W        W47856  17.481  23.543  13.930
82872W        W47857  24.052  21.740   0.869
82873W        W47858  42.359   7.656  11.149
82874W        W47859   8.260  23.648  12.713
82875W        W47860   5.748  18.543  13.432
82876W        W47861  33.392  41.799  11.523
82877W        W47862  36.028  16.837   0.398
82878W        W47863   0.308  33.995  14.008
82879W        W47864  32.903   4.248  10.666
82880W        W47865  11.380  43.741  11.205
82881W        W47866  42.549  36.535   2.541
82882W        W47867   6.292   3.158   2.334
82883W        W47868  35.744  22.723   3.273
82884W        W47869   4.590  11.559  11.153
82885W        W47870  25.794   5.153   1.238
82886W        W47871   0.774  20.916  10.097
82887W        W47872  15.325  30.463  14.316
82888W        W47873  22.944  44.476   3.047
82889W        W47874  17.213  32.741  11.981
82890W        W47875  12.580  16.764   2.430
82891W        W47876  29.424  31.129  10.581
82892W        W47877  36.603  31.206  11.099
82893W        W47878  25.228  11.373  12.884
82894W        W47879  16.108  31.349   4.508
82895W        W47880  38.322  25.182  12.584
82896W        W47881   6.738   0.844   3.165
82897W        W47882  16.745  37.334   0.336
82898W        W47883  21.563  40.449  12.800
82899W        W47884  24.974  15.037  13.527
82900W        W47885  35.539   7.148  13.637
82901W        W47886  41.099  33.066   0.897
82902W        W47887  14.799  34.082   3.458
82903W        W47888  31.398  14.191  13.405
82904W        W47889   4.014   6.725   2.199
82905W        W47890  10.824   9.266  14.417
82906W        W47891  16.071  23.559  12.620
82907W        W47892  12.582  40.299   1.318
82908W        W47893  12.150  36.894   2.153
82909W        W47894  20.484  25.271  13.300
82910W        W47895  23.577  19.927  14.949
82911W        W47896  24.632   3.951  13.809
82912W        W47897  24.776  36.588  12.777
82913W        W47898  39.430   4.453   0.857
82914W        W47899  15.865  27.487  13.536
82915W        W47900  37.572  41.368  13.828
82916W        W47901   9.957  35.326   3.309
82917W        W47902  11.626   8.565   3.237
82918W        W47903  20.944  24.746  12.590
82919W        W47904  12.626  38.054  13.875
82920W        W47905  24.113  41.593   1.963
82921W        W47906   9.182  15.158   3.929
82922W        W47907  35.163   4.470   2.912
82923W        W47908  12.621  23.700  12.168
82924W        W47909  44.270   7.846   2.814
82925W        W47910   3.462  34.856   5.075
82926W        W47911  31.979  18.213   2.614
82927W        W47912  21.692  19.016  11.763
82928W        W47913  20.047   2.734  13.092
82929W        W47914   5.625  26.956   4.149
82930W        W47915  35.027  43.917   0.511
82931W        W47916  24.999  25.100  14.491
82932W        W47917  13.844  29.144  14.042
82933W        W47918  18.829  12.180  11.402
82934W        W47919  17.698   7.915   3.323
82935W        W47920   9.648  41.246   4.793
82936W        W47921  31.535   2.213   3.110
82937W        W47922  33.641  41.033  13.896
82938W        W47923  28.283  27.929   1.438
82939W        W47924  28.274   2.468   1.243
82940W        W47925   8.450  41.032  12.427
82941W        W47926  34.106  25.641   3.809
82942W        W47927  38.918  44.703   1.507
82943W        W47928  29.080  42.964  13.174
82944W        W47929  19.496  23.407   0.329
82945W        W47930  41.532  34.639  11.591
82946W        W47931  14.319  28.731   1.800
82947W        W47932   8.191  10.180  10.531
82948W        W47933  12.096  16.470  11.189
82949W        W47934  37.830  42.896   0.799
82950W        W47935  40.670   0.093   4.898
82951W        W47936   9.850  25.219  12.715
82952W        W47937  31.637  26.538  12.338
82953W        W47938  10.705  34.361   3.711
82954W        W47939  20.292   6.289   0.521
82955W        W47940  32.664  26.513   4.082
82956W        W47941  42.281  14.777  13.365
82957W        W47942  40.407  25.797  14.976
82958W        W47943   8.872  39.098  10.529
82959W        W47944  38.633  38.469  12.094
82960W        W47945  32.317  19.793   1.523
82961W        W47946  44.712   0.457  12.856
82962W        W47947   8.504  26.265   2.330
82963W        W47948   3.470   7.894   2.345
82964W        W47949   0.866  34.588  10.133
82965W        W47950  44.538  28.600   2.952
82966W        W47951  41.925  41.110  10.373
82967W        W47952  23.819  44.684  10.786
82968W        W47953  17.131  14.285  13.361
82969W        W47954  37.444   3.887   4.675
82970W        W47955   2.209  26.943   4.280
82971W        W47956   7.317  28.951  14.765
82972W        W47957  40.001   9.731  14.525
82973W        W47958   4.556   6.664  12.548
82974W        W47959  36.277  32.385  12.955
82975W        W47960   9.387  38.852   4.813
82976W        W47961  44.883   5.107   3.222
82977W        W47962  32.631  21.082  14.849
82978W        W47963  37.098  21.612   4.401
82979W        W47964  41.281  16.718  12.477
82980W        W47965   3.807  16.049  12.897
82981W        W47966  30.526   4.452   0.336
82982W        W47967  19.566   0.689   1.785
82983W        W47968  17.205  32.046  14.987
82984W        W47969  26.153   5.732  12.290
82985W        W47970   9.130  13.587   3.894
82986W        W47971  16.615  33.665  11.630
82987W        W47972  23.552  25.607  14.796
82988W        W47973  28.058   0.412  13.841
82989W        W47974   5.051   8.483  11.170
82990W        W47975  14.073  28.727   4.404
82991W        W47976  33.072  43.256   3.287
82992W        W47977  26.427  11.804   2.788
82993W        W47978  40.999  14.230  14.255
82994W        W47979  15.233  35.633   1.947
82995W        W47980  27.795  22.029  12.520
82996W        W47981   6.212  22.234   4.360
82997W        W47982  27.139   4.775  11.553
82998W        W47983  35.962   7.132  14.800
82999W        W47984  10.673  20.062  10.787
83000W        W47985  35.133  20.451  14.488
83001W        W47986  39.836  19.254  13.381
83002W        W47987  21.596   5.150   3.593
83003W        W47988  36.747  14.316  14.262
83004W        W47989  30.923  14.197   1.879
83005W        W47990  24.493  24.648  12.488
83006W        W47991  31.432   9.785   1.934
83007W        W47992   8.162   5.677  14.981
83008W        W47993  32.605  21.845   1.725
83009W        W47994   5.963  20.222   2.269
83010W        W47995  25.451  32.987   1.329
83011W        W47996  35.014   6.563   3.675
83012W        W47997  12.692  43.539  11.170
83013W        W47998  44.843  40.968  12.454
83014W        W47999   3.833  34.483  12.754
83015W        W48000  30.517   7.447  14.456
83016W        W48001  40.727  39.837  11.103
83017W        W48002   1.852  42.801  13.051
83018W        W48003   2.239  33.614  13.143
83019W        W48004  11.067  16.800   4.543
83020W        W48005  43.078  23.174   0.042
83021W        W48006  38.934  12.748  13.823
83022W        W48007  23.258  22.056   2.787
83023W        W48008   0.277  14.350  14.530
83024W        W48009   9.438  24.045   1.440
83025W        W48010  28.092  18.303   0.280
83026W        W48011  42.820  44.787   4.549
83027W        W48012  27.103  17.071  12.525
83028W        W48013  22.567   4.264   2.359
83029W        W48014  12.427   2.521  11.063
83030W        W48015  19.161  12.165  13.630
83031W        W48016   1.431   6.930  13.911
83032W        W48017  34.692  32.438  10.568
83033W        W48018  12.649  39.069  11.158
83034W        W48019  26.748  34.685  12.617
83035W        W48020  36.346  28.067   1.398
83036W        W48021  18.742  14.778  10.808
83037W        W48022  43.283  38.285  12.407
83038W        W48023  24.455  10.780  13.896
83039W        W48024  10.096  35.344   4.237
83040W        W48025  24.052  24.300  13.813
83041W        W48026  30.382  37.475   3.381
83042W        W48027  28.541   3.619  14.862
83043W        W48028   9.744  16.356   3.756
83044W        W48029  33.219  42.737  13.008
83045W        W48030  28.416  33.634   3.262
83046W        W48031  14.304  11.248  12.084
83047W        W48032  25.816  39.024   1.585
83048W        W48033   0.870  28.743  12.390
83049W        W48034  25.594  35.049  14.849
83050W        W48035  14.409  18.059   3.704
83051W        W48036  30.115  37.004   3.356
83052W        W48037  39.944  17.281  13.695
83053W        W48038   1.427  10.975   1.695
83054W        W48039  30.632  20.386  11.636
83055W        W48040  44.892  13.408  13.449
83056W        W48041   7.825  32.687   2.748
83057W        W48042   4.247   8.434  11.479
83058W        W48043  18.753  29.602   3.623
83059W        W48044  17.240   2.914  10.832
83060W        W48045  42.225  15.311  12.475
83061W        W48046  26.136  27.968  13.882
83062W        W48047   2.234  37.951   1.210
83063W        W48048  29.191  32.050  10.932
83064W        W48049  43.787  40.565   4.093
83065W        W48050  19.945  35.450  11.689
83066W        W48051  43.321  44.969   4.578
83067W        W48052   9.293  20.251  12.564
83068W        W48053  42.749  27.230  14.974
83069W        W48054   2.996   7.390  12.624
83070W        W48055  43.513  22.344  14.221
83071W        W48056   7.246  23.735   0.245
83072W        W48057  18.045  33.550  11.513
83073W        W48058  30.824  29.962  11.589
83074W        W48059  35.316  13.343   3.913
83075W        W48060   4.008   0.348  14.211
83076W        W48061  21.294   3.345   3.609
83077W        W48062  33.274   0.053  13.542
83078W        W48063   9.580   8.384  13.262
83079W        W48064  41.330  10.959   0.356
83080W        W48065   1.832  31.285  11.667
83081W        W48066  28.502  11.890   4.674
83082W        W48067   1.400  15.121   2.207
83083W        W48068  18.110   9.380  12.837
83084W        W48069   8.217  31.179  14.860
83085W        W48070  10.739  35.348   1.192
83086W        W48071   7.981  41.371   0.808
83087W        W48072  42.126  35.131   0.421
83088W        W48073  36.424  10.596   2.280
83089W        W48074  17.858  22.694   5.014
83090W        W48075  16.764  31.438   3.102
83091W        W48076   7.004  31.965   4.630
83092W        W48077   5.436   1.382  10.719
83093W        W48078  40.210   9.385   0.094
83094W        W48079  12.316  10.604  14.281
83095W        W48080  19.452  34.061   2.689
83096W        W48081  42.847  19.689   4.231
83097W        W48082  22.743   8.248  12.138
83098W        W48083   1.942  25.726  13.907
83099W        W48084  27.044  21.034   4.825
83100W        W48085  30.675  12.625   3.824
83101W        W48086  11.962  34.859   3.684
83102W        W48087   6.867  33.994  11.345
83103W        W48088   5.307  17.818  13.014
83104W        W48089   6.217  16.625   1.180
83105W        W48090  18.944  42.858  12.062
83106W        W48091  20.795   8.840   1.892
83107W        W48092  14.058  21.285   0.582
83108W        W48093  10.669   5.276  14.408
83109W        W48094  12.188  11.254   3.660
83110W        W48095  41.070  23.996  13.899
83111W        W48096  36.035  35.841   4.637
83112W        W48097  37.501   4.242   3.799
83113W        W48098   1.009   2.478   4.026
83114W        W48099  35.734   4.435  12.385
83115W        W48100  32.881  18.180  10.483
83116W        W48101  30.894  18.235  11.531
83117W        W48102  11.233  32.511   4.792
83118W        W48103   7.083  14.772   2.854
83119W        W48104  10.858  23.991   0.350
83120W        W48105  43.777  27.512  14.698
83121W        W48106  27.105  17.809   2.420
83122W        W48107  29.614   4.448  11.350
83123W        W48108   0.265  40.511   2.358
83124W        W48109  42.385  38.448   9.796
83125W        W48110  35.565  15.228  11.146
83126W        W48111  22.290  19.667   3.658
83127W        W48112   0.507  41.469   1.415
83128W        W48113  16.492  14.583   1.734
83129W        W48114   4.009   2.213  10.700
83130W        W48115   1.969  23.769   4.227
83131W        W48116  15.341  34.961  12.380
83132W        W48117   6.279  38.402   3.123
83133W        W48118  23.955  37.029   3.877
83134W        W48119  23.452  35.239  10.309
83135W        W48120  19.316  26.174  11.908
83136W        W48121  42.843   1.292   4.962
83137W        W48122   6.466  41.585  11.063
83138W        W48123  26.754  31.366   2.288
83139W        W48124  30.086  11.750   1.933
83140W        W48125   7.732   0.960   0.906
83141W        W48126  24.308  16.295   2.776
83142W        W48127  29.636  18.105   3.107
83143W        W48128  20.667   7.152  12.607
83144W        W48129   8.693  23.033  12.356
83145W        W48130  24.442  32.100  13.036
83146W        W48131  16.719   4.871   0.315
83147W        W48132  19.753   0.379   1.323
83148W        W48133   3.906  13.579   4.139
83149W        W48134  23.642   9.697  12.925
83150W        W48135  11.079  39.595  10.589
83151W        W48136  39.343  15.232  14.569
83152W        W48137  42.035  21.655  11.431
83153W        W48138  17.881  20.363   1.700
83154W        W48139   3.077  31.919   3.263
83155W        W48140   8.792  12.241  13.450
83156W        W48141  30.174   1.884   4.014
83157W        W48142  41.883  22.949  11.067
83158W        W48143  21.083  22.488   3.513
83159W        W48144  11.888  28.657  14.382
83160W        W48145  17.061  15.657   3.349
83161W        W48146  32.005  20.549  12.448
83162W        W48147   4.455  42.440   1.265
83163W        W48148  28.596  20.291  14.524
83164W        W48149  21.016   5.336  11.178
83165W        W48150  18.338  11.688   0.554
83166W        W48151  38.356   5.958  11.237
83167W        W48152  15.047  39.544   4.142
83168W        W48153   2.611  22.688   0.794
83169W        W48154   2.862  42.462  14.825
83170W        W48155   5.657  34.972   1.682
83171W        W48156  13.458   0.868  13.601
83172W        W48157  28.246   6.337  13.475
83173W        W48158   4.136   7.466   3.362
83174W        W48159  26.325  12.159  11.230
83175W        W48160  23.467  26.368   4.620
83176W        W48161  27.107  33.042   2.406
83177W        W48162  21.472  21.295  11.644
83178W        W48163  42.145   0.425   3.638
83179W        W48164  37.078  38.485   1.598
83180W        W48165  26.469   0.985  13.536
83181W        W48166  19.666  22.488   3.193
83182W        W48167  33.879  18.631  10.616
83183W        W48168   6.395  26.387  13.148
83184W        W48169  25.796   2.670   4.586
83185W        W48170   0.459  24.722   4.994
83186W        W48171  24.062  17.557   0.729
83187W        W48172  35.221   1.341  12.043
83188W        W48173  12.803   7.456  14.433
83189W        W48174   2.241  24.491  12.540
83190W        W48175  37.886  42.775  10.674
83191W        W48176  16.136  25.130   0.639
83192W        W48177  32.533  18.135  13.119
83193W        W48178  35.918   5.423  12.356
83194W        W48179  10.171  31.473  11.496
83195W        W48180  23.769   8.438   2.800
83196W        W48181  27.806  27.893  13.865
83197W        W48182   3.396  15.536  13.795
83198W        W48183   9.288   3.801   3.894
83199W        W48184  31.097  42.384   4.926
83200W        W48185  20.015  25.703   3.896
83201W        W48186  30.480  10.370   4.193
83202W        W48187  15.111  35.333   2.370
83203W        W48188  27.210   1.213   3.588
83204W        W48189  19.910  43.995  14.327
83205W        W48190  10.875  15.035   2.585
83206W        W48191   4.831   3.724  11.507
83207W        W48192  26.272   8.107   1.327
83208W        W48193   5.445  27.261   0.949
83209W        W48194   1.754  38.976  14.427
83210W        W48195  25.249   6.763  14.800
83211W        W48196  20.262  35.708  14.932
83212W        W48197  28.612   4.890  13.953
83213W        W48198  21.016   7.582   4.266
83214W        W48199  31.012  31.867  11.285
83215W        W48200  14.373  37.029   1.422
83216W        W48201   7.747  17.435  14.579
83217W        W48202  42.473   8.181  13.827
83218W        W48203  44.234  17.826  12.943
83219W        W48204   6.158   4.346  10.779
83220W        W48205  40.627   5.510   4.057
83221W        W48206   4.801  20.736   3.826
83222W        W48207  44.924  24.822   5.506
83223W        W48208  24.046  21.016   3.687
83224W        W48209  31.233  18.674   0.410
83225W        W48210   6.960  38.840   3.198
83226W        W48211  13.610   5.834  14.814
83227W        W48212  33.881   9.084   3.257
83228W        W48213  37.614  31.343   3.847
83229W        W48214  28.750  19.655   2.227
83230W        W48215  16.987  18.167  13.470
83231W        W48216  42.516  20.454   2.245
83232W        W48217  14.299  30.121  12.067
83233W        W48218  32.461  20.157   4.490
83234W        W48219  18.727  23.124   0.746
83235W        W48220   8.751   0.867   0.764
83236W        W48221  32.619  15.401  12.808
83237W        W48222   4.771  43.924   2.574
83238W        W48223  29.692  32.800   1.795
83239W        W48224  21.286   2.020   3.178
83240W        W48225  35.106   8.634   2.981
83241W        W48226  26.146  14.162   4.059
83242W        W48227  32.126   1.886  10.479
83243W        W48228  14.888  17.845  12.070
83244W        W48229  10.502  34.656  13.757
83245W        W48230   9.132   8.457  14.604
83246W        W48231  28.136  22.643   2.238
83247W        W48232  20.543  28.721   3.524
83248W        W48233  37.260   9.524  10.957
83249W        W48234  30.816   8.753  12.832
83250W        W48235  21.543   9.060  13.966
83251W        W48236  13.180  13.309  12.417
83252W        W48237  13.158  25.043  14.801
83253W        W48238   0.191  11.188   0.265
83254W        W48239  31.847  18.080   1.001
83255W        W48240  30.535  16.043  11.335
83256W        W48241  17.272  25.000   0.384
83257W        W48242  25.919  17.781   0.378
83258W        W48243  15.095  37.666   4.843
83259W        W48244  37.746  15.141   4.651
83260W        W48245  33.054  32.603   0.341
83261W        W48246   9.290  11.311   4.656
83262W        W48247  40.720  37.013   4.714
83263W        W48248  29.206   5.891   1.409
83264W        W48249   8.261  11.120   0.064
83265W        W48250  32.077  40.454   5.153
83266W        W48251   6.207   4.201  13.817
83267W        W48252  21.496   8.681  11.986
83268W        W48253   0.748  14.249   2.745
83269W        W48254  12.145   6.530  11.541
83270W        W48255  19.830  35.469   3.612
83271W        W48256  33.398   0.473   1.445
83272W        W48257  19.311  15.181  14.927
83273W        W48258  28.611  33.638   2.316
83274W        W48259  15.113  34.666   1.604
83275W        W48260  24.181  30.194   4.602
83276W        W48261  33.877   2.883   2.466
83277W        W48262   0.428   1.804  11.194
83278W        W48263  26.016  21.001   0.220
83279W        W48264  32.864  29.040  14.402
83280W        W48265  20.114  42.928   3.897
83281W        W48266  39.877  21.697  13.561
83282W        W48267   9.310  17.001   1.811
83283W        W48268  17.656  36.786   4.199
83284W        W48269   0.201   8.472  12.493
83285W        W48270   9.285  17.525  13.319
83286W        W48271  15.153  36.955  12.993
83287W        W48272  22.707   6.368   1.158
83288W        W48273   8.270   2.539  11.077
83289W        W48274  40.434  32.873  11.462
83290W        W48275  23.564  33.919  12.605
83291W        W48276  10.666  14.351  13.155
83292W        W48277  27.409   7.163  13.521
83293W        W48278  24.304  34.497   4.908
83294W        W48279   9.699   6.463  13.134
83295W        W48280  42.492  32.453  14.871
83296W        W48281  22.592  29.701  12.133
83297W        W48282  38.772  42.238  12.913
83298W        W48283  40.001  38.744  12.146
83299W        W48284  10.270  11.786   0.813
83300W        W48285  17.305  39.573  14.409
83301W        W48286  24.872  39.279   4.298
83302W        W48287  37.881  43.892  13.638
83303W        W48288  13.123   6.803  10.746
83304W        W48289   8.931  43.453  13.307
83305W        W48290  26.663  15.648   1.408
83306W        W48291   5.651   0.866   4.798
83307W        W48292  35.279  25.588   0.406
83308W        W48293   0.517  28.984   2.185
83309W        W48294  22.666   9.198   2.942
83310W        W48295  44.930  40.455   4.252
83311W        W48296  37.469  43.521   0.131
83312W        W48297  42.966   6.378  10.866
83313W        W48298  32.969  13.792  11.946
83314W        W48299  44.995   3.465   4.107
83315W        W48300   6.329  43.402   2.074
83316W        W48301  41.342  33.479  13.927
83317W        W48302  36.660   8.150   0.364
83318W        W48303   5.463  13.744  10.784
83319W        W48304  25.252  16.302   4.600
83320W        W48305  13.741   8.321  14.937
83321W        W48306   8.306  33.822  12.617
83322W        W48307   0.656   8.230  11.089
83323W        W48308  16.500   3.742  11.954
83324W        W48309  14.237  35.924  14.878
83325W        W48310  19.433  22.554   2.284
83326W        W48311  43.872   4.133   3.588
83327W        W48312  32.636  31.514   1.230
83328W        W48313  40.731   9.192   3.133
83329W        W48314  27.268  30.013   0.408
83330W        W48315  20.748  27.636   3.508
83331W        W48316  37.707   7.231   0.322
83332W        W48317  32.318  15.214   4.237
83333W        W48318  35.042  37.813   3.720
83334W        W48319  21.998  38.607  14.343
83335W        W48320  11.317  18.497   5.075
83336W        W48321  31.040  22.568  13.868
83337W        W48322  10.354  35.439   4.672
83338W        W48323  14.546   2.044   0.763
83339W        W48324  32.620  31.004   1.849
83340W        W48325  28.458   8.178   1.255
83341W        W48326  28.643   7.911   2.748
83342W        W48327  32.105  13.704   1.666
83343W        W48328  20.140  32.530   1.860
83344W        W48329  41.470  10.661  14.955
83345W        W48330  44.304  13.893  10.991
83346W        W48331   8.908  13.084  13.008
83347W        W48332  33.350  44.356  10.457
83348W        W48333  28.048  33.888   4.019
83349W        W48334  38.775  30.544   0.954
83350W        W48335  27.673  44.264   0.873
83351W        W48336  15.409   2.938  11.556
83352W        W48337   9.084  20.954  11.255
83353W        W48338  32.609  11.104  12.732
83354W        W48339  39.308   8.092  14.324
83355W        W48340  23.476  29.513   3.834
83356W        W48341  24.530   2.354   4.965
83357W        W48342  22.708  13.911  11.633
83358W        W48343   1.607   3.085   3.647
83359W        W48344  43.773  31.291   3.865
83360W        W48345  24.755  37.813   0.909
83361W        W48346  19.401  44.812   3.833
83362W        W48347  12.073  37.517  10.422
83363W        W48348  44.684  17.189  11.915
83364W        W48349   7.806   7.158  11.375
83365W        W48350  41.454  39.838   4.601
83366W        W48351  21.631  12.245  11.573
83367W        W48352  19.764  39.042   1.805
83368W        W48353  33.088  36.586   3.328
83369W        W48354  28.480  32.663  12.249
83370W        W48355  42.464  13.257  12.117
83371W        W48356   0.756  44.480   4.685
83372W        W48357  22.222  29.015  11.509
83373W        W48358  33.645   8.384   2.691
83374W        W48359  30.422  18.706  12.134
83375W        W48360  35.482  12.672   2.246
83376W        W48361  16.305  27.510  10.779
83377W        W48362  42.239   8.716  14.323
83378W        W48363  19.140  44.682  11.131
83379W        W48364  41.752   3.248  14.351
83380W        W48365  23.485  38.658  11.786
83381W        W48366   5.057  43.943   4.418
83382W        W48367   3.847  25.459   0.063
83383W        W48368  18.658  16.327   4.362
83384W        W48369  15.316  21.105  14.036
83385W        W48370  22.310   4.827  12.825
83386W        W48371   6.713   9.117  14.958
83387W        W48372  11.826   5.189   4.567
83388W        W48373  35.107  30.933   0.801
83389W        W48374  40.295  43.921   1.899
83390W        W48375  20.755  25.154  14.899
83391W        W48376  19.612  25.706   1.938
83392W        W48377  23.715   1.340   4.542
83393W        W48378  18.936  15.543  11.438
83394W        W48379  11.753  38.380   1.801
83395W        W48380  37.885   2.772  10.795
83396W        W48381   7.158   6.176   2.273
83397W        W48382  40.403  13.222   4.715
83398W        W48383  36.736   7.576  12.892
83399W        W48384  15.175  41.072  13.768
83400W        W48385  40.338  37.584  13.079
83401W        W48386  24.287  42.395  12.060
83402W        W48387   6.255  41.389  13.507
83403W        W48388  28.126  43.892   0.841
83404W        W48389  44.706  31.872   5.073
83405W        W48390  31.841  30.979   1.461
83406W        W48391  36.034  20.090   3.322
83407W        W48392  41.013  43.951  12.885
83408W        W48393   1.976  32.623   2.588
83409W        W48394  39.150  20.212  12.645
83410W        W48395  17.651   7.459  12.108
83411W        W48396   0.374  37.743  14.948
83412W        W48397  15.733  32.873   0.418
83413W        W48398  30.540   2.277   3.477
83414W        W48399   5.459  39.267  11.329
83415W        W48400  21.068   9.943   4.360
83416W        W48401  38.491  23.991  14.447
83417W        W48402   6.301   2.816   1.919
83418W        W48403  26.634  37.625   3.845
83419W        W48404  40.955  27.497   0.953
83420W        W48405   9.294  31.447   3.168
83421W        W48406  43.292   3.671   3.361
83422W        W48407   1.645   8.901  14.957
83423W        W48408   5.203  35.263   1.739
83424W        W48409  23.548  41.022  10.659
83425W        W48410  37.343  15.976  11.564
83426W        W48411  30.088  17.158  12.118
83427W        W48412  40.365   8.757   2.285
83428W        W48413  44.779   5.347  12.967
83429W        W48414   6.935  33.355  11.959
83430W        W48415   3.888  35.938   2.287
83431W        W48416   1.365  30.984   0.844
83432W        W48417  14.967  40.343  13.102
83433W        W48418  30.575  33.891  13.449
83434W        W48419  19.595  43.562  12.921
83435W        W48420  42.403   6.881  10.491
83436W        W48421  12.215  42.414   4.746
83437W        W48422  40.760   4.303   3.285
83438W        W48423  30.468   3.340   0.797
83439W        W48424  29.389  44.803  11.635
83440W        W48425  19.600  11.628  14.991
83441W        W48426  26.213  29.531  10.584
83442W        W48427  25.022  31.404   3.476
83443W        W48428  41.701  22.049   2.738
83444W        W48429   5.246  39.346   1.413
83445W        W48430   6.635   1.205  11.983
83446W        W48431   4.405  32.518  13.417
83447W        W48432  16.756  17.068   1.695
83448W        W48433  34.136  33.628   1.813
83449W        W48434  23.547  29.622  11.988
83450W        W48435  40.851  39.261   0.394
83451W        W48436  18.259   0.679  13.323
83452W        W48437  22.004   9.187   3.581
83453W        W48438   5.751  12.857  13.646
83454W        W48439  26.533  20.535   0.755
83455W        W48440  42.110  27.564   1.773
83456W        W48441  16.153  42.479   3.454
83457W        W48442  13.109  44.755   3.053
83458W        W48443  44.338   8.950   4.139
83459W        W48444   9.106  27.491   3.254
83460W        W48445   4.885  22.492  11.470
83461W        W48446  19.588  39.656   4.561
83462W        W48447  12.127  24.504   3.435
83463W        W48448  10.230  42.106   3.435
83464W        W48449   2.486   2.489  13.374
83465W        W48450  16.377  12.732   2.743
83466W        W48451  37.600  43.431  12.022
83467W        W48452  44.046  28.169  11.643
83468W        W48453  33.931  32.031  10.635
83469W        W48454  30.189   1.472  10.627
83470W        W48455  32.183  12.213   5.014
83471W        W48456  18.895  22.194   2.949
83472W        W48457  12.204  27.481  14.825
83473W        W48458   6.435  30.590  11.634
83474W        W48459  38.105   2.609   1.016
83475W        W48460  35.907  17.836  14.694
83476W        W48461  42.392  41.305  12.011
83477W        W48462  34.492  31.616   0.435
83478W        W48463  19.995  18.875  13.023
83479W        W48464  42.068   6.927   3.763
83480W        W48465  21.664  43.759  10.748
83481W        W48466   7.593   1.421   1.834
83482W        W48467   3.298   0.027   2.400
83483W        W48468  25.701   6.808   2.680
83484W        W48469  39.044  44.993  14.534
83485W        W48470  16.371   0.273  14.391
83486W        W48471  20.783  35.008   2.864
83487W        W48472   9.239   3.773  11.144
83488W        W48473  16.521   7.980  11.722
83489W        W48474  38.713  17.316  10.953
83490W        W48475  31.906  29.052   3.354
83491W        W48476  43.070   1.759   4.092
83492W        W48477  44.534   1.014   4.237
83493W        W48478   1.427  42.802   1.791
83494W        W48479  27.952  38.745   3.681
83495W        W48480  18.575  26.728   2.442
83496W        W48481   8.776  30.655   1.991
83497W        W48482   4.711  26.463   3.894
83498W        W48483  38.398  23.716  12.451
83499W        W48484  37.344   0.050   3.814
83500W        W48485  15.697  33.098   3.876
83501W        W48486  21.304  43.167  13.770
83502W        W48487  26.418  35.280   1.862
83503W        W48488   0.691  25.165  13.392
83504W        W48489  44.595  33.611   4.946
83505W        W48490   7.205  36.364   2.680
83506W        W48491  33.848  30.300  12.100
83507W        W48492  27.456   9.295   2.489
83508W        W48493  15.570   4.160   0.521
83509W        W48494  28.354  11.313   3.000
83510W        W48495   4.376  30.401  13.740
83511W        W48496  21.627  39.401  12.107
83512W        W48497  24.272  24.485  12.027
83513W        W48498  37.813  19.536  14.496
83514W        W48499  22.029  18.936   3.090
83515W        W48500  23.628  13.408  14.459
83516W        W48501   0.997  11.828   3.741
83517W        W48502   0.800  28.858  10.917
83518W        W48503  44.936  19.632   3.608
83519W        W48504  43.137  40.226  11.346
83520W        W48505  20.017  23.981   2.924
83521W        W48506  18.001  11.784  13.059
83522W        W48507  32.498   3.641  13.595
83523W        W48508  16.247  15.084   0.938
83524W        W48509  20.021   2.194   4.588
83525W        W48510   7.679  11.951  11.059
83526W        W48511  38.774  39.208  12.409
83527W        W48512  16.201  14.733   4.463
83528W        W48513   8.260  17.293   0.947
83529W        W48514  16.377  10.379  10.219
83530W        W48515  10.552  14.912   2.994
83531W        W48516  41.055   7.727  10.414
83532W        W48517  25.770  12.866  14.813
83533W        W48518  39.106  25.337  13.139
83534W        W48519  12.594  18.763  14.984
83535W        W48520   3.738   2.862   3.590
83536W        W48521  44.251   3.340  10.780
83537W        W48522  42.418  11.584  14.963
83538W        W48523  31.141  44.461  13.951
83539W        W48524  17.074  40.417   0.892
83540W        W48525  21.256  43.783   0.655
83541W        W48526  21.665  38.105   0.330
83542W        W48527  26.467  26.901  13.941
83543W        W48528  37.822  41.732   1.996
83544W        W48529  27.667  19.340  13.373
83545W        W48530  12.139   2.363   0.411
83546W        W48531  16.665  22.890  13.097
83547W        W48532  42.891  39.479   4.660
83548W        W48533  12.901  26.178  11.561
83549W        W48534  41.934  11.787   5.003
83550W        W48535   8.658  43.044   4.321
83551W        W48536  17.036  33.429  11.456
83552W        W48537   4.067  35.127  11.555
83553W        W48538   1.855  17.572  12.751
83554W        W48539  21.827  16.828  13.266
83555W        W48540  36.380  28.075  10.445
83556W        W48541  39.109  12.488   2.384
83557W        W48542   3.242  35.488  13.421
83558W        W48543  20.540  12.820  10.638
83559W        W48544  35.268  15.753   4.489
83560W        W48545  20.889  10.954   1.560
83561W        W48546   0.464  37.369  14.177
83562W        W48547   3.262  17.262  11.791
83563W        W48548  32.591  23.988  12.393
83564W        W48549  26.440   9.242  14.446
83565W        W48550   7.404   8.317   5.039
83566W        W48551  31.552  32.215   2.808
83567W        W48552   9.938   9.138  11.124
83568W        W48553   1.491   7.707   0.806
83569W        W48554   2.102  44.698  11.096
83570W        W48555  40.182  25.023   1.988
83571W        W48556   9.259  15.071   0.922
83572W        W48557  40.249  39.748   0.970
83573W        W48558   4.666   2.886  11.177
83574W        W48559   0.576  17.284   3.164
83575W        W48560  24.728  27.517   0.809
83576W        W48561  17.702  23.187  12.451
83577W        W48562   4.147  35.968  11.293
83578W        W48563  30.920   4.373  12.557
83579W        W48564   0.983  41.561   4.221
83580W        W48565  16.367  39.291  14.327
83581W        W48566   8.675  25.393  12.267
83582W        W48567   8.653  36.977  13.075
83583W        W48568  28.444  24.677  11.974
83584W        W48569  34.904  23.946   2.324
83585W        W48570   8.806  37.420  12.837
83586W        W48571   9.157  27.085  12.923
83587W        W48572  33.437   7.113  10.779
83588W        W48573  16.045  38.846  13.559
83589W        W48574   8.127  34.321  10.259
83590W        W48575  24.399  22.548   0.977
83591W        W48576  43.311  26.273   0.771
83592W        W48577   1.033  19.893  12.009
83593W        W48578  19.041   0.203  12.010
83594W        W48579  36.711  42.788  12.981
83595W        W48580  28.621  23.454   1.224
83596W        W48581  27.172   7.964  11.099
83597W        W48582  41.071  16.498  14.666
83598W        W48583  33.108  34.637  11.199
83599W        W48584   8.672  40.577   3.872
83600W        W48585  39.518   7.917   2.270
83601W        W48586  27.452  34.158  13.007
83602W        W48587  42.514   6.283   0.313
83603W        W48588  39.133  14.637   1.108
83604W        W48589  13.073  26.619   2.327
83605W        W48590  17.774  41.944  12.150
83606W        W48591  19.770   1.196   1.794
83607W        W48592   3.930  33.716  11.921
83608W        W48593  40.319  12.273  13.309
83609W        W48594  39.819  35.013  14.859
83610W        W48595   1.224  20.709  14.013
83611W        W48596   1.535  42.299  14.443
83612W        W48597  18.986  11.629  13.405
83613W        W48598  23.709   5.301  13.945
83614W        W48599   6.741  36.116   2.525
83615W        W48600  31.448  37.493  14.900
83616W        W48601  25.172  16.055  13.394
83617W        W48602   2.780  34.449  14.012
83618W        W48603  23.693  12.913   2.635
83619W        W48604   6.950  27.077  12.931
83620W        W48605  29.852  40.781   0.889
83621W        W48606  22.519  22.781  12.330
83622W        W48607  17.981  20.892   4.027
83623W        W48608  37.816  31.485   4.570
83624W        W48609  33.953   5.197   0.510
83625W        W48610  35.187  19.553  10.208
83626W        W48611  23.994  31.207   3.100
83627W        W48612   1.271  14.702   0.954
83628W        W48613  21.813  20.113  10.231
83629W        W48614  13.028   9.603   2.200
83630W        W48615   9.339  19.610   2.817
83631W        W48616  27.550  23.451   3.239
83632W        W48617   8.378  10.061   1.947
83633W        W48618  17.373  13.128  13.972
83634W        W48619   3.041  34.603   1.676
83635W        W48620  28.105  20.308  11.537
83636W        W48621  22.527   9.097   0.769
83637W        W48622  34.831  32.566  12.653
83638W        W48623  37.133   2.361   1.276
83639W        W48624  44.861  32.013  13.745
83640W        W48625  34.458  31.654   4.137
83641W        W48626  12.270  15.282  12.992
83642W        W48627   7.803  23.476   1.877
83643W        W48628   4.314   5.176  10.474
83644W        W48629  21.195   0.892  10.160
83645W        W48630   0.026  18.272   1.671
83646W        W48631  13.840  26.755   4.237
83647W        W48632   1.445  12.323   4.420
83648W        W48633  40.581  18.773  14.805
83649W        W48634  19.118  32.051   1.260
83650W        W48635  19.625  18.393  10.544
83651W        W48636  24.790  19.346   3.712
83652W        W48637  30.511   7.460   0.267
83653W        W48638  26.010  32.285   1.866
83654W        W48639  32.389   7.880   2.375
83655W        W48640  35.078   4.827  11.042
83656W        W48641   6.719   0.782  14.385
83657W        W48642  19.632  36.861  13.517
83658W        W48643  14.009   0.928  13.501
83659W        W48644  21.007  34.393  11.444
83660W        W48645  33.468  21.019  14.587
83661W        W48646  37.237   9.075   5.027
83662W        W48647  22.794   8.704   2.264
83663W        W48648  26.454  19.266  11.959
83664W        W48649   7.721  42.954  12.110
83665W        W48650  29.435  10.227   4.102
83666W        W48651  20.946   9.005  11.589
83667W        W48652  38.022  42.712   0.338
83668W        W48653   1.029  29.080   3.732
83669W        W48654  37.960  19.860   4.114
83670W        W48655  31.053  29.113   0.714
83671W        W48656  31.685  22.210   0.722
83672W        W48657  24.569  41.073   2.244
83673W        W48658   7.745  44.680  14.086
83674W        W48659  44.517  39.430   1.778
83675W        W48660   1.107  44.420  12.018
83676W        W48661  44.260  14.201  13.444
83677W        W48662  16.495  40.735  10.747
83678W        W48663  22.106  18.115  13.507
83679W        W48664   4.228  39.479  10.618
83680W        W48665  34.910  30.587   5.184
83681W        W48666  42.979  25.002  10.287
83682W        W48667   1.468   2.261  13.500
83683W        W48668  16.023  12.722   1.801
83684W        W48669  42.286  20.488   1.367
83685W        W48670   7.388  16.611  11.019
83686W        W48671  14.310  15.713  10.649
83687W        W48672   1.298  14.290  14.562
83688W        W48673  38.374  25.993   1.330
83689W        W48674  19.151  39.899  13.915
83690W        W48675  37.239  29.151  11.908
83691W        W48676  27.932  18.203   3.348
83692W        W48677  12.070  34.534   2.432
83693W        W48678  33.279  30.001  14.062
83694W        W48679  37.034  14.591   4.216
83695W        W48680  37.608   9.438  13.497
83696W        W48681  16.438  33.368  13.918
83697W        W48682  15.844  12.289  14.434
83698W        W48683   1.482  19.017   2.136
83699W        W48684  17.250   6.015  11.937
83700W        W48685  24.054   9.871   1.651
83701W        W48686  23.594  38.546   3.079
83702W        W48687  41.372  28.406  13.776
83703W        W48688   5.735  14.270   0.016
83704W        W48689  15.679  36.433   1.235
83705W        W48690  33.524  21.057  12.722
83706W        W48691  24.703  41.567  10.679
83707W        W48692  41.786  37.425   5.380
83708W        W48693  38.855   2.517  11.624
83709W        W48694   0.787  16.738   1.635
83710W        W48695  32.478   1.710   3.447
83711W        W48696  34.886  10.724   4.133
83712W        W48697  32.557   8.782  14.519
83713W        W48698  44.828  25.930   4.543
83714W        W48699  28.593  21.225  12.071
83715W        W48700  44.761  38.392  13.032
83716W        W48701  11.721   2.267   0.985
83717W        W48702   7.766  23.325   3.895
83718W        W48703   4.833   8.225   4.202
83719W        W48704  15.467  32.956  14.420
83720W        W48705  10.954  41.168  13.445
83721W        W48706  26.296  39.787   1.054
83722W        W48707  19.518   4.764  13.339
83723W        W48708   7.139  11.250   4.585
83724W        W48709  30.249   4.273  13.922
83725W        W48710  28.758  16.059   4.097
83726W        W48711  35.995  23.322  12.528
83727W        W48712  22.121   4.318   1.440
83728W        W48713  35.967  27.605  11.139
83729W        W48714  37.747  10.391  11.148
83730W        W48715  26.537  27.444   3.258
83731W        W48716  40.371  25.549  12.034
83732W        W48717  22.204  23.776   0.870
83733W        W48718  41.385   6.715   4.319
83734W        W48719  26.987   8.289   1.886
83735W        W48720  19.347  27.559   0.282
83736W        W48721  19.732  43.523   0.857
83737W        W48722  32.612  31.504  12.265
83738W        W48723  28.568   3.897  13.157
83739W        W48724   2.446   1.382  10.848
83740W        W48725  44.443  41.436   3.373
83741W        W48726  44.288  25.436   2.718
83742W        W48727   0.856  16.278  11.724
83743W        W48728  10.875  23.190  12.944
83744W        W48729  30.853   4.497   3.431
83745W        W48730   4.001  35.487   2.862
83746W        W48731  13.535   7.400   1.330
83747W        W48732  28.212  38.536   3.274
83748W        W48733  14.698  38.869  13.896
83749W        W48734  34.352  16.671   3.314
83750W        W48735  40.793  22.510   1.849
83751W        W48736  11.182  43.342  13.906
83752W        W48737   8.763  20.999   2.829
83753W        W48738   5.540  13.396   3.368
83754W        W48739  14.340  24.028  12.126
83755W        W48740   5.840  16.850   0.354
83756W        W48741  10.213  17.066   4.523
83757W        W48742  34.916   1.338   2.873
83758W        W48743  38.577  32.697   3.165
83759W        W48744  35.916  20.763  14.963
83760W        W48745   1.477   5.933   3.094
83761W        W48746   9.571   5.042   1.800
83762W        W48747  17.294  26.921  14.317
83763W        W48748  18.655   8.829  12.996
83764W        W48749   1.221  21.667  12.553
83765W        W48750  37.408   1.397  11.259
83766W        W48751  41.556  20.737   2.206
83767W        W48752   4.778  25.083  13.114
83768W        W48753  29.942  14.363  12.415
83769W        W48754   7.187  21.524  11.995
83770W        W48755  31.424  37.400  13.928
83771W        W48756  35.085  44.908   0.113
83772W        W48757  13.846  40.065   1.887
83773W        W48758  10.005  10.479  13.403
83774W        W48759  12.780  38.351   4.296
83775W        W48760   9.083  10.381   2.304
83776W        W48761  43.233  38.831   3.518
83777W        W48762  43.740  12.157  14.350
83778W        W48763  30.623  22.989  12.975
83779W        W48764   3.014  34.567   2.627
83780W        W48765  26.679  22.078   4.843
83781W        W48766   7.223  31.851  12.198
83782W        W48767  26.899  40.339   4.214
83783W        W48768   7.256  21.018  13.988
83784W        W48769  44.462  15.560  14.682
83785W        W48770  43.045  22.573  11.897
83786W        W48771  12.641  35.788   1.495
83787W        W48772  28.101  11.746   3.086
83788W        W48773  41.828  31.879  13.519
83789W        W48774  25.060  22.641   0.984
83790W        W48775   9.432  16.287  11.611
83791W        W48776  13.227  35.424   4.423
83792W        W48777   8.714  40.400   0.198
83793W        W48778  36.454  29.005   2.788
83794W        W48779  23.737   3.309  11.091
83795W        W48780  24.234  19.583  11.467
83796W        W48781  34.189  28.518   0.196
83797W        W48782  41.807  44.033   0.423
83798W        W48783  44.351  25.682   4.588
83799W        W48784   2.527  24.057   4.493
83800W        W48785  14.755  42.489   4.573
83801W        W48786  19.554  42.818  13.883
83802W        W48787  38.572  44.509  14.433
83803W        W48788  42.230  18.341   2.778
83804W        W48789  35.466   7.926   1.733
83805W        W48790  40.988  42.991   1.026
83806W        W48791   2.262  14.653   1.645
83807W        W48792  13.429   8.623  10.027
83808W        W48793  11.204  33.142  13.918
83809W        W48794  24.001  30.104  13.503
83810W        W48795  34.833  19.585   2.317
83811W        W48796  33.396  35.452  11.055
83812W        W48797  13.504  42.435  13.906
83813W        W48798  23.271   4.623  12.925
83814W        W48799  21.194  36.034  11.294
83815W        W48800  39.532  37.307   0.269
83816W        W48801  22.566  24.753  11.401
83817W        W48802  37.036  22.553   4.563
83818W        W48803   5.205  29.007  12.815
83819W        W48804  29.499  16.604  10.356
83820W        W48805  24.066  40.652  13.317
83821W        W48806  30.024  12.186   3.828
83822W        W48807   4.392   7.125   3.836
83823W        W48808   9.681  20.149  12.254
83824W        W48809  13.854  18.120   0.930
83825W        W48810  29.003  25.973   1.041
83826W        W48811  30.831   9.789   5.535
83827W        W48812  30.435  35.663   0.277
83828W        W48813  34.850  14.235  10.637
83829W        W48814  32.621  31.596   4.139
83830W        W48815  25.266   9.238  13.378
83831W        W48816  28.954  44.910   0.755
83832W        W48817  35.663  26.491   2.196
83833W        W48818   3.484  18.253  14.777
83834W        W48819  22.069  26.953  13.104
83835W        W48820  23.709   8.130   1.416
83836W        W48821  19.525  39.108  14.052
83837W        W48822   2.254   8.627   2.566
83838W        W48823  10.333  42.077   3.929
83839W        W48824  14.226  20.016   1.348
83840W        W48825  23.371   0.152   3.558
83841W        W48826  41.775   2.999  13.303
83842W        W48827  41.546  16.860   1.787
83843W        W48828  17.250  33.883   3.660
83844W        W48829  34.554  44.972  13.135
83845W        W48830  36.863   1.230   1.731
83846W        W48831   9.420  40.616  13.911
83847W        W48832   9.629   3.443   0.005
83848W        W48833   1.114  25.517  12.699
83849W        W48834  14.157  43.355   0.320
83850W        W48835  10.939  40.255  12.358
83851W        W48836  31.849  43.769  13.965
83852W        W48837   9.673  30.674   0.474
83853W        W48838  39.273  28.975  11.082
83854W        W48839  23.348   1.868   2.998
83855W        W48840   2.350  12.180  11.179
83856W        W48841  13.257   7.708  14.372
83857W        W48842   0.159  24.615  11.164
83858W        W48843  42.332  20.193  13.409
83859W        W48844  17.119   1.879  14.748
83860W        W48845  32.331  29.909   4.070
83861W        W48846   4.953  35.297  10.687
83862W        W48847   2.286  41.467  10.592
83863W        W48848  17.702  18.825  14.515
83864W        W48849  22.633  20.045   2.410
83865W        W48850   7.728  14.543   2.262
83866W        W48851  43.733  38.941   3.341
83867W        W48852  18.762  35.458  11.172
83868W        W48853   6.349  29.675   2.965
83869W        W48854  30.439  29.952  10.653
83870W        W48855  11.964  28.016  11.213
83871W        W48856  33.908   2.219   0.204
83872W        W48857  11.792  16.848  14.561
83873W        W48858   0.520  29.063   3.675
83874W        W48859  15.834  40.511  13.997
83875W        W48860   4.629   1.790   9.821
83876W        W48861   9.202  11.943  13.364
83877W        W48862  22.770  43.892   3.737
83878W        W48863  19.464  35.323   4.581
83879W        W48864  34.062  38.489  14.441
83880W        W48865  19.014  25.550  10.620
83881W        W48866  24.657  31.710   5.108
83882W        W48867  34.107   1.045   2.247
83883W        W48868  21.585   1.371   4.368
83884W        W48869  36.302  31.485  11.974
83885W        W48870  24.642  35.565   4.583
83886W        W48871  19.772   6.707  13.534
83887W        W48872  32.166  25.041  10.296
83888W        W48873  35.864   0.782  14.449
83889W        W48874  38.318  32.548   0.352
83890W        W48875  20.588  21.009   2.765
83891W        W48876  24.100  38.638  11.158
83892W        W48877   2.078  13.651   0.407
83893W        W48878  26.933   0.427  14.970
83894W        W48879  29.534  28.564   4.243
83895W        W48880   4.509  28.850   4.046
83896W        W48881   1.459  39.123  12.058
83897W        W48882  44.983  40.069  11.368
83898W        W48883   9.464  11.763   2.153
83899W        W48884  34.153  40.616  10.851
83900W        W48885  29.319  39.567   2.909
83901W        W48886  37.397  10.603   2.211
83902W        W48887  43.009  39.247   3.149
83903W        W48888  13.166  21.853  11.114
83904W        W48889  15.669  18.473  11.409
83905W        W48890  25.058  33.473  12.981
83906W        W48891  37.521  32.397  11.605
83907W        W48892  21.700   2.432   1.912
83908W        W48893  18.554  37.077   4.638
83909W        W48894  37.031  19.643   3.806
83910W        W48895  15.848   8.452  11.578
83911W        W48896  29.982  13.814  13.321
83912W        W48897   5.446  37.720   4.233
83913W        W48898  17.979  38.048   3.957
83914W        W48899   0.201  36.345   1.471
83915W        W48900  18.270  14.750  14.037
83916W        W48901  42.180   7.917  14.892
83917W        W48902  37.256  23.546   2.417
83918W        W48903  27.172  37.019   3.206
83919W        W48904  16.914  23.703  14.426
83920W        W48905  10.924  22.600   3.306
83921W        W48906  25.011  44.929  10.758
83922W        W48907  32.402  37.769  12.414
83923W        W48908  16.525   7.635  13.039
83924W        W48909  22.723   9.136  11.951
83925W        W48910  21.581  33.241   4.524
83926W        W48911  39.402  34.983   4.252
83927W        W48912  11.276   7.291   2.961
83928W        W48913  32.106  36.042   3.619
83929W        W48914  12.258  24.834  10.999
83930W        W48915   9.193  23.336   2.336
83931W        W48916   9.756  37.956  10.470
83932W        W48917   3.577  32.695  12.549
83933W        W48918  22.278  10.625  10.456
83934W        W48919   6.647   6.422  14.580
83935W        W48920  32.195  40.391   3.141
83936W        W48921  41.422   5.756   2.151
83937W        W48922   2.983  42.234  13.419
83938W        W48923  34.267  14.781  12.201
83939W        W48924  11.736  19.966   3.321
83940W        W48925  22.870  13.556  11.977
83941W        W48926  38.131   9.298   0.338
83942W        W48927   9.955  43.254   1.173
83943W        W48928  29.755  14.032  14.009
83944W        W48929  10.362  18.713   4.567
83945W        W48930  32.167   6.966  11.152
83946W        W48931   2.850  32.583  13.002
83947W        W48932  22.175  38.010   0.488
83948W        W48933  29.534  43.074   2.265
83949W        W48934   4.391  14.621   4.121
83950W        W48935  32.092   5.806  14.350
83951W        W48936  39.312  42.426   0.285
83952W        W48937  32.423   2.788   1.686
83953W        W48938  22.292   0.721  12.943
83954W        W48939  34.564   7.601  12.312
83955W        W48940  25.260  21.516  14.291
83956W        W48941  28.089   6.957  11.166
83957W        W48942  44.156  17.061   0.280
83958W        W48943  41.542   3.053   0.740
83959W        W48944  41.548  36.500  10.706
83960W        W48945  30.747   4.107  13.825
83961W        W48946  35.146  20.896   4.069
83962W        W48947  37.278  33.212   1.336
83963W        W48948   4.751  18.752  13.312
83964W        W48949  13.556  37.602  14.873
83965W        W48950   0.352  36.517  11.459
83966W        W48951  18.472  19.707   3.562
83967W        W48952   4.684  44.847  12.362
83968W        W48953  19.198   3.357   4.653
83969W        W48954  44.003  17.488  12.613
83970W        W48955  41.226   3.784  14.115
83971W        W48956  18.613  22.425  11.616
83972W        W48957   4.742  29.064  11.080
83973W        W48958  40.899  32.436   4.120
83974W        W48959   4.330   4.404   3.077
83975W        W48960  18.602  41.293   1.894
83976W        W48961  24.278  34.888   0.411
83977W        W48962  27.557  15.103   1.318
83978W        W48963  13.844   3.764   2.711
83979W        W48964  12.668  24.602   2.792
83980W        W48965  21.014  42.371  12.458
83981W        W48966   1.045  19.815   3.799
83982W        W48967   4.992   1.233   2.215
83983W        W48968  25.475  27.382  11.075
83984W        W48969  34.667  36.650   2.328
83985W        W48970  43.218  41.597  10.789
83986W        W48971  25.564  12.563   1.888
83987W        W48972  22.146  39.047   3.671
83988W        W48973  23.905  15.791  13.110
83989W        W48974  13.345  13.824  11.816
83990W        W48975  30.640  24.024  12.311
83991W        W48976  41.473   9.450   2.862
83992W        W48977  18.333  44.761  13.814
83993W        W48978  33.850   7.241  12.982
83994W        W48979  38.559  44.318   1.376
83995W        W48980   8.180   4.359   1.027
83996W        W48981   0.600  34.244  10.457
83997W        W48982  42.957  43.741   0.954
83998W        W48983  13.968  41.491  10.382
83999W        W48984  42.908  24.421   0.936
84000W        W48985  22.411  11.877  11.995
84001W        W48986   1.497  16.349   2.849
84002W        W48987  31.909  39.542   4.093
84003W        W48988  31.640  42.188   3.945
84004W        W48989  34.725  23.711   3.549
84005W        W48990  40.749   1.855  11.448
84006W        W48991   4.293  22.206   0.023
84007W        W48992   4.097  15.380  14.890
84008W        W48993  16.269  12.426   4.035
84009W        W48994  18.686  44.788  10.386
84010W        W48995   1.762  38.303   4.706
84011W        W48996  29.958   2.079  12.586
84012W        W48997  40.146  29.240  11.106
84013W        W48998  29.435  11.917   4.416
84014W        W48999   2.496  42.337   3.366
84015W        W49000  24.248   4.293   1.722
84016W        W49001  32.453  10.753   3.313
84017W        W49002  25.066  40.524  12.944
84018W        W49003  21.647  44.930  11.641
84019W        W49004  12.584  37.908   2.429
84020W        W49005  10.081  42.584   4.819
84021W        W49006  17.090   8.983   2.303
84022W        W49007  28.682  32.926   2.822
84023W        W49008   9.434  26.654   1.369
84024W        W49009  22.588  13.150   2.343
84025W        W49010  37.471  32.667  14.368
84026W        W49011  40.070  37.220   0.174
84027W        W49012  38.071  42.529   1.715
84028W        W49013  26.439  10.524   2.368
84029W        W49014  34.461  18.297   1.248
84030W        W49015   7.336   5.109   4.530
84031W        W49016   4.969   3.298   0.476
84032W        W49017  33.866  33.272   3.641
84033W        W49018  34.349   3.979  14.328
84034W        W49019   8.120  43.861   0.271
84035W        W49020  40.298  22.011  13.438
84036W        W49021  12.239   9.290   2.635
84037W        W49022  20.661   1.139   2.152
84038W        W49023   7.216  40.064  14.986
84039W        W49024  20.303  39.471   2.440
84040W        W49025  44.373  22.581  11.511
84041W        W49026  42.745  35.281  12.947
84042W        W49027  44.651  22.235  13.014
84043W        W49028  18.635   0.159  13.690
84044W        W49029  36.349  16.222   4.278
84045W        W49030  21.575  34.551   0.197
84046W        W49031  43.346   6.698   2.613
84047W        W49032  15.576  25.654   3.626
84048W        W49033  35.616   6.886  12.548
84049W        W49034   3.814  41.103  12.151
84050W        W49035  44.880  26.067  12.613
84051W        W49036  29.973  32.533  11.568
84052W        W49037  30.694  31.298  13.902
84053W        W49038  39.824  14.658  14.893
84054W        W49039  16.010  38.431  13.870
84055W        W49040   5.644  27.269  13.361
84056W        W49041   3.254  42.305  12.973
84057W        W49042   0.235  36.577  13.061
84058W        W49043  34.865  26.538   5.143
84059W        W49044  38.944  29.875   2.843
84060W        W49045  26.062  27.011   2.664
84061W        W49046  20.044  14.769  11.494
84062W        W49047  16.951  36.983   3.583
84063W        W49048  27.687  41.595   2.723
84064W        W49049  10.841  14.334  11.486
84065W        W49050  38.879   2.522  12.589
84066W        W49051  35.565  41.473  11.365
84067W        W49052  21.748  29.392  12.618
84068W        W49053  29.245  21.036  12.514
84069W        W49054  37.059  26.631   2.687
84070W        W49055   1.063   2.434  12.070
84071W        W49056  42.515  30.898   1.804
84072W        W49057  21.590  34.681   4.193
84073W        W49058  33.974   7.984  14.770
84074W        W49059   0.364   4.252   0.835
84075W        W49060   0.408  19.537  14.746
84076W        W49061  15.269  26.381   5.560
84077W        W49062  30.806  15.664  12.535
84078W        W49063  27.072   3.876   3.152
84079W        W49064  41.002   3.126  11.982
84080W        W49065  10.728  31.606  12.625
84081W        W49066  38.537  16.118   3.817
84082W        W49067  37.928  14.788  13.882
84083W        W49068   9.292  37.013   2.205
84084W        W49069   5.127  15.591  10.119
84085W        W49070  42.982  33.092  10.892
84086W        W49071   6.816  14.680   4.208
84087W        W49072   6.268  18.733   4.770
84088W        W49073   3.521  14.568   1.426
84089W        W49074   5.422  41.067  13.735
84090W        W49075  23.437  34.691  14.955
84091W        W49076  13.849  12.915  14.860
84092W        W49077  32.915   1.463   0.474
84093W        W49078  43.344  16.016  14.295
84094W        W49079  31.476  35.022  12.881
84095W        W49080  22.655  27.966   0.465
84096W        W49081  32.496  10.196  13.177
84097W        W49082   8.646  16.095   3.142
84098W        W49083   2.923  41.018   4.644
84099W        W49084  17.114  29.189  12.017
84100W        W49085  43.860  39.549  12.098
84101W        W49086  25.088  35.881   3.367
84102W        W49087   1.066  22.529   2.677
84103W        W49088  37.078  25.076   3.952
84104W        W49089   3.255  22.267   0.489
84105W        W49090  32.576  27.631   3.915
84106W        W49091   1.161  32.858  14.838
84107W        W49092  26.573  10.734  12.545
84108W        W49093  31.636  10.249  10.983
84109W        W49094   7.209  19.807  14.567
84110W        W49095  27.925   6.300  12.612
84111W        W49096  35.470  15.220   3.221
84112W        W49097  35.312   0.910   3.269
84113W        W49098  18.135   5.914  11.631
84114W        W49099  37.933  44.027   4.833
84115W        W49100  34.808  27.758   1.780
84116W        W49101  26.699  34.467   2.283
84117W        W49102  37.979   3.830  12.107
84118W        W49103   4.734  17.041   1.292
84119W        W49104  33.081  44.853  12.573
84120W        W49105  31.931  13.848   4.755
84121W        W49106  38.882  23.652  14.331
84122W        W49107  44.383  43.689   3.338
84123W        W49108  12.152  28.012   4.317
84124W        W49109  31.536  39.306   1.369
84125W        W49110  10.331  28.694   4.241
84126W        W49111  35.933   5.828   4.586
84127W        W49112   8.477  30.000   3.208
84128W        W49113  36.124  38.083  12.795
84129W        W49114  34.190  13.553  11.566
84130W        W49115   1.234  33.012   4.522
84131W        W49116  33.201  41.524  11.920
84132W        W49117  36.468   7.776   1.640
84133W        W49118   2.543  39.916   3.085
84134W        W49119  14.507   8.802  13.866
84135W        W49120  43.625  32.173  10.276
84136W        W49121  34.338   1.413  11.144
84137W        W49122  42.771  44.349  12.432
84138W        W49123  36.617  14.537   3.911
84139W        W49124   3.431  44.938   0.859
84140W        W49125  15.340  33.292   1.245
84141W        W49126  44.578  12.420   4.588
84142W        W49127  40.585  39.807  10.589
84143W        W49128  38.280   7.897   2.119
84144W        W49129  21.916  17.685   4.560
84145W        W49130  22.262  29.036   4.412
84146W        W49131   6.446  29.164  12.509
84147W        W49132   9.948  32.460  11.803
84148W        W49133   0.707  44.555   1.376
84149W        W49134  26.930  42.508  14.773
84150W        W49135   6.899  19.708  10.729
84151W        W49136  29.702   6.022  11.990
84152W        W49137  10.210  34.679   3.824
84153W        W49138   9.734  28.137  12.408
84154W        W49139  11.665   4.708   2.597
84155W        W49140  44.021  13.130  12.876
84156W        W49141  32.700  27.106  11.211
84157W        W49142  20.746  28.438  14.859
84158W        W49143  43.746  32.532  13.076
84159W        W49144  32.600  31.561  11.267
84160W        W49145  43.540  30.619   3.265
84161W        W49146  33.017  43.393  14.694
84162W        W49147  26.638  29.999  11.637
84163W        W49148   4.898  16.046  10.189
84164W        W49149   0.784  29.131   4.188
84165W        W49150   8.013  40.444   0.825
84166W        W49151  33.320  23.547   0.875
84167W        W49152  37.087   6.730  10.591
84168W        W49153  32.603   4.219   4.128
84169W        W49154  40.951   4.881   0.838
84170W        W49155   5.832  28.077  11.117
84171W        W49156   1.052   6.726   2.318
84172W        W49157  20.727  26.628  12.790
84173W        W49158  26.100  24.602   4.088
84174W        W49159  23.160  29.995  10.432
84175W        W49160  20.767  42.335  13.338
84176W        W49161  25.538  26.021   0.951
84177W        W49162  43.176  19.197   2.290
84178W        W49163  30.843   3.650  14.854
84179W        W49164  22.241   6.734   3.574
84180W        W49165   3.793   7.346   0.690
84181W        W49166  22.742  16.080  12.410
84182W        W49167   7.912   6.573  12.574
84183W        W49168  39.024  14.272  11.555
84184W        W49169  36.030  24.020   0.203
84185W        W49170  25.728   8.776   4.670
84186W        W49171  37.497   7.318   1.337
84187W        W49172  26.467  15.770   4.201
84188W        W49173  35.833  42.961   4.681
84189W        W49174  16.600  44.996  14.792
84190W        W49175  21.751  44.312  14.913
84191W        W49176  13.223  35.628  12.198
84192W        W49177  11.823  37.585   1.404
84193W        W49178   0.410  24.383   9.832
84194W        W49179   0.237  33.849   4.118
84195W        W49180  27.181  42.052  14.864
84196W        W49181  20.933  37.297   4.981
84197W        W49182  10.854  24.562   1.304
84198W        W49183  27.883  16.648   1.370
84199W        W49184  42.107  42.625   1.998
84200W        W49185  22.216   5.210  10.544
84201W        W49186  23.005  19.210   3.103
84202W        W49187   1.005   2.402   3.217
84203W        W49188  21.241  14.111   1.696
84204W        W49189   2.322  20.003  14.819
84205W        W49190  37.035  36.628   4.925
84206W        W49191  27.437  34.385   2.409
84207W        W49192   0.680  22.174  14.470
84208W        W49193  20.177  12.910   3.316
84209W        W49194  25.224  12.691   0.813
84210W        W49195  11.724  35.120  12.949
84211W        W49196  25.153  26.337  10.724
84212W        W49197   6.409  26.759  11.469
84213W        W49198  18.555  23.229  14.752
84214W        W49199   2.918  18.124  14.058
84215W        W49200   3.711  23.263   0.419
84216W        W49201   7.273  14.588   4.535
84217W        W49202  24.454  39.303  13.324
84218W        W49203   9.246  36.142   1.373
84219W        W49204  36.041  17.664  13.649
84220W        W49205  13.921  36.083   0.299
84221W        W49206   3.443  30.207  10.598
84222W        W49207  12.651  24.515  10.594
84223W        W49208  37.450  18.371  13.361
84224W        W49209  35.184   7.409  11.122
84225W        W49210  33.944   3.483  12.149
84226W        W49211  24.078   1.957   0.474
84227W        W49212   9.943   0.351  13.919
84228W        W49213  26.431  27.443   2.368
84229W        W49214   7.907   3.798  14.417
84230W        W49215   5.210  31.324  10.639
84231W        W49216  44.863  13.764   3.916
84232W        W49217  16.665  18.224  11.562
84233W        W49218  17.324   8.640  11.585
84234W        W49219  42.771  29.513   1.342
84235W        W49220  39.196  16.891  11.648
84236W        W49221  22.312  29.106  13.536
84237W        W49222   8.195  19.568  14.475
84238W        W49223  14.564   3.493  12.236
84239W        W49224  41.239  38.506  12.685
84240W        W49225  10.107  26.700  14.003
84241W        W49226  10.353   4.783  13.044
84242W        W49227   8.189  39.356  14.128
84243W        W49228  33.438  24.080  12.766
84244W        W49229   6.453  38.894  11.535
84245W        W49230  21.570  29.796   2.471
84246W        W49231   4.269  20.533   0.831
84247W        W49232  39.442  21.566  14.763
84248W        W49233  32.473  34.847   3.784
84249W        W49234  27.292   1.035   2.731
84250W        W49235  18.055  40.550   4.194
84251W        W49236  18.704   2.755  13.706
84252W        W49237  39.411   4.258   2.773
84253W        W49238   2.085  42.502   1.924
84254W        W49239  24.549  16.684  12.570
84255W        W49240  11.722  17.339   2.877
84256W        W49241  35.614  16.611   2.694
84257W        W49242  12.183  37.346   2.898
84258W        W49243  17.989  42.997  13.812
84259W        W49244   6.660  20.726  13.558
84260W        W49245  38.376  40.438  13.966
84261W        W49246  41.209  33.971   3.260
84262W        W49247  41.607  28.067  14.709
84263W        W49248  13.078  31.620   0.226
84264W        W49249  26.662  11.666   0.038
84265W        W49250   6.476  16.242   3.920
84266W        W49251  40.713  37.463  11.096
84267W        W49252  21.479   3.573   0.410
84268W        W49253  29.103  34.706  13.291
84269W        W49254  41.226  23.857  11.534
84270W        W49255  22.371  32.787   2.857
84271W        W49256  41.226  10.284   2.305
84272W        W49257  23.981  21.983  12.112
84273W        W49258   3.998  15.076   0.915
84274W        W49259  23.061  40.897   4.720
84275W        W49260  26.031   3.203   2.213
84276W        W49261   4.288  30.531   3.388
84277W        W49262  26.285  15.034   2.602
84278W        W49263   1.762  20.182  10.518
84279W        W49264  29.463   2.966  11.084
84280W        W49265  12.327  42.542  12.541
84281W        W49266  24.013  32.004   3.246
84282W        W49267  30.765   7.010   0.276
84283W        W49268  41.031  30.060   0.360
84284W        W49269  42.353   7.366  13.003
84285W        W49270   9.332  23.684   3.142
84286W        W49271  25.156  14.127   1.235
84287W        W49272  44.443  13.624   0.479
84288W        W49273  23.482  25.252   4.589
84289W        W49274  24.024  20.041  14.398
84290W        W49275   0.034  15.494   4.613
84291W        W49276  24.914  41.524   0.378
84292W        W49277  42.512  28.654  14.268
84293W        W49278  11.831  28.251  11.684
84294W        W49279  14.187  34.294  12.075
84295W        W49280  36.006  19.167   2.922
84296W        W49281   7.933  32.892   3.392
84297W        W49282  10.782  27.793   3.255
84298W        W49283  43.828  32.920  14.559
84299W        W49284  36.499  18.068  14.369
84300W        W49285  12.203  22.947   1.227
84301W        W49286  39.857  28.125   0.735
84302W        W49287   3.813  25.773  11.703
84303W        W49288  24.507  16.252   4.005
84304W        W49289  12.346  26.158   2.102
84305W        W49290  31.032   1.487   4.417
84306W        W49291  16.788   4.168  12.028
84307W        W49292   3.914  29.518  14.058
84308W        W49293  15.555  17.585  14.819
84309W        W49294   3.873  24.596  10.714
84310W        W49295  40.755  41.282  14.335
84311W        W49296  11.299  21.584   2.436
84312W        W49297  37.039  35.883   4.738
84313W        W49298   7.338  20.758   1.691
84314W        W49299  30.656   5.733  14.959
84315W        W49300  20.116  41.735  14.823
84316W        W49301   3.418   0.693   2.716
84317W        W49302  27.909  10.214  13.851
84318W        W49303  33.362  23.474  14.039
84319W        W49304  36.964   5.288   0.939
84320W        W49305  38.915  43.759   1.266
84321W        W49306  14.181  16.035  14.833
84322W        W49307  15.610   9.255   1.740
84323W        W49308   5.493  33.509  10.566
84324W        W49309  19.057  37.019   4.593
84325W        W49310  10.283  21.549  10.616
84326W        W49311  22.352   1.687  11.324
84327W        W49312  16.336  20.196   2.433
84328W        W49313  34.342  10.236  11.985
84329W        W49314   9.278  24.968   4.260
84330W        W49315  42.072  18.315  13.414
84331W        W49316  16.738  37.822  10.818
84332W        W49317  11.865  18.700   2.272
84333W        W49318  40.980  15.820  12.845
84334W        W49319  26.290   5.687  11.076
84335W        W49320  20.810  22.609   2.040
84336W        W49321  36.310  20.026  11.188
84337W        W49322  32.569  22.578   3.551
84338W        W49323   2.392  13.783  13.927
84339W        W49324  39.414  36.813  10.713
84340W        W49325  31.728   2.474  11.027
84341W        W49326  40.155  43.699  14.142
84342W        W49327   5.639  15.124  11.411
84343W        W49328  20.948  28.615   4.857
84344W        W49329  27.623  13.504   3.285
84345W        W49330  29.517  10.758   1.718
84346W        W49331  35.916  22.628  14.319
84347W        W49332  44.058   7.202   2.585
84348W        W49333  12.193   4.866   2.438
84349W        W49334  19.561  15.864  13.542
84350W        W49335   3.138  27.936  13.933
84351W        W49336  28.047  29.642  13.341
84352W        W49337  18.497  41.870  10.835
84353W        W49338  12.715   8.140   2.813
84354W        W49339  15.070  14.354   3.161
84355W        W49340  33.155  17.417  14.638
84356W        W49341  38.620  20.457  13.841
84357W        W49342  38.698  33.415   2.778
84358W        W49343  19.311  29.547  11.813
84359W        W49344  37.275  22.669   3.159
84360W        W49345   4.937  13.184  12.360
84361W        W49346  16.212  21.216  10.556
84362W        W49347  27.600   1.657  12.834
84363W        W49348  23.612  17.632  12.656
84364W        W49349  22.252   8.451  12.990
84365W        W49350  16.264  37.073   3.241
84366W        W49351  10.835  12.564  10.733
84367W        W49352  38.425  21.294  12.876
84368W        W49353  22.032  29.680   1.350
84369W        W49354  11.077  25.228   2.240
84370W        W49355  37.972  36.846  13.472
84371W        W49356  31.601  10.829   4.116
84372W        W49357  16.573   8.838   0.973
84373W        W49358   9.741  11.088   0.809
84374W        W49359  30.171  24.912  13.587
84375W        W49360   9.347   8.220   4.016
84376W        W49361  10.756   7.374  10.752
84377W        W49362   0.762   4.167  11.189
84378W        W49363  31.478   2.460  13.676
84379W        W49364  33.353  44.748   1.771
84380W        W49365  40.377  40.761  13.475
84381W        W49366  11.815  14.220   3.720
84382W        W49367  29.651   8.207   0.936
84383W        W49368  36.347   9.194   1.223
84384W        W49369   2.269  21.450  14.937
84385W        W49370   0.058  17.666   3.704
84386W        W49371  28.507  11.880  11.541
84387W        W49372  21.362  14.721   3.711
84388W        W49373  22.540  23.062   2.069
84389W        W49374  38.086   8.348  13.889
84390W        W49375  11.546  24.181  10.224
84391W        W49376  32.049  28.251   3.294
84392W        W49377  26.617   6.982   1.933
84393W        W49378   9.252   6.595   1.092
84394W        W49379  29.724  25.154   4.125
84395W        W49380  22.953  14.179   2.801
84396W        W49381  29.163  28.986  12.992
84397W        W49382  31.643  14.168  11.996
84398W        W49383  38.312  13.146   4.750
84399W        W49384  27.168  21.915   4.979
84400W        W49385   9.233  33.463  11.683
84401W        W49386  41.082   8.164   1.885
84402W        W49387  12.703  28.880   1.796
84403W        W49388  40.273  30.712   4.105
84404W        W49389   8.308  21.459  13.949
84405W        W49390  20.651  28.364  13.372
84406W        W49391   1.642  29.005  14.195
84407W        W49392  19.880  17.506  10.311
84408W        W49393  42.942  40.961   4.611
84409W        W49394   5.871   4.771   1.945
84410W        W49395  22.693  17.279   4.111
84411W        W49396  31.659  11.119   3.663
84412W        W49397   1.178  33.763  11.618
84413W        W49398  20.258  13.495   1.258
84414W        W49399  43.433   2.379  10.607
84415W        W49400  38.466  22.594  13.495
84416W        W49401  37.814  41.065  13.472
84417W        W49402  44.778  17.555   1.526
84418W        W49403  42.215  32.403  12.082
84419W        W49404  42.248  41.540  11.573
84420W        W49405  23.504  15.235  12.424
84421W        W49406  42.286  26.570  11.206
84422W        W49407  27.747  42.779   4.565
84423W        W49408  27.416   1.713  14.355
84424W        W49409  36.814   1.424  14.029
84425W        W49410   0.360  39.884  11.056
84426W        W49411  32.534  26.991  13.015
84427W        W49412  19.046  31.614   2.385
84428W        W49413  38.421  11.091   2.234
84429W        W49414  28.727  38.445   3.166
84430W        W49415  21.597   3.383  11.092
84431W        W49416  41.920  31.970   3.673
84432W        W49417   7.380  14.200   0.465
84433W        W49418  14.072  12.886   1.870
84434W        W49419  23.182  17.078  14.899
84435W        W49420  37.846  42.051  12.538
84436W        W49421  41.112  23.156   2.752
84437W        W49422   3.304  23.491  13.965
84438W        W49423  38.075   6.784   1.142
84439W        W49424   1.798  34.432   0.367
84440W        W49425  13.409  35.678  12.654
84441W        W49426  44.890  26.197   1.101
84442W        W49427  11.754  29.437   0.917
84443W        W49428  33.319  17.177  12.933
84444W        W49429   7.726  19.226   3.266
84445W        W49430  20.300  39.036   1.756
84446W        W49431  13.608  19.052  10.687
84447W        W49432  35.844  20.142   4.722
84448W        W49433  17.061  24.429   0.489
84449W        W49434  36.909  33.518  13.415
84450W        W49435  39.997  23.643   1.854
84451W        W49436  36.042   1.897  11.607
84452W        W49437   3.506  18.254   2.659
84453W        W49438  18.295  32.534  10.555
84454W        W49439  42.701  21.621   4.139
84455W        W49440   5.387  16.851  13.968
84456W        W49441   6.844  36.445   3.329
84457W        W49442  18.677  15.833   4.995
84458W        W49443  39.538  38.571  11.423
84459W        W49444  19.566  44.405  14.323
84460W        W49445  36.817   9.247  14.959
84461W        W49446  42.503  19.250  13.338
84462W        W49447   8.184  33.693  10.746
84463W        W49448  19.629  13.585   1.791
84464W        W49449  24.651   9.195   0.494
84465W        W49450  30.084  23.394  14.571
84466W        W49451  42.800  18.172  13.922
84467W        W49452  19.670  15.637  13.094
84468W        W49453   0.356   4.354   2.881
84469W        W49454  24.683  18.847  11.609
84470W        W49455   0.934  13.964  12.895
84471W        W49456   7.877  43.326   0.924
84472W        W49457  18.820  12.769   3.463
84473W        W49458  38.942  31.089   0.796
84474W        W49459   3.924  39.245  12.370
84475W        W49460  17.824  35.874  12.381
84476W        W49461  31.746  25.179  12.574
84477W        W49462  44.499  15.249   1.282
84478W        W49463   1.774  33.122  11.084
84479W        W49464   4.222   2.581   0.355
84480W        W49465  43.557  42.474  11.169
84481W        W49466  20.217  37.565  10.330
84482W        W49467  14.151  22.703  14.804
84483W        W49468  25.638  14.241   4.199
84484W        W49469  11.737  37.708  12.021
84485W        W49470   9.689  30.046   4.791
84486W        W49471  22.116  13.550  12.517
84487W        W49472   2.789  13.925   1.737
84488W        W49473  21.544  22.583   4.666
84489W        W49474  20.245   3.705   1.870
84490W        W49475   8.776  16.985   4.293
84491W        W49476  12.274   2.786   2.269
84492W        W49477  24.255  39.350   3.304
84493W        W49478  38.470  21.053   2.861
84494W        W49479  24.077  34.612  14.247
84495W        W49480   7.366  20.784   2.764
84496W        W49481   7.610  30.523   2.164
84497W        W49482  19.240  30.962   3.623
84498W        W49483  38.435   5.609   4.692
84499W        W49484  24.784  41.978   1.201
84500W        W49485  39.293   2.160  12.557
84501W        W49486   5.426  13.111   4.664
84502W        W49487   9.220   3.896   3.405
84503W        W49488  43.018  33.492   3.367
84504W        W49489  30.095  29.699   0.792
84505W        W49490  23.015   3.507   1.378
84506W        W49491   7.015  31.180   2.377
84507W        W49492  33.894  17.834   0.342
84508W        W49493   0.786  33.253   0.783
84509W        W49494  29.852  13.153  13.065
84510W        W49495  10.252  19.004  12.630
84511W        W49496  32.341  41.888   0.314
84512W        W49497   0.903  42.366  13.153
84513W        W49498  30.267  11.401   1.152
84514W        W49499  24.389   2.371   9.846
84515W        W49500  33.344   0.944  13.462
84516W        W49501   1.902  35.108  11.130
84517W        W49502  32.686  21.676   2.212
84518W        W49503  15.374  18.666   1.862
84519W        W49504   5.887   8.212  12.694
84520W        W49505  44.467  11.111   2.339
84521W        W49506   5.252  44.206   0.894
84522W        W49507  33.071  11.291  14.019
84523W        W49508  17.821  11.976   0.410
84524W        W49509  30.144  16.861   2.647
84525W        W49510   3.147  35.018   4.701
84526W        W49511  10.574   1.777   2.899
84527W        W49512  30.434   1.559  11.080
84528W        W49513  10.604  12.313  13.974
84529W        W49514  31.761  40.002  11.634
84530W        W49515  24.213  39.135  12.912
84531W        W49516  18.598  16.662   1.406
84532W        W49517  40.061   3.978  12.322
84533W        W49518  22.596  33.368   3.681
84534W        W49519   9.664  44.891  13.892
84535W        W49520  33.700  42.059   4.152
84536W        W49521  32.461   5.622  14.786
84537W        W49522  30.667   1.184   1.396
84538W        W49523  26.956  41.763   0.215
84539W        W49524  15.040  39.979   4.923
84540W        W49525  30.466  35.318   4.871
84541W        W49526  10.690  28.948  11.437
84542W        W49527  39.346  39.550   4.106
84543W        W49528  17.581  33.689  10.628
84544W        W49529   9.949  39.862  12.422
84545W        W49530  25.818  34.087  11.924
84546W        W49531  16.957   7.225   4.917
84547W        W49532   0.296   1.733  13.427
84548W        W49533  35.429   4.390   1.406
84549W        W49534   8.539  21.118  14.340
84550W        W49535  44.868  28.574   3.850
84551W        W49536  37.606  15.346  11.193
84552W        W49537  26.695   2.150   2.994
84553W        W49538  36.461   5.996  12.094
84554W        W49539  16.298   6.887   2.278
84555W        W49540  34.035   5.015   1.918
84556W        W49541   0.091  25.544  12.606
84557W        W49542  15.327  32.841  12.618
84558W        W49543  35.136  18.670  13.128
84559W        W49544  19.068   5.448   2.852
84560W        W49545   5.336  13.248   2.907
84561W        W49546  32.711   1.314  13.919
84562W        W49547  20.136  40.453   2.117
84563W        W49548  38.252  10.974  13.572
84564W        W49549  17.953  22.640   2.072
84565W        W49550   3.357   8.059   0.930
84566W        W49551  13.656   6.349   3.111
84567W        W49552  31.447  14.258   2.137
84568W        W49553  38.284  18.093   2.689
84569W        W49554  26.712  25.653  11.479
84570W        W49555  24.059  24.963  12.137
84571W        W49556  24.051  35.399  12.976
84572W        W49557   4.837  10.357  12.086
84573W        W49558  14.137  42.905   1.554
84574W        W49559  22.185  13.942  11.589
84575W        W49560  40.303   0.789  12.042
84576W        W49561  42.726  37.375  12.490
84577W        W49562  38.733   6.408  13.700
84578W        W49563  35.190  15.604  11.270
84579W        W49564  40.087  24.104  13.883
84580W        W49565  25.437  41.757  11.651
84581W        W49566  28.614   9.336   0.301
84582W        W49567  19.507   6.983   2.328
84583W        W49568  31.327  15.751   1.272
84584W        W49569  27.006  42.431  13.894
84585W        W49570   3.570   1.148   0.265
84586W        W49571   1.866  25.519  10.828
84587W        W49572  39.805  12.156  11.106
84588W        W49573  36.578  19.102  14.288
84589W        W49574  18.211  28.696   2.805
84590W        W49575  18.569   6.283   3.203
84591W        W49576  18.502   2.531  11.475
84592W        W49577  14.962   6.923   4.957
84593W        W49578  38.188  15.566   0.795
84594W        W49579  36.161  14.054  11.058
84595W        W49580  13.319  37.017   3.204
84596W        W49581  34.056  30.953   2.685
84597W        W49582  35.492  32.408  14.955
84598W        W49583  18.457   8.317   3.138
84599W        W49584  43.140  30.032  10.487
84600W        W49585  10.897  30.076   4.927
84601W        W49586  13.167  26.760  12.922
84602W        W49587  11.214  24.332   2.656
84603W        W49588  32.054   2.714  12.670
84604W        W49589  32.084   3.955  13.295
84605W        W49590  29.858   2.234   4.234
84606W        W49591   4.226  12.297  11.512
84607W        W49592  15.771  13.834   3.666
84608W        W49593   8.350   7.147  13.403
84609W        W49594  10.763  24.204   2.894
84610W        W49595  39.537  13.321  13.376
84611W        W49596  39.374  19.555  10.661
84612W        W49597   0.022   9.955  11.150
84613W        W49598  35.329   9.671   0.894
84614W        W49599  23.591  26.018   0.946
84615W        W49600   0.519  26.569  10.563
84616W        W49601  17.253  15.863  11.872
84617W        W49602  12.867  22.602  13.479
84618W        W49603  22.729  21.039  14.867
84619W        W49604  27.159   7.239  10.618
84620W        W49605  19.591   0.013  13.538
84621W        W49606  38.054  15.319   0.307
84622W        W49607  26.192   8.945   4.858
84623W        W49608  30.559  20.040  13.486
84624W        W49609  43.770  33.076  11.270
84625W        W49610  38.113  12.197   2.397
84626W        W49611  30.186  40.972  12.465
84627W        W49612  12.385   0.292  14.509
84628W        W49613  38.379  14.462   2.294
84629W        W49614   7.410  16.382   4.324
84630W        W49615  17.254  32.459  13.070
84631W        W49616  32.440   3.798   4.418
84632W        W49617  37.135   6.146  13.903
84633W        W49618  12.698  24.781   2.294
84634W        W49619  43.821  38.100   3.606
84635W        W49620  25.928  28.939  13.022
84636W        W49621  20.342  34.449  14.510
84637W        W49622  19.362  28.498   0.480
84638W        W49623  13.809  16.126   2.225
84639W        W49624  10.171   7.845  11.207
84640W        W49625  22.473   9.215  13.509
84641W        W49626  10.083  29.636  12.092
84642W        W49627  34.671   0.309  14.785
84643W        W49628   5.983  13.686  13.876
84644W        W49629  28.272   5.190   3.186
84645W        W49630  30.714  12.810  14.483
84646W        W49631  44.171  33.088  13.593
84647W        W49632  24.085  33.494   2.703
84648W        W49633  31.970  28.665  10.796
84649W        W49634   5.960  37.789  11.963
84650W        W49635  20.832  33.522  12.140
84651W        W49636   5.014  39.463   4.602
84652W        W49637  18.056  20.938   3.133
84653W        W49638  21.277  39.480   1.145
84654W        W49639   9.856   0.848   2.700
84655W        W49640  35.814  19.789  14.264
84656W        W49641  41.842  24.585  11.613
84657W        W49642  11.527  36.035   3.633
84658W        W49643  20.617  25.428   0.519
84659W        W49644  44.209  22.619  12.545
84660W        W49645   5.937  38.616  13.587
84661W        W49646   7.718  39.197  11.436
84662W        W49647  10.295  40.940   0.639
84663W        W49648  20.567   6.681  12.442
84664W        W49649  43.298  36.098   0.828
84665W        W49650  15.899  27.016  14.875
84666W        W49651   4.966  29.979   1.453
84667W        W49652   3.246  15.119  12.997
84668W        W49653  34.581  25.096  12.831
84669W        W49654  12.226  21.878   4.531
84670W        W49655  25.924   5.908  10.782
84671W        W49656  44.310   9.391   0.947
84672W        W49657  27.020  28.971   3.213
84673W        W49658  41.452  34.438  14.779
84674W        W49659  34.699   2.155  14.859
84675W        W49660  35.296  16.939   2.325
84676W        W49661  14.277  16.244  13.975
84677W        W49662   6.317  23.855   0.350
84678W        W49663  38.295  35.864   2.593
84679W        W49664  15.646  26.249   4.611
84680W        W49665  36.378   5.851  14.151
84681W        W49666  28.937  13.327   3.355
84682W        W49667  41.335  16.143   1.359
84683W        W49668  35.002  29.379  12.124
84684W        W49669  28.456   5.739   0.792
84685W        W49670  20.804  44.108   0.711
84686W        W49671   1.921  22.773   2.874
84687W        W49672  23.551  30.221  13.304
84688W        W49673   9.936  37.428  12.454
84689W        W49674  33.124   4.880  13.479
84690W        W49675  43.363  40.734  13.012
84691W        W49676  30.957  26.149   0.869
84692W        W49677  24.603  22.109  10.719
84693W        W49678  37.145   5.867   4.098
84694W        W49679  36.908  17.628  12.548
84695W        W49680   1.954   2.446   2.903
84696W        W49681  42.942   2.814   2.995
84697W        W49682  23.029   6.322   1.952
84698W        W49683  11.895  24.624   2.125
84699W        W49684  12.274  22.955  12.501
84700W        W49685  35.579  24.111   4.086
84701W        W49686  19.508  19.304   3.547
84702W        W49687  42.772  32.732   0.208
84703W        W49688  10.713  42.235  10.648
84704W        W49689  20.607  43.675   4.118
84705W        W49690  28.237  24.560   3.408
84706W        W49691  20.218  38.361  14.664
84707W        W49692   0.537  28.717  11.577
84708W        W49693  14.684  14.727   3.133
84709W        W49694  35.556  27.558  12.494
84710W        W49695  11.708  20.966  14.912
84711W        W49696  15.496  34.524   3.693
84712W        W49697  43.464  40.968   2.502
84713W        W49698  18.287  28.378   2.151
84714W        W49699  32.132   5.293  13.464
84715W        W49700   8.478  31.999  12.815
84716W        W49701  36.686  32.638  12.151
84717W        W49702  27.868   3.742   4.295
84718W        W49703  42.780   5.754  11.562
84719W        W49704  26.484   0.055   2.111
84720W        W49705  30.127   1.830   0.478
84721W        W49706  20.653  40.489   3.810
84722W        W49707  23.664  33.353   0.355
84723W        W49708  12.576  17.547  14.464
84724W        W49709  18.350  16.989  14.671
84725W        W49710  33.051   3.261   4.880
84726W        W49711   4.786   1.195  14.095
84727W        W49712   9.315  20.742   2.565
84728W        W49713  15.380  11.862  11.056
84729W        W49714  40.478  25.853   2.063
84730W        W49715  28.614  43.077  11.416
84731W        W49716  18.887  43.390  10.865
84732W        W49717  24.952  26.500  13.374
84733W        W49718  14.225  12.708  11.647
84734W        W49719   0.838  13.944  13.799
84735W        W49720  16.848   6.720  14.277
84736W        W49721  41.104  18.835   3.111
84737W        W49722  36.617  14.710  13.543
84738W        W49723  29.572  41.109  10.749
84739W        W49724   8.691   1.373   0.682
84740W        W49725  29.517  20.548  10.662
84741W        W49726   9.153  11.179   2.485
84742W        W49727   9.825  26.278   1.302
84743W        W49728   4.891  36.931   1.049
84744W        W49729   2.194  42.474   0.823
84745W        W49730  42.553  40.008  12.536
84746W        W49731  21.586   9.972   3.162
84747W        W49732   4.326   3.063   0.356
84748W        W49733  23.937  33.407   3.611
84749W        W49734  36.543  21.789   0.414
84750W        W49735  32.108   7.753   2.840
84751W        W49736   5.726  28.077   0.232
84752W        W49737  31.599   2.311   1.659
84753W        W49738  10.936   4.264  12.488
84754W        W49739  43.943  38.632  10.823
84755W        W49740   8.684  21.018  10.665
84756W        W49741   4.883  11.124  11.143
84757W        W49742  21.973  38.396  10.382
84758W        W49743  28.157  20.739   4.896
84759W        W49744  35.542  29.231   2.675
84760W        W49745  37.644   7.213   2.183
84761W        W49746  37.762  33.921   3.357
84762W        W49747  38.744  35.953  14.984
84763W        W49748  30.998  13.760   4.648
84764W        W49749  16.519  27.911  12.835
84765W        W49750   3.418  24.657   1.822
84766W        W49751  20.230  14.247   3.132
84767W        W49752   8.892  20.349  13.228
84768W        W49753  12.369  20.564  13.269
84769W        W49754   6.180  14.291  13.406
84770W        W49755  38.564   4.228   2.201
84771W        W49756  40.016  35.096   2.500
84772W        W49757  28.566  30.227  13.027
84773W        W49758  22.126  38.999  11.564
84774W        W49759  28.229  37.090  12.963
84775W        W49760   6.276  30.511   4.357
84776W        W49761  37.016   9.692  13.987
84777W        W49762  11.795   2.290  13.058
84778W        W49763  44.602  20.655   4.786
84779W        W49764  29.996  34.888  10.732
84780W        W49765  36.366   7.460   2.712
84781W        W49766  37.396  11.675   1.472
84782W        W49767  21.733   4.624   1.352
84783W        W49768  31.994   7.931  12.028
84784W        W49769  28.655  26.594   2.565
84785W        W49770  38.117  21.341  11.277
84786W        W49771  18.787  35.492   3.428
84787W        W49772  37.481   8.923   4.182
84788W        W49773  18.801  32.337   4.113
84789W        W49774  30.912   5.739   4.073
84790W        W49775  36.092  33.620   1.851
84791W        W49776  21.469  20.129   3.736
84792W        W49777  11.681   7.355  12.283
84793W        W49778  10.328   3.440   0.742
84794W        W49779  39.756  10.264   4.287
84795W        W49780   5.223  26.868  14.748
84796W        W49781  20.402  43.871  14.206
84797W        W49782  19.679  31.052  11.192
84798W        W49783  38.478  19.512   1.298
84799W        W49784  31.966  37.325   2.733
84800W        W49785   9.649  24.250   0.005
84801W        W49786  34.396  36.340   4.407
84802W        W49787  21.142  38.458  12.035
84803W        W49788  28.569  15.344   3.671
84804W        W49789   0.967  42.752  11.652
84805W        W49790  23.526  10.198  14.931
84806W        W49791  15.054  39.388   1.681
84807W        W49792  33.533   5.696   3.347
84808W        W49793  25.426  25.143  11.913
84809W        W49794   5.592  30.884   1.110
84810W        W49795  34.980  12.662  14.949
84811W        W49796  40.993  22.501   1.361
84812W        W49797  29.432   0.234   4.052
84813W        W49798  43.005  41.087  10.693
84814W        W49799  33.383  37.360   4.440
84815W        W49800  23.700  23.154  11.064
84816W        W49801  34.415  35.344  11.819
84817W        W49802  13.778  15.171   2.373
84818W        W49803  23.614  42.294  14.972
84819W        W49804  21.660  36.273  11.298
84820W        W49805  44.762   4.824   1.967
84821W        W49806  35.491  33.435  14.861
84822W        W49807  12.704   1.036   2.279
84823W        W49808  16.252  36.293  11.957
84824W        W49809  22.129  40.424   3.343
84825W        W49810  42.904  19.592   1.010
84826W        W49811   3.658  13.736  13.412
84827W        W49812  27.060  20.453   2.467
84828W        W49813  33.835   2.771  11.616
84829W        W49814  39.315  16.709  11.165
84830W        W49815  16.328  16.930  13.539
84831W        W49816   9.274  38.302   3.206
84832W        W49817  22.701  23.906   4.236
84833W        W49818  14.509  33.235   5.248
84834W        W49819  39.009   8.651   1.806
84835W        W49820  15.744  34.969   3.657
84836W        W49821   5.777  21.537  10.618
84837W        W49822  21.886  11.073  13.785
84838W        W49823  39.365   2.193   0.683
84839W        W49824  16.093  33.412  12.402
84840W        W49825  39.810  31.404   2.073
84841W        W49826  27.210  27.714  14.039
84842W        W49827  44.805   1.088   1.315
84843W        W49828  41.384   8.388  13.380
84844W        W49829  40.877   6.050   1.818
84845W        W49830  30.182  44.948   3.360
84846W        W49831   9.644  23.111   2.152
84847W        W49832   7.128  25.307  12.050
84848W        W49833  28.819   4.776   0.773
84849W        W49834   8.320  43.718  12.987
84850W        W49835  18.147  18.514  10.650
84851W        W49836   7.742  20.504   3.712
84852W        W49837   0.338  36.977   2.320
84853W        W49838  30.009  23.650   1.977
84854W        W49839  37.606  31.579   1.900
84855W        W49840  25.694   5.798   5.536
84856W        W49841  34.147  26.643  12.093
84857W        W49842  38.770  36.076   2.706
84858W        W49843  44.876  24.518  10.599
84859W        W49844  22.971   6.463  12.594
84860W        W49845  30.233  24.511  11.221
84861W        W49846  28.147   7.958  12.562
84862W        W49847  35.942  20.018   0.466
84863W        W49848  43.403  41.070  12.619
84864W        W49849   7.180  25.302  14.853
84865W        W49850  29.694  31.174   4.150
84866W        W49851   9.962  18.167  14.383
84867W        W49852  10.093  37.939   4.064
84868W        W49853   3.350  42.006   0.409
84869W        W49854  36.424   1.882   4.350
84870W        W49855  13.843   7.162  10.856
84871W        W49856   5.817  43.548   3.839
84872W        W49857  21.671   5.290  12.344
84873W        W49858  10.728  26.274  14.455
84874W        W49859  37.801  30.431  12.722
84875W        W49860  28.098  42.745   5.040
84876W        W49861  19.024  15.216  13.010
84877W        W49862  27.970   5.206   0.581
84878W        W49863  29.993   0.576  12.516
84879W        W49864  21.517  28.213   3.608
84880W        W49865  28.132   2.494  14.327
84881W        W49866  17.071  15.473  13.858
84882W        W49867   6.283  31.502   4.758
84883W        W49868  30.515  24.870   4.407
84884W        W49869  23.154  23.405   4.629
84885W        W49870   4.444   4.791  12.502
84886W        W49871   6.277  14.116  10.691
84887W        W49872  27.593   4.209  13.909
84888W        W49873  22.109  25.151   3.256
84889W        W49874  24.625  16.166  12.651
84890W        W49875  20.693   8.374  13.792
84891W        W49876  44.868  12.106   4.267
84892W        W49877  37.041  31.488  11.203
84893W        W49878  16.643  22.178  11.577
84894W        W49879  25.094  25.218   4.181
84895W        W49880   8.254   5.458  11.917
84896W        W49881  19.517  40.682  10.799
84897W        W49882  11.857  35.541   0.920
84898W        W49883  28.407  11.733  14.118
84899W        W49884  39.439  13.174   0.521
84900W        W49885  25.977  10.734  14.624
84901W        W49886  22.344  25.104  10.257
84902W        W49887   9.120  40.752   1.298
84903W        W49888  25.324   7.294  11.997
84904W        W49889  10.067  15.400   3.774
84905W        W49890  33.537  43.563  10.681
84906W        W49891  25.782  42.941   1.624
84907W        W49892   4.975   1.848   3.844
84908W        W49893  30.558   0.462   0.448
84909W        W49894   8.129  12.746   4.001
84910W        W49895  33.645  26.487  11.993
84911W        W49896  12.595  25.270   2.186
84912W        W49897  10.611  38.523  12.440
84913W        W49898   7.957  36.579  13.471
84914W        W49899  42.483  12.806   2.121
84915W        W49900  10.730   4.801   5.031
84916W        W49901  18.578  33.668   4.705
84917W        W49902  28.482  29.991  11.557
84918W        W49903  10.815   6.337   2.920
84919W        W49904  18.796  11.844   0.819
84920W        W49905   0.885  26.593   1.279
84921W        W49906  30.425  26.614   1.343
84922W        W49907  39.918  28.428   1.614
84923W        W49908  33.094  33.169  12.526
84924W        W49909  37.545  19.788  14.123
84925W        W49910  11.658  38.137  13.341
84926W        W49911   2.289  16.491   0.293
84927W        W49912  13.683  32.439   3.847
84928W        W49913  17.085  11.877   1.526
84929W        W49914  44.257  24.905   1.829
84930W        W49915  29.946  35.201  12.372
84931W        W49916   5.590  34.954  11.850
84932W        W49917   1.815  39.564   3.250
84933W        W49918   8.850  20.997   0.192
84934W        W49919  33.469  28.674  11.746
84935W        W49920   4.771  20.342   0.755
84936W        W49921   5.804  41.647   2.240
84937W        W49922  44.506  21.740   3.654
84938W        W49923  13.742  17.390   0.426
84939W        W49924  15.115  25.170   3.700
84940W        W49925  41.783  10.721  10.970
84941W        W49926  32.855   0.504  12.284
84942W        W49927   5.167  42.521  14.948
84943W        W49928   2.383  43.248   1.631
84944W        W49929  40.391  27.957  14.516
84945W        W49930  30.158  43.559  12.592
84946W        W49931  19.212  13.394  12.477
84947W        W49932  20.948   0.996  13.050
84948W        W49933  15.541   6.424  11.943
84949W        W49934   5.225  23.569   1.385
84950W        W49935  12.806   8.942   3.163
84951W        W49936  22.713  17.272   4.744
84952W        W49937   9.390  30.417   3.089
84953W        W49938  12.501  10.219   4.555
84954W        W49939  35.294  43.115   2.211
84955W        W49940  22.932  17.792   3.599
84956W        W49941  43.384  25.649   1.249
84957W        W49942  36.550  15.625  12.512
84958W        W49943  41.463  23.998  12.274
84959W        W49944  41.818   3.986  12.470
84960W        W49945  27.273  10.715   0.233
84961W        W49946  11.741   7.388   4.250
84962W        W49947   3.396  15.517   3.535
84963W        W49948  29.457  19.468   1.223
84964W        W49949   9.303  38.682  10.711
84965W        W49950  43.954  44.212  12.790
84966W        W49951  29.358  23.211  13.646
84967W        W49952   6.294   1.059   0.734
84968W        W49953   3.176  11.895  13.468
84969W        W49954   5.288  29.477   1.668
84970W        W49955  19.893  36.631   4.921
84971W        W49956  16.296  15.633   1.394
84972W        W49957  20.761  32.651  13.063
84973W        W49958  44.563  40.798   1.580
84974W        W49959  27.454   6.443   0.197
84975W        W49960  25.019  14.079  13.525
84976W        W49961   2.324  42.835  12.281
84977W        W49962  14.816  16.193  13.990
84978W        W49963  39.677   3.892  11.981
84979W        W49964   2.884  23.794  10.848
84980W        W49965  13.358  31.539   1.215
84981W        W49966   6.525  19.009  13.186
84982W        W49967  12.299  33.551   3.293
84983W        W49968  28.887  20.230  12.995
84984W        W49969  16.536   6.415   3.142
84985W        W49970   8.707  36.560  10.995
84986W        W49971  43.006  33.151  13.910
84987W        W49972   9.747   5.130   3.537
84988W        W49973  19.576  36.061  12.901
84989W        W49974  24.959  10.355   3.712
84990W        W49975   3.418  18.684  10.665
84991W        W49976  32.458  13.641   4.973
84992W        W49977  20.966  25.487   3.699
84993W        W49978  28.594   9.554  14.828
84994W        W49979  19.229  25.679   0.716
84995W        W49980  36.087  40.509  14.352
84996W        W49981  31.039  14.315  11.124
84997W        W49982  16.803  44.994  14.299
84998W        W49983   3.531  16.410   4.041
84999W        W49984   7.621  38.549  12.554
85000W        W49985   2.732  35.006   2.612
85001W        W49986   4.089  43.179   4.547
85002W        W49987   9.711  24.852   4.567
85003W        W49988  42.998   4.404   3.404
85004W        W49989  37.219  27.095  11.772
85005W        W49990  32.355  34.320  11.522
85006W        W49991  23.000   6.309  14.624
85007W        W49992  12.127  36.775  12.058
85008W        W49993  12.629  21.234   3.641
85009W        W49994  13.145  35.324  10.266
85010W        W49995   1.925  16.169   2.642
85011W        W49996  21.462  38.893  12.039
85012W        W49997  32.563  32.978  11.499
85013W        W49998  37.176  15.844   0.863
85014W        W49999  27.342  35.035  10.525
85015W        W50000  32.159  22.775   1.807
85016W        W50001  44.855  12.730  11.458
85017W        W50002   7.183  18.803  11.955
85018W        W50003  15.751   5.611  14.472
85019W        W50004  40.819   2.507   1.116
85020W        W50005  39.537  41.805   4.805
85021W        W50006   4.673   7.835   3.448
85022W        W50007   9.774  18.298   0.767
85023W        W50008  37.788  34.277   9.480
85024W        W50009   2.903   1.023  13.906
85025W        W50010  21.695  34.942  10.092
85026W        W50011  40.306  43.525   3.329
85027W        W50012   2.406  36.063   1.761
85028W        W50013  27.168   0.027   2.690
85029W        W50014  11.538  18.311  12.479
85030W        W50015   2.310  20.992   3.260
85031W        W50016   1.744   6.496   1.365
85032W        W50017  33.035  13.792  12.942
85033W        W50018  21.717  20.819  11.633
85034W        W50019  12.929  35.049  11.733
85035W        W50020  31.939   2.646   4.545
85036W        W50021  25.537  32.167   2.159
85037W        W50022  13.052  20.010  14.777
85038W        W50023  41.871  36.308   0.980
85039W        W50024  35.923  11.669  11.349
85040W        W50025  29.362  31.577   1.888
85041W        W50026  40.499  36.711  11.658
85042W        W50027   1.325  24.544   1.173
85043W        W50028  33.701  16.161   2.761
85044W        W50029  13.114  26.707  13.910
85045W        W50030  36.470  24.885  11.619
85046W        W50031  29.964  21.209  14.180
85047W        W50032  30.444  37.112   0.572
85048W        W50033  37.550  42.992  12.946
85049W        W50034  41.177  31.740  10.558
85050W        W50035  37.834   4.325  11.086
85051W        W50036  12.665   6.793  10.355
85052W        W50037  26.089  28.436  13.076
85053W        W50038   0.809  23.463   0.822
85054W        W50039  43.444  39.537   4.537
85055W        W50040  37.953  16.363  14.455
85056W        W50041  22.464  13.794  10.733
85057W        W50042  23.222  36.599   1.764
85058W        W50043  33.822  14.131  13.043
85059W        W50044  29.137  15.904   1.500
85060W        W50045  18.183   0.591  11.893
85061W        W50046   9.105  11.602  12.479
85062W        W50047  38.116  38.356   1.336
85063W        W50048   0.792  20.707  12.809
85064W        W50049  38.547  33.875   1.142
85065W        W50050  36.387   9.681  12.321
85066W        W50051  31.988   1.442   0.738
85067W        W50052   5.720   1.916   4.907
85068W        W50053  13.687  28.258   1.690
85069W        W50054  21.014  41.300  12.995
85070W        W50055  32.920  28.687  11.081
85071W        W50056   9.275  24.661  11.382
85072W        W50057   3.030  19.043   1.649
85073W        W50058  25.576  42.304   3.617
85074W        W50059  39.518  26.341  10.443
85075W        W50060  14.880  24.504   1.818
85076W        W50061   9.704  17.627   4.106
85077W        W50062  29.195  12.079  13.855
85078W        W50063   2.926  20.679   1.301
85079W        W50064  11.389  26.482  11.228
85080W        W50065  10.830  18.200  14.225
85081W        W50066   6.904  16.797  14.223
85082W        W50067  15.555  14.831  13.890
85083W        W50068  30.036  17.114   4.595
85084W        W50069  32.433  17.069  14.839
85085W        W50070   0.334  41.877  12.448
85086W        W50071  23.510  30.940   1.368
85087W        W50072  20.944  10.833  11.981
85088W        W50073  15.767  22.727  14.845
85089W        W50074   2.826  28.935  10.605
85090W        W50075  20.489  18.065  13.396
85091W        W50076  15.265  13.175   1.848
85092W        W50077  38.357   4.971   0.747
85093W        W50078  33.201  23.966  11.662
85094W        W50079  30.428  21.650  10.644
85095W        W50080  38.691  11.170   0.296
85096W        W50081  25.065  31.715  12.210
85097W        W50082  43.925  31.673  11.083
85098W        W50083  37.488  20.472  10.593
85099W        W50084  37.313  27.461  10.163
85100W        W50085  16.254  36.428  10.969
85101W        W50086  40.516  22.751   0.491
85102W        W50087  20.761  31.055   4.227
85103W        W50088  28.035   5.767   3.196
85104W        W50089  39.023   5.921   3.337
85105W        W50090  37.970   1.301   2.645
85106W        W50091  37.899  38.426  12.861
85107W        W50092  40.872  12.575  12.647
85108W        W50093  23.969  16.672   4.444
85109W        W50094  25.141  37.514   0.710
85110W        W50095  34.614   0.218  13.840
85111W        W50096   7.694  10.669  14.909
85112W        W50097  32.103  38.064   1.413
85113W        W50098   7.708  28.557   2.282
85114W        W50099  43.375  35.738   2.958
85115W        W50100  37.933  16.079  13.436
85116W        W50101  20.027  34.567   3.095
85117W        W50102  18.110  10.826  14.989
85118W        W50103  29.232  37.888  13.783
85119W        W50104   1.720   7.862   1.246
85120W        W50105   1.903  16.880  11.124
85121W        W50106  24.298  37.896   4.016
85122W        W50107  39.261   0.853   2.349
85123W        W50108  16.848  16.147   3.396
85124W        W50109  14.149  32.148  10.709
85125W        W50110  41.415  18.924   2.662
85126W        W50111  23.210   6.338   4.118
85127W        W50112  19.520  18.751  14.554
85128W        W50113  11.301  33.662  13.892
85129W        W50114  32.769  24.111  10.779
85130W        W50115  27.992  13.148   2.717
85131W        W50116  29.283  26.639  12.462
85132W        W50117  36.399  33.477  14.270
85133W        W50118  26.113  21.953  14.776
85134W        W50119   6.689  43.506   4.188
85135W        W50120   6.766   8.681   3.127
85136W        W50121   4.736  25.484   3.907
85137W        W50122  19.485  44.195  13.809
85138W        W50123  11.636   3.978   4.207
85139W        W50124  25.088   7.144   0.436
85140W        W50125  38.698  18.618   1.672
85141W        W50126  35.271  37.379  13.802
85142W        W50127  23.792  18.205   2.795
85143W        W50128  38.732  35.840  11.435
85144W        W50129  40.013  39.379   0.258
85145W        W50130  22.974  21.057   2.642
85146W        W50131  38.914   5.385   3.284
85147W        W50132   3.953  38.326  14.327
85148W        W50133  32.093  27.640  12.045
85149W        W50134  37.473  23.977   2.629
85150W        W50135  13.204  40.629  11.699
85151W        W50136   8.639  38.724   2.325
85152W        W50137  44.923  25.695   1.862
85153W        W50138  18.648  32.563   2.806
85154W        W50139  20.526  23.295  10.728
85155W        W50140   5.320  27.427   1.451
85156W        W50141  29.860  31.361  12.057
85157W        W50142   4.893  36.856   2.983
85158W        W50143  17.638  25.376  11.225
85159W        W50144  30.534  27.659   2.834
85160W        W50145   9.886  23.518  12.072
85161W        W50146   3.553  22.604   4.093
85162W        W50147  14.967  16.130  11.604
85163W        W50148  10.642  30.524   3.864
85164W        W50149  30.055  25.353  12.455
85165W        W50150  42.269  27.256  13.506
85166W        W50151  34.675  38.875  10.672
85167W        W50152   7.274  35.869  12.436
85168W        W50153   8.217   5.797  12.478
85169W        W50154   2.128  41.314  12.047
85170W        W50155  18.484  32.961  14.869
85171W        W50156  44.745   5.476   2.811
85172W        W50157  20.522  44.849  12.513
85173W        W50158  21.376  12.946  14.570
85174W        W50159  19.460  37.885  12.687
85175W        W50160  21.110   7.671  13.091
85176W        W50161  16.098  13.942  13.984
85177W        W50162  13.636  16.369  11.921
85178W        W50163  35.582  44.570  11.792
85179W        W50164   6.198   1.370  14.858
85180W        W50165  26.631  16.461   0.962
85181W        W50166  16.582  24.022   2.215
85182W        W50167  26.724  44.243  12.499
85183W        W50168  23.940  38.822  11.599
85184W        W50169  33.317  37.604   3.623
85185W        W50170  23.614  13.529   4.253
85186W        W50171   5.392   4.701  14.653
85187W        W50172  14.818  22.272   0.355
85188W        W50173  35.894  35.335   4.549
85189W        W50174  10.628  37.680  14.107
85190W        W50175  43.300   1.233  12.041
85191W        W50176   0.076  20.230  13.055
85192W        W50177  33.584  33.683  14.035
85193W        W50178  42.834  35.303   0.921
85194W        W50179   7.083   5.370   1.248
85195W        W50180  24.689  43.968  11.572
85196W        W50181  41.113  26.561  14.206
85197W        W50182  37.624  25.533  13.963
85198W        W50183   6.827  22.040   3.607
85199W        W50184  24.682  17.605  13.520
85200W        W50185  37.551  30.924  11.191
85201W        W50186   0.110  13.712  12.652
85202W        W50187  44.054  19.356  12.955
85203W        W50188  43.393   0.039  14.995
85204W        W50189  14.494  34.393   3.788
85205W        W50190  26.172  16.246  13.837
85206W        W50191  24.115  14.864  12.544
85207W        W50192  10.141  34.383  11.714
85208W        W50193  38.904  23.805  11.633
85209W        W50194  36.551  14.735  12.613
85210W        W50195   2.116  27.887   3.285
85211W        W50196  35.363   1.257   4.528
85212W        W50197  13.314  34.877   2.574
85213W        W50198   9.728  27.519  10.694
85214W        W50199  30.472  10.811   2.424
85215W        W50200   2.708  11.663   0.393
85216W        W50201  29.824  27.917  12.856
85217W        W50202  31.355  23.227  10.615
85218W        W50203  22.229  11.622   4.542
85219W        W50204  21.554  20.559   0.754
85220W        W50205  31.202  28.221  14.823
85221W        W50206  12.695  44.984   3.234
85222W        W50207  25.662   1.798   2.716
85223W        W50208  41.707  27.942   4.503
85224W        W50209   5.772  40.147   2.164
85225W        W50210   8.356  17.589  13.528
85226W        W50211  12.527   3.608  11.720
85227W        W50212  15.876  11.246   1.388
85228W        W50213  13.229  11.387   3.907
85229W        W50214  26.142  30.412  14.618
85230W        W50215  43.665  20.955   5.203
85231W        W50216  28.255  34.065   3.569
85232W        W50217   7.389   2.910  10.998
85233W        W50218   4.301  27.203  14.099
85234W        W50219   7.288  11.624  11.162
85235W        W50220  34.334  28.020   1.808
85236W        W50221  28.456  10.680   4.265
85237W        W50222  31.226  37.418   1.334
85238W        W50223  12.495  20.619  11.487
85239W        W50224  17.822   2.751  11.682
85240W        W50225  34.601   4.178  12.874
85241W        W50226  26.953  24.710   2.289
85242W        W50227  19.050   8.372   4.304
85243W        W50228  32.956  39.763   2.829
85244W        W50229  24.005   8.178  14.849
85245W        W50230   1.371  39.244   0.285
85246W        W50231  34.378  11.643   1.807
85247W        W50232  22.937   9.218   1.599
85248W        W50233   6.944  10.486  11.355
85249W        W50234  32.634   8.812  12.602
85250W        W50235   4.449  41.842   2.463
85251W        W50236  38.343  19.546  10.338
85252W        W50237   5.707  16.363  11.865
85253W        W50238   7.397  33.021   2.625
85254W        W50239  35.277  24.548  12.552
85255W        W50240   3.873  21.403  10.645
85256W        W50241  22.344  42.301  13.511
85257W        W50242   3.183  21.950  14.341
85258W        W50243  30.451  28.854   0.908
85259W        W50244  21.764  17.687   2.281
85260W        W50245  16.525   1.885   3.248
85261W        W50246  17.378  13.038  11.023
85262W        W50247  30.084   2.452  12.218
85263W        W50248  35.953  33.823  10.739
85264W        W50249   2.750  32.971   4.737
85265W        W50250  10.278  11.614   3.150
85266W        W50251  23.555  18.668   4.513
85267W        W50252  29.458  25.120   4.576
85268W        W50253  43.346  33.819   3.138
85269W        W50254   8.841  33.562   3.686
85270W        W50255   2.911  34.388   3.084
85271W        W50256  30.649   7.839   1.617
85272W        W50257  18.166  31.950  14.502
85273W        W50258  26.257  13.477   0.435
85274W        W50259  24.616  19.935   1.460
85275W        W50260  43.031  44.177   1.258
85276W        W50261  18.320  33.382  11.109
85277W        W50262  41.294  23.599  12.571
85278W        W50263  42.518  42.817  10.152
85279W        W50264  35.312   4.655   3.641
85280W        W50265   7.397  18.041  14.338
85281W        W50266  15.419  17.368   0.262
85282W        W50267  24.742  39.028  13.003
85283W        W50268  27.690  42.011   3.646
85284W        W50269  17.037  38.667   1.260
85285W        W50270   8.351  15.119   2.878
85286W        W50271  36.440  28.386   1.837
85287W        W50272   4.413   1.753   0.556
85288W        W50273  24.497   2.711  12.277
85289W        W50274  10.695   3.850  12.702
85290W        W50275   9.203  40.256   1.345
85291W        W50276  10.196   3.936   4.372
85292W        W50277  22.230  10.570  11.643
85293W        W50278  24.133  28.061   3.322
85294W        W50279  26.632  26.728  12.986
85295W        W50280   8.935  34.463  12.746
85296W        W50281   1.442   2.503  10.579
85297W        W50282  42.683  22.779  13.114
85298W        W50283  24.019   8.764   0.287
85299W        W50284   6.934  21.591  12.539
85300W        W50285  23.585   8.206   2.364
85301W        W50286  23.229   6.017   0.597
85302W        W50287  14.187  30.151  14.898
85303W        W50288  38.035  23.233  14.703
85304W        W50289  28.559  13.166  12.400
85305W        W50290  44.822  11.579   1.955
85306W        W50291  38.118  25.707  13.964
85307W        W50292   1.632  40.909  14.877
85308W        W50293   2.507  27.509   1.257
85309W        W50294   7.429  25.599  13.540
85310W        W50295  41.564  16.670   2.252
85311W        W50296  25.450  43.336   4.653
85312W        W50297  39.141  43.879  11.564
85313W        W50298  20.496  24.840  12.374
85314W        W50299  41.956   8.925  13.919
85315W        W50300  16.896  41.287   2.621
85316W        W50301  28.035  31.573   0.752
85317W        W50302  25.920  11.238   1.878
85318W        W50303  24.994  35.865   4.949
85319W        W50304   1.898  32.380  12.759
85320W        W50305  13.172  17.716   1.464
85321W        W50306  12.058  29.153  14.397
85322W        W50307  37.426   8.105   3.777
85323W        W50308  18.308   0.510   2.315
85324W        W50309  21.052  37.997   2.889
85325W        W50310  13.848  31.726   1.378
85326W        W50311  37.560   4.953  11.632
85327W        W50312   4.143   9.124   3.742
85328W        W50313  13.169  28.696  13.868
85329W        W50314  11.386  25.999  13.800
85330W        W50315  35.412  41.859   1.873
85331W        W50316  39.466  39.325   3.663
85332W        W50317  11.086  13.522   1.825
85333W        W50318   9.736  28.926  13.832
85334W        W50319  34.305  37.741   0.861
85335W        W50320  22.902  12.684  14.526
85336W        W50321  19.078  32.442   4.806
85337W        W50322  43.032  30.166   2.798
85338W        W50323  38.584  30.976  11.122
85339W        W50324   3.892  30.499   4.978
85340W        W50325  10.169  16.221   2.893
85341W        W50326  11.190   8.693   9.983
85342W        W50327  25.131  12.850  12.990
85343W        W50328  39.353  30.418   3.380
85344W        W50329  16.630   1.509   0.931
85345W        W50330  31.865   7.900   4.179
85346W        W50331  36.850   9.197   1.331
85347W        W50332  28.178  14.523  12.491
85348W        W50333  43.577   7.672  10.696
85349W        W50334  23.286   2.007   4.210
85350W        W50335  29.282  28.966  14.401
85351W        W50336  19.215  16.351  11.598
85352W        W50337  41.200  19.353  11.636
85353W        W50338  38.081  25.565   1.281
85354W        W50339   7.825  27.328  12.872
85355W        W50340  14.790  30.142   3.116
85356W        W50341   6.052  37.572   9.673
85357W        W50342  43.300  28.565  10.676
85358W        W50343  19.287  35.879   4.612
85359W        W50344  42.427  42.447   4.173
85360W        W50345  23.233  40.833   2.117
85361W        W50346  38.690   2.068   4.959
85362W        W50347  17.175   2.359  12.846
85363W        W50348  22.296  44.751  13.007
85364W        W50349  32.147   0.903   3.533
85365W        W50350  15.126  15.911  11.145
85366W        W50351  34.111  30.075   1.600
85367W        W50352  17.188  42.190  13.030
85368W        W50353  22.184  17.441  14.020
85369W        W50354   8.829  42.826  14.924
85370W        W50355   9.385  23.409  14.677
85371W        W50356  11.317  24.573  10.813
85372W        W50357  16.472  24.077  11.871
85373W        W50358  41.549  13.290  11.669
85374W        W50359  36.431  34.523   2.417
85375W        W50360  18.599  40.753  11.544
85376W        W50361  13.069  22.144  13.383
85377W        W50362  21.191  20.531  14.828
85378W        W50363  32.590  18.640  13.953
85379W        W50364  14.380  44.262   4.561
85380W        W50365  13.731  38.486   2.267
85381W        W50366  29.005  29.981  12.142
85382W        W50367  38.586   2.988  12.502
85383W        W50368   7.281  35.583   3.217
85384W        W50369  32.709  13.436   0.468
85385W        W50370  36.570  13.037  14.763
85386W        W50371  12.558  22.607   1.404
85387W        W50372  32.045  24.943   3.784
85388W        W50373  16.397  42.772   0.409
85389W        W50374  32.637  14.374  11.382
85390W        W50375  27.556   6.915   1.869
85391W        W50376  37.687  34.525   5.069
85392W        W50377  27.018  39.259   4.814
85393W        W50378  37.942   9.132   4.168
85394W        W50379  14.851   1.813   2.783
85395W        W50380   4.987  43.291   1.420
85396W        W50381  12.630  26.218  11.129
85397W        W50382  13.479  26.408   4.095
85398W        W50383  29.698   9.730   2.841
85399W        W50384  29.192  29.551   4.635
85400W        W50385  31.591  27.456   4.399
85401W        W50386  15.344  39.489  14.405
85402W        W50387   5.170  12.076  13.945
85403W        W50388  29.154   0.745   2.892
85404W        W50389  19.861  20.536   2.090
85405W        W50390  25.213  27.688  12.479
85406W        W50391  28.429  29.095  12.881
85407W        W50392  29.028  31.069   2.986
85408W        W50393  21.073  23.957  14.806
85409W        W50394  29.438   3.757   1.855
85410W        W50395   2.449   1.390  11.553
85411W        W50396  41.077  19.095  10.973
85412W        W50397  42.596  14.805   4.274
85413W        W50398  15.649  35.482  11.478
85414W        W50399  13.568  13.375  14.855
85415W        W50400   8.671  21.675   4.161
85416W        W50401  34.075  23.213  13.869
85417W        W50402  30.959   2.381   2.819
85418W        W50403  32.891  11.657  11.505
85419W        W50404  15.622  33.885   0.508
85420W        W50405   3.407  38.380   4.350
85421W        W50406  43.919  38.574  14.349
85422W        W50407   6.699   6.632   0.053
85423W        W50408   3.227  22.506   3.315
85424W        W50409  42.208  19.647  12.608
85425W        W50410  21.266  11.190   2.909
85426W        W50411   5.703  10.652  11.239
85427W        W50412   6.114  21.428   2.198
85428W        W50413   3.945  28.398  12.925
85429W        W50414  21.368  39.120  13.027
85430W        W50415  18.573  33.252  13.857
85431W        W50416  29.975   6.407  13.315
85432W        W50417  33.334  31.461   3.242
85433W        W50418   5.158  35.759   4.637
85434W        W50419  11.896  31.446   3.720
85435W        W50420  18.042   1.258  11.110
85436W        W50421   4.427  44.752   1.224
85437W        W50422  12.304  36.996   0.311
85438W        W50423  39.847  43.769  14.691
85439W        W50424  28.159  16.114  14.849
85440W        W50425  11.431  40.996   1.414
85441W        W50426   9.608  35.706   0.472
85442W        W50427   9.742   9.211   4.224
85443W        W50428  22.108  42.741   1.311
85444W        W50429  28.850  18.761   0.759
85445W        W50430  41.435  43.307   0.507
85446W        W50431  31.674   2.507   0.694
85447W        W50432  36.431  23.252   2.350
85448W        W50433  29.222   2.460   3.649
85449W        W50434  23.770  29.908  12.379
85450W        W50435  21.116  40.027   0.457
85451W        W50436  14.347  28.827   1.267
85452W        W50437  34.579  11.163  13.736
85453W        W50438   3.848  33.100  12.395
85454W        W50439  10.147   4.856   0.495
85455W        W50440  23.586  21.796  14.610
85456W        W50441  42.293   9.602  12.474
85457W        W50442  19.284   3.861   0.059
85458W        W50443   8.926  44.480  12.019
85459W        W50444   7.375  36.566   4.725
85460W        W50445  24.723  18.583   0.393
85461W        W50446  40.527  21.239  10.943
85462W        W50447  25.494  43.267   0.493
85463W        W50448  17.999  36.365   4.218
85464W        W50449  20.120  19.096   4.050
85465W        W50450  41.045  21.197  14.996
85466W        W50451  27.184   3.015   2.719
85467W        W50452   7.701  36.197   4.510
85468W        W50453  35.378  22.000   2.709
85469W        W50454  36.789  13.652   2.727
85470W        W50455  27.953  16.340  11.525
85471W        W50456  23.195  38.150   1.074
85472W        W50457   5.155  22.813   2.173
85473W        W50458  12.637   6.034  13.740
85474W        W50459  17.853  36.558  13.073
85475W        W50460  15.655  28.117  12.681
85476W        W50461  25.127   3.243  11.626
85477W        W50462  40.421  13.525   3.481
85478W        W50463  18.582   7.662  11.070
85479W        W50464  26.612  22.094   1.736
85480W        W50465   0.774  17.321  14.460
85481W        W50466   4.509  14.188  11.736
85482W        W50467  20.971  30.654   2.283
85483W        W50468   9.919  30.603  13.765
85484W        W50469  25.695  44.876   1.291
85485W        W50470  11.675   2.034   2.249
85486W        W50471  37.994  35.375  14.832
85487W        W50472   7.843   0.008  13.135
85488W        W50473  32.933   2.746  13.884
85489W        W50474   1.921  44.433  14.846
85490W        W50475  10.121  31.654   3.356
85491W        W50476   6.656  15.390  12.969
85492W        W50477  23.526  41.539  14.065
85493W        W50478   0.223  37.532   4.241
85494W        W50479  12.422  14.465  11.201
85495W        W50480  25.144  17.701   2.276
85496W        W50481   6.817  28.848  11.485
85497W        W50482  17.301  38.991  11.751
85498W        W50483   0.699  27.476  12.982
85499W        W50484  19.845  33.589   4.319
85500W        W50485   2.624  25.610   2.356
85501W        W50486  24.042  31.093  14.456
85502W        W50487  16.248  30.527   4.984
85503W        W50488  33.402  42.382  13.965
85504W        W50489  43.944  10.053  14.121
85505W        W50490  35.397  13.560  14.379
85506W        W50491  17.296  29.567  14.226
85507W        W50492  39.266  18.678   2.416
85508W        W50493  33.304  38.833   1.268
85509W        W50494  38.623  10.195   2.791
85510W        W50495  40.014  18.738  12.116
85511W        W50496  42.663  11.087  11.101
85512W        W50497   9.189   5.633   1.405
85513W        W50498  17.651  11.430  13.801
85514W        W50499  26.638   0.724   4.115
85515W        W50500   0.220  40.770  14.746
85516W        W50501  11.464  23.971   0.356
85517W        W50502  40.911  27.628  14.904
85518W        W50503  41.046  22.068  12.884
85519W        W50504  23.945  39.544   3.725
85520W        W50505  29.548  22.511  13.800
85521W        W50506  44.705  10.884  14.809
85522W        W50507   9.424  21.985   1.831
85523W        W50508  18.818  26.056   1.812
85524W        W50509  20.190  43.415   4.630
85525W        W50510   6.192   7.147   1.324
85526W        W50511  41.209  20.426  14.862
85527W        W50512   5.011  13.259   3.300
85528W        W50513  17.312   0.033  13.022
85529W        W50514  12.079   7.366  14.938
85530W        W50515  35.934  12.425   2.295
85531W        W50516  31.651  16.207   4.947
85532W        W50517  35.360   2.750  13.619
85533W        W50518  35.416  42.516   4.699
85534W        W50519  24.198   8.994   1.630
85535W        W50520  43.361  29.453   1.161
85536W        W50521   8.939   8.513   1.709
85537W        W50522  24.627  11.785   0.771
85538W        W50523   2.222  13.225   1.249
85539W        W50524  20.319  38.480  11.652
85540W        W50525   2.632   8.981  13.513
85541W        W50526  34.158   5.321  14.179
85542W        W50527  23.015   5.265  14.311
85543W        W50528  21.098  30.612   0.383
85544W        W50529  26.530  26.610   1.966
85545W        W50530  43.294   1.309   3.591
85546W        W50531   7.459  44.100   4.919
85547W        W50532   8.511  24.231  11.059
85548W        W50533  34.310  26.383   0.018
85549W        W50534  29.927   6.268   2.057
85550W        W50535  39.139  44.967  12.002
85551W        W50536   6.193   6.362  11.840
85552W        W50537  19.911  25.724   2.788
85553W        W50538  11.994  13.100   0.887
85554W        W50539  37.544  34.394   2.881
85555W        W50540  44.442  14.215  13.934
85556W        W50541  42.335   0.976  12.091
85557W        W50542  43.068   5.376   3.720
85558W        W50543  37.427  35.603  11.513
85559W        W50544  10.331  28.356  14.408
85560W        W50545  36.642  26.646  14.890
85561W        W50546  39.614  26.769  14.442
85562W        W50547  40.970  21.151  14.479
85563W        W50548  21.072   6.215   1.251
85564W        W50549  20.748  44.703  14.755
85565W        W50550  36.067   1.989  12.457
85566W        W50551  34.278  35.916   1.061
85567W        W50552  12.248  33.391   4.741
85568W        W50553  30.866  37.090   1.856
85569W        W50554  19.570  14.696  12.702
85570W        W50555  14.210  34.577  12.946
85571W        W50556  12.756  34.195  12.207
85572W        W50557  21.472  22.991   1.666
85573W        W50558  23.966  39.218   4.163
85574W        W50559  43.407  19.594   0.762
85575W        W50560   4.673  42.219   3.838
85576W        W50561  43.520  36.311   0.369
85577W        W50562  29.835  20.482  11.096
85578W        W50563   1.040  42.546   4.581
85579W        W50564  32.907   4.885   1.243
85580W        W50565  13.558  10.225  12.919
85581W        W50566   4.739  11.828   5.062
85582W        W50567  35.210   5.826  10.949
85583W        W50568  39.792  27.141   1.149
85584W        W50569   5.691  16.126  10.923
85585W        W50570  16.791  42.797   0.878
85586W        W50571   9.422  40.382   0.883
85587W        W50572  19.853  44.650   5.051
85588W        W50573  27.683  17.430  10.897
85589W        W50574  29.075  17.444  11.038
85590W        W50575  43.371  24.967  12.530
85591W        W50576  31.551  22.105  12.402
85592W        W50577  40.076  37.150   1.990
85593W        W50578  16.122  23.716   0.534
85594W        W50579  25.820  28.919   4.543
85595W        W50580  32.689  35.075  10.618
85596W        W50581  23.474  36.929   2.538
85597W        W50582  42.214  24.979  11.607
85598W        W50583  27.094   1.760   1.276
85599W        W50584  31.619  13.321  13.871
85600W        W50585  17.526   9.138  10.673
85601W        W50586   4.535  23.624   2.852
85602W        W50587   6.885  39.826   1.417
85603W        W50588  37.033  32.258   1.446
85604W        W50589  10.796  44.845   2.863
85605W        W50590  19.041  38.355  14.932
85606W        W50591  37.002  26.667  11.609
85607W        W50592  38.053   0.730   3.891
85608W        W50593  37.405  38.577   3.789
85609W        W50594  30.881  34.703  10.245
85610W        W50595   4.846  41.762  14.846
85611W        W50596  26.373   3.851  12.816
85612W        W50597  40.716  12.602  11.677
85613W        W50598  44.473   5.310  14.881
85614W        W50599  22.046  36.141  12.325
85615W        W50600  12.377   6.666   1.960
85616W        W50601  35.759  19.313  10.723
85617W        W50602  40.378  44.063   1.009
85618W        W50603   3.205  37.086  14.352
85619W        W50604  31.393  37.292  12.092
85620W        W50605  18.618  43.482   3.731
85621W        W50606  10.066  42.378   0.514
85622W        W50607  12.570  22.143  13.304
85623W        W50608  28.666  37.505   1.805
85624W        W50609  32.494  42.537  12.484
85625W        W50610   4.712  44.036   0.887
85626W        W50611  42.482  18.263   5.352
85627W        W50612   4.976   0.041  11.057
85628W        W50613  23.292  19.732  11.980
85629W        W50614   7.290  39.250  12.590
85630W        W50615  23.954  26.310  11.996
85631W        W50616   6.954  31.226   0.843
85632W        W50617  41.308  10.702  14.044
85633W        W50618   7.286   7.204   4.177
85634W        W50619  19.147  14.789   1.229
85635W        W50620   5.244   4.153   4.936
85636W        W50621  30.138  22.030  14.627
85637W        W50622  33.993  17.060   2.410
85638W        W50623  43.941  16.025   1.479
85639W        W50624  12.220   1.895  10.700
85640W        W50625  23.027  10.986   3.152
85641W        W50626   7.950  19.091  14.704
85642W        W50627  21.638  29.111  14.071
85643W        W50628  22.321  42.337  11.592
85644W        W50629  38.343  34.663  10.974
85645W        W50630  40.539   2.196   3.758
85646W        W50631  36.412  26.674  13.406
85647W        W50632  29.651  34.115   0.780
85648W        W50633  40.905  37.016  14.128
85649W        W50634   2.317  32.521   2.200
85650W        W50635  43.897   0.586   1.283
85651W        W50636  44.356  20.599  13.580
85652W        W50637  35.075   8.996  14.348
85653W        W50638  30.627  40.203  10.587
85654W        W50639  13.961   8.063   0.808
85655W        W50640   0.712  13.175   2.397
85656W        W50641  39.878  34.305   4.998
85657W        W50642   5.652  26.790  13.501
85658W        W50643   0.805  27.808   3.326
85659W        W50644   8.752  43.412  10.683
85660W        W50645   9.141  27.061   2.891
85661W        W50646  11.376  23.997   1.244
85662W        W50647  26.852  23.491  11.151
85663W        W50648  32.428  41.695   3.746
85664W        W50649   5.710  22.559   2.842
85665W        W50650  36.430  39.833   3.342
85666W        W50651   0.020  10.212  14.707
85667W        W50652  19.627   4.371  10.918
85668W        W50653  40.379  39.360   2.372
85669W        W50654  31.343  39.541   3.194
85670W        W50655   4.242  16.406   1.978
85671W        W50656  25.956  41.467  13.301
85672W        W50657  34.515  29.511   1.671
85673W        W50658  32.106  33.092  13.334
85674W        W50659   8.794  11.468   4.730
85675W        W50660  20.574  12.782   3.019
85676W        W50661  35.077  34.313   4.682
85677W        W50662   3.416  34.474  10.613
85678W        W50663  25.632  29.911   3.653
85679W        W50664  38.298  25.709   1.783
85680W        W50665  28.995  41.949  13.711
85681W        W50666  13.824  12.333  11.590
85682W        W50667   4.225  12.151   0.373
85683W        W50668  22.645   6.198   2.918
85684W        W50669  26.528  31.580  14.760
85685W        W50670  33.660  25.667  11.049
85686W        W50671   1.964  38.094  13.402
85687W        W50672  30.049  16.200  10.624
85688W        W50673  31.275   8.789   0.448
85689W        W50674  10.874  22.360   1.917
85690W        W50675  44.787  12.744  13.971
85691W        W50676  38.110  27.527   0.504
85692W        W50677   1.522  25.108   0.539
85693W        W50678  42.893  43.775   4.737
85694W        W50679  39.536   6.291   4.035
85695W        W50680  11.290  23.507   0.229
85696W        W50681  37.007  14.296  12.327
85697W        W50682  43.948  43.400  10.931
85698W        W50683   4.779  11.047   2.568
85699W        W50684  28.532  30.474  11.741
85700W        W50685  44.586   7.281  14.196
85701W        W50686  18.127  30.713   4.534
85702W        W50687  18.811   4.744   2.617
85703W        W50688   3.708  41.902  13.969
85704W        W50689  29.615  35.563   3.359
85705W        W50690   2.335  32.191  12.585
85706W        W50691   8.109   3.735  11.557
85707W        W50692   2.267  17.364   4.184
85708W        W50693  42.884  25.217   2.751
85709W        W50694   2.299  10.200  11.399
85710W        W50695  11.335  33.048   0.781
85711W        W50696  19.741  14.361  13.374
85712W        W50697  30.301   8.879  14.430
85713W        W50698  35.967  40.025  12.063
85714W        W50699  31.484  44.031  12.496
85715W        W50700  26.698   4.219   4.672
85716W        W50701  37.377   2.049  10.645
85717W        W50702   5.033   5.342   4.504
85718W        W50703  39.278  21.595   0.251
85719W        W50704  20.501  30.914   3.374
85720W        W50705  34.570  43.181   4.484
85721W        W50706  15.828  15.578  13.474
85722W        W50707  37.431   7.667   4.748
85723W        W50708   9.573  33.939   3.111
85724W        W50709  18.707   7.865   3.195
85725W        W50710  14.277  26.246  14.909
85726W        W50711  38.974   2.497   1.959
85727W        W50712  43.239  34.951   2.388
85728W        W50713  20.092  14.649  13.568
85729W        W50714  15.590  17.511   0.752
85730W        W50715  11.104  34.678   4.753
85731W        W50716   0.566  42.868  12.557
85732W        W50717   0.829   9.366   4.632
85733W        W50718   4.671  13.739  13.603
85734W        W50719  41.888   9.762   0.975
85735W        W50720   3.885   3.987  12.442
85736W        W50721  39.591   7.190   4.240
85737W        W50722  28.856  31.557   2.142
85738W        W50723  33.809  13.206  13.972
85739W        W50724  39.499  10.903  14.964
85740W        W50725  17.721  30.216  14.872
85741W        W50726   8.908  28.084   2.386
85742W        W50727  42.447  13.702  11.092
85743W        W50728  43.752   2.897   4.619
85744W        W50729  10.211  13.701   3.046
85745W        W50730  11.716   1.536   2.386
85746W        W50731  35.861   5.290  13.943
85747W        W50732  23.156  22.452  12.078
85748W        W50733  38.982  39.871   1.123
85749W        W50734   7.605  21.710   2.638
85750W        W50735  27.784  40.748  10.649
85751W        W50736  16.792  42.509  11.397
85752W        W50737  14.040  16.767  13.954
85753W        W50738  13.759   5.073  13.433
85754W        W50739   6.229  20.464   3.124
85755W        W50740   6.128  19.327  13.339
85756W        W50741  15.025  24.045  11.596
85757W        W50742  34.617  17.136  13.928
85758W        W50743  23.308  14.489  11.967
85759W        W50744  28.271  18.491  12.937
85760W        W50745  30.739  21.686  12.825
85761W        W50746   4.969  27.484  13.639
85762W        W50747  28.086  29.556  14.358
85763W        W50748  17.508  22.702  12.372
85764W        W50749  36.075   4.731  11.128
85765W        W50750  11.105  40.357   2.422
85766W        W50751  42.378   5.128   1.456
85767W        W50752  23.108  19.496   2.655
85768W        W50753  23.745  39.422   3.225
85769W        W50754   2.559  38.366  11.064
85770W        W50755  40.032  32.986   0.504
85771W        W50756  12.727  35.907  14.725
85772W        W50757  42.309  15.769   0.364
85773W        W50758  13.047  22.634   4.588
85774W        W50759  27.983  38.845  14.281
85775W        W50760  19.702  34.156   0.976
85776W        W50761  17.748   7.143  13.019
85777W        W50762  43.254  42.882   5.139
85778W        W50763  17.622  39.251   2.725
85779W        W50764  42.693  21.954   3.721
85780W        W50765  44.413   6.225  14.892
85781W        W50766  10.294  25.157   0.998
85782W        W50767  36.348  39.374   4.256
85783W        W50768  26.188  15.024  12.481
85784W        W50769   5.435   6.370  14.920
85785W        W50770  20.638  34.126   3.435
85786W        W50771   6.912  15.200  11.507
85787W        W50772   5.945   0.831  12.535
85788W        W50773  44.356   9.851   0.725
85789W        W50774  36.790  38.399  11.556
85790W        W50775  22.591   4.904   2.412
85791W        W50776  42.869   4.920   1.407
85792W        W50777  12.630  38.653   3.908
85793W        W50778  16.042  33.074   3.012
85794W        W50779  13.078  29.488  14.912
85795W        W50780   4.193   6.370   0.593
85796W        W50781  27.614  41.066   2.840
85797W        W50782  16.577  37.263  11.886
85798W        W50783  27.379   5.378   2.281
85799W        W50784  42.865  23.237   3.217
85800W        W50785  27.017  14.292  14.909
85801W        W50786  11.109  37.026   3.658
85802W        W50787  31.212  33.431  12.951
85803W        W50788  30.711   6.668  14.868
85804W        W50789  10.087  43.532   2.843
85805W        W50790  13.131  38.250  12.500
85806W        W50791   1.380  25.469   4.754
85807W        W50792  34.385  36.163   3.138
85808W        W50793  41.304  20.789   3.136
85809W        W50794  26.710  34.059   0.522
85810W        W50795  15.270  43.803   3.594
85811W        W50796  17.199  10.787   2.079
85812W        W50797   9.257   3.897  13.902
85813W        W50798  40.773  33.867  12.732
85814W        W50799  19.734  26.213  10.591
85815W        W50800  17.778  33.418  11.073
85816W        W50801  36.325  36.211   2.691
85817W        W50802  39.984  29.060  14.609
85818W        W50803  12.195  30.641  10.913
85819W        W50804  19.314  23.749  10.739
85820W        W50805  12.415  11.733   3.639
85821W        W50806  14.821  37.970   0.852
85822W        W50807   0.848  44.136   2.670
85823W        W50808  11.823  13.416  10.552
85824W        W50809  24.997  13.523   4.114
85825W        W50810   4.344   6.110   4.678
85826W        W50811  35.464   6.158  13.327
85827W        W50812  24.309  41.224  10.773
85828W        W50813  14.289  13.891   4.575
85829W        W50814   5.298  41.603  12.826
85830W        W50815  30.489  39.351  11.129
85831W        W50816  36.527  29.646   3.623
85832W        W50817   2.990  44.450   0.574
85833W        W50818  29.506   8.321  14.326
85834W        W50819  43.856  21.167  14.051
85835W        W50820   3.831  25.110  10.957
85836W        W50821   5.850  29.404  11.458
85837W        W50822  25.648  22.009   1.648
85838W        W50823   5.796   0.608   0.177
85839W        W50824   0.049   7.653   3.365
85840W        W50825  20.267  26.149   3.701
85841W        W50826  32.151  15.417   0.291
85842W        W50827   3.299   9.328   2.088
85843W        W50828  43.712  11.112  14.390
85844W        W50829  11.742   2.053  10.527
85845W        W50830  16.473  21.223  12.909
85846W        W50831  39.614  32.387  12.476
85847W        W50832  43.781  26.555   0.288
85848W        W50833  14.740  40.028   2.044
85849W        W50834  11.145  21.042   4.615
85850W        W50835  31.440  16.110  11.004
85851W        W50836  44.777  10.180  11.558
85852W        W50837  17.501  40.984  13.545
85853W        W50838  41.351  27.488  12.633
85854W        W50839   7.674   0.712   3.804
85855W        W50840  31.132  16.360  10.673
85856W        W50841   1.788  13.544   1.253
85857W        W50842  21.022  42.820   0.873
85858W        W50843  44.317  39.951  14.497
85859W        W50844  18.570  18.019   0.146
85860W        W50845   3.686  10.142   2.389
85861W        W50846   7.828  27.477  11.638
85862W        W50847   3.467  30.880  12.421
85863W        W50848  30.334  38.751  11.802
85864W        W50849  42.514   6.145  11.742
85865W        W50850   9.091  21.685  11.891
85866W        W50851   1.939   6.617   0.559
85867W        W50852  20.568  11.111  10.747
85868W        W50853   2.445  35.931   4.164
85869W        W50854   7.426  14.075   4.547
85870W        W50855  22.191  13.762   2.725
85871W        W50856  21.999  20.294  13.027
85872W        W50857  21.448  37.375  11.970
85873W        W50858   3.893  29.733  12.436
85874W        W50859  25.942   8.666   1.857
85875W        W50860  33.471  28.854  12.411
85876W        W50861   6.402  26.642   1.793
85877W        W50862  10.545  16.754   0.962
85878W        W50863  19.194  24.982   0.994
85879W        W50864  28.934  14.666   2.126
85880W        W50865  33.838  28.941   4.827
85881W        W50866   0.689   0.289   3.506
85882W        W50867  11.250  30.724  12.043
85883W        W50868   2.205  29.058   0.578
85884W        W50869   3.458   6.830  11.486
85885W        W50870   6.881  10.968  14.996
85886W        W50871  12.375  34.956   1.730
85887W        W50872   5.200  37.609   1.864
85888W        W50873   9.270   7.953  11.657
85889W        W50874  24.994  41.714   4.151
85890W        W50875  38.905  23.528   2.252
85891W        W50876  34.153  21.337   0.323
85892W        W50877  43.371  19.674  14.807
85893W        W50878   0.108  20.164  11.189
85894W        W50879  20.048   0.288   0.878
85895W        W50880  23.445  25.565   1.722
85896W        W50881   3.625  26.330   5.119
85897W        W50882  19.227  44.443   0.787
85898W        W50883  37.416  29.482  14.753
85899W        W50884  41.326  40.953  11.622
85900W        W50885   8.920   2.366  10.731
85901W        W50886  24.132  30.678   9.674
85902W        W50887  12.437   3.930  12.821
85903W        W50888   2.176   8.379   2.103
85904W        W50889   1.253  35.550  10.969
85905W        W50890  15.300  13.330  13.785
85906W        W50891  28.519  24.063   2.120
85907W        W50892  23.947  35.133  12.326
85908W        W50893  36.330   2.431  13.161
85909W        W50894  22.800  22.182   3.623
85910W        W50895  10.214  37.907   0.820
85911W        W50896  25.396  33.359   2.144
85912W        W50897   8.280  23.146  10.512
85913W        W50898  41.054  14.876   2.530
85914W        W50899  44.925  35.066  13.002
85915W        W50900  39.767   6.066   2.456
85916W        W50901  17.636  11.068  13.446
85917W        W50902  41.733  38.916  12.057
85918W        W50903  27.296  28.950  13.455
85919W        W50904  38.522  22.743   2.329
85920W        W50905  25.949   5.485  14.768
85921W        W50906  16.428  39.514   4.886
85922W        W50907  35.103   5.305  13.366
85923W        W50908  12.328  18.668   1.377
85924W        W50909  31.000  14.713  11.564
85925W        W50910  24.232  21.734   4.260
85926W        W50911  44.515  41.349   2.858
85927W        W50912  41.500   2.301   3.720
85928W        W50913  22.968   3.689  11.458
85929W        W50914  36.496  33.299   0.221
85930W        W50915   9.825  41.053   4.341
85931W        W50916  18.798  16.767  11.507
85932W        W50917  28.263  34.479   4.593
85933W        W50918  37.834   3.255   2.577
85934W        W50919   1.798  18.163   0.841
85935W        W50920  37.838  35.271   4.763
85936W        W50921  23.207  13.617  11.578
85937W        W50922   9.254  37.102  11.533
85938W        W50923  29.352   8.632   2.657
85939W        W50924  43.035  34.610  13.926
85940W        W50925  33.472  26.941  14.504
85941W        W50926  14.843  42.432  11.116
85942W        W50927   8.863  28.907  14.832
85943W        W50928  10.722  20.264  14.369
85944W        W50929  27.092  31.078  12.098
85945W        W50930  15.766  36.011   3.248
85946W        W50931  33.237  16.685   1.753
85947W        W50932  14.235  18.173  14.797
85948W        W50933  26.127  27.036   3.167
85949W        W50934  32.422  14.836   1.363
85950W        W50935  30.112  24.863  14.096
85951W        W50936  42.433  41.074   1.692
85952W        W50937  43.434  15.731  12.904
85953W        W50938  16.022  41.887   2.852
85954W        W50939  12.227  32.607   0.488
85955W        W50940   0.807   2.138   3.680
85956W        W50941  29.995  22.044  12.767
85957W        W50942   2.768   8.375  12.565
85958W        W50943   9.279   7.291  13.197
85959W        W50944   4.048  39.058   3.129
85960W        W50945  41.774  26.402  13.035
85961W        W50946   5.502   8.288   1.095
85962W        W50947  20.946  15.797   3.633
85963W        W50948  13.651   1.847  10.823
85964W        W50949  11.287  12.095  13.306
85965W        W50950   4.043  22.077   4.860
85966W        W50951  43.026  44.012  12.107
85967W        W50952  14.311  40.769   0.082
85968W        W50953  31.234  37.968  14.863
85969W        W50954  22.295  28.674  12.929
85970W        W50955  10.338  10.436   5.019
85971W        W50956  38.597  40.415  10.656
85972W        W50957  33.059  24.341   1.682
85973W        W50958  10.325  11.467  12.161
85974W        W50959  42.487  31.168   1.335
85975W        W50960  26.893  38.423  11.069
85976W        W50961  29.627  36.897  12.842
85977W        W50962  12.872  32.629  13.380
85978W        W50963  17.088  15.146   0.578
85979W        W50964  18.993   1.872   1.877
85980W        W50965  23.605  25.954  10.669
85981W        W50966  16.922   0.269   2.349
85982W        W50967  32.189   0.347   0.219
85983W        W50968   1.731  25.882   2.247
85984W        W50969  18.253  35.589   1.838
85985W        W50970  25.959  43.188   0.327
85986W        W50971   3.465  15.209   3.103
85987W        W50972  33.516  15.922  10.377
85988W        W50973  21.753  13.308   4.192
85989W        W50974  26.736   0.939   3.625
85990W        W50975  30.468  14.400   2.048
85991W        W50976  36.866  30.562   3.677
85992W        W50977  18.488  27.517  14.447
85993W        W50978  20.066  17.147   5.185
85994W        W50979  16.171   7.370   4.524
85995W        W50980   0.970  34.780   0.467
85996W        W50981  34.374  38.293  11.514
85997W        W50982  27.720  10.644  14.083
85998W        W50983  43.943  31.507  11.574
85999W        W50984  32.474  36.843   2.524
86000W        W50985  42.290  17.991  13.046
86001W        W50986  32.049   0.890   1.571
86002W        W50987  22.830  33.698   1.921
86003W        W50988  10.712  10.243   4.617
86004W        W50989  26.144  25.825   0.900
86005W        W50990  40.056   2.820   0.743
86006W        W50991  28.505  18.495  13.975
86007W        W50992  32.423  15.634  10.756
86008W        W50993  17.168  22.722  14.756
86009W        W50994  15.249  22.197   1.958
86010W        W50995   2.952   4.296   3.617
86011W        W50996  33.463  43.514  14.479
86012W        W50997  40.457   8.411   4.127
86013W        W50998   1.229  33.470  10.777
86014W        W50999  11.933  42.347   3.085
86015W        W51000  27.823   4.052  11.597
86016W        W51001   4.266   3.237   3.893
86017W        W51002   6.411  34.847  14.509
86018W        W51003  29.580  10.639   2.227
86019W        W51004  21.529  37.814   0.735
86020W        W51005  37.068   6.280  14.729
86021W        W51006  17.778  38.927  11.043
86022W        W51007  17.049  39.084  13.521
86023W        W51008  34.630  28.644  14.335
86024W        W51009  40.240  11.356  10.971
86025W        W51010  18.827  33.585   4.245
86026W        W51011   2.392   6.442  13.349
86027W        W51012  38.348  33.050   1.941
86028W        W51013  31.875  25.735   3.353
86029W        W51014  35.556  38.001   3.622
86030W        W51015  22.650  17.432  10.318
86031W        W51016  12.087  38.448  12.586
86032W        W51017   0.978  36.586   3.656
86033W        W51018  36.522   6.778  11.557
86034W        W51019  10.842  23.077  13.956
86035W        W51020  42.412   1.994   4.155
86036W        W51021  26.222  36.806  12.962
86037W        W51022  21.197  33.018   0.882
86038W        W51023  41.950  23.892  12.169
86039W        W51024  33.438  15.207  11.133
86040W        W51025   4.718  24.888  10.629
86041W        W51026   8.310  16.078  11.429
86042W        W51027  27.891  10.766  10.310
86043W        W51028  38.623  44.252   4.513
86044W        W51029  14.848  27.491  12.210
86045W        W51030  12.831  27.263  13.872
86046W        W51031  32.593  28.674  13.816
86047W        W51032  12.890  14.080  10.493
86048W        W51033   1.320  28.751   0.144
86049W        W51034  33.878  26.055   1.366
86050W        W51035  12.214  26.635   4.665
86051W        W51036  18.398  35.824   3.059
86052W        W51037  15.046   7.848  11.501
86053W        W51038   9.117   2.446   1.321
86054W        W51039  18.534  20.482   4.973
86055W        W51040  39.817  29.414   3.826
86056W        W51041   5.922  27.693  13.441
86057W        W51042  12.115  14.208   1.221
86058W        W51043  34.945   4.791   2.546
86059W        W51044  19.214  36.017  10.768
86060W        W51045  39.422  39.045   4.351
86061W        W51046  23.131  43.065   1.724
86062W        W51047  44.214  44.397  11.112
86063W        W51048   5.855  27.234   4.741
86064W        W51049  36.483  23.005   3.827
86065W        W51050  10.424  11.673  14.757
86066W        W51051  18.382  30.482  12.780
86067W        W51052  43.344  28.463  12.500
86068W        W51053  13.763  12.213   0.271
86069W        W51054  30.587  41.716  13.792
86070W        W51055  41.022  29.084  14.454
86071W        W51056  33.861   1.829  11.974
86072W        W51057  13.356   5.251  13.675
86073W        W51058  26.983  33.614  12.458
86074W        W51059  40.997  34.353   2.837
86075W        W51060   3.449   0.183  14.249
86076W        W51061  36.454  23.701  13.885
86077W        W51062  29.636  22.631  12.429
86078W        W51063  12.769  27.955  10.344
86079W        W51064  19.808  30.325   3.300
86080W        W51065  16.277  11.683  14.817
86081W        W51066  33.047   7.482   3.593
86082W        W51067  14.256  20.238   0.814
86083W        W51068   9.530  31.991   1.174
86084W        W51069  27.594  27.633   1.054
86085W        W51070  42.820  12.553   2.725
86086W        W51071  33.101  39.765   0.846
86087W        W51072   6.243  40.593  11.604
86088W        W51073   0.608  21.788   1.368
86089W        W51074  40.280  33.519  14.834
86090W        W51075   5.679  29.010  13.006
86091W        W51076  33.107  39.007   2.254
86092W        W51077  33.559  12.578   4.640
86093W        W51078   8.273  22.614  11.096
86094W        W51079  25.748  28.537  10.115
86095W        W51080   7.288  33.985   2.633
86096W        W51081  14.878  27.104   2.766
86097W        W51082  37.832  16.189   0.390
86098W        W51083  16.908   6.683  11.583
86099W        W51084  31.403  30.170  10.870
86100W        W51085   3.278  32.034   4.636
86101W        W51086  20.379   2.626  14.961
86102W        W51087   5.450   8.919   2.660
86103W        W51088   0.734   5.187   3.717
86104W        W51089   6.284   1.035  13.469
86105W        W51090   5.762  17.595  11.103
86106W        W51091   4.744   2.629   3.835
86107W        W51092  16.662  35.583   2.609
86108W        W51093  15.756  10.074  11.591
86109W        W51094  17.550  36.970  10.571
86110W        W51095  35.802  37.644   2.586
86111W        W51096  33.585  25.470   0.239
86112W        W51097  18.345  34.016   1.817
86113W        W51098  17.601  28.544   1.790
86114W        W51099  20.045   3.562   2.700
86115W        W51100  18.770  29.182  13.279
86116W        W51101  21.517  43.793  12.198
86117W        W51102  11.679  31.918   0.322
86118W        W51103  36.926  26.386   4.715
86119W        W51104  38.362  42.966  10.787
86120W        W51105  15.741   3.253  14.393
86121W        W51106   7.793  43.533  10.417
86122W        W51107  29.634  20.201   3.798
86123W        W51108  28.157  27.634  14.528
86124W        W51109  30.643  37.318   4.767
86125W        W51110  30.428  42.829   2.697
86126W        W51111  40.772  26.198   9.948
86127W        W51112   4.032  20.351   1.865
86128W        W51113  39.466  22.495   4.916
86129W        W51114  20.224  14.758  14.036
86130W        W51115  21.070   5.274  10.493
86131W        W51116  31.454   0.436   1.706
86132W        W51117   9.225  17.049   4.589
86133W        W51118   8.222   4.758   2.683
86134W        W51119  19.956  19.105  14.405
86135W        W51120  30.197  27.553  12.894
86136W        W51121  40.477   9.771   3.557
86137W        W51122  10.398  22.658  14.894
86138W        W51123   1.058  36.605  10.072
86139W        W51124  25.457  34.918   2.912
86140W        W51125  22.246  41.502  12.169
86141W        W51126  10.664  24.452  12.408
86142W        W51127  11.081   8.795  11.973
86143W        W51128  39.343  20.262  13.133
86144W        W51129   2.736  37.877  12.734
86145W        W51130  31.483  30.841  11.952
86146W        W51131   1.663   4.325   2.415
86147W        W51132   4.333  36.752  11.893
86148W        W51133  16.318  42.284   4.278
86149W        W51134   0.838  28.460  11.969
86150W        W51135  14.954  40.573   4.885
86151W        W51136  19.369  17.685  13.368
86152W        W51137   1.357  41.285   1.273
86153W        W51138  13.463   2.866   4.050
86154W        W51139  28.965  18.567   2.177
86155W        W51140  11.337  28.308  10.107
86156W        W51141  43.546  35.399  14.488
86157W        W51142  40.755  24.502  10.365
86158W        W51143  30.028  42.454  14.310
86159W        W51144  20.737  34.553   4.235
86160W        W51145  32.241   8.563   1.285
86161W        W51146   8.260  42.433  13.381
86162W        W51147  24.466  28.503  11.813
86163W        W51148  35.730  31.841  10.729
86164W        W51149  16.279  26.169   4.110
86165W        W51150  40.554  14.075  10.224
86166W        W51151  12.279  28.583   3.151
86167W        W51152   3.670   3.207  11.940
86168W        W51153  41.574  26.700  14.415
86169W        W51154  44.089  10.275  14.578
86170W        W51155  31.652  29.745  10.717
86171W        W51156   2.694  42.354   0.860
86172W        W51157   3.644  20.046   1.512
86173W        W51158  30.944  43.279  11.620
86174W        W51159  25.088  22.440  14.079
86175W        W51160  14.236   5.039   4.556
86176W        W51161  22.626  32.154  13.483
86177W        W51162  26.701  14.100  11.144
86178W        W51163  25.984   8.321  11.595
86179W        W51164  18.870  21.002  13.517
86180W        W51165  19.294  36.303   3.371
86181W        W51166  36.429  19.133   3.593
86182W        W51167   1.311  20.129   2.966
86183W        W51168  14.351  22.221   1.788
86184W        W51169  43.958  41.369   0.379
86185W        W51170  38.751  22.807  12.881
86186W        W51171  15.137  33.762   0.314
86187W        W51172  18.035  16.166   0.964
86188W        W51173  33.957  17.742  11.115
86189W        W51174   9.292  25.710  13.994
86190W        W51175  40.076  43.759  10.562
86191W        W51176  17.795   3.688   3.138
86192W        W51177  29.663   1.369  14.470
86193W        W51178  21.364  14.286  14.290
86194W        W51179   4.387  14.663   4.685
86195W        W51180  39.810  28.739  13.875
86196W        W51181   6.718  31.374  10.761
86197W        W51182  41.750  29.651  10.800
86198W        W51183   3.600   0.988  11.024
86199W        W51184  42.301  14.758  10.222
86200W        W51185  17.599   7.448   1.062
86201W        W51186   8.743  30.919  11.424
86202W        W51187   6.326  14.158   1.445
86203W        W51188  30.564   6.607  12.573
86204W        W51189  21.076  11.320  10.754
86205W        W51190  18.119  30.650  14.268
86206W        W51191  37.743  39.385  13.140
86207W        W51192   4.493  43.695   2.180
86208W        W51193  19.105  43.385   2.078
86209W        W51194  20.723  33.163   4.439
86210W        W51195   9.195  37.135   4.130
86211W        W51196   5.358  32.187   5.094
86212W        W51197  25.513  34.139   4.835
86213W        W51198  13.593  16.972  14.497
86214W        W51199   3.235  36.164   1.053
86215W        W51200  41.014   7.200   1.229
86216W        W51201  42.495  23.627   0.204
86217W        W51202  29.146  21.745   2.830
86218W        W51203  36.824   1.824  12.912
86219W        W51204  29.039  44.028   3.681
86220W        W51205   6.942  33.973  14.826
86221W        W51206  40.229  30.829   1.369
86222W        W51207  33.561  25.048  12.593
86223W        W51208  15.153  37.810  11.060
86224W        W51209  11.845  34.537  10.732
86225W        W51210  31.044  26.546  11.180
86226W        W51211  22.977   7.863   0.443
86227W        W51212  19.824  11.844   4.445
86228W        W51213   9.195  35.640  13.478
86229W        W51214  17.207  41.695   1.772
86230W        W51215  22.213   7.149   0.819
86231W        W51216  43.600  32.920  12.573
86232W        W51217   7.490  21.614   2.146
86233W        W51218  10.140  15.602   1.810
86234W        W51219   7.281  17.049  13.324
86235W        W51220  30.476  26.170  13.500
86236W        W51221  42.920   0.429   3.842
86237W        W51222  43.006   1.661  12.069
86238W        W51223  17.715  12.233  10.717
86239W        W51224  39.223  34.592  11.101
86240W        W51225  34.801   0.965   1.017
86241W        W51226   1.376  26.555  14.986
86242W        W51227  20.822  34.743  11.098
86243W        W51228  10.590   2.470  13.949
86244W        W51229  18.297   3.619   4.054
86245W        W51230  44.865  43.868   2.619
86246W        W51231  32.076   0.840   0.075
86247W        W51232  32.018  26.464   0.478
86248W        W51233  17.142  43.915  10.478
86249W        W51234  13.652   2.786   2.929
86250W        W51235  40.331  16.899  12.576
86251W        W51236   1.757  38.020   0.993
86252W        W51237  44.912  33.834  10.525
86253W        W51238  34.040  33.584   4.048
86254W        W51239   0.756  11.813   4.325
86255W        W51240   9.903  27.491   0.261
86256W        W51241  33.413  34.574   4.467
86257W        W51242   4.942  41.139   2.197
86258W        W51243  12.223  26.642  12.896
86259W        W51244  15.698  29.667   1.365
86260W        W51245  18.541  39.020   0.992
86261W        W51246  11.868  25.651   3.512
86262W        W51247  33.985  32.893  14.059
86263W        W51248  12.880   9.442   3.216
86264W        W51249  18.391  36.333   3.003
86265W        W51250  23.274  20.048   0.747
86266W        W51251  38.513  36.078  12.202
86267W        W51252  22.032   3.810  11.828
86268W        W51253  12.665   2.194  13.576
86269W        W51254  29.704  34.133   1.317
86270W        W51255  15.738   4.842  11.531
86271W        W51256  10.356  27.695  13.416
86272W        W51257  12.575   5.666   0.953
86273W        W51258  37.531  16.839  13.574
86274W        W51259  12.217  36.430   4.731
86275W        W51260   9.555  25.921   4.562
86276W        W51261  30.403  11.325  10.051
86277W        W51262  43.964  26.826   4.307
86278W        W51263  13.802  43.436   2.247
86279W        W51264   5.157   1.598  14.769
86280W        W51265  20.792  33.835  13.854
86281W        W51266  32.502  44.028  14.471
86282W        W51267  25.597   7.861  10.505
86283W        W51268  15.114   0.704   2.343
86284W        W51269  15.070   6.476   4.734
86285W        W51270  11.696  42.445   0.268
86286W        W51271   0.215   8.430   3.200
86287W        W51272  39.863   5.805  13.823
86288W        W51273  30.553  10.273   5.040
86289W        W51274  21.045   0.466  11.060
86290W        W51275   4.016  32.174   4.131
86291W        W51276  39.802  37.919   2.483
86292W        W51277  17.506  10.518  10.531
86293W        W51278  11.204  44.947  13.879
86294W        W51279  34.837  31.400   0.832
86295W        W51280  33.020  10.853  13.305
86296W        W51281   2.952  16.528  12.822
86297W        W51282  16.079  30.539   0.212
86298W        W51283   3.827   4.469  12.621
86299W        W51284  43.950  29.196  13.274
86300W        W51285  15.074  12.102  11.953
86301W        W51286  15.223  44.562  14.756
86302W        W51287  39.495  31.469   4.892
86303W        W51288  42.361  42.030   1.862
86304W        W51289   3.417  13.390   4.245
86305W        W51290  10.325  24.755   0.223
86306W        W51291  30.854   9.074   3.481
86307W        W51292  10.430  32.197  13.582
86308W        W51293   5.897  37.876  11.141
86309W        W51294  31.064  20.581  11.413
86310W        W51295  36.861  33.902  11.806
86311W        W51296  10.101  34.127  12.167
86312W        W51297   4.128  12.775   1.935
86313W        W51298  27.674  13.905   1.615
86314W        W51299  11.238   8.844  13.082
86315W        W51300  16.121   0.229  13.929
86316W        W51301  21.681  27.999   4.504
86317W        W51302  18.666  28.508   1.795
86318W        W51303   1.665  21.971  12.160
86319W        W51304  42.507  13.345   3.618
86320W        W51305  16.751  11.630  11.494
86321W        W51306  34.466  42.997   1.019
86322W        W51307  18.111   3.182  12.903
86323W        W51308  27.610  36.498   1.701
86324W        W51309  37.405  41.925   0.478
86325W        W51310   4.966  42.337  11.524
86326W        W51311  41.557  15.871   1.840
86327W        W51312  26.349  25.253  12.309
86328W        W51313  12.030  27.078   4.429
86329W        W51314   1.902  30.975  14.331
86330W        W51315  41.567  14.190  14.625
86331W        W51316  15.999  10.280   4.967
86332W        W51317  31.121  44.573  10.429
86333W        W51318  35.304  36.933   1.843
86334W        W51319  14.441  10.424   3.749
86335W        W51320   9.046  31.662  14.879
86336W        W51321  22.945  33.428  12.019
86337W        W51322   7.931  14.465  13.119
86338W        W51323  23.269  27.532   2.640
86339W        W51324  13.547   5.349   0.619
86340W        W51325  20.698   1.842   2.764
86341W        W51326   9.866  36.217  11.005
86342W        W51327  29.019  44.944   1.681
86343W        W51328   2.158   3.771  14.950
86344W        W51329  31.526  12.639  11.998
86345W        W51330  26.196  12.585  11.554
86346W        W51331   2.655  33.859  12.428
86347W        W51332  10.122   2.855  14.571
86348W        W51333  35.469   8.595  12.469
86349W        W51334  38.998  42.103   1.688
86350W        W51335  31.106  22.327  14.332
86351W        W51336  26.224   2.953   4.534
86352W        W51337  35.089  22.038  14.277
86353W        W51338  36.050   6.315  12.148
86354W        W51339   7.310  29.046   2.918
86355W        W51340  32.958   8.112  12.998
86356W        W51341   2.159  12.684   2.341
86357W        W51342  22.251  15.172   4.622
86358W        W51343   2.563   9.766   4.707
86359W        W51344  29.153  43.040   4.121
86360W        W51345  44.781   2.138   2.909
86361W        W51346  31.272  32.640   2.280
86362W        W51347  20.544  21.060   4.198
86363W        W51348  30.065  22.038   0.555
86364W        W51349  19.977  41.454  11.711
86365W        W51350   7.486  40.574   3.106
86366W        W51351  38.977  37.610  11.650
86367W        W51352  20.558  44.858  11.259
86368W        W51353  18.977   3.269  14.538
86369W        W51354  24.979  31.226  13.506
86370W        W51355  12.895  39.017   3.095
86371W        W51356  11.021  16.338  10.720
86372W        W51357   8.259   1.693   3.529
86373W        W51358  16.061  36.171  14.884
86374W        W51359  31.357  18.665  10.688
86375W        W51360  36.447  38.856   3.175
86376W        W51361  13.397  27.722  13.025
86377W        W51362  20.029  38.894   3.832
86378W        W51363   5.410  14.162   2.382
86379W        W51364  16.033  42.442   1.984
86380W        W51365   2.875  27.281  11.141
86381W        W51366  23.526   6.306  14.765
86382W        W51367  22.586  24.724  13.758
86383W        W51368  12.171  30.349   2.225
86384W        W51369  42.674  10.543  11.081
86385W        W51370   5.985  32.228  12.003
86386W        W51371  43.964  43.671   1.987
86387W        W51372  12.049  36.379  12.667
86388W        W51373   6.367  21.062   0.276
86389W        W51374  42.840  23.191   2.338
86390W        W51375  13.297  19.791  14.352
86391W        W51376  39.763  22.609   1.996
86392W        W51377  42.734  17.041   3.142
86393W        W51378  27.439  34.260   2.908
86394W        W51379  33.145  35.788   2.788
86395W        W51380   6.078   7.457  14.383
86396W        W51381  23.996  35.052   2.250
86397W        W51382  19.144   5.174  11.627
86398W        W51383  16.114  37.294   2.777
86399W        W51384   3.944   7.476  13.967
86400W        W51385  24.218  24.430  11.203
86401W        W51386  38.827  14.336  12.040
86402W        W51387   5.055  31.870   0.788
86403W        W51388  23.728  16.541   0.024
86404W        W51389   4.943   9.620  10.508
86405W        W51390  10.103  19.667  14.447
86406W        W51391  17.473  40.407  14.347
86407W        W51392  20.186   1.908   2.859
86408W        W51393  43.769  18.006   1.476
86409W        W51394  40.017   9.599   3.816
86410W        W51395  23.316  24.672  11.101
86411W        W51396  15.153  19.108   2.007
86412W        W51397  30.032  19.715  10.905
86413W        W51398  33.428  30.489   1.822
86414W        W51399  32.947   2.058   1.360
86415W        W51400  20.692  31.523  13.048
86416W        W51401  34.538  15.778   2.323
86417W        W51402  13.412  12.539   2.616
86418W        W51403  32.065  38.426  11.164
86419W        W51404  39.992  22.665   0.523
86420W        W51405  36.135  25.524   2.124
86421W        W51406  23.691   1.506   2.284
86422W        W51407   3.826  39.365  14.273
86423W        W51408  43.714  26.988  11.524
86424W        W51409  20.131  13.370  12.206
86425W        W51410  10.657  23.223  10.884
86426W        W51411  12.922  22.026  13.877
86427W        W51412  34.376  17.778  13.525
86428W        W51413  37.596  22.276  11.126
86429W        W51414  22.466  33.109   3.257
86430W        W51415   7.804   4.346   4.189
86431W        W51416  25.002  23.668  12.607
86432W        W51417   2.850   8.715  13.125
86433W        W51418  40.556   0.877   1.886
86434W        W51419  31.221   9.728   4.174
86435W        W51420  37.353  42.319   2.889
86436W        W51421   6.811   2.648   1.928
86437W        W51422  14.940  13.790  12.675
86438W        W51423   1.372   3.717  12.448
86439W        W51424  23.734  24.253   3.659
86440W        W51425  17.113  16.566  12.915
86441W        W51426  20.945   8.842  14.547
86442W        W51427  24.991  10.629  11.304
86443W        W51428   5.411  11.279  13.321
86444W        W51429  12.192  43.263  14.541
86445W        W51430  13.792  35.986   2.854
86446W        W51431  29.586  15.348  14.053
86447W        W51432  38.131  20.729   1.685
86448W        W51433  41.394   5.977   4.576
86449W        W51434  40.508  25.401  12.952
86450W        W51435  36.626  35.140   0.004
86451W        W51436  29.934  11.652   3.856
86452W        W51437  18.227   3.469  11.783
86453W        W51438  38.759  40.103   3.812
86454W        W51439  18.013  42.822   0.415
86455W        W51440   0.885  25.450   1.870
86456W        W51441  12.246   0.907  10.280
86457W        W51442   4.377  33.097   4.167
86458W        W51443  34.468  36.818  12.636
86459W        W51444  11.569  10.575   3.190
86460W        W51445  34.653  29.751   0.191
86461W        W51446   0.479  19.804  12.888
86462W        W51447  33.375  15.998   1.789
86463W        W51448  29.959   8.087  14.536
86464W        W51449  32.144  39.104   2.291
86465W        W51450  33.665  21.435   0.428
86466W        W51451  15.417  28.242  11.988
86467W        W51452  13.656  19.229  12.064
86468W        W51453  23.246  30.956  10.021
86469W        W51454  22.164  22.526   4.994
86470W        W51455   6.970   9.698  10.744
86471W        W51456  25.677  18.524   3.410
86472W        W51457  31.039  44.335   0.835
86473W        W51458  41.929  41.903  13.038
86474W        W51459  27.589   7.066  13.036
86475W        W51460  33.048  35.758  12.058
86476W        W51461   8.731  20.343   4.298
86477W        W51462   9.863  24.935   0.440
86478W        W51463   8.729   9.893   3.634
86479W        W51464  42.505  39.519   5.038
86480W        W51465  35.871  37.061   3.248
86481W        W51466  31.032  36.086  13.666
86482W        W51467   8.310  37.660  12.143
86483W        W51468  14.817  35.604  10.771
86484W        W51469  25.623  26.869   3.802
86485W        W51470  19.199  33.487   2.755
86486W        W51471  21.875   5.725  10.624
86487W        W51472  43.875  23.374   5.121
86488W        W51473  24.095   6.181   1.018
86489W        W51474  38.566  24.931  10.693
86490W        W51475  29.682   1.096   3.733
86491W        W51476  20.434  16.806   3.880
86492W        W51477  22.363  33.312  12.876
86493W        W51478  33.464  39.816   2.160
86494W        W51479  31.400  27.099   2.699
86495W        W51480  40.846  40.071   4.947
86496W        W51481   9.724  24.077  13.010
86497W        W51482  27.979   9.397  10.275
86498W        W51483  19.142  36.345   0.339
86499W        W51484  37.094   3.195  12.979
86500W        W51485  32.598   2.794   0.188
86501W        W51486   7.752  16.304  13.080
86502W        W51487   7.254  18.353  12.908
86503W        W51488  16.209   6.675   0.210
86504W        W51489  24.607  32.167   0.494
86505W        W51490  18.094  24.726  14.778
86506W        W51491  35.896   1.761  12.917
86507W        W51492  10.009  30.000   4.341
86508W        W51493  20.467  36.793   3.819
86509W        W51494  14.309  39.428   3.140
86510W        W51495  40.789   3.234   3.135
86511W        W51496  40.699  13.019  10.424
86512W        W51497  33.608   4.848  11.899
86513W        W51498  16.142  22.567   4.657
86514W        W51499  33.058   0.214   2.905
86515W        W51500  35.413  12.531   1.712
86516W        W51501  38.552   6.759  11.680
86517W        W51502  36.533  37.915   3.059
86518W        W51503  39.835   3.340   0.185
86519W        W51504  33.882   6.733  11.508
86520W        W51505  44.815   8.668   0.749
86521W        W51506  29.147   6.955  13.050
86522W        W51507   4.449  12.306  14.426
86523W        W51508  32.826  20.161  11.730
86524W        W51509  36.856  34.003   0.419
86525W        W51510  19.761  21.035  14.699
86526W        W51511  14.580  10.242   1.508
86527W        W51512  16.842   7.573   5.308
86528W        W51513  30.700   3.467   3.765
86529W        W51514  40.007  12.319  10.643
86530W        W51515  22.201   4.686  12.301
86531W        W51516  12.387  28.856   4.518
86532W        W51517   4.749  38.651  11.674
86533W        W51518   4.049  31.096  14.430
86534W        W51519  44.377  40.901  11.520
86535W        W51520   3.491  34.554   1.951
86536W        W51521   8.611   8.686   4.696
86537W        W51522  22.187  23.593  13.562
86538W        W51523   9.256  44.935  12.436
86539W        W51524  20.468  35.941   2.925
86540W        W51525  30.230  23.197   0.380
86541W        W51526  31.988  19.145  14.942
86542W        W51527  42.255   2.744  11.253
86543W        W51528  42.285  23.823  14.778
86544W        W51529  19.527  43.859   2.794
86545W        W51530  38.861  44.802   2.438
86546W        W51531   1.199  31.420  12.965
86547W        W51532  33.524   9.635  12.265
86548W        W51533  24.480   1.382  10.575
86549W        W51534  34.935  29.881  13.815
86550W        W51535   2.278  12.678  12.163
86551W        W51536  31.994  12.019   2.835
86552W        W51537  13.172  43.790   2.570
86553W        W51538  44.838  27.435   2.178
86554W        W51539   7.732  35.855   1.769
86555W        W51540  39.273  19.797   3.764
86556W        W51541  10.461   1.362  14.573
86557W        W51542   6.527   6.594  13.600
86558W        W51543   7.353   7.712   5.420
86559W        W51544   2.271   0.383   3.790
86560W        W51545   1.907   5.529  12.557
86561W        W51546  14.914   9.761  14.051
86562W        W51547  28.589  36.622   4.221
86563W        W51548  18.499  22.476   2.066
86564W        W51549  11.434  18.365  11.434
86565W        W51550  38.860  42.497  13.385
86566W        W51551   7.674  11.553  10.756
86567W        W51552  15.655  21.189   4.571
86568W        W51553   6.920   1.689   4.660
86569W        W51554  19.268   9.468   1.774
86570W        W51555   1.562  27.495   0.774
86571W        W51556   8.797  39.988  10.729
86572W        W51557  22.956  17.385   0.300
86573W        W51558  18.591  38.057   1.136
86574W        W51559  23.057  35.548  11.430
86575W        W51560  26.574  11.799   1.428
86576W        W51561   7.447  44.851   4.217
86577W        W51562  32.741   9.719   4.058
86578W        W51563  12.809  15.678   0.873
86579W        W51564  21.980  12.203  11.167
86580W        W51565  30.526  32.108   3.653
86581W        W51566  44.857  15.773  12.904
86582W        W51567  20.976  12.662  10.384
86583W        W51568   1.973  10.666  13.051
86584W        W51569   1.723  44.913  14.828
86585W        W51570  44.435  25.255  12.026
86586W        W51571  41.913  39.073   3.517
86587W        W51572  41.980  13.245   4.526
86588W        W51573  30.420  17.736  12.035
86589W        W51574   7.592  17.219   2.473
86590W        W51575   2.926   3.302  14.047
86591W        W51576  33.785  29.629   2.739
86592W        W51577   9.400   5.805  12.462
86593W        W51578   2.036  24.060   1.948
86594W        W51579  28.961   5.885   4.702
86595W        W51580  43.900   4.232   4.085
86596W        W51581  10.689  43.463  10.458
86597W        W51582   4.981  44.714   0.409
86598W        W51583   2.703   4.747  14.815
86599W        W51584  23.964  17.988   0.445
86600W        W51585  26.913   3.982  11.142
86601W        W51586   3.845  19.711   1.014
86602W        W51587  33.411   3.276  13.420
86603W        W51588  35.571  22.491  12.564
86604W        W51589  28.125  20.652   1.392
86605W        W51590   7.352  18.553  14.300
86606W        W51591  14.253  31.666  14.938
86607W        W51592  44.961  24.568   5.036
86608W        W51593  34.637  32.542   0.384
86609W        W51594  24.124   5.323  10.533
86610W        W51595  25.645  24.037  13.687
86611W        W51596  19.123  11.406   1.619
86612W        W51597  30.331  37.481  12.110
86613W        W51598   0.453   9.328  13.891
86614W        W51599  16.889  10.743   4.390
86615W        W51600  17.763  32.964  13.964
86616W        W51601  13.857   4.927  12.923
86617W        W51602  16.127  25.079   3.800
86618W        W51603  10.119   2.404   4.065
86619W        W51604  40.239   4.915  13.962
86620W        W51605  13.795  23.396   0.523
86621W        W51606  38.867  14.284  13.960
86622W        W51607   3.707  12.680   5.010
86623W        W51608   1.705  31.556  12.989
86624W        W51609  10.126  39.708  13.138
86625W        W51610  30.183  17.202   3.071
86626W        W51611  32.071  25.434   0.348
86627W        W51612  13.741  31.685  12.497
86628W        W51613  33.533   7.753   3.641
86629W        W51614  32.299  38.794  14.487
86630W        W51615   9.814  39.796   4.043
86631W        W51616  15.753  17.613   3.652
86632W        W51617   5.199   5.979  13.517
86633W        W51618  16.701  16.278  14.004
86634W        W51619   2.029  25.667   4.284
86635W        W51620   3.691  35.812  12.004
86636W        W51621   4.954  42.504  12.905
86637W        W51622   5.035  24.697   4.556
86638W        W51623  17.268  29.625   2.317
86639W        W51624   6.427  19.333   1.694
86640W        W51625   0.263   2.826   4.612
86641W        W51626  40.061  22.203  14.812
86642W        W51627   6.632   4.368  11.767
86643W        W51628  31.009  17.086  13.185
86644W        W51629  27.005  39.109   0.685
86645W        W51630  44.078  16.846  13.300
86646W        W51631  42.525  24.875   3.948
86647W        W51632  25.684  26.257  12.598
86648W        W51633  21.727   1.712  14.430
86649W        W51634   8.291   7.807  14.454
86650W        W51635  12.093   5.395   4.181
86651W        W51636  43.638   8.238  10.760
86652W        W51637  16.219   6.709   1.763
86653W        W51638  34.052   4.343   4.317
86654W        W51639  19.543  42.563   0.039
86655W        W51640  37.270  36.416   4.098
86656W        W51641   6.179  22.992  11.946
86657W        W51642  41.373  34.289  11.191
86658W        W51643   8.879   8.167   3.768
86659W        W51644   1.009   0.799  10.500
86660W        W51645  19.306  19.939  13.919
86661W        W51646   9.138  13.322   2.176
86662W        W51647  24.701  22.219   0.356
86663W        W51648  32.140  11.467  14.337
86664W        W51649  39.930  38.745  13.514
86665W        W51650   6.186   6.712  13.218
86666W        W51651  41.984  19.339  13.440
86667W        W51652   1.386  16.208  14.540
86668W        W51653   2.964  13.607  11.012
86669W        W51654  31.090  23.642   1.146
86670W        W51655   8.773  28.909   1.127
86671W        W51656   8.445  42.021  11.558
86672W        W51657  14.242   6.202   1.084
86673W        W51658  23.235   8.650  14.825
86674W        W51659  16.323  19.107   1.870
86675W        W51660  39.775  25.131  12.433
86676W        W51661  42.769   8.340  13.422
86677W        W51662  34.948   2.040  12.090
86678W        W51663  23.926  22.117  14.402
86679W        W51664  26.636   5.279   2.833
86680W        W51665  31.918   1.340   3.365
86681W        W51666  11.227  40.023  11.628
86682W        W51667  25.131   0.178   3.910
86683W        W51668   8.309  10.507  10.134
86684W        W51669  10.410  18.629   5.084
86685W        W51670  17.693  34.155   2.746
86686W        W51671  25.272  27.516   0.907
86687W        W51672   8.528  23.523  14.652
86688W        W51673  35.460  12.350  11.884
86689W        W51674  27.006  28.661   2.188
86690W        W51675   2.948  33.114   1.823
86691W        W51676  13.567  11.119  13.768
86692W        W51677  15.832   0.163  11.620
86693W        W51678   3.698  29.889  11.185
86694W        W51679   4.388  43.207  12.750
86695W        W51680  44.884  10.616  14.380
86696W        W51681   0.076  18.116  14.362
86697W        W51682  37.074  43.501  12.000
86698W        W51683  26.566  15.342   3.832
86699W        W51684  36.817  39.870   2.346
86700W        W51685  13.652  23.721   4.847
86701W        W51686  43.784  37.438   2.858
86702W        W51687  43.074  17.847  14.226
86703W        W51688  12.588  32.992  11.976
86704W        W51689  30.663  30.470  11.520
86705W        W51690  25.377  28.806   0.524
86706W        W51691  44.486  38.098  12.654
86707W        W51692  38.787  10.245  11.187
86708W        W51693  26.555  37.298   5.466
86709W        W51694  32.400  22.815  14.332
86710W        W51695   0.757  17.482  12.886
86711W        W51696   4.268  34.527   0.469
86712W        W51697  26.401  27.462   0.263
86713W        W51698   9.086  39.539  12.203
86714W        W51699  38.765   6.946  11.246
86715W        W51700  26.246  10.818   1.921
86716W        W51701  20.297  10.604   3.731
86717W        W51702   1.792  22.865  13.897
86718W        W51703  31.339  15.841   4.115
86719W        W51704  32.933   4.466   0.275
86720W        W51705  12.296  38.940  10.759
86721W        W51706  22.627  18.746   0.325
86722W        W51707  41.211  33.327  11.006
86723W        W51708  11.423  33.074  10.790
86724W        W51709  34.965   2.544   2.185
86725W        W51710  34.101  10.720  11.875
86726W        W51711  36.301   0.664   0.768
86727W        W51712  12.077  33.876  11.959
86728W        W51713  18.185  10.213  11.079
86729W        W51714  27.059  40.398   2.493
86730W        W51715   9.182  30.421  13.083
86731W        W51716   7.497  40.455   0.875
86732W        W51717  40.682  36.031  14.684
86733W        W51718  44.171   8.312  10.000
86734W        W51719   3.058  25.799   1.361
86735W        W51720  36.932  31.322   1.385
86736W        W51721  33.690  33.811  12.567
86737W        W51722  30.903  33.475   2.580
86738W        W51723   3.327  35.340  14.845
86739W        W51724   2.753   1.265   3.115
86740W        W51725   3.324  44.164   2.789
86741W        W51726  10.204  30.924   3.851
86742W        W51727  25.427   2.793  13.896
86743W        W51728  34.472  10.416   4.078
86744W        W51729  15.410  12.450   4.216
86745W        W51730  36.226  11.300  14.479
86746W        W51731  19.386  17.607  10.207
86747W        W51732  37.964  23.368  12.493
86748W        W51733  27.608  26.862   3.710
86749W        W51734  23.990  30.760   1.200
86750W        W51735  33.865   0.182  11.513
86751W        W51736  26.677  30.958  11.793
86752W        W51737  41.361   8.073   4.131
86753W        W51738  31.491   2.946   0.975
86754W        W51739   7.614   3.503  11.852
86755W        W51740   5.855  31.713  11.144
86756W        W51741  30.697  21.636   3.404
86757W        W51742  43.608  37.832  11.613
86758W        W51743  34.549  21.247  12.850
86759W        W51744  33.574   4.706  14.416
86760W        W51745  21.294  17.692  13.319
86761W        W51746   7.164  22.904   2.340
86762W        W51747  17.639  19.119   5.513
86763W        W51748  27.512   0.867  12.550
86764W        W51749  10.792  11.359  11.666
86765W        W51750   6.256  29.164  11.691
86766W        W51751   1.512   8.793  12.635
86767W        W51752   2.889   6.305   0.964
86768W        W51753   1.333  33.368   2.773
86769W        W51754  14.403  12.532  13.891
86770W        W51755  12.469  30.138  11.132
86771W        W51756   0.946  29.004   4.670
86772W        W51757  22.646  28.759  13.347
86773W        W51758  44.752   7.228   3.264
86774W        W51759  33.087  19.474  13.378
86775W        W51760  24.536   9.654  12.997
86776W        W51761  10.340  12.648   0.303
86777W        W51762  44.663  33.201  14.817
86778W        W51763  30.166  44.308   4.077
86779W        W51764  15.225  13.634   0.504
86780W        W51765  10.900  31.673   1.372
86781W        W51766  24.530   3.260  12.240
86782W        W51767  26.877  15.296  13.834
86783W        W51768  35.123  26.174   2.807
86784W        W51769   3.162  32.767  13.726
86785W        W51770  38.362   0.032  13.450
86786W        W51771  23.460   8.665  12.111
86787W        W51772  16.727  44.284   3.166
86788W        W51773  27.548  35.735   2.156
86789W        W51774  32.414  40.885   0.771
86790W        W51775  19.167  16.292   0.514
86791W        W51776  29.614   8.668   2.121
86792W        W51777  10.758   5.733   4.100
86793W        W51778  30.980   3.781   1.619
86794W        W51779  32.639  44.027   4.441
86795W        W51780  38.364  40.495   2.791
86796W        W51781   2.885  40.535   4.043
86797W        W51782  39.884   5.493   4.742
86798W        W51783  25.298  29.659   1.407
86799W        W51784  36.500  15.361  12.060
86800W        W51785  15.284   6.029   1.294
86801W        W51786   1.792   5.414  12.029
86802W        W51787   8.222  18.847   2.843
86803W        W51788  36.928  28.928  14.775
86804W        W51789  21.338  30.369  10.636
86805W        W51790  23.493   7.496   3.666
86806W        W51791   6.180  43.626   2.951
86807W        W51792   4.083  10.182  11.563
86808W        W51793  10.610  44.656   2.399
86809W        W51794  24.290  33.942   0.331
86810W        W51795   5.213  23.618  13.943
86811W        W51796  24.527  14.178  11.629
86812W        W51797  29.012  22.306   0.442
86813W        W51798  13.418  22.219   1.431
86814W        W51799  39.576  43.969   3.339
86815W        W51800   2.947  31.474   0.927
86816W        W51801  22.774  39.862   0.466
86817W        W51802   6.679   3.945   4.057
86818W        W51803  13.763   7.366   4.556
86819W        W51804  28.707  25.154  14.330
86820W        W51805   5.484  23.952  12.920
86821W        W51806  31.090  24.209  12.165
86822W        W51807  27.934  40.440  13.481
86823W        W51808  22.473  33.355  11.212
86824W        W51809  15.524  18.525   5.054
86825W        W51810  24.229  27.152   3.092
86826W        W51811  23.256  22.150  12.474
86827W        W51812  23.094  37.859  12.411
86828W        W51813  26.215   9.133   0.491
86829W        W51814   7.966  30.886  10.052
86830W        W51815   2.023  30.577   3.193
86831W        W51816  21.856   3.088  11.398
86832W        W51817  44.088  19.195  14.750
86833W        W51818  30.323  26.505  14.900
86834W        W51819  37.824  31.104  14.802
86835W        W51820   7.792  12.246   1.885
86836W        W51821  10.211  42.894   0.346
86837W        W51822  32.685   4.039   0.451
86838W        W51823  21.163  13.785  14.939
86839W        W51824  23.675   7.827  11.558
86840W        W51825  37.929  38.832   1.402
86841W        W51826   0.249  30.479   4.382
86842W        W51827   5.320  29.323  12.351
86843W        W51828  26.116  41.295  14.925
86844W        W51829  31.949  29.016   2.459
86845W        W51830   9.848  27.484  13.325
86846W        W51831  13.821  30.030   3.697
86847W        W51832  41.383  41.540  13.828
86848W        W51833  25.729  38.827   0.720
86849W        W51834   5.505  28.568   3.123
86850W        W51835   6.343  28.675  11.559
86851W        W51836  29.849  41.014  11.171
86852W        W51837  25.084  18.194  10.664
86853W        W51838  10.173  38.314  14.874
86854W        W51839  40.950  21.549   1.271
86855W        W51840   9.451  11.356   0.461
86856W        W51841  38.911  30.572  13.313
86857W        W51842  33.643  22.664  12.693
86858W        W51843   6.757  26.527  12.798
86859W        W51844  13.900  18.080   3.679
86860W        W51845   7.257   1.217   0.863
86861W        W51846  15.179  34.368   2.067
86862W        W51847  20.184  35.533   3.077
86863W        W51848  23.769  30.590   4.703
86864W        W51849  42.712  39.056   4.953
86865W        W51850   0.673  21.175   0.490
86866W        W51851  32.068  29.683   2.786
86867W        W51852  37.632  27.533  10.616
86868W        W51853  25.523  18.231  14.042
86869W        W51854  32.172  25.194  13.391
86870W        W51855  22.514  10.469   2.529
86871W        W51856  13.604   0.910   3.782
86872W        W51857  31.981  18.637  14.761
86873W        W51858  23.730  17.579   2.607
86874W        W51859   8.284  33.850   0.702
86875W        W51860  41.951  44.763   4.458
86876W        W51861  35.385  24.080  13.398
86877W        W51862  36.610   3.820   1.858
86878W        W51863  40.830  40.906   1.189
86879W        W51864   9.770  25.175   0.905
86880W        W51865  15.921  10.673   0.710
86881W        W51866  30.701  37.522   0.441
86882W        W51867  41.716  12.236  13.412
86883W        W51868  20.004  19.344   0.922
86884W        W51869   0.876  36.988   0.987
86885W        W51870  12.737  42.844  10.116
86886W        W51871  38.074  28.205   0.895
86887W        W51872   3.813  27.256  13.849
86888W        W51873  42.114  30.174   4.219
86889W        W51874   5.943  10.641  12.475
86890W        W51875   4.370  25.561   0.241
86891W        W51876  12.918   3.147  14.829
86892W        W51877  25.958  21.587  10.716
86893W        W51878  35.393  17.680  12.413
86894W        W51879  33.847  43.105  13.789
86895W        W51880   6.599  43.988   0.106
86896W        W51881  37.269  16.797  11.243
86897W        W51882   2.737  25.657  12.847
86898W        W51883  27.780   8.736   0.863
86899W        W51884  17.347  29.973  12.586
86900W        W51885  13.671  15.851  11.980
86901W        W51886  22.120  18.462  10.653
86902W        W51887  14.968  39.539  13.000
86903W        W51888  34.897  31.901   4.439
86904W        W51889   3.347  11.117  13.006
86905W        W51890   5.739  41.088  11.058
86906W        W51891  23.392  19.851   5.035
86907W        W51892  26.213   5.836   2.856
86908W        W51893  29.545  44.321   5.420
86909W        W51894  10.786  40.610   3.336
86910W        W51895   0.393  18.543   1.959
86911W        W51896  27.694   1.846  14.780
86912W        W51897  17.061  16.632   1.688
86913W        W51898  39.456  15.466   4.011
86914W        W51899  32.568  24.106  12.903
86915W        W51900  42.124   5.178   4.062
86916W        W51901   0.875  16.835  14.611
86917W        W51902  21.216  42.865  11.839
86918W        W51903  31.957  15.048  11.137
86919W        W51904  40.961   9.884  14.918
86920W        W51905  22.758   7.745  14.991
86921W        W51906  19.188  16.346   2.261
86922W        W51907  24.710   3.935  14.923
86923W        W51908  15.115  25.366   5.054
86924W        W51909  17.027  23.069  12.730
86925W        W51910  27.514   5.745   0.855
86926W        W51911  41.436  32.387   0.129
86927W        W51912   4.719  22.953  14.311
86928W        W51913  30.431  29.094  13.556
86929W        W51914  41.987  13.352   3.646
86930W        W51915  11.772  43.217   1.650
86931W        W51916  34.158  24.194   0.068
86932W        W51917  21.692  33.076   4.047
86933W        W51918  21.199  28.002   1.230
86934W        W51919  15.605  35.585   2.350
86935W        W51920   4.051  23.711   2.677
86936W        W51921  16.576   7.657   1.793
86937W        W51922  36.100  23.406   4.622
86938W        W51923  15.607  21.112   1.816
86939W        W51924  10.451  37.273  10.386
86940W        W51925  38.348  15.085   0.970
86941W        W51926  26.254  41.868  10.601
86942W        W51927  41.000  19.735   4.413
86943W        W51928  37.048  33.723   3.189
86944W        W51929  21.772   2.226  14.475
86945W        W51930  44.414   5.806   2.545
86946W        W51931   0.866  44.910  11.997
86947W        W51932  14.771  40.424   3.575
86948W        W51933  12.430   0.956   2.697
86949W        W51934   7.148  24.119  14.326
86950W        W51935  11.220  23.985   3.830
86951W        W51936   8.260  25.687   2.221
86952W        W51937   5.855   0.512  12.123
86953W        W51938  29.427  23.662   2.769
86954W        W51939  15.150  23.042   2.861
86955W        W51940  35.985  29.661  14.345
86956W        W51941  16.569  38.993   1.476
86957W        W51942  35.797  26.655   4.060
86958W        W51943  11.692  38.782   2.707
86959W        W51944  28.436  44.097  14.265
86960W        W51945   9.956  35.405  13.809
86961W        W51946  37.354  44.479  10.998
86962W        W51947  42.060  44.946   1.377
86963W        W51948  43.577   4.242  12.525
86964W        W51949   3.415  36.724   3.497
86965W        W51950  31.078   9.249   0.375
86966W        W51951  16.195  42.493  12.621
86967W        W51952   5.915  32.150   1.439
86968W        W51953  43.548  35.093  11.800
86969W        W51954  35.883  36.603   3.820
86970W        W51955   9.547  39.933   3.620
86971W        W51956  16.208  19.996  14.992
86972W        W51957  21.755   2.324  11.016
86973W        W51958  36.621  41.972  14.353
86974W        W51959   7.695  16.794  12.402
86975W        W51960  26.507  19.494  13.858
86976W        W51961  19.439   5.458   4.845
86977W        W51962  22.032   5.309  11.937
86978W        W51963  38.092   3.869  12.605
86979W        W51964  30.144   0.360  13.031
86980W        W51965  43.095  28.411  12.045
86981W        W51966  35.157  17.682   0.885
86982W        W51967  12.563  12.743  14.538
86983W        W51968  44.440  41.351  11.258
86984W        W51969   3.819  37.807  13.452
86985W        W51970  21.771  34.497  11.918
86986W        W51971  11.403  27.864   3.712
86987W        W51972  12.735  10.921  11.167
86988W        W51973  40.606  37.355   0.910
86989W        W51974  20.699  33.178   3.910
86990W        W51975  14.566  27.083   9.882
86991W        W51976  31.532  39.080  12.046
86992W        W51977  39.941  21.095   4.966
86993W        W51978  44.059  44.341   2.699
86994W        W51979  10.252  20.519   2.784
86995W        W51980   1.161   6.352   0.516
86996W        W51981  20.234   1.744   4.417
86997W        W51982  37.250  38.558   1.065
86998W        W51983  19.471  37.515  14.037
86999W        W51984  27.794  33.347  13.517
87000W        W51985   7.367  24.613  11.402
87001W        W51986  22.431  27.679  13.430
87002W        W51987  41.653   4.853   2.323
87003W        W51988   6.387  35.591  14.776
87004W        W51989  35.572   8.471  11.675
87005W        W51990   3.026  27.460  11.593
87006W        W51991   1.955   7.929   3.709
87007W        W51992  18.471  33.089   2.292
87008W        W51993  26.472  41.408  13.093
87009W        W51994  37.895  23.116   3.533
87010W        W51995   6.351  31.834   0.898
87011W        W51996  24.560   6.292  13.344
87012W        W51997  31.052   5.347  11.447
87013W        W51998  21.123  13.955   3.172
87014W        W51999  18.389  42.375  13.548
87015W        W52000  27.180  39.437  12.519
87016W        W52001  39.496  41.560  12.867
87017W        W52002   6.530   1.234  12.959
87018W        W52003  31.949  13.370  11.688
87019W        W52004  16.868  38.328  14.312
87020W        W52005  42.280   6.819   2.412
87021W        W52006  44.697   8.127   4.318
87022W        W52007  39.602  36.943  12.439
87023W        W52008  37.423  11.344   4.944
87024W        W52009  36.852  13.225  10.785
87025W        W52010  44.824  42.559  11.725
87026W        W52011  26.107  42.935  10.167
87027W        W52012  26.459   0.321  10.633
87028W        W52013  23.222  13.758  13.778
87029W        W52014  27.545  12.261   1.851
87030W        W52015   6.025  39.722  10.699
87031W        W52016  41.010  31.193   4.114
87032W        W52017  22.730  35.070   2.920
87033W        W52018  23.614  25.997  13.971
87034W        W52019  24.136  39.897  10.790
87035W        W52020  39.904   9.168   0.491
87036W        W52021   9.011  38.627  11.130
87037W        W52022  30.491   9.611   3.760
87038W        W52023  11.638  11.396   5.124
87039W        W52024  31.432   0.039  12.576
87040W        W52025  17.974  27.169   0.823
87041W        W52026   5.075  36.137  10.233
87042W        W52027  31.632   3.519   4.191
87043W        W52028  42.858  14.225   3.183
87044W        W52029  29.745  32.582  14.728
87045W        W52030  38.326  17.589   0.770
87046W        W52031  10.811  18.203   3.411
87047W        W52032  29.374   0.406  14.347
87048W        W52033  19.698  30.931  14.827
87049W        W52034  15.555  39.460  13.888
87050W        W52035  20.715  15.305  13.926
87051W        W52036   6.664  27.114  14.994
87052W        W52037  22.462  21.079  12.494
87053W        W52038  16.308   7.777  12.154
87054W        W52039  39.509  33.875   2.787
87055W        W52040  26.611  42.291  13.004
87056W        W52041  29.294   3.561  11.634
87057W        W52042  33.387  30.477  11.225
87058W        W52043  41.056  15.568   3.708
87059W        W52044   1.906  33.207  13.148
87060W        W52045   8.362  26.799   4.547
87061W        W52046  22.577  40.400   4.133
87062W        W52047  26.118  32.415  11.609
87063W        W52048  34.394  21.469  11.629
87064W        W52049  22.520   9.122   3.432
87065W        W52050  28.375   8.834  11.179
87066W        W52051  24.444   6.479  11.492
87067W        W52052  31.595  28.926   4.582
87068W        W52053  32.222  27.213   2.404
87069W        W52054  36.865  42.947   3.866
87070W        W52055   7.372   8.819  11.206
87071W        W52056  37.853  41.903   0.736
87072W        W52057  26.080   8.535  11.143
87073W        W52058  44.737  37.850  10.701
87074W        W52059  16.066  44.394  10.471
87075W        W52060  27.470  12.935   4.000
87076W        W52061  44.415  41.935  14.019
87077W        W52062  27.685  38.278  12.226
87078W        W52063  39.189  18.027   4.544
87079W        W52064  35.731   8.542  13.831
87080W        W52065  37.514  30.283   3.315
87081W        W52066   7.731  17.539   2.865
87082W        W52067  24.650   8.230   2.352
87083W        W52068  16.728  37.305   1.219
87084W        W52069  40.924  23.709  10.313
87085W        W52070  40.782  15.137  10.713
87086W        W52071  28.040  27.213   2.968
87087W        W52072  27.164  36.246   3.886
87088W        W52073  19.846  18.124  13.816
87089W        W52074  26.699   7.740  11.159
87090W        W52075  15.094  25.933  11.649
87091W        W52076  17.601  20.345   4.511
87092W        W52077  17.215  16.133  11.417
87093W        W52078  39.592  41.234   3.812
87094W        W52079  36.797  35.002   3.239
87095W        W52080  13.396  11.057  13.284
87096W        W52081   0.313  21.979   2.272
87097W        W52082  18.332  30.227  14.461
87098W        W52083  44.764  27.249   3.873
87099W        W52084  10.338  32.259  10.176
87100W        W52085  38.011  16.753   0.450
87101W        W52086   6.868   0.340   1.512
87102W        W52087  38.334  19.541  13.457
87103W        W52088  14.112  26.442  10.301
87104W        W52089  16.279   8.843  14.617
87105W        W52090  19.556   2.755  13.955
87106W        W52091  19.614  23.195  11.194
87107W        W52092  31.852  26.990  11.506
87108W        W52093  33.976  40.499   4.871
87109W        W52094  44.187  37.820   3.345
87110W        W52095  23.144   1.539  12.095
87111W        W52096  28.180  12.882   3.699
87112W        W52097   2.370  40.850  14.368
87113W        W52098  40.668   0.833  13.332
87114W        W52099  27.550  29.411   1.410
87115W        W52100   5.698  38.891  14.637
87116W        W52101  25.091  26.993   4.564
87117W        W52102  31.911  11.486   4.488
87118W        W52103  11.778  15.743   3.735
87119W        W52104  33.528  35.621   4.528
87120W        W52105  31.424   5.383  14.480
87121W        W52106  39.794   1.309   0.267
87122W        W52107  37.946  24.727   1.872
87123W        W52108  37.369   8.268   0.701
87124W        W52109  10.551  15.251   3.789
87125W        W52110   2.782   5.646  13.413
87126W        W52111  42.053  21.155   3.646
87127W        W52112  44.371  33.934  12.199
87128W        W52113  11.613  42.753   1.799
87129W        W52114  14.534  16.690   0.872
87130W        W52115  10.227  27.895   0.300
87131W        W52116  23.359  18.696  12.504
87132W        W52117  10.567  24.157   1.583
87133W        W52118  27.404  40.428  12.998
87134W        W52119  28.925  44.821   2.525
87135W        W52120  21.298   1.486  12.458
87136W        W52121  21.720   7.133   2.910
87137W        W52122   4.811  43.420  13.938
87138W        W52123  18.788  44.501  11.630
87139W        W52124  10.281  18.681   2.317
87140W        W52125   5.238  23.460  12.108
87141W        W52126  32.043  21.089   1.764
87142W        W52127   0.254  29.602   4.664
87143W        W52128  27.844  35.779   5.070
87144W        W52129  16.768  24.133   4.626
87145W        W52130  43.227   1.669  11.096
87146W        W52131  41.332  18.404   2.834
87147W        W52132  20.510  36.052   1.841
87148W        W52133  43.809   7.423   3.743
87149W        W52134  27.389   8.312  14.213
87150W        W52135  21.074  16.539  11.161
87151W        W52136  26.005   7.213   3.744
87152W        W52137  34.395   0.378  12.373
87153W        W52138  19.042   2.335   2.649
87154W        W52139   6.466   7.866  12.405
87155W        W52140  33.407  23.435   1.790
87156W        W52141  36.933   0.495   2.886
87157W        W52142   2.710  36.120  11.987
87158W        W52143  18.219  22.285  12.340
87159W        W52144  29.916  16.651   3.748
87160W        W52145  18.817  43.733   2.400
87161W        W52146   0.420   1.804   0.360
87162W        W52147   0.416  26.108   3.819
87163W        W52148   7.199  39.114  13.070
87164W        W52149  17.618  40.127   1.168
87165W        W52150  43.065  41.787  12.048
87166W        W52151  37.716   7.822  12.370
87167W        W52152  20.106  33.031   3.079
87168W        W52153  14.817  32.443   4.581
87169W        W52154  40.992  31.388  14.581
87170W        W52155  29.999  43.146   4.669
87171W        W52156   6.704  34.914   0.190
87172W        W52157  33.176   6.165   1.844
87173W        W52158   4.775  37.782   4.624
87174W        W52159  25.719  13.803  11.192
87175W        W52160  16.041  12.283   2.767
87176W        W52161   7.694   8.136   3.291
87177W        W52162  23.499   2.405   3.945
87178W        W52163  44.602  38.945  12.971
87179W        W52164  36.356   1.239   3.638
87180W        W52165  44.139  37.781  11.623
87181W        W52166  41.795  30.256  13.687
87182W        W52167  30.946   5.637  12.973
87183W        W52168  39.900   9.938  11.574
87184W        W52169  21.140  35.438   2.890
87185W        W52170   4.772  25.986   4.100
87186W        W52171  19.162  17.741   0.931
87187W        W52172  18.117  14.825  13.563
87188W        W52173  42.777  13.628   0.142
87189W        W52174  14.714  13.780   0.210
87190W        W52175  15.141  21.186  13.558
87191W        W52176  37.916  43.045  12.546
87192W        W52177  36.429  29.012  13.131
87193W        W52178  38.904   8.695  13.649
87194W        W52179   0.793  11.363   2.644
87195W        W52180  25.788  31.972   0.406
87196W        W52181  35.908  31.847  13.481
87197W        W52182  15.869   7.309   4.102
87198W        W52183  11.678  30.936   4.370
87199W        W52184  39.857  17.619  14.438
87200W        W52185  16.624  14.718  10.461
87201W        W52186  21.555  21.400  14.990
87202W        W52187   0.251  29.991   4.086
87203W        W52188   1.016  17.128  12.608
87204W        W52189  39.510   6.806  11.516
87205W        W52190  25.146   1.571   3.087
87206W        W52191   0.236  25.468   0.235
87207W        W52192  39.846  43.301  13.936
87208W        W52193   4.608   6.282   5.098
87209W        W52194  27.773  34.146  11.621
87210W        W52195  23.191  18.468   4.152
87211W        W52196  15.275  28.680  12.857
87212W        W52197  41.352  40.390  10.875
87213W        W52198  43.758  15.094  14.279
87214W        W52199  38.774  22.229   2.851
87215W        W52200   9.182  17.220   2.687
87216W        W52201   1.975   1.712  14.381
87217W        W52202  16.360  24.509  10.615
87218W        W52203  34.654   0.497   0.289
87219W        W52204  12.632  30.778  14.959
87220W        W52205  35.112  23.278   0.438
87221W        W52206  38.789  38.013  12.993
87222W        W52207  16.754  36.298   0.269
87223W        W52208  16.747  29.545  14.555
87224W        W52209  28.186   6.432   0.613
87225W        W52210  34.181  25.531  11.023
87226W        W52211   4.175  41.368   4.558
87227W        W52212  30.697  26.126   4.515
87228W        W52213   7.228  11.818  12.507
87229W        W52214  13.273  30.742   1.773
87230W        W52215  26.075  29.191  11.538
87231W        W52216  24.424   5.272   2.817
87232W        W52217  20.205  26.405  12.880
87233W        W52218   4.901  33.768  12.054
87234W        W52219  38.831  41.573  14.406
87235W        W52220  34.363  10.361   3.244
87236W        W52221  43.078  35.407   2.237
87237W        W52222  41.285  18.317  14.332
87238W        W52223  22.548   8.819   5.101
87239W        W52224   8.657   8.459   4.209
87240W        W52225  41.874  24.284  13.440
87241W        W52226  43.525  13.977   0.791
87242W        W52227   9.943   4.233  14.407
87243W        W52228  20.615   4.405  10.286
87244W        W52229  20.029  44.650  10.612
87245W        W52230  25.154  23.483   0.246
87246W        W52231   1.273  19.825  13.912
87247W        W52232   1.160   1.451   1.889
87248W        W52233   7.859  20.834  11.243
87249W        W52234   7.847  41.740  13.114
87250W        W52235  26.637  42.852   1.288
87251W        W52236  22.655  30.616  13.609
87252W        W52237  21.568  28.042  12.159
87253W        W52238  17.429  34.316   1.020
87254W        W52239  37.534  34.468  10.409
87255W        W52240   6.278  40.391  11.136
87256W        W52241   8.184  20.190   3.639
87257W        W52242  42.473  33.939   1.861
87258W        W52243  42.359  38.526   0.246
87259W        W52244  10.644  42.427   2.676
87260W        W52245   0.604  37.659  12.292
87261W        W52246  16.136  25.575  11.233
87262W        W52247  23.226   0.961  10.329
87263W        W52248   0.551  41.817   3.665
87264W        W52249   0.165  12.911   0.737
87265W        W52250  42.327  26.934   0.032
87266W        W52251  42.990   5.713  12.969
87267W        W52252  23.075  31.352  10.800
87268W        W52253  20.275  38.568   4.187
87269W        W52254   2.813  44.892   2.824
87270W        W52255   9.373  32.566  12.140
87271W        W52256  17.695  23.557   1.902
87272W        W52257  26.647  22.173  12.477
87273W        W52258  35.844  13.774   4.133
87274W        W52259  44.414   8.723  12.056
87275W        W52260  27.457  14.794  11.569
87276W        W52261   6.479  23.061   5.029
87277W        W52262   5.280  20.171   0.875
87278W        W52263  37.848  35.880  14.737
87279W        W52264  21.399   0.221   3.740
87280W        W52265   0.780  28.389  11.177
87281W        W52266  20.591   8.412   1.249
87282W        W52267  27.059  25.672   2.776
87283W        W52268   4.188  38.680  14.006
87284W        W52269  17.688  22.985  13.373
87285W        W52270   9.324  17.101  12.040
87286W        W52271   4.729  16.607   1.965
87287W        W52272  27.460  38.983   0.469
87288W        W52273   3.957  27.073   2.623
87289W        W52274   3.437  34.549   2.955
87290W        W52275  18.503  19.759   1.746
87291W        W52276  20.745  10.382   3.838
87292W        W52277  13.921   6.870   4.190
87293W        W52278   5.290  25.953   1.276
87294W        W52279   7.376   0.197  11.634
87295W        W52280  13.769  11.381  14.739
87296W        W52281   1.473   3.453  14.237
87297W        W52282  25.134   2.549  14.803
87298W        W52283  32.588  16.166  10.669
87299W        W52284  10.253  23.883  11.932
87300W        W52285  18.236  41.002  13.026
87301W        W52286  11.922  31.952  11.259
87302W        W52287  26.388  21.358   1.213
87303W        W52288   3.694  11.922  13.376
87304W        W52289  30.666  15.072   0.289
87305W        W52290  20.563  32.913   1.400
87306W        W52291  24.934  43.826   0.866
87307W        W52292  40.367  28.156   5.125
87308W        W52293  12.364   6.429  10.626
87309W        W52294  44.401   1.997  14.946
87310W        W52295  26.457  43.294  12.385
87311W        W52296  43.244   6.916  13.312
87312W        W52297  24.500   1.196  11.034
87313W        W52298  21.186   5.689  11.547
87314W        W52299   7.822  14.385  12.639
87315W        W52300  13.788  10.335  10.615
87316W        W52301   9.937  23.987   1.296
87317W        W52302   3.848  33.043  10.584
87318W        W52303  36.365  11.802  14.512
87319W        W52304  21.099   6.606  12.441
87320W        W52305  29.412   1.032  14.789
87321W        W52306  20.051  42.138  12.540
87322W        W52307  40.975   7.355  14.508
87323W        W52308  13.164  23.789  10.712
87324W        W52309   6.396  34.354   2.738
87325W        W52310  21.565  36.754  11.147
87326W        W52311  15.867  18.902  13.495
87327W        W52312  43.503  14.603  11.664
87328W        W52313  37.039  20.958   1.230
87329W        W52314  38.297  19.760  11.950
87330W        W52315  31.841  10.221  10.509
87331W        W52316  44.527   7.747  11.645
87332W        W52317  16.812  20.158  14.156
87333W        W52318  27.444   2.725  11.604
87334W        W52319  27.648  35.617  12.027
87335W        W52320  44.759  20.081  12.375
87336W        W52321  28.713  28.030   1.697
87337W        W52322   3.959  43.993   1.370
87338W        W52323  36.768  16.409   3.528
87339W        W52324  31.441  12.830  13.853
87340W        W52325  35.477  11.572  12.627
87341W        W52326  40.902   5.370   0.358
87342W        W52327  15.072  43.959   2.700
87343W        W52328   5.944   7.805   4.253
87344W        W52329  13.771  44.293  12.861
87345W        W52330  33.594  43.850   0.681
87346W        W52331  19.394  31.760  10.713
87347W        W52332  22.083   3.031   4.035
87348W        W52333   6.439  23.163  10.913
87349W        W52334  29.452  41.411   2.008
87350W        W52335  19.336  44.852  13.974
87351W        W52336   0.871  40.897  12.557
87352W        W52337  26.722  20.259  11.726
87353W        W52338  36.557  32.843   2.019
87354W        W52339   3.858  33.125  14.564
87355W        W52340  16.949  21.555  11.161
87356W        W52341  42.116  37.506  10.749
87357W        W52342  26.292  30.111   4.442
87358W        W52343  31.488  10.918   3.218
87359W        W52344  14.513  22.106  12.980
87360W        W52345   3.320  10.389   4.731
87361W        W52346   6.807  23.206  11.646
87362W        W52347   1.378   9.183   1.439
87363W        W52348  22.761   1.756  10.021
87364W        W52349  44.392  24.660  10.725
87365W        W52350   1.457  34.084  13.550
87366W        W52351  44.021  16.178  11.054
87367W        W52352  11.493   8.079   0.254
87368W        W52353  26.080  42.247   0.318
87369W        W52354   2.393  39.351   0.876
87370W        W52355  44.523  37.524   1.316
87371W        W52356  16.218  40.926  13.973
87372W        W52357   6.830  43.837  12.911
87373W        W52358  34.969  34.580  13.808
87374W        W52359  14.100  26.189  13.104
87375W        W52360  28.914  40.173   2.200
87376W        W52361  35.441  12.862   4.106
87377W        W52362  41.580  35.598   2.285
87378W        W52363  13.696  25.243   4.015
87379W        W52364  38.152   7.444  13.862
87380W        W52365  14.602  28.696  10.928
87381W        W52366  41.562   8.924   2.784
87382W        W52367  22.784  39.057  13.474
87383W        W52368  40.967  16.278   0.504
87384W        W52369   0.367  44.877  13.114
87385W        W52370   1.956  41.293  13.074
87386W        W52371  34.511  24.105   4.647
87387W        W52372  18.188  42.976   4.362
87388W        W52373  31.076  24.033   1.486
87389W        W52374  37.147  18.777   5.071
87390W        W52375  11.194  11.795  14.130
87391W        W52376   1.420  29.135   2.384
87392W        W52377  43.286  10.131   1.215
87393W        W52378  33.996  28.242  14.320
87394W        W52379  41.320  37.536   4.460
87395W        W52380  17.032  36.900  10.538
87396W        W52381  19.160   5.765   4.152
87397W        W52382   4.224  36.035  10.799
87398W        W52383  39.372  19.525  13.358
87399W        W52384  36.740  40.605  14.848
87400W        W52385  25.999  25.607   1.422
87401W        W52386  29.647   2.501  12.491
87402W        W52387  15.398  22.764  14.445
87403W        W52388  43.387  24.516   0.711
87404W        W52389  16.582  17.724  11.532
87405W        W52390  10.796  34.973   3.036
87406W        W52391   5.405   4.255  14.337
87407W        W52392  10.119  32.210   1.771
87408W        W52393  27.269  24.198  12.607
87409W        W52394  43.736  38.903  10.416
87410W        W52395  33.526  17.092  14.837
87411W        W52396   7.812  42.283  14.875
87412W        W52397  16.281   4.167  12.975
87413W        W52398   4.122  21.850  12.100
87414W        W52399  38.912   1.762   4.154
87415W        W52400   4.490  13.769  13.005
87416W        W52401  35.952  37.109  13.880
87417W        W52402  12.300  43.770  10.398
87418W        W52403  18.272   5.155  14.764
87419W        W52404  19.861  14.351  11.702
87420W        W52405  38.173   8.025   1.314
87421W        W52406   2.352  35.796  10.793
87422W        W52407  31.597  38.521   0.021
87423W        W52408   1.987   0.799  14.841
87424W        W52409  23.784  26.949   3.363
87425W        W52410  39.028  37.139   1.218
87426W        W52411  10.698  39.113  14.963
87427W        W52412  25.240  16.542  11.560
87428W        W52413   6.843  43.291  12.902
87429W        W52414   7.118  21.617   0.445
87430W        W52415   5.164  25.137  10.568
87431W        W52416  35.620  16.213  10.684
87432W        W52417  10.663  27.440   2.281
87433W        W52418   7.183  18.082  14.830
87434W        W52419  29.304  13.039  10.719
87435W        W52420  15.851  37.409  12.671
87436W        W52421  44.247  24.081  14.730
87437W        W52422  23.483  28.227  11.993
87438W        W52423  17.253  17.104   1.857
87439W        W52424   3.363   4.703   4.558
87440W        W52425  25.693  20.275  13.776
87441W        W52426  10.395  35.622  11.206
87442W        W52427  14.334  15.374  12.097
87443W        W52428  44.664  12.889  14.461
87444W        W52429  15.380  12.722  14.868
87445W        W52430  17.663  20.587  12.253
87446W        W52431  28.685   6.830   2.836
87447W        W52432  41.320  12.342  10.683
87448W        W52433  10.791  25.290  14.427
87449W        W52434  42.796   8.706  10.412
87450W        W52435   6.979  37.208  11.075
87451W        W52436   8.772   9.236  14.899
87452W        W52437  23.153   0.475   2.698
87453W        W52438  33.915  17.095  13.385
87454W        W52439   1.364   0.690   3.308
87455W        W52440  40.968  43.072   2.799
87456W        W52441  41.372  29.512   1.425
87457W        W52442  36.669  40.063   3.758
87458W        W52443  13.703  23.547   3.786
87459W        W52444  13.343  40.046   1.983
87460W        W52445  32.475  44.915  13.809
87461W        W52446  34.514  23.653  11.156
87462W        W52447  36.313  25.516   2.608
87463W        W52448  18.772  28.499   4.133
87464W        W52449  14.620   0.393  11.932
87465W        W52450  25.203  24.791  10.493
87466W        W52451  13.263  10.524  12.603
87467W        W52452   2.168   0.144   1.023
87468W        W52453  35.491   4.044   4.627
87469W        W52454  40.927  23.140   1.829
87470W        W52455  19.312  24.842   1.924
87471W        W52456  23.970  26.662  13.501
87472W        W52457  22.731  16.290   0.884
87473W        W52458  39.659  20.580   1.909
87474W        W52459  10.554   6.305  14.011
87475W        W52460  27.500  17.891  14.607
87476W        W52461  41.362  31.583   4.112
87477W        W52462  24.447   4.407  13.591
87478W        W52463  34.789  33.074  11.938
87479W        W52464  14.407   4.373  11.550
87480W        W52465  25.347  12.246  11.038
87481W        W52466  31.995  18.183   0.526
87482W        W52467  44.912  19.130  11.003
87483W        W52468  30.849  19.121  11.699
87484W        W52469   6.726  17.317  10.569
87485W        W52470  34.223  16.595   3.824
87486W        W52471  16.246   8.225  12.440
87487W        W52472  32.515  17.484   1.341
87488W        W52473  38.515  27.458  14.002
87489W        W52474  23.711  33.960   1.412
87490W        W52475   3.169  19.086  13.723
87491W        W52476  25.256   9.718   1.500
87492W        W52477  42.382  34.434  12.623
87493W        W52478  26.133  23.588   1.253
87494W        W52479  11.255  22.435  14.339
87495W        W52480   3.517  44.414   1.487
87496W        W52481  13.341  44.201   2.239
87497W        W52482  25.160  24.352   3.448
87498W        W52483   7.792  19.722  11.676
87499W        W52484  44.480  42.924  12.491
87500W        W52485  33.535  38.906   4.494
87501W        W52486  28.585  10.675   2.166
87502W        W52487  34.861  15.240  13.505
87503W        W52488   5.402  22.514   4.506
87504W        W52489  44.814   5.365  11.088
87505W        W52490  27.911   0.887   2.194
87506W        W52491  37.015   0.380   1.959
87507W        W52492  16.684  28.021   0.806
87508W        W52493  37.323  30.464  12.962
87509W        W52494  17.461  38.070   0.507
87510W        W52495  39.924  37.136  11.471
87511W        W52496  28.142  14.799  12.946
87512W        W52497  28.672  15.561   4.134
87513W        W52498   9.209   1.546   2.829
87514W        W52499  41.256  36.672  12.106
87515W        W52500   1.434  26.460  11.657
87516W        W52501  24.911   7.813   2.206
87517W        W52502  34.879  22.314   0.712
87518W        W52503  23.302  36.028  10.678
87519W        W52504  44.056  40.385   3.181
87520W        W52505  19.041  22.217  11.918
87521W        W52506  19.082  29.115  12.887
87522W        W52507  30.481  35.997  11.304
87523W        W52508  22.394  20.829  10.766
87524W        W52509  15.563   6.437   1.174
87525W        W52510  13.653  11.560  11.230
87526W        W52511  29.905  36.022   2.392
87527W        W52512   7.287  36.048  14.941
87528W        W52513  37.015  44.942   0.109
87529W        W52514  31.571  33.370  14.903
87530W        W52515   9.296  33.405  14.377
87531W        W52516  17.365   8.924  11.124
87532W        W52517  30.588  30.653  12.423
87533W        W52518   6.311   0.496  11.472
87534W        W52519  41.354  12.587  13.526
87535W        W52520  14.045   6.061  14.590
87536W        W52521   1.723  38.507   0.652
87537W        W52522  44.374  26.650   9.827
87538W        W52523  29.986  35.394  13.103
87539W        W52524   7.918  13.207   4.340
87540W        W52525  42.113  22.904   2.937
87541W        W52526  40.452  14.524   3.662
87542W        W52527  43.388  10.975  10.812
87543W        W52528  41.327  18.101   1.401
87544W        W52529  20.468  26.620  13.257
87545W        W52530  34.336  15.302   0.778
87546W        W52531  31.917  20.697  13.441
87547W        W52532  26.617  12.277  14.880
87548W        W52533  39.800  16.310  11.593
87549W        W52534   7.528   6.307   3.990
87550W        W52535   4.141  12.241   4.012
87551W        W52536  41.975  28.757   2.309
87552W        W52537   0.778  18.826   1.716
87553W        W52538  41.924  10.659  14.494
87554W        W52539   8.652  26.665  14.221
87555W        W52540  27.008  37.770   0.541
87556W        W52541  29.988  27.684  12.426
87557W        W52542  40.571  28.497  12.939
87558W        W52543  14.345  10.090   4.181
87559W        W52544  34.066  27.418   1.309
87560W        W52545   9.097  27.731   3.728
87561W        W52546  40.588   4.741  13.295
87562W        W52547   4.192  18.675   0.917
87563W        W52548   3.805   5.622  14.338
87564W        W52549  18.751  10.458  11.551
87565W        W52550   7.814  19.700   0.944
87566W        W52551   7.488   1.465   0.391
87567W        W52552  33.101  40.913  11.105
87568W        W52553  31.001  26.751  12.158
87569W        W52554  14.518   4.423   1.603
87570W        W52555   0.995  21.678   4.909
87571W        W52556   5.162  20.004  10.904
87572W        W52557  10.968  25.118  13.938
87573W        W52558  10.711  24.748  11.979
87574W        W52559  23.138   7.433   0.672
87575W        W52560  12.172   8.364   1.861
87576W        W52561  19.706  25.937  12.782
87577W        W52562  43.822  30.567   4.583
87578W        W52563  20.897   4.331   3.636
87579W        W52564  24.191  22.715   4.199
87580W        W52565  18.676  14.578   1.165
87581W        W52566  25.224  11.798   4.316
87582W        W52567  32.493  17.196   1.774
87583W        W52568  28.416  31.408   2.849
87584W        W52569  33.393  21.466  14.972
87585W        W52570  31.421  36.664  13.041
87586W        W52571  16.018  37.561   2.326
87587W        W52572  15.016  31.333  12.415
87588W        W52573  25.435  16.274  14.535
87589W        W52574  44.813  34.144  12.942
87590W        W52575  14.151  24.161  13.765
87591W        W52576   6.829  32.116   2.740
87592W        W52577   0.836  36.553  14.531
87593W        W52578  35.408   0.739  14.229
87594W        W52579   9.548  28.133   3.807
87595W        W52580  18.563   0.040   3.556
87596W        W52581  20.768  33.069   1.886
87597W        W52582   0.732  18.877   1.171
87598W        W52583   3.199   7.261  11.316
87599W        W52584  10.519  33.940  14.397
87600W        W52585  36.127  27.023  11.912
87601W        W52586   3.901  31.344   2.713
87602W        W52587   5.877  18.766  13.901
87603W        W52588   5.186   8.534  14.251
87604W        W52589  36.950  13.259   3.434
87605W        W52590  36.631   1.318   3.189
87606W        W52591  36.122  26.874   2.718
87607W        W52592  13.914   2.867  12.463
87608W        W52593   6.459  37.003  13.049
87609W        W52594  37.860  21.768   1.840
87610W        W52595  40.465  30.968   3.143
87611W        W52596  44.466  17.455   5.313
87612W        W52597  12.714  13.657  12.451
87613W        W52598  36.024  14.762  12.655
87614W        W52599  44.936  18.783   1.805
87615W        W52600  11.855  15.137   3.271
87616W        W52601  27.022  14.255  13.897
87617W        W52602  31.526   5.168  11.566
87618W        W52603  44.759  29.898  11.513
87619W        W52604   1.882  23.189   0.972
87620W        W52605  42.794   1.962   2.728
87621W        W52606   0.547  38.425   1.436
87622W        W52607  25.773  36.578   1.723
87623W        W52608  25.133   4.282   4.075
87624W        W52609  37.007  20.843   5.022
87625W        W52610   4.724  14.589  13.000
87626W        W52611   3.481  35.466   2.861
87627W        W52612  30.563  37.859   2.351
87628W        W52613  11.173  39.285   4.527
87629W        W52614  27.946  30.497  13.273
87630W        W52615   1.754  32.585   4.046
87631W        W52616  28.843  28.059  12.907
87632W        W52617   9.220  17.647  14.522
87633W        W52618  13.749   2.983  13.732
87634W        W52619  32.120   9.401   2.792
87635W        W52620  23.573  39.897  11.262
87636W        W52621  36.405  32.891  12.996
87637W        W52622  17.879   1.472  12.499
87638W        W52623  28.165  32.244   2.004
87639W        W52624   6.814   4.483   1.293
87640W        W52625  15.535  12.769   1.639
87641W        W52626  11.906  40.094  13.282
87642W        W52627   1.893   3.394  12.992
87643W        W52628  32.481   1.792   4.341
87644W        W52629  37.036  14.395   0.240
87645W        W52630   2.762  18.323  12.583
87646W        W52631  13.890  40.991  10.495
87647W        W52632  43.421   3.396   0.214
87648W        W52633  35.279   5.911   1.237
87649W        W52634  40.834  32.395  14.470
87650W        W52635  29.781  27.571   0.118
87651W        W52636  31.861  33.186  12.030
87652W        W52637  17.468   1.517  13.931
87653W        W52638  42.259  32.411   2.866
87654W        W52639  15.614  26.583  14.848
87655W        W52640  37.993  21.703  10.644
87656W        W52641   4.759   8.833  10.256
87657W        W52642   7.315  31.921   2.726
87658W        W52643  43.858  35.223   3.696
87659W        W52644  15.521  11.497   2.234
87660W        W52645  21.696  22.733  14.812
87661W        W52646   9.177  24.989   2.990
87662W        W52647   6.670  39.456  12.766
87663W        W52648  43.222   9.734   0.384
87664W        W52649  31.173  30.170  13.600
87665W        W52650   5.019  15.019  12.353
87666W        W52651  41.038  31.046   1.826
87667W        W52652  17.796   1.979   0.434
87668W        W52653  10.137  20.536  14.959
87669W        W52654  24.293  38.773   0.033
87670W        W52655  13.595  16.158   2.717
87671W        W52656  21.079   6.702   2.938
87672W        W52657  13.676   6.364  14.812
87673W        W52658  34.085  14.413   3.474
87674W        W52659   2.509  29.445  14.831
87675W        W52660   3.734   9.150   0.423
87676W        W52661  30.007  23.036  14.933
87677W        W52662  31.809  32.912   3.221
87678W        W52663  44.806   2.318  14.798
87679W        W52664   9.113   2.527  12.120
87680W        W52665  17.109  38.304   4.831
87681W        W52666   2.402  10.672  10.637
87682W        W52667  13.004  25.985   0.830
87683W        W52668  12.669  32.692  13.852
87684W        W52669  38.467  16.287   2.845
87685W        W52670  21.234  16.773   3.367
87686W        W52671  25.118  19.526   0.019
87687W        W52672  41.590  44.759   1.200
87688W        W52673  32.143  36.912   4.254
87689W        W52674  29.952  10.651  12.475
87690W        W52675  34.983  33.674  13.938
87691W        W52676  24.189  39.664  13.036
87692W        W52677  25.804  28.977   1.839
87693W        W52678  29.218  11.766  12.348
87694W        W52679   4.215  42.494   0.813
87695W        W52680  24.964  25.524  11.206
87696W        W52681  42.962  34.565   0.136
87697W        W52682  26.119  14.302  12.075
87698W        W52683  20.455  21.979  14.010
87699W        W52684   4.976   7.768  12.699
87700W        W52685  43.877  25.390  12.804
87701W        W52686  36.275  13.497   4.116
87702W        W52687  22.023   3.454  12.611
87703W        W52688  19.284   9.126  13.488
87704W        W52689  38.960  38.355  13.564
87705W        W52690  42.251  15.135  13.800
87706W        W52691  21.625  26.130  14.003
87707W        W52692   7.767  12.353   3.981
87708W        W52693  42.876  10.400   4.290
87709W        W52694   1.743  30.166  11.259
87710W        W52695  15.599  39.815   0.051
87711W        W52696  16.374  40.662   1.299
87712W        W52697  16.368  15.540   2.256
87713W        W52698   1.997  40.556  12.122
87714W        W52699  41.360  34.973   0.690
87715W        W52700   4.794  20.565  14.814
87716W        W52701  25.980  38.186   1.348
87717W        W52702  26.248   7.496  11.128
87718W        W52703  13.263  11.026   1.937
87719W        W52704  17.781  18.752   2.739
87720W        W52705  25.191  34.938   3.607
87721W        W52706   0.913  35.592   0.864
87722W        W52707  25.244  12.501   2.740
87723W        W52708  42.149   8.357   2.485
87724W        W52709  17.180  43.905  12.433
87725W        W52710  24.746  32.849  12.604
87726W        W52711  41.852  29.144  12.687
87727W        W52712  13.261  24.958   1.641
87728W        W52713  21.055  33.525  11.359
87729W        W52714  27.239  38.472  11.481
87730W        W52715  14.146  44.538   0.818
87731W        W52716  17.193  42.299  13.909
87732W        W52717  22.609  26.920   2.828
87733W        W52718  43.891   5.299  12.633
87734W        W52719  36.061  38.817   2.364
87735W        W52720  30.078  26.218  12.122
87736W        W52721  20.503  15.822  14.366
87737W        W52722  11.163  40.239   4.192
87738W        W52723  35.918  37.469   0.732
87739W        W52724  36.835   3.281  10.943
87740W        W52725   5.040  29.776  10.968
87741W        W52726  16.610  31.066   2.713
87742W        W52727  44.645  24.891  10.331
87743W        W52728   2.988  26.369   3.991
87744W        W52729  43.891  39.371   1.294
87745W        W52730   3.052  25.536  12.451
87746W        W52731  24.198   7.228  11.904
87747W        W52732  26.420   6.435  10.492
87748W        W52733  14.704  23.401  11.451
87749W        W52734  20.310   1.967   1.919
87750W        W52735  23.556  27.479  11.715
87751W        W52736   8.768  28.735  13.398
87752W        W52737   8.118  13.357  11.698
87753W        W52738   3.427  27.975   2.664
87754W        W52739  41.809  44.326  10.924
87755W        W52740  10.371   9.822   1.663
87756W        W52741  11.613  14.852   0.474
87757W        W52742  11.441  10.727   1.317
87758W        W52743   3.884  23.090   1.858
87759W        W52744  44.587  40.390  14.373
87760W        W52745   9.047  20.023   2.798
87761W        W52746  21.010   0.813   3.759
87762W        W52747  16.703  43.031  13.194
87763W        W52748  43.308  22.882   2.277
87764W        W52749  41.434  14.241  10.376
87765W        W52750   8.401  40.776  11.122
87766W        W52751  26.548  17.707  10.787
87767W        W52752  28.720   7.345   3.441
87768W        W52753  36.066  20.710   2.809
87769W        W52754  11.840   7.576  13.501
87770W        W52755  32.151  27.818  12.908
87771W        W52756  26.217  44.760   5.676
87772W        W52757  13.725  12.831   0.908
87773W        W52758  38.497  41.270   4.313
87774W        W52759   8.295  20.504   4.041
87775W        W52760   3.492  10.620  13.119
87776W        W52761  14.541  39.269   2.711
87777W        W52762  18.367  31.531  13.751
87778W        W52763  24.585  44.004   0.407
87779W        W52764  20.400  16.427  12.526
87780W        W52765  30.439  43.469  11.633
87781W        W52766   2.377  21.774  11.614
87782W        W52767  27.975  37.883   3.139
87783W        W52768  12.101   7.779   0.699
87784W        W52769  29.945   0.313  10.689
87785W        W52770   1.903  28.862   2.347
87786W        W52771  34.981  24.293  11.178
87787W        W52772  43.234   6.785   3.102
87788W        W52773  33.535  29.484   1.745
87789W        W52774  42.910   3.417   2.282
87790W        W52775  16.367  21.107  13.902
87791W        W52776   8.202  33.813  11.711
87792W        W52777   9.943   4.718  14.577
87793W        W52778  22.152  25.084  11.541
87794W        W52779  21.198   5.066   3.278
87795W        W52780  38.769   9.701  13.773
87796W        W52781  43.379   6.249   1.386
87797W        W52782  11.578   7.699   3.811
87798W        W52783  28.711  44.975   1.235
87799W        W52784  10.297  13.195  12.595
87800W        W52785   3.292   4.300  12.909
87801W        W52786  15.864  42.826   0.367
87802W        W52787  25.074  22.585  11.988
87803W        W52788  36.005  42.493   0.291
87804W        W52789  26.261  18.208   4.567
87805W        W52790  12.548  27.301   9.832
87806W        W52791  29.634   3.896  11.365
87807W        W52792  30.559  40.311   0.056
87808W        W52793  29.880  11.304   3.274
87809W        W52794  32.410  33.496   1.945
87810W        W52795  17.275  38.518   0.364
87811W        W52796   3.860  20.182  13.811
87812W        W52797   8.784  14.629   4.551
87813W        W52798  36.938   3.861  12.057
87814W        W52799   7.667  15.602   1.932
87815W        W52800  14.774  10.769  11.705
87816W        W52801  39.679   2.664   2.301
87817W        W52802  10.114  19.296   3.113
87818W        W52803  42.051  41.332  12.402
87819W        W52804  17.607  24.030   3.009
87820W        W52805   5.382  10.634   3.843
87821W        W52806  44.313  30.888  14.783
87822W        W52807   6.695  21.421  10.337
87823W        W52808  10.645  38.564  10.329
87824W        W52809  23.461   9.112  14.903
87825W        W52810   4.493  21.988   3.410
87826W        W52811  33.215   6.119  13.080
87827W        W52812  37.076  14.114   4.442
87828W        W52813   8.895  25.949  10.831
87829W        W52814  21.986   4.883  13.225
87830W        W52815  34.692  24.173   1.895
87831W        W52816  12.614  11.827   4.602
87832W        W52817  36.975   7.759   4.504
87833W        W52818   8.513  11.849  14.409
87834W        W52819   7.357  16.189   2.896
87835W        W52820  32.059   7.407  12.020
87836W        W52821  28.990  28.702  13.413
87837W        W52822  18.714  26.817   1.129
87838W        W52823  29.294  16.082  12.972
87839W        W52824  23.608  17.361  14.042
87840W        W52825  15.962   9.175   3.949
87841W        W52826   3.250  40.387   1.907
87842W        W52827   8.677   2.721  14.022
87843W        W52828  15.048  36.883   2.266
87844W        W52829  29.149   1.020   0.232
87845W        W52830  44.914  27.480   0.197
87846W        W52831  38.230  36.906   9.745
87847W        W52832  41.165  23.348  10.555
87848W        W52833  30.508  10.543   0.592
87849W        W52834  26.369  43.411  14.016
87850W        W52835  24.686   3.450   3.134
87851W        W52836  39.422  19.181   0.674
87852W        W52837  28.070   3.332   1.293
87853W        W52838  19.807  12.332   0.829
87854W        W52839   3.150  27.536   2.810
87855W        W52840   3.685  28.219  12.503
87856W        W52841  35.038  14.872  12.804
87857W        W52842  10.228  30.084   2.237
87858W        W52843   7.480  10.622  10.449
87859W        W52844  13.307  10.715  11.205
87860W        W52845  25.462  39.558  14.375
87861W        W52846  40.071   1.325   1.289
87862W        W52847   8.276  23.575  10.794
87863W        W52848  24.314  13.216   3.797
87864W        W52849  42.415   8.613  12.383
87865W        W52850  15.769  16.540   4.576
87866W        W52851  20.676  32.897  14.878
87867W        W52852  12.753   3.788   3.179
87868W        W52853  25.135  10.250   3.237
87869W        W52854  29.849  17.315   0.781
87870W        W52855   1.340  43.804  13.781
87871W        W52856  21.273  31.738   1.179
87872W        W52857  14.723   0.684  13.315
87873W        W52858  24.464  10.893   4.289
87874W        W52859  29.853  31.219  13.953
87875W        W52860  23.754   1.789   4.101
87876W        W52861  38.742  28.097  12.092
87877W        W52862  21.597   0.473   1.712
87878W        W52863  35.939  16.344   0.494
87879W        W52864  38.904  23.204  14.591
87880W        W52865  15.196  25.863  12.141
87881W        W52866  34.876  32.045  11.708
87882W        W52867  13.616   5.901   2.856
87883W        W52868  41.410  17.614   0.559
87884W        W52869  41.591  22.907  13.971
87885W        W52870   1.545  15.601   0.779
87886W        W52871  27.109  33.858   0.252
87887W        W52872  11.186  19.466   2.143
87888W        W52873  39.861  24.583  12.866
87889W        W52874  44.485  12.931   4.447
87890W        W52875  39.002  44.358  13.185
87891W        W52876  43.420   8.354   2.814
87892W        W52877  30.681  11.193   3.815
87893W        W52878  20.159  38.876   4.572
87894W        W52879  36.722   5.232  13.598
87895W        W52880   3.292  22.283  11.096
87896W        W52881  33.601  34.235  10.445
87897W        W52882  23.979  26.613   4.289
87898W        W52883  19.730  40.300   2.387
87899W        W52884  41.423   0.946  12.659
87900W        W52885  44.337  13.946   2.688
87901W        W52886  20.294  33.202   1.732
87902W        W52887  21.174   6.783  11.467
87903W        W52888  11.934   2.855  13.938
87904W        W52889  21.614  18.272  12.085
87905W        W52890   3.264  31.123   4.570
87906W        W52891  44.294  33.386  14.004
87907W        W52892  34.080   9.802   1.334
87908W        W52893  42.963  41.877  14.690
87909W        W52894  22.402  30.585  12.369
87910W        W52895   7.837  20.773   4.139
87911W        W52896  10.896  22.151   2.686
87912W        W52897  25.258  40.562   4.057
87913W        W52898  21.000  26.241  11.054
87914W        W52899   7.229  44.209  10.618
87915W        W52900  33.483  20.975   1.764
87916W        W52901  15.142   6.718  12.940
87917W        W52902   9.449   1.972   2.262
87918W        W52903  24.641  37.401   2.337
87919W        W52904   0.343   0.821   1.992
87920W        W52905  25.553   3.832  11.128
87921W        W52906  37.083  34.681  13.506
87922W        W52907  38.408  38.921  12.008
87923W        W52908   9.337  41.236   1.322
87924W        W52909  38.890   0.726   3.236
87925W        W52910  38.951   7.165  14.190
87926W        W52911  12.974   5.121  10.047
87927W        W52912  29.089  11.850   3.880
87928W        W52913  18.115  27.970   0.751
87929W        W52914  30.150  17.573  12.452
87930W        W52915   6.839   2.204  14.524
87931W        W52916  17.668  15.705  12.156
87932W        W52917  36.607   4.333   3.905
87933W        W52918  10.215  16.477   1.857
87934W        W52919  30.990  16.382   2.955
87935W        W52920  33.116   6.107   4.062
87936W        W52921  30.192  11.042  12.764
87937W        W52922   0.504  10.153  11.168
87938W        W52923  39.502  12.127   2.336
87939W        W52924   9.131  27.636  14.335
87940W        W52925  18.260  37.527  14.256
87941W        W52926  37.586   8.255  11.158
87942W        W52927  35.604  13.789  14.809
87943W        W52928  15.051  39.761  11.994
87944W        W52929  15.368  22.542   4.226
87945W        W52930  32.018  10.730   0.581
87946W        W52931  32.319  40.410   1.944
87947W        W52932  19.924  16.604   2.810
87948W        W52933  25.043  44.733  14.129
87949W        W52934   6.813  21.241   1.204
87950W        W52935  13.520  30.008  14.270
87951W        W52936  36.285  41.775  13.480
87952W        W52937  23.135  18.296  10.135
87953W        W52938  32.547  18.537   1.221
87954W        W52939  30.512  31.698   1.495
87955W        W52940  15.851  19.413  13.435
87956W        W52941   8.187  30.078  11.167
87957W        W52942   3.051   5.003   2.947
87958W        W52943  31.086  44.559  12.886
87959W        W52944  28.703  36.380  11.142
87960W        W52945  40.512   8.146   2.724
87961W        W52946  43.083  32.991  12.619
87962W        W52947   3.509  32.705  10.767
87963W        W52948  38.849  20.333   0.959
87964W        W52949  29.186  12.283   4.696
87965W        W52950  15.517  30.423   0.772
87966W        W52951   1.062   6.719   4.631
87967W        W52952  21.947  16.256  11.708
87968W        W52953  14.953  32.396  10.945
87969W        W52954  12.617   9.242   3.654
87970W        W52955  30.050  29.612  12.335
87971W        W52956   3.513   4.392  10.400
87972W        W52957  42.036   5.211  12.895
87973W        W52958  19.572   3.799  10.747
87974W        W52959  10.316  27.194  13.324
87975W        W52960  26.211   3.997   4.592
87976W        W52961  38.705   5.311  12.587
87977W        W52962   8.596   2.093  11.052
87978W        W52963  27.730  10.830  11.145
87979W        W52964  16.698  14.180  13.100
87980W        W52965  12.643   1.765  14.900
87981W        W52966  35.913  44.937   0.348
87982W        W52967   2.741  21.810   2.235
87983W        W52968  26.729  18.232   1.856
87984W        W52969   1.059   7.745   2.175
87985W        W52970  30.619  19.639  11.956
87986W        W52971  15.338  22.694   2.067
87987W        W52972  38.257  35.199   5.507
87988W        W52973   1.383  36.756  14.280
87989W        W52974  23.937  35.548  12.010
87990W        W52975  38.820  28.728  11.120
87991W        W52976   6.007  34.159   3.747
87992W        W52977   8.641   4.192   4.514
87993W        W52978  43.841  18.219  14.072
87994W        W52979   9.910  28.019   4.816
87995W        W52980  42.838  10.080   3.906
87996W        W52981   9.806  36.382  13.810
87997W        W52982   3.711  28.412   4.256
87998W        W52983  19.639  18.982  10.159
87999W        W52984  44.895  40.900  10.785
88000W        W52985  22.120   6.436   4.895
88001W        W52986  24.430  41.805   0.245
88002W        W52987   2.691  32.217  11.186
88003W        W52988   7.367  23.687   1.699
88004W        W52989  25.567  18.760   4.394
88005W        W52990  35.566  29.948  14.376
88006W        W52991  23.655  42.788   4.968
88007W        W52992   1.303  15.356   2.657
88008W        W52993  27.036  33.800  12.921
88009W        W52994  38.330   6.025  12.174
88010W        W52995  13.587  23.029  11.124
88011W        W52996  40.841  44.347  10.614
88012W        W52997  20.626   2.026   4.599
88013W        W52998   9.219  43.278   3.295
88014W        W52999   4.714   4.473   4.359
88015W        W53000  43.535  42.564  14.009
88016W        W53001  25.743  11.246  12.669
88017W        W53002  39.517  14.538   1.462
88018W        W53003   0.354  44.821  13.661
88019W        W53004  18.281  18.717   2.773
88020W        W53005  12.694  23.188  12.892
88021W        W53006   9.937  19.798  11.952
88022W        W53007  40.505  17.232  12.228
88023W        W53008  36.586  35.581   9.981
88024W        W53009  17.330  39.670   1.222
88025W        W53010  32.541  14.284   4.179
88026W        W53011   6.160  23.511  12.088
88027W        W53012  15.006  19.304   3.488
88028W        W53013  22.009  23.242  13.948
88029W        W53014   0.450  13.606   2.288
88030W        W53015  31.156   5.697  10.104
88031W        W53016  23.069  42.261   1.298
88032W        W53017  30.671  22.280  11.185
88033W        W53018   8.879  30.651  14.073
88034W        W53019  25.530  41.224  11.606
88035W        W53020  13.516  29.977  12.529
88036W        W53021   3.729  42.289   3.642
88037W        W53022   3.706  28.409   2.643
88038W        W53023  27.980  31.967  12.889
88039W        W53024  19.913  21.269   4.150
88040W        W53025  23.516  39.329  14.227
88041W        W53026  38.673  43.522   1.754
88042W        W53027  15.221   3.835   2.632
88043W        W53028  34.101   0.846  12.967
88044W        W53029   3.426  22.215  13.388
88045W        W53030  14.230   6.478   1.936
88046W        W53031   2.863  32.550   3.874
88047W        W53032  23.715  43.388   2.282
88048W        W53033  26.278  30.185   2.068
88049W        W53034  41.510  41.070  12.077
88050W        W53035  27.499  33.106   3.411
88051W        W53036  43.834   3.708   4.023
88052W        W53037  41.154  23.941   5.618
88053W        W53038  13.622  20.990   3.703
88054W        W53039  33.745  29.870   4.342
88055W        W53040  22.018  42.553   2.238
88056W        W53041  31.147  18.155   4.280
88057W        W53042   0.581  14.713  11.176
88058W        W53043  16.734  30.678   4.842
88059W        W53044  39.785  32.090   3.221
88060W        W53045   3.262   8.438  14.435
88061W        W53046  37.590  15.704  12.572
88062W        W53047  29.471  38.916   0.075
88063W        W53048  11.748  21.839  10.520
88064W        W53049  25.605  35.388  14.394
88065W        W53050  32.618   6.919  13.283
88066W        W53051  33.040  39.599   3.604
88067W        W53052  37.924  18.697   0.438
88068W        W53053  31.142  16.108   4.788
88069W        W53054  37.586  18.009  10.568
88070W        W53055  21.839   9.702  12.531
88071W        W53056  28.476   5.702   4.897
88072W        W53057   9.805  28.446  10.715
88073W        W53058  40.134  43.444   0.731
88074W        W53059   3.491  24.153  11.124
88075W        W53060   0.129  31.302  11.952
88076W        W53061  29.987   9.117  12.559
88077W        W53062  24.532  43.043   0.359
88078W        W53063  17.485  22.130  11.187
88079W        W53064  19.954  22.737   2.321
88080W        W53065  31.996  42.697  12.401
88081W        W53066  18.027  21.221   3.601
88082W        W53067  43.329  38.290  11.592
88083W        W53068  39.845  44.246   4.227
88084W        W53069  25.138  18.069  12.402
88085W        W53070  21.968  17.985   1.337
88086W        W53071  13.854  22.590  10.329
88087W        W53072  41.778   3.185  10.783
88088W        W53073   2.728  33.537  12.828
88089W        W53074  41.668  32.506  14.611
88090W        W53075  35.369  39.839  14.336
88091W        W53076  29.171  18.252   2.848
88092W        W53077  30.520   2.190   2.417
88093W        W53078   2.261  33.413   2.736
88094W        W53079  13.609   5.736   9.858
88095W        W53080   2.604  25.723   3.301
88096W        W53081  13.683   1.041   4.888
88097W        W53082  10.744  11.277  13.390
88098W        W53083  23.734   7.955   3.666
88099W        W53084  16.786   1.341   3.172
88100W        W53085  16.108  40.229   1.210
88101W        W53086  13.101  37.618  10.621
88102W        W53087  27.135   6.794  14.735
88103W        W53088  42.760  41.005   3.241
88104W        W53089  43.909  14.169  13.857
88105W        W53090   4.505  40.838  14.331
88106W        W53091  31.627   1.649  11.494
88107W        W53092  15.867  22.642   4.223
88108W        W53093  40.016  30.508   2.384
88109W        W53094  26.979  36.135  13.358
88110W        W53095  28.891  17.865  14.545
88111W        W53096   7.430   7.304   0.322
88112W        W53097  25.724  19.320  11.184
88113W        W53098   3.514  27.172   4.486
88114W        W53099   1.428  39.404   3.823
88115W        W53100   1.970  44.368  13.956
88116W        W53101  25.580  16.042  10.793
88117W        W53102   2.676  10.419  13.493
88118W        W53103  16.158   2.013  14.850
88119W        W53104  35.823  29.158  11.594
88120W        W53105   8.523   2.923   2.185
88121W        W53106  22.594   4.138   3.848
88122W        W53107  10.605  41.672   1.771
88123W        W53108  23.402  28.428   2.086
88124W        W53109   4.742  31.573  10.577
88125W        W53110   3.858  31.369   1.823
88126W        W53111  23.357   5.112  12.755
88127W        W53112  13.262  38.042   1.295
88128W        W53113  39.393  30.783  10.699
88129W        W53114   3.695  16.564  12.885
88130W        W53115  20.648  16.798  14.835
88131W        W53116  40.328   3.526   0.061
88132W        W53117  44.245  42.058   4.201
88133W        W53118   7.356  14.573  14.423
88134W        W53119  28.353  16.451   1.318
88135W        W53120  43.520  44.312   4.088
88136W        W53121  10.150  33.332   2.799
88137W        W53122   3.329  16.245  13.063
88138W        W53123  29.178  41.411   4.619
88139W        W53124  35.967  41.242  11.155
88140W        W53125  16.257   6.942  14.778
88141W        W53126   8.037  43.927  13.383
88142W        W53127   2.054  13.820  14.313
88143W        W53128  44.386   2.896  13.878
88144W        W53129   7.908  38.388   0.358
88145W        W53130  20.791  35.429   4.753
88146W        W53131  10.431  18.335  14.526
88147W        W53132  40.549  23.015   4.603
88148W        W53133  37.539  30.961  11.694
88149W        W53134   3.488  38.987  11.961
88150W        W53135  12.234  18.368   0.024
88151W        W53136  40.889   1.971   4.604
88152W        W53137   7.506   1.468  13.683
88153W        W53138  33.877  41.602   2.314
88154W        W53139   1.655  24.708   2.711
88155W        W53140  40.679  29.993   4.653
88156W        W53141  35.497  25.725  10.657
88157W        W53142  19.305  34.429  14.468
88158W        W53143   5.548  42.338  11.602
88159W        W53144  27.684  24.885   1.308
88160W        W53145  18.727  44.548   4.548
88161W        W53146   1.890  41.789  10.691
88162W        W53147  25.647  44.338   4.708
88163W        W53148  42.990  24.137  10.690
88164W        W53149  32.516  10.650   4.251
88165W        W53150  33.598  15.715  12.486
88166W        W53151   5.852   1.317  11.600
88167W        W53152  12.188  35.074   4.134
88168W        W53153   0.147  44.011   4.153
88169W        W53154  23.218  16.061   3.486
88170W        W53155  36.331  13.406   2.828
88171W        W53156  11.874   8.914   1.677
88172W        W53157  40.321  41.869  14.399
88173W        W53158   7.126  26.333  12.314
88174W        W53159  24.137  40.116   0.414
88175W        W53160  29.323  17.839   0.502
88176W        W53161  44.713  32.122  14.946
88177W        W53162  25.547  40.496   3.133
88178W        W53163  23.678  21.026  13.159
88179W        W53164   2.235  31.611  11.674
88180W        W53165  13.030  30.002  12.363
88181W        W53166  29.585  22.260   2.370
88182W        W53167  30.966  27.557   1.662
88183W        W53168  37.041  37.767  12.052
88184W        W53169  25.094   0.567   2.964
88185W        W53170   8.700  15.735  10.567
88186W        W53171  18.977  21.285  14.370
88187W        W53172  21.324  37.393  10.950
88188W        W53173  20.863  31.190   3.738
88189W        W53174  12.692  44.712   4.638
88190W        W53175  35.919   1.139   2.020
88191W        W53176   1.444  20.766  12.119
88192W        W53177   3.492   1.949  14.193
88193W        W53178   8.384  28.384   0.366
88194W        W53179   9.159  34.048  12.977
88195W        W53180  10.664  23.940  11.625
88196W        W53181  14.800  39.173   2.251
88197W        W53182  29.234  40.527  14.687
88198W        W53183  23.864   4.932   2.250
88199W        W53184   5.905  34.054   0.685
88200W        W53185  16.958  36.092  12.380
88201W        W53186  20.323  44.345  14.872
88202W        W53187  42.548  19.226   4.172
88203W        W53188  38.857  36.291  11.172
88204W        W53189  33.839  21.243   4.214
88205W        W53190  32.342  17.041  11.510
88206W        W53191  41.493  26.193  11.701
88207W        W53192  22.430  19.963  11.727
88208W        W53193   3.478  40.510  11.075
88209W        W53194  24.756  24.127  12.584
88210W        W53195   4.697  24.709   4.179
88211W        W53196  34.418   8.255  14.863
88212W        W53197  11.867   5.276   3.721
88213W        W53198   8.230  25.743  10.375
88214W        W53199  27.783  42.751  12.496
88215W        W53200  28.508  16.260  14.468
88216W        W53201  18.630  33.221   0.318
88217W        W53202  25.165   6.685   2.818
88218W        W53203  42.024   1.192   4.109
88219W        W53204  35.551   6.871   2.812
88220W        W53205  44.211  40.038  13.507
88221W        W53206   7.677  17.612   4.776
88222W        W53207  34.844  19.729   2.829
88223W        W53208  37.904   0.789  14.812
88224W        W53209  41.517  18.609   0.267
88225W        W53210  11.033  27.849  13.845
88226W        W53211  19.822  21.605  10.316
88227W        W53212   0.822  31.926  11.133
88228W        W53213  38.632   6.392   4.586
88229W        W53214  17.146   9.174   3.261
88230W        W53215  33.916   5.157  11.101
88231W        W53216   2.217  41.341  11.515
88232W        W53217  21.085  31.504  14.770
88233W        W53218  17.799   6.514   1.164
88234W        W53219  22.768  13.573   2.660
88235W        W53220  17.700  30.654  11.073
88236W        W53221   6.175  12.036   1.076
88237W        W53222  28.056  35.612  10.755
88238W        W53223   3.087  19.308  11.169
88239W        W53224  19.291   0.769   0.708
88240W        W53225  23.107  17.772  10.277
88241W        W53226  35.923  44.337   4.653
88242W        W53227  13.511   6.218   1.570
88243W        W53228  39.794  39.799   2.199
88244W        W53229   8.456   3.832  11.915
88245W        W53230  10.627   5.320   4.397
88246W        W53231   2.994   2.004   3.734
88247W        W53232  35.197   0.028   1.144
88248W        W53233  15.893  23.997   5.121
88249W        W53234   5.774   8.562  12.327
88250W        W53235  30.884  40.318   0.456
88251W        W53236   4.415  32.965  11.756
88252W        W53237  31.694   9.560  12.153
88253W        W53238  29.553   5.675  14.939
88254W        W53239  16.754  23.716   3.844
88255W        W53240  31.655  21.539  13.323
88256W        W53241  13.683   4.379   2.732
88257W        W53242  40.564   2.237  14.290
88258W        W53243  25.820  35.817  11.652
88259W        W53244  20.517  30.809  12.448
88260W        W53245  34.380  34.972   0.438
88261W        W53246  34.546  23.085   1.279
88262W        W53247  35.386  27.109  10.766
88263W        W53248   3.822   3.000   0.795
88264W        W53249  28.485  43.217   0.483
88265W        W53250   7.784  24.670  13.886
88266W        W53251  10.352   3.509   4.166
88267W        W53252   0.974   5.496   1.845
88268W        W53253   8.613  40.901   1.402
88269W        W53254  35.401  33.884   0.712
88270W        W53255  16.394  18.501   4.997
88271W        W53256  33.806  13.462   3.779
88272W        W53257  43.141  30.292  11.470
88273W        W53258  10.769  15.849   4.090
88274W        W53259  31.032  27.800  12.436
88275W        W53260   6.844  14.203   2.166
88276W        W53261  14.404  35.969   3.126
88277W        W53262  38.198  28.923   0.077
88278W        W53263  38.921  21.142   3.151
88279W        W53264   7.559   6.918  12.309
88280W        W53265  14.728  16.513   2.691
88281W        W53266  32.004  12.592  10.524
88282W        W53267  20.381  19.830  14.692
88283W        W53268  33.545  36.409   4.211
88284W        W53269  42.802   2.326   4.175
88285W        W53270  14.207  11.892   1.283
88286W        W53271   5.771  32.128  14.895
88287W        W53272   9.387  31.746   3.838
88288W        W53273   1.713   1.321   3.807
88289W        W53274  14.873   0.963  13.715
88290W        W53275   9.112  30.206  13.908
88291W        W53276   7.984  30.926   2.217
88292W        W53277  28.748  30.123   1.183
88293W        W53278  12.071  10.602  10.587
88294W        W53279  25.598   8.677  13.369
88295W        W53280  23.437  24.105   3.281
88296W        W53281  37.972  44.282   1.801
88297W        W53282  39.910  33.863  10.910
88298W        W53283  36.596   3.411   3.506
88299W        W53284  40.438  36.195   3.118
88300W        W53285  17.691  39.456   3.630
88301W        W53286  35.405  18.549   0.270
88302W        W53287   5.868  24.169   0.311
88303W        W53288  21.797  41.524  13.596
88304W        W53289  31.462  43.318   0.816
88305W        W53290  12.248   3.814  10.795
88306W        W53291   3.761  14.230  14.291
88307W        W53292  17.339  24.714   0.816
88308W        W53293  11.716  35.466   4.865
88309W        W53294  22.070  26.740  12.611
88310W        W53295  42.249  27.869  12.503
88311W        W53296  23.364   6.726   1.983
88312W        W53297  25.943  43.390  10.339
88313W        W53298  11.089  17.722  14.097
88314W        W53299  24.919  17.413   4.089
88315W        W53300  13.825  15.788   3.766
88316W        W53301   2.888  39.398  12.074
88317W        W53302   6.860  44.562  14.019
88318W        W53303  41.399   0.360  13.350
88319W        W53304  29.202   8.216  12.979
88320W        W53305  25.210  39.313  11.393
88321W        W53306  25.146  38.264   1.742
88322W        W53307  36.596   9.647   1.272
88323W        W53308   3.650  32.052   3.229
88324W        W53309  11.688  22.012   0.927
88325W        W53310  34.412  31.607  13.990
88326W        W53311  20.163  30.673   4.612
88327W        W53312  28.642  20.977   4.897
88328W        W53313  17.068  11.028   3.977
88329W        W53314  29.409  27.483   2.645
88330W        W53315   4.474  21.624  14.364
88331W        W53316  38.078   6.466   0.717
88332W        W53317  19.822  26.832   4.654
88333W        W53318   8.346  15.043  12.400
88334W        W53319  19.961  23.683   2.301
88335W        W53320   2.343  14.267  14.346
88336W        W53321  25.132   6.879  13.906
88337W        W53322  15.422  10.408   3.465
88338W        W53323  11.776  37.358   0.936
88339W        W53324  11.606   4.771  10.206
88340W        W53325  17.955  15.665  12.611
88341W        W53326  16.529  43.684  14.008
88342W        W53327  22.759  29.669   2.826
88343W        W53328   7.300   7.642   1.828
88344W        W53329   4.464  15.037  13.348
88345W        W53330  36.945  28.654  14.327
88346W        W53331  37.278  10.955  11.889
88347W        W53332  32.433  33.465  10.924
88348W        W53333   1.224  35.859  12.197
88349W        W53334  24.141  35.915   3.313
88350W        W53335  13.221  20.261  10.794
88351W        W53336  23.093  38.386  13.344
88352W        W53337   8.333   5.770  14.500
88353W        W53338  18.416  20.221  13.563
88354W        W53339  11.189  34.166  13.966
88355W        W53340   0.168  15.424  11.553
88356W        W53341  38.803  24.676   3.434
88357W        W53342   9.372  27.052  13.730
88358W        W53343  10.157  19.286  13.087
88359W        W53344  19.659  17.492   1.802
88360W        W53345  21.344   4.424   2.659
88361W        W53346  14.703  10.685   1.260
88362W        W53347  17.164  17.143   2.467
88363W        W53348  30.436   8.325   1.504
88364W        W53349  40.491  23.691   4.168
88365W        W53350   3.858   4.326   2.887
88366W        W53351   6.928   9.652   1.784
88367W        W53352  43.227  40.009   2.755
88368W        W53353  11.830  33.099   4.287
88369W        W53354  28.795  23.795  13.034
88370W        W53355   5.063  43.845  13.165
88371W        W53356   1.781  27.051   2.796
88372W        W53357  11.707  27.539  12.512
88373W        W53358  42.396   4.740  13.369
88374W        W53359   9.677  27.521   0.953
88375W        W53360  30.071   9.858  11.572
88376W        W53361  35.524  36.759   0.848
88377W        W53362  15.838   8.290   4.166
88378W        W53363  17.590  21.464  14.895
88379W        W53364   5.853  14.821   0.351
88380W        W53365  33.107  41.525  13.588
88381W        W53366   2.779  12.049  11.430
88382W        W53367  37.586  41.503  12.908
88383W        W53368   6.908  33.868  12.895
88384W        W53369  41.004  35.539   2.704
88385W        W53370  31.053  13.106  14.773
88386W        W53371  19.598  26.996   4.211
88387W        W53372  37.916  20.341  12.495
88388W        W53373   3.922  24.198  13.853
88389W        W53374  34.440  19.086  13.587
88390W        W53375   2.482  36.048  13.979
88391W        W53376  23.919  16.604  13.857
88392W        W53377  26.616   8.469  13.493
88393W        W53378  24.433  34.521   1.345
88394W        W53379  44.825  35.008   1.321
88395W        W53380   2.047  12.114   2.756
88396W        W53381  35.590  40.742   1.807
88397W        W53382   3.248  18.310  13.736
88398W        W53383   8.414  36.755  14.540
88399W        W53384  41.742  39.179   0.404
88400W        W53385   9.055   4.772  12.896
88401W        W53386  35.420  33.939  14.800
88402W        W53387  12.807  25.651  11.561
88403W        W53388  38.148  33.928   0.197
88404W        W53389   3.895  41.612   1.698
88405W        W53390  31.654   7.142   3.617
88406W        W53391  33.137   9.944  12.008
88407W        W53392  38.004   2.831   2.352
88408W        W53393  35.359  24.384   3.114
88409W        W53394  15.666   4.600   2.292
88410W        W53395  38.628  29.451  12.059
88411W        W53396  21.659  43.991   0.429
88412W        W53397  19.175  36.474   1.905
88413W        W53398  14.090   1.719   3.423
88414W        W53399  26.430  28.663  13.401
88415W        W53400  18.426  31.532   1.877
88416W        W53401  20.958  15.869  13.108
88417W        W53402   2.360  19.610   3.604
88418W        W53403  44.386   8.831  10.500
88419W        W53404  36.033  44.301  10.611
88420W        W53405  25.127  26.043   2.464
88421W        W53406  15.479  21.202  13.149
88422W        W53407  27.413  36.294  12.558
88423W        W53408  34.858  37.806  10.681
88424W        W53409  28.008  39.267   3.800
88425W        W53410  17.227  15.174  10.561
88426W        W53411  30.943  38.628  13.381
88427W        W53412  38.436  13.862  13.480
88428W        W53413  24.172  13.384   4.265
88429W        W53414  12.550  19.913   4.160
88430W        W53415   1.291  31.924   1.665
88431W        W53416  13.097  11.325  13.609
88432W        W53417  35.249   4.203  12.383
88433W        W53418  25.480   3.898   2.201
88434W        W53419  22.214  31.084   3.802
88435W        W53420  28.195  27.070   1.345
88436W        W53421  16.434   7.795   4.527
88437W        W53422   4.884   9.563   4.101
88438W        W53423   7.001  40.828  13.933
88439W        W53424   5.222  10.149   2.132
88440W        W53425  23.902   0.007   1.391
88441W        W53426  17.599  42.760   3.087
88442W        W53427   6.639  41.528  11.882
88443W        W53428  26.246  13.761  11.205
88444W        W53429  38.541   4.253   0.664
88445W        W53430   6.355  35.443  11.604
88446W        W53431  16.334  34.009   1.271
88447W        W53432  39.026  44.252  11.189
88448W        W53433  37.336   7.781  14.011
88449W        W53434  34.418  40.096   3.905
88450W        W53435  37.831  22.317   0.782
88451W        W53436  24.173  16.567   0.673
88452W        W53437   2.486  36.606   0.779
88453W        W53438  16.642  10.573  12.646
88454W        W53439  13.449   7.923   3.671
88455W        W53440  33.499  41.057   4.090
88456W        W53441   4.830   6.964  10.780
88457W        W53442  13.233  33.064   3.202
88458W        W53443  30.596  41.028   3.864
88459W        W53444  30.668  13.336  10.809
88460W        W53445  30.387  33.927   3.366
88461W        W53446  17.260  23.965   0.369
88462W        W53447  27.192  15.751   0.687
88463W        W53448  29.451  39.524   3.421
88464W        W53449  10.759   0.974  14.756
88465W        W53450  28.393  35.480   3.334
88466W        W53451  21.175  34.439   3.941
88467W        W53452   0.688   9.373   1.889
88468W        W53453  44.110  43.074   4.962
88469W        W53454   3.834  33.896   4.539
88470W        W53455  26.418  25.960   3.737
88471W        W53456  19.239   8.731   3.135
88472W        W53457  33.379  12.638  13.605
88473W        W53458  29.986   7.559  11.447
88474W        W53459  21.700  19.623   2.830
88475W        W53460  22.679  36.422  11.562
88476W        W53461  33.074  25.578   0.294
88477W        W53462  36.388  37.457   3.255
88478W        W53463  17.768  37.887  14.040
88479W        W53464  22.432  32.085   0.984
88480W        W53465  14.285  30.993  11.488
88481W        W53466  44.962  14.411   4.571
88482W        W53467  36.764  32.176   4.105
88483W        W53468  24.542   8.584  10.490
88484W        W53469   0.322   6.025   0.290
88485W        W53470  27.032  29.289  11.597
88486W        W53471  22.637  35.294  10.994
88487W        W53472  24.745  43.306  11.147
88488W        W53473  39.640  27.579   4.011
88489W        W53474   2.926  36.592   1.064
88490W        W53475   1.577   5.302   1.830
88491W        W53476  34.960  14.281   4.083
88492W        W53477  13.654  32.981  11.924
88493W        W53478   8.185   2.814  10.649
88494W        W53479  43.603  10.233  14.762
88495W        W53480  16.761  22.773   3.288
88496W        W53481   3.674  17.046  12.004
88497W        W53482  21.633  18.213   0.293
88498W        W53483  43.832  20.058   2.148
88499W        W53484  27.518  25.083   4.618
88500W        W53485  12.871  16.282  13.628
88501W        W53486  37.993  18.740   3.218
88502W        W53487  10.776  28.991   0.912
88503W        W53488  19.749  14.562  13.986
88504W        W53489   3.827   0.907  12.410
88505W        W53490  26.466   4.450  10.719
88506W        W53491   1.401   3.357  11.513
88507W        W53492  34.356   9.784   1.925
88508W        W53493  28.605  34.686   2.277
88509W        W53494  11.785  40.940  10.972
88510W        W53495   1.310  43.283   4.998
88511W        W53496  36.152   6.723  12.982
88512W        W53497   9.316  20.095  13.434
88513W        W53498   0.543  30.125  14.808
88514W        W53499  40.633  42.481   3.331
88515W        W53500   1.360  24.917   2.338
88516W        W53501  14.107  39.228  11.691
88517W        W53502  21.421  12.859   4.151
88518W        W53503   2.249  10.992  13.341
88519W        W53504  34.890  19.529  12.931
88520W        W53505  32.434   6.331  12.468
88521W        W53506   4.947   2.891   3.415
88522W        W53507  12.534  30.388  11.707
88523W        W53508  15.145  16.158  14.378
88524W        W53509  32.263  37.365   0.214
88525W        W53510   0.314  24.466   5.423
88526W        W53511   4.588  42.984   5.042
88527W        W53512  43.756  43.379   4.208
88528W        W53513  11.728  17.683  12.987
88529W        W53514  43.953   0.716  10.741
88530W        W53515   9.429  29.864  13.497
88531W        W53516  33.679  11.822  12.005
88532W        W53517   9.067  36.206  10.817
88533W        W53518  15.610  25.207   3.864
88534W        W53519   0.045  34.013   1.764
88535W        W53520  21.507  33.606  11.140
88536W        W53521  26.052  10.704  10.665
88537W        W53522  12.657   7.557   2.791
88538W        W53523  22.468  10.986  11.118
88539W        W53524   4.202  29.127   3.194
88540W        W53525  42.951  33.066  14.473
88541W        W53526  28.865  29.395  12.848
88542W        W53527   4.862   6.426  12.140
88543W        W53528  32.520  28.037  11.122
88544W        W53529   3.181   5.251  12.090
88545W        W53530  11.898  14.318  14.553
88546W        W53531   3.373  10.682   1.688
88547W        W53532   7.003  10.008  12.954
88548W        W53533  38.575   7.372   2.335
88549W        W53534   2.819  11.302  14.426
88550W        W53535  16.878   3.929   0.919
88551W        W53536  32.693  10.632  12.938
88552W        W53537   1.474  32.772   2.755
88553W        W53538   9.314   6.485   1.638
88554W        W53539   6.132   0.080   4.651
88555W        W53540  32.046  32.425   0.438
88556W        W53541  26.451   9.219  12.319
88557W        W53542   8.446   8.763   0.442
88558W        W53543  39.305   2.452   4.156
88559W        W53544  27.045   0.970   3.168
88560W        W53545  28.585  35.020   3.471
88561W        W53546  13.305  29.087   3.784
88562W        W53547  26.410  21.682  10.488
88563W        W53548   8.942  40.742   1.776
88564W        W53549  24.235  39.064  13.731
88565W        W53550  40.606  26.624  14.256
88566W        W53551  34.441  27.952  13.583
88567W        W53552   5.613   7.824   1.318
88568W        W53553  14.372  31.023  13.897
88569W        W53554  17.394   9.816   4.316
88570W        W53555  16.826  33.936  14.939
88571W        W53556  17.036   6.874  12.447
88572W        W53557  33.268  29.134  11.585
88573W        W53558  25.531  25.728   3.099
88574W        W53559  39.309  10.516   1.972
88575W        W53560   0.761   2.943   4.098
88576W        W53561  15.858  38.850  14.963
88577W        W53562   6.520   8.841   3.584
88578W        W53563  22.164  41.496  10.995
88579W        W53564  42.291  43.533  12.498
88580W        W53565  36.920  19.253   2.789
88581W        W53566   9.265  22.119   0.899
88582W        W53567  29.759  39.905   1.044
88583W        W53568  42.374  42.701   0.313
88584W        W53569  31.679  28.604   2.260
88585W        W53570  32.333  34.586  13.987
88586W        W53571   1.299  30.123  11.002
88587W        W53572  18.320  29.469   0.890
88588W        W53573  43.907  27.855  10.526
88589W        W53574  38.671  10.687  10.463
88590W        W53575  44.916  16.559   3.723
88591W        W53576  20.300  38.835  10.942
88592W        W53577  16.147  28.010   3.500
88593W        W53578  14.278  41.293  10.754
88594W        W53579   0.031  29.642   3.329
88595W        W53580  19.679  40.049  13.090
88596W        W53581  31.367  28.164  13.022
88597W        W53582  13.362  29.573   1.351
88598W        W53583  43.426  12.399  12.526
88599W        W53584   8.462  42.533  11.588
88600W        W53585  37.437  22.256  12.005
88601W        W53586  33.728   0.228  10.126
88602W        W53587  16.557  43.369  11.512
88603W        W53588   5.469   0.197  12.017
88604W        W53589  32.583  39.183  12.090
88605W        W53590   3.299  13.060  12.998
88606W        W53591  25.276  25.897  14.440
88607W        W53592  42.960  39.980  12.866
88608W        W53593  20.346   6.265  11.768
88609W        W53594   2.624  41.305  14.361
88610W        W53595  20.833  35.626  12.002
88611W        W53596  41.775  33.532   1.753
88612W        W53597  32.344   7.257   1.810
88613W        W53598  14.038  41.773  14.953
88614W        W53599  13.584  38.658  13.537
88615W        W53600  37.574  19.967  14.763
88616W        W53601  31.599   6.238   4.086
88617W        W53602   5.998  14.339   0.509
88618W        W53603  39.582   4.433  13.187
88619W        W53604  20.280  24.153   1.500
88620W        W53605  32.446  38.528  14.015
88621W        W53606  33.091  12.578   0.462
88622W        W53607  31.667  38.411   4.172
88623W        W53608  12.583  12.942  11.062
88624W        W53609  23.656  40.850   3.537
88625W        W53610  38.489  15.309  14.978
88626W        W53611   8.634  20.994  12.568
88627W        W53612  20.497  43.854  14.729
88628W        W53613  31.963  38.355   0.978
88629W        W53614  36.594   1.506   4.014
88630W        W53615  44.440  12.768  13.449
88631W        W53616  11.151  40.775   0.359
88632W        W53617   1.910  26.593   1.252
88633W        W53618  40.270  17.662  13.533
88634W        W53619   7.084  22.218  11.569
88635W        W53620  20.245   7.882   3.309
88636W        W53621  44.227  43.171  14.346
88637W        W53622  41.424  16.910  11.510
88638W        W53623  26.910  41.054   3.241
88639W        W53624   2.496  16.674  10.988
88640W        W53625   4.033  33.474   4.768
88641W        W53626  44.371  14.922  12.116
88642W        W53627  42.353  44.239   5.082
88643W        W53628  19.194  10.301   4.638
88644W        W53629  38.580  18.447   9.726
88645W        W53630   2.208  21.096  10.690
88646W        W53631  33.008  10.760   3.286
88647W        W53632  25.980  12.877   0.276
88648W        W53633  37.389  21.487  11.404
88649W        W53634   7.885  18.199   0.218
88650W        W53635  44.263  18.360  12.823
88651W        W53636  34.951  32.011   1.283
88652W        W53637  34.763  11.197   4.406
88653W        W53638  28.353  34.335  11.670
88654W        W53639  42.463  18.170   3.211
88655W        W53640   9.718   8.443   4.925
88656W        W53641   9.402   4.703   2.158
88657W        W53642  31.647  33.147  10.443
88658W        W53643  32.239   4.989   0.132
88659W        W53644  38.352  38.738  14.791
88660W        W53645  22.819  25.078   0.056
88661W        W53646  20.725   0.627   2.175
88662W        W53647  32.938  43.008   3.723
88663W        W53648   0.028   1.938   0.063
88664W        W53649  34.938   2.456   1.267
88665W        W53650  31.523  13.653   1.000
88666W        W53651  31.552   8.407  11.155
88667W        W53652  25.456  42.599  14.713
88668W        W53653  22.089  34.287  14.412
88669W        W53654  11.381  38.841   0.799
88670W        W53655  24.656  38.583   0.410
88671W        W53656  42.846   8.852  11.663
88672W        W53657  32.156  15.927   0.134
88673W        W53658   7.382  43.755  13.023
88674W        W53659   8.408  42.357   4.234
88675W        W53660  14.386  42.778   3.290
88676W        W53661   4.707  16.706   2.873
88677W        W53662  20.178  42.352  13.942
88678W        W53663  39.122  43.727   3.250
88679W        W53664   9.676  16.253  14.283
88680W        W53665  44.150  35.354  13.444
88681W        W53666  14.114  35.602   0.265
88682W        W53667  17.501  16.305  12.707
88683W        W53668  24.174  20.873   9.973
88684W        W53669  30.375  12.380  10.985
88685W        W53670   7.489  30.345   3.328
88686W        W53671  15.866  12.248  10.190
88687W        W53672  42.529  29.219  14.749
88688W        W53673  14.916  12.593  13.936
88689W        W53674  24.677  41.860   4.546
88690W        W53675  44.445  39.101   0.864
88691W        W53676   5.700  26.924  11.640
88692W        W53677  26.493   1.150  14.788
88693W        W53678  30.208  42.121  12.129
88694W        W53679  13.154  39.367   2.758
88695W        W53680  30.499  32.354  10.755
88696W        W53681  13.687  20.252  12.183
88697W        W53682  30.197   3.352   3.169
88698W        W53683  44.770   8.374  13.340
88699W        W53684   2.767  18.220  13.562
88700W        W53685  22.308  16.720  10.820
88701W        W53686   6.243  41.659  10.580
88702W        W53687   4.055   9.746  12.166
88703W        W53688  29.218  33.932   1.289
88704W        W53689  19.670  21.511  10.793
88705W        W53690  18.617  30.723  14.149
88706W        W53691   9.210  38.007  11.261
88707W        W53692  17.516  16.281   0.231
88708W        W53693  25.119  18.236   0.784
88709W        W53694   2.176  14.669   3.741
88710W        W53695  17.732  41.865   2.666
88711W        W53696   1.295  27.161  12.141
88712W        W53697   3.701  12.022  10.581
88713W        W53698  32.785   5.858   2.724
88714W        W53699  11.725   3.300  12.316
88715W        W53700  35.906   1.785  10.476
88716W        W53701   1.330  20.710   2.095
88717W        W53702  12.514   8.677  12.177
88718W        W53703  24.530  29.166  13.025
88719W        W53704  24.067  19.158  13.876
88720W        W53705  40.877   4.624  11.987
88721W        W53706  32.964  37.802  11.562
88722W        W53707  43.808   4.421  13.858
88723W        W53708   4.933  33.647   1.677
88724W        W53709   6.958  23.696  11.572
88725W        W53710   4.308   5.045   0.400
88726W        W53711   8.789  30.600   3.413
88727W        W53712  37.408  39.916  11.975
88728W        W53713  27.737  24.436  14.935
88729W        W53714   4.348  39.253   1.371
88730W        W53715  31.232  37.420   0.397
88731W        W53716  37.750   0.972  12.409
88732W        W53717  13.750   4.494   4.556
88733W        W53718  20.571  24.521   3.733
88734W        W53719  39.356  30.665  12.350
88735W        W53720   3.675   8.806  11.123
88736W        W53721  20.665  25.339  13.769
88737W        W53722  16.616  44.545   0.040
88738W        W53723  30.105  20.113   1.401
88739W        W53724  25.556  15.282   0.942
88740W        W53725  41.384  35.785  12.392
88741W        W53726  42.524  19.708   1.938
88742W        W53727  32.147  31.647  14.901
88743W        W53728  12.122  28.587   0.688
88744W        W53729  19.523  26.666  13.943
88745W        W53730  16.046   0.192   3.292
88746W        W53731   1.698  17.023   2.264
88747W        W53732  15.652  24.495   0.280
88748W        W53733  30.636  43.438   1.959
88749W        W53734   2.245  37.872  13.020
88750W        W53735  43.346   6.689  14.357
88751W        W53736  31.704  25.100  13.586
88752W        W53737  18.165   7.428  12.853
88753W        W53738  27.682  42.162   1.894
88754W        W53739  28.675  32.698  11.045
88755W        W53740  24.443  37.971   0.396
88756W        W53741  39.853  20.194  13.883
88757W        W53742  14.337  13.392   4.673
88758W        W53743  13.150  33.215  10.705
88759W        W53744   7.830  21.316   0.093
88760W        W53745   7.221  36.430   5.188
88761W        W53746  41.018  27.460   3.758
88762W        W53747   0.878  17.275  13.618
88763W        W53748  22.157  36.430   3.204
88764W        W53749  42.082  14.727   4.333
88765W        W53750  24.299  43.880  13.011
88766W        W53751  12.328  13.320   1.285
88767W        W53752  37.183  36.629  14.833
88768W        W53753  31.940  42.570   2.855
88769W        W53754   2.785  21.171   1.447
88770W        W53755  38.554   0.227   3.654
88771W        W53756   8.159   5.280  12.404
88772W        W53757  43.842  33.775  12.247
88773W        W53758  24.285  21.002  11.551
88774W        W53759  31.128  32.344   0.394
88775W        W53760  26.658   5.955  13.009
88776W        W53761  14.085   9.397   3.699
88777W        W53762  33.079   4.409   4.328
88778W        W53763  40.914  14.059  12.538
88779W        W53764  24.782  43.326  14.994
88780W        W53765  30.911  15.797   4.409
88781W        W53766  42.698  27.630  12.114
88782W        W53767   7.171  20.114  14.015
88783W        W53768  21.278  37.585  13.463
88784W        W53769  16.240  29.291   5.444
88785W        W53770   8.849  13.997   3.760
88786W        W53771  17.576   4.915  13.998
88787W        W53772  13.845  42.291   0.036
88788W        W53773   8.802  43.781   5.101
88789W        W53774   3.462  44.295  13.713
88790W        W53775  39.345  39.753   1.940
88791W        W53776  22.415   3.556  10.646
88792W        W53777  25.384  24.532   4.800
88793W        W53778  13.236  37.750  12.648
88794W        W53779  39.453   5.677   2.291
88795W        W53780  12.244  23.547  11.863
88796W        W53781   3.189   6.368  12.871
88797W        W53782  13.283  38.880  14.810
88798W        W53783  21.161  30.726  12.125
88799W        W53784  33.497  20.179   0.267
88800W        W53785  31.981  16.712  12.410
88801W        W53786   8.934  22.616  11.574
88802W        W53787  13.289  35.067   0.201
88803W        W53788   1.963  27.668  10.762
88804W        W53789   8.358  41.297  11.114
88805W        W53790  12.080   5.311   1.735
88806W        W53791  37.722  34.570  14.617
88807W        W53792  29.464  39.290  11.953
88808W        W53793  38.285  32.078  14.524
88809W        W53794  42.568  21.006   3.541
88810W        W53795  18.300  42.343  14.732
88811W        W53796  13.314  15.137   1.475
88812W        W53797  27.522  33.632  12.892
88813W        W53798   5.230   0.296  14.009
88814W        W53799   4.784  10.340   1.319
88815W        W53800   1.625  33.530   4.115
88816W        W53801  11.299   1.751  14.462
88817W        W53802  37.813  33.666  10.144
88818W        W53803  38.051   7.631  11.576
88819W        W53804   3.364   8.074  11.943
88820W        W53805  42.968  41.316  12.498
88821W        W53806  34.981   8.433   0.632
88822W        W53807  37.612  19.140   0.423
88823W        W53808  17.996   7.902  12.797
88824W        W53809  23.719   7.900   2.759
88825W        W53810  14.518  21.277   1.516
88826W        W53811   0.373   1.850   3.595
88827W        W53812  41.742   3.510  13.419
88828W        W53813  19.787  30.093   9.604
88829W        W53814  28.176   5.422  14.591
88830W        W53815  42.659  12.125  12.512
88831W        W53816  17.544  38.743   1.166
88832W        W53817  26.507  14.913  10.770
88833W        W53818  12.828  40.987  12.859
88834W        W53819  35.010   9.239  12.915
88835W        W53820  13.892  32.868   4.634
88836W        W53821  17.216  43.417  12.243
88837W        W53822  27.040  28.447   3.171
88838W        W53823  16.327  20.179  10.660
88839W        W53824  17.152   8.657   3.235
88840W        W53825  22.828  37.869   2.150
88841W        W53826   8.269   3.228   0.435
88842W        W53827  14.505  36.356  14.933
88843W        W53828  32.675   2.492  14.279
88844W        W53829   5.924  16.100   2.602
88845W        W53830  14.131   1.392   3.019
88846W        W53831  26.006  29.393   4.029
88847W        W53832  17.464  33.077   1.961
88848W        W53833  11.279  21.877   4.332
88849W        W53834   9.449   1.550  10.834
88850W        W53835  12.671   8.848  11.681
88851W        W53836  18.297  43.674   1.604
88852W        W53837  16.554  37.928   3.602
88853W        W53838   3.376  39.536  10.768
88854W        W53839  15.032  14.346   2.243
88855W        W53840  35.344  28.100  10.771
88856W        W53841  43.718  17.654  13.024
88857W        W53842  19.770  26.397  14.988
88858W        W53843  32.535   3.870  10.526
88859W        W53844  15.195  43.325  14.394
88860W        W53845  34.424  18.531   1.764
88861W        W53846  39.170  17.285   2.904
88862W        W53847   8.130  32.863  10.998
88863W        W53848  11.584  32.254   5.076
88864W        W53849  14.104   3.940   3.528
88865W        W53850  26.415  20.324  10.870
88866W        W53851  13.372   3.388   4.162
88867W        W53852  21.616   9.856   4.579
88868W        W53853   1.721  24.183  11.667
88869W        W53854   0.447  22.326   1.311
88870W        W53855   6.510  21.966  11.107
88871W        W53856  37.464  20.456  14.932
88872W        W53857  16.371  25.664   4.212
88873W        W53858  21.966  22.102   1.009
88874W        W53859   9.542  43.531   1.264
88875W        W53860  39.854  34.497  13.340
88876W        W53861  13.754  40.884   1.967
88877W        W53862  12.557  42.040   4.824
88878W        W53863  26.653  17.506  13.046
88879W        W53864  13.760  15.804   1.096
88880W        W53865  11.794  40.265   3.626
88881W        W53866  36.291  37.539   2.717
88882W        W53867   0.780  27.227  13.423
88883W        W53868  22.385   4.748  11.649
88884W        W53869  34.472   4.766   2.356
88885W        W53870  12.557  10.756   4.399
88886W        W53871  25.482  23.478   2.865
88887W        W53872  29.359  14.621  11.553
88888W        W53873  41.973  43.499   2.274
88889W        W53874   1.919  40.519   4.536
88890W        W53875  35.799   5.471  10.595
88891W        W53876  20.192  10.187   1.937
88892W        W53877  21.156  15.704   2.774
88893W        W53878  35.812   0.399   3.786
88894W        W53879  35.389  31.035   0.381
88895W        W53880  18.035  16.682  10.189
88896W        W53881  37.803  34.964   1.445
88897W        W53882  38.448  22.085  10.538
88898W        W53883  44.998  34.007   1.224
88899W        W53884   5.765  39.094   2.168
88900W        W53885  11.612  41.888   1.791
88901W        W53886  39.540  12.654  11.199
88902W        W53887  14.224  26.841  11.145
88903W        W53888  15.807  43.738  12.369
88904W        W53889  13.342  42.831  12.066
88905W        W53890  29.506  27.142  11.819
88906W        W53891  16.008  24.154  14.842
88907W        W53892  13.678   2.960  12.018
88908W        W53893  12.871  42.836   0.975
88909W        W53894  42.077  16.536  14.638
88910W        W53895  20.703  22.005   0.391
88911W        W53896  33.127  25.668  11.512
88912W        W53897  17.380  25.777  12.993
88913W        W53898  37.002  38.487   4.145
88914W        W53899  44.404  12.887  10.072
88915W        W53900   7.568  29.998   4.579
88916W        W53901  37.323  26.142   1.089
88917W        W53902  34.506  37.661   0.323
88918W        W53903  15.859  23.791  10.240
88919W        W53904   6.617  42.189   3.626
88920W        W53905  42.953  44.486  11.530
88921W        W53906  28.176  36.487  12.075
88922W        W53907  16.474  12.108   0.072
88923W        W53908  17.054  10.409   3.262
88924W        W53909  21.701   2.764  14.308
88925W        W53910  11.333  18.308  10.533
88926W        W53911  15.335   4.186  10.585
88927W        W53912  35.945  19.623   4.692
88928W        W53913  21.627  17.142   3.220
88929W        W53914   2.518   5.129  10.596
88930W        W53915  41.740  40.692  14.378
88931W        W53916   4.194  24.993  14.369
88932W        W53917  43.837  19.069   0.405
88933W        W53918  28.475   8.736   2.358
88934W        W53919   6.248   8.766   4.565
88935W        W53920   6.314  26.831   0.935
88936W        W53921  25.120  20.564   0.392
88937W        W53922  36.581  42.925  10.424
88938W        W53923  14.154  41.316  13.078
88939W        W53924   3.749  39.520   3.633
88940W        W53925  44.739   0.265  14.056
88941W        W53926  20.000  35.066  12.230
88942W        W53927  26.300  32.102   1.018
88943W        W53928  12.708  41.235   2.712
88944W        W53929  10.877  27.632  14.530
88945W        W53930  13.341  37.760   4.870
88946W        W53931  14.812  41.907   1.325
88947W        W53932  17.236  22.305   0.977
88948W        W53933   5.460  20.463   0.400
88949W        W53934  42.721   6.132   2.691
88950W        W53935  38.889  15.250  10.993
88951W        W53936  37.391  38.383   4.807
88952W        W53937  10.725  35.149   0.696
88953W        W53938  14.319  22.810  13.466
88954W        W53939   2.803  41.409   3.800
88955W        W53940   5.712  19.213   1.375
88956W        W53941   3.923  33.027   1.495
88957W        W53942  13.189   8.759  13.392
88958W        W53943  33.789   6.722  14.496
88959W        W53944  15.660  36.420   2.713
88960W        W53945  12.232  34.836  12.086
88961W        W53946  43.932  40.710  11.348
88962W        W53947  22.680  17.121   3.617
88963W        W53948   0.163   5.756  11.162
88964W        W53949  37.865  38.053   4.072
88965W        W53950   6.886  19.291   3.296
88966W        W53951  27.208   4.363  12.003
88967W        W53952  38.827  14.645   3.019
88968W        W53953   2.063  22.616   1.667
88969W        W53954  16.300  12.294  10.522
88970W        W53955  13.589  13.769  14.483
88971W        W53956  25.805   7.686  10.951
88972W        W53957  23.925   0.925  14.059
88973W        W53958   7.966  26.141  14.108
88974W        W53959  16.647  18.518  10.270
88975W        W53960  31.156   9.835   1.211
88976W        W53961  33.043  19.189   0.281
88977W        W53962  39.005  25.227  14.501
88978W        W53963  29.928  34.591  11.180
88979W        W53964   0.226  12.112   0.312
88980W        W53965  16.857  42.472   4.894
88981W        W53966   1.430  31.654  13.818
88982W        W53967   9.400  39.172  10.562
88983W        W53968   6.185  16.326  11.684
88984W        W53969  40.443   9.810  12.282
88985W        W53970   7.222  26.605  14.145
88986W        W53971   5.907   9.830   1.700
88987W        W53972   0.711   0.963  14.338
88988W        W53973  27.074  44.115   4.902
88989W        W53974  31.485  19.332  14.853
88990W        W53975   7.673  22.606   0.318
88991W        W53976  43.097  37.951   4.179
88992W        W53977   4.775  35.502   0.824
88993W        W53978  10.372   9.505  14.363
88994W        W53979  34.645  17.147  12.866
88995W        W53980  32.980  43.819  14.395
88996W        W53981  23.530  10.213   4.112
88997W        W53982  31.569   9.447   0.331
88998W        W53983  15.998  23.243   4.269
88999W        W53984  25.083  12.364   1.727
89000W        W53985  22.053  20.719  13.322
89001W        W53986  13.558  10.298   4.602
89002W        W53987  21.261  37.459  11.483
89003W        W53988  27.548  41.331   0.638
89004W        W53989  34.077  35.546  12.389
89005W        W53990  13.418  42.900  13.046
89006W        W53991  24.587  34.450  11.896
89007W        W53992   4.225  22.341  11.991
89008W        W53993  40.857   6.138  12.054
89009W        W53994  17.878  30.652   4.058
89010W        W53995  30.137  42.077  13.482
89011W        W53996  44.997  41.844   4.558
89012W        W53997  34.817   3.448  11.865
89013W        W53998  20.188  21.260  13.731
89014W        W53999  31.014  43.966   5.071
89015W        W54000  24.750  26.295   1.298
89016W        W54001  39.255  35.904   2.666
89017W        W54002  43.888   4.917  11.311
89018W        W54003  40.514  33.380   0.331
89019W        W54004   9.101  25.183  12.046
89020W        W54005  31.569  17.351  12.336
89021W        W54006  26.367  44.580  12.665
89022W        W54007  13.079   8.242  13.412
89023W        W54008   6.704  35.924   4.622
89024W        W54009  21.202  36.750   5.001
89025W        W54010  30.210  22.629   0.792
89026W        W54011  18.380   2.109  14.719
89027W        W54012   3.511  37.506  12.142
89028W        W54013  14.229   7.302  11.163
89029W        W54014   2.334   8.856   9.991
89030W        W54015  32.307  12.943  14.912
89031W        W54016  28.043  36.630  14.438
89032W        W54017  23.252  28.211  14.521
89033W        W54018  13.974  22.109   0.041
89034W        W54019   6.608  42.408   2.267
89035W        W54020  23.553  20.275   4.356
89036W        W54021   0.450  21.587   3.285
89037W        W54022  28.665  35.082  11.169
89038W        W54023   5.423  36.169  10.643
89039W        W54024  26.326  28.645   3.672
89040W        W54025  10.446  17.318   3.556
89041W        W54026  24.281   0.298   2.735
89042W        W54027   3.547   6.061  13.126
89043W        W54028  42.191   6.436   1.292
89044W        W54029  38.135   9.662   3.400
89045W        W54030   6.145  26.566   3.391
89046W        W54031  24.592  37.375   0.720
89047W        W54032  35.479  42.310  12.121
89048W        W54033  27.547  22.127   4.218
89049W        W54034   4.625  21.685  12.139
89050W        W54035   8.934  11.366   0.630
89051W        W54036  41.764  30.564  10.895
89052W        W54037   9.268  24.986   0.898
89053W        W54038  15.627  42.745   2.233
89054W        W54039  21.716  25.099   2.108
89055W        W54040   6.002  19.242   3.650
89056W        W54041   4.708  31.861  14.856
89057W        W54042  32.384  24.074   1.445
89058W        W54043  12.589  35.018   0.851
89059W        W54044   3.913  36.891  12.605
89060W        W54045  42.709  28.548  13.387
89061W        W54046  27.090  10.736   3.155
89062W        W54047  42.954  18.595   3.682
89063W        W54048   3.625  18.536   4.713
89064W        W54049   5.176  30.239   3.779
89065W        W54050  11.106  18.014   1.310
89066W        W54051   5.113  37.457  10.670
89067W        W54052  15.536  34.025  12.356
89068W        W54053  27.914  39.750   4.970
89069W        W54054   1.484   8.850   0.773
89070W        W54055  38.813  30.955   1.285
89071W        W54056   6.231  44.459   4.129
89072W        W54057   1.803  34.417   2.286
89073W        W54058  15.184   2.396  11.596
89074W        W54059  27.139  35.378   2.152
89075W        W54060  25.429  39.410  13.606
89076W        W54061  15.866  15.683  14.369
89077W        W54062  21.157  37.455  13.968
89078W        W54063  29.632   0.996  13.485
89079W        W54064  17.167  42.964  12.520
89080W        W54065   2.898  23.779  13.790
89081W        W54066  40.130  27.448   0.421
89082W        W54067  37.979   4.950  13.978
89083W        W54068  32.960   2.372   3.165
89084W        W54069  14.684   7.668   4.593
89085W        W54070  20.975  24.452   2.100
89086W        W54071  13.263   6.789   1.752
89087W        W54072  33.112  33.534   0.374
89088W        W54073  26.418  41.511   1.872
89089W        W54074  36.396  22.792  10.332
89090W        W54075  28.934  14.409   5.335
89091W        W54076  12.017   7.468  11.917
89092W        W54077  44.874   9.693  13.903
89093W        W54078  26.681  34.940   0.946
89094W        W54079  16.845  32.905  12.335
89095W        W54080   1.441  12.325  12.391
89096W        W54081  29.199  23.644   3.230
89097W        W54082   9.371  13.328   0.437
89098W        W54083  14.190   1.991   1.586
89099W        W54084  33.034  17.885  11.929
89100W        W54085  36.618  19.520  10.955
89101W        W54086  38.551   0.609  11.268
89102W        W54087  18.698   4.036   2.272
89103W        W54088  39.430  13.611   1.438
89104W        W54089  23.010  28.690   3.759
89105W        W54090  34.796  38.122   1.427
89106W        W54091  35.636  28.811  13.486
89107W        W54092   0.886  40.355  12.510
89108W        W54093   3.196   8.120  12.755
89109W        W54094  37.122  33.488  12.936
89110W        W54095  18.578  19.132   2.818
89111W        W54096  41.371  35.561   0.245
89112W        W54097  35.911  13.657  14.382
89113W        W54098   1.786   6.026   3.762
89114W        W54099   5.166   2.290  11.764
89115W        W54100  13.615   7.657   1.773
89116W        W54101  15.233  41.105   0.450
89117W        W54102  13.011   5.340  13.326
89118W        W54103  44.464  14.180  14.912
89119W        W54104  18.871   3.859   5.143
89120W        W54105  11.724  10.234  14.940
89121W        W54106  27.634  23.140   3.796
89122W        W54107   5.121  14.090  10.931
89123W        W54108  11.467  24.812   0.681
89124W        W54109  36.888  24.695  11.357
89125W        W54110  26.715  44.179   4.109
89126W        W54111  15.170  32.402  12.441
89127W        W54112  40.792  15.312  14.894
89128W        W54113  24.479  32.687   3.171
89129W        W54114   4.982  40.432   0.935
89130W        W54115   8.779  30.547   4.754
89131W        W54116  38.201  32.321   3.197
89132W        W54117   8.793  22.542   4.521
89133W        W54118  43.141   7.970  13.869
89134W        W54119   2.188  34.081  12.492
89135W        W54120  40.256  10.176  14.426
89136W        W54121   5.308  26.545   4.637
89137W        W54122  34.965   2.105   4.503
89138W        W54123   3.266   2.003   3.271
89139W        W54124  26.603   8.579   4.163
89140W        W54125  31.040  38.978   2.833
89141W        W54126   1.908  10.447  11.198
89142W        W54127  44.479  15.414  12.057
89143W        W54128  14.134  33.025  13.093
89144W        W54129  26.181  24.033  13.522
89145W        W54130  22.989  39.355   3.401
89146W        W54131  14.097   4.988   2.749
89147W        W54132   8.399  44.647   2.124
89148W        W54133  25.162  37.256   0.243
89149W        W54134  40.994  41.094   2.694
89150W        W54135  34.515  39.351   0.876
89151W        W54136   3.343   9.873   2.051
89152W        W54137  24.867  44.419  10.704
89153W        W54138  11.855  39.162   2.230
89154W        W54139   9.674  40.093   1.284
89155W        W54140  19.664  18.750   9.684
89156W        W54141  36.573   3.289  10.478
89157W        W54142  36.768  43.800   1.505
89158W        W54143  26.675   0.427   9.721
89159W        W54144  32.903  41.989  13.442
89160W        W54145   1.708  13.675   0.767
89161W        W54146   4.206  36.547  12.345
89162W        W54147   6.907   7.325   0.268
89163W        W54148   5.782   2.834   3.725
89164W        W54149  39.968  32.872   3.754
89165W        W54150  43.731   7.939   2.833
89166W        W54151   3.328  39.218   2.944
89167W        W54152  44.964  38.491  14.523
89168W        W54153  15.193  42.299  12.611
89169W        W54154  16.037  38.467  12.890
89170W        W54155  35.334  12.427   4.936
89171W        W54156  40.423   0.452   4.636
89172W        W54157  31.565  27.601   2.464
89173W        W54158   9.236  32.010   0.759
89174W        W54159  29.893  38.450   0.807
89175W        W54160  16.831   4.661   2.752
89176W        W54161   8.116  16.689  10.666
89177W        W54162  37.596  43.871   1.113
89178W        W54163  21.698   5.795  11.606
89179W        W54164  19.125  27.961   4.247
89180W        W54165  22.942  35.990  13.543
89181W        W54166  24.609  16.272  13.475
89182W        W54167  28.943  36.819   2.764
89183W        W54168   8.679  25.384   4.621
89184W        W54169  39.732  10.606   1.698
89185W        W54170  34.848  16.087  11.972
89186W        W54171   2.428  44.699   0.948
89187W        W54172  25.900  21.821  12.909
89188W        W54173  30.356  24.430  14.953
89189W        W54174  12.127  36.854   3.850
89190W        W54175  31.387  28.546   0.480
89191W        W54176  20.449  13.090   4.345
89192W        W54177  31.827  29.941  12.111
89193W        W54178   4.975  19.303   3.589
89194W        W54179  36.639  30.028  14.245
89195W        W54180   4.349  10.068   1.214
89196W        W54181   3.296   4.824   0.360
89197W        W54182  21.800  16.000   0.739
89198W        W54183  29.032  19.009  11.106
89199W        W54184  34.981  36.442   3.620
89200W        W54185  13.608  35.401  11.924
89201W        W54186  39.053  13.395  14.538
89202W        W54187  13.306  17.589  13.137
89203W        W54188   2.654   5.316   0.848
89204W        W54189  14.695  11.094  14.368
89205W        W54190  37.466  44.507   3.869
89206W        W54191  43.512  10.955   0.897
89207W        W54192   8.567  25.787   3.322
89208W        W54193  17.872  10.559  14.554
89209W        W54194  44.790  23.234  13.871
89210W        W54195  35.950   2.143   0.383
89211W        W54196  38.516  17.407   3.424
89212W        W54197  15.773   7.331  12.423
89213W        W54198   3.833  27.909  14.419
89214W        W54199  38.907  36.595  10.761
89215W        W54200  17.826  21.452  12.199
89216W        W54201  20.946   3.106  11.661
89217W        W54202  35.527  41.340  11.850
89218W        W54203  20.760  31.412   3.271
89219W        W54204  15.872  35.690  14.932
89220W        W54205  19.018  18.259   0.925
89221W        W54206   3.915  25.983   4.278
89222W        W54207  37.318  41.409   2.668
89223W        W54208  25.115   3.777   3.202
89224W        W54209   8.681   8.224  14.430
89225W        W54210   2.779  25.071   2.034
89226W        W54211  44.554  36.323   2.340
89227W        W54212  44.005  21.233   2.754
89228W        W54213  17.431  42.458  12.656
89229W        W54214   7.018  44.415   3.233
89230W        W54215  30.513  26.014  14.994
89231W        W54216  43.321  21.278   4.662
89232W        W54217  37.987  14.791   0.313
89233W        W54218  42.711  21.112  11.089
89234W        W54219   7.655  35.960  14.011
89235W        W54220   9.987  27.957   1.058
89236W        W54221  27.124  17.303  13.874
89237W        W54222  10.912  33.716  12.626
89238W        W54223  20.218  44.985  13.880
89239W        W54224  23.416  38.804  12.308
89240W        W54225  41.521  25.808  14.125
89241W        W54226  14.406  41.257  14.914
89242W        W54227   4.499  36.252  12.059
89243W        W54228  21.250  20.671   2.077
89244W        W54229  35.916  41.130   4.273
89245W        W54230  39.336   1.579  10.744
89246W        W54231   6.747  44.319   2.788
89247W        W54232  33.652  34.576  11.219
89248W        W54233  24.184   9.519  11.341
89249W        W54234  37.902  25.003  13.390
89250W        W54235  44.896  36.441  13.524
89251W        W54236  38.490  29.444   4.115
89252W        W54237  14.526  13.838  12.324
89253W        W54238  23.143  13.128  11.980
89254W        W54239  39.313  41.789   0.938
89255W        W54240  23.591  31.872  14.478
89256W        W54241  14.516  11.818  13.400
89257W        W54242  12.894  21.774   1.437
89258W        W54243  37.067  26.125   1.917
89259W        W54244  29.891  20.791  11.947
89260W        W54245  43.713   0.852   2.433
89261W        W54246  31.899  20.786   3.122
89262W        W54247   5.720  38.480   2.700
89263W        W54248  39.427   5.722  10.546
89264W        W54249  35.054  28.340   3.181
89265W        W54250  17.206  37.999   4.400
89266W        W54251  23.674  12.869   1.718
89267W        W54252  36.489  25.367  11.448
89268W        W54253  19.029  34.440   1.791
89269W        W54254  35.005  24.118  13.040
89270W        W54255  16.537  38.815  10.579
89271W        W54256  20.653  31.048   0.717
89272W        W54257  26.163   6.872  10.355
89273W        W54258  30.784  11.168  13.517
89274W        W54259  43.719  21.625   3.995
89275W        W54260   8.196  11.934   3.200
89276W        W54261  41.930   0.263   4.647
89277W        W54262  28.733  23.335   0.312
89278W        W54263   7.191  28.128  11.617
89279W        W54264   1.279  38.813   2.962
89280W        W54265  17.082  41.998  14.338
89281W        W54266   6.183  19.672  14.903
89282W        W54267  21.364  32.197   2.706
89283W        W54268  24.230  27.044  13.281
89284W        W54269   0.935  33.799   1.629
89285W        W54270  25.624   6.415   4.491
89286W        W54271   1.980  37.072  14.773
89287W        W54272  13.506  35.019   4.280
89288W        W54273  43.370  16.679  14.798
89289W        W54274  29.717  13.762  14.466
89290W        W54275  21.672   2.717   4.114
89291W        W54276  42.411  43.325   4.126
89292W        W54277  38.884  17.160  10.051
89293W        W54278  21.094   8.797  14.046
89294W        W54279  23.165  34.618   0.814
89295W        W54280  42.260  39.835  12.071
89296W        W54281  22.962  34.368   2.394
89297W        W54282  10.756  12.223  11.140
89298W        W54283   4.343  42.301  10.695
89299W        W54284  44.310  15.227  11.606
89300W        W54285  18.391  33.034   2.808
89301W        W54286   3.399  16.479  12.477
89302W        W54287  38.481   8.148  11.028
89303W        W54288  14.619  18.144   4.184
89304W        W54289  34.201  24.801  11.135
89305W        W54290  36.071   7.401  11.070
89306W        W54291   7.616  16.522   3.408
89307W        W54292  18.160  10.395   1.757
89308W        W54293  43.943  38.762  11.702
89309W        W54294  37.067  16.482   2.770
89310W        W54295  20.630  32.815  13.945
89311W        W54296  19.046  17.219  10.053
89312W        W54297  25.115  25.587   1.731
89313W        W54298   0.984   4.233   3.641
89314W        W54299  44.395  12.494   2.247
89315W        W54300  20.290  37.444  14.454
89316W        W54301   7.148  25.056   2.685
89317W        W54302   0.933  44.676  12.449
89318W        W54303   7.013   4.463  10.361
89319W        W54304  21.723  42.248  11.050
89320W        W54305   7.828  10.414   3.635
89321W        W54306  28.793   7.429  14.300
89322W        W54307  27.464  34.384  13.954
89323W        W54308   4.861  12.847   2.458
89324W        W54309   6.827  23.458  12.580
89325W        W54310  37.994  16.314  10.371
89326W        W54311  18.122   7.858   2.214
89327W        W54312  27.881  12.257  11.009
89328W        W54313  23.996  44.279  10.477
89329W        W54314   7.162   1.947   5.048
89330W        W54315  11.291   9.734  11.537
89331W        W54316   9.072  44.434  10.721
89332W        W54317  27.163   8.766  14.285
89333W        W54318   8.990  17.163  10.413
89334W        W54319   4.877  17.020  13.897
89335W        W54320  34.405  14.780   4.722
89336W        W54321  19.726  30.082   2.310
89337W        W54322   6.789  11.364   4.079
89338W        W54323  17.484  18.437   3.061
89339W        W54324  22.787  12.139   3.670
89340W        W54325  21.893  22.146  14.559
89341W        W54326  36.360  15.675  11.635
89342W        W54327  36.136   4.395   0.814
89343W        W54328  35.267   4.151   1.855
89344W        W54329   7.982  26.469   1.361
89345W        W54330   2.512  10.401   1.325
89346W        W54331  41.893  16.758  13.621
89347W        W54332  10.395  30.140   0.800
89348W        W54333  18.816  13.521   4.099
89349W        W54334   1.999  17.140   3.660
89350W        W54335   2.203  10.916   2.389
89351W        W54336  38.063  17.475  11.982
89352W        W54337  12.402  40.846   1.365
89353W        W54338   2.845  36.336  14.228
89354W        W54339  29.780  25.040   0.532
89355W        W54340  40.751  10.410   4.590
89356W        W54341  21.146  38.028  14.893
89357W        W54342  24.072  39.986  12.579
89358W        W54343  25.095  26.129   2.985
89359W        W54344  10.161  25.604   2.671
89360W        W54345  29.952  14.827   3.197
89361W        W54346   3.294   6.285  10.701
89362W        W54347  21.631  29.829  14.360
89363W        W54348  37.274   6.000  11.749
89364W        W54349  32.160  10.634  13.124
89365W        W54350   5.618  40.017   4.595
89366W        W54351  36.853  11.351  14.948
89367W        W54352   4.136  19.574   2.808
89368W        W54353  38.581  16.494   4.605
89369W        W54354  21.563  16.544  12.887
89370W        W54355   9.838  43.227  13.455
89371W        W54356   9.797  17.392  11.623
89372W        W54357  22.831  21.210  13.417
89373W        W54358  14.256  11.952   2.199
89374W        W54359  24.237  32.928  11.395
89375W        W54360  37.344  12.357   4.316
89376W        W54361  31.928   2.020   2.301
89377W        W54362  17.264  44.761   2.049
89378W        W54363   6.814  38.481   3.828
89379W        W54364  33.054   1.796  12.414
89380W        W54365  10.335  21.323  11.132
89381W        W54366  19.202   7.318   3.295
89382W        W54367  19.702   7.127   4.915
89383W        W54368  17.170  19.526  12.418
89384W        W54369  33.370   3.865   3.386
89385W        W54370  31.893  12.512   4.688
89386W        W54371  18.998  28.982  14.454
89387W        W54372  31.404  44.198  13.091
89388W        W54373   1.244  39.599   1.739
89389W        W54374  10.931  14.781  13.312
89390W        W54375  17.635  36.238   3.015
89391W        W54376  30.877  16.750   0.263
89392W        W54377  20.189  22.123   0.497
89393W        W54378  20.200  25.063  14.817
89394W        W54379  17.736  27.812  11.980
89395W        W54380  15.447  16.976  11.017
89396W        W54381  38.124  20.622  13.939
89397W        W54382  40.882  22.223   4.171
89398W        W54383   8.172  12.951   0.991
89399W        W54384  26.706  34.103  14.475
89400W        W54385   3.495  17.678  10.413
89401W        W54386  37.433  40.347  12.420
89402W        W54387  34.415   2.392  13.417
89403W        W54388  23.142  28.467   2.529
89404W        W54389   2.523  28.071   4.606
89405W        W54390   5.488   1.962  14.535
89406W        W54391   1.700  16.093   2.191
89407W        W54392  38.994  41.770  12.995
89408W        W54393  23.799  37.939   2.187
89409W        W54394  41.424  24.996  12.346
89410W        W54395   8.935   9.752   2.769
89411W        W54396  22.150  39.549   3.945
89412W        W54397  24.464   0.289  12.128
89413W        W54398   4.903  23.830   4.298
89414W        W54399  11.180   4.315   4.904
89415W        W54400  28.168  44.850  11.158
89416W        W54401  24.795   7.132  10.979
89417W        W54402  37.779  37.304   4.687
89418W        W54403   8.183  16.380   0.419
89419W        W54404  24.129  35.337   4.652
89420W        W54405   5.084  27.929  13.323
89421W        W54406  35.227   3.827  13.637
89422W        W54407  16.668   5.382  11.589
89423W        W54408   8.390   6.013  13.778
89424W        W54409  23.003  18.138  10.629
89425W        W54410  32.240  39.472  13.506
89426W        W54411  11.739  25.218  12.410
89427W        W54412  26.473  44.357   3.649
89428W        W54413  31.090  19.445   3.109
89429W        W54414  27.552   5.204  13.286
89430W        W54415  40.263  37.590   2.181
89431W        W54416  27.926  17.790  10.628
89432W        W54417  18.442  10.787  14.584
89433W        W54418  31.366  34.813  13.332
89434W        W54419  18.415  11.869  11.178
89435W        W54420  37.023   6.369  12.028
89436W        W54421  30.882   4.438   2.845
89437W        W54422  31.408  39.060   1.811
89438W        W54423   6.636  21.481   2.308
89439W        W54424  33.880  18.640   2.323
89440W        W54425  31.157  29.160  12.062
89441W        W54426  37.138  13.111  13.899
89442W        W54427  15.330  35.093  14.009
89443W        W54428  31.267  40.080   0.735
89444W        W54429   7.869  38.055   4.776
89445W        W54430  26.995  33.683  14.524
89446W        W54431  14.285  17.316  13.918
89447W        W54432   6.836  15.175  12.518
89448W        W54433  17.729   9.592  10.743
89449W        W54434  12.946  10.127   1.907
89450W        W54435  11.797  22.971  14.852
89451W        W54436  27.982  14.149  13.971
89452W        W54437  27.744  37.799  12.429
89453W        W54438  29.219  26.125   1.494
89454W        W54439   5.475  18.136   0.669
89455W        W54440  20.534  23.105  11.190
89456W        W54441  39.388  35.075   0.840
89457W        W54442   0.433   5.631  13.455
89458W        W54443  22.032   9.638   1.353
89459W        W54444  12.713  18.719  11.709
89460W        W54445  37.959  42.918  12.062
89461W        W54446  21.813   7.262  13.468
89462W        W54447  24.058   1.963  14.962
89463W        W54448  21.452  33.160  11.409
89464W        W54449  35.314  13.113  10.703
89465W        W54450   8.813  38.006   2.761
89466W        W54451  27.972  38.084   2.332
89467W        W54452  36.325   1.751  14.300
89468W        W54453  43.823  30.071  14.334
89469W        W54454  43.657  32.660  13.819
89470W        W54455   7.000  10.771   0.974
89471W        W54456  35.002   3.965   3.113
89472W        W54457  35.123  36.435   2.186
89473W        W54458   0.829   4.956   3.236
89474W        W54459  14.981  35.314   1.387
89475W        W54460  30.419  25.412   3.216
89476W        W54461  44.239   3.161   2.218
89477W        W54462  16.052  25.922   4.529
89478W        W54463  31.777  32.606   2.441
89479W        W54464  10.192   5.645  11.132
89480W        W54465   8.916  15.259  11.147
89481W        W54466  13.137  16.586   4.939
89482W        W54467  29.977  16.368   2.696
89483W        W54468  26.643  32.669  12.457
89484W        W54469  41.416   1.231   3.762
89485W        W54470  23.117  44.143   2.705
89486W        W54471  36.884   3.659   2.337
89487W        W54472  26.568  41.798  12.082
89488W        W54473   0.390  16.155  12.450
89489W        W54474  20.558   2.695   2.395
89490W        W54475  40.325  37.068  12.005
89491W        W54476   7.879  42.696   1.379
89492W        W54477   9.775  43.450   4.649
89493W        W54478  36.455  44.099   4.492
89494W        W54479  18.259  35.470  11.090
89495W        W54480  20.241  28.155   1.078
89496W        W54481  12.295  10.752  13.767
89497W        W54482  32.662  37.978   4.334
89498W        W54483  32.092  37.555   2.266
89499W        W54484   0.492   4.754   0.790
89500W        W54485  28.760  38.271   0.438
89501W        W54486  34.924   6.897   1.256
89502W        W54487  18.482  42.446   3.463
89503W        W54488  38.760  10.091  13.409
89504W        W54489   9.942   2.835  12.327
89505W        W54490  31.419  24.655   0.787
89506W        W54491  32.490  16.687  10.575
89507W        W54492  40.041  21.377   0.373
89508W        W54493  20.115   6.951   1.214
89509W        W54494  21.991  25.039   2.746
89510W        W54495  20.129  27.517   1.165
89511W        W54496  25.826  24.363  13.332
89512W        W54497  38.188  28.694   4.415
89513W        W54498  25.065  44.316   3.548
89514W        W54499  39.910  16.751   0.569
89515W        W54500  38.409  31.688   3.868
89516W        W54501  30.950  24.702  12.119
89517W        W54502   8.848  41.882  10.746
89518W        W54503  31.448   2.026  14.379
89519W        W54504   8.140  13.901  11.155
89520W        W54505  20.775   2.858  13.428
89521W        W54506  36.582  13.843  13.591
89522W        W54507  11.191  14.829  14.807
89523W        W54508  33.114  18.026  12.899
89524W        W54509  18.715  17.456   0.974
89525W        W54510  17.944  31.564  13.410
89526W        W54511   8.689  21.621  14.262
89527W        W54512   9.367   0.800   3.233
89528W        W54513   0.329  28.153   4.244
89529W        W54514  10.681  29.100  14.487
89530W        W54515  37.531  17.839  14.061
89531W        W54516  20.308  42.610   4.285
89532W        W54517  39.575   7.438  12.913
89533W        W54518  37.253   6.300   2.266
89534W        W54519  18.543  33.591  11.618
89535W        W54520  14.862  43.880  14.995
89536W        W54521  16.119  27.713   3.097
89537W        W54522   0.324  16.842  10.701
89538W        W54523  22.546  32.133   4.320
89539W        W54524  29.949  32.778   1.350
89540W        W54525  22.311  21.176  13.373
89541W        W54526  22.340  22.082   4.543
89542W        W54527  34.229   1.550   2.313
89543W        W54528  30.524  25.520  14.773
89544W        W54529  20.026  17.423  14.908
89545W        W54530  31.595  10.364  13.630
89546W        W54531   5.477  40.050  11.471
89547W        W54532   1.001  10.125  14.595
89548W        W54533  23.735  15.771   0.005
89549W        W54534  33.490  15.258  12.724
89550W        W54535   2.802  22.057   1.358
89551W        W54536   4.548  22.025   4.728
89552W        W54537   6.895  38.330   4.701
89553W        W54538  16.583   0.666  11.572
89554W        W54539  24.143  13.242  13.438
89555W        W54540   5.980  39.614   0.058
89556W        W54541  31.400  44.539   2.782
89557W        W54542  12.287  31.048  14.079
89558W        W54543  40.686  29.267   3.066
89559W        W54544   0.970  21.545   0.671
89560W        W54545   7.736  17.750   1.365
89561W        W54546  34.820  29.051   3.681
89562W        W54547   9.871  13.458   4.598
89563W        W54548  18.281  43.729   0.347
89564W        W54549  23.049  30.927  10.492
89565W        W54550  23.420  28.482   3.532
89566W        W54551   0.582  27.585   4.290
89567W        W54552  17.652  43.341   0.784
89568W        W54553  23.958  42.038   2.165
89569W        W54554   6.785  26.931  12.430
89570W        W54555  24.430  33.568   2.299
89571W        W54556   0.352  31.400   3.298
89572W        W54557  34.361  16.618   0.278
89573W        W54558  17.132  11.210   4.501
89574W        W54559  34.257  16.143   2.781
89575W        W54560  22.331  21.921  10.940
89576W        W54561  35.853  24.052  14.294
89577W        W54562  31.506  20.707  11.144
89578W        W54563   7.900  34.539   2.440
89579W        W54564  19.160  29.438   4.633
89580W        W54565  34.404   5.281   1.670
89581W        W54566  13.183  18.898   0.247
89582W        W54567   9.378  29.690   1.184
89583W        W54568  27.227  38.875   1.183
89584W        W54569  19.893  41.907  11.333
89585W        W54570  39.976  30.998   3.775
89586W        W54571  11.824  13.274  11.058
89587W        W54572   2.748  39.773  13.823
89588W        W54573  30.502  11.875  13.013
89589W        W54574  30.923  31.505  14.979
89590W        W54575  15.172  44.302  10.711
89591W        W54576  37.542   1.692  13.580
89592W        W54577   9.436  21.286   1.294
89593W        W54578  43.068  13.910   4.648
89594W        W54579  44.949   5.109   1.186
89595W        W54580   6.659   2.942   1.527
89596W        W54581  44.934   9.935   1.352
89597W        W54582  18.676   7.429  12.749
89598W        W54583   1.351  41.981  12.143
89599W        W54584  12.470  36.090   3.428
89600W        W54585  43.428  30.582  12.152
89601W        W54586  28.662  36.084  12.858
89602W        W54587  36.345  12.903   2.804
89603W        W54588  20.905  41.839  12.581
89604W        W54589  42.773  30.949  14.533
89605W        W54590   9.834   8.344   2.856
89606W        W54591  35.093  14.945  14.238
89607W        W54592   0.009   9.963  12.019
89608W        W54593  19.723  23.006  13.141
89609W        W54594  12.049   8.462  13.572
89610W        W54595  35.520  16.535  14.012
89611W        W54596  33.139  23.891   1.929
89612W        W54597  20.584  15.460   0.612
89613W        W54598   8.176  15.976  14.310
89614W        W54599  17.288   3.629   0.159
89615W        W54600  30.473  14.072   2.970
89616W        W54601  41.579  13.618   2.330
89617W        W54602  35.489  22.465  11.172
89618W        W54603  33.006   1.789  11.552
89619W        W54604  29.574  21.758   2.261
89620W        W54605  17.218  28.449  12.158
89621W        W54606  39.269  37.677  11.083
89622W        W54607  22.472   3.882  14.339
89623W        W54608  18.781  34.420   3.128
89624W        W54609  31.692  32.945   4.191
89625W        W54610  16.251   1.854  13.827
89626W        W54611  29.475  25.213   1.010
89627W        W54612  23.541  34.984  12.583
89628W        W54613   8.682  19.858   0.746
89629W        W54614  18.885   4.522   2.151
89630W        W54615  25.179  42.677   0.703
89631W        W54616  18.507   3.353   1.012
89632W        W54617  13.284  19.003  12.950
89633W        W54618  14.249   0.894  11.135
89634W        W54619  12.746  13.133  11.526
89635W        W54620  37.401   8.238  10.660
89636W        W54621  24.449   7.772   0.297
89637W        W54622  34.089   4.863  14.479
89638W        W54623   9.846   4.875   0.049
89639W        W54624  26.038  40.270  14.580
89640W        W54625   2.492  40.017  11.644
89641W        W54626  44.786  43.846  10.494
89642W        W54627  15.033  10.859   2.699
89643W        W54628  29.009  42.065   2.332
89644W        W54629  17.657  26.961  13.955
89645W        W54630  13.068  44.347  11.063
89646W        W54631   7.556  41.600  10.785
89647W        W54632  26.675  14.609  13.779
89648W        W54633  23.460  22.591  10.658
89649W        W54634  37.441  10.747   3.340
89650W        W54635  10.076  23.589   3.877
89651W        W54636  21.761  12.871  13.718
89652W        W54637   0.238  42.914   2.717
89653W        W54638  37.928  13.018   4.196
89654W        W54639   9.572  26.697   0.359
89655W        W54640  31.548  21.798  12.823
89656W        W54641  33.123  32.594  14.384
89657W        W54642  18.221  30.384   2.217
89658W        W54643  18.100  19.938   3.289
89659W        W54644  12.181  33.981  13.041
89660W        W54645  25.239  11.738   2.318
89661W        W54646  32.597   0.585  11.045
89662W        W54647   4.236  15.882   1.416
89663W        W54648  11.041  24.024  12.446
89664W        W54649  34.826  28.738  13.456
89665W        W54650  17.699  10.772   3.408
89666W        W54651  44.380  18.864  12.940
89667W        W54652  22.081  40.931   4.089
89668W        W54653  14.607  14.049  13.546
89669W        W54654   8.513  16.071   3.657
89670W        W54655   8.904   5.233   3.500
89671W        W54656  12.731   6.840  12.700
89672W        W54657  10.522  42.684   4.541
89673W        W54658  24.446  18.601   4.709
89674W        W54659  30.670   7.983   2.114
89675W        W54660  32.154   9.402  11.707
89676W        W54661  24.125   0.828   2.775
89677W        W54662  24.565  13.178  11.373
89678W        W54663  16.229   4.690   0.227
89679W        W54664  15.331  17.810  13.032
89680W        W54665  35.132  40.917   1.104
89681W        W54666  43.755  44.353   2.217
89682W        W54667  18.174  10.447  13.578
89683W        W54668  12.581   3.222   4.516
89684W        W54669  31.951   6.355   3.091
89685W        W54670   7.242  22.657   0.639
89686W        W54671  15.823  40.589  13.080
89687W        W54672  36.619  44.894   0.456
89688W        W54673  36.937  18.780  10.650
89689W        W54674  43.743  43.930   4.545
89690W        W54675  37.741  44.309   2.342
89691W        W54676   1.380  16.100  13.579
89692W        W54677   5.871  31.452   3.239
89693W        W54678   2.335   6.395   4.595
89694W        W54679  21.697  26.641  13.872
89695W        W54680  11.261   9.539  14.462
89696W        W54681  36.519  10.031   2.208
89697W        W54682  26.234   0.515  13.450
89698W        W54683  28.690   8.297  12.126
89699W        W54684  40.362   9.487  13.710
89700W        W54685  17.285  20.042  12.368
89701W        W54686  14.116   3.211  12.109
89702W        W54687  23.834  18.284  14.072
89703W        W54688  42.350  35.342   1.877
89704W        W54689   1.724  19.549  14.864
89705W        W54690  18.799  22.047  13.026
89706W        W54691   0.197   6.919  11.603
89707W        W54692  35.874  21.107   3.091
89708W        W54693  30.541  43.023  11.129
89709W        W54694  23.500  35.073   3.980
89710W        W54695  17.271   9.479   2.303
89711W        W54696  38.108  39.902  11.254
89712W        W54697  12.312  28.998  14.813
89713W        W54698  18.111  22.991  13.033
89714W        W54699   0.154   7.200  11.136
89715W        W54700  25.503  10.261   2.160
89716W        W54701  14.844  34.897  11.521
89717W        W54702   2.997  30.607  13.606
89718W        W54703   0.495  17.301   0.412
89719W        W54704   7.939  41.033  11.251
89720W        W54705   3.999  23.672   3.514
89721W        W54706  18.831  14.349   0.729
89722W        W54707  24.283  23.048   1.062
89723W        W54708   9.355  19.584  13.782
89724W        W54709  10.127   3.972   2.948
89725W        W54710  38.046  18.468  12.927
89726W        W54711  25.644  25.974  13.558
89727W        W54712  10.874   2.892  14.046
89728W        W54713  31.478   6.612  12.864
89729W        W54714  25.124  43.461   3.697
89730W        W54715  41.226   6.215   4.131
89731W        W54716  42.929   2.368   2.111
89732W        W54717   7.861  15.194  12.568
89733W        W54718  30.862  15.186  11.835
89734W        W54719   4.651   5.312   2.208
89735W        W54720  39.787  22.034   3.207
89736W        W54721  16.674   4.032  11.228
89737W        W54722   5.257  24.024   1.062
89738W        W54723   1.392  15.472   1.245
89739W        W54724  17.978  21.452  14.467
89740W        W54725   4.473   3.924   1.422
89741W        W54726   7.346  31.994   3.642
89742W        W54727  13.114   6.989  13.632
89743W        W54728  27.711  10.171   4.672
89744W        W54729  11.321  27.602   0.793
89745W        W54730  24.047   3.742  11.064
89746W        W54731   9.629   0.677  12.420
89747W        W54732  34.621  16.693   0.740
89748W        W54733  15.649  36.479  11.571
89749W        W54734  39.249  11.265  13.516
89750W        W54735  15.792  18.313  12.648
89751W        W54736   5.677  20.094  12.984
89752W        W54737  36.262  11.320  13.094
89753W        W54738  23.099  39.388   2.905
89754W        W54739   1.052  34.101  10.717
89755W        W54740  22.174   2.043   4.447
89756W        W54741   4.763  44.861  13.287
89757W        W54742  28.357  41.793  10.956
89758W        W54743  20.767  29.627  14.046
89759W        W54744  39.784  31.350   2.575
89760W        W54745  29.535  36.365   0.492
89761W        W54746  37.579  44.593  12.567
89762W        W54747   4.582  39.869  12.899
89763W        W54748   9.198   1.017  11.624
89764W        W54749   0.501  14.255   0.485
89765W        W54750  43.622  39.786   1.901
89766W        W54751  23.593  27.687  11.235
89767W        W54752   1.748   2.887  12.961
89768W        W54753  40.376  17.410  12.696
89769W        W54754  17.070   0.525  10.897
89770W        W54755  16.075  18.726   2.169
89771W        W54756  27.478  39.309  13.692
89772W        W54757  24.241  11.588   4.727
89773W        W54758  44.235   0.215  13.000
89774W        W54759  22.151  16.021   4.538
89775W        W54760  21.002  25.211  13.400
89776W        W54761   1.937   0.953  12.335
89777W        W54762  14.522  15.772  13.864
89778W        W54763   9.756  18.372  12.904
89779W        W54764  42.408  27.136   3.811
89780W        W54765  29.588  34.969   2.325
89781W        W54766   1.756  22.257   1.456
89782W        W54767   2.745   4.282  13.706
89783W        W54768  27.547  16.330   2.623
89784W        W54769  39.437  17.256  13.089
89785W        W54770   8.234   9.747   0.304
89786W        W54771  40.978  15.800  14.830
89787W        W54772  10.823  30.687  11.461
89788W        W54773  34.962   4.595   1.144
89789W        W54774  27.242  38.834   1.698
89790W        W54775  14.826  43.386   4.273
89791W        W54776  35.920  12.184  12.071
89792W        W54777  30.882  27.830   0.282
89793W        W54778  44.848  31.623  14.979
89794W        W54779  38.782  20.019   1.899
89795W        W54780  10.257  37.365   3.581
89796W        W54781  23.060  27.929  13.685
89797W        W54782  23.032  12.582   1.862
89798W        W54783   7.684  11.879   3.203
89799W        W54784   6.876  26.953  11.514
89800W        W54785  13.453  36.486  12.669
89801W        W54786  14.521  26.628  13.619
89802W        W54787  44.774  43.880  12.963
89803W        W54788  40.426  14.026  14.578
89804W        W54789  27.146  20.049  13.407
89805W        W54790  21.212  13.163  13.581
89806W        W54791  15.165  36.337  14.329
89807W        W54792  42.246  30.523  14.574
89808W        W54793   2.844   6.692   0.585
89809W        W54794  13.549  40.645  14.336
89810W        W54795  39.002  33.919   2.681
89811W        W54796  31.770  24.659  11.559
89812W        W54797  33.669  43.404   1.968
89813W        W54798  23.201   7.671  14.691
89814W        W54799  26.224  21.804  11.145
89815W        W54800  10.166   5.709  10.444
89816W        W54801  30.205  42.505  13.789
89817W        W54802  26.984  21.238  13.955
89818W        W54803  19.106   4.380  10.901
89819W        W54804  17.005  25.280  10.710
89820W        W54805  21.022  41.763   4.469
89821W        W54806  10.674  38.139  10.674
89822W        W54807  13.069   5.678  10.779
89823W        W54808  33.780  38.922  14.336
89824W        W54809  26.552  13.943  13.006
89825W        W54810  37.542  30.949  12.210
89826W        W54811  22.825  15.782   0.913
89827W        W54812  31.982  15.331  10.712
89828W        W54813  41.713  22.022   4.577
89829W        W54814   4.746  20.140  14.046
89830W        W54815  28.929   5.483   0.384
89831W        W54816  42.472   4.166   4.632
89832W        W54817  26.292   0.036   2.643
89833W        W54818  42.018  35.106   3.059
89834W        W54819  18.981  26.036  13.856
89835W        W54820  22.120  26.067  11.605
89836W        W54821   3.306   7.757  11.135
89837W        W54822  20.516  38.769  14.874
89838W        W54823  26.685  40.024  14.003
89839W        W54824  18.452  39.930  11.250
89840W        W54825  23.198  11.515  10.699
89841W        W54826   6.984  19.564  13.213
89842W        W54827  27.223  13.792   0.063
89843W        W54828  20.176   5.406  10.697
89844W        W54829  34.806   9.949  13.501
89845W        W54830  20.565  11.368   2.927
89846W        W54831  16.001   6.479  14.717
89847W        W54832  20.917  28.931   3.147
89848W        W54833   4.876  38.546   2.170
89849W        W54834   5.984  41.473   5.072
89850W        W54835  32.092  20.249   1.433
89851W        W54836  28.566  39.821  11.028
89852W        W54837  42.504  37.978   2.417
89853W        W54838  36.874  38.451   0.705
89854W        W54839  19.536  29.607   2.244
89855W        W54840   5.567   5.288   2.216
89856W        W54841  18.776  43.159   2.388
89857W        W54842   8.122   7.825   3.518
89858W        W54843  41.327   8.962  11.865
89859W        W54844  16.107  30.749  12.114
89860W        W54845  18.052  14.126   2.745
89861W        W54846  27.709  40.247  12.445
89862W        W54847  31.329  18.683  12.224
89863W        W54848  42.319  38.368   4.338
89864W        W54849  14.748  34.529  10.611
89865W        W54850   3.387  31.285  10.727
89866W        W54851  31.683  39.554   1.824
89867W        W54852  13.249  21.737   3.646
89868W        W54853  18.052  38.907   1.209
89869W        W54854  13.322  15.244  12.220
89870W        W54855  39.896  40.646  12.592
89871W        W54856  33.651  38.788  13.004
89872W        W54857  34.990   4.163  11.525
89873W        W54858  42.912  21.752  10.370
89874W        W54859  18.996  38.411  12.081
89875W        W54860   1.135  26.871  12.540
89876W        W54861   2.064  39.800   1.463
89877W        W54862   3.222  14.163   1.558
89878W        W54863  14.471  35.120   4.093
89879W        W54864  39.258  18.141   5.025
89880W        W54865  44.100  32.484  14.014
89881W        W54866   7.961  23.071  13.957
89882W        W54867  10.340  29.571   2.121
89883W        W54868  21.277  33.549  11.825
89884W        W54869  16.494  30.458  10.589
89885W        W54870  34.613  41.328  11.420
89886W        W54871  26.046  28.447  14.083
89887W        W54872   1.944  36.202  11.652
89888W        W54873   8.727  30.545  10.674
89889W        W54874  25.597  18.221   0.564
89890W        W54875  37.568  25.083   3.779
89891W        W54876   5.476  17.710   4.357
89892W        W54877  42.482  31.428   1.811
89893W        W54878  42.425  25.002   2.816
89894W        W54879  34.392   4.279   2.573
89895W        W54880  26.143  39.340   1.827
89896W        W54881  11.622  22.997   0.432
89897W        W54882  26.285  18.563  13.882
89898W        W54883  16.847  34.590   4.107
89899W        W54884  33.245  17.190  13.951
89900W        W54885  31.267  41.837   4.150
89901W        W54886   1.657  13.065  11.645
89902W        W54887  39.095  14.244   4.701
89903W        W54888  21.076  29.033  14.391
89904W        W54889  37.915  10.657  13.315
89905W        W54890  22.784   4.016  13.922
89906W        W54891  32.534  16.590   2.187
89907W        W54892  34.414   3.371  13.461
89908W        W54893   5.941  12.808   0.928
89909W        W54894  11.084  18.231  11.944
89910W        W54895  26.122  37.551  14.343
89911W        W54896   7.838  35.159  10.674
89912W        W54897  22.716   3.304   2.189
89913W        W54898  11.639   3.165   2.877
89914W        W54899   0.465   7.303   0.306
89915W        W54900  26.174   6.751   3.966
89916W        W54901  23.495  30.216   5.073
89917W        W54902  22.203  34.095   0.231
89918W        W54903   0.401  37.225   0.093
89919W        W54904  33.021  19.482   1.267
89920W        W54905  17.288   2.449   3.702
89921W        W54906  15.065  15.702   3.231
89922W        W54907   7.222  36.408  12.447
89923W        W54908  26.890  29.054   0.171
89924W        W54909  37.857  10.963   0.612
89925W        W54910  29.150  25.737   4.634
89926W        W54911  16.647  25.809  12.435
89927W        W54912  14.810   1.810  14.427
89928W        W54913   4.510   0.947  14.798
89929W        W54914  41.267  14.086   3.201
89930W        W54915   8.194   0.808  10.717
89931W        W54916  14.643   0.863   1.311
89932W        W54917   9.374  23.110   0.675
89933W        W54918  22.652  16.744   3.965
89934W        W54919  34.632  16.885   2.905
89935W        W54920   6.690  34.470  11.137
89936W        W54921  27.218  43.021  11.610
89937W        W54922   6.252   2.863   2.812
89938W        W54923  27.909  21.245   3.808
89939W        W54924  34.913  15.754  13.374
89940W        W54925  10.267  25.225  13.023
89941W        W54926  31.646  12.766  14.396
89942W        W54927  36.442   2.013  10.527
89943W        W54928  34.346  17.779  12.284
89944W        W54929   9.234  16.269   3.883
89945W        W54930  40.958  38.589   4.435
89946W        W54931   7.944  14.695   3.517
89947W        W54932   1.535   0.609  12.291
89948W        W54933  26.103  33.958  12.784
89949W        W54934   2.036  32.185  11.680
89950W        W54935  21.219  19.615  13.529
89951W        W54936   9.371  19.172   3.070
89952W        W54937   3.806  19.556  11.967
89953W        W54938  13.879  37.755   0.285
89954W        W54939  13.069  29.076   0.392
89955W        W54940  39.941  30.031  11.923
89956W        W54941  24.086   6.462  13.467
89957W        W54942  41.515  34.797  14.382
89958W        W54943  19.148  26.139   3.039
89959W        W54944  42.596   9.312  10.679
89960W        W54945  37.523   2.647  14.869
89961W        W54946  16.112  16.210   4.299
89962W        W54947   3.197  12.801  13.424
89963W        W54948  35.172  38.445   4.275
89964W        W54949  21.730  34.515  10.399
89965W        W54950  18.947  23.581   2.185
89966W        W54951   3.925  27.189  12.040
89967W        W54952  31.419  30.956   3.686
89968W        W54953  42.385  15.529   1.793
89969W        W54954  30.063  21.194  13.151
89970W        W54955  14.160  33.238   3.379
89971W        W54956  35.599  10.276   2.095
89972W        W54957   3.945  35.868   0.901
89973W        W54958   6.291  17.843   0.023
89974W        W54959  15.012  17.312  11.049
89975W        W54960  44.280  30.040  13.778
89976W        W54961  26.885  33.398   2.707
89977W        W54962   8.874  33.020   1.668
89978W        W54963  16.606  42.908  10.712
89979W        W54964  33.394  21.695  12.321
89980W        W54965  30.069  37.895  11.087
89981W        W54966  41.606  20.932   0.777
89982W        W54967   2.787  43.910  13.968
89983W        W54968  10.169  12.681  13.827
89984W        W54969  23.066  12.379   2.343
89985W        W54970  36.816  42.639  10.045
89986W        W54971  30.137  14.844  13.347
89987W        W54972  19.586  12.356  13.899
89988W        W54973  38.887  39.806  10.646
89989W        W54974   0.484  35.369  13.032
89990W        W54975  36.243  15.724  12.949
89991W        W54976  12.896  29.565  13.081
89992W        W54977  37.500  42.195   1.524
89993W        W54978   0.907  16.629  10.941
89994W        W54979  26.993  33.121   1.830
89995W        W54980  20.040  35.517   1.322
89996W        W54981  15.562  34.950   4.149
89997W        W54982   8.082   4.275   1.754
89998W        W54983  29.096  12.346   2.788
89999W        W54984  14.299  40.425   0.453
90000W        W54985   0.243  44.772   1.142
90001W        W54986  36.994  40.797   1.673
90002W        W54987  18.192   9.709   3.633
90003W        W54988  16.604  39.004   0.509
90004W        W54989   9.126  36.922   3.130
90005W        W54990  42.997  25.097   4.029
90006W        W54991  10.844  32.182  11.364
90007W        W54992   1.380  42.553  10.826
90008W        W54993  31.020  22.570   1.350
90009W        W54994  40.168  27.150  13.481
90010W        W54995   0.256  18.053  12.208
90011W        W54996  20.265  30.339   5.025
90012W        W54997  16.693   5.957   0.380
90013W        W54998   7.884   0.515  13.053
90014W        W54999   2.165  37.314   0.209
90015W        W55000  41.518  23.800   4.221
90016W        W55001  30.979  33.996   4.387
90017W        W55002  30.957   9.614  14.209
90018W        W55003   8.308  38.026   2.993
90019W        W55004  19.604  39.296   2.238
90020W        W55005  33.592  10.674   1.368
90021W        W55006  33.224   1.304  13.839
90022W        W55007  11.217  16.103  12.035
90023W        W55008  30.978  25.772  10.760
90024W        W55009  14.944   5.420  14.690
90025W        W55010   4.993  11.893   0.832
90026W        W55011   1.903  31.155  14.919
90027W        W55012  13.138  13.130  14.727
90028W        W55013   3.157   0.768  11.775
90029W        W55014   7.709   9.193   2.218
90030W        W55015  13.650  26.322   2.733
90031W        W55016   0.436   9.441  14.902
90032W        W55017  34.889  26.380  11.533
90033W        W55018  15.356  40.956   1.479
90034W        W55019   1.982  13.099   2.683
90035W        W55020  16.715  42.798  13.641
90036W        W55021   9.009   4.737  11.480
90037W        W55022  14.706  36.094  14.496
90038W        W55023   3.487   5.366  10.982
90039W        W55024  17.571  18.370   2.410
90040W        W55025  37.438   9.871  13.768
90041W        W55026   9.202   8.708  12.285
90042W        W55027   1.798   6.745  14.301
90043W        W55028  39.455  11.213   4.874
90044W        W55029  40.057   7.285  10.973
90045W        W55030  15.056  12.692  12.950
90046W        W55031  27.938  28.954   0.510
90047W        W55032  31.857  16.389   3.115
90048W        W55033  27.775  12.106   3.256
90049W        W55034   4.377  17.739  11.452
90050W        W55035   9.955   5.214   2.645
90051W        W55036  36.463  19.011   4.685
90052W        W55037   3.697   1.710   3.234
90053W        W55038   7.476   7.226  12.807
90054W        W55039  26.011  42.437  12.397
90055W        W55040  16.124  27.413   2.694
90056W        W55041  17.177  33.059  12.815
90057W        W55042  34.617   4.951  14.387
90058W        W55043   7.310   3.455   2.670
90059W        W55044  26.337  44.319  11.706
90060W        W55045  33.499  38.886   3.607
90061W        W55046  15.286  37.497   1.339
90062W        W55047  33.477  17.447   2.256
90063W        W55048  41.376  40.085   0.480
90064W        W55049  32.220   5.808   2.151
90065W        W55050  27.093   1.793  14.770
90066W        W55051  26.703  35.942  13.841
90067W        W55052  44.376  14.627   2.368
90068W        W55053  11.006  26.407  11.558
90069W        W55054   1.570  31.729   2.444
90070W        W55055  25.568  11.757  14.487
90071W        W55056  14.136  26.987   0.405
90072W        W55057  22.617  15.135  13.943
90073W        W55058  26.109  35.107  13.572
90074W        W55059  29.025   1.537   0.328
90075W        W55060  31.675  35.158  14.968
90076W        W55061  28.864  31.334   2.592
90077W        W55062  16.651  26.188  13.243
90078W        W55063  42.579  37.744  11.618
90079W        W55064   5.885  21.154  12.041
90080W        W55065  34.660  38.851   0.798
90081W        W55066  10.840   7.025  14.947
90082W        W55067  27.010  33.350  14.919
90083W        W55068   8.099  19.707   1.772
90084W        W55069   5.687  37.535   2.177
90085W        W55070  20.602  42.628  13.735
90086W        W55071  23.710  11.103  12.475
90087W        W55072  24.479   6.745   1.407
90088W        W55073  16.900  39.871   0.939
90089W        W55074  27.910  23.100   3.330
90090W        W55075  43.906  26.714  12.448
90091W        W55076   7.686  16.409  10.584
90092W        W55077  24.089  11.009  14.694
90093W        W55078   8.641  23.446   4.941
90094W        W55079  39.487  34.006  12.665
90095W        W55080  32.007   4.367  12.002
90096W        W55081  24.409  19.540   0.416
90097W        W55082  25.885  34.547   4.625
90098W        W55083   9.000  11.165  11.583
90099W        W55084  15.745  15.757   0.474
90100W        W55085  19.703  30.563   4.374
90101W        W55086  29.386  22.177  10.641
90102W        W55087  29.434  41.164   5.040
90103W        W55088  36.786  38.388  14.827
90104W        W55089   3.012  32.442   2.485
90105W        W55090  10.187  39.942  13.647
90106W        W55091  12.704  24.268   2.372
90107W        W55092  34.951  43.898  12.076
90108W        W55093  32.473  21.351   2.890
90109W        W55094  16.371  18.828  11.959
90110W        W55095   4.357  10.884   3.172
90111W        W55096  20.763  27.265   3.911
90112W        W55097  43.818  36.324  10.852
90113W        W55098  32.443  41.786  13.445
90114W        W55099   2.411   1.825   1.783
90115W        W55100   4.335  29.426   2.779
90116W        W55101  27.487  23.619  11.634
90117W        W55102  37.424  35.512   4.548
90118W        W55103   0.294  34.217  11.214
90119W        W55104   5.405  21.772   1.504
90120W        W55105   5.814  19.157   3.160
90121W        W55106   3.461   0.797  10.572
90122W        W55107  25.524  37.855  13.519
90123W        W55108  10.092  40.412   0.408
90124W        W55109  29.988  12.062  12.876
90125W        W55110  10.761  29.035   4.455
90126W        W55111  28.151  37.302   4.112
90127W        W55112  34.959  44.519  14.334
90128W        W55113  23.678  16.076  10.443
90129W        W55114  35.119   9.347  13.969
90130W        W55115  11.167  41.417  10.953
90131W        W55116  25.626  27.236  14.534
90132W        W55117  42.630  23.455   1.153
90133W        W55118  29.378  26.528  13.792
90134W        W55119  13.103  11.341   0.942
90135W        W55120  23.453  36.031  13.541
90136W        W55121  44.218   5.422   2.862
90137W        W55122  32.873  25.311  11.815
90138W        W55123  27.045  19.871   5.094
90139W        W55124  32.152  29.092   3.824
90140W        W55125  22.693  22.168   2.146
90141W        W55126  37.581   2.332  14.471
90142W        W55127  30.535  37.403   2.102
90143W        W55128  28.391  44.854  12.867
90144W        W55129  44.988  21.479   3.022
90145W        W55130   7.666  36.020  10.332
90146W        W55131   1.250  18.312  12.087
90147W        W55132   7.358  16.043  10.710
90148W        W55133  41.403  43.813   3.106
90149W        W55134  31.077   6.242   4.076
90150W        W55135  21.520  37.185  13.700
90151W        W55136  42.264  29.619  12.854
90152W        W55137  37.012  42.096   1.303
90153W        W55138  18.933  28.171   0.887
90154W        W55139  22.800  36.117  10.738
90155W        W55140   9.142  33.228  12.576
90156W        W55141  14.036  38.933   3.689
90157W        W55142   5.683  25.756   0.456
90158W        W55143  44.890  15.233  14.865
90159W        W55144  36.277  15.307   1.597
90160W        W55145   6.909  32.376   0.441
90161W        W55146  23.273   1.273   0.030
90162W        W55147  29.392  42.528   1.448
90163W        W55148   5.725  42.088  11.131
90164W        W55149   6.944  20.254  13.473
90165W        W55150  10.759  37.271  11.976
90166W        W55151  22.226  17.324   0.795
90167W        W55152  38.325  26.619  14.792
90168W        W55153  36.988   3.036  14.940
90169W        W55154  24.891  14.299   4.953
90170W        W55155  35.301  28.112  14.205
90171W        W55156  20.159  37.783  11.724
90172W        W55157  18.662   9.710  14.882
90173W        W55158  31.953  17.251   4.631
90174W        W55159  32.337  15.105  14.886
90175W        W55160  44.767  13.329   0.792
90176W        W55161  35.166   3.568   2.327
90177W        W55162  40.821  31.861   1.836
90178W        W55163   8.421   7.467  13.811
90179W        W55164  26.602  29.154   4.193
90180W        W55165  27.530   0.614   3.968
90181W        W55166  17.595  34.565  13.103
90182W        W55167  10.205   5.417   4.673
90183W        W55168  32.859  12.855   2.898
90184W        W55169  38.648  37.393   0.747
90185W        W55170  11.617  34.054   2.162
90186W        W55171  12.162  35.695   3.240
90187W        W55172   9.445  44.855   3.246
90188W        W55173  35.688  23.658   3.796
90189W        W55174  33.356  39.440   2.836
90190W        W55175   0.230  12.026  11.180
90191W        W55176  32.221   9.778   4.116
90192W        W55177  22.783  30.401   4.619
90193W        W55178   7.400  33.394  12.188
90194W        W55179  43.771  34.928  14.348
90195W        W55180  31.366  33.046  11.445
90196W        W55181  29.702  43.349  12.093
90197W        W55182  14.171  25.986  11.742
90198W        W55183   9.621  12.746   2.711
90199W        W55184  44.714  41.842   4.134
90200W        W55185  34.974  20.853  11.184
90201W        W55186  13.790   8.277  10.230
90202W        W55187   5.330  33.906   1.378
90203W        W55188  16.316  20.242  11.505
90204W        W55189  38.108  24.628  12.058
90205W        W55190  44.413  12.859  12.105
90206W        W55191  43.520  10.821   3.746
90207W        W55192  29.027  18.519  10.956
90208W        W55193   6.601  17.026  10.967
90209W        W55194   8.767  12.591   3.137
90210W        W55195  19.136  22.229   1.345
90211W        W55196   6.682   0.840   4.574
90212W        W55197   9.747  42.250   4.603
90213W        W55198  42.707  21.519  14.973
90214W        W55199  15.482  29.687   3.049
90215W        W55200  33.288  14.546   0.013
90216W        W55201   2.499  20.201   0.762
90217W        W55202   8.403  13.089   4.291
90218W        W55203   6.299  29.662  12.549
90219W        W55204  39.688  27.159   2.864
90220W        W55205  31.353  17.178  11.052
90221W        W55206  16.050  28.563  13.508
90222W        W55207  17.669  32.035   0.768
90223W        W55208  36.805  14.288  13.752
90224W        W55209  31.087  44.591   4.447
90225W        W55210  17.834   7.367  14.584
90226W        W55211  19.615  27.713   1.243
90227W        W55212  22.828  28.659  14.259
90228W        W55213   6.250  35.670   1.711
90229W        W55214   3.279  40.526   2.757
90230W        W55215  17.394   8.812   4.813
90231W        W55216   2.336  30.301  13.343
90232W        W55217  18.314  43.159   1.486
90233W        W55218  17.084  19.169   2.871
90234W        W55219  17.384  31.582  13.585
90235W        W55220  15.733  28.604   3.180
90236W        W55221  22.825  32.733  10.579
90237W        W55222  14.158  31.186  12.996
90238W        W55223  27.259  20.953  14.377
90239W        W55224  25.139   0.481   1.663
90240W        W55225   0.205  26.237  14.051
90241W        W55226  19.697   2.166  12.384
90242W        W55227   3.899  39.765   0.245
90243W        W55228  36.298  31.624   0.438
90244W        W55229  35.837   5.822   0.285
90245W        W55230  25.792  36.794  11.152
90246W        W55231  40.426  18.759  12.966
90247W        W55232  38.027  42.020  13.512
90248W        W55233   9.297  26.926  14.689
90249W        W55234   0.167   0.299   4.191
90250W        W55235  43.779   5.899   3.673
90251W        W55236  32.955   9.279   2.877
90252W        W55237  38.827  16.335   2.446
90253W        W55238  44.488   4.750  10.747
90254W        W55239  42.352  14.639  11.153
90255W        W55240  12.655  38.916  13.794
90256W        W55241  32.546  40.913   4.741
90257W        W55242  40.001  19.841  14.790
90258W        W55243  15.678   9.629   0.834
90259W        W55244  39.433  19.813  12.908
90260W        W55245  12.370  34.666  13.564
90261W        W55246  37.337  34.413   3.759
90262W        W55247  20.634  19.888  14.068
90263W        W55248  21.999  33.629   2.905
90264W        W55249  34.106  24.099   3.295
90265W        W55250   8.537  20.137   1.195
90266W        W55251   9.382  37.048  14.520
90267W        W55252  41.795  30.126  10.616
90268W        W55253  32.015   4.219   0.337
90269W        W55254  17.735  20.683  11.161
90270W        W55255   5.734  25.992   1.927
90271W        W55256  32.610  38.404  10.418
90272W        W55257  39.232   9.419  11.150
90273W        W55258  15.297  31.539  14.440
90274W        W55259  23.999  38.619   3.589
90275W        W55260  34.178  42.939   4.170
90276W        W55261  22.473  27.998   0.961
90277W        W55262  22.488  34.384  12.725
90278W        W55263   0.207  36.275   0.029
90279W        W55264   2.466  39.518  11.573
90280W        W55265   8.936   8.335  13.985
90281W        W55266  11.594   0.615  11.582
90282W        W55267   3.896  25.929  14.815
90283W        W55268  30.482   8.262  13.375
90284W        W55269  21.190  32.112  10.657
90285W        W55270  38.866  39.368   1.860
90286W        W55271  22.000  29.148   2.204
90287W        W55272  42.565  29.699  11.957
90288W        W55273  30.605  28.721   3.284
90289W        W55274  33.500  38.299   0.278
90290W        W55275  23.059  36.147  14.527
90291W        W55276  34.556   5.873  14.002
90292W        W55277   2.201  36.068   2.721
90293W        W55278  38.634   5.909  14.427
90294W        W55279  34.534  20.206   4.891
90295W        W55280   6.597  43.874  11.890
90296W        W55281   0.879  20.260   2.183
90297W        W55282  27.549  14.851   4.541
90298W        W55283  31.417  16.590  11.892
90299W        W55284  36.542   8.211   2.410
90300W        W55285   0.513   9.845  12.527
90301W        W55286  30.409   9.186   1.316
90302W        W55287   0.271  22.333   2.669
90303W        W55288  30.694  17.311  11.946
90304W        W55289  30.532  11.593  11.971
90305W        W55290  23.862  32.479   4.540
90306W        W55291   5.881   6.639  14.904
90307W        W55292  13.373  24.234   1.255
90308W        W55293  35.431  34.267  12.095
90309W        W55294  18.663  21.163   2.040
90310W        W55295  28.401   2.574   3.306
90311W        W55296  32.415  13.680  10.724
90312W        W55297   1.045  28.641  11.539
90313W        W55298   3.993  26.871  14.363
90314W        W55299  36.003  22.302   3.607
90315W        W55300  14.677   4.823   1.304
90316W        W55301  41.544   4.932  13.540
90317W        W55302  18.233  34.968  11.335
90318W        W55303  35.138   0.517  11.099
90319W        W55304  20.719   2.420  12.958
90320W        W55305   6.296  31.367   1.819
90321W        W55306  32.023  33.685  14.906
90322W        W55307  39.918  18.698  10.650
90323W        W55308   4.737  25.183   4.768
90324W        W55309  10.830  38.317  12.881
90325W        W55310  42.902  31.723   0.242
90326W        W55311  13.895  12.598  13.861
90327W        W55312   2.189  11.164  11.916
90328W        W55313  25.164  19.057  14.783
90329W        W55314  41.113  21.946  10.432
90330W        W55315  15.281  10.196  11.425
90331W        W55316  26.436  30.629  13.275
90332W        W55317  32.895  24.783   5.231
90333W        W55318  24.189  10.611   0.630
90334W        W55319   3.983  11.333   1.479
90335W        W55320   2.414  42.891   1.993
90336W        W55321  27.685  43.343  14.912
90337W        W55322   7.697  41.604   4.641
90338W        W55323   7.038   7.425   5.105
90339W        W55324   5.202  34.635  11.927
90340W        W55325  39.170  29.484   4.720
90341W        W55326  35.495  41.044  10.783
90342W        W55327  37.008  37.925   2.320
90343W        W55328  24.162  24.648  12.968
90344W        W55329   4.661   6.693   9.851
90345W        W55330  37.021  14.597   0.716
90346W        W55331  15.246   7.937  13.591
90347W        W55332  28.712  18.026   2.749
90348W        W55333  37.098  19.261   2.241
90349W        W55334  31.964  25.351   1.272
90350W        W55335   1.277  19.189  13.550
90351W        W55336  27.755  22.143   2.812
90352W        W55337   6.438  18.081  11.142
90353W        W55338  41.548  14.462   1.855
90354W        W55339  27.132  29.347  10.261
90355W        W55340  31.029   9.564   3.359
90356W        W55341  27.076  12.660  13.037
90357W        W55342   8.934  39.204  13.617
90358W        W55343  10.101  41.406   5.028
90359W        W55344  22.849  43.363   0.017
90360W        W55345  28.490  15.146   1.335
90361W        W55346   8.226  23.075   4.914
90362W        W55347  21.175  24.972  11.698
90363W        W55348  18.564  23.564   4.419
90364W        W55349  25.055   3.235  12.514
90365W        W55350  37.078  32.413  12.495
90366W        W55351  16.141   6.439  13.502
90367W        W55352  15.791   6.790   1.487
90368W        W55353  38.748  16.158   0.286
90369W        W55354  10.629  20.554  11.979
90370W        W55355  12.319   6.694  12.419
90371W        W55356   9.599  14.563  14.898
90372W        W55357  10.536   8.656   4.081
90373W        W55358  41.978  32.344   4.604
90374W        W55359   0.335  30.106  11.967
90375W        W55360  36.705  17.064  10.825
90376W        W55361  20.732  36.095  11.100
90377W        W55362  19.659  37.143  10.514
90378W        W55363  26.721  44.807   1.182
90379W        W55364  32.995  16.517   4.561
90380W        W55365  32.400  22.305   1.863
90381W        W55366   4.435  27.842  10.786
90382W        W55367  10.585   5.468   0.966
90383W        W55368  37.068  43.001  11.659
90384W        W55369  19.817   4.716  11.918
90385W        W55370  22.840  28.941   1.824
90386W        W55371   2.633  40.446  14.558
90387W        W55372   1.031  41.541  11.021
90388W        W55373  40.052   5.976   4.635
90389W        W55374  22.488  35.792  11.010
90390W        W55375  27.974   2.300  14.783
90391W        W55376  20.724  13.238  12.357
90392W        W55377  18.080  30.395  12.356
90393W        W55378   9.543  15.742   1.740
90394W        W55379   5.873   7.229   2.680
90395W        W55380  16.993  17.426  11.153
90396W        W55381  37.615  38.102  11.277
90397W        W55382  16.090  10.389  14.547
90398W        W55383   8.312  31.021   1.273
90399W        W55384  16.387  38.542   2.726
90400W        W55385  16.218  16.659  12.909
90401W        W55386  19.300  42.563  14.299
90402W        W55387  16.766  14.271   0.944
90403W        W55388  37.211  42.800  13.395
90404W        W55389   6.726  25.882  14.321
90405W        W55390  38.382  25.590   5.187
90406W        W55391  11.369  22.223  10.532
90407W        W55392  43.422  19.848  12.524
90408W        W55393  32.403  24.500  12.199
90409W        W55394  37.475  39.555   2.801
90410W        W55395  20.754  40.934   4.073
90411W        W55396  35.612   0.122  11.814
90412W        W55397   0.044  11.290   1.587
90413W        W55398   6.661  37.333   4.496
90414W        W55399  31.598  36.912  13.962
90415W        W55400  43.262  10.897   0.427
90416W        W55401  18.805  43.382  13.875
90417W        W55402  37.088  43.859   1.005
90418W        W55403  44.828  12.397  13.559
90419W        W55404  39.706  18.374  11.903
90420W        W55405  11.318  28.251  11.024
90421W        W55406  44.620  31.121   2.205
90422W        W55407   3.484  26.609  12.160
90423W        W55408  12.560   1.808   3.669
90424W        W55409  31.087  25.714  12.074
90425W        W55410   3.509  15.692  10.678
90426W        W55411  27.143  30.367   0.774
90427W        W55412  39.516  10.846   0.513
90428W        W55413  23.586  44.731  12.546
90429W        W55414   9.365  43.024  13.290
90430W        W55415  17.151  23.961  13.826
90431W        W55416   0.309   6.193   1.765
90432W        W55417   9.636  10.861  10.390
90433W        W55418   5.786  27.427   3.369
90434W        W55419  33.431   1.439   4.153
90435W        W55420  43.860   8.643   3.309
90436W        W55421   1.373  34.996  12.068
90437W        W55422  27.126  21.781  11.159
90438W        W55423  43.893  17.988   3.271
90439W        W55424  38.437  13.370   0.304
90440W        W55425  43.482  30.417   2.763
90441W        W55426  39.108   2.548  13.454
90442W        W55427   1.755  44.985  12.949
90443W        W55428  21.452  11.409  11.234
90444W        W55429  40.912  44.047  11.047
90445W        W55430  28.141   8.501  10.838
90446W        W55431  12.684  34.044   0.824
90447W        W55432  38.087  38.340   0.047
90448W        W55433  19.760  32.685  10.767
90449W        W55434  38.107  26.638  10.736
90450W        W55435  17.815   8.282  10.712
90451W        W55436  40.755  16.204   3.131
90452W        W55437  31.112   6.709   2.634
90453W        W55438  26.963  30.664  12.643
90454W        W55439   8.597  29.577  11.995
90455W        W55440  37.486  38.905  14.701
90456W        W55441  17.096  43.870  14.874
90457W        W55442  28.004   6.409   1.090
90458W        W55443   1.948  27.218   0.956
90459W        W55444   8.061   3.115   2.322
90460W        W55445  37.308  44.325   0.888
90461W        W55446   5.425  40.459   4.803
90462W        W55447  42.527  34.653  14.008
90463W        W55448  37.715  13.622  10.602
90464W        W55449  15.308   7.772  14.541
90465W        W55450  37.866  22.299   1.832
90466W        W55451  36.874  12.921  13.469
90467W        W55452   1.442   8.031   3.629
90468W        W55453   6.697  28.148  10.664
90469W        W55454  36.292  42.383  14.431
90470W        W55455  31.743  29.591   5.035
90471W        W55456  18.612  29.744  13.930
90472W        W55457  11.258  19.416  14.728
90473W        W55458  17.315  22.267   3.195
90474W        W55459  37.286  37.818  12.614
90475W        W55460  13.801  28.220   2.802
90476W        W55461   5.465  42.887   4.698
90477W        W55462  32.166  29.941  14.379
90478W        W55463   8.219  11.790   4.626
90479W        W55464  16.293  22.934  14.183
90480W        W55465   3.749  36.285  13.390
90481W        W55466   1.832  20.052  14.976
90482W        W55467   8.659   2.960  13.173
90483W        W55468  13.757  34.988   2.835
90484W        W55469  16.315  44.506   2.923
90485W        W55470  23.994  43.324  11.627
90486W        W55471  20.701  18.541  13.174
90487W        W55472   9.448   4.246   4.107
90488W        W55473  20.559   0.326  11.019
90489W        W55474  19.615  24.574  12.378
90490W        W55475   7.529  16.866   4.229
90491W        W55476  31.520  36.047   3.050
90492W        W55477   6.927  20.570   4.599
90493W        W55478  40.304  31.245   0.195
90494W        W55479   9.157  15.829  13.327
90495W        W55480  23.524   9.372   2.865
90496W        W55481  44.083  24.367   9.782
90497W        W55482   7.833  44.544   3.356
90498W        W55483   8.826  34.568  11.434
90499W        W55484  42.576  39.370  14.067
90500W        W55485  41.910  15.132   5.015
90501W        W55486  29.552  15.087   3.876
90502W        W55487  22.086   4.831  13.747
90503W        W55488  11.596   7.197  11.792
90504W        W55489  15.354  21.695   2.092
90505W        W55490  37.550  25.923  11.003
90506W        W55491  41.018  20.104  12.703
90507W        W55492  32.826  32.037   9.813
90508W        W55493   8.680  18.049  12.983
90509W        W55494  39.528  39.864  14.283
90510W        W55495  26.980  24.759  13.940
90511W        W55496  43.694  21.242   0.405
90512W        W55497  41.920  38.421   3.779
90513W        W55498  14.675  21.891  11.100
90514W        W55499   5.217  44.505  11.508
90515W        W55500  41.267   2.475   2.853
90516W        W55501  12.070   3.614  12.565
90517W        W55502  41.520  29.207   4.876
90518W        W55503  39.497  16.694   1.334
90519W        W55504  30.377  32.972  12.517
90520W        W55505  19.630  23.707  11.393
90521W        W55506  35.286   7.714  13.876
90522W        W55507  26.640  38.412  14.552
90523W        W55508  16.768  40.451  13.265
90524W        W55509  39.156  29.537   0.448
90525W        W55510  22.130  18.508   3.332
90526W        W55511   6.769  19.698   1.902
90527W        W55512  35.701  27.199  12.149
90528W        W55513  39.396   9.888  11.781
90529W        W55514  29.172  27.340  11.240
90530W        W55515  22.306  44.809  11.700
90531W        W55516  16.632  29.128   5.757
90532W        W55517   9.444  32.911  10.586
90533W        W55518  33.845   9.769   0.405
90534W        W55519  23.663   9.800   2.618
90535W        W55520   6.172  14.922  12.085
90536W        W55521  22.091  35.775   1.977
90537W        W55522  31.429  14.148   2.767
90538W        W55523  26.995  11.510  11.565
90539W        W55524  39.829   3.198   3.227
90540W        W55525  11.611  41.797  11.933
90541W        W55526   2.076   5.207   1.961
90542W        W55527  36.163  11.871   5.611
90543W        W55528  30.585  16.618   2.725
90544W        W55529  32.988  39.104   1.765
90545W        W55530  24.552   1.500   4.226
90546W        W55531  15.938  16.008   1.523
90547W        W55532  33.959  38.731   2.716
90548W        W55533  32.187   3.003   3.333
90549W        W55534  41.755  36.910  11.362
90550W        W55535  11.850   4.430   4.061
90551W        W55536  12.887  36.362  13.310
90552W        W55537  12.688  24.588  11.104
90553W        W55538  24.578  35.351  14.345
90554W        W55539  41.363   0.544  14.387
90555W        W55540  44.841   2.682  13.989
90556W        W55541  28.125  29.665   3.655
90557W        W55542  27.264  13.180   4.502
90558W        W55543   6.129  33.153  12.841
90559W        W55544  17.715  39.814  10.770
90560W        W55545  34.067   1.624   3.903
90561W        W55546   8.782  13.120   3.733
90562W        W55547   1.008   9.669  10.012
90563W        W55548  41.729   3.828  13.987
90564W        W55549  20.044  30.429  10.740
90565W        W55550  27.528  16.732   0.417
90566W        W55551   3.898  24.043  14.357
90567W        W55552  32.878  32.104   4.237
90568W        W55553  32.846  30.909  14.060
90569W        W55554  19.343  10.037   1.946
90570W        W55555   3.270  34.964  13.339
90571W        W55556  14.879  31.054   2.647
90572W        W55557  30.427  38.424  10.692
90573W        W55558  33.824   5.723  14.278
90574W        W55559  12.712  36.902   3.369
90575W        W55560   9.382  32.459   3.317
90576W        W55561  25.190  43.865   3.313
90577W        W55562  44.487  33.029   3.841
90578W        W55563  20.164  41.911   2.149
90579W        W55564  37.617   3.187  12.068
90580W        W55565  10.653  27.404   1.417
90581W        W55566  11.547  27.952  13.893
90582W        W55567  44.471   9.831  12.491
90583W        W55568   7.860  32.574   1.851
90584W        W55569  27.437  15.904  12.303
90585W        W55570  15.200  43.468  11.075
90586W        W55571  15.332  28.661  14.023
90587W        W55572  20.347   6.739  11.978
90588W        W55573  22.703  21.518   2.775
90589W        W55574  36.324   0.311   0.343
90590W        W55575  16.411  32.266  12.075
90591W        W55576   6.516   1.785  14.763
90592W        W55577  29.307  16.056   3.384
90593W        W55578  11.393  31.412   1.259
90594W        W55579   5.832  10.725   3.601
90595W        W55580  27.172  32.000  12.363
90596W        W55581  36.611  21.308  11.880
90597W        W55582   3.154  21.051   3.057
90598W        W55583  35.500   1.684  14.575
90599W        W55584  19.239  25.330  14.396
90600W        W55585  41.898  20.480   1.812
90601W        W55586  30.027  34.903  12.953
90602W        W55587  30.577  21.560   3.914
90603W        W55588  31.513  25.183   1.458
90604W        W55589  36.028  10.376   2.840
90605W        W55590  21.019   3.281  12.595
90606W        W55591  12.567  44.536  11.118
90607W        W55592  28.035  11.542  10.758
90608W        W55593  16.525  10.720   2.515
90609W        W55594  13.862  44.579  14.467
90610W        W55595  20.478  33.468   1.315
90611W        W55596   1.998   8.517  11.271
90612W        W55597  35.820   7.539  13.854
90613W        W55598  33.639   4.390   4.670
90614W        W55599  23.326  17.148  11.463
90615W        W55600  43.061  19.892  10.660
90616W        W55601  11.390  31.199   4.719
90617W        W55602  41.764   0.750   4.556
90618W        W55603  35.063  35.497  12.457
90619W        W55604  13.084  21.060  10.906
90620W        W55605  38.086   5.166  12.499
90621W        W55606  21.485  18.343  12.564
90622W        W55607  43.941  39.793   0.393
90623W        W55608   0.450  27.578  14.439
90624W        W55609  42.031   2.844  13.883
90625W        W55610   2.888  39.134   4.282
90626W        W55611  12.295  10.182  13.544
90627W        W55612  11.655  22.113   4.055
90628W        W55613  26.087  36.730  12.033
90629W        W55614  29.257  32.402  14.044
90630W        W55615  18.793  34.374   2.236
90631W        W55616  15.750   6.011   3.220
90632W        W55617  36.379   2.882   2.436
90633W        W55618   5.207  10.638   1.235
90634W        W55619  30.900  34.152  14.810
90635W        W55620   1.050   3.795  13.347
90636W        W55621  40.950  21.463   3.622
90637W        W55622   2.160  33.965  11.534
90638W        W55623  33.904   9.087   2.359
90639W        W55624  22.349  19.829   1.210
90640W        W55625   9.622  12.490  11.935
90641W        W55626  41.614  44.396   3.891
90642W        W55627  24.550  12.750   4.184
90643W        W55628  41.603   8.189  12.375
90644W        W55629  12.837   4.781  12.955
90645W        W55630   8.253  14.499   4.756
90646W        W55631  11.148  22.773   1.786
90647W        W55632   4.260  44.221  12.569
90648W        W55633   9.329  26.140   1.344
90649W        W55634  20.778  22.176   4.661
90650W        W55635  16.396   1.970  11.948
90651W        W55636  43.330   4.960  12.937
90652W        W55637   8.756   0.714   1.249
90653W        W55638  40.311  33.211  12.533
90654W        W55639  38.493  27.221   0.709
90655W        W55640  26.481  22.817   0.470
90656W        W55641  25.595  13.184   2.126
90657W        W55642  21.214  24.910  12.206
90658W        W55643  23.265  15.031  14.983
90659W        W55644   1.486  20.619   3.036
90660W        W55645  20.468  24.962   0.297
90661W        W55646  32.539  25.135   3.815
90662W        W55647  15.616   1.268  13.458
90663W        W55648  23.190  29.373   0.887
90664W        W55649  14.600  12.264   4.704
90665W        W55650  35.027  44.502   4.133
90666W        W55651  31.150   9.259   2.461
90667W        W55652  21.968  41.380   4.364
90668W        W55653  30.447  42.903   4.628
90669W        W55654  32.822  27.162   0.292
90670W        W55655  29.987  32.472   0.931
90671W        W55656  13.070  35.061   0.669
90672W        W55657   1.213  30.149   4.126
90673W        W55658  41.012  15.927  10.049
90674W        W55659  28.062  43.177   4.651
90675W        W55660  34.155  35.511  11.410
90676W        W55661  34.495  32.257   3.148
90677W        W55662  15.375  34.004   2.909
90678W        W55663   1.055   1.134   4.999
90679W        W55664   3.329  42.866  13.631
90680W        W55665  33.020  34.895   1.137
90681W        W55666  33.331  36.184  12.499
90682W        W55667  29.212  28.684  11.714
90683W        W55668  20.136  26.702  14.633
90684W        W55669   2.347   3.290   2.779
90685W        W55670  23.080  19.207   4.608
90686W        W55671  25.439   3.021  10.734
90687W        W55672  28.195  37.803  11.198
90688W        W55673   3.262   5.368   2.132
90689W        W55674   0.386   7.336   1.281
90690W        W55675   2.977  30.391  10.719
90691W        W55676   5.338  11.893  13.498
90692W        W55677  20.758   9.824  10.675
90693W        W55678  26.014  28.419  13.580
90694W        W55679  44.323  21.793  12.967
90695W        W55680   4.370  26.179  13.928
90696W        W55681  13.843  42.981   1.988
90697W        W55682  16.304  33.831  14.823
90698W        W55683  15.586  35.609   4.647
90699W        W55684   8.116  40.794  12.089
90700W        W55685   5.272   1.346   0.204
90701W        W55686  33.405  40.546  13.830
90702W        W55687   0.696  23.597   4.672
90703W        W55688  18.843  28.112   3.795
90704W        W55689   5.505  10.734  14.397
90705W        W55690  42.511  41.548  12.456
90706W        W55691  27.686  38.850   0.926
90707W        W55692  25.578   3.221  12.982
90708W        W55693  24.225   5.305   1.514
90709W        W55694  44.932  17.677   9.791
90710W        W55695  36.269  29.918  12.146
90711W        W55696  21.123  17.792   1.496
90712W        W55697   4.626  20.483  11.141
90713W        W55698  30.006  18.012   1.258
90714W        W55699   7.312  28.080   4.584
90715W        W55700   8.136  41.528  13.465
90716W        W55701  22.958   4.791   3.400
90717W        W55702  28.519   6.432  10.653
90718W        W55703  44.306  16.025   3.221
90719W        W55704   3.383  44.157  12.371
90720W        W55705  13.767  44.461   2.398
90721W        W55706  14.282  13.855   0.809
90722W        W55707   0.693  21.630   1.965
90723W        W55708  25.642  42.792   2.767
90724W        W55709  15.222  32.443  11.841
90725W        W55710   6.235  41.189  10.803
90726W        W55711  44.878  33.525   1.421
90727W        W55712  43.844  28.195   3.952
90728W        W55713   3.644  39.002  10.044
90729W        W55714  43.488  39.357  11.349
90730W        W55715  14.610  23.092  14.437
90731W        W55716   0.466  18.766  10.520
90732W        W55717  30.007  15.562  14.748
90733W        W55718  42.819  26.566   1.292
90734W        W55719  41.020  27.084   0.404
90735W        W55720  18.096  25.582   2.234
90736W        W55721  23.200   7.277  12.932
90737W        W55722   0.473  25.224   2.533
90738W        W55723   6.219  36.819  12.610
90739W        W55724  29.963  30.226  14.020
90740W        W55725  24.162  14.985  14.912
90741W        W55726  21.558  29.079  10.801
90742W        W55727  28.497  41.595  11.548
90743W        W55728  33.814  27.949   0.283
90744W        W55729  13.916  29.427   0.332
90745W        W55730  39.793  32.399   3.667
90746W        W55731   5.414  16.547   0.321
90747W        W55732   4.295  24.887  12.412
90748W        W55733  31.581   5.353  12.169
90749W        W55734  10.797  26.456  11.113
90750W        W55735  33.230  29.147   0.309
90751W        W55736  34.417  17.775   1.206
90752W        W55737   2.431   9.087   5.009
90753W        W55738  20.502  27.089   1.911
90754W        W55739  32.533  15.007  12.477
90755W        W55740   2.487   6.394  14.641
90756W        W55741  20.248   9.459  14.384
90757W        W55742   3.913  10.194   0.898
90758W        W55743  12.772  42.109  14.300
90759W        W55744  16.080  21.607  13.208
90760W        W55745  35.967  43.874  12.014
90761W        W55746  42.649  33.313   4.009
90762W        W55747  34.837  26.191  12.453
90763W        W55748  35.501  14.363   0.950
90764W        W55749  24.852  26.610   0.840
90765W        W55750   5.918  21.344   0.315
90766W        W55751   0.709  22.530   1.905
90767W        W55752   2.140  15.873   4.159
90768W        W55753  41.225   5.786   0.318
90769W        W55754   3.142  13.203   3.776
90770W        W55755  19.209  24.669   1.432
90771W        W55756  10.451  11.406   3.961
90772W        W55757   6.419   7.060   0.197
90773W        W55758  13.316   9.920   2.847
90774W        W55759  13.883  17.218  13.032
90775W        W55760  41.201  22.642   0.807
90776W        W55761  19.768  34.543  12.041
90777W        W55762  30.943  20.733  13.575
90778W        W55763   2.167  16.050  14.251
90779W        W55764  42.951  42.813  14.713
90780W        W55765  14.176   0.739   2.170
90781W        W55766  23.510  35.481  11.693
90782W        W55767  36.759   1.839   5.254
90783W        W55768  32.652  12.244  13.814
90784W        W55769  11.053  18.586   0.768
90785W        W55770  24.980  11.768   1.874
90786W        W55771  36.990  35.390  14.182
90787W        W55772  16.815  23.505  12.962
90788W        W55773  24.251  33.374   3.179
90789W        W55774   9.128  10.633  12.979
90790W        W55775  27.709  28.814  10.980
90791W        W55776  39.293  38.496  12.660
90792W        W55777  12.808  37.058   0.469
90793W        W55778  44.590  18.507   1.509
90794W        W55779  40.965   7.703  12.470
90795W        W55780   1.875  29.729   3.622
90796W        W55781   5.621  39.616   0.458
90797W        W55782  32.363  13.703  14.985
90798W        W55783  13.580  10.189   1.197
90799W        W55784  22.589  39.366   3.726
90800W        W55785   2.692  32.571  13.983
90801W        W55786   1.886  24.763   4.563
90802W        W55787  38.560  37.973   2.924
90803W        W55788  26.615  29.833  12.606
90804W        W55789   4.487  37.306  11.293
90805W        W55790   7.439  26.115  14.273
90806W        W55791  33.682  14.641  14.310
90807W        W55792  35.098  20.439  11.992
90808W        W55793  42.274  16.448   3.698
90809W        W55794   1.254   5.854   0.689
90810W        W55795  44.549  31.071   3.317
90811W        W55796  35.476  35.319   1.807
90812W        W55797  15.109  21.077  12.334
90813W        W55798  12.210   2.596  14.936
90814W        W55799  15.662  44.562   3.714
90815W        W55800   0.963  23.269  13.971
90816W        W55801  16.783  43.453   1.279
90817W        W55802  42.499  26.486  14.831
90818W        W55803  10.416  11.118  10.329
90819W        W55804  28.082   8.647   4.637
90820W        W55805  23.068  31.621   4.770
90821W        W55806  20.241  44.801   0.973
90822W        W55807  43.419  42.078   2.388
90823W        W55808   7.704  30.429  11.912
90824W        W55809  35.593  20.725   2.594
90825W        W55810   1.721  20.227   2.621
90826W        W55811  36.364  27.523   1.740
90827W        W55812  25.071  23.605  14.344
90828W        W55813  44.469  17.119   1.034
90829W        W55814  20.664  19.030  12.039
90830W        W55815  25.877  23.261  14.871
90831W        W55816  22.205  44.486   3.100
90832W        W55817  15.381  26.998  14.098
90833W        W55818  23.485  19.004  10.465
90834W        W55819  29.162  22.639  14.854
90835W        W55820   9.069  41.843  12.450
90836W        W55821  15.681  29.265   3.961
90837W        W55822  36.319  27.063  10.568
90838W        W55823  31.702  31.397  13.139
90839W        W55824   4.199  31.075  11.907
90840W        W55825  14.485  44.409   0.442
90841W        W55826  27.704  10.172  11.613
90842W        W55827  43.985  25.382   1.967
90843W        W55828   5.410  18.129  10.272
90844W        W55829   6.933  36.088   1.310
90845W        W55830  13.110  20.848   2.362
90846W        W55831  35.432  14.260  14.897
90847W        W55832  42.556   1.199   1.181
90848W        W55833  17.244  22.144  12.505
90849W        W55834  43.381  17.542   2.780
90850W        W55835  37.795  28.053   2.372
90851W        W55836   8.025  21.086   0.518
90852W        W55837  27.536  17.851   2.764
90853W        W55838  11.345  27.097   3.269
90854W        W55839  27.545  12.922   1.352
90855W        W55840  39.837  44.135   1.262
90856W        W55841  38.861   5.919  13.965
90857W        W55842   4.496  38.301  13.079
90858W        W55843  33.414  41.922  13.441
90859W        W55844  41.558  29.151  14.405
90860W        W55845  17.695  20.053   0.040
90861W        W55846  12.181   1.884   0.189
90862W        W55847  34.370  13.417  10.690
90863W        W55848  21.559  32.154  13.001
90864W        W55849  28.965  37.510  14.059
90865W        W55850  16.685  34.031  12.054
90866W        W55851  37.858  22.242   2.681
90867W        W55852  14.840   8.925  12.444
90868W        W55853  18.275  19.027  13.869
90869W        W55854  26.767  22.111  10.510
90870W        W55855  40.697  11.151   0.139
90871W        W55856  30.642  17.194   3.402
90872W        W55857  13.621  43.649  11.623
90873W        W55858  44.756   9.876  13.365
90874W        W55859  12.640   0.998   0.779
90875W        W55860  29.140  19.726   0.892
90876W        W55861  28.375  39.942   3.262
90877W        W55862  39.103   1.480   3.444
90878W        W55863  33.463   5.691  14.676
90879W        W55864  36.824  25.775  11.025
90880W        W55865  36.719  42.785  13.574
90881W        W55866  12.203  30.656  13.214
90882W        W55867  37.854  18.289  12.397
90883W        W55868  38.406  28.221  13.404
90884W        W55869  43.859  32.609   4.452
90885W        W55870  23.004  25.270   2.898
90886W        W55871  17.132  26.220  12.959
90887W        W55872  17.809   0.222   1.068
90888W        W55873  43.430  42.047   3.785
90889W        W55874  14.085  39.191  11.188
90890W        W55875   7.877   5.785   0.677
90891W        W55876  43.983  18.642  10.476
90892W        W55877   8.625  34.116  13.006
90893W        W55878  12.937  17.293   3.671
90894W        W55879  23.585  32.602   3.135
90895W        W55880  21.687  27.535  12.365
90896W        W55881  25.003  26.571   3.686
90897W        W55882   9.019  28.586  11.159
90898W        W55883   2.146  33.450   4.140
90899W        W55884  17.688  38.556   0.706
90900W        W55885   0.244  24.703  13.832
90901W        W55886  12.771  33.440  11.539
90902W        W55887  14.704  43.364  12.972
90903W        W55888  35.900  26.653   3.560
90904W        W55889  17.077  32.100   3.329
90905W        W55890  43.428  24.560   1.608
90906W        W55891  27.734   2.918   2.750
90907W        W55892   8.766  35.929  13.560
90908W        W55893  19.356  32.006   2.622
90909W        W55894  32.171  36.864  11.904
90910W        W55895  17.377  32.067   2.894
90911W        W55896  34.416  22.700   2.872
90912W        W55897  31.965  12.097  14.842
90913W        W55898  25.700  39.351   4.136
90914W        W55899  37.340   9.950  11.792
90915W        W55900  31.683  31.109   0.513
90916W        W55901  43.021  32.973   3.230
90917W        W55902  15.228  13.236  14.781
90918W        W55903  39.348  18.924   4.287
90919W        W55904  24.678  44.983   1.445
90920W        W55905  37.579  23.710   0.370
90921W        W55906  34.455   7.015   0.377
90922W        W55907  33.532  44.961   3.157
90923W        W55908  12.203   0.447   4.831
90924W        W55909   6.590  32.829   3.770
90925W        W55910  19.925  26.989   0.847
90926W        W55911   4.340   5.294  11.867
90927W        W55912  12.032  24.229   1.819
90928W        W55913  39.616   1.379  13.777
90929W        W55914  14.070  17.200  14.403
90930W        W55915  39.030  31.987  13.835
90931W        W55916   8.300  21.952  13.045
90932W        W55917  28.998  19.975  14.885
90933W        W55918   9.313  30.672   1.348
90934W        W55919  14.244  18.691   0.606
90935W        W55920   5.301  11.220  12.309
90936W        W55921  24.445  13.183  14.825
90937W        W55922  21.605  33.506  12.651
90938W        W55923  30.783  26.721  12.668
90939W        W55924  35.718   1.428  11.715
90940W        W55925   2.273   9.306   3.674
90941W        W55926  25.546  24.705  13.078
90942W        W55927  35.371  44.278  14.124
90943W        W55928  18.118  31.747   2.640
90944W        W55929  27.068  21.270  12.484
90945W        W55930  37.081  15.132  12.932
90946W        W55931  25.031  11.825   3.230
90947W        W55932   3.211   3.959  10.509
90948W        W55933   7.660  11.365  14.361
90949W        W55934  22.338  25.916  12.996
90950W        W55935  40.269  11.695   5.401
90951W        W55936  30.810  20.561   5.014
90952W        W55937  37.844  32.924   2.014
90953W        W55938  27.795  27.232  12.581
90954W        W55939   0.583  33.699   2.441
90955W        W55940  10.206  14.556  12.986
90956W        W55941   3.180   0.434   4.417
90957W        W55942  33.365   7.492  11.532
90958W        W55943   0.275   7.686  12.941
90959W        W55944  17.696  30.963  13.014
90960W        W55945  29.152  18.150   0.854
90961W        W55946  29.640   6.384  14.293
90962W        W55947   9.375  29.442   3.140
90963W        W55948  39.122   5.018   4.743
90964W        W55949  26.507  26.515   1.417
90965W        W55950  23.224  20.634  12.340
90966W        W55951  36.920  23.782  11.222
90967W        W55952  18.530   3.782   3.624
90968W        W55953   9.361  19.023  11.971
90969W        W55954   6.287  44.914   3.133
90970W        W55955  27.069  37.454   3.579
90971W        W55956   1.210  17.723  11.140
90972W        W55957  43.272  26.023   3.056
90973W        W55958  44.202  11.830  14.829
90974W        W55959  29.208  35.906   3.250
90975W        W55960  34.033  40.446   4.347
90976W        W55961  31.582  30.355  13.377
90977W        W55962   6.669  27.890  11.706
90978W        W55963   0.385  30.716  13.053
90979W        W55964  18.285  13.823   3.122
90980W        W55965  21.696  29.362  14.527
90981W        W55966  25.609  44.677  13.539
90982W        W55967  32.548  30.609   0.378
90983W        W55968  31.049   7.266  11.636
90984W        W55969  33.847  35.496  13.744
90985W        W55970  37.432   2.098   4.310
90986W        W55971  25.616   0.269   5.179
90987W        W55972  24.239  37.792   4.517
90988W        W55973  37.925  37.656   2.213
90989W        W55974  43.345  30.543   0.309
90990W        W55975  24.569  35.903  12.475
90991W        W55976  41.960  41.583   1.151
90992W        W55977   3.057  33.330   2.334
90993W        W55978   8.387  13.764  11.574
90994W        W55979  28.735  41.851  14.566
90995W        W55980  29.445  33.971   0.293
90996W        W55981  18.078  14.162  11.076
90997W        W55982  43.856   4.218   0.921
90998W        W55983  37.340  41.910   1.941
90999W        W55984  22.432  32.418   2.175
91000W        W55985  20.509   3.215  12.501
91001W        W55986   5.262  26.466  13.454
91002W        W55987  26.981   9.979  13.988
91003W        W55988  36.033  38.891   0.930
91004W        W55989   3.980  19.301   3.561
91005W        W55990   7.067  11.290   0.482
91006W        W55991  39.542  19.251  11.498
91007W        W55992  23.656   2.872   4.699
91008W        W55993  31.667  18.578  14.113
91009W        W55994   5.696  27.455  12.886
91010W        W55995  36.391  29.458  10.914
91011W        W55996  44.936  30.981  11.532
91012W        W55997  44.942  23.338   4.238
91013W        W55998  28.427  25.427   3.165
91014W        W55999   3.269  16.350  11.994
91015W        W56000  30.732  31.428  10.428
91016W        W56001  19.973  41.300   3.815
91017W        W56002  33.820  41.796   3.684
91018W        W56003  32.508  23.187   0.938
91019W        W56004  30.474   1.331  12.887
91020W        W56005  36.440  20.409  14.272
91021W        W56006   7.846  16.148  13.558
91022W        W56007  16.113  34.193   4.600
91023W        W56008  24.673  40.001  11.880
91024W        W56009  15.876  40.215  14.888
91025W        W56010   9.607   1.316   0.871
91026W        W56011  24.457  28.005   1.888
91027W        W56012  40.159  14.664   0.289
91028W        W56013   7.195  13.677   0.417
91029W        W56014  15.660  17.812   0.270
91030W        W56015  31.185  36.776   2.649
91031W        W56016   2.388   3.266   0.909
91032W        W56017   4.941  17.906  10.236
91033W        W56018  15.082  11.533   0.367
91034W        W56019  43.950   4.863  11.800
91035W        W56020  40.349  41.285  10.672
91036W        W56021  18.723  39.146  10.822
91037W        W56022  37.984  18.456  11.881
91038W        W56023  15.964  26.497   1.798
91039W        W56024  42.890  34.657  11.711
91040W        W56025  27.584  20.701  12.791
91041W        W56026  16.019   4.575   4.713
91042W        W56027  31.191  28.199  10.732
91043W        W56028  41.580  37.170  14.857
91044W        W56029   7.327  16.313   1.912
91045W        W56030   4.476  15.064   2.204
91046W        W56031  20.611  13.862   1.189
91047W        W56032   8.616   6.982   2.257
91048W        W56033  37.489   8.250  12.595
91049W        W56034  17.961  21.782  12.571
91050W        W56035  22.851  13.092   2.799
91051W        W56036  42.297   0.283   3.165
91052W        W56037  25.617   4.382   1.789
91053W        W56038  37.510   8.663  12.155
91054W        W56039  33.516  18.006   1.857
91055W        W56040  14.243  12.037   0.247
91056W        W56041  27.676  25.026  11.524
91057W        W56042  35.217  40.332  11.630
91058W        W56043  30.878   5.453   4.853
91059W        W56044  14.963  38.460  13.746
91060W        W56045  14.147  29.944   2.721
91061W        W56046  43.711  12.679  14.528
91062W        W56047   4.297  17.513  13.383
91063W        W56048  40.025  14.583  11.806
91064W        W56049   5.921  22.865  14.458
91065W        W56050  20.624  41.840   3.541
91066W        W56051  22.561   2.249   3.109
91067W        W56052   4.204  35.977   3.687
91068W        W56053  34.517  30.781  13.040
91069W        W56054  28.509  18.159   4.140
91070W        W56055  18.070  16.502  11.036
91071W        W56056  16.015  40.258   4.031
91072W        W56057  39.602  32.321  13.389
91073W        W56058   5.751  24.116   3.825
91074W        W56059  33.677  44.667   3.588
91075W        W56060  29.520  34.680  12.900
91076W        W56061   1.749  15.913  13.941
91077W        W56062   1.302  42.039  10.820
91078W        W56063   1.355   4.965  13.190
91079W        W56064  36.041  26.068  14.413
91080W        W56065  39.759   1.720   3.592
91081W        W56066  44.968  42.801  14.287
91082W        W56067   9.340  23.507  13.847
91083W        W56068  27.833   5.140   2.311
91084W        W56069  40.304   2.361   4.188
91085W        W56070  43.065   5.642   3.195
91086W        W56071   5.035   5.493  13.882
91087W        W56072  42.048   8.793   3.462
91088W        W56073   4.455  32.943   2.163
91089W        W56074  28.009  31.104  14.945
91090W        W56075  41.213   9.332   4.853
91091W        W56076  44.022  11.653  13.455
91092W        W56077  18.302  11.895  14.049
91093W        W56078   5.959  18.259  11.175
91094W        W56079  30.956  36.758   0.817
91095W        W56080  44.989  35.387  12.357
91096W        W56081  31.112   7.150   2.253
91097W        W56082  32.794   2.189   3.601
91098W        W56083  34.983  36.344  11.943
91099W        W56084  13.905   7.391   0.935
91100W        W56085  43.426  39.506   3.252
91101W        W56086  39.961  28.570   2.092
91102W        W56087  37.770  19.687   5.009
91103W        W56088  28.527  37.770   1.344
91104W        W56089  40.484  33.402   1.315
91105W        W56090  31.646  36.749   2.423
91106W        W56091  37.810  28.330  11.172
91107W        W56092   7.301  43.533   1.742
91108W        W56093  12.919   0.784   2.684
91109W        W56094  18.146   3.304   3.225
91110W        W56095  43.106   3.779  10.319
91111W        W56096  14.729  13.848   3.727
91112W        W56097  25.233  22.249  11.326
91113W        W56098  16.684  42.014   3.077
91114W        W56099  19.149  10.708   3.837
91115W        W56100   5.767  36.606  12.918
91116W        W56101  20.457   0.789  13.033
91117W        W56102  30.397  17.676  14.705
91118W        W56103  35.952  43.482  13.007
91119W        W56104   3.640  24.635  11.155
91120W        W56105  27.488   2.022  10.817
91121W        W56106  24.053   9.761  10.922
91122W        W56107  40.888   9.455   4.465
91123W        W56108  14.148  22.765   0.876
91124W        W56109   7.214  39.667   4.603
91125W        W56110  16.995   1.856   0.816
91126W        W56111   0.986  11.608  13.058
91127W        W56112  38.438  18.062   0.035
91128W        W56113   2.882  29.743   2.816
91129W        W56114  24.526   2.532  10.328
91130W        W56115  15.094  16.744   1.732
91131W        W56116  12.437  40.463   3.771
91132W        W56117   0.904  22.673   0.470
91133W        W56118  36.021  38.857  11.363
91134W        W56119   1.884   5.987   1.411
91135W        W56120  23.568  34.993  11.409
91136W        W56121   1.914  22.027   0.538
91137W        W56122  24.985  44.668  14.666
91138W        W56123  14.758  15.297  13.822
91139W        W56124  35.586  28.931  14.462
91140W        W56125  37.788  18.289   2.323
91141W        W56126  21.248   9.089   3.080
91142W        W56127   3.737   1.486   4.112
91143W        W56128  23.235   1.305   4.715
91144W        W56129  18.656  21.723  14.394
91145W        W56130   6.173  43.746   0.935
91146W        W56131  29.470  30.480   5.072
91147W        W56132   1.295  32.333  14.915
91148W        W56133  15.545   9.339   4.791
91149W        W56134   9.183  36.027   0.478
91150W        W56135  44.360   0.012   3.210
91151W        W56136  43.571  25.555  11.505
91152W        W56137  22.594  37.076   3.808
91153W        W56138  15.847  31.702  11.791
91154W        W56139  15.968   2.751   4.093
91155W        W56140  33.431  11.604  11.534
91156W        W56141   6.183  34.578   0.733
91157W        W56142  31.812   3.179  14.185
91158W        W56143  37.906  17.331   0.478
91159W        W56144   6.972   7.802  12.460
91160W        W56145  33.557  28.872   4.035
91161W        W56146  36.452  24.292  10.377
91162W        W56147   8.717  43.421  12.797
91163W        W56148  40.804  23.044   2.348
91164W        W56149  27.842  13.412   1.243
91165W        W56150  15.180  34.097   4.472
91166W        W56151  13.489  32.325  12.801
91167W        W56152  20.880  15.677  12.165
91168W        W56153  42.437  15.798  12.419
91169W        W56154   2.521   0.028  11.046
91170W        W56155  38.946   1.299   2.377
91171W        W56156  41.274   1.184   0.910
91172W        W56157   7.362   3.859   1.162
91173W        W56158  17.002  21.515   2.832
91174W        W56159  26.721  44.834   2.860
91175W        W56160  17.001  36.468  14.860
91176W        W56161   9.131  36.569   4.606
91177W        W56162  13.903  38.085   3.560
91178W        W56163  36.159  29.607   0.488
91179W        W56164  10.727   4.759  14.542
91180W        W56165  29.336  12.559   3.236
91181W        W56166  32.670   3.154  14.132
91182W        W56167  14.872  31.071   3.143
91183W        W56168  24.400  22.716   3.448
91184W        W56169   8.344  33.719   4.993
91185W        W56170  15.449   7.865  11.061
91186W        W56171   3.971  30.695   4.133
91187W        W56172  38.007   0.399   1.804
91188W        W56173  12.231  35.144   3.170
91189W        W56174   8.538  27.220  11.239
91190W        W56175  34.896  32.620  14.050
91191W        W56176  10.755  26.168  12.384
91192W        W56177  27.742  13.134  14.872
91193W        W56178  13.784   3.938   1.803
91194W        W56179  24.196  26.874   5.128
91195W        W56180  24.532  35.104  12.995
91196W        W56181  34.905  30.733  14.229
91197W        W56182  17.288  28.930   1.729
91198W        W56183  44.470  44.229   0.386
91199W        W56184  13.224   4.419   0.909
91200W        W56185  22.510   8.450  11.706
91201W        W56186  11.030  20.322  11.728
91202W        W56187   6.675  16.685   1.416
91203W        W56188  34.005   5.361  12.669
91204W        W56189  24.150  13.091   2.445
91205W        W56190  42.741  34.477   3.203
91206W        W56191  29.178  35.087  11.158
91207W        W56192   4.763  29.024  12.553
91208W        W56193   4.844  15.086  13.740
91209W        W56194  21.982   8.774   1.302
91210W        W56195  12.936  34.621   2.307
91211W        W56196  41.593  32.328   0.647
91212W        W56197  23.562  15.388  13.175
91213W        W56198  31.913  36.441   1.738
91214W        W56199  43.568  11.225  12.107
91215W        W56200  35.566  29.394  14.183
91216W        W56201  30.150  32.969  14.772
91217W        W56202  34.181  40.816   1.923
91218W        W56203  39.690  33.358   3.753
91219W        W56204  17.150  43.820   2.302
91220W        W56205  10.242  25.468   4.021
91221W        W56206  34.842  10.920  10.802
91222W        W56207  17.243  24.031  10.286
91223W        W56208  12.893  16.593  10.815
91224W        W56209  31.316  31.649   1.675
91225W        W56210  17.614  43.258   3.871
91226W        W56211   7.004  35.332   2.829
91227W        W56212   7.120  43.677  13.748
91228W        W56213  24.473   0.436  14.610
91229W        W56214  32.248  13.266   5.289
91230W        W56215  24.101  23.484  12.110
91231W        W56216   6.224  34.375  14.737
91232W        W56217   4.912  19.771   9.914
91233W        W56218   4.958  27.905  10.952
91234W        W56219  27.665  44.475  12.161
91235W        W56220  18.125   9.811   1.327
91236W        W56221  34.265   4.712   0.424
91237W        W56222   0.203   3.815  11.723
91238W        W56223   7.857  38.290  13.975
91239W        W56224  41.545  29.948   0.365
91240W        W56225  34.515  30.019  12.485
91241W        W56226  17.223  33.846   2.803
91242W        W56227  25.596  23.417  11.982
91243W        W56228  36.825   9.220  13.928
91244W        W56229  12.865  30.087   3.147
91245W        W56230  10.187  30.404   0.403
91246W        W56231  11.961  37.681   0.435
91247W        W56232   7.173  44.015   2.818
91248W        W56233  10.752  33.177  12.432
91249W        W56234  32.239   0.172  11.128
91250W        W56235  13.619  18.984  12.516
91251W        W56236   1.962  43.377   2.997
91252W        W56237  28.643  41.682   1.234
91253W        W56238  11.209  23.121  11.175
91254W        W56239  27.235  40.891  13.055
91255W        W56240  20.997  10.462   4.304
91256W        W56241  21.988  14.794  10.651
91257W        W56242   7.635  14.020  11.115
91258W        W56243  14.283   0.450  13.493
91259W        W56244   0.491  23.501   3.949
91260W        W56245  21.439   6.735  14.504
91261W        W56246  31.115  27.239   3.123
91262W        W56247  17.289   3.826   4.163
91263W        W56248  21.087   5.723   4.584
91264W        W56249  22.536  41.845  12.466
91265W        W56250  11.660   2.462   4.349
91266W        W56251  35.546   4.209   0.424
91267W        W56252  37.439  29.183   4.826
91268W        W56253  15.236  26.578   4.753
91269W        W56254   7.937   3.807  12.091
91270W        W56255  18.626   2.269   1.926
91271W        W56256  23.668  12.377  11.118
91272W        W56257   3.026  39.794   1.388
91273W        W56258  29.044  21.210   2.779
91274W        W56259   1.266   5.091  11.124
91275W        W56260  28.293  23.100  14.784
91276W        W56261  33.229  23.525  12.416
91277W        W56262  26.222  40.036  13.229
91278W        W56263  28.514  27.703   0.973
91279W        W56264  21.591  35.413   2.141
91280W        W56265  36.408  10.951  14.918
91281W        W56266  38.996  24.294  11.776
91282W        W56267  32.668  43.103  11.084
91283W        W56268   6.307  14.818  14.573
91284W        W56269  16.134   3.988   1.193
91285W        W56270  25.088   0.883   2.517
91286W        W56271  24.643  36.078   1.430
91287W        W56272  42.957  18.534   1.506
91288W        W56273  39.316  31.787  14.360
91289W        W56274  39.389  23.067   4.038
91290W        W56275  10.767  39.672  13.109
91291W        W56276   9.204  29.412   1.604
91292W        W56277  34.627  35.491   1.662
91293W        W56278   5.245   5.287   0.915
91294W        W56279  41.961  11.147  12.885
91295W        W56280   1.684  34.102  12.582
91296W        W56281   6.376  10.231   1.429
91297W        W56282  29.207  24.497  11.105
91298W        W56283   8.135  33.555   3.318
91299W        W56284  44.468  40.030  12.611
91300W        W56285  21.992  28.210   0.792
91301W        W56286  37.818  30.185  14.953
91302W        W56287  32.936  34.668   3.307
91303W        W56288  22.625  41.563  13.875
91304W        W56289  20.824   1.068   0.823
91305W        W56290  32.645  16.111   1.289
91306W        W56291  27.092   0.437  10.035
91307W        W56292  30.884  35.945   0.348
91308W        W56293  20.730  29.467  12.040
91309W        W56294   3.738  44.626   9.819
91310W        W56295  19.742  20.205   2.676
91311W        W56296  19.301  40.340  14.835
91312W        W56297   2.363  33.588   0.553
91313W        W56298  31.468  22.707  13.550
91314W        W56299  44.712   2.746   0.062
91315W        W56300  12.850  39.847  10.734
91316W        W56301  34.033  12.826   3.974
91317W        W56302  37.391   0.205  14.831
91318W        W56303   1.344  22.751  11.847
91319W        W56304   7.651  28.359   0.396
91320W        W56305  23.279   5.104   1.155
91321W        W56306  33.544  27.441   0.703
91322W        W56307  33.374  34.578  10.771
91323W        W56308   0.820  13.317  11.529
91324W        W56309   4.821  18.538   5.059
91325W        W56310  10.761  39.970  10.417
91326W        W56311   2.663  30.986  11.981
91327W        W56312  28.152  33.917   2.148
91328W        W56313  21.613   0.485  13.994
91329W        W56314  39.099   2.712  13.952
91330W        W56315  37.958  30.316  13.187
91331W        W56316   6.473   3.392   4.116
91332W        W56317  15.568  32.946   4.918
91333W        W56318  40.918   4.353  14.050
91334W        W56319   4.923   9.059   4.775
91335W        W56320  39.861  15.093   0.284
91336W        W56321  24.411  21.676   2.291
91337W        W56322  31.875  37.792   4.477
91338W        W56323  44.701  36.255   1.547
91339W        W56324   8.841  11.315   1.183
91340W        W56325   7.650  36.404  14.829
91341W        W56326   7.608  36.145  11.593
91342W        W56327  36.724  21.275   5.068
91343W        W56328  11.649  30.387   2.043
91344W        W56329   9.915  29.217   2.131
91345W        W56330  14.836  17.960   4.617
91346W        W56331  43.331  33.460   0.222
91347W        W56332   0.830  31.374   2.102
91348W        W56333  44.228   3.818   4.364
91349W        W56334  29.510  23.650   4.584
91350W        W56335  32.635  18.928   3.120
91351W        W56336  11.637   5.426   5.002
91352W        W56337  35.318  44.344  11.419
91353W        W56338   0.505  23.401  13.729
91354W        W56339   1.605  18.862   3.331
91355W        W56340  35.017  42.102  12.666
91356W        W56341  21.982  10.964  12.862
91357W        W56342  13.014   6.418   4.158
91358W        W56343  32.540  16.082  14.817
91359W        W56344  39.929  35.848  13.975
91360W        W56345  19.447  44.507  11.871
91361W        W56346  16.635   9.820  14.865
91362W        W56347  26.446  13.235   0.859
91363W        W56348  31.140   3.730   4.105
91364W        W56349  27.407  29.485  14.424
91365W        W56350   4.245  33.828   9.910
91366W        W56351  29.190  43.175  14.945
91367W        W56352  21.074  19.205  13.008
91368W        W56353  36.387  12.635  12.190
91369W        W56354  27.458   3.334  13.309
91370W        W56355  26.972   6.610   1.962
91371W        W56356  18.069  28.991  12.909
91372W        W56357  19.040  40.824   2.008
91373W        W56358  40.358  37.044   1.359
91374W        W56359  31.532  18.941  14.478
91375W        W56360   4.093   1.692  13.624
91376W        W56361  13.114   6.888   4.503
91377W        W56362   4.707  32.161   3.099
91378W        W56363  25.609  44.905  11.548
91379W        W56364  10.973  17.352  13.725
91380W        W56365  18.595  22.063  12.068
91381W        W56366  23.202  21.254  10.441
91382W        W56367  23.081  44.268  10.663
91383W        W56368   3.477  13.789  12.867
91384W        W56369  41.232  31.604  13.915
91385W        W56370  39.260   5.254  12.482
91386W        W56371   0.243  31.018  11.108
91387W        W56372  27.901   9.827   0.347
91388W        W56373   5.653   9.138   3.758
91389W        W56374  30.760  39.635  11.464
91390W        W56375   8.011   5.795  12.956
91391W        W56376  19.888  23.730  13.812
91392W        W56377   9.381  34.832   0.866
91393W        W56378  25.820  32.033   1.191
91394W        W56379   2.263   9.284  10.663
91395W        W56380  10.693   1.918  10.254
91396W        W56381  16.269   3.402   0.970
91397W        W56382  32.887  34.514   3.840
91398W        W56383  32.436  17.539   4.138
91399W        W56384  27.590  14.162  13.428
91400W        W56385   8.745  43.254   3.868
91401W        W56386   7.368  40.583  13.347
91402W        W56387  23.409  14.620   0.232
91403W        W56388  22.831  25.901  14.862
91404W        W56389   6.129  27.734   1.346
91405W        W56390   8.137   8.823   1.384
91406W        W56391  38.544  10.313   1.992
91407W        W56392   7.855  38.557   4.032
91408W        W56393  41.347  24.703  14.461
91409W        W56394   8.598  43.722  12.364
91410W        W56395  31.105  41.786   3.157
91411W        W56396  27.235   5.763  11.949
91412W        W56397  30.866  40.397  12.785
91413W        W56398   2.392  25.655   0.943
91414W        W56399   5.772  25.289  14.527
91415W        W56400  40.485  44.530  14.297
91416W        W56401  40.907  43.374  14.697
91417W        W56402  29.600  25.413   4.993
91418W        W56403  25.247   4.290   3.205
91419W        W56404  29.847  28.135  11.991
91420W        W56405  21.457  25.161  13.158
91421W        W56406   5.005  33.103   2.856
91422W        W56407  43.707  34.565   4.972
91423W        W56408  19.333   1.169   3.586
91424W        W56409  12.301   9.135  11.465
91425W        W56410   0.588   1.538  12.148
91426W        W56411  20.668  13.004   0.007
91427W        W56412  41.555  14.090  13.415
91428W        W56413   4.459   6.674  14.774
91429W        W56414  41.825   6.603  13.041
91430W        W56415  27.773  39.505   4.543
91431W        W56416   6.747  30.693  12.936
91432W        W56417  20.651  34.583   3.722
91433W        W56418  17.131   3.084   5.436
91434W        W56419  29.037  41.043  11.561
91435W        W56420  15.615  29.269  11.222
91436W        W56421   3.412   8.677  10.661
91437W        W56422  34.072  39.853  11.241
91438W        W56423  44.019  42.729  11.510
91439W        W56424  22.504  19.268   0.262
91440W        W56425  21.446  36.800  14.468
91441W        W56426   7.039  25.492  11.553
91442W        W56427  12.633  31.511   0.560
91443W        W56428  39.864  39.288   2.207
91444W        W56429  44.449  43.591  12.579
91445W        W56430  41.051   4.572  12.952
91446W        W56431  31.696  36.750  14.473
91447W        W56432  40.272   2.295   1.752
91448W        W56433   6.451   3.711  10.325
91449W        W56434   5.411   8.662  13.312
91450W        W56435  39.619  21.112  14.609
91451W        W56436  14.569  29.627  13.897
91452W        W56437  19.519  10.099  13.372
91453W        W56438  21.666  42.024  11.511
91454W        W56439   8.271  37.164   4.188
91455W        W56440   2.314  14.064   5.169
91456W        W56441  37.602   5.341  11.197
91457W        W56442  39.791  15.952  13.340
91458W        W56443  28.211  18.296   4.825
91459W        W56444  40.800   4.840   4.394
91460W        W56445  12.374  11.041  13.091
91461W        W56446  41.059  32.489  12.517
91462W        W56447  33.672  29.793  11.937
91463W        W56448   4.691  20.269   2.837
91464W        W56449   4.202   6.356   4.245
91465W        W56450  32.627   7.048   2.181
91466W        W56451  22.570  16.240   3.757
91467W        W56452   2.158   8.319  13.691
91468W        W56453  14.436  24.815   3.583
91469W        W56454  12.132   2.280   2.368
91470W        W56455   6.342  42.451   0.695
91471W        W56456  18.651   1.695  14.813
91472W        W56457  42.270  15.261   0.659
91473W        W56458   8.015  38.951  14.992
91474W        W56459  19.678  44.441   3.605
91475W        W56460  40.350   5.894  13.035
91476W        W56461  41.360  19.252   3.261
91477W        W56462  40.912  25.005   3.999
91478W        W56463  12.331  18.993  13.347
91479W        W56464  19.157   9.277   4.301
91480W        W56465  39.076  31.537  12.388
91481W        W56466  35.499  39.440   2.376
91482W        W56467   8.601   9.813   4.123
91483W        W56468   9.875  33.183  14.130
91484W        W56469  41.908   9.312   2.652
91485W        W56470   0.833  40.635  11.279
91486W        W56471  32.052  12.860   2.414
91487W        W56472   1.106   7.347  13.883
91488W        W56473   8.206   5.897   1.402
91489W        W56474  19.585  24.577  14.771
91490W        W56475  38.468  21.101   0.450
91491W        W56476  36.136  15.860  11.040
91492W        W56477  15.772  12.298   1.164
91493W        W56478   5.770   9.804   4.094
91494W        W56479   8.201  20.059   0.807
91495W        W56480  21.674  14.165   4.822
91496W        W56481  30.145  33.483   3.370
91497W        W56482   8.048   7.306   2.771
91498W        W56483  36.600  26.996  12.733
91499W        W56484  16.571   0.873   2.285
91500W        W56485   8.631   9.249  13.847
91501W        W56486  26.972  27.408   1.667
91502W        W56487  43.501  28.651   3.220
91503W        W56488  16.655  19.248   5.596
91504W        W56489  39.420  12.088  12.053
91505W        W56490  37.892  43.529   1.387
91506W        W56491   8.993   3.139  13.982
91507W        W56492  32.329  35.561  14.045
91508W        W56493  34.818  15.353   2.805
91509W        W56494  36.505  39.781  11.547
91510W        W56495  12.684   0.377  14.928
91511W        W56496   2.804  17.404   4.801
91512W        W56497  39.969  21.728  14.629
91513W        W56498  39.507  40.522   0.607
91514W        W56499  19.689  14.675   2.548
91515W        W56500  37.730  11.951   1.049
91516W        W56501  17.144  34.935  13.066
91517W        W56502  32.736  15.891  12.713
91518W        W56503  11.436  12.175  10.805
91519W        W56504   9.153   0.774  14.260
91520W        W56505  21.740  39.575   4.283
91521W        W56506  40.573   1.319   3.667
91522W        W56507  32.120  40.731  12.490
91523W        W56508  14.029  24.834  13.356
91524W        W56509  15.661  28.827   0.751
91525W        W56510  13.669  23.416   2.847
91526W        W56511  16.567  39.325  11.633
91527W        W56512  31.501  20.563  13.127
91528W        W56513  44.717  34.437   4.120
91529W        W56514  31.847  12.631  14.852
91530W        W56515  26.498   3.258  13.440
91531W        W56516  20.266   7.370   3.625
91532W        W56517  33.003   8.383   1.743
91533W        W56518  25.204  39.514  13.137
91534W        W56519  13.653  37.017  11.870
91535W        W56520  44.402  39.893  10.616
91536W        W56521  17.195  31.222   0.598
91537W        W56522   0.923  33.951   0.274
91538W        W56523   7.685  30.358  11.102
91539W        W56524   5.852   0.807  11.701
91540W        W56525  40.439  25.913  12.995
91541W        W56526  42.173  14.409   1.237
91542W        W56527   4.384   0.676   2.648
91543W        W56528  12.167  14.538  12.585
91544W        W56529   2.864   0.033   3.712
91545W        W56530  21.086  39.324  12.369
91546W        W56531  21.462  16.146  14.749
91547W        W56532  31.146   8.395   2.776
91548W        W56533  12.046   3.225   4.538
91549W        W56534  30.586   2.733  13.834
91550W        W56535  19.782  44.323   2.629
91551W        W56536  42.959  39.708  11.490
91552W        W56537  10.140  37.931  11.648
91553W        W56538  21.482  17.828   1.872
91554W        W56539  36.356  35.037   4.631
91555W        W56540  12.006  15.437  12.581
91556W        W56541  22.348  21.411   4.992
91557W        W56542  27.899   4.725  14.891
91558W        W56543  40.256  14.004   2.376
91559W        W56544  39.624  22.582   1.193
91560W        W56545  31.588  17.355   0.296
91561W        W56546  29.948  13.710   1.831
91562W        W56547  26.150   2.866  13.577
91563W        W56548   3.310  29.663   3.793
91564W        W56549  12.569  36.974   2.443
91565W        W56550  37.925  34.468  11.217
91566W        W56551  17.358   6.452  11.679
91567W        W56552  33.710  35.462  13.226
91568W        W56553  11.341  17.838  12.607
91569W        W56554  36.549  18.670  11.015
91570W        W56555  15.581  44.700   0.635
91571W        W56556   7.012  42.596  12.387
91572W        W56557  29.998  27.906   3.165
91573W        W56558  20.706  25.023   3.732
91574W        W56559  38.022  22.363  14.823
91575W        W56560  31.598  35.005   1.733
91576W        W56561  19.727   6.207  11.052
91577W        W56562   9.806  36.807   2.177
91578W        W56563  25.457  37.796  10.397
91579W        W56564  29.467   5.413   4.006
91580W        W56565  43.661  38.482  11.251
91581W        W56566   6.762  42.744  10.542
91582W        W56567   6.403  41.052   2.411
91583W        W56568  18.592  15.755  13.955
91584W        W56569   0.756  30.507   4.543
91585W        W56570  23.776  34.626   0.808
91586W        W56571  12.346   5.685  11.372
91587W        W56572  34.019  36.900  14.029
91588W        W56573  16.585  24.612   3.095
91589W        W56574  14.556  24.226  12.917
91590W        W56575   6.278  15.713   4.729
91591W        W56576  35.347  10.638  13.155
91592W        W56577   6.193  36.041   3.780
91593W        W56578  14.064  13.243  11.627
91594W        W56579  17.195  36.378  14.396
91595W        W56580   1.825  42.768  10.619
91596W        W56581  36.533  39.952   1.721
91597W        W56582  18.679   4.175  13.338
91598W        W56583  24.080  28.586   2.585
91599W        W56584  19.544  14.784   0.264
91600W        W56585   5.307  44.889  10.639
91601W        W56586  22.777   4.443   0.789
91602W        W56587  42.782  39.745  10.997
91603W        W56588  10.228  42.948  13.274
91604W        W56589   0.978  38.071   3.856
91605W        W56590  32.909  27.673   0.064
91606W        W56591  34.093   6.094  14.034
91607W        W56592  37.320  25.632  11.767
91608W        W56593  24.135   4.183   2.279
91609W        W56594  22.305  21.550  14.519
91610W        W56595  24.222  35.109  10.707
91611W        W56596  33.983  16.519   4.665
91612W        W56597  27.411   0.034  11.167
91613W        W56598   9.993  26.022  11.629
91614W        W56599   3.398   7.251  10.320
91615W        W56600  41.220  13.246  12.138
91616W        W56601   3.915   2.488   1.408
91617W        W56602  32.107  24.124   0.987
91618W        W56603  16.207  25.720  12.161
91619W        W56604  43.896  44.382   3.750
91620W        W56605   4.344  42.818  11.894
91621W        W56606   6.287  26.224   2.593
91622W        W56607   1.917  40.545   3.155
91623W        W56608  17.734  17.724  14.711
91624W        W56609  40.562  15.839   1.898
91625W        W56610   3.301   7.405  14.393
91626W        W56611  15.563  29.658   0.197
91627W        W56612  34.713   7.629  11.009
91628W        W56613  27.906  17.160   1.204
91629W        W56614   7.173  32.181  14.157
91630W        W56615   9.353  11.719  12.918
91631W        W56616  26.622  35.171  12.465
91632W        W56617   4.637  23.544   1.538
91633W        W56618  11.638  35.741  10.799
91634W        W56619   4.538   9.799  10.853
91635W        W56620   7.322  29.409  13.019
91636W        W56621  32.579   2.459   2.672
91637W        W56622  39.838  13.389  12.082
91638W        W56623  38.064  23.580   3.726
91639W        W56624  25.024  16.636   1.690
91640W        W56625  18.263  16.480  14.611
91641W        W56626   8.801  22.105   1.942
91642W        W56627   2.997  12.471   1.006
91643W        W56628  11.327   6.040  12.705
91644W        W56629  26.482   1.966   2.105
91645W        W56630  15.460  24.960  10.199
91646W        W56631   8.970  29.195  13.456
91647W        W56632  36.784  33.588  10.974
91648W        W56633  28.677  25.850   0.136
91649W        W56634  25.379  10.777   3.317
91650W        W56635   5.727  26.689  10.736
91651W        W56636  16.690   9.860  13.841
91652W        W56637  24.821  30.909   0.837
91653W        W56638  30.228  12.427  12.599
91654W        W56639  35.210  23.453  10.229
91655W        W56640   9.211  23.147   0.131
91656W        W56641   4.650   7.904  12.288
91657W        W56642  28.625   0.438   4.627
91658W        W56643  21.135  40.417  14.567
91659W        W56644  17.240  26.705   1.490
91660W        W56645   0.017  16.005   4.720
91661W        W56646  41.922  25.252   1.146
91662W        W56647   6.231   3.890   1.750
91663W        W56648  21.942  13.815  10.772
91664W        W56649  23.569  39.547   4.621
91665W        W56650   3.524  25.702  12.569
91666W        W56651  39.486  43.966  11.155
91667W        W56652   7.114  37.407   2.713
91668W        W56653  40.883  10.103   3.750
91669W        W56654  21.313  40.965  11.589
91670W        W56655  34.623  11.200   1.637
91671W        W56656  38.619  40.882  14.723
91672W        W56657  12.126   9.792  10.977
91673W        W56658   5.768  43.813   2.707
91674W        W56659   6.721  26.963   2.399
91675W        W56660  13.974   8.720  14.058
91676W        W56661  24.154  43.589  13.419
91677W        W56662  32.148  22.390  12.866
91678W        W56663  35.025  15.025   1.009
91679W        W56664  26.486  18.020  14.510
91680W        W56665   6.207  20.639  14.972
91681W        W56666  29.419  30.124  11.474
91682W        W56667  17.163  11.938   3.663
91683W        W56668  37.294  36.418   2.404
91684W        W56669   8.281  42.105  14.730
91685W        W56670  22.174  23.383  14.475
91686W        W56671  40.378  41.989  12.649
91687W        W56672  21.947  40.965   1.273
91688W        W56673  34.613  24.352  13.262
91689W        W56674  24.684  41.324  11.139
91690W        W56675  43.391   5.195  10.733
91691W        W56676  44.964  37.042  14.284
91692W        W56677  37.979  24.942  14.406
91693W        W56678   8.171   2.793   1.826
91694W        W56679  31.284  17.540  13.091
91695W        W56680  32.393   1.998   3.870
91696W        W56681  39.101  41.410   3.988
91697W        W56682  37.088  33.473   1.858
91698W        W56683  38.872  33.054   1.739
91699W        W56684  14.422   5.393   2.851
91700W        W56685  36.827  32.503   4.506
91701W        W56686   3.252   1.808  10.854
91702W        W56687   7.141  22.750   2.867
91703W        W56688  10.154   8.725   1.194
91704W        W56689   4.894  20.222  10.198
91705W        W56690  15.837  16.104   1.018
91706W        W56691  11.414  19.483  11.855
91707W        W56692   4.390  12.426  13.764
91708W        W56693   7.489  42.858  11.064
91709W        W56694  29.822  27.179   4.887
91710W        W56695  28.013  11.465  13.900
91711W        W56696  33.889  18.774   4.327
91712W        W56697  36.678  24.668   2.775
91713W        W56698  22.479   4.829  13.371
91714W        W56699  29.916   6.571  10.540
91715W        W56700   1.060  35.083  10.841
91716W        W56701  11.940  25.404   0.166
91717W        W56702  21.567  32.404   0.382
91718W        W56703  10.454  29.459   2.647
91719W        W56704  33.514  12.519   2.277
91720W        W56705  20.219  42.248  14.842
91721W        W56706  15.638  20.689   4.794
91722W        W56707   1.383  28.620   1.673
91723W        W56708  19.074   3.802  12.633
91724W        W56709  28.020  15.074   4.241
91725W        W56710  17.700  23.309  12.952
91726W        W56711   0.959   9.510   2.322
91727W        W56712  19.145   2.239   0.287
91728W        W56713  26.502  43.762   0.745
91729W        W56714  44.226   1.092  13.369
91730W        W56715   4.250  16.057   4.292
91731W        W56716   1.496  13.229   1.887
91732W        W56717  17.583  17.864   2.258
91733W        W56718  38.842  26.027   2.224
91734W        W56719  27.571   6.902  10.592
91735W        W56720  10.603   8.295   2.381
91736W        W56721  35.618  16.312  11.661
91737W        W56722  18.782  33.999   0.950
91738W        W56723  24.287  28.644  10.903
91739W        W56724  26.884  41.296   2.477
91740W        W56725  36.230  42.811   0.801
91741W        W56726  14.087   3.328  13.965
91742W        W56727  40.025   6.913   4.092
91743W        W56728  41.961  30.584  10.420
91744W        W56729  21.966   8.841  14.521
91745W        W56730  23.772  12.886  11.070
91746W        W56731  42.845  40.321  13.705
91747W        W56732   8.292  39.304   2.676
91748W        W56733   5.163   4.167  12.479
91749W        W56734  38.340  41.807   4.170
91750W        W56735   2.429  36.043  11.566
91751W        W56736  26.619   3.911  10.725
91752W        W56737   4.328  28.346  10.690
91753W        W56738  31.509  31.987   4.631
91754W        W56739   3.527  21.869  11.300
91755W        W56740  44.822  17.673   0.895
91756W        W56741   3.707   0.333   3.654
91757W        W56742  17.070  22.693  10.524
91758W        W56743  13.631   7.832   3.180
91759W        W56744  27.756   6.908  11.560
91760W        W56745   8.278  40.980  14.541
91761W        W56746  25.243  18.208   1.709
91762W        W56747  18.742  16.677   0.484
91763W        W56748  25.444  31.676  14.205
91764W        W56749  44.787   3.189   0.309
91765W        W56750  31.982  42.336  13.797
91766W        W56751   0.370  23.556   0.057
91767W        W56752   9.747   7.245  11.439
91768W        W56753  27.060  17.367   2.686
91769W        W56754   8.342  18.551  11.256
91770W        W56755   6.482   8.726  11.448
91771W        W56756  20.154  19.368  12.916
91772W        W56757   0.164  31.095   2.924
91773W        W56758  36.810  42.522   4.184
91774W        W56759  35.460  15.179   0.226
91775W        W56760  14.005  14.647   2.386
91776W        W56761   5.322  30.950   1.578
91777W        W56762  20.247  38.884  14.452
91778W        W56763  34.007  24.879   2.798
91779W        W56764   3.112  24.603  11.103
91780W        W56765  26.974  35.551  12.517
91781W        W56766   3.407  41.017   0.327
91782W        W56767  16.927  37.495  11.572
91783W        W56768  11.846   8.689   2.703
91784W        W56769  13.575  31.445   0.260
91785W        W56770  38.121  40.805  10.889
91786W        W56771   5.395   5.706  12.555
91787W        W56772   1.319  19.051  10.754
91788W        W56773  23.097   1.902  13.900
91789W        W56774  20.493  40.028   1.440
91790W        W56775  40.988  44.851  11.584
91791W        W56776   0.191  29.434   0.087
91792W        W56777  39.304  34.395   9.971
91793W        W56778  36.631  17.972  12.263
91794W        W56779  10.400  33.341   2.198
91795W        W56780  11.195  13.313  12.097
91796W        W56781  20.969   9.262  14.871
91797W        W56782  28.274  32.974  10.872
91798W        W56783   3.784  33.866   3.139
91799W        W56784  24.734  12.910  10.738
91800W        W56785  14.823  37.667  11.444
91801W        W56786  22.470  14.578   1.257
91802W        W56787   0.379  42.504  10.730
91803W        W56788   8.367  25.025   0.370
91804W        W56789  22.864  25.067  10.224
91805W        W56790  40.137  38.757   3.835
91806W        W56791   0.442   0.898   2.486
91807W        W56792  15.733  13.147  14.825
91808W        W56793   9.860  24.774  11.612
91809W        W56794   6.441  32.108  11.739
91810W        W56795  23.538   3.359   2.162
91811W        W56796  13.847  41.372   0.779
91812W        W56797  11.879   5.871  12.977
91813W        W56798  32.599  22.332  14.338
91814W        W56799  13.210   1.575  10.617
91815W        W56800  35.622  14.791   2.977
91816W        W56801   2.349  13.145  12.393
91817W        W56802   3.765   1.917   0.407
91818W        W56803  16.767  21.056  11.075
91819W        W56804  21.849  16.632   5.021
91820W        W56805  32.327   5.004  14.631
91821W        W56806   4.871  22.177  14.059
91822W        W56807  29.910  29.143  13.444
91823W        W56808  33.186   7.714  13.529
91824W        W56809  15.776  17.897   2.168
91825W        W56810  39.218  13.450   4.204
91826W        W56811  38.898  30.564  10.782
91827W        W56812   0.371  14.903   1.391
91828W        W56813   0.896  25.960  12.583
91829W        W56814  42.231  10.797  11.185
91830W        W56815  41.023  16.684   2.421
91831W        W56816  31.089  23.514  10.975
91832W        W56817  26.418   3.844   1.861
91833W        W56818  21.708   4.673   3.807
91834W        W56819  24.031  24.806   0.828
91835W        W56820  17.235  43.830   0.374
91836W        W56821   0.781  19.100  11.355
91837W        W56822   2.511  13.304  10.755
91838W        W56823  34.431  14.697   3.212
91839W        W56824  31.857  40.309   2.734
91840W        W56825  26.480  42.401   4.499
91841W        W56826  14.087  15.573   2.304
91842W        W56827   0.707  31.547  12.862
91843W        W56828  41.293  14.618  14.489
91844W        W56829  12.345  37.843   0.751
91845W        W56830  15.648  37.318   2.563
91846W        W56831  36.397  42.628   4.565
91847W        W56832   5.594  28.920  10.600
91848W        W56833   1.962   1.769  13.507
91849W        W56834  14.393  38.066   3.774
91850W        W56835  21.655  37.375   3.283
91851W        W56836  38.828  31.484   3.643
91852W        W56837  35.958  41.732  12.606
91853W        W56838  44.454   3.321   2.669
91854W        W56839  13.336  31.518   2.110
91855W        W56840   0.807  23.393   3.309
91856W        W56841  21.724  22.389  10.098
91857W        W56842  19.145  18.059   4.735
91858W        W56843   3.838  11.281   4.704
91859W        W56844  30.118  12.745  12.208
91860W        W56845  23.139  16.013  14.890
91861W        W56846  41.532   2.385  14.377
91862W        W56847  44.946  16.822  11.113
91863W        W56848  31.929   4.724   0.422
91864W        W56849   5.372  20.251  13.380
91865W        W56850  42.017   5.305  11.546
91866W        W56851  35.408  42.817  11.945
91867W        W56852  25.092  14.606  11.206
91868W        W56853  15.297   3.336   5.370
91869W        W56854  24.016  12.510   1.829
91870W        W56855  27.110  43.552  10.801
91871W        W56856  33.289  30.863  13.813
91872W        W56857   8.281  11.986   0.676
91873W        W56858  25.433  28.001   0.884
91874W        W56859  17.739   3.927   0.485
91875W        W56860  25.286  11.854  13.092
91876W        W56861  20.639  43.213   2.926
91877W        W56862  28.053   0.431   0.870
91878W        W56863  25.090   5.631   0.115
91879W        W56864  23.131  31.955  13.605
91880W        W56865  42.491  42.386   3.094
91881W        W56866  15.220  28.389  14.447
91882W        W56867  44.722  14.510  12.949
91883W        W56868  40.415  31.931  11.261
91884W        W56869  27.210  14.504   0.352
91885W        W56870  20.880   4.907   4.509
91886W        W56871  35.440  34.460  11.626
91887W        W56872   7.132  14.120  11.124
91888W        W56873  27.183  44.874   1.439
91889W        W56874  24.111   9.123  14.006
91890W        W56875  18.376  14.738   0.733
91891W        W56876   6.385  35.407  10.711
91892W        W56877  19.096  19.140   3.055
91893W        W56878  28.628  15.220  12.258
91894W        W56879  37.527  41.992  11.160
91895W        W56880  32.376   4.011   2.697
91896W        W56881  11.357  23.202  10.698
91897W        W56882  29.532  29.158   3.989
91898W        W56883  33.400   5.548   5.097
91899W        W56884   7.945  12.332   0.322
91900W        W56885  17.827  18.636   5.794
91901W        W56886  40.297  13.111  12.104
91902W        W56887  40.804  20.652  14.572
91903W        W56888   4.025  24.634   4.790
91904W        W56889  15.934  43.910   5.093
91905W        W56890   4.220  26.619   4.141
91906W        W56891   0.036   0.219   0.311
91907W        W56892  11.919  25.952  12.439
91908W        W56893  21.977  17.751   3.675
91909W        W56894  36.810  29.658   0.502
91910W        W56895  33.407  23.778   1.377
91911W        W56896  12.518  38.944   4.477
91912W        W56897  32.447   2.676   0.667
91913W        W56898  43.179  41.471  14.930
91914W        W56899  15.319  20.208   3.332
91915W        W56900  24.972  10.626  11.839
91916W        W56901   0.889  21.125   0.974
91917W        W56902  34.685  13.437  11.655
91918W        W56903  20.089  20.082   3.208
91919W        W56904  11.779   8.434  11.590
91920W        W56905  20.721  39.072  14.516
91921W        W56906  41.111  32.117   2.207
91922W        W56907  41.816  23.238   2.205
91923W        W56908  38.047   5.678   0.467
91924W        W56909  17.344  24.958   3.744
91925W        W56910  30.551  41.768   1.278
91926W        W56911  10.843  28.851   2.296
91927W        W56912  39.450  40.137  12.013
91928W        W56913  14.294  35.451  12.618
91929W        W56914   6.315   1.029  11.611
91930W        W56915  33.196  24.625   0.328
91931W        W56916  22.332  23.825   5.084
91932W        W56917   9.268  25.617   1.371
91933W        W56918  39.785  15.735   3.645
91934W        W56919  20.524   0.138   0.678
91935W        W56920  42.913   8.433  13.927
91936W        W56921  43.479   9.746  13.325
91937W        W56922   3.438  20.352   0.500
91938W        W56923  40.421  41.535  14.007
91939W        W56924  25.356  24.788  14.703
91940W        W56925  11.235  30.418   0.296
91941W        W56926  42.274  11.846   0.427
91942W        W56927  24.019  18.230  11.592
91943W        W56928   0.084  13.165  11.241
91944W        W56929   8.908  31.097   3.435
91945W        W56930  16.777  15.357  11.624
91946W        W56931  36.933  39.332   2.198
91947W        W56932  35.442  34.008  12.535
91948W        W56933   8.251  25.497  12.560
91949W        W56934  20.269  26.476   4.513
91950W        W56935  20.707   5.407  13.960
91951W        W56936  24.600  29.131  10.945
91952W        W56937   8.908  28.136  12.569
91953W        W56938  19.774  17.592  11.669
91954W        W56939  18.274  33.944   4.275
91955W        W56940   1.946  10.838   3.838
91956W        W56941  14.625  27.070  13.355
91957W        W56942  28.514  35.017   4.529
91958W        W56943  23.500  23.978  10.773
91959W        W56944   3.936   7.185   1.957
91960W        W56945   8.685  43.828   4.065
91961W        W56946   4.840   2.373  12.651
91962W        W56947  42.905  17.353  14.815
91963W        W56948  26.744   9.985  13.503
91964W        W56949   1.789   9.456   3.662
91965W        W56950  33.430  25.139  10.768
91966W        W56951   8.399  35.816   1.213
91967W        W56952  43.269  43.050  12.555
91968W        W56953   9.433  25.124   1.378
91969W        W56954  42.194  21.579   4.136
91970W        W56955   8.306  10.594  11.046
91971W        W56956  40.254  36.809   2.347
91972W        W56957  31.465   2.274   0.256
91973W        W56958  28.624  10.794  13.797
91974W        W56959  34.433  18.125  13.012
91975W        W56960  32.217  35.395  12.941
91976W        W56961   4.078  17.159   3.551
91977W        W56962   1.983  17.273   1.257
91978W        W56963  16.563  23.330  14.428
91979W        W56964  25.245   5.283   3.191
91980W        W56965  34.970  13.714  11.331
91981W        W56966  12.573  11.635   2.803
91982W        W56967  30.920  39.075  11.223
91983W        W56968  19.002  32.094  10.672
91984W        W56969  15.176  31.205   4.393
91985W        W56970  36.929  36.812   4.258
91986W        W56971  39.395   3.471   3.110
91987W        W56972  19.631  27.031   2.746
91988W        W56973  15.778  12.377  12.012
91989W        W56974  38.066  15.577  14.840
91990W        W56975   4.234   8.279  10.613
91991W        W56976  11.087  30.863   0.051
91992W        W56977   9.003  28.707   2.991
91993W        W56978  27.287   4.333   3.330
91994W        W56979  15.647  19.133   2.691
91995W        W56980  22.412   1.153  12.070
91996W        W56981  38.868  15.245  14.407
91997W        W56982  41.956  24.156  11.233
91998W        W56983  30.873  18.427   3.286
91999W        W56984   1.957  42.590  14.268
92000W        W56985  37.814  23.181  13.789
92001W        W56986  13.615  14.015  13.347
92002W        W56987  25.735  26.400   5.027
92003W        W56988  18.563  22.675  13.490
92004W        W56989  32.145  15.919   5.035
92005W        W56990   0.330  42.282   3.674
92006W        W56991  18.757   3.834  14.973
92007W        W56992   3.473   7.716  13.967
92008W        W56993  23.036  20.352   2.301
92009W        W56994   3.327  28.108   3.668
92010W        W56995  42.392  12.795  11.270
92011W        W56996  12.645  28.171   3.096
92012W        W56997  18.243  35.569   0.274
92013W        W56998   4.370  36.809   0.759
92014W        W56999   9.890  10.129  14.041
92015W        W57000  15.668  25.639  10.989
92016W        W57001  20.533  22.120  11.969
92017W        W57002  36.032  23.648   4.177
92018W        W57003  37.139  14.750  13.513
92019W        W57004   3.793  36.372   0.877
92020W        W57005  30.882  14.175  13.410
92021W        W57006   3.485   9.272  13.836
92022W        W57007  35.436  30.119   4.376
92023W        W57008  15.111  25.153   9.827
92024W        W57009  17.339   2.959  11.663
92025W        W57010  23.444  18.550   2.644
92026W        W57011   6.888  32.451  14.496
92027W        W57012  23.223   2.154  12.541
92028W        W57013  44.033  34.940  13.154
92029W        W57014   4.012  22.546  10.380
92030W        W57015  37.142  31.489   3.753
92031W        W57016  35.381  20.243   2.724
92032W        W57017  17.655   9.970  12.440
92033W        W57018  30.859  35.985  11.643
92034W        W57019  23.563  40.786   0.816
92035W        W57020  22.926  31.239  11.302
92036W        W57021  35.909  36.060  11.219
92037W        W57022  18.278  34.356   2.241
92038W        W57023   6.390  40.304   0.008
92039W        W57024  40.346   9.245  14.614
92040W        W57025  19.573   0.185  12.702
92041W        W57026  40.293  20.189  11.010
92042W        W57027  28.064  42.768   1.598
92043W        W57028  22.712  34.087  14.442
92044W        W57029   7.197  18.660  11.081
92045W        W57030  13.133  44.811   4.027
92046W        W57031  32.921  34.381   4.329
92047W        W57032  40.321  30.063   3.609
92048W        W57033  27.366   0.330   2.183
92049W        W57034  14.312  22.178  11.363
92050W        W57035  12.665  22.613   3.800
92051W        W57036  29.578  19.602  14.922
92052W        W57037  16.285  34.971  12.024
92053W        W57038  28.405  29.259   1.423
92054W        W57039  26.021   3.738   4.047
92055W        W57040  35.653  37.095   0.488
92056W        W57041  22.216  23.546  13.028
92057W        W57042  43.425  30.923   2.846
92058W        W57043   5.721  29.432   3.663
92059W        W57044   0.051  43.505   0.491
92060W        W57045  26.029  37.174   4.490
92061W        W57046   2.783  31.067  13.830
92062W        W57047  17.110   3.183   0.413
92063W        W57048   4.848  18.595  11.609
92064W        W57049  38.116   2.665  14.861
92065W        W57050  35.026   6.367  10.787
92066W        W57051  23.731  28.496   0.781
92067W        W57052   3.397  34.457  13.437
92068W        W57053  44.353   6.984  10.591
92069W        W57054  35.965  26.387  13.503
92070W        W57055  21.548  40.372  14.892
92071W        W57056   4.818  14.801   4.988
92072W        W57057  14.727  38.511  10.394
92073W        W57058  22.801  32.508   4.546
92074W        W57059   9.461  37.576   4.251
92075W        W57060  13.181  38.871  13.833
92076W        W57061  30.916  23.084   3.048
92077W        W57062  38.925  10.632   2.797
92078W        W57063  43.070  14.012  14.904
92079W        W57064  28.614  30.193  10.761
92080W        W57065  26.046  24.220  14.523
92081W        W57066  41.832   6.827   0.372
92082W        W57067  38.197   8.394   1.949
92083W        W57068   8.741  34.827   4.176
92084W        W57069   5.339  33.706  12.369
92085W        W57070  27.066  25.697   0.448
92086W        W57071   1.936   2.913   4.617
92087W        W57072  31.913  33.381  14.495
92088W        W57073  25.603  37.975  11.728
92089W        W57074  34.701  39.994  10.572
92090W        W57075  33.573  29.161   2.666
92091W        W57076  11.610  26.962   0.210
92092W        W57077  44.010   3.934  13.709
92093W        W57078  11.608  35.205   0.652
92094W        W57079  42.729   2.962   4.797
92095W        W57080  19.629  11.429  12.950
92096W        W57081   2.205  41.586   0.370
92097W        W57082  29.192  31.941  13.263
92098W        W57083   8.228  20.598   2.331
92099W        W57084  12.082  28.901  13.533
92100W        W57085  28.658   9.597   2.902
92101W        W57086   1.445   2.731  11.153
92102W        W57087  35.656  21.646   2.382
92103W        W57088  19.743   7.022  12.295
92104W        W57089  18.254  31.243   2.728
92105W        W57090  27.246  41.726   3.707
92106W        W57091  40.352  37.701   0.059
92107W        W57092   3.654  41.760   3.296
92108W        W57093  40.979  24.914  11.737
92109W        W57094  32.299  24.560  11.328
92110W        W57095   1.257  37.455  11.599
92111W        W57096  27.218  23.928  14.319
92112W        W57097  15.359   1.296   3.314
92113W        W57098   1.289   7.378  14.811
92114W        W57099  39.553   7.634  13.378
92115W        W57100   9.624  19.729   0.807
92116W        W57101  26.623  26.073  13.520
92117W        W57102  40.304  30.698  13.428
92118W        W57103  14.662   4.371  12.036
92119W        W57104  30.926  37.616  11.217
92120W        W57105  10.526  36.346  14.707
92121W        W57106  24.009  34.419   4.050
92122W        W57107  27.308  29.520  12.009
92123W        W57108   0.934  14.335   1.138
92124W        W57109   0.212  40.952   4.098
92125W        W57110  23.115  44.658   2.432
92126W        W57111   1.504  28.294   0.339
92127W        W57112  19.541  14.725  14.422
92128W        W57113   0.719   0.867   1.651
92129W        W57114   7.202  23.262   2.716
92130W        W57115  25.631  20.101   2.939
92131W        W57116  13.674  19.062   3.574
92132W        W57117   4.027   3.012   1.342
92133W        W57118  17.229  42.976   2.812
92134W        W57119  31.081  40.559   2.451
92135W        W57120   8.892  13.084   3.216
92136W        W57121  25.099   9.584  13.951
92137W        W57122  20.020  43.428   0.411
92138W        W57123  37.013   8.881  13.411
92139W        W57124   5.466  18.351  11.207
92140W        W57125  20.135  31.866  12.043
92141W        W57126  21.608  26.591   1.302
92142W        W57127  43.199  28.470  13.433
92143W        W57128  26.393  20.662  14.350
92144W        W57129  41.417   5.723   4.084
92145W        W57130  31.657  34.392  13.377
92146W        W57131  22.349  14.141   0.867
92147W        W57132  24.568  12.243   0.986
92148W        W57133  19.153  37.368  13.587
92149W        W57134   4.872  19.665  14.788
92150W        W57135  16.190  18.525  11.104
92151W        W57136   2.751  33.543  14.273
92152W        W57137  15.147  27.138   0.328
92153W        W57138  23.454   4.271   0.070
92154W        W57139  15.277  37.367  14.397
92155W        W57140   2.012  21.288   1.752
92156W        W57141  44.055  43.848  13.882
92157W        W57142   6.786  35.707   1.622
92158W        W57143  14.107  10.388   2.938
92159W        W57144  27.201  23.420  14.283
92160W        W57145  17.898  34.348   4.122
92161W        W57146  32.664  23.813  14.142
92162W        W57147   4.740  34.291  10.755
92163W        W57148  38.160  13.228  11.261
92164W        W57149  39.378  17.829  14.361
92165W        W57150  11.227  21.163   0.007
92166W        W57151   0.225  32.416  12.962
92167W        W57152  40.251   4.431  10.715
92168W        W57153  33.621  44.379  13.940
92169W        W57154  33.393  32.882   1.478
92170W        W57155   9.862  16.586  11.868
92171W        W57156  25.174  31.037  14.785
92172W        W57157  42.572  25.668   1.899
92173W        W57158  13.619  36.086  10.603
92174W        W57159   1.465  31.320  13.407
92175W        W57160  17.864  16.126  12.402
92176W        W57161   2.985  37.538  13.052
92177W        W57162  43.834  41.694  11.579
92178W        W57163  24.055  42.530  14.887
92179W        W57164  37.825  43.513   4.691
92180W        W57165  26.202   7.635  12.045
92181W        W57166  12.774  17.304   0.806
92182W        W57167  28.247  25.969  11.009
92183W        W57168  29.033  11.670   3.410
92184W        W57169  43.350   4.849   0.493
92185W        W57170  27.682  20.727  13.954
92186W        W57171  29.892  40.383  11.642
92187W        W57172   2.809   8.975  11.319
92188W        W57173  31.304  28.738   0.980
92189W        W57174   6.244  32.823  13.606
92190W        W57175  34.675  35.942   2.772
92191W        W57176  25.427  44.870  14.889
92192W        W57177  29.522  43.805   3.730
92193W        W57178  39.245  32.155   3.237
92194W        W57179  31.652  43.813   0.329
92195W        W57180  26.174  19.432  13.381
92196W        W57181  12.888  34.540  10.820
92197W        W57182  30.094  16.170   4.585
92198W        W57183  25.764   6.286   3.350
92199W        W57184  16.026  15.309   0.518
92200W        W57185  42.487   4.591   4.942
92201W        W57186  12.729  41.565   0.243
92202W        W57187  41.211  37.067  13.532
92203W        W57188  11.086  23.028   0.308
92204W        W57189  26.304   5.242   1.265
92205W        W57190  44.934   1.831  14.578
92206W        W57191  24.335  22.449  14.417
92207W        W57192  33.180  26.940  11.235
92208W        W57193  16.215  35.054  13.467
92209W        W57194  16.685  20.964   4.010
92210W        W57195  35.122  39.088   4.483
92211W        W57196  18.533  41.091   0.241
92212W        W57197   8.388   9.631   1.625
92213W        W57198  23.503  17.611  11.619
92214W        W57199   1.286  27.153  11.068
92215W        W57200   0.381  10.453  13.905
92216W        W57201  41.533  37.029   5.154
92217W        W57202   1.907  23.728  12.484
92218W        W57203   6.209  25.053   0.808
92219W        W57204  15.018  23.996  10.715
92220W        W57205  27.230  20.150   4.386
92221W        W57206  34.140  44.880   0.907
92222W        W57207   0.528   4.796  10.119
92223W        W57208   8.736   9.387   3.789
92224W        W57209  31.537  17.141   3.332
92225W        W57210   6.311  15.570   4.181
92226W        W57211  18.310  10.689  12.735
92227W        W57212  16.405  31.024  13.952
92228W        W57213  14.328  40.928   3.213
92229W        W57214  14.757  36.863   4.496
92230W        W57215  37.383  12.829   1.939
92231W        W57216  14.071  42.790  10.681
92232W        W57217   1.448   4.479  12.975
92233W        W57218  24.047  41.755  12.476
92234W        W57219  28.097  17.954  14.873
92235W        W57220  24.072  19.056   2.865
92236W        W57221   3.259   0.722  12.280
92237W        W57222  20.365  36.333  11.379
92238W        W57223  25.256  17.167   4.414
92239W        W57224  22.369  31.931   3.879
92240W        W57225  34.096   0.449   0.298
92241W        W57226   9.390  10.821   3.160
92242W        W57227  26.088  10.686  12.040
92243W        W57228  37.260  32.513   0.396
92244W        W57229  16.635   2.404   4.358
92245W        W57230  43.086  44.986   3.609
92246W        W57231  21.257   2.931   4.490
92247W        W57232  21.254  21.815   2.686
92248W        W57233   3.030   4.806  13.821
92249W        W57234   8.433  23.092   3.396
92250W        W57235  14.902  14.555  14.486
92251W        W57236  16.014  38.494   4.150
92252W        W57237  26.141   2.852   2.849
92253W        W57238  40.559   2.390  12.277
92254W        W57239  34.711  29.853  11.989
92255W        W57240  16.823   6.246  14.533
92256W        W57241   0.471   2.752  12.499
92257W        W57242  18.368  35.050   4.685
92258W        W57243  29.686  32.106   4.410
92259W        W57244  40.361  23.702  11.556
92260W        W57245  44.721  43.414  14.287
92261W        W57246  32.702  37.348  11.682
92262W        W57247  43.105  12.654   1.987
92263W        W57248  20.831  33.082  14.372
92264W        W57249   8.268  36.346   1.937
92265W        W57250  37.430  37.859  10.321
92266W        W57251  43.659  12.799  13.151
92267W        W57252  36.526  12.121  13.351
92268W        W57253   8.293   6.949   4.987
92269W        W57254   3.416  19.192   0.716
92270W        W57255  24.482  26.543  14.994
92271W        W57256  29.828  30.116  14.539
92272W        W57257  18.082  13.725  13.967
92273W        W57258  24.966  29.972  11.994
92274W        W57259  18.659  10.429  11.054
92275W        W57260  31.446  21.225  10.995
92276W        W57261  23.959  23.811   1.752
92277W        W57262  36.410  34.582  10.717
92278W        W57263   7.852  35.057   3.731
92279W        W57264   2.241  33.676  13.635
92280W        W57265  38.912  22.669  10.919
92281W        W57266   0.945  17.602  12.375
92282W        W57267  39.287  23.495  10.847
92283W        W57268   5.420   0.052   2.687
92284W        W57269  32.990  39.278   1.269
92285W        W57270  35.615  23.137  10.391
92286W        W57271  32.207  19.309  14.008
92287W        W57272  10.680  43.835  13.371
92288W        W57273  18.653  36.841   4.181
92289W        W57274  30.344  11.326   4.186
92290W        W57275  44.092  16.917  11.462
92291W        W57276  25.704   5.133   3.956
92292W        W57277   6.510  39.175  14.022
92293W        W57278  41.814  14.138   0.497
92294W        W57279  21.699  30.302   2.605
92295W        W57280   8.083   9.319  10.611
92296W        W57281  14.734  26.415  13.156
92297W        W57282  22.557  15.272   5.017
92298W        W57283  13.027  12.142  14.003
92299W        W57284  34.797  16.159  12.463
92300W        W57285  13.292   6.178   3.793
92301W        W57286  42.479   5.116   4.980
92302W        W57287  23.116  35.578   3.880
92303W        W57288   3.492  29.951   0.814
92304W        W57289  38.346  14.708   2.814
92305W        W57290  22.741  35.381  12.958
92306W        W57291  27.988   7.375   2.610
92307W        W57292  40.068   7.571   1.300
92308W        W57293  31.930   2.546   2.342
92309W        W57294  25.453   0.597   2.070
92310W        W57295  17.698   5.495   1.298
92311W        W57296  14.953  26.957  14.375
92312W        W57297  20.781  13.270  13.875
92313W        W57298   0.184  35.293   3.525
92314W        W57299  29.955  19.756  10.387
92315W        W57300  31.334  43.382   4.210
92316W        W57301  15.453  16.291  11.652
92317W        W57302  27.584  36.962  11.556
92318W        W57303  26.994  41.831   2.395
92319W        W57304  41.322  37.565   3.553
92320W        W57305  28.026  24.790  10.643
92321W        W57306   4.737   4.914   4.087
92322W        W57307  34.204  44.873  14.493
92323W        W57308  27.914  32.873   4.203
92324W        W57309  21.536  27.509   0.497
92325W        W57310   1.250  29.102   0.960
92326W        W57311  14.544   1.272   3.315
92327W        W57312  32.547  37.084   4.517
92328W        W57313  30.233   7.501  10.973
92329W        W57314  31.684   7.772  10.331
92330W        W57315   8.427   8.162  11.640
92331W        W57316  26.540  29.177   3.286
92332W        W57317  37.859  20.590   2.091
92333W        W57318  15.105   1.869  11.346
92334W        W57319   8.509   4.763  13.449
92335W        W57320  44.887  23.693   0.181
92336W        W57321  37.211  24.086   3.620
92337W        W57322  36.784  30.262  11.626
92338W        W57323  36.840  30.023  12.967
92339W        W57324  25.688  14.138  11.817
92340W        W57325  31.580  36.973  14.941
92341W        W57326  12.650   7.324  11.452
92342W        W57327   9.572   1.377  11.552
92343W        W57328   1.519   5.044  11.554
92344W        W57329  30.992  33.398   9.885
92345W        W57330   1.284  19.590  11.642
92346W        W57331  37.829  25.528   4.154
92347W        W57332   2.921  20.982  14.264
92348W        W57333  37.624  16.119   3.187
92349W        W57334  11.143  34.528  14.796
92350W        W57335  17.711  37.412  14.292
92351W        W57336  16.815  33.007  14.065
92352W        W57337  13.749  38.929  14.522
92353W        W57338  28.614  40.431   1.510
92354W        W57339  39.347  18.308  14.569
92355W        W57340  12.123  15.584   3.377
92356W        W57341  14.816  32.793  13.419
92357W        W57342  35.457  39.964  11.086
92358W        W57343  26.126  40.222  11.282
92359W        W57344  23.525   3.915  10.166
92360W        W57345   1.538  38.034   0.519
92361W        W57346  20.286  20.878   3.505
92362W        W57347  12.874  31.576   1.430
92363W        W57348   7.874  37.364  12.090
92364W        W57349  27.522   2.007  13.213
92365W        W57350  18.075  18.571  14.780
92366W        W57351   8.906   6.250  11.591
92367W        W57352   3.774  26.121  10.732
92368W        W57353   8.910  20.148  14.760
92369W        W57354  38.269  24.546   1.200
92370W        W57355  21.931  16.595   1.761
92371W        W57356   2.837  32.025   3.730
92372W        W57357   1.851   8.821   2.852
92373W        W57358  20.558  18.259   3.614
92374W        W57359  10.935   5.292   1.322
92375W        W57360  44.516  32.316  12.544
92376W        W57361  32.590  25.414   0.292
92377W        W57362  17.960  24.288  12.923
92378W        W57363  29.610  41.603  10.652
92379W        W57364  20.604  31.869  12.656
92380W        W57365  23.708  16.027  14.216
92381W        W57366   4.924   1.347  10.747
92382W        W57367   8.152   1.335  11.403
92383W        W57368  20.260  38.340  10.781
92384W        W57369  19.053  23.089  10.967
92385W        W57370  40.090   7.201   2.836
92386W        W57371  27.809  41.611  12.683
92387W        W57372  13.552   3.027   0.092
92388W        W57373  21.322  10.522  12.163
92389W        W57374  15.011  21.117   0.343
92390W        W57375   3.502  32.593   2.602
92391W        W57376  41.366  30.209  11.077
92392W        W57377  25.671  20.656  12.173
92393W        W57378  13.628  33.202  13.265
92394W        W57379   3.841   3.870   3.683
92395W        W57380  11.304   2.435   4.778
92396W        W57381   8.360  42.157   3.380
92397W        W57382  36.087  21.705   2.719
92398W        W57383   2.235  28.090  10.569
92399W        W57384  44.476  30.119   0.395
92400W        W57385  13.715  12.240  10.678
92401W        W57386  41.459   3.904   3.194
92402W        W57387  31.472  40.137  11.217
92403W        W57388  40.797  27.523  14.410
92404W        W57389  16.086  25.104  11.003
92405W        W57390  23.968  27.957   4.335
92406W        W57391  28.431  31.368  14.385
92407W        W57392  34.786  33.380   3.750
92408W        W57393  39.076  32.649   3.243
92409W        W57394  24.191  41.471  11.197
92410W        W57395  20.438  30.021  13.759
92411W        W57396  32.033  20.118  10.663
92412W        W57397  29.677  35.925  10.134
92413W        W57398   8.009   1.590  11.826
92414W        W57399   8.850  29.683   2.214
92415W        W57400   3.003  34.484  13.099
92416W        W57401  18.153  37.565   4.065
92417W        W57402  24.047  32.275   2.367
92418W        W57403   3.239  37.281  14.853
92419W        W57404  34.887  36.990  12.924
92420W        W57405  18.334  30.186   2.748
92421W        W57406  18.006  39.844   3.637
92422W        W57407  16.676  33.863  10.718
92423W        W57408  39.761  15.049   4.111
92424W        W57409  34.857  25.103   4.681
92425W        W57410   4.847  37.569   2.212
92426W        W57411  30.903  32.931  12.406
92427W        W57412   9.314  17.367   0.957
92428W        W57413  28.189  31.631  12.420
92429W        W57414  13.641   9.610  12.125
92430W        W57415   1.422  25.068   3.880
92431W        W57416  31.476  30.558  12.915
92432W        W57417  11.565  17.523  11.635
92433W        W57418  25.133  19.658  11.706
92434W        W57419  20.232   3.044   3.789
92435W        W57420  37.258  39.252   3.146
92436W        W57421  36.577  10.390   1.802
92437W        W57422  29.683   5.101   0.886
92438W        W57423  38.585  36.213   0.391
92439W        W57424  12.429  43.927  12.910
92440W        W57425  35.666  11.407   4.156
92441W        W57426  19.181   5.894   0.959
92442W        W57427   0.218  17.781  11.205
92443W        W57428   5.453  20.628  11.447
92444W        W57429   8.831  42.605   2.511
92445W        W57430  31.110   3.067  12.145
92446W        W57431  41.589   0.250   0.693
92447W        W57432  16.139   8.408   1.439
92448W        W57433  43.142  36.843  11.576
92449W        W57434  31.336  40.976  10.521
92450W        W57435  11.097  35.500  11.616
92451W        W57436   0.803  26.118  14.357
92452W        W57437  42.399  10.259   4.106
92453W        W57438  15.259   6.400  13.536
92454W        W57439  43.259  32.449  11.177
92455W        W57440   2.073   1.894  14.842
92456W        W57441  40.969  29.395   3.597
92457W        W57442  34.925   9.048   2.184
92458W        W57443  10.900   8.826  10.545
92459W        W57444   8.672  26.950  11.648
92460W        W57445  31.513  43.524  12.455
92461W        W57446  25.099  37.612   2.911
92462W        W57447  24.541   4.256  11.018
92463W        W57448  37.468  14.100  13.078
92464W        W57449  20.161  36.370   2.896
92465W        W57450  15.831  38.539   0.421
92466W        W57451  40.785  25.193   0.696
92467W        W57452  19.517  32.423  11.159
92468W        W57453   8.852  13.651   2.427
92469W        W57454  10.788  37.469   1.335
92470W        W57455  27.540  38.998   2.397
92471W        W57456  36.568  26.378  14.323
92472W        W57457   6.134  13.305   0.973
92473W        W57458   9.919  23.022  11.984
92474W        W57459   9.910  20.241   3.097
92475W        W57460   1.157  29.621  12.273
92476W        W57461  40.470  38.738   1.078
92477W        W57462  20.471   4.254   1.403
92478W        W57463  14.783  31.950   4.749
92479W        W57464   9.013  33.882  14.925
92480W        W57465  11.669   1.422  11.457
92481W        W57466  29.179   1.713  14.857
92482W        W57467   6.703  25.105  13.486
92483W        W57468  19.093   9.899  12.468
92484W        W57469  35.698  35.540  13.455
92485W        W57470  23.085  29.091   0.097
92486W        W57471  14.582  37.217  11.540
92487W        W57472  11.126  32.777  14.956
92488W        W57473  40.814  40.412   4.132
92489W        W57474  28.419  42.721   1.199
92490W        W57475  14.017  32.084   3.368
92491W        W57476   6.131   3.181  11.162
92492W        W57477  41.423  36.767   3.046
92493W        W57478   4.795  18.631   1.575
92494W        W57479   9.903  37.017   2.657
92495W        W57480  37.946  36.921  11.707
92496W        W57481  15.795  44.552   2.838
92497W        W57482   9.400  35.069  12.968
92498W        W57483  15.676  18.284  10.423
92499W        W57484  11.902   8.649   5.001
92500W        W57485   2.123  37.907  11.633
92501W        W57486  22.505  18.537   4.632
92502W        W57487  37.225  36.078   3.734
92503W        W57488  23.686  13.444  11.684
92504W        W57489  42.305  17.067   2.306
92505W        W57490  14.318  12.717  10.789
92506W        W57491  21.484  11.731  14.323
92507W        W57492  18.387  26.775  13.008
92508W        W57493  16.244  31.154   3.092
92509W        W57494  11.773  33.568   4.499
92510W        W57495  44.869  10.183   4.553
92511W        W57496  14.791  22.211   4.233
92512W        W57497  36.858  30.918   2.636
92513W        W57498   5.666  32.410  14.441
92514W        W57499  40.620  39.610   5.049
92515W        W57500   4.651  36.374  12.565
92516W        W57501  13.158  30.488   2.215
92517W        W57502  34.640  19.711   0.847
92518W        W57503  13.862  19.147   2.640
92519W        W57504  33.372  12.580  10.575
92520W        W57505   1.933  32.900   0.285
92521W        W57506  44.475   1.198   9.999
92522W        W57507  37.237   4.894   2.290
92523W        W57508   4.314  26.252  14.870
92524W        W57509  16.619  23.174  14.954
92525W        W57510  17.746  29.753  11.660
92526W        W57511  33.028  23.260  14.857
92527W        W57512   6.871   5.718  12.612
92528W        W57513  36.830  27.419  12.538
92529W        W57514  25.201  13.022  13.530
92530W        W57515   5.554   6.183  10.105
92531W        W57516  25.168  39.968   0.463
92532W        W57517   9.872  44.286   1.130
92533W        W57518  44.336  32.452  10.919
92534W        W57519  37.083  13.044   0.450
92535W        W57520  24.485  14.696  10.627
92536W        W57521  14.944  24.992   0.074
92537W        W57522   4.704  23.704  14.068
92538W        W57523  32.372  33.934  11.146
92539W        W57524   5.766  43.296   2.787
92540W        W57525  28.008  29.222  11.602
92541W        W57526  39.108  42.784  11.356
92542W        W57527  30.015  36.596   2.331
92543W        W57528  36.449   7.844   3.204
92544W        W57529  28.706   3.879  11.428
92545W        W57530  24.545  17.665   3.108
92546W        W57531  27.919  18.945   0.011
92547W        W57532  44.018   7.688   3.318
92548W        W57533   8.638  12.308   0.963
92549W        W57534  28.389  34.143  13.802
92550W        W57535  29.205   2.239  11.999
92551W        W57536  31.982  17.319   3.093
92552W        W57537  37.443  37.326   0.393
92553W        W57538   0.388  43.005   3.234
92554W        W57539  12.802  26.983  11.989
92555W        W57540  11.873  43.832  11.143
92556W        W57541  31.876  10.105  14.437
92557W        W57542  13.332  31.178  10.477
92558W        W57543   2.260   3.219  11.058
92559W        W57544  42.267  31.209   4.189
92560W        W57545  41.977  12.275   4.809
92561W        W57546   2.399   0.441  12.851
92562W        W57547   6.393   8.431   2.293
92563W        W57548  37.875  16.541  14.980
92564W        W57549  28.719  12.716  11.000
92565W        W57550  17.497  34.819   1.850
92566W        W57551  30.564  23.159   1.688
92567W        W57552   0.872  12.249  10.656
92568W        W57553  26.650  17.355   2.999
92569W        W57554   4.338  18.796   2.336
92570W        W57555  29.972  19.424  12.610
92571W        W57556  16.077  12.937   3.144
92572W        W57557  17.872  22.259   1.762
92573W        W57558  32.506   1.171   2.298
92574W        W57559  42.381  12.550  13.010
92575W        W57560  17.878  30.545   2.869
92576W        W57561  42.193  20.640   3.468
92577W        W57562  17.245  10.242  11.231
92578W        W57563  24.428  28.469   3.805
92579W        W57564  30.217   5.156   1.752
92580W        W57565  42.772   8.616   1.412
92581W        W57566  14.598   9.369   2.435
92582W        W57567  13.053  44.416  13.858
92583W        W57568  43.359  21.703  13.116
92584W        W57569   3.226   0.186  12.428
92585W        W57570  41.927  29.526  14.474
92586W        W57571   9.031  37.224   2.657
92587W        W57572  23.662  19.616  14.527
92588W        W57573  37.026  41.965   3.733
92589W        W57574  41.910  44.809   3.752
92590W        W57575   0.348   4.376   1.819
92591W        W57576  25.861  41.164  14.493
92592W        W57577  33.349  39.596  14.871
92593W        W57578  31.140  41.692  12.684
92594W        W57579  32.248   2.638  13.183
92595W        W57580  30.455  15.312  11.525
92596W        W57581  16.620  44.225  11.136
92597W        W57582  30.578  33.808   4.699
92598W        W57583  36.551  24.246   1.923
92599W        W57584  35.711  11.884  12.958
92600W        W57585  15.738   2.362  11.035
92601W        W57586  13.205   1.815   4.646
92602W        W57587   7.535  39.088  14.842
92603W        W57588  21.557   2.440   3.680
92604W        W57589  13.077  28.607   0.692
92605W        W57590  22.244  13.627   0.861
92606W        W57591  28.822  14.644   0.342
92607W        W57592  19.288  29.814  10.434
92608W        W57593   7.439  17.333   1.604
92609W        W57594   8.734  10.220   2.660
92610W        W57595  26.632  14.278   3.898
92611W        W57596  29.577   3.667   4.705
92612W        W57597   2.807  12.695   4.071
92613W        W57598  35.478   5.609  12.553
92614W        W57599  13.540  36.881   0.783
92615W        W57600  44.279  33.173  14.459
92616W        W57601  40.372   2.605  11.778
92617W        W57602  16.350  35.944   0.267
92618W        W57603   1.586  30.944   4.356
92619W        W57604  15.747  44.674  12.154
92620W        W57605  16.186  14.777   3.106
92621W        W57606  44.037   6.821   0.968
92622W        W57607  11.710  36.122   1.359
92623W        W57608  25.040   4.772  14.958
92624W        W57609  20.656  41.371   4.314
92625W        W57610  32.953  42.732   4.647
92626W        W57611  21.667   0.793   2.118
92627W        W57612  16.946  34.119   2.373
92628W        W57613  38.133  29.470   3.222
92629W        W57614  10.317  42.610  11.397
92630W        W57615  24.104  38.399   3.139
92631W        W57616   8.259  39.026  12.360
92632W        W57617  23.641  32.915   1.811
92633W        W57618  36.969  34.647   1.170
92634W        W57619   3.347  33.237  10.742
92635W        W57620  11.734  41.574   2.431
92636W        W57621  20.031  17.153   0.367
92637W        W57622  14.854  36.100  13.486
92638W        W57623  25.175  41.856  14.087
92639W        W57624  13.118  13.916  14.319
92640W        W57625   6.764   9.139  11.366
92641W        W57626   9.242  39.316   4.557
92642W        W57627  22.463   1.900  12.524
92643W        W57628  34.916  25.188   5.209
92644W        W57629  11.624   8.901  10.970
92645W        W57630  15.404   4.393   0.073
92646W        W57631  38.646   1.383   3.236
92647W        W57632  20.368  44.725   1.465
92648W        W57633  23.504  34.180  14.994
92649W        W57634  44.809  26.219  10.499
92650W        W57635  33.574  19.803   3.526
92651W        W57636  30.988  30.667  13.551
92652W        W57637  15.481  26.313   5.100
92653W        W57638  40.036   7.982  10.699
92654W        W57639  29.464  16.526  12.156
92655W        W57640  29.712   0.016   1.234
92656W        W57641  19.031   5.854  12.125
92657W        W57642  15.657  20.006   2.465
92658W        W57643  36.147  32.803   3.296
92659W        W57644   9.732  27.234   1.437
92660W        W57645  37.776  14.261   3.164
92661W        W57646  41.511  25.896   2.946
92662W        W57647  33.579  15.724  13.001
92663W        W57648  29.607  16.255  12.582
92664W        W57649  44.708   0.927  13.441
92665W        W57650  19.472  40.179   4.560
92666W        W57651  19.987   5.690   2.216
92667W        W57652  12.698  23.226  12.378
92668W        W57653  28.960  26.659  14.833
92669W        W57654   0.836  35.055   4.695
92670W        W57655   0.589  30.695   5.073
92671W        W57656   7.233  40.528   4.408
92672W        W57657  37.628   8.040  14.382
92673W        W57658  31.102  38.471  14.844
92674W        W57659  39.996  39.080  13.904
92675W        W57660  43.366  42.017  12.415
92676W        W57661  34.120  34.963  10.796
92677W        W57662  14.186  11.693  14.854
92678W        W57663  39.750   0.252  10.700
92679W        W57664  22.091   5.897   2.589
92680W        W57665   2.455   6.035   0.065
92681W        W57666  23.017  14.387   4.164
92682W        W57667  32.090  27.403   4.169
92683W        W57668   8.833  19.761   3.700
92684W        W57669  37.652   1.371   3.215
92685W        W57670  39.497  43.990   0.501
92686W        W57671   9.337  43.995   0.228
92687W        W57672  20.503   4.795  13.517
92688W        W57673   7.963  12.257  10.724
92689W        W57674  36.256  22.456  11.726
92690W        W57675  22.016  39.108   3.124
92691W        W57676  42.458  41.920   3.369
92692W        W57677  17.270   0.278  13.471
92693W        W57678  24.065  35.926   1.253
92694W        W57679  22.257  27.386  14.394
92695W        W57680  26.167  15.053  11.150
92696W        W57681   7.877   9.177  14.368
92697W        W57682   0.871  38.824   5.033
92698W        W57683   7.402  32.464  14.545
92699W        W57684  16.656  35.544  11.759
92700W        W57685  44.032  19.592   2.248
92701W        W57686  43.272   7.717   2.898
92702W        W57687  44.315  10.163   1.154
92703W        W57688  33.984  24.754   1.842
92704W        W57689  17.055  41.729   4.317
92705W        W57690  38.349  39.040   0.257
92706W        W57691   1.021  43.839  11.065
92707W        W57692  33.760   6.356   4.763
92708W        W57693  19.777  32.262   3.717
92709W        W57694  25.195  26.021   1.374
92710W        W57695  25.062  12.199   4.625
92711W        W57696  35.702  37.848   2.119
92712W        W57697  30.608  29.600  13.501
92713W        W57698   7.937  36.971   0.756
92714W        W57699  40.993  11.346  11.941
92715W        W57700  33.399  30.609  12.197
92716W        W57701  41.435  42.441  13.961
92717W        W57702  39.770   6.803  12.053
92718W        W57703  18.766  33.492   2.154
92719W        W57704  10.505  32.718  13.437
92720W        W57705  38.141  25.528  10.703
92721W        W57706  31.500   4.947   3.208
92722W        W57707  33.105  33.357   1.404
92723W        W57708   3.921  22.603  14.485
92724W        W57709   3.392  10.412   0.243
92725W        W57710   3.527  41.801  14.959
92726W        W57711  24.023  29.901   0.348
92727W        W57712  26.165  44.328  14.088
92728W        W57713  12.210  34.026  11.117
92729W        W57714  24.023  44.098  12.064
92730W        W57715  31.409  27.014   0.553
92731W        W57716  18.359  13.264  13.993
92732W        W57717  30.202  44.604  10.065
92733W        W57718  26.995  36.635   4.875
92734W        W57719   5.362  34.940   0.405
92735W        W57720  13.510  11.299  12.463
92736W        W57721  17.762  43.900  11.753
92737W        W57722  44.600  33.601   0.166
92738W        W57723  31.106   2.620  13.068
92739W        W57724  12.128  27.579   3.619
92740W        W57725   9.986  30.114   3.171
92741W        W57726   0.323  23.446   0.568
92742W        W57727  35.853  34.996   1.686
92743W        W57728   3.544   8.537  11.900
92744W        W57729   8.624  28.792   1.887
92745W        W57730  20.129  14.022   4.676
92746W        W57731   2.721  21.018  13.329
92747W        W57732  11.337  43.870   3.694
92748W        W57733   1.971  15.087  13.803
92749W        W57734   8.627  36.331   1.204
92750W        W57735   7.486   0.514   0.386
92751W        W57736   6.905   3.747   9.854
92752W        W57737  28.185  26.369  13.016
92753W        W57738  26.697  23.514  10.660
92754W        W57739  28.984  26.468   3.525
92755W        W57740  27.140   2.294  11.536
92756W        W57741   0.603  31.070  12.065
92757W        W57742  41.828  32.458   3.784
92758W        W57743  23.043  40.443   2.864
92759W        W57744  14.252  19.078   2.293
92760W        W57745  36.816  30.085  14.725
92761W        W57746  37.524  36.647  11.144
92762W        W57747  18.346   6.959  13.003
92763W        W57748  13.142  21.849   2.348
92764W        W57749   8.842  18.233   3.808
92765W        W57750  40.139   6.920   3.581
92766W        W57751   5.261   7.749   2.271
92767W        W57752  42.327   3.210  12.502
92768W        W57753  26.108  42.430   2.399
92769W        W57754  33.613  32.862   1.973
92770W        W57755  30.802  21.381  14.336
92771W        W57756   2.821   2.825   4.176
92772W        W57757  41.942  28.698   4.118
92773W        W57758  11.234   2.902   1.116
92774W        W57759  15.278  43.532  14.914
92775W        W57760  16.826  35.639  12.577
92776W        W57761   7.161  10.755   3.356
92777W        W57762   9.694   6.707   3.353
92778W        W57763  19.599  37.110   2.918
92779W        W57764  22.941  17.975   1.594
92780W        W57765  13.748  26.166  11.521
92781W        W57766  37.367  18.674   1.447
92782W        W57767  38.016   1.213   4.054
92783W        W57768  40.547   3.300   4.522
92784W        W57769  12.331  29.867   2.417
92785W        W57770  17.376   3.234  11.227
92786W        W57771  19.237  22.015   3.299
92787W        W57772  43.533  29.187   2.360
92788W        W57773  29.162  14.713   3.874
92789W        W57774   6.339  12.666  14.039
92790W        W57775  26.751  10.240   2.044
92791W        W57776  36.188  11.788   1.265
92792W        W57777  33.085   6.435   0.930
92793W        W57778  37.498  28.080   2.853
92794W        W57779  19.975  21.051  11.511
92795W        W57780  39.339   1.697  11.578
92796W        W57781  11.182   1.968   4.625
92797W        W57782   3.455   8.302   2.694
92798W        W57783  33.547  19.046   4.609
92799W        W57784  26.313  21.466   2.250
92800W        W57785   5.186  15.726  13.397
92801W        W57786   4.992  18.447   4.224
92802W        W57787  20.751  33.299   0.915
92803W        W57788  24.101   6.872  13.143
92804W        W57789   9.303  40.122  13.883
92805W        W57790  44.069  32.559  12.681
92806W        W57791   4.060  38.251  12.202
92807W        W57792  31.975  34.484   4.605
92808W        W57793  20.522  17.172   0.205
92809W        W57794   9.200   0.745   4.129
92810W        W57795  40.637  41.796   4.129
92811W        W57796  43.864  29.398   2.006
92812W        W57797  29.048   3.597  10.706
92813W        W57798   2.313  32.434   3.111
92814W        W57799   7.549  17.579  11.369
92815W        W57800  34.025  18.240  11.132
92816W        W57801  37.769  18.864  12.110
92817W        W57802  15.168  37.508   3.311
92818W        W57803   7.333   5.807  14.981
92819W        W57804  34.165  30.265  11.112
92820W        W57805   3.787  10.617  12.248
92821W        W57806  36.106   1.350   3.162
92822W        W57807   5.396  10.004  13.938
92823W        W57808  17.625  21.602  12.934
92824W        W57809   7.654   9.153   0.722
92825W        W57810  35.004  39.578   2.360
92826W        W57811  22.645  17.171  13.943
92827W        W57812  44.344  33.355  10.996
92828W        W57813  42.124   9.323  12.014
92829W        W57814  39.771  28.690  12.500
92830W        W57815   9.663  38.439  12.495
92831W        W57816  31.377   9.512  10.387
92832W        W57817  13.302  24.075   4.697
92833W        W57818   8.089  24.672   1.144
92834W        W57819   1.190  19.134   1.206
92835W        W57820   8.764  15.114   0.777
92836W        W57821  43.295  12.587  14.963
92837W        W57822  30.941  13.569   0.001
92838W        W57823  32.987  22.205   1.524
92839W        W57824  28.651  22.676   2.154
92840W        W57825   0.899   0.523   3.088
92841W        W57826  16.903  35.924  10.590
92842W        W57827  40.337  28.174   0.949
92843W        W57828  27.002  32.076   4.542
92844W        W57829  36.846  11.220   2.759
92845W        W57830  33.320  25.083   2.321
92846W        W57831  32.084   0.513  14.315
92847W        W57832  44.903  43.059   4.563
92848W        W57833  11.281  39.063  14.507
92849W        W57834   2.034  16.623  12.997
92850W        W57835  23.921  31.791   2.401
92851W        W57836  15.861  23.924  14.404
92852W        W57837  34.965  37.843   0.178
92853W        W57838   5.439  32.155   0.307
92854W        W57839  37.437  34.383   1.936
92855W        W57840   0.799  27.527   2.388
92856W        W57841  43.439   4.492  14.660
92857W        W57842  34.846  38.519  12.606
92858W        W57843  40.796   8.315  14.534
92859W        W57844  19.631   2.740  10.504
92860W        W57845  39.622  43.511   0.739
92861W        W57846  16.296  30.481  12.515
92862W        W57847  14.358  30.248   3.358
92863W        W57848  16.107   8.229  11.955
92864W        W57849  14.585  28.914  13.569
92865W        W57850  17.507  20.702   4.119
92866W        W57851  12.085  36.422  11.043
92867W        W57852  13.795  14.548  13.452
92868W        W57853  27.584  26.109  14.047
92869W        W57854  16.708  19.032   3.680
92870W        W57855  19.623  24.734   4.400
92871W        W57856  12.622  22.321  11.428
92872W        W57857  17.691  40.251   4.528
92873W        W57858   6.457  11.155   1.278
92874W        W57859  28.128  44.528  11.944
92875W        W57860  37.732  17.694   1.890
92876W        W57861  32.005   2.047  11.978
92877W        W57862  37.231  28.436   0.966
92878W        W57863  10.168  35.018  10.309
92879W        W57864  37.658  18.339   3.384
92880W        W57865   8.621  27.659   2.255
92881W        W57866   4.361   4.066  14.705
92882W        W57867  30.203   3.928   1.323
92883W        W57868  10.640  28.592   1.694
92884W        W57869   3.293  26.466   0.310
92885W        W57870  23.586   0.607  12.026
92886W        W57871  39.536  36.410  13.037
92887W        W57872  16.976  10.483  14.425
92888W        W57873   1.966   9.371   5.052
92889W        W57874  30.961   4.303  10.655
92890W        W57875  15.173  33.355  12.058
92891W        W57876  43.399  27.637  11.122
92892W        W57877  44.728  19.569   0.371
92893W        W57878  35.108   5.627   0.835
92894W        W57879  37.220  23.055   0.771
92895W        W57880   6.646   7.781  10.722
92896W        W57881  28.073   7.835  11.570
92897W        W57882  18.198   9.400   1.037
92898W        W57883  10.546   6.871  10.089
92899W        W57884  20.499  23.809  13.408
92900W        W57885  28.123  43.743  12.446
92901W        W57886  24.542  44.816   2.808
92902W        W57887  34.585  10.605  14.876
92903W        W57888   2.279  19.639   3.075
92904W        W57889  25.127  32.501  11.210
92905W        W57890  28.512   5.760   1.624
92906W        W57891  17.583  13.517   4.592
92907W        W57892  29.311  28.487   1.481
92908W        W57893   3.508  30.148   1.314
92909W        W57894  44.012  28.662   5.601
92910W        W57895  35.705  12.946  13.871
92911W        W57896   9.742  27.862   0.568
92912W        W57897  27.965  38.631  10.848
92913W        W57898  12.781  22.702  14.672
92914W        W57899   1.042  42.375   3.266
92915W        W57900   6.917  15.339   0.867
92916W        W57901  21.945  12.738  13.214
92917W        W57902   7.591  27.529  10.818
92918W        W57903  19.760  30.185   1.394
92919W        W57904  42.856   7.757  11.120
92920W        W57905   4.972  35.859   1.184
92921W        W57906   5.074   4.641   2.617
92922W        W57907  33.040  28.390  13.859
92923W        W57908   4.941   5.799  12.805
92924W        W57909   4.928  22.682  12.920
92925W        W57910  24.248  20.650   4.551
92926W        W57911   6.223   0.948   0.227
92927W        W57912  40.689  21.525  14.748
92928W        W57913   2.937  35.668  14.838
92929W        W57914  27.639   0.916   3.559
92930W        W57915  36.421  13.671   1.373
92931W        W57916  14.789   0.829   3.282
92932W        W57917  39.426  21.168  10.711
92933W        W57918  42.505  17.251  11.995
92934W        W57919   7.139  35.560   4.553
92935W        W57920   1.474  20.243   0.928
92936W        W57921  26.007  10.371  14.990
92937W        W57922  39.100   7.774   3.787
92938W        W57923   0.501  28.396  14.747
92939W        W57924  17.130  14.703  10.373
92940W        W57925  34.658  12.063   1.758
92941W        W57926  30.116   6.189  10.997
92942W        W57927  33.679  14.738  12.903
92943W        W57928  29.873  25.491   4.542
92944W        W57929  43.449  21.469   3.580
92945W        W57930   5.224  31.230  12.650
92946W        W57931  36.166  43.849  13.363
92947W        W57932  29.273  25.128   1.708
92948W        W57933  25.232   6.391  12.001
92949W        W57934  41.043   4.687   4.870
92950W        W57935  20.538   2.333   0.537
92951W        W57936  18.394  21.426   3.297
92952W        W57937  38.030   2.546   0.519
92953W        W57938  35.455  30.871  14.894
92954W        W57939  15.695  22.466  12.567
92955W        W57940  23.872  26.602  12.530
92956W        W57941  14.374  15.192   3.189
92957W        W57942  23.505  25.087   1.983
92958W        W57943  13.342  20.271  13.436
92959W        W57944  28.990  27.959   4.577
92960W        W57945  35.872  14.483  14.008
92961W        W57946  27.695  41.793  13.150
92962W        W57947  20.628  43.568  11.164
92963W        W57948  21.075  25.321   5.065
92964W        W57949  23.993   6.636  13.984
92965W        W57950  34.948  40.340   3.940
92966W        W57951   8.113   4.827  14.355
92967W        W57952  13.772  11.741   0.505
92968W        W57953  41.950  11.747  13.335
92969W        W57954  24.485  39.321   0.740
92970W        W57955  43.345  28.974   4.456
92971W        W57956  35.914  10.689  11.436
92972W        W57957  28.361  22.686  12.319
92973W        W57958  14.200  36.182   2.619
92974W        W57959  18.245   4.325   1.704
92975W        W57960  38.040   0.727  10.525
92976W        W57961  29.441   1.197   2.875
92977W        W57962  23.684   5.918  10.963
92978W        W57963   6.153   4.238  14.738
92979W        W57964  12.913  25.647   3.691
92980W        W57965  12.800  13.651  13.680
92981W        W57966  41.250  22.104   5.416
92982W        W57967  21.813  15.264   1.502
92983W        W57968  27.518  11.664   4.748
92984W        W57969  35.578  25.916   2.950
92985W        W57970  42.048  29.038  10.203
92986W        W57971  33.159  10.909   3.757
92987W        W57972  15.785  22.126  10.668
92988W        W57973  19.086  34.040  10.582
92989W        W57974  34.956  29.686  14.785
92990W        W57975  35.064  15.220  10.972
92991W        W57976   5.356  22.164  14.348
92992W        W57977  36.022  27.992   0.930
92993W        W57978  36.262  25.206   3.984
92994W        W57979  11.644  15.343   2.286
92995W        W57980  41.423  29.402  12.520
92996W        W57981  43.344  17.400  14.329
92997W        W57982  32.638  36.024   3.650
92998W        W57983   9.354  35.459  12.097
92999W        W57984   6.867  20.705   2.924
93000W        W57985  44.855  31.914   4.558
93001W        W57986   7.913  17.051  11.985
93002W        W57987   1.689  12.868  13.559
93003W        W57988  15.664  23.482   0.480
93004W        W57989  33.440  35.195   3.675
93005W        W57990  32.532  30.140   2.730
93006W        W57991  39.329  24.025   4.210
93007W        W57992  14.148  10.121  12.762
93008W        W57993  21.779   6.821   0.866
93009W        W57994  15.730  23.022  13.469
93010W        W57995  18.200  16.716   1.749
93011W        W57996  43.223   1.412  14.810
93012W        W57997  37.004   3.411   0.919
93013W        W57998  14.668   3.406  12.718
93014W        W57999  11.461  22.553   3.239
93015W        W58000  22.984  14.439   1.362
93016W        W58001  11.965  17.595   5.013
93017W        W58002   6.933  20.290  12.334
93018W        W58003  29.492  42.553  14.219
93019W        W58004  42.420   7.566  12.525
93020W        W58005   5.963  18.351  13.000
93021W        W58006  33.159  42.914   4.177
93022W        W58007   4.056  19.128  11.827
93023W        W58008   7.456  15.619  13.045
93024W        W58009  21.725  22.600   4.158
93025W        W58010  26.853  14.443   0.723
93026W        W58011  10.193  17.226   4.021
93027W        W58012  13.202  16.630   1.890
93028W        W58013  24.404  40.525   3.748
93029W        W58014  33.485   0.074   4.513
93030W        W58015  28.514  17.111  13.964
93031W        W58016  40.293  19.322   4.108
93032W        W58017   2.436  24.064  13.865
93033W        W58018  43.022   8.172   1.488
93034W        W58019   7.303  13.717  10.749
93035W        W58020  16.744  21.729   0.326
93036W        W58021  18.333  39.050   2.622
93037W        W58022  35.548  38.923   2.565
93038W        W58023  28.179   8.226  13.896
93039W        W58024   7.607  10.836   1.154
93040W        W58025  34.316  17.391   2.098
93041W        W58026  11.280  37.793   4.209
93042W        W58027   0.523  21.251   3.681
93043W        W58028  42.959  24.440  11.611
93044W        W58029  33.078  19.046   3.718
93045W        W58030  29.968   8.601   0.771
93046W        W58031  27.488  42.465  14.928
93047W        W58032  41.341  23.999   0.716
93048W        W58033   4.341  32.790   1.698
93049W        W58034  26.007   0.472   2.096
93050W        W58035  39.309  11.897   1.618
93051W        W58036   3.389  20.737   2.690
93052W        W58037  41.532   7.955  13.864
93053W        W58038  32.280   0.877  14.599
93054W        W58039  42.394  21.719  12.085
93055W        W58040  28.582  18.154  12.011
93056W        W58041  44.997  16.252  12.043
93057W        W58042  19.754  20.627   1.566
93058W        W58043  19.953  10.247  10.791
93059W        W58044  11.473  42.923  13.996
93060W        W58045  41.403  26.714   0.437
93061W        W58046  34.547  19.281   2.811
93062W        W58047  33.650   6.376   1.842
93063W        W58048  40.006  21.654   2.282
93064W        W58049  19.882  18.538   4.094
93065W        W58050  32.418   4.190   0.022
93066W        W58051  38.954  14.807   3.504
93067W        W58052   0.130  14.656   5.062
93068W        W58053  16.154   9.374  11.394
93069W        W58054  16.883  21.714  11.648
93070W        W58055   6.291  18.623   2.802
93071W        W58056  33.490   4.882   4.608
93072W        W58057  36.808   4.401  14.459
93073W        W58058  30.593  26.208  11.036
93074W        W58059  29.937  41.718   3.699
93075W        W58060  20.809  13.365   1.261
93076W        W58061   4.174  35.406   0.448
93077W        W58062   4.440  21.658  11.178
93078W        W58063  29.371  22.204   0.069
93079W        W58064  24.168   8.253   4.372
93080W        W58065  43.810  21.544   1.446
93081W        W58066  31.297  43.112   2.705
93082W        W58067   2.551  28.854  11.512
93083W        W58068  39.458   8.720   3.323
93084W        W58069  27.656  21.260  14.229
93085W        W58070   8.309  24.974  12.502
93086W        W58071  43.886  40.322   2.339
93087W        W58072  12.112  20.124  14.828
93088W        W58073  10.767   7.648   1.204
93089W        W58074  43.084  13.094  13.363
93090W        W58075   7.409  22.309   0.992
93091W        W58076  23.693  38.630  13.574
93092W        W58077  14.351  16.214  10.821
93093W        W58078  33.622   3.831  11.919
93094W        W58079   1.346  30.713   2.209
93095W        W58080  39.632  15.451  11.510
93096W        W58081  15.563  26.454   3.166
93097W        W58082   7.486  19.010   4.845
93098W        W58083   0.944  34.525  11.581
93099W        W58084  33.577  12.448  14.596
93100W        W58085  18.107  28.712   1.784
93101W        W58086  42.028  39.571  11.133
93102W        W58087  27.696  14.861  13.215
93103W        W58088  40.788  11.312   4.686
93104W        W58089   6.998  39.238   2.334
93105W        W58090   6.836  29.346   3.684
93106W        W58091  32.941   5.519  14.514
93107W        W58092  43.348  31.999   2.887
93108W        W58093  38.645  24.415   5.643
93109W        W58094  15.011  18.655  14.006
93110W        W58095  19.632   2.777   4.349
93111W        W58096  25.497  34.618   5.015
93112W        W58097  44.708  41.864   3.275
93113W        W58098  23.189  41.934  10.591
93114W        W58099  33.308  16.737   3.422
93115W        W58100  38.972  12.007  14.998
93116W        W58101  29.651   1.692   9.766
93117W        W58102  25.455  37.506   5.065
93118W        W58103  10.578   6.861   0.951
93119W        W58104  44.472  22.065  11.605
93120W        W58105  10.867  31.197  12.365
93121W        W58106  25.153  38.999  13.805
93122W        W58107  21.999   9.159  14.918
93123W        W58108  40.340  23.780   3.293
93124W        W58109  29.129  30.098   5.060
93125W        W58110  25.513   7.355   1.800
93126W        W58111  21.998   5.066  11.444
93127W        W58112   3.722   2.485   0.912
93128W        W58113  11.988  22.563   3.178
93129W        W58114  17.005   2.016   1.695
93130W        W58115  29.632  21.824   4.151
93131W        W58116  33.007  35.063   0.623
93132W        W58117  38.341  36.516  11.988
93133W        W58118  43.981  44.642  10.711
93134W        W58119  35.780  44.793  12.194
93135W        W58120  24.721  33.813   4.086
93136W        W58121  43.050  27.659   0.803
93137W        W58122  33.133  14.498   1.522
93138W        W58123  13.739  16.982   1.701
93139W        W58124  38.257  36.589   2.180
93140W        W58125  18.228  37.999   1.977
93141W        W58126  22.121  32.094   2.496
93142W        W58127  41.876  15.950   5.385
93143W        W58128  38.835  14.861   0.749
93144W        W58129   3.497  23.799   0.722
93145W        W58130   3.015  28.693   1.207
93146W        W58131  22.703  27.004   3.645
93147W        W58132  30.545   2.508  14.327
93148W        W58133  27.349  41.509  13.392
93149W        W58134   0.869  43.740  13.093
93150W        W58135  36.618  21.817  13.054
93151W        W58136   4.413  42.861  14.421
93152W        W58137  11.774  30.216  12.573
93153W        W58138  41.217  44.310  12.552
93154W        W58139   8.352  38.448   4.104
93155W        W58140  10.233  32.424   3.657
93156W        W58141  35.095  23.275   4.426
93157W        W58142  39.420  17.340  14.508
93158W        W58143  10.925  20.227  13.519
93159W        W58144  13.054  28.640   3.673
93160W        W58145  42.784  12.891  12.940
93161W        W58146   0.261   8.773   4.538
93162W        W58147  10.187  44.568  14.329
93163W        W58148  34.904  10.562  11.629
93164W        W58149  33.809  10.333   4.544
93165W        W58150  12.123  43.843   0.347
93166W        W58151  37.104   3.692   3.679
93167W        W58152  30.110  17.504   1.252
93168W        W58153  22.158  40.047   0.421
93169W        W58154  37.414  17.814   4.538
93170W        W58155  15.619   9.246  11.440
93171W        W58156  11.853  20.212  11.971
93172W        W58157  22.325  40.018   5.186
93173W        W58158   6.130  20.308   1.779
93174W        W58159   6.159  30.519   3.786
93175W        W58160   6.614  11.841  14.674
93176W        W58161  40.543   5.768   3.623
93177W        W58162  30.030  20.664  14.321
93178W        W58163   8.650  15.811  13.479
93179W        W58164  11.328  29.935   2.743
93180W        W58165  42.247  19.308   4.574
93181W        W58166  16.926  18.074  11.962
93182W        W58167  41.851   1.808   2.936
93183W        W58168  31.609   5.199  13.559
93184W        W58169   8.429  30.971   3.580
93185W        W58170  30.017  18.166   2.763
93186W        W58171   9.926  22.064  10.720
93187W        W58172  44.557  16.323  10.335
93188W        W58173  24.940  29.587   0.043
93189W        W58174  37.959  19.581   3.669
93190W        W58175  37.946  10.417   0.325
93191W        W58176  33.941  18.865   0.338
93192W        W58177   5.167  13.863  13.492
93193W        W58178  44.434  22.147   1.193
93194W        W58179  27.343  27.722   9.853
93195W        W58180  17.356   3.217   2.492
93196W        W58181  29.284  14.933   4.323
93197W        W58182  23.915   2.536   3.668
93198W        W58183  23.155  29.887  13.279
93199W        W58184   2.353   0.198   4.756
93200W        W58185   0.475  34.464  13.864
93201W        W58186  33.553  10.322  14.199
93202W        W58187  43.942  39.777  12.574
93203W        W58188  28.635  40.505   2.842
93204W        W58189   8.741  23.978  14.462
93205W        W58190  12.822  10.194  10.738
93206W        W58191  16.566   1.553   1.876
93207W        W58192   5.759  36.330   0.727
93208W        W58193  33.627  12.331  13.245
93209W        W58194   1.767   6.030  12.495
93210W        W58195   6.896  37.139  12.764
93211W        W58196  25.648  36.478  12.786
93212W        W58197  13.997  26.707   0.806
93213W        W58198   4.150  33.640  14.959
93214W        W58199   3.984  23.643  11.600
93215W        W58200   4.814  13.826   2.879
93216W        W58201  22.832  19.124   0.637
93217W        W58202  34.506   1.156  14.027
93218W        W58203   3.887  10.088   0.353
93219W        W58204  42.377   7.885   2.620
93220W        W58205  39.481   9.517   3.484
93221W        W58206  23.826  20.970   2.924
93222W        W58207  41.496   4.970   1.427
93223W        W58208  12.996  20.247  12.587
93224W        W58209  11.710  32.408  11.450
93225W        W58210  14.088  28.691   3.826
93226W        W58211   0.786  28.366   2.473
93227W        W58212  22.530  34.108   2.001
93228W        W58213  21.918  43.075   2.246
93229W        W58214  33.838  20.555   1.017
93230W        W58215  34.362  34.987   3.749
93231W        W58216  24.461  24.018   4.111
93232W        W58217  11.898  10.948  13.263
93233W        W58218   6.779  22.457   0.432
93234W        W58219   9.252  10.664  10.669
93235W        W58220  33.907  41.852  12.391
93236W        W58221  12.585  27.625  11.564
93237W        W58222  42.270  24.688  12.248
93238W        W58223  22.469  25.618   1.684
93239W        W58224  25.788  28.149   2.211
93240W        W58225  21.427  11.318   0.906
93241W        W58226  36.517  18.029   2.112
93242W        W58227  34.770  20.635  11.627
93243W        W58228  21.646  42.854  14.016
93244W        W58229   2.386   2.790   3.879
93245W        W58230  23.020   1.475   0.449
93246W        W58231  43.876   5.645   0.324
93247W        W58232  14.996  33.631   2.169
93248W        W58233  27.505  22.865   1.481
93249W        W58234  21.493  32.081   0.800
93250W        W58235  43.838  25.976  11.923
93251W        W58236   1.203   7.865   1.266
93252W        W58237  28.279  36.129  11.529
93253W        W58238  21.042  23.523   0.454
93254W        W58239   2.853  39.111   0.487
93255W        W58240  22.207  22.238  10.235
93256W        W58241   3.727  25.004  10.432
93257W        W58242  33.389  26.458  12.970
93258W        W58243   9.806  13.212   3.653
93259W        W58244  30.870   8.730  11.633
93260W        W58245  14.258  40.017  12.628
93261W        W58246  16.166  34.830  10.319
93262W        W58247  43.294   4.385   1.128
93263W        W58248  34.093  31.820   0.726
93264W        W58249  34.395  18.630   0.467
93265W        W58250  10.660  10.629  11.181
93266W        W58251  18.690  41.535   5.093
93267W        W58252  34.437  15.642  13.509
93268W        W58253   2.946  38.217  14.932
93269W        W58254  29.117   5.455  11.946
93270W        W58255   9.808  32.121  12.506
93271W        W58256  33.068  24.442  11.554
93272W        W58257  12.345   2.928   4.863
93273W        W58258  17.792  24.026   4.469
93274W        W58259  19.743   9.207   3.714
93275W        W58260  10.877  40.869  10.997
93276W        W58261  28.949  35.959  14.948
93277W        W58262  44.802  28.088   0.833
93278W        W58263  42.703  27.963   1.200
93279W        W58264  13.667  13.123  12.421
93280W        W58265  31.890   0.541   3.796
93281W        W58266   2.063  37.142  11.912
93282W        W58267  21.020  30.398  11.039
93283W        W58268   9.113  17.622  10.683
93284W        W58269  25.142   0.791   0.532
93285W        W58270  28.131  13.334   0.832
93286W        W58271  29.284   6.454  11.939
93287W        W58272  36.921  41.053  14.369
93288W        W58273  22.743  11.278  13.315
93289W        W58274  18.204  34.108   3.789
93290W        W58275  17.431  17.384  11.953
93291W        W58276  24.290  34.648   0.868
93292W        W58277  43.319  19.146   3.557
93293W        W58278  20.579   7.983   0.730
93294W        W58279  22.685  31.598  10.485
93295W        W58280  27.445   2.732  12.467
93296W        W58281  18.040  34.463  14.929
93297W        W58282  28.146  12.706  11.640
93298W        W58283  20.934  18.577   0.782
93299W        W58284  29.852  11.127  13.870
93300W        W58285  13.921   4.936  10.200
93301W        W58286  18.568  35.048  10.946
93302W        W58287   0.884  25.639  14.633
93303W        W58288   9.190   9.650   1.423
93304W        W58289   2.102  25.105  11.544
93305W        W58290   0.252  22.048  12.221
93306W        W58291  43.689  28.905   1.875
93307W        W58292  24.358  16.734   4.071
93308W        W58293  32.547  27.946  12.582
93309W        W58294   9.372  22.361   4.174
93310W        W58295  14.712  35.074  11.996
93311W        W58296  27.655  34.699   2.063
93312W        W58297  19.545  31.373   3.738
93313W        W58298   5.259   2.493  13.798
93314W        W58299  21.958   4.892  10.179
93315W        W58300  18.563  10.642  13.311
93316W        W58301  36.390  27.134  11.461
93317W        W58302  37.471  29.224   1.860
93318W        W58303  27.401  15.873   3.902
93319W        W58304  42.202  42.895  13.545
93320W        W58305  12.352  21.214   2.937
93321W        W58306  35.788  43.270   2.269
93322W        W58307  38.517  29.712  14.824
93323W        W58308  30.909  43.885  11.071
93324W        W58309  42.958  37.727   2.264
93325W        W58310  12.372  27.150  12.922
93326W        W58311   7.232  43.296  11.612
93327W        W58312  21.133  10.510   1.697
93328W        W58313   0.032  38.027   4.257
93329W        W58314  41.035  24.155  11.159
93330W        W58315  19.796  43.283  13.909
93331W        W58316  36.967  15.145  14.378
93332W        W58317  34.293  20.795  14.410
93333W        W58318   1.023   8.398  12.021
93334W        W58319  37.450  44.303   1.884
93335W        W58320  13.148  20.492  13.020
93336W        W58321  39.173  37.993   3.917
93337W        W58322   6.745  34.777  11.976
93338W        W58323  13.796  12.764   2.876
93339W        W58324  15.162  10.310  12.909
93340W        W58325  12.834   6.417   3.665
93341W        W58326  20.250  42.378  13.425
93342W        W58327  42.858  24.274   1.453
93343W        W58328  37.531  25.690  12.263
93344W        W58329  28.624  19.843   1.341
93345W        W58330  31.934   5.776  12.853
93346W        W58331  24.948  21.269  11.059
93347W        W58332  12.100  15.143  11.695
93348W        W58333  25.352  32.953   0.500
93349W        W58334  21.012  44.212  10.611
93350W        W58335  11.535  40.838  14.468
93351W        W58336  32.459  42.926  13.719
93352W        W58337  20.035   2.395   1.736
93353W        W58338   8.483   7.958   4.359
93354W        W58339  36.002  10.259  14.666
93355W        W58340  24.221  37.414   2.711
93356W        W58341  44.830   1.552   0.849
93357W        W58342  25.528  15.548   2.179
93358W        W58343  18.361  12.207  14.906
93359W        W58344  18.230  13.540  13.505
93360W        W58345  40.951  13.098   4.512
93361W        W58346  44.331  29.824  11.851
93362W        W58347  22.059  16.742  11.647
93363W        W58348  25.589  15.603  10.104
93364W        W58349  28.914  16.814   1.342
93365W        W58350   0.684   8.131   0.873
93366W        W58351  26.430  12.901  11.887
93367W        W58352  15.252  32.681  13.773
93368W        W58353  40.425   3.123  11.648
93369W        W58354  16.537  33.863   4.703
93370W        W58355   6.758   3.447   2.410
93371W        W58356   7.507   2.967   3.211
93372W        W58357  20.156  11.889  14.409
93373W        W58358  43.970  36.688   1.361
93374W        W58359  37.267   3.257  11.223
93375W        W58360  34.303   0.955   1.226
93376W        W58361   2.600  27.580   3.000
93377W        W58362  16.641  29.949   2.226
93378W        W58363   3.283  35.346  14.288
93379W        W58364  37.750  11.314  12.898
93380W        W58365  41.730  10.230  11.105
93381W        W58366  35.785  43.403  14.495
93382W        W58367   8.351  38.792   0.717
93383W        W58368  36.196  18.574  12.785
93384W        W58369   5.246  41.267  11.092
93385W        W58370  15.670  16.682  11.950
93386W        W58371  24.122   8.138  11.515
93387W        W58372  42.718   1.859  11.158
93388W        W58373  39.778  28.058  13.146
93389W        W58374  32.047  16.306   4.110
93390W        W58375   1.290  11.571  11.643
93391W        W58376  36.545   8.457  11.963
93392W        W58377  38.439  15.670  10.936
93393W        W58378  38.921  44.199   3.280
93394W        W58379  16.658  26.510  14.059
93395W        W58380  27.527   8.297   1.079
93396W        W58381   8.943  35.747  10.611
93397W        W58382  31.013  15.414   2.756
93398W        W58383  30.642   0.038   4.120
93399W        W58384  32.622  10.153  14.188
93400W        W58385  36.557  26.700   3.230
93401W        W58386  34.912  18.715  11.326
93402W        W58387   0.735  44.214  12.405
93403W        W58388   2.423  14.786  11.500
93404W        W58389  22.951  28.529   4.662
93405W        W58390   1.952  44.723   1.234
93406W        W58391  36.438   5.077  10.340
93407W        W58392  15.667  33.049   0.916
93408W        W58393   7.618   8.456   1.812
93409W        W58394  43.511  42.532   1.907
93410W        W58395   2.182  37.939   0.671
93411W        W58396  32.637  41.992   4.111
93412W        W58397   5.340   3.402   2.142
93413W        W58398   7.367  16.288   1.403
93414W        W58399  23.544  34.626  11.060
93415W        W58400  29.318   4.306  13.428
93416W        W58401  21.441   8.052   1.770
93417W        W58402  38.121  43.485   2.443
93418W        W58403  19.140  31.096  13.008
93419W        W58404  31.607  30.928   2.134
93420W        W58405  41.395  14.302  11.412
93421W        W58406  19.891  43.296   1.759
93422W        W58407  28.638   2.077   3.351
93423W        W58408   5.156  18.441   3.233
93424W        W58409   2.861  40.596   4.918
93425W        W58410  11.070  26.520   3.693
93426W        W58411  25.483  17.745   1.864
93427W        W58412   0.684  11.219   0.435
93428W        W58413  26.945  19.098  12.001
93429W        W58414  29.233  43.933   2.637
93430W        W58415   3.716   9.096   2.319
93431W        W58416  12.245  43.002   1.856
93432W        W58417  28.535  21.256   2.953
93433W        W58418  31.787  30.686   2.750
93434W        W58419  12.362  30.971   2.700
93435W        W58420  12.595   2.416  14.598
93436W        W58421   2.008  20.608   4.933
93437W        W58422  12.136  13.277   2.756
93438W        W58423  40.346  33.022   3.141
93439W        W58424  39.861  40.692   3.648
93440W        W58425  31.446  15.241   3.715
93441W        W58426  32.172  21.123  14.612
93442W        W58427  14.251  35.304  14.377
93443W        W58428  15.076  12.114  13.825
93444W        W58429  32.118  15.515  13.253
93445W        W58430  18.638  18.199   2.101
93446W        W58431  14.294  16.594  13.510
93447W        W58432  17.154   1.425   3.969
93448W        W58433  37.042  31.965  11.499
93449W        W58434   0.714  37.422  13.737
93450W        W58435  32.913  39.814  12.825
93451W        W58436  34.110  24.299  14.499
93452W        W58437  24.260  26.186   3.515
93453W        W58438   6.200  33.051  12.024
93454W        W58439   1.402  13.825  13.045
93455W        W58440   5.686  17.940   2.819
93456W        W58441  17.733  18.186  10.751
93457W        W58442  32.612  17.858  11.229
93458W        W58443  34.962  28.729  11.191
93459W        W58444  16.277  28.040  10.832
93460W        W58445  37.546  38.819  14.131
93461W        W58446   0.871  13.082  12.025
93462W        W58447  25.503  33.225  13.061
93463W        W58448  38.132  33.735  12.972
93464W        W58449  27.885  40.326  11.591
93465W        W58450  14.367  37.474   4.145
93466W        W58451  21.358  15.775   3.917
93467W        W58452   9.849  37.929  13.430
93468W        W58453   5.729  11.503   1.562
93469W        W58454  18.978  10.692  14.696
93470W        W58455  28.498  30.084  12.094
93471W        W58456   7.273  24.465   1.258
93472W        W58457  18.187  32.326   1.737
93473W        W58458  24.933  13.813   0.208
93474W        W58459  23.001  32.186  10.422
93475W        W58460   9.881  20.569   2.434
93476W        W58461   9.519  39.448  14.525
93477W        W58462  25.517  36.384   2.294
93478W        W58463  27.093  19.714   4.610
93479W        W58464  38.273  24.508  10.640
93480W        W58465  10.310   0.361  13.556
93481W        W58466  10.141  11.055   1.362
93482W        W58467  35.919  25.742   4.214
93483W        W58468  10.893  26.982   3.627
93484W        W58469  14.104  35.817   4.080
93485W        W58470  30.108  42.412   0.456
93486W        W58471   0.967  35.290   1.905
93487W        W58472  40.699  30.394  10.311
93488W        W58473  35.904  27.140   3.740
93489W        W58474  34.955  42.750   5.040
93490W        W58475  43.225   5.273   1.253
93491W        W58476  31.682   1.263  13.918
93492W        W58477  36.505  32.467   2.635
93493W        W58478  19.692  32.647   3.130
93494W        W58479  30.994  26.216  12.027
93495W        W58480  29.875   1.729  14.088
93496W        W58481   9.328  13.796   3.171
93497W        W58482  39.337   9.275  14.875
93498W        W58483  37.578  25.170  10.645
93499W        W58484  16.756  43.134   0.424
93500W        W58485  10.195   2.396   2.215
93501W        W58486  35.549  16.466  12.144
93502W        W58487   8.389   9.723  10.639
93503W        W58488   8.599  10.132   0.755
93504W        W58489  14.203  30.846  13.436
93505W        W58490  32.016   5.438   0.001
93506W        W58491  37.424  14.850  13.949
93507W        W58492  24.925   0.360   1.201
93508W        W58493  15.248  34.158  10.339
93509W        W58494  15.158   1.173  14.108
93510W        W58495  44.778   1.331  14.497
93511W        W58496  31.529  21.708  11.112
93512W        W58497  32.019  32.695   3.887
93513W        W58498  28.250   9.831   3.138
93514W        W58499  10.061  10.238  11.954
93515W        W58500  29.508  21.492   4.536
93516W        W58501  27.839  28.837   3.597
93517W        W58502  36.958  38.961   0.871
93518W        W58503   5.606  25.138   1.437
93519W        W58504  22.512  44.321   9.966
93520W        W58505   6.123  35.414  13.396
93521W        W58506  17.664   9.330  11.172
93522W        W58507   1.058  18.496   5.004
93523W        W58508   7.263  41.234   1.863
93524W        W58509  33.072   9.446  13.849
93525W        W58510  41.891  24.474  10.835
93526W        W58511  39.824  19.098   4.168
93527W        W58512  44.061   0.823   4.246
93528W        W58513  38.601  18.081   3.958
93529W        W58514  25.432  23.848   4.142
93530W        W58515  29.466  12.291   0.908
93531W        W58516  18.630   6.207  14.288
93532W        W58517  24.909  37.439  13.899
93533W        W58518  24.028  44.995  12.573
93534W        W58519  42.092  33.669  14.499
93535W        W58520  12.701  37.429   1.620
93536W        W58521  11.707  10.846  10.244
93537W        W58522  42.561  16.559   0.852
93538W        W58523  30.078  25.585   1.717
93539W        W58524  30.390  40.079   3.158
93540W        W58525  24.775  15.120  10.603
93541W        W58526  44.424   1.799   2.216
93542W        W58527  25.874   7.822  11.661
93543W        W58528  24.990   6.372  13.893
93544W        W58529   8.939   9.747  14.778
93545W        W58530   5.760  38.775   1.706
93546W        W58531  17.188  26.684  13.877
93547W        W58532   5.697  42.847  10.691
93548W        W58533  38.871  38.120  11.773
93549W        W58534  38.058   9.336   4.620
93550W        W58535   4.662  24.005   0.050
93551W        W58536  30.273  15.539   5.078
93552W        W58537   2.342  21.714   0.392
93553W        W58538  24.502   5.945   0.416
93554W        W58539   4.379  29.927   2.590
93555W        W58540   2.610  22.220  11.682
93556W        W58541  24.982   0.696  13.876
93557W        W58542  42.167  29.187   4.115
93558W        W58543  44.773  38.430   0.428
93559W        W58544  35.427  37.552  14.303
93560W        W58545   0.305  16.825   1.248
93561W        W58546  34.880  28.479   0.866
93562W        W58547  40.495   0.642   5.123
93563W        W58548  43.598  28.652   4.113
93564W        W58549  21.138  34.919  14.419
93565W        W58550  40.516   9.189  14.134
93566W        W58551  25.551   3.480   3.995
93567W        W58552  12.156  22.639  10.657
93568W        W58553  12.853   7.123   2.514
93569W        W58554  24.580  14.704  12.839
93570W        W58555   0.083  12.438   3.298
93571W        W58556   5.655  38.226  11.491
93572W        W58557  27.817  43.558   5.037
93573W        W58558  42.849   9.208   2.901
93574W        W58559  24.935  13.836   3.677
93575W        W58560  22.517  14.651   0.618
93576W        W58561  17.139   6.748  12.942
93577W        W58562  42.546  12.740   1.168
93578W        W58563  11.888  33.877   3.160
93579W        W58564  33.201  29.694   1.406
93580W        W58565  29.844  16.643   4.643
93581W        W58566   8.484   6.548  13.878
93582W        W58567  38.030  22.560  11.185
93583W        W58568  20.769  19.113  13.418
93584W        W58569  35.570  10.655  12.688
93585W        W58570  34.602  19.201   3.723
93586W        W58571   1.292  11.106   3.526
93587W        W58572  32.162  35.793  14.471
93588W        W58573   9.839  17.159  13.475
93589W        W58574  40.568  44.091  14.585
93590W        W58575  39.389  19.342   3.996
93591W        W58576  36.364  14.284  13.370
93592W        W58577   7.187  41.967   4.433
93593W        W58578  27.472  16.633  14.884
93594W        W58579  24.689  42.100  10.682
93595W        W58580   1.645  12.603  14.039
93596W        W58581  29.103  38.663  12.021
93597W        W58582   5.951  25.705  10.554
93598W        W58583  37.472  34.582  11.841
93599W        W58584  28.433  38.088   4.384
93600W        W58585   9.452   0.858   0.291
93601W        W58586  11.335  11.692  12.991
93602W        W58587  17.756  33.181  13.461
93603W        W58588  33.170  14.672  12.891
93604W        W58589  36.290   0.514  10.460
93605W        W58590  16.155  42.052   4.717
93606W        W58591  11.812  34.106  11.591
93607W        W58592   3.999   4.129  11.113
93608W        W58593   7.914  14.187  11.786
93609W        W58594   2.231  38.747   0.189
93610W        W58595   8.364  33.668   0.240
93611W        W58596  26.386   8.467   2.860
93612W        W58597  17.812  15.597   1.351
93613W        W58598  16.116  32.073   5.021
93614W        W58599   7.355  38.215  12.890
93615W        W58600  13.507  18.620  13.783
93616W        W58601   1.043   8.736   2.979
93617W        W58602   5.682  35.985   3.771
93618W        W58603  18.151  32.881   0.277
93619W        W58604  28.751  33.919   3.540
93620W        W58605  20.179  19.008   3.175
93621W        W58606  38.105  12.161   4.850
93622W        W58607  39.390  17.099  14.970
93623W        W58608  40.879   8.652   3.977
93624W        W58609  30.088  39.916  12.572
93625W        W58610  23.068  28.164  12.631
93626W        W58611  22.793   0.339  13.273
93627W        W58612  13.715  36.149  14.416
93628W        W58613  29.466   8.444  12.593
93629W        W58614   1.959  33.682  11.081
93630W        W58615  25.984  12.691  12.022
93631W        W58616  23.063  36.775   2.231
93632W        W58617   2.526  30.497   3.182
93633W        W58618   5.916  34.848  14.685
93634W        W58619  27.954   7.209   0.212
93635W        W58620  20.254  39.976  13.089
93636W        W58621  11.111  24.535  12.666
93637W        W58622   6.772  43.518   1.388
93638W        W58623  14.123  27.311  10.562
93639W        W58624  11.828  38.633   2.238
93640W        W58625  32.467  12.687   3.197
93641W        W58626  18.759  24.523   3.700
93642W        W58627  12.054  29.113   0.254
93643W        W58628  18.482  12.215   1.714
93644W        W58629  16.581  21.453  12.447
93645W        W58630   6.322   9.893  13.812
93646W        W58631  41.435   8.592  12.633
93647W        W58632  31.954  10.670   3.154
93648W        W58633   2.972  42.236   3.213
93649W        W58634  15.743  35.330  10.618
93650W        W58635  41.578  18.710   3.271
93651W        W58636   1.910  34.625   0.887
93652W        W58637  43.864  28.624   3.648
93653W        W58638  14.733   8.669   1.423
93654W        W58639  38.897   0.251  11.165
93655W        W58640  33.652  26.866   3.900
93656W        W58641  23.239   3.194   4.776
93657W        W58642  35.893  22.647   1.924
93658W        W58643  20.284  27.060  13.521
93659W        W58644  41.262   7.291  12.530
93660W        W58645   2.144   6.712   4.961
93661W        W58646  25.042  38.555   1.242
93662W        W58647  43.357  43.944   4.933
93663W        W58648  21.197   1.383   1.706
93664W        W58649  24.537  33.557  14.861
93665W        W58650  27.489  15.682  13.850
93666W        W58651  24.346  31.805  12.643
93667W        W58652  14.593  22.529   0.751
93668W        W58653  37.613   0.269   0.788
93669W        W58654  40.161  36.828  14.844
93670W        W58655  37.303  44.732  12.162
93671W        W58656  18.053  16.212   1.967
93672W        W58657  38.464  30.509   2.906
93673W        W58658  29.478   3.801  13.408
93674W        W58659  38.921   8.875   4.517
93675W        W58660  16.569  17.002  12.089
93676W        W58661  31.851  24.793   1.317
93677W        W58662  24.334  14.198  12.960
93678W        W58663   7.832  31.225  12.991
93679W        W58664  14.624  35.083   3.197
93680W        W58665  23.169  23.807   1.384
93681W        W58666   3.963  11.200  10.556
93682W        W58667   2.727  33.146  13.850
93683W        W58668  22.690  26.749  11.426
93684W        W58669  32.141  24.615   0.322
93685W        W58670   6.014  38.264  13.963
93686W        W58671  32.017   1.041  12.039
93687W        W58672  44.585  44.087  12.475
93688W        W58673  33.166  21.229  12.398
93689W        W58674   1.336  38.674  13.725
93690W        W58675  38.085  12.297   0.847
93691W        W58676   8.345  37.461  11.183
93692W        W58677  25.960  13.684   2.652
93693W        W58678  33.608  11.152  10.718
93694W        W58679  23.255  43.217  13.353
93695W        W58680  23.141   9.930  12.082
93696W        W58681  22.911  32.434  13.812
93697W        W58682  41.370  39.424  12.560
93698W        W58683  43.612  16.381   3.612
93699W        W58684   7.306   5.189   5.066
93700W        W58685  11.677  30.419   1.005
93701W        W58686   0.004  27.937  11.944
93702W        W58687   1.892  31.362  12.541
93703W        W58688  29.165  19.354  12.190
93704W        W58689  43.786  38.061   3.095
93705W        W58690   2.518  40.780   3.715
93706W        W58691   7.279  12.847  13.372
93707W        W58692  38.366   5.799  10.710
93708W        W58693  33.572  18.332   1.461
93709W        W58694   6.124  16.245  11.162
93710W        W58695   5.618  17.285  10.706
93711W        W58696   8.907  21.664   0.131
93712W        W58697  35.332  19.613   1.783
93713W        W58698  29.680   2.089  12.135
93714W        W58699   7.916  38.969   0.955
93715W        W58700  12.192   6.939  10.607
93716W        W58701  43.410   4.459  12.976
93717W        W58702  38.919  34.904   0.980
93718W        W58703  14.061  12.116  13.952
93719W        W58704  32.242   6.126  11.941
93720W        W58705   2.461   0.968   1.496
93721W        W58706  25.047  20.159  10.644
93722W        W58707   9.217   3.171   1.589
93723W        W58708  44.216  21.445  11.055
93724W        W58709   0.028  12.538   2.764
93725W        W58710  19.593  12.508  14.581
93726W        W58711  18.356  26.089   0.418
93727W        W58712  22.150  20.208   2.551
93728W        W58713  23.089  39.837   3.175
93729W        W58714  30.477   6.798   3.798
93730W        W58715  17.857  29.989  12.606
93731W        W58716  34.663  40.936  14.790
93732W        W58717  43.485  13.646  12.055
93733W        W58718  40.827  28.266   3.140
93734W        W58719  11.550  30.108  14.264
93735W        W58720   3.443  33.253   3.696
93736W        W58721  43.878   3.256   0.429
93737W        W58722  11.859  15.185  11.232
93738W        W58723  22.691  15.757  13.396
93739W        W58724  13.126  17.296   3.190
93740W        W58725  11.121  30.707  10.670
93741W        W58726  42.091  42.332  12.134
93742W        W58727  11.678  11.350   4.586
93743W        W58728  12.173  28.673  12.207
93744W        W58729  33.582  11.188   3.604
93745W        W58730  38.399   6.921  13.030
93746W        W58731   0.866  33.134  13.422
93747W        W58732   8.173  20.940  12.848
93748W        W58733  31.244  22.447   0.904
93749W        W58734  20.771   9.436  11.297
93750W        W58735  28.508  36.998   1.770
93751W        W58736  42.862   9.266   2.296
93752W        W58737  20.123  40.344  14.813
93753W        W58738  43.010  15.138   1.320
93754W        W58739  34.057  23.157  11.924
93755W        W58740  26.413  27.691  11.099
93756W        W58741   9.553   6.882   3.806
93757W        W58742  41.942  29.205  10.675
93758W        W58743   4.334  30.373  14.267
93759W        W58744  21.727  39.057  14.429
93760W        W58745  20.471  37.680  12.172
93761W        W58746   5.072   6.478  14.075
93762W        W58747  44.937  17.945  13.881
93763W        W58748   2.428  42.974  14.423
93764W        W58749  41.034  31.107  12.527
93765W        W58750  40.244   7.731  14.419
93766W        W58751  33.136  32.543  10.463
93767W        W58752   8.229   2.183   0.675
93768W        W58753  32.498   4.255   3.152
93769W        W58754   2.399  27.679   3.860
93770W        W58755  35.958  25.880   2.484
93771W        W58756  22.630  17.842   3.191
93772W        W58757  29.679   2.751  13.317
93773W        W58758  23.686  41.585   2.280
93774W        W58759   5.454  42.292  10.723
93775W        W58760  27.426  20.162   2.246
93776W        W58761  30.550  15.200   4.845
93777W        W58762  15.412  19.842  11.918
93778W        W58763  40.481  26.459  10.903
93779W        W58764  16.407  28.621   4.044
93780W        W58765  26.009  33.208  11.488
93781W        W58766  12.343   7.212  12.860
93782W        W58767  38.481   8.223   3.351
93783W        W58768  37.289  24.129   4.872
93784W        W58769  19.269   8.126  12.611
93785W        W58770  42.876  20.065   0.138
93786W        W58771  40.458  11.407  12.820
93787W        W58772  21.443  16.022  12.976
93788W        W58773  13.251  21.656  11.640
93789W        W58774  21.218  19.753   2.606
93790W        W58775  26.206   0.225   5.435
93791W        W58776  37.924  13.729   2.831
93792W        W58777  12.735  28.086  14.391
93793W        W58778  23.673  43.999   2.903
93794W        W58779  28.725  26.113   1.912
93795W        W58780  41.829  40.317  11.512
93796W        W58781   6.994  24.577  11.765
93797W        W58782  22.095  32.007  13.449
93798W        W58783  33.143  38.045  12.001
93799W        W58784  24.245  29.373   4.043
93800W        W58785  24.771   8.185  13.580
93801W        W58786   5.696  40.500   3.671
93802W        W58787  19.319  37.307   1.276
93803W        W58788   5.314   8.275   4.384
93804W        W58789  14.536  10.178   3.265
93805W        W58790  20.549  12.531  11.067
93806W        W58791  10.359   2.548   3.239
93807W        W58792  23.756   2.453   2.425
93808W        W58793   1.634  43.221  10.745
93809W        W58794   9.745   9.408  10.708
93810W        W58795   1.579  35.773   4.538
93811W        W58796  35.143  16.083   3.170
93812W        W58797  18.234  29.400  14.005
93813W        W58798  39.084  29.130   3.327
93814W        W58799  12.018   9.230   2.141
93815W        W58800  25.242  43.024  10.684
93816W        W58801  38.869   3.105  14.235
93817W        W58802   1.344   1.199   0.914
93818W        W58803  28.064  11.645  13.106
93819W        W58804  30.766  27.021   3.787
93820W        W58805   3.086  11.747   1.319
93821W        W58806  32.932  36.915   1.308
93822W        W58807  41.842  43.909   4.460
93823W        W58808  13.733  19.173   2.155
93824W        W58809  18.959  26.408  11.613
93825W        W58810   0.722  39.575  10.534
93826W        W58811  41.491  16.772  12.013
93827W        W58812   8.162  13.432   2.934
93828W        W58813  42.345  10.895   3.199
93829W        W58814  20.048   2.704   4.758
93830W        W58815  17.010  29.685  11.842
93831W        W58816  23.014  40.887  14.374
93832W        W58817  36.607   1.574   2.349
93833W        W58818   9.768  26.808   4.290
93834W        W58819  34.499   1.610  11.570
93835W        W58820   9.779  19.016   1.376
93836W        W58821  27.269   3.839   1.660
93837W        W58822  25.664  13.046  10.841
93838W        W58823  33.976  10.607   2.397
93839W        W58824   7.296   2.512   1.776
93840W        W58825   6.426  38.404  10.851
93841W        W58826   8.850  17.281  11.891
93842W        W58827   7.459  30.650   1.295
93843W        W58828  32.636  36.514  13.533
93844W        W58829  37.183   7.876  11.698
93845W        W58830  39.907  44.732  12.333
93846W        W58831  10.795  25.842   3.317
93847W        W58832  18.116  37.337   0.852
93848W        W58833  38.908   7.966  11.550
93849W        W58834  15.314   0.413   1.722
93850W        W58835  14.632  11.595  14.273
93851W        W58836  39.359  24.632  11.594
93852W        W58837  33.908  21.287  11.499
93853W        W58838  31.398  20.797   0.075
93854W        W58839  19.893  18.525   2.422
93855W        W58840  21.281  42.198   1.545
93856W        W58841  39.910  42.412  13.524
93857W        W58842  43.183  43.464   3.553
93858W        W58843  37.890  17.869  10.148
93859W        W58844  25.699  37.734  10.880
93860W        W58845  23.963  17.273   5.086
93861W        W58846  10.176  34.473   0.228
93862W        W58847  37.330  26.117   2.762
93863W        W58848   8.262  14.035   1.927
93864W        W58849   5.614  27.818  14.379
93865W        W58850   2.187  40.393   3.607
93866W        W58851  29.945  34.131   2.016
93867W        W58852  14.089  24.909   0.249
93868W        W58853  16.391  26.985  13.838
93869W        W58854  23.625   4.291  11.207
93870W        W58855   2.654  10.118   4.161
93871W        W58856  36.288  15.158  12.461
93872W        W58857  33.849  32.006   0.301
93873W        W58858  39.477   2.292  11.499
93874W        W58859  22.331  44.267   0.937
93875W        W58860  32.029   9.768  14.909
93876W        W58861  32.987   7.653   5.202
93877W        W58862   2.384  19.256   4.480
93878W        W58863   2.459  22.554   2.786
93879W        W58864  27.534  30.198  13.896
93880W        W58865   7.261  10.616  11.769
93881W        W58866  43.086  38.380  11.132
93882W        W58867   7.930   2.895  11.604
93883W        W58868  17.736  26.605   1.702
93884W        W58869  33.072   0.778  13.023
93885W        W58870  36.793  36.312   2.419
93886W        W58871  44.430  10.885   0.932
93887W        W58872   3.947  14.751  11.481
93888W        W58873  11.302  13.620  13.872
93889W        W58874  38.876  22.964   3.963
93890W        W58875  31.008  20.070  11.535
93891W        W58876  31.831  34.533  13.914
93892W        W58877  35.799   8.646  12.872
93893W        W58878  14.655   5.427  12.395
93894W        W58879   3.331  36.689  14.062
93895W        W58880   2.394  24.744  14.901
93896W        W58881  27.528  37.974   0.709
93897W        W58882  14.090  17.661  12.608
93898W        W58883   9.793  11.370  12.987
93899W        W58884   8.264  17.334   2.034
93900W        W58885  26.002   7.990   4.546
93901W        W58886  34.572  24.437  12.107
93902W        W58887  11.155  42.878   4.992
93903W        W58888  25.203   3.878   0.532
93904W        W58889  35.909  40.328   4.580
93905W        W58890  16.941  28.554   2.858
93906W        W58891  38.492  30.194   4.720
93907W        W58892   2.835   6.132  14.320
93908W        W58893  31.891  31.087  12.676
93909W        W58894  15.648  25.275  11.885
93910W        W58895   6.624   5.244   0.847
93911W        W58896  37.669  40.308  13.089
93912W        W58897  38.430   6.316  12.619
93913W        W58898   8.896  18.725   2.301
93914W        W58899   8.946  11.084  10.666
93915W        W58900  32.816  41.828  10.716
93916W        W58901  14.296   4.934   5.541
93917W        W58902  16.078  13.613   1.846
93918W        W58903  21.758  44.286   1.893
93919W        W58904   0.912   3.995   4.086
93920W        W58905  11.694   7.898  12.252
93921W        W58906  41.656  24.249   3.994
93922W        W58907  17.780  34.315   1.444
93923W        W58908  18.593  22.142  11.157
93924W        W58909  27.584   5.748  13.278
93925W        W58910  39.261  33.360  12.515
93926W        W58911  25.960   6.367   0.042
93927W        W58912   2.791   8.279   4.143
93928W        W58913   4.618   1.514   0.983
93929W        W58914  10.358  30.672   0.814
93930W        W58915  31.501  40.241  14.881
93931W        W58916   5.114  40.885   4.877
93932W        W58917  16.906  30.700  10.342
93933W        W58918  22.785  36.413  14.090
93934W        W58919   1.749  40.824  13.896
93935W        W58920  26.262  18.710   0.186
93936W        W58921  27.121   3.948   2.148
93937W        W58922   7.348  37.125  13.111
93938W        W58923  18.884  35.661   2.949
93939W        W58924  41.953  16.722   3.386
93940W        W58925  44.804  18.734   3.681
93941W        W58926  11.389   7.275  11.150
93942W        W58927   5.749  19.675  12.444
93943W        W58928  43.202  17.250  12.619
93944W        W58929  12.837  29.125  13.963
93945W        W58930   7.771  31.407   2.180
93946W        W58931  18.131   2.321   2.196
93947W        W58932  10.179  37.984  10.759
93948W        W58933  23.542  44.247  13.892
93949W        W58934  30.464  22.029  12.535
93950W        W58935  32.935   3.502  11.295
93951W        W58936  34.378  42.901   3.627
93952W        W58937   8.559   7.219   4.131
93953W        W58938  42.479   0.959   0.064
93954W        W58939  20.537   6.151  13.125
93955W        W58940  36.397  38.303   0.959
93956W        W58941   5.730  30.499  11.188
93957W        W58942  32.884  16.794   3.758
93958W        W58943   1.963  38.970   4.118
93959W        W58944  17.347  32.660   1.662
93960W        W58945  17.092  26.445  13.433
93961W        W58946  37.212  15.319   2.634
93962W        W58947  24.299   1.417  12.736
93963W        W58948  29.618  28.406  12.662
93964W        W58949  15.165  28.506  13.337
93965W        W58950   0.716  35.062  14.399
93966W        W58951   0.472  22.945   0.663
93967W        W58952  20.522  43.058   4.437
93968W        W58953  37.791   6.371   2.403
93969W        W58954  22.637   1.424   0.794
93970W        W58955  21.730  20.041  10.738
93971W        W58956  30.129  12.703   3.780
93972W        W58957  27.470  23.315   1.917
93973W        W58958   2.657  10.684  13.949
93974W        W58959  11.387  44.709  14.304
93975W        W58960   1.452   6.867   4.312
93976W        W58961  21.579  35.446  14.680
93977W        W58962   2.812   8.675   1.378
93978W        W58963  14.606  35.393  11.607
93979W        W58964  23.755   6.552   2.398
93980W        W58965  36.106   8.386   3.622
93981W        W58966  34.363  28.499  11.955
93982W        W58967  15.342  30.889  13.358
93983W        W58968  18.658  24.028   2.157
93984W        W58969  20.088   6.966   2.819
93985W        W58970   5.599  39.851   3.719
93986W        W58971  11.376  13.220  10.737
93987W        W58972  18.467  34.810  14.932
93988W        W58973  34.649   6.721  10.619
93989W        W58974   0.974  20.682  11.333
93990W        W58975  36.204   9.723   4.498
93991W        W58976  14.285  31.285  11.031
93992W        W58977  12.391  19.525  13.528
93993W        W58978  21.909  20.596   4.542
93994W        W58979   1.705  19.500  13.344
93995W        W58980  23.310   9.258   1.158
93996W        W58981  31.214  15.745   3.172
93997W        W58982  23.974  24.601  12.497
93998W        W58983  10.211  21.196  13.833
93999W        W58984  19.593   7.835  10.579
94000W        W58985  20.686  15.543   4.464
94001W        W58986  32.436  41.921   5.039
94002W        W58987  31.588   4.324   0.052
94003W        W58988  44.159  39.799   1.933
94004W        W58989  29.055  28.242  12.470
94005W        W58990  35.168  38.109   3.292
94006W        W58991  35.919   4.714  14.860
94007W        W58992   8.839  37.055   1.788
94008W        W58993  41.899  27.176  14.832
94009W        W58994  28.122  30.990  13.160
94010W        W58995  12.776  31.597   4.296
94011W        W58996  29.601  34.973   0.196
94012W        W58997  13.892  23.458  11.168
94013W        W58998  36.092  40.041   3.015
94014W        W58999  17.389  16.675  14.826
94015W        W59000  16.735  25.633   1.701
94016W        W59001  24.955   6.423  10.736
94017W        W59002  12.359  41.793  14.392
94018W        W59003  19.803  28.368   2.751
94019W        W59004  24.215  44.344   1.915
94020W        W59005  33.520  41.027   1.316
94021W        W59006  38.982  12.083  11.543
94022W        W59007  18.041  43.244  11.054
94023W        W59008  27.592  18.865  13.611
94024W        W59009  14.292   5.710   1.209
94025W        W59010   9.932   3.972  11.936
94026W        W59011  13.188  12.631   9.878
94027W        W59012  20.096  34.944  10.459
94028W        W59013  38.071  29.797   1.888
94029W        W59014  21.314  23.325  13.017
94030W        W59015  34.133   7.960  12.554
94031W        W59016  38.443  17.653  11.227
94032W        W59017  43.464   9.185   2.123
94033W        W59018  17.521  39.767  13.963
94034W        W59019  28.659  41.980  12.791
94035W        W59020  41.823  13.222   0.899
94036W        W59021  27.845  14.174   4.079
94037W        W59022  27.944  44.922   2.201
94038W        W59023  41.512   2.889   2.361
94039W        W59024   6.608   9.414  13.680
94040W        W59025  13.192  32.797   4.694
94041W        W59026  18.697   2.708   2.863
94042W        W59027  43.733   3.686  13.355
94043W        W59028  22.486  38.942  14.836
94044W        W59029  15.537  30.044  12.592
94045W        W59030  34.684  36.446  12.988
94046W        W59031   8.175   4.092  13.029
94047W        W59032  41.674  44.325   0.874
94048W        W59033  31.162  12.560  14.298
94049W        W59034  22.769  24.138  10.669
94050W        W59035   3.871   9.755  11.668
94051W        W59036  44.061  19.845   1.654
94052W        W59037   1.624  20.694  11.084
94053W        W59038  27.613   5.149   3.657
94054W        W59039   9.648  12.605  14.882
94055W        W59040  25.217  39.056  14.965
94056W        W59041   2.719   5.032  12.980
94057W        W59042  14.744  43.383  10.281
94058W        W59043  36.097  10.310   0.169
94059W        W59044  25.847   9.919   0.851
94060W        W59045   6.061  34.730  13.728
94061W        W59046  12.612  40.704   2.711
94062W        W59047  33.971  10.808  12.382
94063W        W59048   4.791  19.124  12.944
94064W        W59049  37.253  42.255   4.134
94065W        W59050  19.253  20.234  12.090
94066W        W59051   2.235  15.259  11.493
94067W        W59052  11.548  33.822  12.004
94068W        W59053  16.761  32.882   4.599
94069W        W59054  24.160   9.283  10.725
94070W        W59055   8.232  12.063  11.126
94071W        W59056   9.276  23.420  12.530
94072W        W59057   9.606  40.805   3.018
94073W        W59058  13.831  42.425   4.731
94074W        W59059  27.195  14.771  12.999
94075W        W59060   0.467  20.745   2.933
94076W        W59061  15.641  17.051   2.942
94077W        W59062  18.769   5.275   0.714
94078W        W59063  11.672  19.216   2.209
94079W        W59064   1.475   1.354   4.637
94080W        W59065   1.899   5.510   3.758
94081W        W59066  26.925  33.188  14.423
94082W        W59067   2.781  34.802  12.477
94083W        W59068  25.234  35.893  10.330
94084W        W59069  18.655  21.020   2.559
94085W        W59070  24.057   9.158  12.148
94086W        W59071  39.498  38.331   4.132
94087W        W59072  20.745  31.517  11.630
94088W        W59073  42.310   8.965  10.385
94089W        W59074  25.733  12.471   2.894
94090W        W59075  37.034  11.458   3.665
94091W        W59076  25.134  39.846  13.545
94092W        W59077  36.441  22.299  13.074
94093W        W59078   8.927   4.573   2.309
94094W        W59079  20.275   3.753  13.820
94095W        W59080  13.692  32.935   0.834
94096W        W59081   1.279  35.138   0.237
94097W        W59082   8.679   9.922  14.352
94098W        W59083  33.278  39.552   1.675
94099W        W59084  21.630  32.567   2.988
94100W        W59085  37.017  20.822  10.645
94101W        W59086  11.298  41.395  14.210
94102W        W59087  37.851  35.546  12.535
94103W        W59088   5.142  32.651   4.606
94104W        W59089  27.362   0.607  12.998
94105W        W59090  26.476  13.146  11.035
94106W        W59091  11.678  13.758  10.930
94107W        W59092  28.895  24.772  12.774
94108W        W59093  38.887  39.607   2.346
94109W        W59094  13.081  22.540  10.494
94110W        W59095  19.327  21.275  14.832
94111W        W59096   1.700   9.234  12.790
94112W        W59097  28.077   6.145  10.593
94113W        W59098  24.464   8.680   3.611
94114W        W59099  18.363  15.704   2.262
94115W        W59100  34.683  24.788  13.522
94116W        W59101  32.657  21.686   3.235
94117W        W59102   1.996  12.336  10.569
94118W        W59103  12.306  17.220   0.226
94119W        W59104  39.028  29.456  12.995
94120W        W59105  41.463  11.760   3.335
94121W        W59106  40.719   1.752  14.368
94122W        W59107  14.405  15.459  13.421
94123W        W59108   1.362  25.726   1.686
94124W        W59109  39.555  30.686   1.584
94125W        W59110  11.045  31.430  11.449
94126W        W59111   4.946   5.257  13.379
94127W        W59112  13.156  32.458  12.413
94128W        W59113   8.726   9.628  13.515
94129W        W59114   2.902   2.518   2.777
94130W        W59115  22.243  38.401  14.776
94131W        W59116   3.643   7.663  12.023
94132W        W59117  16.573  37.059   0.759
94133W        W59118  29.164  17.671  12.631
94134W        W59119  29.042  27.929   2.130
94135W        W59120  27.015  11.948  14.790
94136W        W59121  12.215  24.024   3.250
94137W        W59122  33.543  14.594  10.487
94138W        W59123   0.192   2.349  14.208
94139W        W59124  13.048  31.142   4.104
94140W        W59125   2.110  42.156   2.299
94141W        W59126  32.133  38.976  11.967
94142W        W59127  21.044   6.268  13.001
94143W        W59128  39.431   8.785   4.563
94144W        W59129   1.721  41.016  12.180
94145W        W59130  43.978  29.122   3.687
94146W        W59131  41.265   8.131   3.323
94147W        W59132  26.185  19.486   4.129
94148W        W59133   3.013   8.910   5.123
94149W        W59134  12.837   2.912   0.565
94150W        W59135   3.035  18.188   0.054
94151W        W59136  35.369  36.093  11.247
94152W        W59137  40.344  35.786  14.313
94153W        W59138  25.627  11.866   3.947
94154W        W59139   0.619   8.984   3.279
94155W        W59140   1.562  42.766  13.490
94156W        W59141  34.468   1.508   4.513
94157W        W59142  13.160  22.791  10.925
94158W        W59143  16.871  15.305   3.035
94159W        W59144  31.488  32.827  11.924
94160W        W59145  21.489  28.085  13.096
94161W        W59146   0.302  41.391   0.912
94162W        W59147  38.460  23.131   4.312
94163W        W59148   7.493   1.410   4.496
94164W        W59149   8.340   2.871  14.478
94165W        W59150  42.047   6.762   0.831
94166W        W59151  30.262   4.403   0.911
94167W        W59152  40.015  37.724  13.493
94168W        W59153   0.349  32.958  13.005
94169W        W59154  13.833   9.861  14.958
94170W        W59155  15.724  44.327   4.174
94171W        W59156  44.524   6.498   2.407
94172W        W59157   6.995   8.179  10.774
94173W        W59158  33.150  42.241   4.603
94174W        W59159  40.068   6.091  12.516
94175W        W59160  14.374  29.506  11.062
94176W        W59161  26.278  26.138   2.764
94177W        W59162  13.633  15.509  11.075
94178W        W59163  24.339  20.810   1.408
94179W        W59164  41.759  26.021   0.835
94180W        W59165  35.435   2.572   1.159
94181W        W59166  24.976  11.692   0.412
94182W        W59167  25.910  29.929  12.124
94183W        W59168  35.034  14.722  13.319
94184W        W59169  13.246  14.826  14.359
94185W        W59170  14.763  42.298   0.881
94186W        W59171  20.677  36.534   5.123
94187W        W59172  31.609   4.705   0.980
94188W        W59173  38.320  35.688  13.045
94189W        W59174   4.799  13.859   4.883
94190W        W59175  22.828  29.715   0.950
94191W        W59176   3.874   1.000   3.931
94192W        W59177  22.229   3.250   0.887
94193W        W59178   9.868  35.893  14.020
94194W        W59179  37.452  38.897   0.697
94195W        W59180   8.836  39.588  14.876
94196W        W59181  42.776  30.226   9.862
94197W        W59182   4.253  17.799   1.342
94198W        W59183  20.624  16.263  14.083
94199W        W59184  39.358   3.719   4.648
94200W        W59185  14.310  28.609   3.349
94201W        W59186  26.951  13.251   0.800
94202W        W59187  12.095  44.819  11.230
94203W        W59188   0.957  12.620   1.384
94204W        W59189  25.944  16.825   1.754
94205W        W59190  43.440  40.816   1.058
94206W        W59191  16.418  27.737  11.244
94207W        W59192  20.394  17.797  14.815
94208W        W59193  42.211  30.678   4.201
94209W        W59194  34.680  38.109   3.156
94210W        W59195   7.808  14.654   4.524
94211W        W59196  36.460  35.349   0.455
94212W        W59197  26.749  34.883   1.958
94213W        W59198  43.234  27.524   2.860
94214W        W59199   8.148  23.995  12.369
94215W        W59200  36.697  14.155  11.935
94216W        W59201  23.591  29.478  14.048
94217W        W59202  41.475  20.769   1.694
94218W        W59203  37.444  17.016  10.334
94219W        W59204  15.628  21.619   0.722
94220W        W59205   8.638  22.136  12.563
94221W        W59206   4.143  15.401   1.291
94222W        W59207   4.479  39.410   4.663
94223W        W59208  23.740  18.161  12.844
94224W        W59209   6.482   5.947  11.665
94225W        W59210   4.143   2.208   0.685
94226W        W59211  35.548  24.666   3.503
94227W        W59212   4.673  15.601   4.961
94228W        W59213  20.211  28.406   3.223
94229W        W59214   4.305  18.547  13.480
94230W        W59215  30.955  14.159   1.353
94231W        W59216  32.172  36.922   0.967
94232W        W59217  25.046  43.053  11.998
94233W        W59218  43.358  29.323   1.871
94234W        W59219  24.781   9.359  13.562
94235W        W59220  16.601  38.835  13.433
94236W        W59221  31.076  29.425  14.284
94237W        W59222  23.560  28.532  10.640
94238W        W59223  22.888  19.906   5.073
94239W        W59224   8.406  15.051   0.414
94240W        W59225  38.126  30.765   0.373
94241W        W59226  33.079   9.425  12.090
94242W        W59227   6.772   9.628  11.213
94243W        W59228   9.747   4.211   0.874
94244W        W59229  19.024   9.312  10.716
94245W        W59230  33.987   0.680  12.481
94246W        W59231  33.809  26.924  11.768
94247W        W59232   3.974  11.412  14.952
94248W        W59233  15.928  41.880   0.502
94249W        W59234  16.556   6.723  12.927
94250W        W59235  41.516  37.918  13.350
94251W        W59236  27.017  32.298  13.100
94252W        W59237  25.567  38.228  13.904
94253W        W59238  38.506  12.526  13.985
94254W        W59239   0.957  38.823   0.866
94255W        W59240  24.933  21.768   1.179
94256W        W59241   6.693  21.942   0.382
94257W        W59242  19.773  44.685  14.848
94258W        W59243  22.930  12.052   0.983
94259W        W59244   1.916  31.056   3.864
94260W        W59245  26.929   0.795  12.810
94261W        W59246  41.132  24.829   0.903
94262W        W59247  27.441  38.555  11.025
94263W        W59248   3.874   3.451  13.758
94264W        W59249  19.642  14.701   4.184
94265W        W59250   1.324  42.217   2.877
94266W        W59251  15.843  10.144  13.357
94267W        W59252  10.408  14.780  13.414
94268W        W59253  36.513   9.285  12.657
94269W        W59254  30.675  33.099   1.788
94270W        W59255  26.440  35.884  14.288
94271W        W59256  25.673  39.219  13.189
94272W        W59257  38.348  15.518   2.385
94273W        W59258  40.067  34.301   3.580
94274W        W59259   8.743  30.998  13.332
94275W        W59260  11.886  34.389  13.442
94276W        W59261  30.910  29.659   1.938
94277W        W59262  20.740  23.213   4.055
94278W        W59263  21.278   7.739   4.967
94279W        W59264  28.964   0.405   1.419
94280W        W59265  11.376  36.784  13.373
94281W        W59266  18.463  17.642  12.023
94282W        W59267   0.204  17.115  12.016
94283W        W59268  13.815  28.567   3.177
94284W        W59269  26.687  19.458  12.672
94285W        W59270  31.467  25.446  14.319
94286W        W59271   3.277  33.552   0.482
94287W        W59272  33.544   2.031  13.874
94288W        W59273  10.624  23.095   4.924
94289W        W59274  17.989  42.175  14.328
94290W        W59275  13.182  39.019  11.158
94291W        W59276  13.718  17.999   1.863
94292W        W59277  14.713   9.559  14.502
94293W        W59278  22.751  14.283  12.817
94294W        W59279   9.626  23.574   1.279
94295W        W59280  29.150  11.676  12.846
94296W        W59281   1.454  25.102  14.023
94297W        W59282  40.283  14.180   0.895
94298W        W59283  19.116  42.361   2.217
94299W        W59284  26.108   4.356  14.170
94300W        W59285   4.830  17.108  11.052
94301W        W59286   8.710   7.944  10.784
94302W        W59287  42.540  38.989  12.377
94303W        W59288  42.394  10.240   3.582
94304W        W59289  19.777  21.496   5.256
94305W        W59290  20.965  32.659   4.509
94306W        W59291  28.523  10.136   4.098
94307W        W59292  39.623  18.815   2.066
94308W        W59293   3.453  35.187  13.781
94309W        W59294  34.863  12.867  13.883
94310W        W59295  37.876  36.645  12.143
94311W        W59296  35.377  22.339   0.529
94312W        W59297   0.423  15.774  10.656
94313W        W59298  41.703  12.731   0.775
94314W        W59299   1.873  19.774  12.900
94315W        W59300  38.016   8.616   4.126
94316W        W59301  42.078  35.606   0.204
94317W        W59302   1.489  14.345  13.530
94318W        W59303  36.639  20.107   2.196
94319W        W59304  15.756  32.361   0.400
94320W        W59305  42.399  26.017   3.053
94321W        W59306  29.670  26.256   1.215
94322W        W59307  37.712  33.007  10.948
94323W        W59308  40.371  21.170   5.314
94324W        W59309  34.603  33.540  14.309
94325W        W59310  39.720   3.144   4.039
94326W        W59311  10.889  28.625   2.985
94327W        W59312  33.011  29.398  12.940
94328W        W59313  15.820  35.418   2.840
94329W        W59314  42.953  36.973  10.562
94330W        W59315   1.945   7.492  12.483
94331W        W59316  15.654  23.393  12.354
94332W        W59317   4.499   1.972  11.270
94333W        W59318  17.586  22.573   4.033
94334W        W59319  18.981  18.641  12.806
94335W        W59320  22.248  26.125   3.701
94336W        W59321   5.875  26.767   0.306
94337W        W59322  23.594  22.276   3.988
94338W        W59323  34.157  10.436   4.953
94339W        W59324  38.449  18.510   5.131
94340W        W59325   4.859  19.820   1.761
94341W        W59326  19.629  38.035  14.072
94342W        W59327   2.401  19.455   1.696
94343W        W59328   7.477   1.994   1.758
94344W        W59329  33.052  18.271   4.153
94345W        W59330  41.925   3.372   1.638
94346W        W59331  26.072   4.367  14.710
94347W        W59332  39.119  26.962   2.173
94348W        W59333  35.689  32.441   3.974
94349W        W59334  43.983  28.016   1.946
94350W        W59335  15.855  21.136  12.157
94351W        W59336   4.111  34.289  12.384
94352W        W59337  14.609  15.136   4.059
94353W        W59338  34.918  38.844  13.439
94354W        W59339  26.946   3.911  11.982
94355W        W59340  40.314  17.816   1.781
94356W        W59341   7.396  23.215  13.853
94357W        W59342  36.063  34.968  14.122
94358W        W59343   5.466   0.016   1.393
94359W        W59344  15.579   2.892  10.702
94360W        W59345  25.562   3.985   4.106
94361W        W59346  30.460   4.753  12.992
94362W        W59347  15.802  25.015   0.224
94363W        W59348  24.586  18.296  14.446
94364W        W59349  18.712   1.370   1.011
94365W        W59350  35.815  18.329   3.877
94366W        W59351  34.310  14.655   2.672
94367W        W59352  13.152  29.056   1.989
94368W        W59353  41.623   8.873  13.534
94369W        W59354  30.365  13.808  10.769
94370W        W59355  21.406  27.042  14.055
94371W        W59356  26.197   7.204   1.677
94372W        W59357  40.721  31.965  11.733
94373W        W59358  41.753  30.373  12.422
94374W        W59359  24.276  44.009   1.385
94375W        W59360  36.444  23.021   1.877
94376W        W59361  31.159  20.677  14.053
94377W        W59362  31.120  41.528  10.982
94378W        W59363  13.692  37.622  13.423
94379W        W59364  38.543  16.869   4.241
94380W        W59365   4.356  27.916  14.452
94381W        W59366   4.599   3.250   1.412
94382W        W59367  20.790  36.939   1.987
94383W        W59368  21.265  22.690  13.801
94384W        W59369  24.524  42.821  11.144
94385W        W59370  40.740  40.001   1.831
94386W        W59371  21.659   5.145   3.057
94387W        W59372   5.037  11.571  12.037
94388W        W59373   8.872  22.624  14.881
94389W        W59374  42.136  23.108   5.457
94390W        W59375   7.891  21.004  11.725
94391W        W59376   0.361  38.270  11.712
94392W        W59377  38.326  37.900   1.967
94393W        W59378   1.752  25.375  11.301
94394W        W59379  14.293   4.521   2.892
94395W        W59380  32.126  27.084  14.805
94396W        W59381  20.146  29.458  10.510
94397W        W59382  22.152  12.110  11.621
94398W        W59383  42.946  38.064   3.677
94399W        W59384   3.485  41.446  13.951
94400W        W59385  28.004  25.004  12.710
94401W        W59386  42.757   5.887   4.472
94402W        W59387  17.585  35.017  10.607
94403W        W59388  38.276  23.268  12.093
94404W        W59389  26.089  25.988  13.834
94405W        W59390  42.905   8.251  11.220
94406W        W59391  41.728  36.016  11.666
94407W        W59392  39.717   3.352  14.387
94408W        W59393   0.917  41.472   3.376
94409W        W59394   0.568   2.826   3.143
94410W        W59395  39.083  24.624   2.387
94411W        W59396  19.058   5.284  14.372
94412W        W59397  44.955  10.737   0.271
94413W        W59398   7.795  21.070  13.171
94414W        W59399  44.819  19.520  14.535
94415W        W59400  43.510   1.804   1.722
94416W        W59401  24.724   2.966  14.883
94417W        W59402  38.100  24.558  13.609
94418W        W59403  38.326  34.611   0.314
94419W        W59404  44.342  36.075   1.866
94420W        W59405  41.947  16.042   4.873
94421W        W59406  40.442  24.125   0.005
94422W        W59407  44.589  25.045   0.486
94423W        W59408  28.203  36.330  10.246
94424W        W59409  32.092   1.534   2.207
94425W        W59410  18.594  27.129   5.628
94426W        W59411  28.243  30.198  12.547
94427W        W59412  39.140   8.484   2.763
94428W        W59413  34.630   9.589  14.708
94429W        W59414   4.958  38.193   0.734
94430W        W59415  12.790  42.274  12.544
94431W        W59416  43.959  44.811   3.443
94432W        W59417  39.033  39.993  13.379
94433W        W59418  41.139  34.898  11.889
94434W        W59419  29.652   8.938  10.595
94435W        W59420  32.856  17.182   2.922
94436W        W59421  28.038   8.213  14.811
94437W        W59422  23.491  18.113   9.684
94438W        W59423  21.979  38.072  11.164
94439W        W59424  41.865  36.894   5.533
94440W        W59425   5.970  33.510  11.997
94441W        W59426  31.339  20.642   4.958
94442W        W59427   5.562   5.711   0.968
94443W        W59428  15.330   9.397  11.915
94444W        W59429   4.289  24.685  14.897
94445W        W59430  22.452   8.531  13.966
94446W        W59431   5.683  16.227   0.826
94447W        W59432  14.102  16.373  11.737
94448W        W59433  41.332   5.258   2.284
94449W        W59434  20.297  37.043   4.931
94450W        W59435   2.414  11.996  10.419
94451W        W59436  25.568  27.726  14.836
94452W        W59437   1.716  39.505  14.358
94453W        W59438  42.776  11.607   4.482
94454W        W59439  26.469  13.673   2.718
94455W        W59440  27.240  34.522  13.324
94456W        W59441  38.308  38.127  11.197
94457W        W59442   8.360  11.427  12.118
94458W        W59443  27.617  42.016  11.926
94459W        W59444  11.074  44.207  12.517
94460W        W59445  14.396   6.873   2.738
94461W        W59446  37.998  11.092  11.562
94462W        W59447  21.645  18.012   2.808
94463W        W59448  16.549  36.068   2.391
94464W        W59449  23.264  35.726   1.903
94465W        W59450  20.146  24.652  11.643
94466W        W59451  15.957  33.229  13.778
94467W        W59452  35.034  38.616   3.208
94468W        W59453  14.183   2.726  13.779
94469W        W59454  31.661  30.506  11.614
94470W        W59455  42.746  36.942   1.306
94471W        W59456  21.801  31.732  10.440
94472W        W59457   8.651   7.869   2.663
94473W        W59458  30.164  12.271   2.705
94474W        W59459  31.526  42.034  14.356
94475W        W59460   3.667  29.406   2.858
94476W        W59461  44.339  33.733   2.694
94477W        W59462  39.352  14.277  10.718
94478W        W59463  20.101  41.238  12.162
94479W        W59464  11.163   1.500  14.906
94480W        W59465  38.344  34.574  11.520
94481W        W59466  44.874  18.361   4.410
94482W        W59467  38.108  34.121  13.316
94483W        W59468  10.250  32.309  14.050
94484W        W59469   9.529  43.606  12.520
94485W        W59470  41.958  36.988   3.174
94486W        W59471  32.035  37.996  12.098
94487W        W59472  10.886  18.477  13.736
94488W        W59473  33.998   1.196  14.916
94489W        W59474   3.389  15.753  12.851
94490W        W59475   5.317  36.386  11.401
94491W        W59476  17.368  15.897   4.502
94492W        W59477   4.766  12.355   3.221
94493W        W59478   9.765  36.958  11.484
94494W        W59479   1.271  35.348   4.247
94495W        W59480  12.313  29.503   1.309
94496W        W59481  11.729  15.502   4.196
94497W        W59482  10.170  15.598  11.467
94498W        W59483  31.956  22.661  13.774
94499W        W59484   0.681  11.408   0.920
94500W        W59485  24.074  29.428   3.132
94501W        W59486  31.476  15.417   0.884
94502W        W59487  41.051  16.807  13.749
94503W        W59488  22.587  20.746   4.072
94504W        W59489  17.137   4.235  13.370
94505W        W59490  28.554  14.646  13.835
94506W        W59491  11.989  33.102  14.893
94507W        W59492  41.867   8.455  11.671
94508W        W59493  20.743  27.087   1.452
94509W        W59494  32.001  28.553  12.168
94510W        W59495  12.757  14.704   0.746
94511W        W59496  35.567  34.550  12.534
94512W        W59497  11.013  39.161   0.974
94513W        W59498  29.896   1.348   0.488
94514W        W59499  10.454  40.319   1.640
94515W        W59500  27.883  18.161  14.407
94516W        W59501  40.401  18.832  11.564
94517W        W59502  41.360  36.283  12.493
94518W        W59503   8.155  39.511  10.612
94519W        W59504   2.446  26.783  11.601
94520W        W59505  39.470  15.518   3.238
94521W        W59506  28.053  44.925   0.672
94522W        W59507  29.376  39.327   1.201
94523W        W59508  27.307   1.879  11.276
94524W        W59509   7.664   0.291   1.648
94525W        W59510  41.714  23.589  13.969
94526W        W59511  33.752  22.609  10.228
94527W        W59512   8.255  19.305   2.572
94528W        W59513  34.135  39.863   2.764
94529W        W59514  44.545   6.214  13.588
94530W        W59515  18.219   1.311   1.194
94531W        W59516   6.579   2.347   3.248
94532W        W59517  44.227  30.079  12.735
94533W        W59518  10.706  38.742  13.897
94534W        W59519  30.353   9.937   3.366
94535W        W59520   8.630  36.842   0.023
94536W        W59521  26.173  40.516   3.539
94537W        W59522   2.642   4.918   3.863
94538W        W59523  14.443  31.356  10.195
94539W        W59524  28.731   6.388  13.306
94540W        W59525  16.789  10.212  10.458
94541W        W59526  32.324  16.636   3.017
94542W        W59527  25.715  34.563  11.468
94543W        W59528  40.346  42.489   0.766
94544W        W59529   2.462  39.543  14.725
94545W        W59530  22.207  38.650   4.175
94546W        W59531  12.284  23.255   1.667
94547W        W59532  21.611   4.708  13.556
94548W        W59533   1.911  34.617  12.910
94549W        W59534  35.651  35.644  11.123
94550W        W59535  29.539  23.222  11.218
94551W        W59536  26.203   5.003   2.700
94552W        W59537   6.948   0.529   4.217
94553W        W59538  34.463  32.646   3.940
94554W        W59539  40.540  11.065  11.944
94555W        W59540   6.254  40.504  13.501
94556W        W59541   8.160   2.136   4.241
94557W        W59542  33.182  13.136  14.846
94558W        W59543  32.799   5.028  14.399
94559W        W59544  18.065  10.237   1.059
94560W        W59545  39.516  10.135   1.684
94561W        W59546  40.283   8.118  11.143
94562W        W59547  42.424  24.584  10.776
94563W        W59548   6.017  29.943  14.621
94564W        W59549  12.739  38.031   1.423
94565W        W59550  44.404  15.916   0.551
94566W        W59551  10.680  39.645  14.930
94567W        W59552  34.953   7.260  12.192
94568W        W59553  33.988  19.043   0.821
94569W        W59554  14.878   3.825  11.057
94570W        W59555  44.352  43.077  10.622
94571W        W59556  37.066  39.869   2.801
94572W        W59557  39.365  33.415   1.035
94573W        W59558  22.528  29.922  12.953
94574W        W59559  32.650  22.705   2.066
94575W        W59560  31.366   4.185  12.321
94576W        W59561  25.211  18.755  10.685
94577W        W59562  23.142  34.697  11.402
94578W        W59563  24.049  11.876  13.563
94579W        W59564  11.586  23.030  13.478
94580W        W59565  23.762  21.955   2.759
94581W        W59566  30.707  36.866   4.305
94582W        W59567  36.787  31.083   3.627
94583W        W59568  39.354   3.113   0.261
94584W        W59569  15.373  15.081  12.857
94585W        W59570  19.912  38.139  12.533
94586W        W59571  32.447  38.291  12.534
94587W        W59572  43.460   2.217  13.515
94588W        W59573  42.433  24.743  13.251
94589W        W59574  15.279  18.216  13.908
94590W        W59575  27.387  20.231   4.904
94591W        W59576  32.518   1.871   4.843
94592W        W59577  15.276  38.330  11.059
94593W        W59578  17.216  26.268   3.346
94594W        W59579   7.831  13.724   4.590
94595W        W59580  23.338  18.580  11.391
94596W        W59581  33.580  19.399  13.602
94597W        W59582  22.918  27.525  13.406
94598W        W59583  23.191  30.522   0.416
94599W        W59584  36.777  43.305  11.385
94600W        W59585  37.205   3.901  11.616
94601W        W59586  30.151   9.842  13.933
94602W        W59587   7.264  11.328  10.528
94603W        W59588  19.141  44.079  14.271
94604W        W59589  37.554  17.219   1.840
94605W        W59590  39.821  12.213   4.076
94606W        W59591  23.033  38.848  11.541
94607W        W59592  17.189  42.003  10.797
94608W        W59593  32.035  41.313   4.592
94609W        W59594  39.758  18.036  14.727
94610W        W59595  30.967  14.517   2.282
94611W        W59596  10.159  24.642  12.410
94612W        W59597  25.666  25.242   2.213
94613W        W59598  18.537  34.572  11.195
94614W        W59599  13.380  24.602  11.042
94615W        W59600   3.954   1.127  11.597
94616W        W59601  15.842  37.779  13.032
94617W        W59602  22.782  42.926  11.875
94618W        W59603  11.649  24.438   0.186
94619W        W59604  32.627  26.722   1.145
94620W        W59605  36.521   7.391  14.017
94621W        W59606   4.961  44.343   1.322
94622W        W59607  12.133  38.050  14.050
94623W        W59608  29.530   5.702   3.591
94624W        W59609  40.232  43.400   4.342
94625W        W59610  37.892  43.915  13.088
94626W        W59611  39.020   6.936   3.078
94627W        W59612  18.279  36.806   2.854
94628W        W59613  40.341  29.433  14.444
94629W        W59614  40.155  28.626   4.998
94630W        W59615  17.485   2.178  14.326
94631W        W59616   0.267  14.536  13.046
94632W        W59617   2.796  37.870  14.402
94633W        W59618  22.758  21.187   0.400
94634W        W59619  16.771  14.184  11.637
94635W        W59620  20.969  23.313   1.375
94636W        W59621  41.493  38.438  13.135
94637W        W59622  19.050  40.758   2.526
94638W        W59623  19.800  34.103   3.656
94639W        W59624  32.576  43.340  13.355
94640W        W59625  15.049   0.076  14.791
94641W        W59626   1.191  17.048   2.398
94642W        W59627  13.181  41.483   1.904
94643W        W59628  37.776  17.891   4.160
94644W        W59629  42.529   4.294   3.593
94645W        W59630  37.617  43.024  11.695
94646W        W59631  31.571  20.474   1.756
94647W        W59632  36.140  21.712   2.198
94648W        W59633  14.390  24.874  12.982
94649W        W59634  37.517  39.160   3.599
94650W        W59635  11.299   2.069   0.763
94651W        W59636   5.934  33.999  14.196
94652W        W59637  44.400  33.685  11.387
94653W        W59638   5.978  34.053   0.186
94654W        W59639  20.271  17.615  14.339
94655W        W59640  22.387   9.189   3.928
94656W        W59641   1.284  41.485   4.642
94657W        W59642   0.345  43.656   1.323
94658W        W59643  31.804   0.760  13.233
94659W        W59644  25.206  23.125   1.330
94660W        W59645  35.060   2.921  13.152
94661W        W59646  39.916  40.061   2.608
94662W        W59647  15.061   7.336  14.446
94663W        W59648  35.303   6.511  11.536
94664W        W59649   5.556  14.892  13.268
94665W        W59650  28.820  42.326   3.174
94666W        W59651  19.151  11.253   2.684
94667W        W59652  33.936  15.367   3.078
94668W        W59653  22.856  17.654  10.737
94669W        W59654  35.332   2.099   1.347
94670W        W59655  10.268   0.531   2.378
94671W        W59656  33.882  40.482  12.073
94672W        W59657  11.723  42.709  11.726
94673W        W59658  31.013  22.630  11.411
94674W        W59659   8.326  37.447  13.034
94675W        W59660  35.133  31.866   0.820
94676W        W59661  17.291   4.449   2.689
94677W        W59662  43.750  41.263   0.846
94678W        W59663   5.429   8.188  14.551
94679W        W59664  33.562  10.300  14.756
94680W        W59665  25.007  40.011  13.054
94681W        W59666  24.386   1.821   3.396
94682W        W59667  11.290  27.321   4.532
94683W        W59668  29.442   6.631  10.751
94684W        W59669  23.070  44.381   3.542
94685W        W59670  15.692  19.677  11.132
94686W        W59671  33.059   7.839  14.486
94687W        W59672  44.035  35.333  14.548
94688W        W59673  42.810  22.582  13.582
94689W        W59674  29.521  33.847   4.120
94690W        W59675  38.402   2.638   3.190
94691W        W59676  30.559  33.541   3.000
94692W        W59677   9.548  23.611   0.715
94693W        W59678   6.944   0.053  14.151
94694W        W59679  27.676  43.053   5.014
94695W        W59680  28.725   6.668  14.749
94696W        W59681  16.613  35.174  12.731
94697W        W59682   3.601  21.685   3.397
94698W        W59683  16.778  44.724  12.416
94699W        W59684  43.000  29.656   2.819
94700W        W59685  11.730  29.754   4.040
94701W        W59686  17.329  24.921  13.195
94702W        W59687  37.578   1.564  11.715
94703W        W59688  18.046  43.802  14.011
94704W        W59689  10.526   5.799   4.555
94705W        W59690  33.582  31.246   2.455
94706W        W59691  20.240  38.497   0.647
94707W        W59692  32.884  25.565   4.167
94708W        W59693  24.664  23.653   1.193
94709W        W59694  13.662   9.109  11.424
94710W        W59695  39.062  37.535  13.061
94711W        W59696  30.814  14.237  11.580
94712W        W59697   6.913  11.886   2.213
94713W        W59698  12.693  26.437  12.611
94714W        W59699  16.515   1.538  14.159
94715W        W59700  38.080   9.162   2.326
94716W        W59701  17.664   0.079  14.889
94717W        W59702  24.656   2.432   3.371
94718W        W59703   0.937  41.568   0.519
94719W        W59704  26.007  18.393  10.527
94720W        W59705  10.884   6.708  11.850
94721W        W59706  40.909  31.208   3.118
94722W        W59707  25.195  15.216  11.979
94723W        W59708  38.644  18.147   3.073
94724W        W59709  22.519  42.539  13.986
94725W        W59710  33.421  42.576  11.161
94726W        W59711  23.919  37.413   4.244
94727W        W59712  17.045  15.043   0.058
94728W        W59713  30.364  12.387   4.180
94729W        W59714  38.151  14.504  13.534
94730W        W59715  14.671  12.289  13.525
94731W        W59716  15.133  20.115   0.207
94732W        W59717  37.921  18.634  13.433
94733W        W59718  33.541  44.066   4.479
94734W        W59719   4.219  23.996   2.252
94735W        W59720  27.933  27.484   3.844
94736W        W59721  10.447  15.785   2.764
94737W        W59722  17.433  24.274   4.148
94738W        W59723   1.444   5.993  10.695
94739W        W59724  33.466  32.369  12.361
94740W        W59725  29.808  34.647   2.811
94741W        W59726   7.221  20.678  12.113
94742W        W59727  16.814  20.013  10.599
94743W        W59728  21.785  30.450  13.553
94744W        W59729  42.805  43.772   4.217
94745W        W59730   5.879  28.255   4.605
94746W        W59731  15.713   6.191  13.393
94747W        W59732  28.461  44.925   4.586
94748W        W59733   5.179   1.987  13.551
94749W        W59734  27.994  36.639  13.058
94750W        W59735  28.748  28.946   3.304
94751W        W59736  28.198  18.186  10.845
94752W        W59737  21.524  22.045   4.015
94753W        W59738  13.911  34.112  13.588
94754W        W59739  13.159   3.192  14.379
94755W        W59740  36.886  23.213   3.564
94756W        W59741  10.244   1.050   2.400
94757W        W59742  32.164  28.119  10.728
94758W        W59743  12.047   2.473  10.691
94759W        W59744  42.372  10.151  10.554
94760W        W59745  38.999  26.324  12.805
94761W        W59746  31.828  42.766  11.535
94762W        W59747  27.463   7.985   4.702
94763W        W59748  42.727  15.352  12.596
94764W        W59749   4.838  26.423   4.917
94765W        W59750  41.315  43.533  12.923
94766W        W59751  12.639   5.072   3.189
94767W        W59752  12.495  11.833  13.374
94768W        W59753  30.877  40.707  11.747
94769W        W59754  14.135  31.512   3.657
94770W        W59755  14.123  12.953  11.206
94771W        W59756   0.412  41.873   2.772
94772W        W59757  39.283   2.007  12.045
94773W        W59758  44.334   9.358  10.412
94774W        W59759  14.931  37.538  12.399
94775W        W59760  36.970  21.728   2.696
94776W        W59761   2.237  14.387  13.003
94777W        W59762  20.486  41.796   4.508
94778W        W59763  37.697  25.734  11.454
94779W        W59764  20.606   8.609  12.368
94780W        W59765  30.412   7.887  11.262
94781W        W59766  24.029  24.333   1.770
94782W        W59767  18.335  32.921   1.790
94783W        W59768  13.802  36.661  14.460
94784W        W59769  42.073  31.511  12.889
94785W        W59770   5.622  37.559  10.591
94786W        W59771  24.965  20.865  13.600
94787W        W59772  39.449   0.973  14.507
94788W        W59773  22.626   1.113   1.204
94789W        W59774  15.398   6.693   1.803
94790W        W59775  27.966  30.207  14.949
94791W        W59776  30.107  24.455   2.308
94792W        W59777   2.161  37.052   0.692
94793W        W59778  24.492   7.226  13.266
94794W        W59779  27.442   4.823   4.839
94795W        W59780  11.305  29.208   2.254
94796W        W59781  11.702  37.170   3.620
94797W        W59782   8.163  31.964   3.111
94798W        W59783   7.646  35.272  11.944
94799W        W59784  22.965  27.988  12.111
94800W        W59785   9.586  29.611   0.381
94801W        W59786   3.061  34.998   0.372
94802W        W59787   5.169  39.065  11.738
94803W        W59788   4.957  34.608  10.169
94804W        W59789  44.335  35.323  11.258
94805W        W59790  26.469   7.673  14.525
94806W        W59791  13.594   2.310   4.134
94807W        W59792  39.966  13.350  14.309
94808W        W59793  11.062  41.464   3.591
94809W        W59794  34.340  17.695   3.379
94810W        W59795  30.733  38.755   3.201
94811W        W59796  35.214  16.251   2.665
94812W        W59797   2.190  11.879  12.484
94813W        W59798  31.174   2.534   0.877
94814W        W59799  27.968  23.905  13.806
94815W        W59800  29.990   6.313   0.177
94816W        W59801   4.904  38.759   4.696
94817W        W59802  12.145   6.397  12.029
94818W        W59803  11.327   9.858   1.833
94819W        W59804  43.285  32.643  12.915
94820W        W59805   7.994  34.830  12.916
94821W        W59806   8.659  31.408  12.011
94822W        W59807  17.362   8.654  14.320
94823W        W59808  10.365  18.170  10.333
94824W        W59809  27.595  36.645   0.818
94825W        W59810  32.925  41.211   4.570
94826W        W59811  32.883  41.926   2.267
94827W        W59812  37.520  32.883  13.622
94828W        W59813  32.331  25.712  13.393
94829W        W59814  17.503   6.268   1.494
94830W        W59815  25.934  43.645   5.356
94831W        W59816  21.207  16.337   4.482
94832W        W59817   9.938   1.409  10.714
94833W        W59818   5.798  18.380   3.831
94834W        W59819   7.724   3.732  10.570
94835W        W59820   1.802  33.636   2.717
94836W        W59821  10.488  41.041   1.095
94837W        W59822  34.853  13.725  10.811
94838W        W59823  41.262  11.209  12.425
94839W        W59824  41.575  34.208   1.128
94840W        W59825  38.460  33.974   4.540
94841W        W59826   3.025  31.063  13.348
94842W        W59827   1.283  18.309   2.766
94843W        W59828  18.076  13.740   1.827
94844W        W59829  13.706  33.654   1.893
94845W        W59830  37.641  44.271   1.416
94846W        W59831  44.403   6.284  12.604
94847W        W59832  34.740  18.045   2.280
94848W        W59833  42.985  12.070   4.642
94849W        W59834  35.975  11.283  12.143
94850W        W59835  24.578  27.052  14.971
94851W        W59836  20.083   5.822  11.076
94852W        W59837  11.116  20.095   4.654
94853W        W59838  19.032  25.151  14.863
94854W        W59839  29.441   2.803  14.270
94855W        W59840  22.585  39.718   4.868
94856W        W59841  44.957  24.722  12.415
94857W        W59842  34.434  25.208  13.317
94858W        W59843  38.052  31.383   4.114
94859W        W59844  11.193  39.415  12.404
94860W        W59845  42.078  17.874   4.451
94861W        W59846  16.754  29.746   0.406
94862W        W59847  12.105  16.801  12.861
94863W        W59848  15.912  30.882   4.667
94864W        W59849   2.269   2.717   1.932
94865W        W59850  40.033   2.980   3.652
94866W        W59851   7.985   8.022   4.243
94867W        W59852   0.836  27.347  14.717
94868W        W59853  26.447   0.031  12.375
94869W        W59854   1.374  27.729   1.187
94870W        W59855  35.477  17.803   4.114
94871W        W59856  44.538  15.880   2.788
94872W        W59857  23.466  23.155  13.314
94873W        W59858  39.499  22.527  13.822
94874W        W59859   2.016  17.820   4.108
94875W        W59860   1.852   1.191   2.197
94876W        W59861  33.241  35.560   2.323
94877W        W59862  34.849   1.559   3.334
94878W        W59863  28.461  36.406   1.183
94879W        W59864  40.265   2.624  12.645
94880W        W59865  20.242  29.191  11.466
94881W        W59866   8.066  35.007  12.010
94882W        W59867  24.648  28.681  13.048
94883W        W59868  32.075  37.337   0.692
94884W        W59869  29.415   2.437   3.170
94885W        W59870  44.772  27.004  13.851
94886W        W59871  41.089  35.712   2.194
94887W        W59872   7.753  23.666   0.013
94888W        W59873   2.807  11.175  13.038
94889W        W59874  22.029  38.559  13.398
94890W        W59875  37.936  18.009   0.769
94891W        W59876   2.334  18.186  11.256
94892W        W59877  13.414   1.150   1.863
94893W        W59878  37.385  26.161  10.593
94894W        W59879  25.185   3.553   3.656
94895W        W59880   4.436  28.118   2.076
94896W        W59881  39.773  15.418   1.310
94897W        W59882  11.372   5.902   1.429
94898W        W59883  12.152  42.941  11.404
94899W        W59884  44.695   4.156   3.579
94900W        W59885  38.310   1.687   3.561
94901W        W59886  39.794  28.166   3.083
94902W        W59887  13.048  14.243  11.957
94903W        W59888  21.742  23.490   4.489
94904W        W59889  35.912  28.922  12.986
94905W        W59890  43.721  38.972  12.943
94906W        W59891  27.996  38.396  14.907
94907W        W59892  26.078  35.101  10.698
94908W        W59893  31.544  13.173  12.917
94909W        W59894  30.629  24.100  12.804
94910W        W59895   2.253  12.388   0.268
94911W        W59896  26.055   0.880   2.460
94912W        W59897   4.169  24.414   3.359
94913W        W59898  38.021   9.677  13.326
94914W        W59899  40.803  36.903  12.092
94915W        W59900  27.121   5.704  12.505
94916W        W59901  33.284  42.015   0.866
94917W        W59902   3.478  27.209   0.805
94918W        W59903  44.809  17.863   5.295
94919W        W59904  16.277  35.373  14.817
94920W        W59905  39.288  24.539   1.462
94921W        W59906  36.514  18.595   4.376
94922W        W59907  31.585  16.723   4.663
94923W        W59908   5.987  13.264   4.050
94924W        W59909  31.054  35.708   0.968
94925W        W59910  27.042  18.553   3.145
94926W        W59911  21.840  33.633  14.718
94927W        W59912  14.470  34.698   0.783
94928W        W59913   0.060  32.189  14.188
94929W        W59914  31.592   4.012  14.199
94930W        W59915  27.146   7.146   4.675
94931W        W59916  30.313   4.824  10.649
94932W        W59917   2.511  11.649  11.212
94933W        W59918   1.210  14.807  12.873
94934W        W59919  27.923  39.456  14.921
94935W        W59920  18.248  44.994   2.215
94936W        W59921  12.008  29.478   5.046
94937W        W59922  31.408  30.952   1.187
94938W        W59923  22.018  14.552  12.371
94939W        W59924   1.731  19.518  12.448
94940W        W59925   5.159  31.377   4.063
94941W        W59926  32.941  22.069   0.464
94942W        W59927  26.456  25.629   4.143
94943W        W59928  32.426   6.605  12.035
94944W        W59929  21.212  31.685   4.565
94945W        W59930  10.837  11.592  12.974
94946W        W59931  34.878  37.572  11.536
94947W        W59932   3.350  15.867  11.829
94948W        W59933  10.828  34.494  13.370
94949W        W59934  37.675  14.743  13.423
94950W        W59935  40.965  27.333   4.311
94951W        W59936  35.035  22.965  14.084
94952W        W59937  22.892  40.515   0.679
94953W        W59938  29.185   6.442   2.063
94954W        W59939  43.087  25.738  12.826
94955W        W59940  14.156   6.739   0.454
94956W        W59941   2.943  39.779  11.643
94957W        W59942   8.265  36.882   0.382
94958W        W59943  17.580  22.468  13.223
94959W        W59944   4.860  29.423   4.633
94960W        W59945  40.176  24.143   5.330
94961W        W59946  32.756  41.255   0.873
94962W        W59947   2.875  39.406   3.671
94963W        W59948  28.116  10.300   4.357
94964W        W59949  26.686  35.827  12.885
94965W        W59950  12.804  18.051   1.694
94966W        W59951  17.809  13.202   2.793
94967W        W59952  14.345  24.003   1.449
94968W        W59953  39.336  22.469  12.543
94969W        W59954  27.417  21.677   0.018
94970W        W59955  33.411  34.836   0.816
94971W        W59956  19.768  38.654   4.230
94972W        W59957   1.202  31.663   3.250
94973W        W59958  31.452  19.653   0.286
94974W        W59959  19.188  42.031   3.676
94975W        W59960  14.532  19.107   1.847
94976W        W59961  23.422  22.779   3.109
94977W        W59962  30.932  12.366   1.867
94978W        W59963  31.969  20.794  11.977
94979W        W59964  20.938  19.392   0.333
94980W        W59965   1.910  22.903  11.946
94981W        W59966   9.867  32.345  10.392
94982W        W59967  36.261  20.232  12.057
94983W        W59968  39.831  20.701   4.664
94984W        W59969  33.368  19.570  11.635
94985W        W59970  39.069   0.535   0.723
94986W        W59971  41.519  43.665  11.987
94987W        W59972  43.240   8.839  14.228
94988W        W59973  38.603  25.511   1.368
94989W        W59974  12.004  36.892   0.898
94990W        W59975  32.914  37.879  13.369
94991W        W59976  36.976  14.731   3.592
94992W        W59977  18.373  36.009   4.778
94993W        W59978  41.587  33.452  12.861
94994W        W59979  36.085   8.459   3.095
94995W        W59980  14.137  26.492  11.961
94996W        W59981  18.344   3.127   4.211
94997W        W59982   1.412  36.743   4.625
94998W        W59983  41.433  27.735   2.803
94999W        W59984   1.321   9.204  12.366
95000W        W59985   4.398  40.981  11.525
95001W        W59986   8.159  25.184  11.084
95002W        W59987   4.620  34.836  14.284
95003W        W59988  37.125  39.014  14.340
95004W        W59989  17.656  27.303  14.350
95005W        W59990   9.576  23.585  12.928
95006W        W59991  12.797  33.431  13.140
95007W        W59992  21.441  33.728  13.466
95008W        W59993  43.420  21.782  10.228
95009W        W59994  41.828  31.887   1.269
95010W        W59995   3.027  31.558  13.043
95011W        W59996  37.843   2.386  11.266
95012W        W59997  34.965  34.202  14.820
95013W        W59998  31.417  35.340   3.758
95014W        W59999  33.381  27.508   4.634
95015W        W60000   8.033  29.651   3.413
95016W        W60001  25.128  29.450  11.610
95017W        W60002  43.310  33.249   5.292
95018W        W60003  25.798   6.664  12.403
95019W        W60004   0.920  11.741   0.530
95020W        W60005  38.559  37.307  11.665
95021W        W60006  10.608  35.068  10.612
95022W        W60007  18.712  31.653  14.116
95023W        W60008   2.114  14.896  13.262
95024W        W60009  24.418  25.194  11.676
95025W        W60010  16.809  22.473   2.848
95026W        W60011  32.678  20.070   2.377
95027W        W60012  43.541   3.253   3.536
95028W        W60013  32.914   6.929  14.705
95029W        W60014   6.266  12.829  13.515
95030W        W60015  44.807  26.253  11.046
95031W        W60016  34.602  21.718  11.194
95032W        W60017  23.453   3.623   5.009
95033W        W60018  28.467  13.761   1.874
95034W        W60019  24.032  29.606  13.320
95035W        W60020  35.485  42.602  13.294
95036W        W60021  18.601   1.914   3.701
95037W        W60022  31.062  17.321  12.299
95038W        W60023  26.281   3.259  14.314
95039W        W60024   1.944   6.827  13.774
95040W        W60025  15.221  14.220  14.271
95041W        W60026   8.231  30.559  10.937
95042W        W60027  39.295  14.481   3.203
95043W        W60028  44.754  16.342   2.739
95044W        W60029  13.675   5.490   4.766
95045W        W60030  13.198  20.754   1.415
95046W        W60031   5.329  41.391   0.129
95047W        W60032  22.377  39.130   4.152
95048W        W60033  15.847  35.884   0.437
95049W        W60034  12.235  39.395   3.195
95050W        W60035  11.445  21.301  10.029
95051W        W60036  42.889  19.613   0.502
95052W        W60037  28.888  22.802   0.303
95053W        W60038  36.881  18.846   2.454
95054W        W60039  16.276  25.937  11.630
95055W        W60040   3.728  20.706   4.721
95056W        W60041  40.691  43.223   1.388
95057W        W60042  36.585  11.720   4.522
95058W        W60043  41.611  25.646   0.486
95059W        W60044   5.688  37.336  13.881
95060W        W60045  35.984  26.385   2.592
95061W        W60046   9.440  43.854  10.684
95062W        W60047  24.605  13.672  11.541
95063W        W60048  23.169  12.668  13.122
95064W        W60049  12.868  44.114  12.000
95065W        W60050  11.181   1.070   1.875
95066W        W60051  29.137  28.406   2.399
95067W        W60052  28.947  37.691   3.745
95068W        W60053   6.525  10.579  11.640
95069W        W60054  27.275  26.133  12.445
95070W        W60055  44.968  26.029   9.536
95071W        W60056  19.980  13.741  12.511
95072W        W60057  16.029  19.593   1.149
95073W        W60058  20.653  44.070  11.119
95074W        W60059  14.188  35.401   4.426
95075W        W60060  40.273  14.874   3.243
95076W        W60061   9.830  21.089  13.470
95077W        W60062  34.547  28.885  13.027
95078W        W60063  34.010  16.469   1.312
95079W        W60064  15.076  35.289  14.416
95080W        W60065  20.460   6.452   2.360
95081W        W60066  25.518   0.497   3.726
95082W        W60067  17.199   5.541  12.135
95083W        W60068  21.598   6.655  10.666
95084W        W60069   3.262  15.530  13.299
95085W        W60070  30.321   0.817  12.863
95086W        W60071  37.916   5.670   4.547
95087W        W60072  36.539   3.861   2.819
95088W        W60073   8.594  27.856   4.023
95089W        W60074  32.566  36.986   3.415
95090W        W60075  32.063   4.544  14.901
95091W        W60076   8.928  18.729   4.584
95092W        W60077  12.913   6.310  11.566
95093W        W60078  36.516  36.687   2.619
95094W        W60079  24.275  44.935  11.602
95095W        W60080  19.232  15.271   2.343
95096W        W60081  10.418  17.765  11.195
95097W        W60082  44.579  38.920   4.005
95098W        W60083   2.739   4.462   0.978
95099W        W60084  28.370   9.178  13.932
95100W        W60085   6.606  21.020  11.229
95101W        W60086  13.187   5.003   3.058
95102W        W60087   8.231  11.080  10.478
95103W        W60088  29.960   3.606  13.486
95104W        W60089   7.342   0.415   3.195
95105W        W60090  25.240  27.706  13.873
95106W        W60091  24.108  27.921   0.462
95107W        W60092  15.792  41.717   4.538
95108W        W60093  23.716  12.303  11.941
95109W        W60094  28.859  31.977  11.397
95110W        W60095  13.082  14.553  10.573
95111W        W60096  42.609   9.374  14.878
95112W        W60097  26.150  43.292  13.014
95113W        W60098  28.634   4.768  12.602
95114W        W60099  31.993   3.025   1.387
95115W        W60100   3.243  37.846   1.364
95116W        W60101  15.327  31.516   0.832
95117W        W60102  17.298  38.955  12.266
95118W        W60103  17.253  42.795  11.479
95119W        W60104   3.900  24.627   0.494
95120W        W60105  42.973   2.902  10.755
95121W        W60106  23.626  34.970   1.778
95122W        W60107  34.583  26.612  13.610
95123W        W60108  35.803   9.914  13.827
95124W        W60109   7.450   5.730   1.343
95125W        W60110  38.407  16.631  10.453
95126W        W60111  15.629   2.734  11.959
95127W        W60112   5.768  24.009  10.466
95128W        W60113  41.281   6.782   2.186
95129W        W60114  33.191   3.303  10.913
95130W        W60115  40.975  32.560   0.408
95131W        W60116  43.485  29.889   2.868
95132W        W60117  34.511   6.352  13.814
95133W        W60118  18.291  37.497   4.559
95134W        W60119  39.746  14.053   1.473
95135W        W60120  40.449  23.084   0.901
95136W        W60121  29.499  18.639   0.923
95137W        W60122  29.142   5.400   4.722
95138W        W60123  22.774  33.627  10.673
95139W        W60124   4.625   1.686  11.671
95140W        W60125  27.934  39.257   2.848
95141W        W60126  12.328  44.278  14.447
95142W        W60127   8.270  25.124   1.913
95143W        W60128   5.599  36.472   0.245
95144W        W60129  35.812  20.851  11.556
95145W        W60130   3.933  20.629  11.581
95146W        W60131  44.199  17.167   2.999
95147W        W60132  12.180   1.160  11.217
95148W        W60133  42.128  23.472  14.422
95149W        W60134  24.275  32.760  12.368
95150W        W60135   3.871   6.695   2.707
95151W        W60136   9.597   4.471  10.450
95152W        W60137  19.114  20.768  13.074
95153W        W60138  43.617  41.590   4.068
95154W        W60139  19.320  23.318   3.711
95155W        W60140  10.748  11.859   4.604
95156W        W60141  24.385   5.430  12.464
95157W        W60142  14.570  28.503  12.127
95158W        W60143   0.649  40.540  13.536
95159W        W60144  29.661   7.831   1.370
95160W        W60145   1.305  22.000  13.039
95161W        W60146   6.460  36.109   1.547
95162W        W60147  34.536  16.637  12.700
95163W        W60148  38.903   3.289  14.943
95164W        W60149  23.189  31.477   1.916
95165W        W60150  18.427  22.459   0.271
95166W        W60151  37.278  28.130   0.532
95167W        W60152   7.767   1.989  12.634
95168W        W60153  34.968  22.641   2.805
95169W        W60154  24.754  11.782   4.657
95170W        W60155  33.426  40.863   0.343
95171W        W60156  16.639   9.461   0.232
95172W        W60157   3.394  29.888   1.755
95173W        W60158  22.014  25.441   4.632
95174W        W60159  39.228  32.554   0.032
95175W        W60160   7.963  41.863   0.945
95176W        W60161   6.154  14.602   0.945
95177W        W60162  41.712   4.770  10.314
95178W        W60163  17.350  42.920   1.763
95179W        W60164  34.026  21.099  11.965
95180W        W60165  34.353   7.776   2.129
95181W        W60166  21.683  23.470   1.559
95182W        W60167  25.567  15.730  13.524
95183W        W60168  10.460  27.659  11.889
95184W        W60169  34.923  21.164  13.860
95185W        W60170   6.544  14.970   0.885
95186W        W60171  29.500  41.396   3.841
95187W        W60172   7.905  10.731  11.371
95188W        W60173  23.519  43.942  14.457
95189W        W60174  37.006  12.100   0.309
95190W        W60175  23.184  42.520  11.930
95191W        W60176  18.706  34.550   4.660
95192W        W60177  36.967  13.197  11.606
95193W        W60178  42.520  37.390  12.983
95194W        W60179  32.060  28.147  13.297
95195W        W60180  43.961  14.385  11.584
95196W        W60181  37.422  19.426   2.631
95197W        W60182   6.731  34.406   0.030
95198W        W60183  42.914  42.061   3.167
95199W        W60184  19.402  38.494   1.300
95200W        W60185  40.232  27.166   0.878
95201W        W60186  44.492   3.938  10.482
95202W        W60187  12.658  36.020   2.358
95203W        W60188  33.794  38.906   1.089
95204W        W60189  19.164   0.446  10.626
95205W        W60190  40.136  29.055  12.465
95206W        W60191  14.669  35.261  11.130
95207W        W60192   3.798  37.028   3.282
95208W        W60193  30.304  17.599   3.496
95209W        W60194   0.189  21.215   0.423
95210W        W60195   5.416  26.928   1.346
95211W        W60196  28.139  44.374   1.023
95212W        W60197   0.967  36.607  12.043
95213W        W60198  42.844  29.177   2.895
95214W        W60199  22.210  34.531  10.630
95215W        W60200  20.829   3.350   3.278
95216W        W60201  25.171   0.772  12.551
95217W        W60202  44.015  24.957   4.363
95218W        W60203  42.830   2.937  14.517
95219W        W60204  12.608  19.721  14.863
95220W        W60205  36.431   3.549   0.230
95221W        W60206   3.806  37.566  13.953
95222W        W60207  35.828  36.749  10.621
95223W        W60208   5.799  18.500   4.637
95224W        W60209  10.236  20.206   4.130
95225W        W60210  37.811  11.869   3.236
95226W        W60211  44.905  15.851   1.441
95227W        W60212  28.970  42.852  10.663
95228W        W60213   6.932  21.973  11.985
95229W        W60214  27.000  11.199   4.374
95230W        W60215  36.337  44.507   5.178
95231W        W60216   1.761   5.750   0.826
95232W        W60217  41.847  28.675  10.471
95233W        W60218   9.891  17.803  14.776
95234W        W60219  17.495  42.918  10.990
95235W        W60220  25.021   5.822   4.249
95236W        W60221  28.614   3.341  10.537
95237W        W60222  24.477  43.819   4.064
95238W        W60223  39.393  43.206  14.136
95239W        W60224  44.418  24.553   0.342
95240W        W60225  33.091  14.882  10.634
95241W        W60226   6.454  32.375  12.778
95242W        W60227   1.313  40.831   2.310
95243W        W60228  11.630  14.211   1.395
95244W        W60229  24.868  24.595  13.860
95245W        W60230  31.276  26.900  12.561
95246W        W60231   6.648  17.498  11.192
95247W        W60232  25.194  29.224   5.038
95248W        W60233  32.757   6.182  12.018
95249W        W60234  17.619  25.582  12.589
95250W        W60235  13.675  15.620  10.149
95251W        W60236  28.571  32.414  11.442
95252W        W60237  26.017  36.304   4.315
95253W        W60238  20.043  31.137  12.505
95254W        W60239  36.996  12.082  13.870
95255W        W60240   4.656  37.402  13.422
95256W        W60241   5.344  37.418   2.819
95257W        W60242  11.055  15.167  11.631
95258W        W60243  44.814  23.004  10.615
95259W        W60244   8.823  11.357   1.708
95260W        W60245  16.571  28.124   3.184
95261W        W60246  17.260  21.625  13.300
95262W        W60247  15.193  26.246  14.880
95263W        W60248   7.835  40.476  14.970
95264W        W60249  11.822   1.328  11.948
95265W        W60250  21.549  19.788  11.933
95266W        W60251  13.774   3.642   3.264
95267W        W60252  30.438   6.232  14.936
95268W        W60253  33.208  35.003  10.502
95269W        W60254  43.362  43.070   3.804
95270W        W60255  10.381   4.901   2.348
95271W        W60256  23.045  33.605   1.143
95272W        W60257  29.365  26.088  11.569
95273W        W60258   3.644  36.388   2.192
95274W        W60259   0.685   3.722  14.490
95275W        W60260   6.880   7.403  13.376
95276W        W60261  23.239  43.817  11.597
95277W        W60262   1.860   8.074   0.388
95278W        W60263  22.323  23.230   4.556
95279W        W60264   6.485  42.454  10.118
95280W        W60265  20.308   9.199   0.201
95281W        W60266  32.939  31.870   2.607
95282W        W60267  14.084   7.858   4.036
95283W        W60268  32.522   3.706   3.103
95284W        W60269  23.474   5.630   1.301
95285W        W60270  34.076  19.616  12.141
95286W        W60271   6.301  11.365  12.078
95287W        W60272  31.871  42.819  10.714
95288W        W60273   6.048  35.899  10.846
95289W        W60274  43.028  37.427  12.928
95290W        W60275  18.758  32.952  13.457
95291W        W60276  25.770   8.178   1.397
95292W        W60277  29.507  36.350   1.459
95293W        W60278  36.923   1.803   3.169
95294W        W60279  38.927  31.367   2.621
95295W        W60280  42.562  17.635  11.648
95296W        W60281  30.683  35.618   2.425
95297W        W60282  24.393  37.677  12.038
95298W        W60283  17.303  15.674   1.354
95299W        W60284   8.061  30.101   1.926
95300W        W60285   8.922  37.010   4.776
95301W        W60286  19.559  28.945  11.991
95302W        W60287   6.992   2.392  11.706
95303W        W60288  43.596  12.684   1.838
95304W        W60289  30.621  40.750   2.314
95305W        W60290  16.941  36.829   1.709
95306W        W60291  23.244  44.509   4.522
95307W        W60292  20.960  16.290   1.063
95308W        W60293  32.507  31.663   0.352
95309W        W60294  38.829  13.804   2.688
95310W        W60295  37.386  30.643  13.966
95311W        W60296  29.393  29.433   1.927
95312W        W60297  24.929  33.625  11.997
95313W        W60298  21.939  30.427   3.781
95314W        W60299  27.185  43.450  11.294
95315W        W60300  25.499   7.064   3.758
95316W        W60301   3.390  43.967   3.748
95317W        W60302  44.824  43.927  12.039
95318W        W60303  37.870   9.565  12.460
95319W        W60304   0.956  27.460  10.615
95320W        W60305  26.638  21.268   4.536
95321W        W60306  44.576  25.583  11.632
95322W        W60307  43.634  22.118  12.945
95323W        W60308  32.658   8.045   2.787
95324W        W60309  25.354  33.769  11.710
95325W        W60310  23.628   3.814   3.143
95326W        W60311  22.239  21.983   2.798
95327W        W60312  40.157  16.142   4.898
95328W        W60313  37.561   9.163   2.219
95329W        W60314  26.922  32.393   1.824
95330W        W60315  25.410  40.582   4.914
95331W        W60316  19.953  10.694   2.048
95332W        W60317  40.132  12.808   2.734
95333W        W60318  10.368  40.030   0.177
95334W        W60319   6.338  16.541  13.981
95335W        W60320  15.080   0.262  13.029
95336W        W60321  43.110  26.100   1.222
95337W        W60322  14.588  26.959  14.742
95338W        W60323  44.845  39.307   0.437
95339W        W60324  31.944  11.186  11.600
95340W        W60325  25.267  36.952  13.942
95341W        W60326  30.114  44.216  14.181
95342W        W60327  10.580  26.229   0.870
95343W        W60328  36.108  32.433  11.239
95344W        W60329   5.680  24.712  12.046
95345W        W60330  16.146  30.836   2.633
95346W        W60331  33.453   5.867  10.648
95347W        W60332   8.255  33.356  12.804
95348W        W60333   0.873  31.017   1.693
95349W        W60334  20.670  24.041  12.973
95350W        W60335  41.651  36.053   9.623
95351W        W60336  16.673  17.363  12.419
95352W        W60337   6.403  24.679  10.694
95353W        W60338  21.256  27.286  12.615
95354W        W60339  33.385  43.437  10.207
95355W        W60340   3.728  35.478   3.325
95356W        W60341  25.804  10.235   4.594
95357W        W60342   6.182  34.862   2.856
95358W        W60343  42.558  23.397   0.654
95359W        W60344  18.826  22.881  11.757
95360W        W60345  26.200  18.964   1.020
95361W        W60346  43.392  17.884   4.966
95362W        W60347  43.734   4.330   1.430
95363W        W60348  29.958   5.413   3.784
95364W        W60349  22.780  17.755   2.285
95365W        W60350  37.109  30.800   1.327
95366W        W60351  17.530  14.201   2.729
95367W        W60352  20.802  25.643  14.150
95368W        W60353   3.977   0.074  12.889
95369W        W60354   8.245  27.460   0.853
95370W        W60355  23.879  26.497  14.382
95371W        W60356   8.207  27.674   3.459
95372W        W60357  37.007  24.351   1.454
95373W        W60358  15.160   5.517  12.569
95374W        W60359  12.392  15.192   0.244
95375W        W60360  11.175  26.539  13.605
95376W        W60361  44.265  20.553  11.083
95377W        W60362  35.393  15.798  10.489
95378W        W60363  43.386  16.157  14.835
95379W        W60364  21.060  32.202   0.374
95380W        W60365  18.484  38.379  12.042
95381W        W60366   4.923  27.671  14.591
95382W        W60367  44.996  11.438  14.047
95383W        W60368  15.078  24.508   4.724
95384W        W60369  14.738  17.588  13.835
95385W        W60370   4.419   1.641   1.473
95386W        W60371  29.321  27.738   0.744
95387W        W60372  24.227   0.711  13.253
95388W        W60373  43.852   5.231  10.499
95389W        W60374  15.878  27.791  10.616
95390W        W60375  12.344   3.458   1.110
95391W        W60376  27.467   9.297  13.510
95392W        W60377  28.722  13.764  13.940
95393W        W60378  32.800  14.779  14.999
95394W        W60379  33.072  25.542   2.367
95395W        W60380  27.029  27.917   1.714
95396W        W60381  32.513   9.064   2.661
95397W        W60382  41.593   7.623  11.618
95398W        W60383  16.161  34.599   0.271
95399W        W60384  19.260  31.163   0.922
95400W        W60385  14.210  37.936   1.476
95401W        W60386  38.513  33.170  12.127
95402W        W60387  10.053  32.830   2.677
95403W        W60388  34.051  44.466   3.862
95404W        W60389  23.645  34.500  11.575
95405W        W60390  38.721  43.072   0.811
95406W        W60391  29.601  27.573  11.060
95407W        W60392  18.826  23.124   3.721
95408W        W60393  16.973  41.010  13.510
95409W        W60394  11.762  40.756   0.789
95410W        W60395  16.361  41.061   3.251
95411W        W60396  44.403  25.942   0.255
95412W        W60397  26.508  41.658   2.360
95413W        W60398  17.116  21.257  11.534
95414W        W60399  34.719  16.706   3.702
95415W        W60400  25.120  10.287   4.260
95416W        W60401  40.125  22.172   2.839
95417W        W60402  43.985   2.002   3.434
95418W        W60403  42.797  26.467   0.400
95419W        W60404  15.709   2.316   4.095
95420W        W60405  12.358  32.711   3.608
95421W        W60406  19.757  16.689   2.330
95422W        W60407  43.500  18.015   0.774
95423W        W60408  25.443  16.777  12.497
95424W        W60409  28.575  34.499  12.570
95425W        W60410  24.690   7.627  12.466
95426W        W60411  19.246  36.400   3.870
95427W        W60412  34.438  42.950  10.948
95428W        W60413  38.588  16.678  12.388
95429W        W60414   2.282   4.968   2.358
95430W        W60415   2.723  37.923   1.447
95431W        W60416  18.748   1.482  12.428
95432W        W60417  32.371  17.689  14.306
95433W        W60418   4.949  15.017   2.427
95434W        W60419   1.364  29.833  14.244
95435W        W60420  38.478  30.582   2.393
95436W        W60421  19.896  40.770   0.847
95437W        W60422  25.627  25.793  12.397
95438W        W60423  19.004   7.316  11.072
95439W        W60424  44.983  14.316  11.566
95440W        W60425  24.711  32.559  13.017
95441W        W60426  10.180  21.708  13.928
95442W        W60427  24.234  28.402  13.171
95443W        W60428  24.982   9.314  14.921
95444W        W60429  30.925   1.533   2.576
95445W        W60430  23.926  34.655  10.709
95446W        W60431  19.532   7.809   2.765
95447W        W60432  31.423   9.735   2.445
95448W        W60433  20.282  29.573   1.671
95449W        W60434  41.125  31.235  11.234
95450W        W60435  42.082  40.854   4.106
95451W        W60436   5.243  32.899   3.258
95452W        W60437  36.417  11.453   4.099
95453W        W60438  11.421  32.850   3.995
95454W        W60439  32.814  37.176   1.792
95455W        W60440  39.337  27.965   3.148
95456W        W60441  24.423  20.295  12.119
95457W        W60442  39.577  25.994  12.133
95458W        W60443   7.764  28.213   1.796
95459W        W60444  17.771  10.390  14.061
95460W        W60445  14.478   4.442  12.495
95461W        W60446   8.732  15.583   4.565
95462W        W60447  12.656   6.275   2.789
95463W        W60448  32.154  16.794   0.913
95464W        W60449  15.865  19.917  11.635
95465W        W60450  32.696  34.340  11.134
95466W        W60451   1.415  13.873   0.395
95467W        W60452  12.541   4.456  10.244
95468W        W60453  41.374  29.622  14.089
95469W        W60454  35.655  20.025   1.824
95470W        W60455  13.488  32.341  11.477
95471W        W60456   6.182  21.482  14.499
95472W        W60457  27.978  42.926   2.315
95473W        W60458   2.223  18.650  12.127
95474W        W60459  40.518  37.924  12.430
95475W        W60460   5.664  35.804  11.939
95476W        W60461  14.598  18.011  14.455
95477W        W60462  23.515  28.881   2.318
95478W        W60463  10.942   0.711  14.317
95479W        W60464  40.415   7.674  10.912
95480W        W60465  14.081  17.598  10.747
95481W        W60466   1.290  24.042  11.908
95482W        W60467  43.963  16.709   2.926
95483W        W60468  10.850   0.330   1.802
95484W        W60469  37.418  38.637  12.356
95485W        W60470  34.614   2.234   1.630
95486W        W60471  23.655  29.994  10.255
95487W        W60472  25.523  27.700  11.990
95488W        W60473  27.963  16.124   1.374
95489W        W60474  33.526   6.149  12.462
95490W        W60475  13.574  39.433   1.799
95491W        W60476  12.843   2.446   1.753
95492W        W60477   3.636  25.284  12.279
95493W        W60478  29.881  23.960  13.935
95494W        W60479  42.462  14.306  13.559
95495W        W60480   0.755   6.338   1.527
95496W        W60481  21.495  29.575   4.091
95497W        W60482  19.762   0.212  14.830
95498W        W60483  41.023  33.132   2.412
95499W        W60484   3.282  18.282  12.442
95500W        W60485   8.823  33.562  11.984
95501W        W60486  19.514  10.068   2.674
95502W        W60487  23.621   2.760  12.470
95503W        W60488  15.065  30.116   2.278
95504W        W60489   9.085   1.917  12.629
95505W        W60490  17.107  38.473  11.630
95506W        W60491  38.320  23.721   0.810
95507W        W60492  24.761   2.478   0.145
95508W        W60493  41.513   0.861   4.112
95509W        W60494   7.929  13.236   3.369
95510W        W60495  21.696  17.733  14.917
95511W        W60496  23.225  41.905  14.515
95512W        W60497   5.027  41.412   5.020
95513W        W60498  41.478  44.264   0.030
95514W        W60499  17.607  20.093  11.594
95515W        W60500  20.717  33.869   2.404
95516W        W60501  29.126   0.864   1.614
95517W        W60502  12.836   9.560   4.133
95518W        W60503   5.206  22.571   2.668
95519W        W60504  29.416  22.535  10.217
95520W        W60505  19.403  32.992   2.853
95521W        W60506   7.280  38.408  11.075
95522W        W60507  21.676  11.805   4.165
95523W        W60508  39.457  38.945   2.364
95524W        W60509  33.604   0.700  10.342
95525W        W60510  39.344  31.958  10.600
95526W        W60511  12.604   7.249   1.230
95527W        W60512  41.423  32.903  11.192
95528W        W60513  32.510  41.376  14.422
95529W        W60514   9.951   1.931  12.921
95530W        W60515  26.484  11.300   2.749
95531W        W60516  24.756  12.615  13.240
95532W        W60517   6.894  10.852  14.486
95533W        W60518  39.638   0.881   1.953
95534W        W60519  38.369  18.076  13.970
95535W        W60520   4.123  36.549   2.140
95536W        W60521   2.733  11.601  11.676
95537W        W60522  28.200  15.170  11.048
95538W        W60523  38.637   3.182  11.992
95539W        W60524  14.241  10.893   3.745
95540W        W60525  44.269  20.754   3.804
95541W        W60526  43.973   3.338   4.366
95542W        W60527   5.389  41.601  13.740
95543W        W60528  42.498  16.257  13.981
95544W        W60529   7.452  10.676   4.314
95545W        W60530  18.170  33.941   2.741
95546W        W60531   7.212  12.557   2.750
95547W        W60532   8.112  12.785   1.626
95548W        W60533  15.131  11.450  14.426
95549W        W60534  10.346   5.309  12.955
95550W        W60535  37.899  14.616   3.657
95551W        W60536  24.575  27.689   0.255
95552W        W60537  43.890  41.633   4.985
95553W        W60538  19.132  27.062  13.851
95554W        W60539  10.763   6.474   1.920
95555W        W60540  43.355  38.105  12.893
95556W        W60541  22.814  21.696   4.145
95557W        W60542  27.192   1.760   3.605
95558W        W60543  13.180   4.973  12.629
95559W        W60544  40.901  25.749   3.742
95560W        W60545  43.499  26.373   3.583
95561W        W60546  17.438  38.498   1.612
95562W        W60547   9.986  38.693  11.127
95563W        W60548  34.454   5.233   3.184
95564W        W60549  28.363  41.708   0.347
95565W        W60550  16.021  35.410   3.730
95566W        W60551  10.916  33.023  10.726
95567W        W60552  42.286  14.250   3.174
95568W        W60553  31.515  36.570  12.122
95569W        W60554  36.373  12.057   3.070
95570W        W60555  27.306  27.021   1.506
95571W        W60556  37.010  18.675   1.995
95572W        W60557  28.678  25.892   4.771
95573W        W60558  31.965  43.271  12.439
95574W        W60559  30.920  14.791  13.685
95575W        W60560   9.285  15.703   4.105
95576W        W60561   4.843  25.731  14.482
95577W        W60562  38.851   6.103  12.334
95578W        W60563  12.293  22.871  11.094
95579W        W60564  21.943  44.533  13.501
95580W        W60565  38.274  33.397  10.896
95581W        W60566  15.927  35.034   2.166
95582W        W60567  34.142  18.389   4.804
95583W        W60568  18.764  21.412   2.911
95584W        W60569  27.173   5.785   4.478
95585W        W60570  41.831   5.935  12.475
95586W        W60571   1.384  28.131   0.814
95587W        W60572  29.074  16.208  12.477
95588W        W60573  30.380   3.871  14.850
95589W        W60574  24.018  39.492   1.022
95590W        W60575  42.332  39.572   3.371
95591W        W60576   5.241   8.732  11.864
95592W        W60577   0.201  38.736  11.530
95593W        W60578  25.162  32.804   3.587
95594W        W60579   7.630  39.424  13.021
95595W        W60580  20.629   2.483  11.601
95596W        W60581  38.936  20.141   3.948
95597W        W60582  39.077  31.104  13.986
95598W        W60583  23.368  12.198   4.921
95599W        W60584  28.505   0.687   0.764
95600W        W60585  28.961  33.386   2.619
95601W        W60586  38.092  24.728   0.751
95602W        W60587  14.668  19.193  13.963
95603W        W60588  20.768   2.070  13.367
95604W        W60589   6.921  10.252   1.167
95605W        W60590  43.540   9.875  12.571
95606W        W60591  43.925  30.440  13.949
95607W        W60592  27.606  23.680   4.113
95608W        W60593  18.994   2.010   0.747
95609W        W60594  40.904   0.759   2.313
95610W        W60595   5.190  23.096  14.139
95611W        W60596   4.219  34.945  12.062
95612W        W60597  39.093  31.098  13.109
95613W        W60598  30.733  37.139  11.210
95614W        W60599  10.414  23.440  12.149
95615W        W60600   1.307  29.530   3.708
95616W        W60601  16.448   9.332   3.892
95617W        W60602   0.874  40.060  12.971
95618W        W60603   5.365  33.376   1.619
95619W        W60604  39.146   0.507  14.451
95620W        W60605  17.140  41.588  12.592
95621W        W60606   9.846   5.366   0.291
95622W        W60607  44.500  35.390   2.416
95623W        W60608  10.388  23.900   4.155
95624W        W60609  16.542  29.101   1.250
95625W        W60610   4.784  16.180   2.698
95626W        W60611  12.665  13.449  11.124
95627W        W60612   6.491  41.926  11.523
95628W        W60613  30.393  36.559   3.272
95629W        W60614  21.244   6.217  11.515
95630W        W60615  34.396  27.491   1.922
95631W        W60616  44.546  22.747  13.993
95632W        W60617   9.769   8.692  12.469
95633W        W60618  33.657  42.429   3.352
95634W        W60619  44.454  10.601   3.337
95635W        W60620  12.290  37.774  11.228
95636W        W60621   4.372   7.269  11.975
95637W        W60622  36.903  20.430   0.184
95638W        W60623  28.310  33.439   1.893
95639W        W60624  38.591  26.683   1.630
95640W        W60625  24.890  29.790   0.540
95641W        W60626  30.207   3.745  13.030
95642W        W60627  22.469   3.955   0.274
95643W        W60628  42.915  13.347   4.898
95644W        W60629  43.804  28.708  12.453
95645W        W60630  29.889   8.011   3.755
95646W        W60631  22.574  24.175  11.146
95647W        W60632  39.120  35.280  13.421
95648W        W60633   6.730  39.140   0.467
95649W        W60634   5.952   4.872  13.343
95650W        W60635  14.499  22.642   4.570
95651W        W60636   1.023  34.167  13.273
95652W        W60637  18.192  37.527   3.528
95653W        W60638  21.743  41.436  10.676
95654W        W60639   0.391   9.284   3.765
95655W        W60640  31.077  44.792   2.329
95656W        W60641  34.488  19.171   0.926
95657W        W60642  35.109  21.119  14.782
95658W        W60643   9.225  22.151  12.781
95659W        W60644  30.467  13.708   4.665
95660W        W60645  23.742  28.483  12.993
95661W        W60646   8.214  15.095  14.040
95662W        W60647  19.652  19.539  14.078
95663W        W60648  14.647   8.808  14.840
95664W        W60649  20.150   9.664  13.929
95665W        W60650  18.682  24.616  11.567
95666W        W60651  29.441  14.502  12.425
95667W        W60652  29.373   2.539   0.422
95668W        W60653  26.633  19.552   3.866
95669W        W60654  40.231  25.229   0.622
95670W        W60655  26.550   6.780   3.044
95671W        W60656   3.208  12.051   4.644
95672W        W60657  17.903  12.129   2.934
95673W        W60658  32.694  10.132   2.686
95674W        W60659   4.846   8.423   0.007
95675W        W60660  12.836   0.803   3.184
95676W        W60661  38.917  44.732   4.293
95677W        W60662   8.871  10.451   5.044
95678W        W60663  37.021  21.169  14.498
95679W        W60664  28.979  22.184  11.974
95680W        W60665   2.325  24.981   4.742
95681W        W60666  40.753  16.230   0.021
95682W        W60667  44.281  27.102   4.018
95683W        W60668  38.815  38.851  14.998
95684W        W60669   7.315   1.721   0.800
95685W        W60670  43.842  23.068  13.417
95686W        W60671   8.445  14.823   3.447
95687W        W60672  24.178  30.549  13.288
95688W        W60673  44.741  34.423  14.310
95689W        W60674  13.343  33.455   2.281
95690W        W60675   3.640  13.761   2.252
95691W        W60676  15.502  42.840  12.263
95692W        W60677  30.020  29.228  12.685
95693W        W60678  30.587  11.888   3.303
95694W        W60679  14.349  12.081   4.269
95695W        W60680  30.111  40.258   3.567
95696W        W60681  12.173  34.754  14.927
95697W        W60682  44.950  35.974  11.565
95698W        W60683  22.119  37.108  12.046
95699W        W60684  22.508  26.427  11.069
95700W        W60685  44.424   3.364   4.622
95701W        W60686  25.929  33.793   1.591
95702W        W60687  21.565  11.463  12.010
95703W        W60688  30.721   0.316  14.032
95704W        W60689  15.745  14.088   0.875
95705W        W60690  34.538   4.231  14.745
95706W        W60691   8.575  17.303   5.306
95707W        W60692  18.280  14.087  14.270
95708W        W60693  16.756   5.751   1.703
95709W        W60694  42.994  21.991   1.243
95710W        W60695  18.596  43.761   4.162
95711W        W60696  21.479  32.536  13.950
95712W        W60697  15.995  33.605   0.216
95713W        W60698  12.247   9.645  12.394
95714W        W60699  16.123  30.599  13.874
95715W        W60700  21.683  36.899  12.917
95716W        W60701  38.427  28.701   3.658
95717W        W60702  17.561  28.974  12.932
95718W        W60703  37.600  39.007   2.791
95719W        W60704  35.147   5.514  14.453
95720W        W60705  42.463  24.192  13.042
95721W        W60706  13.375  26.813  11.047
95722W        W60707  26.620  39.506   4.570
95723W        W60708  30.376  41.787  11.189
95724W        W60709   6.829  34.879  14.196
95725W        W60710   3.904  17.801   1.778
95726W        W60711  43.153  40.263  10.832
95727W        W60712  27.130  17.535   4.231
95728W        W60713   7.276  19.091  14.280
95729W        W60714  32.447  16.097   2.316
95730W        W60715  13.334   9.457  11.733
95731W        W60716  35.922  16.819  11.982
95732W        W60717   7.756  38.585  13.540
95733W        W60718  41.976  15.560   4.625
95734W        W60719   9.530  37.936   3.893
95735W        W60720  36.042  16.448  14.479
95736W        W60721  24.965  35.571   2.454
95737W        W60722  40.045  13.170   4.176
95738W        W60723  43.705  27.665  11.938
95739W        W60724   3.888   7.120   3.001
95740W        W60725   1.429   3.149  14.927
95741W        W60726  10.226  26.154  13.158
95742W        W60727  32.054  44.201  14.277
95743W        W60728  28.425  34.532   1.321
95744W        W60729  43.303  33.070  12.172
95745W        W60730   0.898  40.800  10.442
95746W        W60731  30.249  19.876   5.093
95747W        W60732  22.123  40.392   2.822
95748W        W60733  10.363   7.953   1.339
95749W        W60734  25.556   8.609   0.258
95750W        W60735  26.688   6.307   4.291
95751W        W60736   5.287   1.259   1.771
95752W        W60737  15.676  12.305   4.654
95753W        W60738  42.510  19.326   0.717
95754W        W60739  43.021   8.596   3.766
95755W        W60740  15.101   7.345   4.666
95756W        W60741  39.567  40.846  14.866
95757W        W60742  15.774  17.511  13.104
95758W        W60743  37.689  38.053   9.527
95759W        W60744  40.684  44.813   0.481
95760W        W60745   4.292  33.349  12.528
95761W        W60746   3.762   3.362   5.089
95762W        W60747  33.963   0.832  13.483
95763W        W60748   8.897  44.838   4.162
95764W        W60749  27.764  15.315  10.489
95765W        W60750  11.308  33.721  14.809
95766W        W60751  39.977  34.248   2.248
95767W        W60752   9.559  26.249   0.050
95768W        W60753  44.323  23.126   0.253
95769W        W60754  18.002  20.947  14.548
95770W        W60755  33.115  36.450  13.375
95771W        W60756  36.512  28.492   3.133
95772W        W60757  30.592  29.979   4.876
95773W        W60758  13.592  29.899  11.650
95774W        W60759  23.516  25.662  12.541
95775W        W60760   5.932  38.501   4.863
95776W        W60761  14.832  40.839  12.312
95777W        W60762  22.236  40.396  13.384
95778W        W60763   1.250   9.682   4.718
95779W        W60764  16.856   2.886  13.858
95780W        W60765  12.230  16.310   1.511
95781W        W60766   0.132  44.675  14.565
95782W        W60767   5.226  24.419   0.221
95783W        W60768   7.755  44.900  10.857
95784W        W60769  43.256  20.018   4.388
95785W        W60770  17.239   7.663   3.228
95786W        W60771  42.064  33.206  10.700
95787W        W60772  25.175  12.911   1.898
95788W        W60773  33.649  30.039   3.833
95789W        W60774  40.958  21.505   4.786
95790W        W60775  20.062   0.811   0.036
95791W        W60776  30.941  17.762  12.065
95792W        W60777  41.975  17.392  11.035
95793W        W60778  41.831  28.051   5.003
95794W        W60779   7.705  17.507  13.010
95795W        W60780  36.422  25.626  13.340
95796W        W60781  12.422  27.692   4.013
95797W        W60782  28.086  25.829  11.495
95798W        W60783  29.357  40.559  11.633
95799W        W60784  13.627  26.634  14.060
95800W        W60785  28.027  13.844   4.990
95801W        W60786  20.156   4.620  13.886
95802W        W60787  18.233  44.494   3.316
95803W        W60788   7.412  13.405  12.413
95804W        W60789  29.542   6.865  14.469
95805W        W60790  26.654  33.327  14.025
95806W        W60791   6.674  18.223  12.556
95807W        W60792  34.241   0.747   4.116
95808W        W60793   0.516  38.267  13.642
95809W        W60794   8.855  15.308  14.752
95810W        W60795  14.320  24.555  12.120
95811W        W60796  43.708   1.509  11.071
95812W        W60797  10.675  21.205   4.768
95813W        W60798  16.137  10.568   3.684
95814W        W60799  16.321  22.478  14.437
95815W        W60800  19.576  17.609   3.194
95816W        W60801  17.171  29.260   0.445
95817W        W60802   6.228  35.137  12.957
95818W        W60803  24.046   1.188  10.746
95819W        W60804   9.918  28.750  11.139
95820W        W60805  19.232  18.084   4.099
95821W        W60806  25.540   3.002   0.327
95822W        W60807  41.450  43.021  12.870
95823W        W60808  12.211  37.612   3.350
95824W        W60809   0.432  32.566  10.602
95825W        W60810   7.211  39.566  11.668
95826W        W60811   0.395  16.747   3.776
95827W        W60812  10.951  33.438   0.711
95828W        W60813  28.961  41.397  14.794
95829W        W60814  18.901  18.198  14.726
95830W        W60815  34.898  28.512   1.788
95831W        W60816  38.510  11.038   0.818
95832W        W60817  23.467  26.940  12.461
95833W        W60818  32.374  11.254   3.125
95834W        W60819  26.483  26.091  11.403
95835W        W60820  13.060  13.573   2.851
95836W        W60821  37.583  21.654   4.205
95837W        W60822  44.894  14.518  13.940
95838W        W60823   5.352   2.389  12.806
95839W        W60824  22.437  42.412   0.773
95840W        W60825  41.518   5.819   3.136
95841W        W60826   2.727  31.369   1.728
95842W        W60827   9.093  28.278  10.180
95843W        W60828  18.199   9.848   2.636
95844W        W60829  36.359  31.177  11.556
95845W        W60830  40.366  32.640   1.838
95846W        W60831  38.992  27.628  13.874
95847W        W60832  34.100  26.560   2.247
95848W        W60833  44.757  30.470   5.139
95849W        W60834  24.572  41.344   0.003
95850W        W60835  24.660   6.000   1.862
95851W        W60836  17.755   8.767  11.935
95852W        W60837  38.038  11.882  11.165
95853W        W60838  15.861  43.422   4.367
95854W        W60839   1.372  18.016  11.581
95855W        W60840  24.515  36.567   4.483
95856W        W60841  40.459  27.976  11.919
95857W        W60842  13.227  23.583   3.582
95858W        W60843  43.099   5.149   1.824
95859W        W60844  24.220   8.088   4.884
95860W        W60845  32.041   1.057   1.089
95861W        W60846  35.044   4.411  13.032
95862W        W60847  15.858  12.619  14.029
95863W        W60848   5.777  26.249   0.323
95864W        W60849  44.417   6.079   2.092
95865W        W60850  31.951   4.980   4.191
95866W        W60851  32.636  43.181   2.098
95867W        W60852  42.483  27.113   3.309
95868W        W60853  38.315  27.749   3.675
95869W        W60854   6.364  15.897  11.487
95870W        W60855  26.095  15.673  14.821
95871W        W60856  33.775  29.749  13.429
95872W        W60857  22.587  31.604   0.827
95873W        W60858  18.156  17.081   1.374
95874W        W60859  28.550  33.656  11.211
95875W        W60860   5.875   1.901  14.170
95876W        W60861  20.016  14.582   1.503
95877W        W60862  17.667  35.087  13.803
95878W        W60863  28.359  44.675  12.393
95879W        W60864  11.762  17.791   2.611
95880W        W60865   0.545  43.165   1.425
95881W        W60866  23.553   5.629  13.468
95882W        W60867  22.585  32.422  13.048
95883W        W60868  20.541  15.865  11.581
95884W        W60869   6.265  43.964  14.012
95885W        W60870  23.448  28.114   1.681
95886W        W60871  29.640  27.509   3.133
95887W        W60872  19.479  31.138  14.388
95888W        W60873  23.462  11.251   4.477
95889W        W60874  25.956  40.375  13.540
95890W        W60875  28.617  22.608   1.635
95891W        W60876   9.129  28.036  14.024
95892W        W60877  12.101  19.171   3.107
95893W        W60878  34.395  27.592  12.736
95894W        W60879  16.665  13.224   3.867
95895W        W60880   7.307  20.821   3.684
95896W        W60881   9.489   4.473  14.427
95897W        W60882  18.788  28.146   4.603
95898W        W60883  43.737  42.251  10.742
95899W        W60884  10.782  35.901   5.092
95900W        W60885   1.671   7.945  12.472
95901W        W60886  21.054  34.754  12.147
95902W        W60887  33.977  20.375  12.584
95903W        W60888  11.665  39.025  11.379
95904W        W60889  40.412  15.349   1.952
95905W        W60890   4.945  22.069  12.174
95906W        W60891   1.408   7.514  12.467
95907W        W60892  28.899  43.089  10.203
95908W        W60893  28.961  24.811   4.552
95909W        W60894  18.860  27.858  10.197
95910W        W60895   9.630  42.042   1.816
95911W        W60896  15.772  32.958   2.546
95912W        W60897  28.066  23.482  11.406
95913W        W60898   2.738  27.016   1.313
95914W        W60899  43.225  16.188   0.360
95915W        W60900   7.758  28.742   1.764
95916W        W60901  23.112  14.009  11.931
95917W        W60902  27.993  32.523   1.023
95918W        W60903  20.461  21.271  12.668
95919W        W60904   9.764  18.041   0.290
95920W        W60905  29.137  20.798   1.817
95921W        W60906  44.040  35.938   3.190
95922W        W60907  23.295  15.531  14.974
95923W        W60908  17.697  18.579  13.517
95924W        W60909   5.858  41.384  13.824
95925W        W60910   8.198   0.885   4.501
95926W        W60911  34.819  35.513  14.737
95927W        W60912  31.925  44.532   1.679
95928W        W60913  41.115   4.359   4.482
95929W        W60914  33.010  21.498  13.245
95930W        W60915  22.725  30.959   3.087
95931W        W60916   6.040   0.593   1.451
95932W        W60917  11.198   7.658   4.176
95933W        W60918  38.050  44.427  14.512
95934W        W60919  44.993  21.559  11.559
95935W        W60920  41.688  33.400  14.297
95936W        W60921  20.752  20.951   1.378
95937W        W60922   3.324   7.331   0.284
95938W        W60923  20.709  22.141  10.249
95939W        W60924  17.258  36.591   4.513
95940W        W60925   3.394   4.717  12.645
95941W        W60926  11.622   4.898   0.254
95942W        W60927  44.353  24.367   1.864
95943W        W60928  24.342   5.738  11.987
95944W        W60929  35.309  31.015  14.398
95945W        W60930  33.788  38.570   1.732
95946W        W60931  11.347  22.070   4.815
95947W        W60932   5.831  25.832   3.179
95948W        W60933  30.868  22.697   2.720
95949W        W60934  42.957  39.360  12.086
95950W        W60935  12.207   0.884  12.873
95951W        W60936  10.612   9.422   2.229
95952W        W60937  43.442  14.200   2.287
95953W        W60938   7.352  16.747   4.737
95954W        W60939  14.827  25.282  14.009
95955W        W60940  10.408  16.548  11.663
95956W        W60941  23.564  32.309  12.410
95957W        W60942   6.258  38.616   0.767
95958W        W60943   4.223  26.763  12.664
95959W        W60944   0.423  31.684  11.720
95960W        W60945  14.526  17.173   2.194
95961W        W60946  23.026  18.141  11.508
95962W        W60947  31.239  42.975   1.277
95963W        W60948  17.700  16.784   0.258
95964W        W60949  15.828  21.108   4.092
95965W        W60950  32.045  40.360   1.479
95966W        W60951  36.379  29.955  11.643
95967W        W60952  43.669  36.967   4.556
95968W        W60953  23.200  18.700   3.692
95969W        W60954   4.085  27.010   1.893
95970W        W60955  18.008  17.132   2.855
95971W        W60956  31.939   4.526   5.006
95972W        W60957  42.749  33.528   0.858
95973W        W60958  25.297  43.030  11.546
95974W        W60959  34.614  37.632  14.818
95975W        W60960   2.260  25.565   2.947
95976W        W60961  42.987  11.382   4.053
95977W        W60962  38.193  14.524  11.869
95978W        W60963  18.689   7.082   4.033
95979W        W60964  15.032  23.553   3.299
95980W        W60965  19.202  29.532  12.317
95981W        W60966  36.992   1.806   0.212
95982W        W60967  22.949   2.291   0.715
95983W        W60968  37.416   8.329   2.342
95984W        W60969   5.698  21.987   2.137
95985W        W60970   8.841  29.598  14.389
95986W        W60971  16.141  43.289  11.221
95987W        W60972  24.992  21.763  11.682
95988W        W60973  41.405  36.546  14.446
95989W        W60974  17.331  40.080   4.099
95990W        W60975   7.756  18.538  13.002
95991W        W60976  34.880   0.183  10.780
95992W        W60977  17.475  40.373  13.117
95993W        W60978  38.822  41.324   2.671
95994W        W60979   3.093  13.116  13.822
95995W        W60980  42.237   7.853   4.741
95996W        W60981  40.388  21.327   4.094
95997W        W60982  27.182  23.547   0.352
95998W        W60983   4.814  43.525  11.245
95999W        W60984  20.599  21.722   3.827
96000W        W60985  11.911  14.142  12.328
96001W        W60986   4.937  30.407   3.112
96002W        W60987  36.942  26.185  13.344
96003W        W60988  10.771  43.032   1.420
96004W        W60989  44.894  44.966   4.447
96005W        W60990  12.957  36.106   2.761
96006W        W60991  27.242   5.454   1.210
96007W        W60992  28.202  41.754   2.824
96008W        W60993  23.153  29.747   1.767
96009W        W60994  41.646  42.873  14.176
96010W        W60995   2.209  27.917  13.353
96011W        W60996  33.141  34.915  14.781
96012W        W60997  13.397  38.265  11.505
96013W        W60998  25.072   9.223   0.907
96014W        W60999   3.798  27.091  14.812
96015W        W61000   7.515  29.433   2.155
96016W        W61001  19.650  37.982   1.305
96017W        W61002  43.164  40.891   2.925
96018W        W61003  37.902  19.519   4.533
96019W        W61004  17.463  20.022   1.744
96020W        W61005  24.335  35.017   1.276
96021W        W61006  10.278  44.247  10.370
96022W        W61007  42.669   6.317  12.215
96023W        W61008   0.309  23.205  12.325
96024W        W61009  28.136  15.195  11.941
96025W        W61010  19.695   0.291   3.982
96026W        W61011  38.884   7.899   3.354
96027W        W61012  28.218  28.515  11.551
96028W        W61013  22.084  33.476  12.451
96029W        W61014  18.021  17.583   2.149
96030W        W61015  10.862  34.061  14.788
96031W        W61016  21.438  21.536   9.549
96032W        W61017  14.402  11.559  12.504
96033W        W61018  20.536  16.934  12.514
96034W        W61019   5.712   6.887  13.481
96035W        W61020  31.396  38.827  13.549
96036W        W61021  16.905  36.936  13.451
96037W        W61022  26.238  35.155  10.205
96038W        W61023  41.491  15.846  14.879
96039W        W61024  38.111  11.797   4.054
96040W        W61025  20.542  38.460  11.193
96041W        W61026  32.499  18.831   1.674
96042W        W61027   0.900  36.553  13.363
96043W        W61028  10.156  26.141   1.701
96044W        W61029   1.128  14.702  13.361
96045W        W61030  41.922   1.221   4.617
96046W        W61031  25.369  25.129   0.912
96047W        W61032  32.428   8.541  14.087
96048W        W61033  41.013  15.697  13.349
96049W        W61034  34.879   2.437  14.471
96050W        W61035  38.951  37.820   0.832
96051W        W61036  40.593   1.133   1.227
96052W        W61037  32.993   9.392   1.918
96053W        W61038  23.254  25.151   2.446
96054W        W61039  44.277  10.101  11.706
96055W        W61040  13.687  34.950  11.119
96056W        W61041  34.946  38.871   0.356
96057W        W61042   2.329  43.924  12.010
96058W        W61043  28.472  29.582   1.871
96059W        W61044  13.858  13.284  14.446
96060W        W61045  10.815  43.647   4.769
96061W        W61046  10.329  22.267   4.052
96062W        W61047  13.552  28.971   2.334
96063W        W61048  39.539   2.612  10.535
96064W        W61049  10.752   5.273   2.291
96065W        W61050  28.444   7.334   0.162
96066W        W61051   9.454  28.477  13.882
96067W        W61052  10.082  35.407  11.562
96068W        W61053   6.188  26.135  10.823
96069W        W61054  20.093  37.417   4.282
96070W        W61055  20.287  35.558  12.540
96071W        W61056   9.260  16.403  13.332
96072W        W61057   9.756  26.224  14.554
96073W        W61058  34.333  38.506  13.132
96074W        W61059  14.212  33.787  12.117
96075W        W61060  15.737  35.910   2.745
96076W        W61061  19.858  40.063   3.300
96077W        W61062  35.664   4.991   2.333
96078W        W61063  42.104   1.930   0.502
96079W        W61064  41.075  33.574   4.511
96080W        W61065  16.626  42.016  14.741
96081W        W61066  26.261   5.484   4.667
96082W        W61067  34.705  22.250   4.563
96083W        W61068   9.446   8.355   1.479
96084W        W61069  25.028  24.547  12.532
96085W        W61070   8.218  28.012  13.186
96086W        W61071  24.572  29.062   0.956
96087W        W61072  10.751  18.168  13.288
96088W        W61073  35.998  35.854   2.241
96089W        W61074  29.130  31.114  10.996
96090W        W61075  31.914   2.941  10.686
96091W        W61076  21.753  11.736  10.306
96092W        W61077  44.313   6.850   3.210
96093W        W61078  24.610  25.246   3.979
96094W        W61079  35.863  32.840   4.728
96095W        W61080  18.825   0.788   0.447
96096W        W61081  29.508  13.320  14.725
96097W        W61082  12.884  19.280   0.022
96098W        W61083  30.960   4.068   4.474
96099W        W61084  14.556  44.858   0.741
96100W        W61085  16.542  16.346  14.871
96101W        W61086   3.728  40.453   1.299
96102W        W61087  19.723  10.978   4.467
96103W        W61088  38.496  40.036   3.060
96104W        W61089  19.337  37.678   3.832
96105W        W61090  20.684  18.458  12.024
96106W        W61091  10.159  20.110  10.045
96107W        W61092   9.920   7.342   4.602
96108W        W61093  37.370  39.961   2.390
96109W        W61094  24.685  42.865  14.021
96110W        W61095   9.960   5.337  10.798
96111W        W61096  14.405  28.159   0.904
96112W        W61097   9.824  28.923  14.834
96113W        W61098  44.821  41.422  11.640
96114W        W61099  37.480   4.380   3.318
96115W        W61100  27.157  15.351   2.332
96116W        W61101  30.935  44.826  14.268
96117W        W61102   4.778  28.101  11.594
96118W        W61103  43.036  28.919  11.986
96119W        W61104  39.519  16.684   4.519
96120W        W61105  44.367  30.564   3.322
96121W        W61106  23.953  41.440   5.062
96122W        W61107  16.886  40.604   1.328
96123W        W61108  12.585  37.140  11.198
96124W        W61109  21.216  37.130   1.185
96125W        W61110  14.203  44.742  14.852
96126W        W61111  42.406  17.114  11.519
96127W        W61112  25.374  29.601   0.351
96128W        W61113  23.038  23.466  12.044
96129W        W61114  35.012  37.625   0.667
96130W        W61115  32.587  12.194   4.651
96131W        W61116  40.980  36.828  10.637
96132W        W61117  18.880  25.699   0.327
96133W        W61118   0.279  27.587   1.953
96134W        W61119  40.974  23.647   1.942
96135W        W61120  37.491   2.280   1.657
96136W        W61121  18.741   3.838  12.017
96137W        W61122  27.526  25.125   5.155
96138W        W61123  22.094   0.136  14.798
96139W        W61124  34.370  14.880  14.771
96140W        W61125  42.277  37.690   5.293
96141W        W61126  41.706  24.052   2.068
96142W        W61127  26.483  13.924  12.057
96143W        W61128   5.290   9.830   4.881
96144W        W61129  20.301  28.068  12.613
96145W        W61130   2.837  35.499  13.079
96146W        W61131  32.085   1.383  10.683
96147W        W61132  27.066  29.179   4.920
96148W        W61133  38.352  24.748  14.869
96149W        W61134  29.692  31.003  13.323
96150W        W61135  40.211   5.896   1.280
96151W        W61136  41.383  17.986   0.896
96152W        W61137   1.460  10.921   4.000
96153W        W61138  37.897   1.165  11.572
96154W        W61139  25.450  20.655  10.742
96155W        W61140  23.758  43.985   1.461
96156W        W61141  28.530  35.539  12.428
96157W        W61142   1.950  21.786   1.627
96158W        W61143  17.828   8.379  11.591
96159W        W61144  13.553  44.452  12.380
96160W        W61145   0.356  23.230   4.522
96161W        W61146   0.600  35.677  13.972
96162W        W61147  10.764  22.074   0.947
96163W        W61148  19.225  13.363  11.936
96164W        W61149  39.891  44.250  13.919
96165W        W61150   5.202  24.525  12.031
96166W        W61151   0.484   8.189  13.823
96167W        W61152  36.020  41.766  11.143
96168W        W61153  22.605  39.157   2.774
96169W        W61154  29.653  19.746   4.560
96170W        W61155  36.355  43.863   3.228
96171W        W61156  15.062  10.975   4.608
96172W        W61157  30.832  26.025   2.715
96173W        W61158  29.494  13.856  10.909
96174W        W61159  32.369  39.058   2.773
96175W        W61160   7.702  11.456   3.755
96176W        W61161   2.876   5.858  13.892
96177W        W61162  25.025  39.531  11.853
96178W        W61163  17.320  23.916   2.592
96179W        W61164  35.282  24.504   3.908
96180W        W61165  30.011  18.156   0.336
96181W        W61166  23.676  20.280  10.683
96182W        W61167  36.444  28.024   2.831
96183W        W61168  41.021   2.438  14.414
96184W        W61169   2.277  22.928  14.584
96185W        W61170   5.829  36.014   2.430
96186W        W61171  11.089   9.841   2.817
96187W        W61172   3.975  10.275  13.827
96188W        W61173   8.828  10.906   2.011
96189W        W61174   0.546  22.580  14.754
96190W        W61175  34.475  44.392  11.060
96191W        W61176  34.877  16.101   1.744
96192W        W61177  36.864  31.663   4.157
96193W        W61178  11.345  32.295   0.087
96194W        W61179  34.945   2.300   0.293
96195W        W61180  11.698  21.099   4.063
96196W        W61181  11.632   0.786   0.766
96197W        W61182  22.076  31.531   2.598
96198W        W61183   1.886  33.411   0.385
96199W        W61184  18.518  13.180   3.842
96200W        W61185  29.491  16.848  11.606
96201W        W61186   1.453  23.499  12.472
96202W        W61187   7.317  12.899  11.539
96203W        W61188   8.628  44.849   0.831
96204W        W61189   2.635  26.122  14.026
96205W        W61190  29.593  32.322  11.137
96206W        W61191  27.660  44.494  14.545
96207W        W61192  41.608  11.679   1.450
96208W        W61193  27.640  37.388   1.876
96209W        W61194  24.702   6.213  11.123
96210W        W61195  28.480  17.238   1.817
96211W        W61196  26.917  13.093  11.951
96212W        W61197   9.996  20.531   3.762
96213W        W61198   7.884   8.207   3.779
96214W        W61199  15.597   4.871   1.278
96215W        W61200  34.587   6.926  10.117
96216W        W61201   6.253  34.101  10.151
96217W        W61202  28.458   8.690   1.346
96218W        W61203  42.786  38.227  11.589
96219W        W61204   8.309  30.754  13.979
96220W        W61205  36.045   0.216  10.814
96221W        W61206  33.380  42.528   1.516
96222W        W61207  17.090  12.414   3.384
96223W        W61208  20.030  18.192  12.487
96224W        W61209   6.464  29.057  13.367
96225W        W61210  27.475  37.479  12.727
96226W        W61211   1.478   7.238   2.932
96227W        W61212  31.468   1.042  13.505
96228W        W61213  31.009  32.109  12.200
96229W        W61214  15.669  18.317   0.255
96230W        W61215  43.853   7.408  13.331
96231W        W61216  37.900  42.354   3.365
96232W        W61217  20.223  42.804   4.805
96233W        W61218  43.149  37.505  10.977
96234W        W61219  13.245  14.639   1.346
96235W        W61220  38.093   4.688   0.377
96236W        W61221  17.069  27.963   3.454
96237W        W61222   3.320  25.418   4.588
96238W        W61223  11.199  12.590   4.764
96239W        W61224  22.091  22.594   0.671
96240W        W61225  16.806  12.276   3.826
96241W        W61226  15.318  30.084  13.908
96242W        W61227   5.280  25.006  13.365
96243W        W61228  17.543   2.506  10.732
96244W        W61229  34.815  20.780  13.001
96245W        W61230  14.056  32.613  10.911
96246W        W61231   8.337  39.412  11.591
96247W        W61232  35.046  33.958   3.806
96248W        W61233  20.230   0.778   2.169
96249W        W61234  32.799   6.658   2.463
96250W        W61235  20.134  19.665  11.930
96251W        W61236  31.350  30.054   4.175
96252W        W61237  33.341  23.468  11.706
96253W        W61238   1.745   1.329  11.995
96254W        W61239  40.113   3.214  14.723
96255W        W61240  39.770  36.813  11.094
96256W        W61241  26.931  20.136   0.460
96257W        W61242  13.669   2.278  10.541
96258W        W61243  32.437  40.282  12.062
96259W        W61244  19.644  37.695   4.244
96260W        W61245  23.922  33.062  12.607
96261W        W61246  24.114   4.873  12.238
96262W        W61247  42.508  41.246  14.035
96263W        W61248   9.119  24.940  14.813
96264W        W61249   3.258  20.204  14.995
96265W        W61250  44.284  31.908  12.771
96266W        W61251   6.940  11.489   0.035
96267W        W61252  12.748  39.893   4.501
96268W        W61253  14.003  26.671   4.831
96269W        W61254  40.065  14.124   2.834
96270W        W61255   5.690  43.998  14.870
96271W        W61256  27.631   2.343  13.600
96272W        W61257  35.425  36.932  13.034
96273W        W61258   8.327  43.992   4.417
96274W        W61259  27.537  44.694   2.842
96275W        W61260  12.759  18.662  11.209
96276W        W61261   0.036  25.427  11.324
96277W        W61262   7.316  38.161  14.778
96278W        W61263  22.498   7.875   4.616
96279W        W61264  26.473  29.064  14.844
96280W        W61265  28.491  42.800  11.002
96281W        W61266   3.311  34.301   3.875
96282W        W61267   9.870  31.220  11.127
96283W        W61268  43.445   4.359   0.652
96284W        W61269  28.924  41.488  11.882
96285W        W61270  17.359  19.655   2.836
96286W        W61271  28.633   0.953   0.310
96287W        W61272  17.306  25.129  12.475
96288W        W61273   8.459  10.125   1.429
96289W        W61274  19.947  26.647   2.859
96290W        W61275  13.536  12.844  14.449
96291W        W61276  20.808  43.096  13.603
96292W        W61277   6.709  37.121  14.001
96293W        W61278  40.997  17.314   0.637
96294W        W61279   8.926  42.789   3.720
96295W        W61280   8.673  29.622  13.457
96296W        W61281  23.757  37.238   2.935
96297W        W61282  22.273   8.951  13.050
96298W        W61283  34.380  13.724   1.136
96299W        W61284  40.101  36.301  14.815
96300W        W61285  26.673   6.748  13.618
96301W        W61286  23.216   5.293  13.219
96302W        W61287  43.032   6.437   2.308
96303W        W61288  42.876  20.678  11.863
96304W        W61289  33.562   2.673  14.373
96305W        W61290  32.472  30.995   4.981
96306W        W61291   4.315   6.625   4.685
96307W        W61292  15.743   0.351   0.601
96308W        W61293  15.357  39.004  12.435
96309W        W61294  15.865  12.790   2.672
96310W        W61295  24.086   1.262   5.089
96311W        W61296  25.952  41.726  10.988
96312W        W61297  25.058  40.865   2.288
96313W        W61298  25.091  38.037  11.620
96314W        W61299   8.199  20.486  11.091
96315W        W61300  42.793   6.615  11.833
96316W        W61301  40.230  24.416  10.345
96317W        W61302  43.791  36.434   4.487
96318W        W61303  11.860   4.419   2.217
96319W        W61304   4.385  19.570   1.729
96320W        W61305  41.284  42.348   1.475
96321W        W61306  26.926  23.300  14.732
96322W        W61307  27.609  13.755   4.544
96323W        W61308  17.722  21.804   1.912
96324W        W61309  24.724   7.444  14.171
96325W        W61310  31.740   8.661   1.400
96326W        W61311   7.222  14.369  14.941
96327W        W61312  34.811   2.044   2.307
96328W        W61313  20.948  15.565  14.400
96329W        W61314  15.811  31.852   2.284
96330W        W61315  24.300  11.339  14.297
96331W        W61316  33.762  11.164  14.779
96332W        W61317  43.479  39.437  12.842
96333W        W61318  44.242   6.650  13.465
96334W        W61319   7.093  16.180  11.114
96335W        W61320  40.030  20.612  13.633
96336W        W61321  33.877  43.500   0.360
96337W        W61322   8.202   1.722  12.708
96338W        W61323  33.480  29.431   0.679
96339W        W61324  14.706  41.309  14.485
96340W        W61325  24.088  44.167  14.759
96341W        W61326  24.536  44.482   1.536
96342W        W61327  39.553  44.983  14.331
96343W        W61328  39.365  27.571  14.890
96344W        W61329  16.221  32.056   3.728
96345W        W61330  34.439   1.361   3.051
96346W        W61331  24.906  20.368  13.513
96347W        W61332  44.130  30.202   9.948
96348W        W61333  27.094  22.474  13.454
96349W        W61334  42.729   9.680  14.453
96350W        W61335  31.141  43.058   2.205
96351W        W61336  17.504  41.945  12.603
96352W        W61337  34.392  40.529   1.262
96353W        W61338  24.177  36.798   1.823
96354W        W61339   9.272  41.616  13.998
96355W        W61340  19.030  23.990  11.082
96356W        W61341  12.219   9.034  12.852
96357W        W61342  29.324  23.535  10.301
96358W        W61343   9.938  20.030  14.817
96359W        W61344  13.625  25.501  14.998
96360W        W61345  27.933  31.170  13.892
96361W        W61346  17.160  32.670  11.038
96362W        W61347  22.668  39.346   0.523
96363W        W61348  16.012  20.271  12.628
96364W        W61349  11.244  15.597  10.416
96365W        W61350  41.629  32.545   4.253
96366W        W61351  18.777  26.641  14.337
96367W        W61352  35.451  33.081  13.414
96368W        W61353  25.267  30.008   0.023
96369W        W61354  34.940  40.406   4.498
96370W        W61355  43.810   2.258   4.260
96371W        W61356  19.024  42.045  11.557
96372W        W61357  31.447  11.738   2.816
96373W        W61358  13.692  43.818   1.311
96374W        W61359  34.814   2.167   3.998
96375W        W61360  20.048  11.151  10.961
96376W        W61361  38.992  33.060   3.718
96377W        W61362  36.602  40.022   4.719
96378W        W61363  31.958  11.571  14.846
96379W        W61364  32.368  40.876  13.431
96380W        W61365  35.805  15.588   1.389
96381W        W61366  31.082  35.948  14.807
96382W        W61367  14.456  14.756  12.159
96383W        W61368  33.498  18.555  10.269
96384W        W61369  22.700   3.211   3.657
96385W        W61370  38.386  14.605  14.002
96386W        W61371  27.165  15.047  13.463
96387W        W61372  23.749  35.619   3.178
96388W        W61373  18.703  30.705  10.636
96389W        W61374  10.069  11.808  12.449
96390W        W61375  39.890  44.298  12.066
96391W        W61376  19.129  34.886   4.580
96392W        W61377  28.979   0.396   1.932
96393W        W61378  21.319   8.603  10.438
96394W        W61379  34.113   6.605  14.106
96395W        W61380  41.798   0.228  13.005
96396W        W61381  23.759   5.420  10.904
96397W        W61382  32.188  35.004   2.723
96398W        W61383  14.059  24.506  11.684
96399W        W61384  40.020  11.198   4.213
96400W        W61385  31.855  16.009  13.929
96401W        W61386  12.370  28.461  13.479
96402W        W61387  42.626  20.222  13.848
96403W        W61388   0.937  42.876   0.061
96404W        W61389  43.504   6.732  12.358
96405W        W61390  30.517   5.921  14.486
96406W        W61391  19.245  43.755  12.216
96407W        W61392   2.046  27.159  13.086
96408W        W61393   2.340  39.245   0.354
96409W        W61394   4.422  28.590   3.275
96410W        W61395  38.993  13.355  11.130
96411W        W61396  31.652  20.178  12.395
96412W        W61397   6.232  29.586   3.952
96413W        W61398  37.514  41.514  12.033
96414W        W61399   0.768  18.012   4.120
96415W        W61400  13.136  14.573  13.899
96416W        W61401  42.940  27.611  13.575
96417W        W61402  29.483  11.811   1.123
96418W        W61403   6.183  28.934  14.230
96419W        W61404  40.068   2.302  13.426
96420W        W61405  18.756   1.679  10.153
96421W        W61406   6.948   9.660  13.348
96422W        W61407  35.014  38.816   2.724
96423W        W61408  28.133  41.614   4.564
96424W        W61409   6.938  25.563   2.543
96425W        W61410  42.776   3.492   1.381
96426W        W61411   4.370  14.182  13.588
96427W        W61412  20.397   1.067  11.663
96428W        W61413  28.502  20.308  11.192
96429W        W61414  26.041  11.206   3.702
96430W        W61415  22.163  13.141  13.509
96431W        W61416  12.871  39.304  13.513
96432W        W61417  44.599  32.382  14.042
96433W        W61418  43.829  39.056   4.996
96434W        W61419  16.833   4.667  13.455
96435W        W61420  29.132  36.828   3.263
96436W        W61421   8.306  30.423   2.719
96437W        W61422  27.197  14.225   3.248
96438W        W61423  37.852   1.531   0.378
96439W        W61424  23.038  24.467  13.930
96440W        W61425  27.239  22.080   2.847
96441W        W61426  28.896  30.107   9.783
96442W        W61427  30.859  25.782  11.632
96443W        W61428  15.825  31.548  11.311
96444W        W61429   6.416  24.134   4.526
96445W        W61430   4.950  38.373   3.764
96446W        W61431  34.382  11.544  10.287
96447W        W61432   8.559  20.082   2.973
96448W        W61433  39.504  37.310  11.967
96449W        W61434   9.971  40.620   3.358
96450W        W61435   6.264  30.188   3.095
96451W        W61436  27.393   9.849   0.283
96452W        W61437  17.160  29.998  10.998
96453W        W61438  22.167   3.629   2.240
96454W        W61439  22.437   4.165   1.072
96455W        W61440  16.080   6.423   2.436
96456W        W61441  42.913  36.880   0.018
96457W        W61442  43.770  38.846  13.440
96458W        W61443   3.837  20.636   3.189
96459W        W61444   4.696  29.230   0.981
96460W        W61445  10.155  22.817   4.954
96461W        W61446  26.662  31.094   0.250
96462W        W61447  39.495   6.883   2.335
96463W        W61448   0.873   2.288   0.927
96464W        W61449  40.310  24.552   4.487
96465W        W61450   2.853  10.775  11.262
96466W        W61451  29.676   4.284   4.959
96467W        W61452  27.260  25.810   0.916
96468W        W61453  36.452   5.994   5.380
96469W        W61454  40.737  25.541   2.756
96470W        W61455   4.357  34.009   2.313
96471W        W61456  12.274  44.497   2.866
96472W        W61457  31.970  16.846   3.348
96473W        W61458  42.541   1.942  10.680
96474W        W61459   8.306  28.866  12.675
96475W        W61460  12.032  22.353  11.626
96476W        W61461  36.148   7.510   4.100
96477W        W61462  20.684  13.659   3.615
96478W        W61463  13.794  23.964  12.496
96479W        W61464  21.338  18.190   3.214
96480W        W61465  19.303   0.083   4.265
96481W        W61466   7.648   5.132   1.946
96482W        W61467  36.108  11.742  11.854
96483W        W61468  43.284  30.963  13.456
96484W        W61469  33.898  35.017  13.424
96485W        W61470   6.200   9.301   4.664
96486W        W61471  38.945  40.983   2.247
96487W        W61472  43.278  27.659  14.507
96488W        W61473  19.169  44.485   3.142
96489W        W61474  16.472  18.330  12.082
96490W        W61475   5.811  22.081   4.688
96491W        W61476  44.252  20.366   0.351
96492W        W61477   7.265  44.782  13.787
96493W        W61478  25.198  42.919  13.824
96494W        W61479  30.222   5.690  12.681
96495W        W61480  38.792  14.684   2.502
96496W        W61481  25.953  40.243   2.282
96497W        W61482   6.219  38.492   1.589
96498W        W61483   2.961  27.476   1.515
96499W        W61484  35.717  11.671   2.206
96500W        W61485   0.534  25.059   1.582
96501W        W61486  42.607  30.972  11.059
96502W        W61487  19.550  24.087  11.071
96503W        W61488  18.499  24.209  12.853
96504W        W61489  12.059  35.434   0.449
96505W        W61490  26.992  33.512   3.190
96506W        W61491   8.253  24.513   0.296
96507W        W61492  16.031   2.265   3.224
96508W        W61493  43.988   6.349  13.773
96509W        W61494   8.151  17.325   4.856
96510W        W61495  22.483  15.053   0.273
96511W        W61496  32.975  26.370  12.635
96512W        W61497  22.968  26.651  13.377
96513W        W61498   3.311  31.728  10.475
96514W        W61499  44.377  40.303   4.033
96515W        W61500   4.262  30.778  10.443
96516W        W61501  36.930   4.175  13.038
96517W        W61502  44.882   7.140  12.579
96518W        W61503  27.136  38.361   4.241
96519W        W61504  20.513   2.921  12.971
96520W        W61505   3.397  40.848   4.771
96521W        W61506   8.951  10.861   3.444
96522W        W61507   9.347  41.311  10.193
96523W        W61508  15.745  23.810   4.229
96524W        W61509  39.191  38.152  14.531
96525W        W61510   8.897  25.691  14.564
96526W        W61511   2.583   5.031  11.090
96527W        W61512  25.136  38.503  12.433
96528W        W61513   0.526  22.093   0.019
96529W        W61514  35.897  14.499  11.169
96530W        W61515   1.951  40.074   1.031
96531W        W61516  40.082   1.799   1.846
96532W        W61517  31.120  40.834  13.013
96533W        W61518   9.312   9.392   0.920
96534W        W61519   7.443  12.300  10.735
96535W        W61520   6.402  20.020  14.319
96536W        W61521  44.805   5.140   0.267
96537W        W61522  29.225   9.177   2.896
96538W        W61523   7.267  24.692   3.247
96539W        W61524  16.529   6.438  10.634
96540W        W61525  12.783   8.853   2.220
96541W        W61526  26.084  37.442   3.129
96542W        W61527  38.084   1.666   2.282
96543W        W61528  34.927  14.086  12.111
96544W        W61529   8.463  37.190   2.553
96545W        W61530   6.301  16.753   4.781
96546W        W61531  18.101  26.057  11.918
96547W        W61532  41.857  21.667   3.708
96548W        W61533  29.688   6.699  14.927
96549W        W61534  12.379  38.451   4.622
96550W        W61535  36.401  25.427  10.951
96551W        W61536  33.930  39.887   0.962
96552W        W61537   1.207  38.041  13.108
96553W        W61538  30.449  33.787  13.973
96554W        W61539   0.245  38.024  12.166
96555W        W61540  37.175  17.289  12.880
96556W        W61541  13.884  23.156  13.846
96557W        W61542  11.791  14.407   1.830
96558W        W61543  35.940   0.765  10.792
96559W        W61544  36.549   6.854  10.689
96560W        W61545  11.113  42.908  13.332
96561W        W61546  10.267  26.911  11.166
96562W        W61547  44.054  34.107  11.371
96563W        W61548   6.261  32.488   4.126
96564W        W61549  35.443  10.504  14.998
96565W        W61550   6.386  25.195   3.132
96566W        W61551  39.456   5.324   4.997
96567W        W61552   8.629   0.533  14.309
96568W        W61553  35.603  40.973   0.866
96569W        W61554  36.623  11.726  13.032
96570W        W61555   0.364  18.129  13.067
96571W        W61556  26.623  39.234  12.066
96572W        W61557   3.465  25.133   3.183
96573W        W61558  27.633   4.123   3.748
96574W        W61559  24.275  13.547  11.131
96575W        W61560  10.826  14.703  14.466
96576W        W61561  43.967  12.882  10.546
96577W        W61562  35.326  22.232   1.411
96578W        W61563   5.774  28.555  13.791
96579W        W61564  35.402   5.122  11.929
96580W        W61565  42.074   1.738  14.475
96581W        W61566  26.134  10.976  12.460
96582W        W61567  32.388  39.794  10.796
96583W        W61568  40.946  18.780  12.876
96584W        W61569  14.007  18.203   1.436
96585W        W61570   0.503  24.580  12.150
96586W        W61571  20.260  24.995   2.174
96587W        W61572  10.449  40.901   4.465
96588W        W61573  43.887  41.875   2.261
96589W        W61574  42.933  28.362  14.480
96590W        W61575  12.252   0.023   2.970
96591W        W61576  12.622  30.605  11.247
96592W        W61577  23.213  21.004  10.900
96593W        W61578  13.710  42.577  14.369
96594W        W61579  14.293  24.045   0.396
96595W        W61580  14.817  33.168   0.954
96596W        W61581   0.986   2.227   1.943
96597W        W61582  24.698  30.613  13.132
96598W        W61583  41.119   8.968  13.566
96599W        W61584  25.398  32.489  12.164
96600W        W61585  36.508   9.071   1.707
96601W        W61586  27.443  16.667  10.665
96602W        W61587  20.768  12.351  12.457
96603W        W61588  21.345  42.391  14.903
96604W        W61589  35.896  19.882  12.881
96605W        W61590   4.327  42.734  12.472
96606W        W61591   3.251  23.680  11.207
96607W        W61592   0.518  39.855   4.530
96608W        W61593   7.810  13.765  11.541
96609W        W61594  28.092  34.314  11.182
96610W        W61595   5.407   6.189   1.664
96611W        W61596  36.739  28.076  12.033
96612W        W61597  43.244  24.489   4.676
96613W        W61598  36.649   0.387   3.352
96614W        W61599   1.480   9.646  12.616
96615W        W61600  13.186  30.650   0.826
96616W        W61601   7.564  44.850   3.709
96617W        W61602   3.937  43.357  13.532
96618W        W61603   0.731  38.973  14.723
96619W        W61604   3.070   8.317   4.557
96620W        W61605   5.427  17.621   0.751
96621W        W61606  14.499  12.267   1.083
96622W        W61607  34.979  19.462  11.913
96623W        W61608  34.528  33.487   4.225
96624W        W61609  34.469   9.857  11.648
96625W        W61610  28.054  13.058  12.447
96626W        W61611  33.576   1.767   3.768
96627W        W61612  35.902  28.391   1.742
96628W        W61613  12.509  40.208   2.695
96629W        W61614  41.206   8.612  14.411
96630W        W61615  19.113  38.532   3.952
96631W        W61616  15.140  24.606   0.419
96632W        W61617  29.682  32.654   4.930
96633W        W61618  36.330   9.867   0.861
96634W        W61619  24.506   0.658   4.494
96635W        W61620  33.742   0.831   4.130
96636W        W61621  26.724  42.854  11.620
96637W        W61622  17.423  26.232   1.477
96638W        W61623  42.826   5.417   4.689
96639W        W61624   2.444   6.054   0.955
96640W        W61625  19.211  37.010  11.666
96641W        W61626   3.419  17.406   4.206
96642W        W61627  34.513  37.951   4.523
96643W        W61628  44.444  27.583   4.132
96644W        W61629  23.696  33.923  10.359
96645W        W61630  22.722  44.906   1.006
96646W        W61631  35.637  37.311   4.977
96647W        W61632   7.802  21.785  14.820
96648W        W61633   4.923   8.626  10.698
96649W        W61634   9.306  16.996  10.022
96650W        W61635  31.385   5.800   4.302
96651W        W61636   7.226  27.026   1.598
96652W        W61637   3.432  10.166   1.643
96653W        W61638  25.201  13.626   1.097
96654W        W61639  19.483  38.971   3.877
96655W        W61640  19.367  32.139   4.057
96656W        W61641  35.533   8.930   1.926
96657W        W61642   5.674  21.500  13.201
96658W        W61643  41.989  41.976  14.497
96659W        W61644  43.864  22.723  11.407
96660W        W61645  33.353  15.421   5.006
96661W        W61646   6.443  29.419  13.962
96662W        W61647  31.431   0.967   2.729
96663W        W61648  41.304  41.970  12.622
96664W        W61649   3.966  18.785  12.669
96665W        W61650  16.732  30.747  12.578
96666W        W61651  29.149   3.674  13.013
96667W        W61652  36.594  32.613   3.121
96668W        W61653  19.016  19.051  14.494
96669W        W61654  19.666  17.234   2.294
96670W        W61655  23.753  34.452  14.616
96671W        W61656  33.892  28.204  12.451
96672W        W61657  44.866   0.957   1.831
96673W        W61658  25.229   9.572   4.060
96674W        W61659  10.873  24.768  10.597
96675W        W61660  43.848  42.177   1.686
96676W        W61661   2.476  44.710   4.625
96677W        W61662  33.149  35.493  11.605
96678W        W61663  29.153  41.802  12.773
96679W        W61664  43.620  35.921  13.909
96680W        W61665  25.929  27.507   3.284
96681W        W61666  12.042  44.947   1.351
96682W        W61667   1.880  23.937  14.905
96683W        W61668  39.675   1.310  12.956
96684W        W61669  43.053   5.677   1.855
96685W        W61670   0.890   1.882  10.911
96686W        W61671  24.485   2.841   0.362
96687W        W61672  30.974  40.319  13.779
96688W        W61673   7.134   4.230   0.840
96689W        W61674  11.863  25.047  10.713
96690W        W61675  26.547  40.491  11.096
96691W        W61676  32.036  35.118   3.561
96692W        W61677  22.721  41.951   1.069
96693W        W61678  21.256  35.362   3.384
96694W        W61679  17.568   8.745   0.285
96695W        W61680  17.881   6.115  13.110
96696W        W61681  29.042  15.975  14.744
96697W        W61682   6.396  44.947   4.092
96698W        W61683   0.409   8.082   4.603
96699W        W61684   2.563  28.029   2.320
96700W        W61685  22.186   1.741   0.713
96701W        W61686   3.892   4.645  14.192
96702W        W61687  23.183  24.043   2.824
96703W        W61688   9.261   6.733   0.014
96704W        W61689  43.208  25.191   5.334
96705W        W61690  37.420  43.901   2.244
96706W        W61691  11.274  29.150  12.107
96707W        W61692  38.170  39.237  14.765
96708W        W61693  18.315   2.471   3.166
96709W        W61694  29.165   7.299   0.687
96710W        W61695   3.767  30.891  11.129
96711W        W61696  20.270  27.559  13.334
96712W        W61697  15.529  27.927   1.692
96713W        W61698  34.156  41.667   2.732
96714W        W61699  10.314  33.395  10.952
96715W        W61700  22.512   6.679  13.373
96716W        W61701  29.226  21.757  14.837
96717W        W61702   5.340  37.179   4.230
96718W        W61703   1.368   5.449  13.368
96719W        W61704  21.084   2.803  12.067
96720W        W61705  20.722   8.429   2.411
96721W        W61706  13.550  27.185   9.867
96722W        W61707  26.185  36.398  14.443
96723W        W61708  37.394  20.537   1.446
96724W        W61709  24.131  25.038   0.375
96725W        W61710  40.031   9.211   4.161
96726W        W61711  21.355  10.201  10.740
96727W        W61712  28.964   8.416  13.422
96728W        W61713  33.752  34.380   2.789
96729W        W61714  33.363  25.513   0.711
96730W        W61715  16.588  11.630   0.243
96731W        W61716  37.784  37.370  12.577
96732W        W61717  38.443   7.638   0.630
96733W        W61718  29.395  27.016   4.639
96734W        W61719  39.881   3.477   3.683
96735W        W61720   4.201  12.135  12.878
96736W        W61721   3.179   0.322   3.393
96737W        W61722  40.741  43.324   3.192
96738W        W61723   3.804  15.821  14.810
96739W        W61724  33.652  36.581   3.349
96740W        W61725  26.790  32.023   0.381
96741W        W61726  17.463  28.485  10.366
96742W        W61727  40.794  33.548  11.266
96743W        W61728  43.876  14.130   4.177
96744W        W61729  14.683  37.111   0.520
96745W        W61730  29.464  37.396   1.374
96746W        W61731  33.621  11.981   1.554
96747W        W61732  15.198   2.300  12.535
96748W        W61733  19.743   0.173  14.025
96749W        W61734  17.093  16.369  10.961
96750W        W61735  11.778  32.487   1.780
96751W        W61736  44.507  13.750  13.434
96752W        W61737   0.262  29.086   4.115
96753W        W61738  28.508  32.434   2.813
96754W        W61739  20.124  11.208  10.455
96755W        W61740  31.027   5.040   3.530
96756W        W61741  29.266  13.826   4.133
96757W        W61742   4.160  32.450  12.463
96758W        W61743   5.127  21.103  14.039
96759W        W61744  39.147  39.204   1.029
96760W        W61745  31.461  10.178  11.604
96761W        W61746  17.140   0.372   3.728
96762W        W61747  30.712  19.816   3.195
96763W        W61748   5.312  14.753  11.608
96764W        W61749  35.029  36.602   4.129
96765W        W61750   5.424  17.198  11.585
96766W        W61751  37.437  19.673   2.188
96767W        W61752  24.562  27.121  12.883
96768W        W61753  27.788  42.969  10.304
96769W        W61754  10.500   2.970   0.832
96770W        W61755   9.890  35.281  14.778
96771W        W61756  17.198   9.676  10.025
96772W        W61757   5.034   8.677  12.834
96773W        W61758  41.601  10.797   3.152
96774W        W61759   0.336  33.952  10.784
96775W        W61760  37.738  26.281  12.925
96776W        W61761  31.287  18.941  13.979
96777W        W61762  14.654  34.947   1.677
96778W        W61763  10.607  42.500   4.060
96779W        W61764  16.128  34.315  14.840
96780W        W61765   0.782  39.037   4.539
96781W        W61766   7.308   6.333   4.452
96782W        W61767  28.400   8.233   4.545
96783W        W61768   0.959  20.515   2.993
96784W        W61769  36.597  16.090  13.025
96785W        W61770  28.568  38.296  14.915
96786W        W61771  15.400  37.217   4.106
96787W        W61772  37.386  38.996   0.203
96788W        W61773   8.375  41.720   0.612
96789W        W61774  40.559  10.701  12.337
96790W        W61775   3.051  20.222   0.814
96791W        W61776   0.998  35.417   2.443
96792W        W61777   6.232  15.713  11.032
96793W        W61778  34.976  16.765  10.979
96794W        W61779  21.673   7.662  13.765
96795W        W61780  44.482   5.263  13.431
96796W        W61781   2.589  40.625   4.482
96797W        W61782   3.980  34.962   4.919
96798W        W61783  17.145   6.636  14.704
96799W        W61784  10.823  21.610   0.376
96800W        W61785  19.731  43.462  14.907
96801W        W61786   8.169  17.263   0.405
96802W        W61787  33.086  29.694   3.241
96803W        W61788   9.785   6.385   3.730
96804W        W61789   2.469  43.798   3.746
96805W        W61790  28.685   7.657  14.822
96806W        W61791  29.763  35.384  11.925
96807W        W61792   2.528  39.569   2.695
96808W        W61793  36.980   4.719  11.090
96809W        W61794  36.056   4.417   4.076
96810W        W61795   0.868  36.967  13.948
96811W        W61796  31.884  43.282  14.244
96812W        W61797  30.083  35.926   1.881
96813W        W61798  11.058  16.198   4.415
96814W        W61799  12.623  40.859   0.837
96815W        W61800  24.726  18.856  14.933
96816W        W61801  11.214   0.947  12.188
96817W        W61802  44.194   2.255  11.010
96818W        W61803  37.422  43.139   3.039
96819W        W61804  30.599  37.449  12.567
96820W        W61805  32.176  43.021   0.144
96821W        W61806  29.981  35.985   1.336
96822W        W61807  35.291  31.215  11.381
96823W        W61808  31.896  37.834   2.668
96824W        W61809  20.136   9.379  11.723
96825W        W61810   6.156   0.335  13.813
96826W        W61811  44.045  24.227   0.192
96827W        W61812  33.845  39.859  14.341
96828W        W61813  42.775  33.344  11.780
96829W        W61814  12.171  38.558  12.061
96830W        W61815   4.941   1.388   1.384
96831W        W61816  14.934  35.528   0.890
96832W        W61817  40.548  39.028  10.237
96833W        W61818  24.087  32.010   0.565
96834W        W61819   2.650  28.408  13.901
96835W        W61820  38.414  34.352  10.503
96836W        W61821   4.328  43.760   1.122
96837W        W61822   7.132  34.417   1.440
96838W        W61823  19.510  31.250  10.607
96839W        W61824  14.139  37.627   3.708
96840W        W61825  23.350  26.911  12.990
96841W        W61826  38.600  10.723   3.835
96842W        W61827  28.992   6.601  14.069
96843W        W61828  33.889  13.176  10.671
96844W        W61829  34.164  30.752  13.488
96845W        W61830   7.989  31.941   1.415
96846W        W61831  31.538  12.250   2.819
96847W        W61832  31.132  42.996  12.148
96848W        W61833  17.602   8.309   1.590
96849W        W61834  21.448   0.253  11.289
96850W        W61835   8.878  43.878   3.570
96851W        W61836  38.013   2.470   1.558
96852W        W61837   9.625  42.800  14.291
96853W        W61838  42.080   5.659  13.155
96854W        W61839   6.018   4.298   4.597
96855W        W61840  43.174  29.577   2.323
96856W        W61841  23.980  12.567  10.728
96857W        W61842  35.082  18.582   4.582
96858W        W61843  20.607  30.625   1.513
96859W        W61844  27.997   6.657   1.940
96860W        W61845   2.352  32.960  11.976
96861W        W61846  12.707  31.890   1.814
96862W        W61847  29.701  21.668  11.441
96863W        W61848  28.466  41.265  10.254
96864W        W61849  24.580  24.743   0.433
96865W        W61850  14.207  16.812   3.927
96866W        W61851   1.241  11.896  12.085
96867W        W61852  36.862  31.187  13.545
96868W        W61853   7.587  18.612   1.038
96869W        W61854  39.011  18.180   1.710
96870W        W61855  39.993  42.476   4.131
96871W        W61856   5.681  14.391  13.316
96872W        W61857  22.179  30.223   3.138
96873W        W61858  39.333  27.085  10.484
96874W        W61859  44.551  28.061  11.685
96875W        W61860   4.224  17.101  10.391
96876W        W61861  13.835  39.268   3.302
96877W        W61862  27.504  17.778   4.912
96878W        W61863  20.031  44.988  14.428
96879W        W61864  21.613   0.218  12.624
96880W        W61865   7.804  33.672   1.791
96881W        W61866   0.004   6.911   1.327
96882W        W61867   4.505  12.313  11.968
96883W        W61868  31.409   2.021   3.654
96884W        W61869   4.230   1.273  14.495
96885W        W61870   3.552  39.595  13.206
96886W        W61871  30.112  40.121  13.453
96887W        W61872  20.648   8.963   0.486
96888W        W61873  29.935  12.371  13.380
96889W        W61874  12.782  43.242  11.611
96890W        W61875  37.406  26.417  13.340
96891W        W61876  37.267  35.819   1.614
96892W        W61877   0.477  43.814   0.454
96893W        W61878  15.987  28.062  13.455
96894W        W61879  17.676   6.583  11.242
96895W        W61880  33.403  22.387   4.997
96896W        W61881  43.949  14.101  10.292
96897W        W61882  31.910  37.907   5.150
96898W        W61883   8.407  40.496  12.475
96899W        W61884   6.409   0.218   1.276
96900W        W61885   1.876  19.116   4.675
96901W        W61886  44.302  19.807  13.092
96902W        W61887  42.349  16.295   0.458
96903W        W61888  12.366  23.549   2.118
96904W        W61889  43.266  14.631   0.666
96905W        W61890   8.424  13.786   2.665
96906W        W61891   8.566  16.254  14.517
96907W        W61892   9.351  10.881   3.748
96908W        W61893  28.285  38.287  11.091
96909W        W61894  16.002  16.162   3.800
96910W        W61895   7.074  35.327   1.455
96911W        W61896  21.992  34.515  13.372
96912W        W61897   4.243  34.101   4.263
96913W        W61898   4.404  22.749  11.722
96914W        W61899  25.691   3.083  14.548
96915W        W61900  28.786  10.487  11.040
96916W        W61901  25.501   5.075   4.435
96917W        W61902  10.699  26.765   4.187
96918W        W61903  21.255  29.085   2.763
96919W        W61904   6.145  20.660   0.968
96920W        W61905  11.703  21.211   1.316
96921W        W61906  13.123  25.290  13.422
96922W        W61907   3.547   3.540  11.513
96923W        W61908  29.814  23.481  13.709
96924W        W61909   2.521  29.830  13.519
96925W        W61910  27.460  11.304  11.095
96926W        W61911   2.317  37.108   1.642
96927W        W61912  22.582  44.500   0.223
96928W        W61913  23.021  19.465  13.909
96929W        W61914   4.423   2.083  13.453
96930W        W61915   5.120  44.391  10.580
96931W        W61916  29.879   5.725  13.899
96932W        W61917  23.126   2.080  14.407
96933W        W61918   7.124  37.366   2.195
96934W        W61919   3.461  12.795   2.646
96935W        W61920  13.623  26.432  13.171
96936W        W61921  22.121  13.396   2.349
96937W        W61922  33.080  43.773   3.130
96938W        W61923  27.184   7.613   0.881
96939W        W61924  26.146  14.089  12.543
96940W        W61925  16.655  29.356   3.398
96941W        W61926   9.978  17.347   3.068
96942W        W61927  12.379  39.623   4.229
96943W        W61928  10.281  43.731  10.298
96944W        W61929  22.448  27.528   0.300
96945W        W61930  16.248  43.900   4.655
96946W        W61931  42.872   0.333  12.619
96947W        W61932   2.513  26.598   4.068
96948W        W61933  38.826  19.126   1.947
96949W        W61934  27.306  36.742  11.164
96950W        W61935  11.065   0.375   1.314
96951W        W61936  29.993  13.915   4.530
96952W        W61937  20.526   0.491  13.454
96953W        W61938  11.381   7.770   2.756
96954W        W61939  33.374   7.694   1.427
96955W        W61940  36.485  17.320   3.273
96956W        W61941   0.063  37.924   4.962
96957W        W61942  38.548  15.817  12.330
96958W        W61943  35.074  17.256  12.493
96959W        W61944  19.673  42.745  11.602
96960W        W61945  32.893  36.340  14.497
96961W        W61946  41.484  21.515   4.667
96962W        W61947  10.932  22.171   3.624
96963W        W61948  40.313  40.283  14.414
96964W        W61949  31.135  20.154   4.861
96965W        W61950  32.534  36.205   4.140
96966W        W61951  13.213  41.828  10.896
96967W        W61952  10.734  23.615  12.651
96968W        W61953  13.781   0.790  12.039
96969W        W61954  30.418  28.436  13.296
96970W        W61955  32.841  13.150  14.298
96971W        W61956  17.958  32.986  14.810
96972W        W61957  29.797   3.398   0.280
96973W        W61958  18.954  36.817   0.581
96974W        W61959  20.456  29.829   4.852
96975W        W61960  38.552   5.751   3.340
96976W        W61961  13.036  41.401   1.404
96977W        W61962  32.547  44.886   2.751
96978W        W61963   8.168  37.565  10.665
96979W        W61964  28.439  25.741  13.135
96980W        W61965   3.300  42.686   2.988
96981W        W61966   7.743  43.979   3.641
96982W        W61967   1.744  10.060  12.529
96983W        W61968  37.752  15.465  11.690
96984W        W61969  40.194  23.587  13.970
96985W        W61970  27.066  40.835  14.856
96986W        W61971   0.219   3.469   0.431
96987W        W61972   1.511  39.267  14.791
96988W        W61973  24.693  35.243   2.727
96989W        W61974  16.101  22.968   1.425
96990W        W61975  39.078  23.598   0.459
96991W        W61976  18.020  43.851  14.920
96992W        W61977  33.611  32.383   3.674
96993W        W61978  31.921   4.402  12.983
96994W        W61979  37.608  39.581   0.369
96995W        W61980  18.106   8.850   4.119
96996W        W61981  15.232   6.847  11.864
96997W        W61982  23.498  29.242   3.168
96998W        W61983  22.569  18.123  13.718
96999W        W61984  31.881   7.403  11.169
97000W        W61985  24.787   4.399   4.451
97001W        W61986  42.484  37.621   4.817
97002W        W61987  18.254  42.418   2.241
97003W        W61988  39.629  11.639  12.197
97004W        W61989  21.742  44.280  12.225
97005W        W61990   7.193  24.130  11.441
97006W        W61991  16.436  25.675   3.218
97007W        W61992  35.110  37.076   0.636
97008W        W61993   3.269  27.112   1.291
97009W        W61994  17.330  10.816   4.753
97010W        W61995  12.467  10.577  11.503
97011W        W61996   9.816  30.429   2.212
97012W        W61997  15.684  43.322   0.496
97013W        W61998  40.949   3.735  12.395
97014W        W61999  12.794  12.718  12.299
97015W        W62000  21.774   8.334  12.271
97016W        W62001   9.897  17.554  12.576
97017W        W62002  37.128   0.233   2.457
97018W        W62003   6.264   2.224  14.870
97019W        W62004   8.794  37.629   1.883
97020W        W62005  34.083  21.385  13.921
97021W        W62006   7.819  17.212  14.120
97022W        W62007   4.293  23.717  14.419
97023W        W62008   0.165  12.778  12.080
97024W        W62009  19.203   8.834  14.880
97025W        W62010  11.725  13.244  12.554
97026W        W62011  12.160  29.855   3.744
97027W        W62012   1.996   8.327   1.545
97028W        W62013   6.779  23.537  13.923
97029W        W62014   2.441   4.509   1.408
97030W        W62015  32.004  41.520   2.127
97031W        W62016  10.179   4.411   4.609
97032W        W62017   8.205  36.976  12.792
97033W        W62018  31.587   8.851   5.164
97034W        W62019  21.282   0.356   2.848
97035W        W62020  26.054  12.810   4.590
97036W        W62021   7.562  17.030   3.743
97037W        W62022   7.230  16.071  14.424
97038W        W62023  11.639   1.781  14.863
97039W        W62024  29.194   2.882  13.440
97040W        W62025   8.653  12.805   2.680
97041W        W62026  36.823   2.411  13.343
97042W        W62027   2.168  33.573   4.940
97043W        W62028  39.352  16.728  13.238
97044W        W62029  43.906  15.436   2.074
97045W        W62030   5.557  31.041   3.414
97046W        W62031  22.541  11.657   3.787
97047W        W62032  15.319   9.772   1.646
97048W        W62033  21.459  21.537  13.398
97049W        W62034  42.360   9.709   0.740
97050W        W62035   5.683  31.084  12.356
97051W        W62036  38.283  17.540  12.702
97052W        W62037  10.308  38.779  12.771
97053W        W62038  12.200  29.974  13.839
97054W        W62039  19.957   7.625   0.259
97055W        W62040   8.600  11.828  12.501
97056W        W62041  40.141   2.173  12.061
97057W        W62042  25.723  26.109   0.464
97058W        W62043  39.724  42.415  11.851
97059W        W62044  30.978  44.672   0.413
97060W        W62045  26.469   9.870  13.928
97061W        W62046  42.858  40.387   2.164
97062W        W62047   8.418   6.911   1.180
97063W        W62048  44.951   5.649   0.379
97064W        W62049  14.792  38.994  11.654
97065W        W62050   9.359  21.415  10.476
97066W        W62051  36.481  18.094   2.619
97067W        W62052  12.949  12.709  10.768
97068W        W62053  16.196  20.517  14.729
97069W        W62054  25.467   5.327   2.505
97070W        W62055  32.209  17.647   1.820
97071W        W62056  10.451  14.133  11.733
97072W        W62057  34.161  29.933   0.161
97073W        W62058   5.504   9.878   3.125
97074W        W62059  22.703  10.988  13.941
97075W        W62060  10.193  16.565   3.311
97076W        W62061  18.693  24.350   5.176
97077W        W62062  35.292  43.471  13.624
97078W        W62063  13.565  11.447   1.904
97079W        W62064   9.093   1.916  10.875
97080W        W62065  40.979  17.555   3.077
97081W        W62066   2.347  18.298   0.839
97082W        W62067  15.580  14.001  11.981
97083W        W62068  42.324   7.376  13.934
97084W        W62069  38.606  39.419   4.784
97085W        W62070   9.902   7.418   1.686
97086W        W62071   9.509  30.029   4.274
97087W        W62072  20.546   7.199  11.089
97088W        W62073   3.194   6.877  12.556
97089W        W62074   8.307   1.502   1.333
97090W        W62075   3.755  40.850   4.235
97091W        W62076  35.929  19.103  13.498
97092W        W62077  17.123  37.168   2.700
97093W        W62078   1.999  29.608  14.848
97094W        W62079   6.802  30.472   0.008
97095W        W62080  16.872  18.490  11.180
97096W        W62081   1.075  16.067  13.134
97097W        W62082  21.275   5.902  11.079
97098W        W62083  30.496  14.177  13.076
97099W        W62084  17.477  33.437   3.086
97100W        W62085  37.644  26.611   1.215
97101W        W62086  12.853  14.811  11.119
97102W        W62087  44.403   4.938  11.591
97103W        W62088  21.023   4.171  13.636
97104W        W62089  24.560  13.319   2.779
97105W        W62090  33.888   4.402  12.131
97106W        W62091  10.887  40.365   3.768
97107W        W62092  25.858  39.254  10.774
97108W        W62093  38.924  12.662   3.397
97109W        W62094  23.483  23.024   3.655
97110W        W62095  27.605  22.056   1.425
97111W        W62096   9.375  41.752   1.277
97112W        W62097  44.307  37.572   4.165
97113W        W62098  24.305  38.598   0.788
97114W        W62099  28.135  12.189   2.819
97115W        W62100  43.424   9.725   1.777
97116W        W62101  33.528  39.306   1.281
97117W        W62102  25.742  32.067   3.069
97118W        W62103  11.541  35.326   1.799
97119W        W62104  22.225   2.288  10.764
97120W        W62105  43.795  12.119  13.466
97121W        W62106  22.261  35.849  14.834
97122W        W62107   9.247  30.215  14.867
97123W        W62108   7.889  17.536  12.172
97124W        W62109   5.254  25.500   0.275
97125W        W62110  36.698  13.394  13.915
97126W        W62111   8.700  42.889   0.993
97127W        W62112  19.840  37.460   3.831
97128W        W62113   8.746  14.557   2.192
97129W        W62114  31.380  32.181  10.758
97130W        W62115  38.853   3.788  14.921
97131W        W62116  21.781  15.029   3.707
97132W        W62117  31.888  25.266  12.084
97133W        W62118  23.095  30.868  10.995
97134W        W62119  22.525  18.704  12.029
97135W        W62120  43.508  43.292  12.985
97136W        W62121  16.841  17.903   3.095
97137W        W62122  30.870   8.060  11.107
97138W        W62123  14.817  41.253   0.768
97139W        W62124  18.776  38.825   2.413
97140W        W62125  43.567  23.120  10.277
97141W        W62126  36.441   4.117  11.953
97142W        W62127  44.278  29.798  11.293
97143W        W62128  22.119   1.020   1.333
97144W        W62129  22.577  28.878  14.999
97145W        W62130  38.445  21.109   3.374
97146W        W62131   4.468  26.777   1.642
97147W        W62132  40.923   6.061  13.008
97148W        W62133  30.162  20.530   4.149
97149W        W62134  44.882  42.951   3.184
97150W        W62135  39.980  26.167   0.257
97151W        W62136   8.455  11.590   2.721
97152W        W62137   2.401  36.560  13.964
97153W        W62138   4.471  19.934  11.920
97154W        W62139  13.276   1.042  12.916
97155W        W62140  21.119   4.273  11.569
97156W        W62141   3.445  33.898  12.023
97157W        W62142  28.077  36.369   0.826
97158W        W62143   9.139   1.200   4.885
97159W        W62144  41.682  39.940  11.180
97160W        W62145  14.045  31.404   2.752
97161W        W62146  11.166  11.704  11.707
97162W        W62147   0.640   8.525   4.236
97163W        W62148  39.146  32.231   2.363
97164W        W62149  21.378  10.321  13.431
97165W        W62150   1.892  19.101  12.208
97166W        W62151   5.623  40.956  14.557
97167W        W62152  30.380   0.465   1.532
97168W        W62153  26.246  33.056   4.553
97169W        W62154  30.014  42.904   2.391
97170W        W62155  12.695  23.163  10.941
97171W        W62156  29.673  18.063  14.718
97172W        W62157   1.763  28.098  13.574
97173W        W62158   2.702  10.865   3.591
97174W        W62159  29.213  18.232   1.630
97175W        W62160  34.636  29.925  13.392
97176W        W62161  22.991  21.029   4.318
97177W        W62162  18.589  22.029   0.502
97178W        W62163   5.589  15.840  10.180
97179W        W62164   0.936  30.947   2.394
97180W        W62165   0.191  42.417  13.393
97181W        W62166  44.188  27.859   1.400
97182W        W62167  32.389  19.712  10.765
97183W        W62168  15.858   0.498  14.575
97184W        W62169  21.153   8.182  13.970
97185W        W62170  16.728  16.029   0.856
97186W        W62171   8.016  40.281  12.134
97187W        W62172   8.977   1.797   0.613
97188W        W62173   1.882   9.889  12.055
97189W        W62174   3.551  11.460  10.704
97190W        W62175  36.537  20.975   4.273
97191W        W62176  33.992  37.241   4.099
97192W        W62177  35.669  16.761   4.534
97193W        W62178  41.619  41.500   3.303
97194W        W62179  11.050  23.663  13.079
97195W        W62180   2.795  30.757   2.799
97196W        W62181   4.502  36.909   4.776
97197W        W62182  19.828  38.648  12.571
97198W        W62183  19.087   2.163   3.655
97199W        W62184  23.354   6.198  10.069
97200W        W62185  11.127  15.658   3.218
97201W        W62186  27.725  23.672  12.101
97202W        W62187  26.586  33.740   4.631
97203W        W62188  41.691  43.942  13.997
97204W        W62189  30.466  41.297  12.057
97205W        W62190  15.577  42.969   2.730
97206W        W62191  25.153  44.475   0.707
97207W        W62192   2.750  30.631  14.580
97208W        W62193   2.860  14.556  14.767
97209W        W62194  32.894  26.277  14.945
97210W        W62195  12.440  25.067   2.675
97211W        W62196   0.657   9.530   3.248
97212W        W62197   4.472  19.855  14.521
97213W        W62198  11.717  12.807  14.342
97214W        W62199  13.140   3.474  13.906
97215W        W62200  21.015  14.159  14.636
97216W        W62201   9.905  40.967  12.570
97217W        W62202  25.494  36.285   2.832
97218W        W62203  31.578  41.535  13.383
97219W        W62204  10.020  28.659  13.247
97220W        W62205   6.751  35.384   3.265
97221W        W62206  13.703  42.168   2.965
97222W        W62207  21.294  15.318  10.400
97223W        W62208  37.306  18.133   2.068
97224W        W62209  38.109  23.067   3.049
97225W        W62210   1.808   8.607   0.368
97226W        W62211   5.268  24.242   4.627
97227W        W62212  29.436  18.125  12.498
97228W        W62213  44.233  19.838   0.336
97229W        W62214  29.483  31.647   4.264
97230W        W62215  42.024  38.385  14.444
97231W        W62216  29.456  23.031  11.687
97232W        W62217   4.858  20.758   2.886
97233W        W62218  18.270  29.666  11.179
97234W        W62219   4.999   7.650  11.516
97235W        W62220  22.103  10.212   0.042
97236W        W62221  44.220   6.329   1.100
97237W        W62222  14.689  33.914   4.415
97238W        W62223  36.265  41.914   0.321
97239W        W62224  31.516   0.231   2.196
97240W        W62225  30.048   9.719  14.628
97241W        W62226  11.322  40.989  10.687
97242W        W62227  23.181  13.095  14.368
97243W        W62228  43.375  20.073   2.394
97244W        W62229  37.978  26.998   1.374
97245W        W62230   0.834  33.763   0.730
97246W        W62231  20.997  32.610   1.351
97247W        W62232   0.347  12.339  10.771
97248W        W62233  42.359  17.898   3.667
97249W        W62234  26.176  11.609   4.607
97250W        W62235  14.628  14.656  10.749
97251W        W62236   1.655  18.926  13.790
97252W        W62237  43.549  21.341   5.533
97253W        W62238  37.238   8.160  13.058
97254W        W62239  35.472  19.591  12.026
97255W        W62240  43.823   5.307  11.011
97256W        W62241  13.180  23.532  11.586
97257W        W62242  44.902  33.508  10.117
97258W        W62243  16.120  33.657  13.560
97259W        W62244   6.622  36.505   0.401
97260W        W62245  17.941  27.933   1.254
97261W        W62246   3.113  18.614   2.775
97262W        W62247  16.658  10.076  12.499
97263W        W62248  31.967   3.909  13.806
97264W        W62249  40.380  14.014   3.601
97265W        W62250  39.799   0.404   0.318
97266W        W62251   6.632  14.847  10.710
97267W        W62252  44.054  13.035  14.371
97268W        W62253  42.149  24.220   2.283
97269W        W62254  30.752  22.487   0.763
97270W        W62255  21.283  18.799   5.210
97271W        W62256  34.598  26.587   2.366
97272W        W62257   4.905   2.904   1.693
97273W        W62258  23.485  27.058  11.411
97274W        W62259   3.508  29.128   1.227
97275W        W62260  25.991  35.567  10.523
97276W        W62261  40.886  44.624  13.829
97277W        W62262  38.472   6.333   1.928
97278W        W62263  30.824  24.737  12.979
97279W        W62264   6.375  22.956   2.201
97280W        W62265  39.882  37.267  13.292
97281W        W62266  41.756  30.677   1.761
97282W        W62267  41.907  11.439   0.030
97283W        W62268   8.675  36.060  12.587
97284W        W62269  37.873  39.134   0.480
97285W        W62270  13.704   8.203  11.248
97286W        W62271  14.162  33.943   2.323
97287W        W62272   3.872  14.693   3.872
97288W        W62273  32.339  44.800   4.068
97289W        W62274  17.239   5.886  14.722
97290W        W62275  36.177  34.373   4.586
97291W        W62276   8.573  29.025   4.377
97292W        W62277   5.399  18.576  10.531
97293W        W62278  15.218  18.857   1.022
97294W        W62279   3.933  43.719  11.571
97295W        W62280  37.234   2.721   1.726
97296W        W62281   8.884  43.880   0.893
97297W        W62282  30.374  20.532   2.795
97298W        W62283  38.874  32.289   4.054
97299W        W62284  32.089  34.502   1.201
97300W        W62285  15.016  42.419   4.122
97301W        W62286  22.981  11.208   0.778
97302W        W62287  27.453   4.142   2.874
97303W        W62288  11.354  15.184   3.159
97304W        W62289  26.180  15.342   0.213
97305W        W62290  15.894   2.192   0.419
97306W        W62291  26.757  18.090   3.816
97307W        W62292  26.053  17.314  11.838
97308W        W62293  35.059  24.728  14.397
97309W        W62294  17.765  28.070   1.718
97310W        W62295   1.259  25.383  14.405
97311W        W62296  32.351   1.601  11.098
97312W        W62297  40.110  28.594  10.276
97313W        W62298  15.279   3.494  11.548
97314W        W62299  29.478  29.444  14.509
97315W        W62300  22.610  37.262  12.028
97316W        W62301  11.514  39.762  10.333
97317W        W62302  20.564   2.365   1.066
97318W        W62303  37.821  39.344   1.484
97319W        W62304  37.197  35.602  11.025
97320W        W62305  18.027  37.763   2.974
97321W        W62306   5.613  42.073   3.316
97322W        W62307  25.198  37.234  12.101
97323W        W62308  23.135  27.035   2.760
97324W        W62309  28.373  33.016   0.476
97325W        W62310  42.542  38.507  12.121
97326W        W62311  42.786  38.359   4.112
97327W        W62312  17.207  11.589   2.734
97328W        W62313  30.631  15.380   3.363
97329W        W62314   4.277  12.179  10.995
97330W        W62315   0.106  23.139  12.934
97331W        W62316  29.450   3.730   2.394
97332W        W62317  39.235   1.771   1.490
97333W        W62318  24.111   6.269   0.511
97334W        W62319   8.463  26.322  12.170
97335W        W62320  23.489   1.493   0.693
97336W        W62321  14.154  18.735  11.695
97337W        W62322  19.225  30.828   2.722
97338W        W62323  39.859  34.341  12.856
97339W        W62324  28.110  18.114  13.929
97340W        W62325  27.048  41.616  12.022
97341W        W62326  12.284  34.375   4.397
97342W        W62327  44.648  13.510   2.671
97343W        W62328   1.921  19.523  11.908
97344W        W62329  38.929  10.346  10.171
97345W        W62330  35.059  36.489   1.680
97346W        W62331  14.146   1.610   2.539
97347W        W62332  16.553   4.756  13.906
97348W        W62333  43.345  37.745   1.924
97349W        W62334  27.348  13.571  11.122
97350W        W62335  26.010   9.378   1.828
97351W        W62336  18.458  40.993  12.538
97352W        W62337  41.837  42.419   4.363
97353W        W62338  18.619  25.503  12.723
97354W        W62339  10.079  33.557  13.162
97355W        W62340  28.560  34.912   1.670
97356W        W62341   6.331   1.963   0.637
97357W        W62342  44.288  10.249   2.088
97358W        W62343   7.799  27.034   2.346
97359W        W62344  17.014   6.368   1.041
97360W        W62345  32.809  32.191  11.668
97361W        W62346  18.838  33.213   4.625
97362W        W62347  16.766  26.432   4.211
97363W        W62348  31.000  40.055  14.848
97364W        W62349  41.212  37.817  11.174
97365W        W62350  28.023  17.278   2.215
97366W        W62351  27.281  26.005  14.535
97367W        W62352  16.236  31.759  12.135
97368W        W62353  10.250  39.817  10.443
97369W        W62354  22.998  35.668  10.938
97370W        W62355  24.705  41.109  12.566
97371W        W62356  42.585   9.795   4.312
97372W        W62357  24.100  34.176   0.758
97373W        W62358   0.765  17.064   2.729
97374W        W62359  26.034  18.008  13.244
97375W        W62360  27.984  42.963  11.125
97376W        W62361  30.043  15.691   4.313
97377W        W62362  32.247  15.542  11.991
97378W        W62363  36.587  40.658  14.284
97379W        W62364  19.625  32.478   4.650
97380W        W62365  43.153  12.165   2.280
97381W        W62366  12.450  33.717   2.440
97382W        W62367  20.612  43.891  10.649
97383W        W62368  41.527  11.175   3.544
97384W        W62369   5.792  24.107   0.916
97385W        W62370  27.850  22.738  12.407
97386W        W62371   7.217  25.139  13.475
97387W        W62372  38.571   9.564  14.570
97388W        W62373   1.846  21.923   1.061
97389W        W62374  24.422  36.512  11.405
97390W        W62375   4.276  27.660  12.717
97391W        W62376   8.806  18.266   1.928
97392W        W62377  41.487  39.959  11.654
97393W        W62378   0.413  27.676  11.476
97394W        W62379  19.117  27.777  14.861
97395W        W62380  17.809  27.145  13.490
97396W        W62381  13.223   2.514   0.781
97397W        W62382  31.527  12.036   2.341
97398W        W62383  28.596  23.510  14.843
97399W        W62384  20.076  17.081   2.635
97400W        W62385  40.830  12.255  10.818
97401W        W62386  16.754  25.099   1.819
97402W        W62387  15.089  18.317  11.137
97403W        W62388  33.389  19.234   2.982
97404W        W62389   3.957  19.332   1.966
97405W        W62390  42.357  22.612   2.181
97406W        W62391  32.991   0.305   2.014
97407W        W62392   9.017   6.805  10.306
97408W        W62393  33.735   6.786  11.027
97409W        W62394  21.567  34.713   4.751
97410W        W62395  40.204  22.723  10.754
97411W        W62396  39.509  10.149  10.735
97412W        W62397  36.445  34.068  13.457
97413W        W62398  19.267  28.250  12.620
97414W        W62399  19.808   2.459  14.891
97415W        W62400   9.274  29.259  11.569
97416W        W62401  21.989   5.978   3.097
97417W        W62402  30.447   6.257  13.517
97418W        W62403  34.625   0.479  11.098
97419W        W62404  16.568  23.221   1.502
97420W        W62405  33.598  34.081   0.245
97421W        W62406  40.821  32.390   1.875
97422W        W62407   0.995  19.965  13.025
97423W        W62408   4.810   3.976   1.021
97424W        W62409  21.919  44.799   0.416
97425W        W62410  21.206   0.687  11.482
97426W        W62411  20.752   5.978  14.992
97427W        W62412   0.230  40.209   2.774
97428W        W62413   7.588  33.050  13.762
97429W        W62414  12.419   9.087  14.494
97430W        W62415  13.905  28.640   2.526
97431W        W62416   5.265  31.057   2.075
97432W        W62417  36.611  26.510   0.402
97433W        W62418  21.420  44.673  13.996
97434W        W62419  43.415  32.027   0.222
97435W        W62420  25.181   4.323  14.732
97436W        W62421   5.613  36.901   2.212
97437W        W62422  28.541  35.041   1.153
97438W        W62423   6.675  32.811  12.023
97439W        W62424   3.028  28.488  10.367
97440W        W62425  22.034   3.436   2.794
97441W        W62426  44.820   6.710   3.252
97442W        W62427  22.542  18.068  13.214
97443W        W62428  21.618  24.612  13.391
97444W        W62429  35.423  39.896  12.939
97445W        W62430  13.514  40.389   2.694
97446W        W62431  20.622  39.886  14.928
97447W        W62432   0.958  27.635  11.638
97448W        W62433  34.187  42.253   4.686
97449W        W62434   4.942  18.200  11.988
97450W        W62435  25.627  23.147  12.419
97451W        W62436  17.797  41.580  14.932
97452W        W62437  39.982   8.319  12.333
97453W        W62438  18.623  26.971  10.450
97454W        W62439  28.088  19.386   1.798
97455W        W62440  16.731  16.545   0.815
97456W        W62441  27.365  40.258  11.639
97457W        W62442  11.498  27.681   5.017
97458W        W62443   4.386   6.012   2.833
97459W        W62444  37.989  22.110  11.435
97460W        W62445  19.561  30.083   4.544
97461W        W62446  35.583  20.672  14.404
97462W        W62447  42.007  39.392  13.689
97463W        W62448  22.283   5.063   1.959
97464W        W62449  40.393  13.158  14.979
97465W        W62450  23.709  36.473   0.597
97466W        W62451  35.811   9.134  14.878
97467W        W62452  16.229   2.367   4.983
97468W        W62453   0.389  18.008  14.856
97469W        W62454  25.351  33.331   0.896
97470W        W62455  28.407   2.118  12.014
97471W        W62456  35.476  15.416  12.859
97472W        W62457  28.967  38.746  12.511
97473W        W62458  16.305  12.278   1.844
97474W        W62459  22.344  11.566   1.346
97475W        W62460  31.057  22.282   4.152
97476W        W62461   7.381  26.130   0.303
97477W        W62462  44.951  18.547   1.188
97478W        W62463  19.671  26.498  11.032
97479W        W62464  13.601  32.378   0.239
97480W        W62465   4.341  13.900   2.604
97481W        W62466   8.809  26.710  14.719
97482W        W62467  24.439  38.748   1.275
97483W        W62468   2.236  35.398   0.335
97484W        W62469  16.638   8.420   3.144
97485W        W62470  13.256  29.434   2.351
97486W        W62471  44.344  41.035  13.516
97487W        W62472  30.227  21.595  12.861
97488W        W62473   8.323   4.976  13.889
97489W        W62474   6.907  23.188  13.562
97490W        W62475  41.108  24.429  11.587
97491W        W62476  33.449  17.985   4.329
97492W        W62477   3.929   4.416  10.700
97493W        W62478  28.506  30.417  13.829
97494W        W62479  44.725   2.803   4.555
97495W        W62480  19.799  28.089  14.064
97496W        W62481  32.613  36.463  11.633
97497W        W62482  35.362  39.075  13.303
97498W        W62483  34.929  15.584  12.097
97499W        W62484  29.035  17.375  14.480
97500W        W62485  10.844  35.256  12.087
97501W        W62486  19.047   2.947   0.009
97502W        W62487  33.988  11.187   3.276
97503W        W62488  28.605   7.709   1.453
97504W        W62489  11.419  41.794  14.555
97505W        W62490  38.919   8.998  10.824
97506W        W62491   2.718  27.189   0.404
97507W        W62492  41.907  17.066   2.633
97508W        W62493  28.636  37.474   4.673
97509W        W62494  42.496  25.569  14.476
97510W        W62495   7.450  27.174   4.646
97511W        W62496  20.543   0.118   4.619
97512W        W62497   6.827   7.527  13.889
97513W        W62498   6.366  41.399  14.013
97514W        W62499  17.590  43.389  11.897
97515W        W62500   6.178  21.552  12.294
97516W        W62501  13.772  28.043  11.964
97517W        W62502   4.454  27.245  10.232
97518W        W62503  31.214   1.931   2.810
97519W        W62504  12.099  32.927  12.107
97520W        W62505  12.325  30.548   0.439
97521W        W62506   2.272  23.554   1.322
97522W        W62507  28.850   4.556  13.531
97523W        W62508  19.523  42.366   3.197
97524W        W62509   4.450  43.928  12.197
97525W        W62510  37.623   9.955   5.025
97526W        W62511  15.137  39.522   3.620
97527W        W62512   5.686  35.366   0.437
97528W        W62513  37.271  30.124  11.638
97529W        W62514  12.067  40.283   2.386
97530W        W62515  41.673  29.118   4.211
97531W        W62516  32.575   5.880   0.275
97532W        W62517  16.307   4.184   5.357
97533W        W62518  39.776  39.549   1.725
97534W        W62519  40.390  15.725  14.031
97535W        W62520   5.309   7.235  13.735
97536W        W62521  16.091  31.437   1.775
97537W        W62522  39.535  23.241   3.562
97538W        W62523  23.917  12.344  13.347
97539W        W62524  25.443   3.995   9.573
97540W        W62525   6.406  14.353   2.407
97541W        W62526  17.313   6.387  13.865
97542W        W62527  39.417  21.144  11.556
97543W        W62528  25.685  34.319  13.574
97544W        W62529  35.393  29.002  12.834
97545W        W62530  17.574  23.740   4.893
97546W        W62531  39.161  34.870   2.685
97547W        W62532  39.860  31.851  12.604
97548W        W62533  35.619  27.434  14.515
97549W        W62534  40.365  32.132  13.088
97550W        W62535  37.875  36.801   4.521
97551W        W62536  12.119  23.314   0.687
97552W        W62537  11.161  44.224  14.318
97553W        W62538  29.923  28.485  13.446
97554W        W62539  28.995  28.787  10.495
97555W        W62540  18.410  19.582   2.597
97556W        W62541  23.184   1.774   2.351
97557W        W62542   6.195  28.353   4.202
97558W        W62543   2.400   4.268   4.590
97559W        W62544  23.229  23.465   3.702
97560W        W62545   1.635   6.175  11.539
97561W        W62546  11.767  17.327   4.593
97562W        W62547  10.954   5.580   3.661
97563W        W62548   8.301  36.963   4.668
97564W        W62549  15.332   7.284   4.206
97565W        W62550   5.709  29.954   0.522
97566W        W62551  34.922  40.284   0.455
97567W        W62552   2.265  29.212   2.126
97568W        W62553  14.162  16.775  13.010
97569W        W62554  27.550  40.054   3.856
97570W        W62555   3.404   5.907   3.184
97571W        W62556  29.872  29.592   1.851
97572W        W62557   9.201   7.791  11.002
97573W        W62558   7.904  23.145  12.862
97574W        W62559  29.249  35.570  12.820
97575W        W62560   3.245  43.309   1.782
97576W        W62561  18.801  26.476  12.933
97577W        W62562   2.895  26.394  14.983
97578W        W62563  44.857  42.844   2.343
97579W        W62564  43.029  15.623  10.841
97580W        W62565   4.126  33.104  11.373
97581W        W62566  27.703   7.587   1.423
97582W        W62567  27.541  39.318  11.140
97583W        W62568   3.813  19.658   2.380
97584W        W62569  42.528   0.696   2.940
97585W        W62570  33.981  28.715  13.420
97586W        W62571  27.535  36.049  14.354
97587W        W62572  10.895  23.806   4.203
97588W        W62573  23.149  27.121  14.678
97589W        W62574   1.850  40.325  13.869
97590W        W62575  37.977   9.643   4.187
97591W        W62576  39.367  38.236  11.041
97592W        W62577  19.696  38.912  11.180
97593W        W62578  14.061  27.405  11.683
97594W        W62579   7.295  25.998  13.240
97595W        W62580  20.086  30.095  11.706
97596W        W62581   9.129   3.614   1.350
97597W        W62582  19.035  42.961   2.813
97598W        W62583  37.119   7.332  11.804
97599W        W62584  27.784   1.140  12.914
97600W        W62585  16.691   9.026   0.498
97601W        W62586  19.212  26.531   1.120
97602W        W62587  14.132  13.477   2.847
97603W        W62588  23.500  10.137   0.838
97604W        W62589   8.866   5.293  11.237
97605W        W62590  41.837   6.275   3.396
97606W        W62591  22.168  29.700   3.293
97607W        W62592  17.156   8.317   4.986
97608W        W62593  33.108   8.522   2.305
97609W        W62594  28.939  38.151   3.518
97610W        W62595  39.513  13.381  12.489
97611W        W62596  40.470  11.548  12.104
97612W        W62597  26.066  43.773  11.173
97613W        W62598  44.527  37.900   4.797
97614W        W62599   8.243  24.066   1.293
97615W        W62600  33.147  18.637  12.478
97616W        W62601  27.429  39.103   4.518
97617W        W62602   8.233   6.041  11.065
97618W        W62603  15.515   3.814   5.133
97619W        W62604   4.876   0.677   4.327
97620W        W62605  13.282  40.940   2.185
97621W        W62606   4.504  15.627   4.459
97622W        W62607  36.933   6.153   2.639
97623W        W62608  33.943  32.894  12.623
97624W        W62609   9.840  31.575  12.512
97625W        W62610   5.062  13.118   1.167
97626W        W62611  16.668  19.750   4.578
97627W        W62612   3.457   1.167  11.587
97628W        W62613   3.164   8.292   3.176
97629W        W62614   8.833   3.587  12.629
97630W        W62615  38.507  23.241  14.973
97631W        W62616   3.289  39.100  10.455
97632W        W62617  14.690  15.523  12.974
97633W        W62618   8.396  21.342   2.220
97634W        W62619  33.355  37.381  10.261
97635W        W62620  14.829   7.358  12.926
97636W        W62621  21.196   3.585   4.216
97637W        W62622  24.239  18.259  13.160
97638W        W62623   6.544   6.218   6.248
97639W        W62624  23.633   5.605  12.569
97640W        W62625   4.340  41.384  12.102
97641W        W62626  14.612  29.031  14.452
97642W        W62627  24.649  12.655   1.297
97643W        W62628  40.489  42.067  13.134
97644W        W62629   2.387  19.235   3.962
97645W        W62630  29.302  14.392   4.259
97646W        W62631  10.927  36.431   3.289
97647W        W62632  37.652   4.857   3.265
97648W        W62633   6.218  39.126   3.660
97649W        W62634  36.653  23.270  12.103
97650W        W62635  14.105  18.330  11.110
97651W        W62636  25.036  31.654  13.869
97652W        W62637  13.859  35.642  13.458
97653W        W62638  24.762  44.977  11.525
97654W        W62639   8.311  28.587  13.113
97655W        W62640  20.964  37.571  12.011
97656W        W62641   5.770  27.902  11.613
97657W        W62642  40.096  10.688   2.070
97658W        W62643   6.593  12.008   0.720
97659W        W62644  25.126   0.606  14.907
97660W        W62645   7.966  14.363  11.311
97661W        W62646  39.233   6.732  11.078
97662W        W62647  34.881   9.876   0.386
97663W        W62648  44.340  29.052  10.745
97664W        W62649  17.167  43.833  13.918
97665W        W62650  16.129  20.363  10.238
97666W        W62651  14.358   4.505   2.382
97667W        W62652  26.538  17.538  14.752
97668W        W62653  11.393  10.145  11.014
97669W        W62654  34.426   9.634  10.112
97670W        W62655  37.084  27.416   0.996
97671W        W62656   7.797  29.780   0.738
97672W        W62657  26.550  22.356  12.956
97673W        W62658  36.985   4.243   1.297
97674W        W62659  13.279  32.585   3.473
97675W        W62660  26.503  31.592   0.293
97676W        W62661  22.865  10.059  13.397
97677W        W62662  44.418  10.404   0.702
97678W        W62663   2.875  13.420   1.816
97679W        W62664   1.776  28.673   3.207
97680W        W62665  25.646  18.651  12.834
97681W        W62666  35.351  37.105   0.071
97682W        W62667  44.004  27.862   3.027
97683W        W62668  17.021  16.606   4.178
97684W        W62669  35.805  44.508   0.804
97685W        W62670  24.351  36.401  13.207
97686W        W62671  11.403   1.503  12.867
97687W        W62672  43.927  26.995  10.648
97688W        W62673  34.551  23.548   2.268
97689W        W62674  22.089  22.979  12.111
97690W        W62675  25.698  12.854  10.356
97691W        W62676  37.809  43.475  11.534
97692W        W62677  25.330  38.941   1.463
97693W        W62678  42.998  20.982   3.837
97694W        W62679  21.627  30.158   0.825
97695W        W62680  26.697  35.542   2.761
97696W        W62681  34.835   2.079   3.375
97697W        W62682  25.496  24.717  10.001
97698W        W62683  14.638  42.555   1.923
97699W        W62684  41.511  44.674  11.130
97700W        W62685  37.980  31.094  11.976
97701W        W62686  11.332   2.380   1.920
97702W        W62687   0.570  44.994  12.624
97703W        W62688  19.312  40.775   3.933
97704W        W62689  28.415  23.609   1.870
97705W        W62690   2.741   9.124  10.829
97706W        W62691  25.591  24.159   2.329
97707W        W62692  28.108  17.282  10.658
97708W        W62693  24.569  30.873  13.551
97709W        W62694  20.919   2.009  14.910
97710W        W62695  22.974  19.031  13.088
97711W        W62696  18.201  12.333  14.412
97712W        W62697  35.903  13.143  14.316
97713W        W62698   4.629  35.270  11.945
97714W        W62699  25.173  34.148  13.566
97715W        W62700  19.488  32.734   0.250
97716W        W62701  29.064  37.576  13.324
97717W        W62702  32.542  10.279   0.741
97718W        W62703  36.247  13.898  12.628
97719W        W62704  13.584  24.646   3.177
97720W        W62705  40.722  42.325   1.666
97721W        W62706  23.539  30.194   9.745
97722W        W62707  22.490  21.790   2.395
97723W        W62708  14.642  19.721  13.967
97724W        W62709  18.294  12.874  12.303
97725W        W62710  25.866  41.175   1.241
97726W        W62711  28.098  24.795  11.639
97727W        W62712  31.683  23.521  14.056
97728W        W62713  22.409  29.048   4.961
97729W        W62714  43.430  42.774  12.948
97730W        W62715  22.566  38.368   3.927
97731W        W62716  30.619  41.523   3.200
97732W        W62717  11.042   9.802   0.941
97733W        W62718  32.104   4.775  10.839
97734W        W62719   7.641  19.476   3.689
97735W        W62720  41.279  43.217  12.119
97736W        W62721  34.827  40.134   0.944
97737W        W62722   7.946  35.409   0.933
97738W        W62723  16.300  26.575   5.284
97739W        W62724  19.266  24.657   3.609
97740W        W62725  36.774  41.598  13.531
97741W        W62726  21.235  28.409  10.749
97742W        W62727  11.869  26.518   0.928
97743W        W62728  35.940  34.389  11.954
97744W        W62729  18.704   4.720  12.469
97745W        W62730  35.850   9.247   1.314
97746W        W62731  43.684  40.576  14.711
97747W        W62732   2.423  33.357  11.218
97748W        W62733  26.093   8.784   0.079
97749W        W62734  37.329  13.183   4.704
97750W        W62735  40.118  24.166  12.220
97751W        W62736   7.608  16.646  13.446
97752W        W62737  43.813  30.782   3.698
97753W        W62738  38.066  37.500  12.965
97754W        W62739  34.266  30.611   3.532
97755W        W62740   2.813  14.088   1.243
97756W        W62741   5.115  38.053  10.972
97757W        W62742   3.730  39.822  12.100
97758W        W62743  22.563  34.619   2.729
97759W        W62744  17.301  29.507  12.870
97760W        W62745  23.524  44.952   4.004
97761W        W62746  42.789  34.729   2.750
97762W        W62747  10.270  30.920  14.530
97763W        W62748   0.805  18.992  10.854
97764W        W62749   7.136  23.141   1.524
97765W        W62750  36.913  10.877   0.191
97766W        W62751  14.417  26.014   4.219
97767W        W62752  24.663  19.361  11.727
97768W        W62753  18.357   6.479   0.281
97769W        W62754  14.117  37.109  12.109
97770W        W62755  36.045  42.084   4.662
97771W        W62756  20.293   8.087  13.975
97772W        W62757  17.410  31.159  13.982
97773W        W62758  10.784   3.823  12.198
97774W        W62759  27.032  38.827   3.619
97775W        W62760  31.212  11.090  12.437
97776W        W62761   1.470  36.329  12.338
97777W        W62762  19.899  23.520   3.207
97778W        W62763  23.607  21.640  11.978
97779W        W62764  24.851  14.309  13.072
97780W        W62765  20.172  21.195  11.980
97781W        W62766  39.127  40.501  13.419
97782W        W62767  43.870  11.547  12.548
97783W        W62768   1.811  41.379   0.601
97784W        W62769   0.323  21.456   2.337
97785W        W62770   5.077  35.071  11.708
97786W        W62771  35.355  41.595   2.314
97787W        W62772  22.608  35.313  14.977
97788W        W62773  23.532  41.396  11.653
97789W        W62774   6.458   1.279   3.842
97790W        W62775  15.026  32.014   1.782
97791W        W62776  36.527   2.710  14.017
97792W        W62777  19.274  31.486   3.292
97793W        W62778  23.977  33.618  10.041
97794W        W62779   5.180  31.850  10.577
97795W        W62780  41.901  29.972   2.200
97796W        W62781   4.873  32.902  11.572
97797W        W62782   7.012  30.603   3.249
97798W        W62783  39.010  37.280  12.078
97799W        W62784  19.919  44.204   2.147
97800W        W62785  26.572  34.116   3.861
97801W        W62786   0.916  31.881  14.067
97802W        W62787  34.854  25.891  11.675
97803W        W62788  39.026   3.823   4.272
97804W        W62789  15.051  27.290  12.645
97805W        W62790  14.812  24.014   3.164
97806W        W62791   9.608  34.554  13.862
97807W        W62792   9.288  34.323  14.850
97808W        W62793   7.799   8.186  11.065
97809W        W62794  24.498  36.563  10.563
97810W        W62795   3.840  17.293  13.160
97811W        W62796   2.101   9.455   2.383
97812W        W62797  31.731  11.131  14.384
97813W        W62798  43.946  23.222  14.485
97814W        W62799   1.213   8.902  14.063
97815W        W62800  24.138  21.259   0.709
97816W        W62801   0.206  44.195  12.412
97817W        W62802  36.553  22.190  10.748
97818W        W62803  36.998  32.405   2.808
97819W        W62804  44.262  22.252  12.073
97820W        W62805   5.256  26.246   0.751
97821W        W62806  29.442  18.722  11.207
97822W        W62807  15.907  37.327  12.157
97823W        W62808  37.038  40.251   4.101
97824W        W62809  27.082  38.522   2.703
97825W        W62810   2.413   5.445  12.452
97826W        W62811  39.300   3.545   2.316
97827W        W62812  38.568  37.532  12.945
97828W        W62813  38.487  26.679   0.758
97829W        W62814  32.963   3.045  12.119
97830W        W62815  11.217  35.520   2.371
97831W        W62816  10.785   8.612  13.931
97832W        W62817  41.017  41.753   4.476
97833W        W62818  29.615  38.661   4.091
97834W        W62819  35.139   6.663   0.843
97835W        W62820  40.398   5.534  11.258
97836W        W62821  13.226  18.827  14.345
97837W        W62822  21.654   5.295   0.804
97838W        W62823  10.278  21.141  14.752
97839W        W62824  24.499  20.816  10.392
97840W        W62825  11.599  28.051  12.630
97841W        W62826  23.448  15.335   1.310
97842W        W62827  17.272  16.069   3.109
97843W        W62828  10.847   5.845   0.672
97844W        W62829   9.935  26.778   1.322
97845W        W62830  39.959  26.607   4.868
97846W        W62831  15.561  39.832  12.055
97847W        W62832   1.585  16.803   4.167
97848W        W62833  33.581  42.927   1.249
97849W        W62834  24.766  16.679  11.327
97850W        W62835  29.808   8.845  11.070
97851W        W62836  23.921   1.347   1.512
97852W        W62837  19.007  43.381  11.915
97853W        W62838  14.595  26.570   1.473
97854W        W62839  35.456  21.589  10.906
97855W        W62840   2.707  29.406   2.372
97856W        W62841  35.839  16.892   3.168
97857W        W62842   1.150  14.413  10.405
97858W        W62843   6.425  14.000   4.920
97859W        W62844  44.365   0.702   3.813
97860W        W62845  16.254  23.823  14.009
97861W        W62846  41.980  37.344   0.912
97862W        W62847  34.820  31.968  14.314
97863W        W62848  18.106  13.603   2.662
97864W        W62849  11.899  31.346   4.764
97865W        W62850  38.345   1.927  14.560
97866W        W62851   4.215  44.517  14.419
97867W        W62852  36.009  11.243   1.038
97868W        W62853   7.375   7.212  13.306
97869W        W62854  42.874   8.411   1.924
97870W        W62855  31.452  25.513  12.813
97871W        W62856   2.463  42.529  14.154
97872W        W62857  35.192  27.084  12.974
97873W        W62858  40.467  25.393  13.996
97874W        W62859  15.367   2.879  14.226
97875W        W62860  35.501  38.754  14.768
97876W        W62861  17.499   1.240   2.629
97877W        W62862  18.226  21.218   2.328
97878W        W62863   1.953  27.560   1.368
97879W        W62864  18.600  33.366   1.680
97880W        W62865   6.223  10.837  11.285
97881W        W62866   0.218  18.849   0.299
97882W        W62867  22.203  31.556   1.627
97883W        W62868   6.588  39.381   1.443
97884W        W62869  24.345   8.545   5.092
97885W        W62870  41.356  32.597  13.732
97886W        W62871  39.305  34.313   0.420
97887W        W62872   9.866  11.853   3.712
97888W        W62873   5.342   4.981   4.720
97889W        W62874  14.755  21.253  13.910
97890W        W62875  14.666  39.370  13.998
97891W        W62876  35.102   4.206  14.044
97892W        W62877   4.239   3.132  13.610
97893W        W62878  22.228  44.687   1.233
97894W        W62879  19.837  17.637  14.029
97895W        W62880  32.040   4.097   4.259
97896W        W62881   0.767  18.914  11.924
97897W        W62882  44.927  36.731   1.674
97898W        W62883  34.609  10.153   3.644
97899W        W62884  27.097  29.091   4.058
97900W        W62885  26.177  43.010  13.456
97901W        W62886   4.239  14.338  11.258
97902W        W62887  28.725  29.129   3.790
97903W        W62888   9.756  16.655  13.332
97904W        W62889  19.933  18.657   0.354
97905W        W62890   2.787  25.545   2.866
97906W        W62891  28.242   6.156   2.284
97907W        W62892  36.408  10.459  12.000
97908W        W62893  34.365  27.615  12.222
97909W        W62894  29.981  22.919   2.562
97910W        W62895  33.151  19.763  11.189
97911W        W62896  43.899  44.062   1.189
97912W        W62897  42.281  31.653   1.381
97913W        W62898  13.562  21.066   4.606
97914W        W62899   3.447  23.529   4.042
97915W        W62900  36.154   4.870   2.226
97916W        W62901  12.819  39.790   2.625
97917W        W62902  15.189  16.910   0.271
97918W        W62903   0.423  39.382  14.689
97919W        W62904   1.028  35.529  12.576
97920W        W62905   1.628  31.852   4.811
97921W        W62906  23.320  20.989   3.036
97922W        W62907  32.125  39.869   2.736
97923W        W62908  20.583  23.620  13.876
97924W        W62909   5.853  43.149   0.495
97925W        W62910  36.508   9.659  14.078
97926W        W62911  44.052  27.394  10.361
97927W        W62912   3.471  42.884   4.843
97928W        W62913  38.368  43.298  13.135
97929W        W62914   9.424  20.307   0.326
97930W        W62915  12.296  26.645   0.605
97931W        W62916   4.982  38.419   1.192
97932W        W62917  37.355  29.490  12.471
97933W        W62918  14.786   0.120   4.536
97934W        W62919   7.635  16.717   1.230
97935W        W62920  37.311  23.079  13.816
97936W        W62921  22.253   5.896  12.796
97937W        W62922  13.254  35.056  13.725
97938W        W62923   7.331   0.299   1.251
97939W        W62924  18.666  41.036  10.519
97940W        W62925  33.449  27.504  10.600
97941W        W62926  44.333  44.542   0.837
97942W        W62927  42.615  24.021   2.325
97943W        W62928   9.772   8.076   3.300
97944W        W62929  24.786  36.284   0.216
97945W        W62930   3.408   3.326  14.989
97946W        W62931   3.951  10.749   3.798
97947W        W62932  29.653  10.007   2.248
97948W        W62933  22.553  35.571  13.472
97949W        W62934  10.294  26.235  12.113
97950W        W62935  16.449   4.344  11.613
97951W        W62936  20.837  14.488   4.551
97952W        W62937  36.022  38.010  13.355
97953W        W62938   7.114  21.502   3.350
97954W        W62939  44.374  28.644   2.018
97955W        W62940   6.608  16.544  13.260
97956W        W62941  32.603   7.114  11.979
97957W        W62942  12.990   0.843   1.904
97958W        W62943   4.160  35.849   1.399
97959W        W62944   3.243  12.397   4.255
97960W        W62945  13.169   0.860  11.213
97961W        W62946  43.239   0.984  12.975
97962W        W62947  36.263  29.727   2.175
97963W        W62948  22.210   8.679   3.140
97964W        W62949  43.740  17.291   2.181
97965W        W62950  18.939  28.574  14.767
97966W        W62951   4.536   9.388   0.323
97967W        W62952  33.159  12.117   1.184
97968W        W62953  29.114  24.898   1.218
97969W        W62954   7.625  44.322  11.577
97970W        W62955  14.713   8.517   3.673
97971W        W62956  36.643  37.853  14.000
97972W        W62957   9.622   9.487  11.351
97973W        W62958  17.945   4.529   4.845
97974W        W62959   4.890  44.392   4.670
97975W        W62960  14.771  40.762   4.024
97976W        W62961  42.892   9.359  14.052
97977W        W62962  12.124  14.241   0.699
97978W        W62963  15.007  25.581  13.053
97979W        W62964  27.017   5.356   4.172
97980W        W62965   8.385  16.495  11.127
97981W        W62966  40.015  42.896   0.860
97982W        W62967  12.883  40.879   3.094
97983W        W62968  18.605  38.533   0.845
97984W        W62969  44.628  20.740  10.194
97985W        W62970  19.851  22.964   0.997
97986W        W62971  36.597  27.486   4.074
97987W        W62972  26.737  28.476  10.624
97988W        W62973   1.343  25.400  12.169
97989W        W62974  41.814   8.767   0.358
97990W        W62975  40.843  32.998   3.343
97991W        W62976   4.391  37.590   3.760
97992W        W62977  19.827  31.522  10.915
97993W        W62978  35.352  26.491   1.785
97994W        W62979  32.991  43.789   1.865
97995W        W62980   0.205  22.717  12.564
97996W        W62981   6.460  20.151   0.327
97997W        W62982  35.134  16.614   0.868
97998W        W62983  26.684  40.101   1.223
97999W        W62984  12.327  30.559   4.246
98000W        W62985  29.942  29.638  14.358
98001W        W62986   0.506  18.066   1.718
98002W        W62987  17.296  31.046  10.578
98003W        W62988  43.287  27.956  12.450
98004W        W62989  36.509   1.617   0.893
98005W        W62990  14.416  33.045  10.763
98006W        W62991   1.263  37.573  12.860
98007W        W62992  24.856  16.865   4.240
98008W        W62993  37.925  18.336  10.977
98009W        W62994  18.880  31.392  11.224
98010W        W62995  34.626  41.224   2.767
98011W        W62996  13.047  10.155  12.990
98012W        W62997  13.710  25.997   3.134
98013W        W62998   1.235  19.650   4.248
98014W        W62999  30.893   6.887  13.962
98015W        W63000  26.606  42.809  10.243
98016W        W63001   4.721  20.396  12.008
98017W        W63002  30.576  23.045  14.030
98018W        W63003  12.691  35.311  14.079
98019W        W63004  37.948  38.489   1.812
98020W        W63005   3.904  37.962   1.138
98021W        W63006  30.969  16.245  11.161
98022W        W63007   6.752  25.680  11.930
98023W        W63008   8.189   9.352  12.904
98024W        W63009  10.604  40.399   0.441
98025W        W63010   6.657  12.604   2.767
98026W        W63011  27.864  19.004  14.045
98027W        W63012  15.939  39.750   3.910
98028W        W63013  43.918  30.735   2.684
98029W        W63014  44.906  17.090   3.749
98030W        W63015  26.542  21.080   4.987
98031W        W63016  22.462  10.219   5.110
98032W        W63017  43.639  30.562  14.369
98033W        W63018  36.100   0.365   4.223
98034W        W63019  34.162  31.466  12.450
98035W        W63020  35.976   7.856  13.393
98036W        W63021  24.307  25.108   2.479
98037W        W63022  25.384  20.929  14.377
98038W        W63023  34.893   7.858   3.384
98039W        W63024  20.660  31.817  14.108
98040W        W63025  21.306  21.019   0.930
98041W        W63026   5.032  17.312  10.624
98042W        W63027  30.486  33.457   1.005
98043W        W63028  25.717   5.500   4.702
98044W        W63029  12.661  21.631  12.060
98045W        W63030  40.952  30.977   4.593
98046W        W63031  12.017  36.508  10.535
98047W        W63032   9.666   8.889  13.459
98048W        W63033  18.135  32.381  12.856
98049W        W63034   2.075  10.454   2.076
98050W        W63035  42.844   1.076  14.289
98051W        W63036  24.205  33.318  13.025
98052W        W63037   1.886  36.896   0.261
98053W        W63038  38.429  14.963  12.664
98054W        W63039  24.515   5.283  13.488
98055W        W63040  30.647  17.145   2.833
98056W        W63041   2.749  17.727   1.329
98057W        W63042  30.021  32.681   0.447
98058W        W63043   9.257  41.894  11.461
98059W        W63044  20.554  24.698  14.861
98060W        W63045  24.978  13.765  10.658
98061W        W63046  35.428   2.303   2.181
98062W        W63047  19.340  43.519  10.641
98063W        W63048  32.646  29.066   4.143
98064W        W63049  43.056  16.515   0.973
98065W        W63050  38.415  13.121  12.037
98066W        W63051   2.222  22.723   4.210
98067W        W63052   1.861  44.879  13.842
98068W        W63053  31.453  25.608  10.634
98069W        W63054  29.945  29.234   4.267
98070W        W63055  17.351   6.748   1.196
98071W        W63056  31.409  44.811  10.802
98072W        W63057  43.593  39.371  14.752
98073W        W63058  34.140  32.359   4.835
98074W        W63059  35.235  36.214   4.946
98075W        W63060  10.615  18.817  14.443
98076W        W63061  34.859   7.209  14.021
98077W        W63062  40.195   1.407   2.260
98078W        W63063  23.200  15.500  12.067
98079W        W63064  22.551  26.536   3.870
98080W        W63065  23.109  28.199   3.824
98081W        W63066  43.457   4.166   3.288
98082W        W63067  44.153  41.496  13.417
98083W        W63068  28.278   0.650   4.958
98084W        W63069  35.924   7.637  10.222
98085W        W63070   4.433  15.891   2.963
98086W        W63071  42.458  43.290  12.074
98087W        W63072  13.175  20.766   2.867
98088W        W63073  42.813  27.456   3.134
98089W        W63074   6.435  19.933   1.332
98090W        W63075  18.732  38.841   2.922
98091W        W63076   1.005   1.239   4.402
98092W        W63077  13.052  42.294  10.715
98093W        W63078  24.720  41.825  13.278
98094W        W63079  14.490  18.199  12.056
98095W        W63080  31.511  20.629  12.136
98096W        W63081  25.714   8.165  12.015
98097W        W63082   4.374  34.360   1.911
98098W        W63083  31.177   1.315  12.819
98099W        W63084  17.690  14.731   3.318
98100W        W63085   2.846  15.449   3.618
98101W        W63086  36.474   1.780   0.387
98102W        W63087   6.139  12.326  12.904
98103W        W63088  22.666  26.040   0.358
98104W        W63089  38.423  16.272   1.488
98105W        W63090   6.314  16.952   0.784
98106W        W63091  41.472  38.621  11.735
98107W        W63092  36.065  12.142  14.126
98108W        W63093  13.157   5.364  11.636
98109W        W63094   2.933   6.038  14.821
98110W        W63095  42.807  12.259  12.989
98111W        W63096  21.733  29.670  10.787
98112W        W63097  19.788  40.348  14.411
98113W        W63098  27.133  17.306  12.986
98114W        W63099  10.863  26.075  13.806
98115W        W63100  12.380  40.909  12.571
98116W        W63101  35.624  19.869   4.335
98117W        W63102  40.775  43.739   1.449
98118W        W63103  25.451   2.908  12.507
98119W        W63104  11.142  35.973   0.645
98120W        W63105  27.556   9.835  14.783
98121W        W63106   7.588  43.843  12.086
98122W        W63107  14.602  31.508  10.669
98123W        W63108  34.561  41.776  12.063
98124W        W63109  14.855   5.185  11.524
98125W        W63110  26.512   8.187  14.554
98126W        W63111  32.633  44.342   4.022
98127W        W63112  12.224  21.491  13.075
98128W        W63113  40.236  16.192   3.114
98129W        W63114  32.909  22.764  13.457
98130W        W63115   5.465  24.532  13.529
98131W        W63116  20.485   2.583   3.803
98132W        W63117  43.924   5.463  14.473
98133W        W63118  41.002   3.945   4.157
98134W        W63119  32.921  10.263   3.164
98135W        W63120   5.676   2.714  12.550
98136W        W63121  41.359  30.151  13.981
98137W        W63122  43.234  22.433  13.820
98138W        W63123  10.766   5.056  10.228
98139W        W63124  36.276  20.035   3.789
98140W        W63125  44.006  38.518  10.168
98141W        W63126  18.065   7.955  11.431
98142W        W63127  12.105  30.410   1.308
98143W        W63128  30.007  36.406  14.056
98144W        W63129  41.249  20.096  14.066
98145W        W63130  29.347  33.535  10.808
98146W        W63131  36.306   7.791  13.796
98147W        W63132  27.639  27.126  11.577
98148W        W63133  23.061  29.369  11.438
98149W        W63134  17.145  16.914  11.048
98150W        W63135   6.910  12.289   0.408
98151W        W63136  18.572  23.140  13.221
98152W        W63137  42.599  17.687  13.986
98153W        W63138  35.627  25.610  12.614
98154W        W63139   1.436  40.074   4.073
98155W        W63140  19.220  14.055  10.634
98156W        W63141  33.151  25.548   1.195
98157W        W63142  14.408  38.006   2.772
98158W        W63143  25.252  10.602   2.837
98159W        W63144  31.015  18.990  14.537
98160W        W63145  37.893  37.450   1.723
98161W        W63146  24.588  24.744  14.498
98162W        W63147  37.846   8.835   4.586
98163W        W63148  28.483   2.209   1.860
98164W        W63149  12.095  23.028  13.529
98165W        W63150  19.048  43.859   1.886
98166W        W63151  28.458  22.459   0.302
98167W        W63152  15.636  11.351  14.274
98168W        W63153  30.098  44.742  12.081
98169W        W63154  19.673  22.048  12.808
98170W        W63155  26.542  37.127  12.461
98171W        W63156  16.619  22.235   2.411
98172W        W63157   2.371  32.454  12.112
98173W        W63158  16.654   4.439  14.335
98174W        W63159  25.715  13.723  12.548
98175W        W63160  31.223   0.743   3.254
98176W        W63161  27.717  34.373  12.591
98177W        W63162  40.513  29.966   0.387
98178W        W63163  10.364  42.792  10.019
98179W        W63164   8.305  35.750  14.291
98180W        W63165  28.411  15.654  10.981
98181W        W63166  30.838  12.185   4.149
98182W        W63167  34.611  10.139   4.964
98183W        W63168  20.825  12.108   1.015
98184W        W63169  36.102  29.517  14.849
98185W        W63170   7.833  36.482   1.044
98186W        W63171   9.499  40.623  12.031
98187W        W63172  38.998   5.265  12.990
98188W        W63173  36.290  21.464   3.606
98189W        W63174  23.206  39.041   3.733
98190W        W63175  37.769  18.216  11.460
98191W        W63176   2.542  24.707  12.195
98192W        W63177  33.657  30.197  14.352
98193W        W63178  41.322  26.691  11.995
98194W        W63179  44.314  18.323   4.949
98195W        W63180  22.181  23.149   2.778
98196W        W63181  41.492  28.584   2.496
98197W        W63182  17.056   1.492   2.764
98198W        W63183  26.995   6.208   1.643
98199W        W63184  42.807  42.219   2.671
98200W        W63185  11.369   2.857   4.500
98201W        W63186  43.245  29.679  11.038
98202W        W63187  11.721   5.112  14.377
98203W        W63188  18.543  25.942   2.749
98204W        W63189  39.411  36.243   3.076
98205W        W63190  13.697  20.445  10.977
98206W        W63191  13.289  35.337   1.773
98207W        W63192  29.065  29.510  13.330
98208W        W63193  15.801  30.382   9.771
98209W        W63194   8.172   6.283  10.205
98210W        W63195  17.209  15.578  11.447
98211W        W63196  40.315  41.161   2.385
98212W        W63197  31.107   3.977  13.453
98213W        W63198   2.546  26.962   3.433
98214W        W63199  29.223   4.680  13.851
98215W        W63200  20.800  19.934  10.823
98216W        W63201  13.835   9.050   1.810
98217W        W63202   7.886  39.892  13.130
98218W        W63203  32.567  17.116   2.299
98219W        W63204  37.461   5.388   1.734
98220W        W63205  34.879  14.392   3.090
98221W        W63206  32.966   1.761   4.537
98222W        W63207  27.556  14.729  14.743
98223W        W63208  24.588   1.341   0.366
98224W        W63209  35.795   9.672  11.076
98225W        W63210  32.015  12.619   9.972
98226W        W63211   2.755  16.269   0.372
98227W        W63212  25.710  23.083   3.337
98228W        W63213  36.938  27.367   4.453
98229W        W63214  29.674  28.525  14.973
98230W        W63215  19.780  31.639   3.359
98231W        W63216  42.203   9.636   3.276
98232W        W63217  14.316  29.494   2.470
98233W        W63218  16.970   2.838   4.199
98234W        W63219  22.574  18.513   1.380
98235W        W63220  40.162  34.846  14.515
98236W        W63221  16.431  11.800  13.341
98237W        W63222  40.329   9.749  11.798
98238W        W63223  22.674  29.526  14.048
98239W        W63224  44.352  40.568   2.347
98240W        W63225  12.699  14.625  12.554
98241W        W63226  31.026  38.364   3.024
98242W        W63227   4.404   6.829  13.016
98243W        W63228   8.605  31.804   4.149
98244W        W63229  25.742  21.692  14.458
98245W        W63230  34.591  22.523   0.332
98246W        W63231   5.686   6.947   4.637
98247W        W63232  42.033   8.360  12.167
98248W        W63233  41.761  38.797   2.020
98249W        W63234  28.089  22.889  12.837
98250W        W63235  10.359   3.969   4.853
98251W        W63236  20.176  28.010   3.558
98252W        W63237  31.167   1.260  14.000
98253W        W63238  26.637  30.156  13.431
98254W        W63239   0.966  23.654   3.766
98255W        W63240  12.137  26.743  14.244
98256W        W63241  24.472   3.256   1.681
98257W        W63242  12.078  13.069  11.902
98258W        W63243  25.961  20.082  11.129
98259W        W63244  37.956   4.231   4.056
98260W        W63245  39.489  17.227   2.497
98261W        W63246  43.133  41.799   0.441
98262W        W63247  25.572  34.374   1.485
98263W        W63248  35.059   7.626   1.865
98264W        W63249   2.358  24.692  11.720
98265W        W63250  43.788  33.555  13.978
98266W        W63251  42.266  10.782   4.035
98267W        W63252   6.090  40.777  12.061
98268W        W63253  20.700  29.151  13.778
98269W        W63254  39.548  13.131   3.946
98270W        W63255  24.171   9.874   2.641
98271W        W63256  23.037   4.460   2.990
98272W        W63257   1.766  28.343   2.385
98273W        W63258  38.861  42.015   0.760
98274W        W63259  35.019  42.062  11.230
98275W        W63260  30.595  14.723   4.652
98276W        W63261  28.062  26.983  14.981
98277W        W63262   5.950  44.022  13.042
98278W        W63263  34.967   6.383   3.206
98279W        W63264  22.078  25.446  11.964
98280W        W63265   5.194  28.922   3.331
98281W        W63266   9.804  41.032  12.042
98282W        W63267   4.733  36.920   3.461
98283W        W63268  28.634  41.778  14.051
98284W        W63269  29.171  36.168   0.831
98285W        W63270   2.419  44.201  12.445
98286W        W63271  27.102   7.984   3.800
98287W        W63272  42.451  10.305  11.517
98288W        W63273   3.248  18.715  14.867
98289W        W63274  31.136  42.485   1.459
98290W        W63275   9.231  17.582   3.103
98291W        W63276  25.657  15.798  12.619
98292W        W63277  26.730  18.686   2.159
98293W        W63278  25.265  26.937  13.447
98294W        W63279   4.279  37.679  10.523
98295W        W63280  29.197   2.718   2.740
98296W        W63281  21.637  34.055  14.948
98297W        W63282  14.258  43.972  14.478
98298W        W63283  10.810  42.984  10.260
98299W        W63284  25.749  15.077   0.326
98300W        W63285  24.082  39.826   3.206
98301W        W63286  33.325   1.225  11.129
98302W        W63287   7.667  10.373   0.340
98303W        W63288  12.938  43.543  14.325
98304W        W63289  38.894  31.470  14.429
98305W        W63290  37.420  24.370  11.951
98306W        W63291  44.793  18.128  11.994
98307W        W63292  30.524   3.171   1.915
98308W        W63293   8.600  23.540   0.236
98309W        W63294  14.620  13.387  12.497
98310W        W63295  33.971   4.129   2.209
98311W        W63296  31.443  14.737   2.366
98312W        W63297   9.380  26.013  12.137
98313W        W63298  36.664  35.075  13.594
98314W        W63299  33.173  16.012  11.804
98315W        W63300  23.706  34.077   4.267
98316W        W63301  10.383  24.647  11.569
98317W        W63302   3.501  40.877   3.791
98318W        W63303  28.529   2.919  14.309
98319W        W63304   9.257  30.648   2.255
98320W        W63305  29.029  43.430  14.519
98321W        W63306  19.246  28.078   1.315
98322W        W63307   0.893  30.262  10.709
98323W        W63308  16.168  29.804   5.516
98324W        W63309   7.622  21.745  14.312
98325W        W63310  33.471  15.594  14.022
98326W        W63311  32.497  42.840   1.710
98327W        W63312   0.807   3.488  14.950
98328W        W63313  30.436   2.370  13.479
98329W        W63314   6.442   3.278   1.207
98330W        W63315   0.857  27.940  12.051
98331W        W63316  22.464  11.822   0.905
98332W        W63317   1.212  30.197   3.215
98333W        W63318  25.509  43.563   0.951
98334W        W63319  29.460  33.309  12.129
98335W        W63320  17.303  40.419   3.666
98336W        W63321  26.208  32.146  13.674
98337W        W63322  11.667  10.415  11.927
98338W        W63323   0.447  38.431  11.183
98339W        W63324   5.382  35.966   0.516
98340W        W63325   4.344  37.824  13.222
98341W        W63326   5.725  15.630  11.038
98342W        W63327  33.630  30.256   2.280
98343W        W63328  13.586   3.745   2.234
98344W        W63329   5.288  43.904   1.315
98345W        W63330  43.326   0.822   1.852
98346W        W63331   8.188  36.115  12.838
98347W        W63332  13.453  13.889  11.313
98348W        W63333   4.168  32.167  13.717
98349W        W63334  26.612  19.181   4.695
98350W        W63335  17.270   6.256   1.954
98351W        W63336  27.552   1.779   3.175
98352W        W63337  30.353  20.071  12.051
98353W        W63338   0.692  43.041  11.328
98354W        W63339  34.015  23.736   4.637
98355W        W63340   6.700  14.233  14.817
98356W        W63341   4.641   2.921   0.776
98357W        W63342  13.859  24.448   3.653
98358W        W63343   1.999  17.449   3.245
98359W        W63344  15.615  33.525  13.515
98360W        W63345  42.933  42.920   3.559
98361W        W63346  22.458  23.707  14.764
98362W        W63347  21.814  35.506   4.696
98363W        W63348  29.025  14.089  10.853
98364W        W63349  43.658  12.071   2.457
98365W        W63350  11.689  44.470   3.590
98366W        W63351  28.088  31.601  14.736
98367W        W63352  40.342  32.637   2.762
98368W        W63353  15.134  15.816  12.907
98369W        W63354  12.732  23.483  14.315
98370W        W63355  15.514  36.368   4.986
98371W        W63356  14.260   9.547   5.073
98372W        W63357  44.710  37.922   3.396
98373W        W63358  24.459   4.147   1.227
98374W        W63359  23.032  42.782   1.292
98375W        W63360   3.620   0.422  13.813
98376W        W63361   5.157  14.223   2.832
98377W        W63362  44.520  24.075   4.526
98378W        W63363  16.292  28.217  13.858
98379W        W63364  18.591  11.362   2.876
98380W        W63365   1.914  25.033  12.861
98381W        W63366  23.153  40.456  10.055
98382W        W63367  33.846   1.276  11.121
98383W        W63368   6.289  36.748   4.117
98384W        W63369  44.340  43.402   1.628
98385W        W63370   1.804  21.581   3.683
98386W        W63371  23.221  24.183  12.481
98387W        W63372  30.793  37.956   3.650
98388W        W63373  32.408  22.114   3.745
98389W        W63374  41.541  29.427   0.475
98390W        W63375  31.650  17.739   0.654
98391W        W63376  39.789  26.998  13.837
98392W        W63377  28.883  14.236  13.823
98393W        W63378  25.460   0.697   5.446
98394W        W63379  34.400  18.126   0.718
98395W        W63380  35.986  25.994   0.935
98396W        W63381  13.279  11.223  11.021
98397W        W63382  43.373  12.696  13.563
98398W        W63383  43.829   0.442  12.471
98399W        W63384  38.956  12.388  11.945
98400W        W63385  23.909  39.520  12.080
98401W        W63386   0.529  17.531   4.111
98402W        W63387  44.755   2.280   4.634
98403W        W63388   7.733   0.989  13.628
98404W        W63389  24.707  22.472   4.898
98405W        W63390  37.225  34.218   4.985
98406W        W63391  32.041  31.869  12.451
98407W        W63392  30.184  26.677   2.740
98408W        W63393  42.381  42.948   2.828
98409W        W63394  37.819   5.808   2.733
98410W        W63395  12.113  40.752  13.050
98411W        W63396  39.431  26.695   2.939
98412W        W63397   2.874  32.433  13.499
98413W        W63398   5.743  40.930  12.895
98414W        W63399  21.473   1.830   2.327
98415W        W63400  27.769  11.113  10.716
98416W        W63401  30.910  43.574  13.971
98417W        W63402   3.797  22.999  11.548
98418W        W63403  39.937   5.146   0.933
98419W        W63404  15.285  16.239   4.529
98420W        W63405  25.326  32.082  12.472
98421W        W63406  20.061  21.497   1.812
98422W        W63407   7.160   5.258  11.976
98423W        W63408  31.015  13.239  11.177
98424W        W63409  37.295  23.318  12.931
98425W        W63410   0.357  27.084  10.576
98426W        W63411  33.671  43.559  12.558
98427W        W63412  30.728  28.019  10.953
98428W        W63413  16.094  13.583   0.040
98429W        W63414  10.448  37.074   1.324
98430W        W63415  30.073  33.631   0.353
98431W        W63416  11.307  24.048   4.412
98432W        W63417  15.848  31.899  14.034
98433W        W63418  26.810   3.376   0.513
98434W        W63419  10.689  10.793   4.732
98435W        W63420   4.256  23.027  12.640
98436W        W63421  37.734   7.949  10.382
98437W        W63422  35.964  20.440   2.361
98438W        W63423  17.677  41.007   2.225
98439W        W63424  24.821  12.162  11.091
98440W        W63425   3.407  14.540   1.933
98441W        W63426  26.005   4.766   0.914
98442W        W63427  18.227  24.744   0.910
98443W        W63428  13.392   3.626  13.089
98444W        W63429  25.129  20.033   1.678
98445W        W63430   9.696  12.169   1.583
98446W        W63431  39.823   2.253   2.004
98447W        W63432  12.323   4.491  12.019
98448W        W63433  16.607  31.132   1.212
98449W        W63434  17.767  21.695   4.526
98450W        W63435  43.576   9.203  12.027
98451W        W63436   6.853   3.977   1.250
98452W        W63437   6.709  10.261  12.477
98453W        W63438   8.405  22.595  12.465
98454W        W63439  36.611  11.699   2.230
98455W        W63440  24.461   0.857  10.644
98456W        W63441  42.327  10.592   0.219
98457W        W63442  36.329  35.150  12.320
98458W        W63443  22.239  17.122  12.433
98459W        W63444   7.762  34.548   1.461
98460W        W63445  40.852  31.226  13.822
98461W        W63446   6.781   4.050   0.017
98462W        W63447  34.587  15.663   4.118
98463W        W63448  28.326  32.619   2.358
98464W        W63449  18.328   1.800  14.031
98465W        W63450  30.617   1.710   4.749
98466W        W63451  23.034  31.019   1.096
98467W        W63452  21.651  18.402   9.692
98468W        W63453  44.193  29.662   3.716
98469W        W63454  44.402   7.286  12.776
98470W        W63455  23.382  26.462  12.635
98471W        W63456   5.790  44.394   0.853
98472W        W63457  15.777  38.921  11.709
98473W        W63458  22.118  40.037  11.581
98474W        W63459  28.584  20.851   1.148
98475W        W63460  39.791  30.083  13.764
98476W        W63461  20.157   6.349  10.790
98477W        W63462  17.038  38.467   4.300
98478W        W63463  30.814  39.642   9.948
98479W        W63464  18.740  10.060  10.049
98480W        W63465  30.987  26.647  13.539
98481W        W63466  16.506  16.617   4.160
98482W        W63467  17.126   6.780   0.725
98483W        W63468  24.679   8.743   2.317
98484W        W63469  39.363  35.137  12.087
98485W        W63470  18.997  29.716   3.201
98486W        W63471   3.284  19.566   2.367
98487W        W63472  15.049  23.586   4.611
98488W        W63473  31.183   8.714   2.224
98489W        W63474  17.228  23.740  11.573
98490W        W63475  32.423   3.852  14.068
98491W        W63476  41.301  17.120   2.277
98492W        W63477  36.209  23.042   0.923
98493W        W63478  38.077  36.357  10.535
98494W        W63479  20.110  43.350   2.237
98495W        W63480  41.276  41.525   2.243
98496W        W63481  12.739   5.024   4.911
98497W        W63482  30.917  40.858   1.890
98498W        W63483  37.533  15.576   1.208
98499W        W63484   1.772   6.266  11.053
98500W        W63485   5.306  16.325   1.277
98501W        W63486  42.519  32.424   0.839
98502W        W63487  27.674  11.349  12.918
98503W        W63488  28.960  24.746   0.304
98504W        W63489  30.397   2.888   3.015
98505W        W63490  25.198   4.352   2.215
98506W        W63491  13.847  20.061   0.499
98507W        W63492   6.160   3.523  14.434
98508W        W63493  21.410  21.968  12.504
98509W        W63494   3.240  44.955   1.346
98510W        W63495  41.894  10.778   1.861
98511W        W63496  36.138  37.432  11.706
98512W        W63497  21.274   5.919   0.003
98513W        W63498  44.035  23.200   1.868
98514W        W63499  28.627  42.070   2.667
98515W        W63500  29.975  12.673   4.318
98516W        W63501  38.937   6.332  14.685
98517W        W63502   1.985  11.101  14.077
98518W        W63503  38.459  22.957  14.515
98519W        W63504  27.426  12.517   3.185
98520W        W63505  19.280  40.264   4.051
98521W        W63506  40.404  27.522  14.828
98522W        W63507  18.471   5.420   3.128
98523W        W63508  36.976   8.385   3.664
98524W        W63509   5.234  44.795   4.620
98525W        W63510  10.563   0.436  14.029
98526W        W63511  19.160  36.963   2.559
98527W        W63512   4.875  31.647  14.427
98528W        W63513  37.513  13.147  11.550
98529W        W63514  14.312  36.360   0.767
98530W        W63515  24.389  20.085  14.787
98531W        W63516   3.432  38.495  12.155
98532W        W63517  33.433   2.491  11.482
98533W        W63518  19.229  42.392   0.745
98534W        W63519   0.971  31.293  12.502
98535W        W63520   7.019  21.657   1.977
98536W        W63521  39.282  18.179   2.500
98537W        W63522  23.446  28.707   0.343
98538W        W63523  36.112  20.698   4.214
98539W        W63524  23.401  25.480  12.059
98540W        W63525  31.060   7.871  11.926
98541W        W63526  32.272  13.674   4.395
98542W        W63527   2.509   1.462   2.173
98543W        W63528  44.284  25.896   1.829
98544W        W63529   7.973   8.615  13.371
98545W        W63530  31.043  11.930   2.140
98546W        W63531  14.610  40.834  14.255
98547W        W63532   5.389   3.788  12.022
98548W        W63533  16.540  30.913   0.728
98549W        W63534  40.974  29.785   5.029
98550W        W63535  19.724  30.116   2.829
98551W        W63536  31.507  27.455  11.220
98552W        W63537   9.813  43.449  12.126
98553W        W63538  11.794  24.187  12.928
98554W        W63539   6.425  25.254  11.075
98555W        W63540  38.488  27.455  10.601
98556W        W63541   6.788  37.631  14.010
98557W        W63542  31.615  19.611  11.976
98558W        W63543   2.492  14.062  10.303
98559W        W63544   5.998  42.327  14.824
98560W        W63545  38.868  17.071   0.320
98561W        W63546  34.851  11.316  10.220
98562W        W63547  32.015  27.269  10.684
98563W        W63548  31.866  25.078  14.454
98564W        W63549   6.273  13.820  14.325
98565W        W63550   1.156  17.242  12.064
98566W        W63551  39.111   0.780  12.306
98567W        W63552  30.741   9.397  13.514
98568W        W63553  44.751   4.460   3.990
98569W        W63554  16.162  13.517  10.630
98570W        W63555  42.044  19.469  14.007
98571W        W63556  19.708  27.758  10.631
98572W        W63557  30.633  28.559   4.162
98573W        W63558   6.769  37.516  11.508
98574W        W63559  25.626  35.359   1.308
98575W        W63560  18.824  26.069  11.135
98576W        W63561   6.296  44.263   0.703
98577W        W63562  30.820  39.349  12.479
98578W        W63563  11.702  37.162  11.213
98579W        W63564  23.819  19.381   9.984
98580W        W63565  32.605  16.605  14.775
98581W        W63566   9.198  20.112  10.391
98582W        W63567  19.679  42.242   3.676
98583W        W63568  44.329  22.487   3.202
98584W        W63569  13.675   8.848  13.656
98585W        W63570   7.357  29.467   0.742
98586W        W63571  43.534  27.171  11.984
98587W        W63572  38.166   5.403   2.750
98588W        W63573  39.449  24.798   1.898
98589W        W63574  19.714  19.775   0.988
98590W        W63575  17.314   2.392   1.495
98591W        W63576  11.200  41.469  10.445
98592W        W63577  43.165  39.226   0.378
98593W        W63578  34.474  44.369   2.421
98594W        W63579  32.743   3.080   1.376
98595W        W63580  25.122  43.799  14.427
98596W        W63581  43.865  25.430   4.545
98597W        W63582  14.252  31.388  13.502
98598W        W63583  43.837   4.682   4.364
98599W        W63584  28.952   3.162   2.667
98600W        W63585   9.228  39.433  13.997
98601W        W63586  35.920  44.825  13.417
98602W        W63587  29.712  29.148   3.087
98603W        W63588  16.477  43.920   1.449
98604W        W63589  34.969   6.288   4.414
98605W        W63590  21.502  35.829  13.419
98606W        W63591  31.185  18.557  14.303
98607W        W63592  16.854   9.767  10.856
98608W        W63593  17.531  14.037   1.392
98609W        W63594  37.209  39.786  11.472
98610W        W63595  31.939  30.612   0.940
98611W        W63596  44.804  34.919   3.580
98612W        W63597  32.032   6.958   0.024
98613W        W63598  10.026  31.961  11.878
98614W        W63599   7.483  27.694  11.311
98615W        W63600  38.833  34.604  12.042
98616W        W63601   3.327  44.009  14.283
98617W        W63602  29.194   3.399  11.161
98618W        W63603  14.151  41.371  12.544
98619W        W63604  16.435  15.118   1.415
98620W        W63605  11.356  35.575  13.960
98621W        W63606  30.857  10.849  14.442
98622W        W63607  32.664   9.478   9.719
98623W        W63608  42.393  37.946   9.906
98624W        W63609  24.677  44.710  11.090
98625W        W63610  43.883   3.813  12.866
98626W        W63611  35.022  40.917   2.608
98627W        W63612   1.278  12.054  13.177
98628W        W63613  24.222  34.526  14.843
98629W        W63614  31.167  30.702  14.454
98630W        W63615  19.716  20.253  12.984
98631W        W63616  37.844  22.823   1.822
98632W        W63617  21.563   4.461  11.341
98633W        W63618  34.148  41.303   0.971
98634W        W63619   6.224  43.117   3.049
98635W        W63620   3.451  40.889  13.403
98636W        W63621  37.772  19.131  13.338
98637W        W63622  24.503  42.784  14.912
98638W        W63623  14.468  42.156  14.082
98639W        W63624  15.729   8.331  11.032
98640W        W63625  13.433  13.219   0.723
98641W        W63626  17.102  22.507   4.555
98642W        W63627   0.652   7.693   3.709
98643W        W63628  25.920  38.919   2.072
98644W        W63629  12.590  23.036  13.388
98645W        W63630   2.955   0.310   0.363
98646W        W63631   2.856  13.329  12.435
98647W        W63632  20.358  17.724  10.297
98648W        W63633   7.223   1.259  14.963
98649W        W63634  41.593   0.740  13.673
98650W        W63635   5.137  42.969  13.014
98651W        W63636  38.484  43.490  14.150
98652W        W63637  34.381  19.140   0.411
98653W        W63638  27.983   1.996  12.903
98654W        W63639  11.169  16.594   2.551
98655W        W63640  32.469  28.399  12.354
98656W        W63641   1.663  32.711  14.888
98657W        W63642   2.018  32.029   2.397
98658W        W63643  30.921  42.245   1.852
98659W        W63644  35.405  13.843   3.755
98660W        W63645  15.310   2.651  11.141
98661W        W63646  10.593   7.723   3.521
98662W        W63647  13.715  31.815   1.907
98663W        W63648  23.892  32.187   1.031
98664W        W63649  29.559   9.899  12.532
98665W        W63650   0.357   4.451   2.372
98666W        W63651  31.943  43.886   2.214
98667W        W63652  38.349  24.702  14.047
98668W        W63653  21.245   9.282  11.229
98669W        W63654  40.535  29.647   4.305
98670W        W63655  13.317  19.605  14.973
98671W        W63656  10.418  23.714   2.364
98672W        W63657  39.268   7.528   2.902
98673W        W63658  27.723  13.753  13.715
98674W        W63659   3.397  37.754  11.141
98675W        W63660   0.488  11.131  11.237
98676W        W63661   2.172  21.269   2.259
98677W        W63662  21.021  31.669   0.300
98678W        W63663   1.837  35.972   2.317
98679W        W63664   3.306   4.315  10.857
98680W        W63665   5.830  15.169  12.400
98681W        W63666   2.397  23.062   2.916
98682W        W63667  42.728  32.521  12.032
98683W        W63668  11.650  19.773   2.398
98684W        W63669  40.855  11.197   1.589
98685W        W63670  10.874  35.841  11.223
98686W        W63671  25.441  31.819   0.898
98687W        W63672  40.258  33.491  13.395
98688W        W63673  10.142  31.086   1.406
98689W        W63674  22.096  10.251   2.320
98690W        W63675  14.794  40.059  12.710
98691W        W63676  23.933  31.948  10.642
98692W        W63677  10.699  33.773  13.110
98693W        W63678  41.419  14.916   0.354
98694W        W63679  35.434   6.119   0.490
98695W        W63680   7.880  13.614  14.859
98696W        W63681  30.964   3.664  13.024
98697W        W63682  13.536   1.822  10.303
98698W        W63683  22.833  16.601  12.869
98699W        W63684  35.188  11.434  10.609
98700W        W63685  42.616   8.187  12.138
98701W        W63686   5.318   7.280   1.867
98702W        W63687  19.018  37.478   2.579
98703W        W63688  27.123  43.477   1.237
98704W        W63689  21.667  34.548   0.721
98705W        W63690  17.507   4.576   3.147
98706W        W63691  44.730  13.766  10.718
98707W        W63692  11.286  30.447  11.615
98708W        W63693   1.723  12.776   0.951
98709W        W63694   3.697  33.762   0.792
98710W        W63695  25.768   4.338   3.225
98711W        W63696  17.570  33.657  13.301
98712W        W63697  41.782   2.335   0.253
98713W        W63698  12.715   4.935  12.437
98714W        W63699  43.927   0.283   3.680
98715W        W63700   8.799  18.059  10.779
98716W        W63701  18.672   6.234  12.223
98717W        W63702  23.242  12.571  13.649
98718W        W63703  44.897   6.200   4.133
98719W        W63704  35.791   3.967   4.209
98720W        W63705  28.320   0.370  10.191
98721W        W63706  31.902  44.005   0.773
98722W        W63707  44.061  31.234  13.407
98723W        W63708  42.338  20.695   4.466
98724W        W63709  15.230  13.717   3.592
98725W        W63710   9.705  15.161  12.229
98726W        W63711   7.317  28.037   2.053
98727W        W63712  19.196  12.392  12.621
98728W        W63713  32.124  21.765   4.915
98729W        W63714  33.034  13.107  13.400
98730W        W63715  31.573   1.312  11.872
98731W        W63716  13.171  16.214  12.591
98732W        W63717  28.234  10.846  11.241
98733W        W63718   7.114  42.811  12.877
98734W        W63719  22.661  35.589  10.566
98735W        W63720  36.616  13.238   1.686
98736W        W63721   5.498  24.488   1.131
98737W        W63722  11.591  26.491  13.918
98738W        W63723  19.707  24.184   0.098
98739W        W63724   0.003  24.756   4.158
98740W        W63725  39.072   9.754  12.394
98741W        W63726  22.071  23.147   3.690
98742W        W63727  29.559   6.069  13.308
98743W        W63728  27.183  35.952  12.909
98744W        W63729  37.515  21.273   4.580
98745W        W63730  15.322  15.281   2.223
98746W        W63731  37.598  16.576  12.558
98747W        W63732   7.191  10.551   0.360
98748W        W63733  23.628   1.279  10.444
98749W        W63734  25.717  14.185  14.351
98750W        W63735  25.135  32.920   4.105
98751W        W63736  34.966   7.668  14.966
98752W        W63737  39.791  13.784  13.852
98753W        W63738  29.133  40.145  13.578
98754W        W63739  42.427  28.895  12.438
98755W        W63740   1.501  10.287   2.317
98756W        W63741  32.502  12.599   9.684
98757W        W63742  25.157  40.240  12.536
98758W        W63743   7.910  24.263   2.339
98759W        W63744   5.917  35.366  11.868
98760W        W63745  28.759   8.527   0.963
98761W        W63746   1.278  25.715  13.218
98762W        W63747   6.865  25.384  14.399
98763W        W63748   9.840  29.130  14.307
98764W        W63749  12.374  40.843   3.181
98765W        W63750  30.749   7.512  11.044
98766W        W63751  17.352  12.772   1.458
98767W        W63752  40.801   6.766   0.343
98768W        W63753  33.111  21.440  14.518
98769W        W63754   9.218   5.951  14.396
98770W        W63755  24.730   8.257  10.869
98771W        W63756  22.672  39.285  14.499
98772W        W63757  15.210  12.956   4.686
98773W        W63758  20.955   3.999  10.745
98774W        W63759  40.642   4.756  10.799
98775W        W63760  36.756  27.900  12.805
98776W        W63761  36.431  40.456   1.231
98777W        W63762   2.337  16.260  12.361
98778W        W63763  43.327  31.184   1.945
98779W        W63764  12.851  37.909   3.288
98780W        W63765   4.694  11.925   3.561
98781W        W63766   5.747  42.935  12.114
98782W        W63767  44.389  26.145  12.958
98783W        W63768  44.391  37.665  12.941
98784W        W63769  32.492  20.229   1.775
98785W        W63770  40.697  42.862   5.080
98786W        W63771  35.080  40.748  10.759
98787W        W63772  16.722  17.152  14.366
98788W        W63773  39.325  37.603  14.438
98789W        W63774  10.400  21.588   0.061
98790W        W63775  21.759  26.619   1.851
98791W        W63776  14.256  41.562  12.077
98792W        W63777  12.124   7.453  10.720
98793W        W63778  13.958  34.006   1.433
98794W        W63779   7.818  14.918  14.356
98795W        W63780  10.409   4.365   2.210
98796W        W63781   8.902  40.439   4.625
98797W        W63782   7.527  41.754  11.849
98798W        W63783  14.155   6.927  13.021
98799W        W63784   7.477  28.186  11.184
98800W        W63785  15.074   2.893  10.709
98801W        W63786  21.535  40.064   2.280
98802W        W63787  22.166  42.903  10.657
98803W        W63788  26.729  27.099   0.922
98804W        W63789  23.149  24.114   1.823
98805W        W63790  31.914  41.865  14.049
98806W        W63791   9.146   2.348  14.874
98807W        W63792  44.066  34.869   1.733
98808W        W63793   6.742  40.160   2.180
98809W        W63794   5.351  17.846  13.886
98810W        W63795  39.901   0.734  11.586
98811W        W63796   6.895  16.324   2.199
98812W        W63797  22.737  21.280   3.744
98813W        W63798  14.571  24.071   1.900
98814W        W63799  10.937   5.463   2.747
98815W        W63800  18.933  30.234   3.200
98816W        W63801   2.900  40.006  13.364
98817W        W63802  37.074   9.671  11.445
98818W        W63803   6.841  44.413  14.914
98819W        W63804  28.187  36.098  10.710
98820W        W63805   0.218  34.167  11.710
98821W        W63806  24.248   4.795  12.734
98822W        W63807   4.321  38.048  14.575
98823W        W63808  23.709  14.776  11.220
98824W        W63809  29.782  23.661  11.199
98825W        W63810  34.424  11.027  14.627
98826W        W63811  29.003   0.832  12.654
98827W        W63812   5.937  19.157   2.197
98828W        W63813   1.997  18.638  11.660
98829W        W63814   2.990  30.188   4.156
98830W        W63815  11.986   8.379  11.108
98831W        W63816   5.880  43.791  10.734
98832W        W63817  22.824   1.877  11.241
98833W        W63818  19.260  12.137  10.627
98834W        W63819  37.393  40.319   1.741
98835W        W63820  14.655  14.038   2.015
98836W        W63821  43.681  35.252   0.849
98837W        W63822  28.001  10.375  11.240
98838W        W63823   7.608  32.016  14.403
98839W        W63824  17.364   9.550   0.912
98840W        W63825  34.659   5.707  14.986
98841W        W63826  20.598  40.463   2.376
98842W        W63827  26.968   0.915  13.304
98843W        W63828  11.964   5.336  12.903
98844W        W63829  10.420   4.304  12.608
98845W        W63830  15.765   0.480   0.084
98846W        W63831   9.224  16.091   0.743
98847W        W63832  22.624   2.081  10.434
98848W        W63833  23.723   8.374  11.730
98849W        W63834   2.689  17.970  11.609
98850W        W63835  14.606   7.858  13.827
98851W        W63836  30.955   5.956   1.870
98852W        W63837  30.890  31.842  10.150
98853W        W63838  15.940  34.589   0.914
98854W        W63839  14.002   2.824  13.295
98855W        W63840   5.206  33.145   3.711
98856W        W63841  44.309   1.560  11.895
98857W        W63842  15.690  29.582  14.693
98858W        W63843  37.179  15.213   3.555
98859W        W63844  30.693  18.017  13.410
98860W        W63845  27.483  23.673  13.849
98861W        W63846  19.549  37.911   3.272
98862W        W63847   7.785  31.090   1.409
98863W        W63848  22.585  31.440   2.385
98864W        W63849  13.616  25.166  14.599
98865W        W63850  28.130  29.906   4.110
98866W        W63851  20.161  42.951   1.435
98867W        W63852  39.806  14.682   3.212
98868W        W63853  31.074  28.606  12.143
98869W        W63854   8.889  34.999  13.023
98870W        W63855  12.569  40.782  14.299
98871W        W63856  35.445  11.736  14.998
98872W        W63857  34.663  25.740  12.605
98873W        W63858  24.710  14.704   3.219
98874W        W63859  13.866   5.618   0.299
98875W        W63860  20.016  23.269   1.404
98876W        W63861  13.790  10.903  14.956
98877W        W63862   7.440  14.209  10.680
98878W        W63863   9.870  31.516   1.535
98879W        W63864  17.185  26.695  12.589
98880W        W63865   8.900  24.605   4.128
98881W        W63866  20.709   8.786   0.001
98882W        W63867  21.992   8.813   0.392
98883W        W63868   8.335  44.244   2.458
98884W        W63869  32.070  28.187   3.807
98885W        W63870  20.472  20.524   4.167
98886W        W63871  35.474  31.571  13.456
98887W        W63872  34.030  15.138   1.317
98888W        W63873  19.096  32.240   2.224
98889W        W63874  11.916  13.549   2.223
98890W        W63875  40.043  14.038   4.739
98891W        W63876  19.712  37.385  13.585
98892W        W63877  16.354  26.465  10.675
98893W        W63878   2.875  38.376  14.418
98894W        W63879  22.740  30.826  13.151
98895W        W63880  32.002   3.373   0.678
98896W        W63881  20.740  30.712   2.949
98897W        W63882  33.561  27.280   1.234
98898W        W63883   8.085   2.035  14.016
98899W        W63884  31.560  36.553   2.948
98900W        W63885  44.039   7.894  10.904
98901W        W63886  26.571   6.191   3.794
98902W        W63887  15.464  20.634   1.871
98903W        W63888   0.036  32.475   2.944
98904W        W63889  10.235   9.161  10.694
98905W        W63890  42.572   4.597  12.531
98906W        W63891  23.947   2.548  12.846
98907W        W63892  21.231   4.308  14.917
98908W        W63893   8.394  20.199  13.309
98909W        W63894  20.986   1.362   0.398
98910W        W63895  30.906  44.008   2.636
98911W        W63896   6.826   3.640  14.137
98912W        W63897  26.207   8.112   3.210
98913W        W63898  31.626   9.637  13.020
98914W        W63899  36.125   9.217   0.730
98915W        W63900  30.919  30.547   0.770
98916W        W63901  13.211  40.342  13.113
98917W        W63902  40.807  13.982   1.398
98918W        W63903  28.550  20.846  14.514
98919W        W63904  37.601   8.922  13.440
98920W        W63905  20.077  44.004   3.378
98921W        W63906  42.032  10.500   3.065
98922W        W63907  30.405  31.513   0.915
98923W        W63908  28.554  27.046   2.364
98924W        W63909  37.020  19.269  12.672
98925W        W63910  33.749  37.493  14.190
98926W        W63911  14.111  19.743  10.615
98927W        W63912  41.233  20.693   4.140
98928W        W63913  11.916  29.336   3.785
98929W        W63914  30.224  44.308  10.533
98930W        W63915  27.210  14.421   5.055
98931W        W63916   6.733   9.725   5.030
98932W        W63917   7.988  42.559   3.333
98933W        W63918   7.598  41.187   0.517
98934W        W63919  13.841   2.618   3.799
98935W        W63920  33.029  43.319  11.367
98936W        W63921   6.861  12.299  11.696
98937W        W63922  22.279  37.820   3.106
98938W        W63923   8.739   5.009   0.336
98939W        W63924   2.786  35.005   4.171
98940W        W63925  34.060  35.418   0.396
98941W        W63926  25.167  25.645   3.832
98942W        W63927  32.662  29.181  12.089
98943W        W63928  21.032  12.134  14.736
98944W        W63929  20.286  17.993  11.122
98945W        W63930   9.807  34.779   0.503
98946W        W63931  30.798  27.559  13.741
98947W        W63932   3.811   5.372   4.062
98948W        W63933  40.231  24.175  11.691
98949W        W63934  32.706  40.440   3.242
98950W        W63935   8.946  42.323   3.349
98951W        W63936  22.449   5.325   0.400
98952W        W63937  42.302   0.102  11.049
98953W        W63938  26.104  36.405   0.805
98954W        W63939  27.416  28.941   0.270
98955W        W63940  42.382  41.521   1.986
98956W        W63941  21.233  34.877  11.663
98957W        W63942   5.338  19.302  11.747
98958W        W63943  22.427  43.327  10.799
98959W        W63944   3.588  13.649  14.576
98960W        W63945  33.134   3.186  12.977
98961W        W63946  39.066  28.330   1.163
98962W        W63947  29.177  11.203  13.045
98963W        W63948   0.926  21.519  10.309
98964W        W63949  41.323   7.180  14.846
98965W        W63950  21.194  29.406  10.575
98966W        W63951  41.752  26.871  12.830
98967W        W63952  10.308  39.522  12.637
98968W        W63953  15.591  23.645  12.800
98969W        W63954  13.525  27.362   4.524
98970W        W63955  21.654  43.000   0.787
98971W        W63956  26.221  38.766  11.463
98972W        W63957  43.229  12.621  12.110
98973W        W63958  38.678  30.346  11.748
98974W        W63959   7.875  11.694   4.965
98975W        W63960   8.063  23.946  11.115
98976W        W63961  27.960  39.982  13.743
98977W        W63962  11.898  11.785  10.504
98978W        W63963   9.314  19.783   3.448
98979W        W63964   6.917  30.849  12.045
98980W        W63965  29.420  12.402  14.284
98981W        W63966  15.468  30.597   4.627
98982W        W63967  28.129  16.013  12.262
98983W        W63968  30.641   4.442   4.282
98984W        W63969  30.208  44.785   4.253
98985W        W63970   0.741  25.693   3.767
98986W        W63971  22.084  32.194  12.120
98987W        W63972  44.021  36.285  13.834
98988W        W63973  40.805  33.376  12.523
98989W        W63974  11.666  14.097  14.953
98990W        W63975  11.846  18.724  11.153
98991W        W63976  30.139  24.046  12.967
98992W        W63977  41.807  16.433   4.479
98993W        W63978  32.397   3.428  14.524
98994W        W63979   2.900  17.041   2.877
98995W        W63980  40.893  23.056  11.417
98996W        W63981  33.477   3.716  14.335
98997W        W63982  15.755  38.079  11.036
98998W        W63983  39.270  37.076  11.127
98999W        W63984  35.108  22.261   3.144
99000W        W63985  35.323   5.945  11.654
99001W        W63986  18.850   3.557  11.181
99002W        W63987  12.448  25.026  12.000
99003W        W63988  27.627  26.018   2.281
99004W        W63989  15.696  10.355  11.110
99005W        W63990  36.258  14.432  11.949
99006W        W63991  35.359   1.750   3.309
99007W        W63992  25.634  19.212   0.375
99008W        W63993  27.920  30.138   3.709
99009W        W63994  16.803   4.402   3.629
99010W        W63995  31.836  12.137  10.747
99011W        W63996   7.341  43.298   0.248
99012W        W63997   1.445  34.917   3.474
99013W        W63998  13.554   5.211   4.078
99014W        W63999  31.352   9.109   3.585
99015W        W64000  21.478  33.392   1.325
99016W        W64001  25.992  33.211   9.407
99017W        W64002  31.234   7.664  11.148
99018W        W64003   3.807   0.240  11.620
99019W        W64004  17.232  40.911   2.460
99020W        W64005  26.505   0.074  11.375
99021W        W64006  21.711  37.246  11.225
99022W        W64007   3.369  36.580  12.157
99023W        W64008   6.448  40.263   0.523
99024W        W64009  36.542  25.041  10.606
99025W        W64010  32.073  14.450   1.384
99026W        W64011  23.662  19.305   0.944
99027W        W64012  15.959  32.056  11.347
99028W        W64013  19.572  44.850  12.252
99029W        W64014  14.056  15.005   2.800
99030W        W64015  14.632  35.961   4.135
99031W        W64016  30.085  44.813  10.582
99032W        W64017  41.225  12.861  14.015
99033W        W64018  34.449  19.606  13.704
99034W        W64019  44.208  14.506   4.077
99035W        W64020   9.907  31.368   3.756
99036W        W64021  35.168  22.298  10.359
99037W        W64022   3.822  19.694  14.063
99038W        W64023  20.617  26.611  11.814
99039W        W64024  14.410   6.084   9.894
99040W        W64025  12.168   5.688   3.734
99041W        W64026   7.925  42.187   1.333
99042W        W64027  31.630  30.019   3.727
99043W        W64028   2.634  23.138   2.313
99044W        W64029  40.059  13.602  11.444
99045W        W64030  41.445  38.186  12.011
99046W        W64031  31.371  26.717  13.908
99047W        W64032  16.727  14.258  10.737
99048W        W64033  20.521  16.290   3.096
99049W        W64034   0.471  31.114   3.721
99050W        W64035   7.244   6.349   1.370
99051W        W64036  27.816   1.116   2.742
99052W        W64037   4.740   0.863  10.571
99053W        W64038  18.569   7.417  13.782
99054W        W64039  39.912   3.089  10.534
99055W        W64040  19.683  33.960  11.208
99056W        W64041  41.337  30.423   3.279
99057W        W64042  11.148  35.967  10.803
99058W        W64043   1.230  10.125  10.381
99059W        W64044  18.394  33.293   5.025
99060W        W64045  13.155   4.624   2.660
99061W        W64046  11.229  41.028   0.834
99062W        W64047  35.298   2.106  14.333
99063W        W64048  42.996  23.797   1.316
99064W        W64049  37.481  25.131  14.315
99065W        W64050   6.345  26.535  14.404
99066W        W64051  26.962  29.247  14.688
99067W        W64052  32.259   2.823   4.169
99068W        W64053  16.584  34.636   2.101
99069W        W64054  20.130  38.924   1.270
99070W        W64055   3.897  19.252   4.864
99071W        W64056  43.692   2.102   2.885
99072W        W64057  43.949  24.689   5.563
99073W        W64058  20.812   5.327   2.574
99074W        W64059  35.089  24.041   2.818
99075W        W64060  22.028  18.673  11.151
99076W        W64061  21.511  22.004   3.146
99077W        W64062   7.907  22.018   2.913
99078W        W64063  28.528   6.772  14.284
99079W        W64064   8.167  30.972   0.348
99080W        W64065   5.352  36.699  12.370
99081W        W64066   5.012  29.694  13.758
99082W        W64067   2.338  28.789  14.068
99083W        W64068  28.044   2.513  11.206
99084W        W64069  20.137  11.834   1.153
99085W        W64070  26.801   8.182  11.367
99086W        W64071   3.854   9.713  14.475
99087W        W64072   2.743  18.553  14.826
99088W        W64073  35.465  18.512   1.363
99089W        W64074  40.028   7.770   3.818
99090W        W64075  11.379   4.557   3.879
99091W        W64076  34.651  21.480   2.269
99092W        W64077  28.602  43.738  14.763
99093W        W64078  15.021  17.192   2.388
99094W        W64079  16.576  20.584  14.372
99095W        W64080   2.449  13.333   0.216
99096W        W64081  44.580   7.637   4.224
99097W        W64082  18.018   9.338  12.040
99098W        W64083  10.656  38.469   0.356
99099W        W64084  12.669  31.864  10.571
99100W        W64085  13.272  23.625  14.426
99101W        W64086   3.239  41.621  10.644
99102W        W64087   1.092  26.706   3.528
99103W        W64088   5.280  20.346  11.869
99104W        W64089  41.810   0.307  14.292
99105W        W64090  19.257   8.458  11.095
99106W        W64091  25.420  27.286   1.366
99107W        W64092  20.076  22.438   2.764
99108W        W64093  24.021  35.916   2.810
99109W        W64094  28.126  37.513  12.654
99110W        W64095   5.447  44.451   0.475
99111W        W64096  21.692  15.072   4.582
99112W        W64097  23.478  20.796   0.838
99113W        W64098  41.464  33.894  10.458
99114W        W64099   9.714  15.093  13.592
99115W        W64100  16.204  44.483  10.965
99116W        W64101   7.832  14.651   4.014
99117W        W64102  27.330  40.754   3.157
99118W        W64103   5.881  21.545   4.642
99119W        W64104  44.338  10.780  13.465
99120W        W64105  20.160  19.826  11.432
99121W        W64106  13.585   0.376  11.816
99122W        W64107  40.084   6.882   4.597
99123W        W64108   5.834  13.369  10.835
99124W        W64109  16.083  37.006   2.356
99125W        W64110  28.031  13.821   0.943
99126W        W64111  21.522  25.007   2.566
99127W        W64112  15.201   3.366  13.541
99128W        W64113   7.828  30.521   1.699
99129W        W64114  10.457  36.093   1.428
99130W        W64115  11.884  17.172  13.231
99131W        W64116  37.325   6.398   0.312
99132W        W64117  13.298   6.918   0.422
99133W        W64118  42.311  23.625   3.566
99134W        W64119  38.908  30.136  10.492
99135W        W64120  17.059  13.031  14.391
99136W        W64121  12.420   5.841   2.386
99137W        W64122  24.154  10.648   0.102
99138W        W64123  16.567  37.925  13.470
99139W        W64124  43.718  24.634   4.107
99140W        W64125  12.685  13.212   2.728
99141W        W64126   8.217  12.063   2.688
99142W        W64127  21.004  30.928   3.328
99143W        W64128  13.973  18.823  12.162
99144W        W64129  13.892   4.703   2.352
99145W        W64130  40.431   7.662  12.444
99146W        W64131  25.947  26.320   0.895
99147W        W64132  33.974  36.873   2.184
99148W        W64133   3.905  28.014  10.666
99149W        W64134  16.237  13.780   2.828
99150W        W64135  20.745  17.845   4.842
99151W        W64136  19.243  33.045  10.706
99152W        W64137   5.856  17.728  10.579
99153W        W64138  16.153  44.565   0.306
99154W        W64139  31.137  15.579  12.075
99155W        W64140  13.342  25.200  12.026
99156W        W64141  13.363  17.623  14.949
99157W        W64142  18.222  27.030   1.241
99158W        W64143  19.555  15.182   1.355
99159W        W64144  14.494  24.662   0.964
99160W        W64145   2.481   7.425  12.501
99161W        W64146   3.997  36.884   2.808
99162W        W64147  23.647  25.081  14.320
99163W        W64148  24.743  22.258   1.257
99164W        W64149  17.893  12.624  14.724
99165W        W64150  19.788  31.908  14.939
99166W        W64151  11.521  11.121  12.438
99167W        W64152   6.434  33.480   4.142
99168W        W64153  22.260  30.413  10.680
99169W        W64154  32.352  38.054   2.709
99170W        W64155  44.842  14.552  10.961
99171W        W64156   8.848  44.202  11.144
99172W        W64157  10.058  42.411  14.080
99173W        W64158   8.878  36.356  13.849
99174W        W64159  39.266  23.959  12.063
99175W        W64160   7.637  32.949  12.337
99176W        W64161  27.518   2.461  12.934
99177W        W64162  23.863  41.179   0.598
99178W        W64163  32.236   7.402   2.276
99179W        W64164  42.669   8.007  14.722
99180W        W64165  13.081  27.230   2.932
99181W        W64166  32.592  15.102  10.660
99182W        W64167  19.991  26.273  13.363
99183W        W64168  31.064  31.602  12.141
99184W        W64169  29.850  34.408  13.813
99185W        W64170  19.149  41.931   2.597
99186W        W64171   3.720  36.419   4.050
99187W        W64172   9.639  27.920  10.975
99188W        W64173  30.895  29.034   2.279
99189W        W64174   9.330  32.503  11.634
99190W        W64175   5.536  38.577  12.093
99191W        W64176  10.454  23.376   4.185
99192W        W64177  12.169  16.570   2.196
99193W        W64178  41.002   4.076  12.806
99194W        W64179   9.961   6.997   1.256
99195W        W64180  30.123  14.639  11.999
99196W        W64181  24.628  22.754  11.773
99197W        W64182  31.318  33.440  13.450
99198W        W64183  31.754  26.226   2.456
99199W        W64184  22.499  44.843  11.209
99200W        W64185  28.437  36.494  12.550
99201W        W64186   6.642   0.789   3.671
99202W        W64187  25.315   5.010   3.608
99203W        W64188  13.765  24.740  13.797
99204W        W64189  43.933  25.765   2.865
99205W        W64190   1.921  39.072   1.785
99206W        W64191  34.807  25.025  14.771
99207W        W64192  15.223   4.649  12.769
99208W        W64193   1.504  23.484  14.509
99209W        W64194  37.556  12.780   0.617
99210W        W64195  15.235   3.310   4.337
99211W        W64196  10.739   6.265   4.687
99212W        W64197  37.321  19.594   1.297
99213W        W64198  32.780  10.051  10.252
99214W        W64199  43.422  39.925  12.654
99215W        W64200  22.926   1.946  13.405
99216W        W64201  29.419  33.392   1.827
99217W        W64202  40.890  25.152   1.204
99218W        W64203  11.658  27.041   4.789
99219W        W64204  17.676  15.432  13.569
99220W        W64205  23.633  33.163  14.851
99221W        W64206  25.486  26.964   0.970
99222W        W64207  18.646  14.307   4.768
99223W        W64208  34.881   5.424  12.846
99224W        W64209   1.432   8.296   4.967
99225W        W64210  41.743   6.447  11.115
99226W        W64211  13.670  37.449   1.884
99227W        W64212  26.610   3.174   2.850
99228W        W64213  12.239  17.653   4.585
99229W        W64214  24.085  37.819  11.567
99230W        W64215   4.386  31.976  11.715
99231W        W64216   5.225  42.310   2.012
99232W        W64217  25.268  18.951  11.162
99233W        W64218  35.371  25.258  13.893
99234W        W64219  43.603   0.323  11.972
99235W        W64220   5.669  15.053   4.575
99236W        W64221  43.808  43.520  14.288
99237W        W64222   3.963  32.382   2.745
99238W        W64223   0.010  41.511   0.023
99239W        W64224  43.359   9.222  13.327
99240W        W64225  41.094  33.000  14.012
99241W        W64226  21.306  10.986  12.424
99242W        W64227   7.933  22.596  11.478
99243W        W64228  35.099  31.419   2.401
99244W        W64229  29.014  40.907  12.586
99245W        W64230   5.901  31.542  12.466
99246W        W64231  24.400  25.930  13.448
99247W        W64232  30.502  41.850   3.674
99248W        W64233   3.507   1.387   2.220
99249W        W64234   2.762  22.247   3.231
99250W        W64235  10.609   7.924   0.721
99251W        W64236  42.015  24.620   0.929
99252W        W64237  17.365  16.148  10.588
99253W        W64238  35.165  28.622  14.296
99254W        W64239  22.593  41.838  13.404
99255W        W64240  12.217  25.644  12.756
99256W        W64241  43.345  28.410  11.560
99257W        W64242  19.558  26.755  10.610
99258W        W64243  12.452  16.132   1.958
99259W        W64244  10.619   1.648  12.523
99260W        W64245  32.190  18.122  11.356
99261W        W64246  17.672  27.979  12.455
99262W        W64247  32.963   2.262  10.665
99263W        W64248  37.349   3.860   3.228
99264W        W64249   9.867  38.626  12.942
99265W        W64250  24.410   1.772  11.872
99266W        W64251  30.951  34.142   0.909
99267W        W64252  31.458   7.936   0.287
99268W        W64253  18.513  11.917   3.262
99269W        W64254  25.051  22.091   4.374
99270W        W64255  36.389   4.784   2.676
99271W        W64256  16.227  32.621  13.488
99272W        W64257  20.678   1.759   4.143
99273W        W64258  13.942   6.552  13.310
99274W        W64259  29.703  35.907  10.665
99275W        W64260  43.788  21.654  13.851
99276W        W64261  15.539  16.885   4.097
99277W        W64262  44.183  41.845   0.354
99278W        W64263  16.074  34.412  12.050
99279W        W64264  34.153  22.664  11.177
99280W        W64265  43.447   7.887  13.040
99281W        W64266   6.169  42.567  14.019
99282W        W64267  10.241  26.013   4.103
99283W        W64268   0.216  10.269   4.150
99284W        W64269   4.662  28.493   2.648
99285W        W64270   0.212  39.929   0.338
99286W        W64271  22.631  23.722   3.335
99287W        W64272  36.061   2.972  14.879
99288W        W64273  39.196   3.739  12.076
99289W        W64274  26.985  10.317  11.019
99290W        W64275  14.100  27.750  14.786
99291W        W64276  32.708  10.334   2.193
99292W        W64277   3.888  31.426  13.354
99293W        W64278  20.514  11.897  12.417
99294W        W64279  21.480  10.340   1.347
99295W        W64280  19.070  40.584   0.754
99296W        W64281  11.393  21.018  14.492
99297W        W64282   7.129  33.979   1.737
99298W        W64283  14.347   3.892  11.431
99299W        W64284   9.293  28.488   4.115
99300W        W64285  24.667  21.230  10.634
99301W        W64286  30.458  25.790  10.723
99302W        W64287  22.136   3.947  12.806
99303W        W64288  33.058  27.959  11.284
99304W        W64289  32.242   9.864   0.893
99305W        W64290  21.953   7.908  14.523
99306W        W64291  21.312  28.962   1.918
99307W        W64292  37.838  33.472   2.085
99308W        W64293  42.411  20.623  12.105
99309W        W64294   6.760  14.395   1.619
99310W        W64295  34.398  36.318  12.509
99311W        W64296  39.686  32.380  14.876
99312W        W64297  10.927   4.672  13.236
99313W        W64298  42.724   5.277   3.342
99314W        W64299  42.606  33.061   4.517
99315W        W64300   6.347   7.544  12.783
99316W        W64301  17.831  26.194  14.446
99317W        W64302   6.699  21.193   3.100
99318W        W64303   6.375  16.859   2.588
99319W        W64304  32.231  29.421   4.257
99320W        W64305  29.127  16.640   2.675
99321W        W64306  41.067  34.154   0.277
99322W        W64307   2.210  42.289   1.457
99323W        W64308  10.441  27.519  14.788
99324W        W64309   1.254  16.022   3.309
99325W        W64310   9.831  11.051  12.237
99326W        W64311   8.839  26.546   4.463
99327W        W64312   3.355  39.785  10.327
99328W        W64313  33.884  26.495  11.142
99329W        W64314  31.587  14.954   4.517
99330W        W64315  14.635   8.010  12.351
99331W        W64316  15.183   5.176   3.376
99332W        W64317   8.719  38.059  14.309
99333W        W64318  10.256  38.745   3.234
99334W        W64319   1.617  20.310   0.360
99335W        W64320  31.885   6.272   1.326
99336W        W64321   6.566   5.271  14.877
99337W        W64322   6.306  24.034   0.870
99338W        W64323  23.589  18.576   2.137
99339W        W64324  20.246  40.834  14.867
99340W        W64325  28.979  26.744  12.062
99341W        W64326   1.349   1.909   0.205
99342W        W64327  37.102  28.154  14.374
99343W        W64328  25.998  38.504  13.290
99344W        W64329  29.010  13.663  12.099
99345W        W64330  12.518   0.089  12.876
99346W        W64331  11.533   6.885   3.610
99347W        W64332  13.272  28.072   1.931
99348W        W64333  42.942   2.663   5.147
99349W        W64334  30.032   8.571  14.739
99350W        W64335  22.125  29.156   1.326
99351W        W64336  35.555   1.930  11.424
99352W        W64337  24.649  20.551   0.636
99353W        W64338  37.179  20.533  12.859
99354W        W64339  39.828   9.312  14.749
99355W        W64340   9.321  39.868  13.045
99356W        W64341  18.678  41.982   1.780
99357W        W64342   9.361  34.601   4.134
99358W        W64343  33.956  39.607   2.350
99359W        W64344  14.673  28.208  12.537
99360W        W64345  30.459   9.345  12.637
99361W        W64346  25.386  39.824  14.817
99362W        W64347  18.612  27.776  12.353
99363W        W64348  10.510  18.781   1.870
99364W        W64349  27.559  25.151   3.157
99365W        W64350   8.755   6.817  13.257
99366W        W64351  20.017  15.891  12.843
99367W        W64352  28.678  44.548   3.209
99368W        W64353  26.408  43.756   0.226
99369W        W64354  26.987  37.878   4.422
99370W        W64355  28.974  17.606   3.529
99371W        W64356  13.401  12.572  11.001
99372W        W64357  16.218  14.095   3.850
99373W        W64358  28.029  24.621   0.369
99374W        W64359  21.445  13.790  11.985
99375W        W64360  17.857  14.629   2.641
99376W        W64361  10.237  16.323   1.177
99377W        W64362  24.003  15.363  12.424
99378W        W64363  25.967  43.461   1.247
99379W        W64364  10.453   5.897   2.208
99380W        W64365   0.864  24.755  12.461
99381W        W64366  34.330  27.417   4.556
99382W        W64367  16.131   2.522  14.998
99383W        W64368  11.692   6.402  11.754
99384W        W64369  34.544  42.731  11.675
99385W        W64370   5.268  27.972   4.756
99386W        W64371   8.581  28.418  10.733
99387W        W64372  37.596  24.821  12.160
99388W        W64373  44.376  24.581   0.865
99389W        W64374  29.949  17.510  11.225
99390W        W64375   4.635  33.865   3.465
99391W        W64376   9.421  24.533  14.665
99392W        W64377   9.171  22.625  12.037
99393W        W64378  22.528  40.288  13.795
99394W        W64379  16.157   9.669   0.051
99395W        W64380  29.183  13.013  11.620
99396W        W64381  34.962   1.805  11.552
99397W        W64382  13.144  23.095   4.905
99398W        W64383  14.033  40.785  11.647
99399W        W64384   3.466  39.601  14.918
99400W        W64385  28.082  40.160  12.093
99401W        W64386  12.945  37.381  13.390
99402W        W64387  38.227  15.283   4.545
99403W        W64388  20.620   9.155  13.328
99404W        W64389  36.387   4.962  14.800
99405W        W64390   3.780  11.073  13.497
99406W        W64391  32.705  11.162   3.524
99407W        W64392   3.922  44.876   3.861
99408W        W64393   4.416   6.268  12.894
99409W        W64394  37.227  44.002   1.491
99410W        W64395  21.133  23.348   4.370
99411W        W64396  31.155   9.099  14.461
99412W        W64397   8.901  41.693   0.412
99413W        W64398   8.097  40.365  11.147
99414W        W64399  18.571  15.174  11.540
99415W        W64400   5.036   5.609   5.381
99416W        W64401  37.067  11.635   1.900
99417W        W64402  23.180  37.568   1.796
99418W        W64403   6.429  33.306   0.757
99419W        W64404   3.214  18.757   4.027
99420W        W64405  26.991   8.406   3.550
99421W        W64406  28.581  42.765  13.782
99422W        W64407  30.437  44.137  11.019
99423W        W64408  23.610   2.029   2.181
99424W        W64409   7.289  44.730  14.336
99425W        W64410  33.052  23.669  10.771
99426W        W64411  44.760  19.038   1.376
99427W        W64412  16.911  13.237  11.146
99428W        W64413   7.737  28.797   2.763
99429W        W64414  17.276  22.721  10.987
99430W        W64415  33.006  32.923  12.071
99431W        W64416   3.296  24.517   4.647
99432W        W64417  36.474   5.676  13.539
99433W        W64418  39.414  14.694  11.051
99434W        W64419  32.564   3.766  12.578
99435W        W64420   7.445  39.607  14.900
99436W        W64421   4.996  18.444  10.222
99437W        W64422   3.469  21.141   4.024
99438W        W64423  34.921  42.796   1.274
99439W        W64424  37.581  28.061   0.964
99440W        W64425   8.679   5.799  13.360
99441W        W64426   0.842  21.319   4.574
99442W        W64427  20.771   9.249   4.366
99443W        W64428   6.288  35.022   1.011
99444W        W64429  30.444  39.013   2.824
99445W        W64430   6.308  41.124   3.605
99446W        W64431  42.300  28.977   4.575
99447W        W64432  27.365  36.807   2.489
99448W        W64433  42.489   0.011  13.587
99449W        W64434  25.448  25.043   1.780
99450W        W64435  23.672   0.520   3.773
99451W        W64436  31.807  13.277  14.517
99452W        W64437  11.767  19.791   4.307
99453W        W64438  26.311  27.964   2.669
99454W        W64439  11.681  43.525   0.275
99455W        W64440  21.245  27.918   0.326
99456W        W64441  44.758  25.058  11.578
99457W        W64442   2.972  12.648  12.970
99458W        W64443  34.462   1.699  14.811
99459W        W64444   7.912  24.719   3.817
99460W        W64445  13.527  25.501   3.131
99461W        W64446  20.280  19.326  13.416
99462W        W64447  23.480  30.185  12.036
99463W        W64448  44.834   1.515  11.688
99464W        W64449  14.899   8.391   1.001
99465W        W64450  16.634  31.888  14.892
99466W        W64451  17.721  11.178  11.103
99467W        W64452  38.071  22.134  12.872
99468W        W64453   8.913  24.928  11.651
99469W        W64454  14.694  11.751  12.115
99470W        W64455  13.105  34.952  12.781
99471W        W64456   9.773  31.714  11.190
99472W        W64457  14.854  28.696  12.507
99473W        W64458   6.861  43.350   0.917
99474W        W64459   5.411   5.690   2.576
99475W        W64460   0.292   6.819  10.772
99476W        W64461  17.001  31.513  13.050
99477W        W64462  19.529  30.185   0.892
99478W        W64463  25.502  21.817   4.244
99479W        W64464  34.098  29.297  11.157
99480W        W64465  14.822   9.872   1.790
99481W        W64466  44.729  20.209   1.638
99482W        W64467  32.024  26.648  11.122
99483W        W64468  32.508  38.882  10.587
99484W        W64469  41.578  16.363  14.834
99485W        W64470  19.681  24.455  13.389
99486W        W64471   4.935  22.754   0.364
99487W        W64472   2.845  41.773  12.497
99488W        W64473  33.589  24.256   3.277
99489W        W64474  19.743  43.757  11.507
99490W        W64475  30.012  12.573  14.828
99491W        W64476  33.900  38.168  10.703
99492W        W64477  33.559  44.143  13.271
99493W        W64478  12.410  30.286   3.329
99494W        W64479   0.845   3.474   4.030
99495W        W64480  41.473   1.409   4.801
99496W        W64481  39.060   7.197   2.109
99497W        W64482  30.608  36.043   1.792
99498W        W64483  41.036  14.173   1.846
99499W        W64484  34.390  42.774  13.104
99500W        W64485  20.865  30.685  10.638
99501W        W64486   9.217  42.901   0.680
99502W        W64487  18.553   9.225  11.967
99503W        W64488  31.059  37.240   2.893
99504W        W64489  22.820  30.946  13.959
99505W        W64490  25.008   2.446   1.940
99506W        W64491  15.156  32.741   2.402
99507W        W64492  34.560  13.548  13.523
99508W        W64493  40.549  28.649   0.882
99509W        W64494  22.646  33.386  14.262
99510W        W64495  26.876  27.097   4.248
99511W        W64496   1.423  36.202   3.393
99512W        W64497  25.487  27.244  14.030
99513W        W64498   1.092  34.443  12.150
99514W        W64499   5.490  32.219  12.860
99515W        W64500  29.639  37.475  14.536
99516W        W64501   6.213  15.980   0.940
99517W        W64502  19.656  29.557   4.545
99518W        W64503   2.827  18.252   3.136
99519W        W64504  34.357  39.391  11.751
99520W        W64505  29.607   4.202   2.253
99521W        W64506  32.012  11.028   2.767
99522W        W64507   5.363  23.772   2.270
99523W        W64508   5.695  19.749   2.698
99524W        W64509  37.286   8.466  14.295
99525W        W64510  13.767   8.869   2.303
99526W        W64511  18.634  37.605   0.812
99527W        W64512  29.040  21.194  14.078
99528W        W64513  24.584  42.829   4.550
99529W        W64514   5.628  31.074   2.894
99530W        W64515   3.056  26.593  11.870
99531W        W64516  12.385  26.202   3.406
99532W        W64517  19.308  29.371  14.210
99533W        W64518   7.159  26.677   2.443
99534W        W64519   1.938  22.062  14.988
99535W        W64520  17.791  10.200  14.957
99536W        W64521  35.014  16.386  13.846
99537W        W64522  11.875   7.690   2.904
99538W        W64523  35.872  15.401   1.888
99539W        W64524  31.345  18.645   4.163
99540W        W64525   5.520  43.197  11.683
99541W        W64526  12.075   7.698   3.995
99542W        W64527  34.411  25.471  14.487
99543W        W64528   1.854  29.403   2.358
99544W        W64529  16.091  31.457  14.031
99545W        W64530  12.318  34.202  11.593
99546W        W64531  42.329  42.792  12.112
99547W        W64532   0.062  44.393  11.955
99548W        W64533  40.835  37.434  13.298
99549W        W64534   5.341  23.153   3.881
99550W        W64535  38.667   3.327  10.669
99551W        W64536  11.550  41.557   3.766
99552W        W64537  38.870  40.024   0.158
99553W        W64538  22.085  36.226   1.171
99554W        W64539  31.312  26.498   4.358
99555W        W64540  24.315  31.165  11.647
99556W        W64541  23.659  21.296  10.706
99557W        W64542  23.687   6.417  11.034
99558W        W64543  28.926  17.360  11.869
99559W        W64544  34.862  39.896  14.349
99560W        W64545  29.887  42.532  13.368
99561W        W64546  27.306  34.049   3.840
99562W        W64547   1.720  29.352  11.700
99563W        W64548  25.015  40.327   2.300
99564W        W64549  15.544  24.695   3.199
99565W        W64550  16.500  36.158  12.612
99566W        W64551  14.412  21.241   3.349
99567W        W64552  15.918  26.973   1.983
99568W        W64553  10.222  39.519  13.941
99569W        W64554  31.404  16.232   3.320
99570W        W64555  35.528  13.771   4.519
99571W        W64556  33.842  21.787  14.138
99572W        W64557  15.555  44.969  14.793
99573W        W64558   9.810   7.155   3.148
99574W        W64559  42.327  28.857   3.724
99575W        W64560   4.514  31.957   4.101
99576W        W64561  10.336  16.126   0.304
99577W        W64562  39.436  33.900   1.775
99578W        W64563  30.445  23.409   2.156
99579W        W64564  23.725  24.927  12.849
99580W        W64565   2.445  39.013   1.756
99581W        W64566  18.784  29.557  12.907
99582W        W64567  22.628  37.837  12.621
99583W        W64568  32.516  39.135  11.579
99584W        W64569  34.295  44.235  11.526
99585W        W64570  30.433   8.327  12.542
99586W        W64571  39.839   9.484   0.936
99587W        W64572  12.666  29.151   2.238
99588W        W64573   8.691  14.700  11.618
99589W        W64574  29.599  23.443   1.337
99590W        W64575  34.158  22.559  12.604
99591W        W64576  32.963  35.024   3.723
99592W        W64577  19.488  33.047  12.950
99593W        W64578   7.101  19.314  12.048
99594W        W64579   8.700   1.221   1.174
99595W        W64580  31.995  13.680   3.499
99596W        W64581  13.354  33.006   2.706
99597W        W64582  16.218  21.130   0.081
99598W        W64583   3.659  29.537   2.325
99599W        W64584  41.362  11.314   0.764
99600W        W64585  10.162   9.269   4.523
99601W        W64586  29.496  20.057  11.942
99602W        W64587  35.890  36.894  14.399
99603W        W64588  30.352  20.347  13.922
99604W        W64589  23.087  13.271  12.454
99605W        W64590   6.002  38.494  14.429
99606W        W64591  18.606  25.720   2.260
99607W        W64592  19.318  24.223  12.094
99608W        W64593   8.916  30.892   4.372
99609W        W64594  15.341  16.978  12.679
99610W        W64595   1.542  19.369   3.350
99611W        W64596   0.242   1.239  11.918
99612W        W64597  13.078  20.736  14.305
99613W        W64598  31.862  30.383  10.889
99614W        W64599  39.057  21.252   1.327
99615W        W64600  37.603  10.809  12.900
99616W        W64601  11.098  26.087  14.795
99617W        W64602   3.623  30.577  12.832
99618W        W64603   0.474  39.956  12.544
99619W        W64604  16.017  34.485   3.700
99620W        W64605  21.618   8.207   4.118
99621W        W64606  26.387  21.305  12.915
99622W        W64607  32.468  12.783   2.102
99623W        W64608   9.393   2.106  12.233
99624W        W64609  28.453  41.600  13.092
99625W        W64610  43.810  21.979  12.061
99626W        W64611   6.842  36.079  13.577
99627W        W64612  13.739   2.657  11.570
99628W        W64613  11.794  19.240  14.752
99629W        W64614  13.095  23.787   1.285
99630W        W64615  22.942  41.877   0.527
99631W        W64616   5.827   4.881   9.801
99632W        W64617  27.837   2.769   2.278
99633W        W64618  23.069  21.154   1.293
99634W        W64619  40.458  13.422   0.422
99635W        W64620   0.719  44.878   0.985
99636W        W64621  39.351  26.593  14.945
99637W        W64622  36.390   6.391   1.850
99638W        W64623  13.668  28.813   4.108
99639W        W64624  30.083  38.380   3.286
99640W        W64625  24.038  33.627  14.560
99641W        W64626  16.594  38.722  11.090
99642W        W64627  41.780  16.303   1.638
99643W        W64628  22.550   3.841  11.095
99644W        W64629  16.005  11.316   1.884
99645W        W64630  19.087  22.314  11.064
99646W        W64631  29.474   8.254  13.396
99647W        W64632  19.540   3.734   4.769
99648W        W64633  32.750  25.991  13.931
99649W        W64634   9.586  42.570   3.648
99650W        W64635  12.147  17.357   3.273
99651W        W64636  30.694  13.894   4.231
99652W        W64637  38.419  39.294   0.750
99653W        W64638  24.759  37.019  13.051
99654W        W64639   6.410  27.060  10.714
99655W        W64640  22.303  14.681   1.783
99656W        W64641  23.583  10.428  14.438
99657W        W64642   7.226  43.731   0.015
99658W        W64643  36.430  21.496  11.448
99659W        W64644  31.617  24.596  14.462
99660W        W64645  44.469  36.442  12.095
99661W        W64646  38.277  42.343  14.030
99662W        W64647  18.169  43.280   1.968
99663W        W64648   5.690   7.839  12.014
99664W        W64649  31.741  11.170  10.227
99665W        W64650  31.503  30.167  14.005
99666W        W64651  26.207   1.445  13.350
99667W        W64652   2.191  40.560   2.721
99668W        W64653  30.180   9.870  12.130
99669W        W64654   4.863  14.879   0.803
99670W        W64655  21.175  43.013   4.072
99671W        W64656   8.886  32.619  14.693
99672W        W64657  30.578  33.426  12.365
99673W        W64658  35.080  33.634  13.067
99674W        W64659  37.820   2.733   5.054
99675W        W64660  15.422  22.643   2.664
99676W        W64661  21.701  39.853  11.870
99677W        W64662  23.775  38.781   4.029
99678W        W64663   8.126  18.384  12.065
99679W        W64664  11.230  35.071  12.875
99680W        W64665  14.042  30.138  11.622
99681W        W64666   9.130  12.239   0.815
99682W        W64667   9.117  10.351   0.872
99683W        W64668  39.380  13.042  10.693
99684W        W64669   2.214  20.999   2.690
99685W        W64670   0.799   5.659   2.360
99686W        W64671  28.170   2.075   2.654
99687W        W64672   1.314  13.678  13.530
99688W        W64673  12.683  14.732  12.038
99689W        W64674  12.539  26.080  10.260
99690W        W64675   4.372  44.459  14.904
99691W        W64676  30.311  18.547  14.055
99692W        W64677  28.661  29.612   2.352
99693W        W64678   4.024  21.295   1.515
99694W        W64679  27.138   3.432   2.283
99695W        W64680  25.580  42.991  10.251
99696W        W64681   2.028  27.156  14.979
99697W        W64682   3.439  37.148   3.778
99698W        W64683   6.631  34.511   0.996
99699W        W64684  43.409   2.993  13.038
99700W        W64685   1.828  27.960  11.975
99701W        W64686  27.945  15.148   1.670
99702W        W64687   0.893  19.150  13.982
99703W        W64688   0.280  17.731   3.223
99704W        W64689  32.683  15.839  11.874
99705W        W64690   7.955   5.290   2.850
99706W        W64691  10.158  22.730   1.686
99707W        W64692  31.649  28.169  11.499
99708W        W64693  39.807  25.724  13.518
99709W        W64694  10.672   6.392   9.885
99710W        W64695  32.968   6.918  14.194
99711W        W64696  37.379  21.261  11.883
99712W        W64697  30.126  13.337  11.539
99713W        W64698  28.120  39.059   3.299
99714W        W64699  34.820  19.627   1.774
99715W        W64700  37.525  16.229   1.703
99716W        W64701   6.316  19.767   4.536
99717W        W64702  23.400   9.753   3.248
99718W        W64703  33.613  43.824   2.230
99719W        W64704  19.089  15.253   2.859
99720W        W64705  36.498   9.240   5.454
99721W        W64706   1.739  42.626   3.675
99722W        W64707  30.706   5.606  12.526
99723W        W64708  31.459  41.356   2.213
99724W        W64709  29.435  34.481  12.421
99725W        W64710   5.038  20.077   0.397
99726W        W64711  22.455  28.590   2.304
99727W        W64712  15.272  37.466  10.684
99728W        W64713  41.503  13.941   1.921
99729W        W64714  39.558  22.654   0.157
99730W        W64715  26.079  14.741   3.467
99731W        W64716  15.586  30.029   2.410
99732W        W64717  24.102  26.066  10.566
99733W        W64718  17.606  28.890  13.812
99734W        W64719  11.835  21.869  11.711
99735W        W64720  32.680  28.019  11.616
99736W        W64721  39.979  39.055  10.722
99737W        W64722  19.782   4.250  14.948
99738W        W64723  36.456  15.629  13.912
99739W        W64724  14.195  10.858  14.537
99740W        W64725  31.498  33.543  11.284
99741W        W64726  21.362  18.886   2.376
99742W        W64727  22.987  30.017  12.060
99743W        W64728   8.800  36.526  12.830
99744W        W64729  26.088  36.965  11.561
99745W        W64730  11.218  13.742   2.733
99746W        W64731  43.689  25.428   5.362
99747W        W64732   9.416  18.159   3.202
99748W        W64733  23.732   1.428  14.828
99749W        W64734  37.900   2.484  13.451
99750W        W64735   1.017  25.154  14.801
99751W        W64736   4.900  30.756   2.714
99752W        W64737   2.398  18.869  10.227
99753W        W64738   6.480  11.757   2.803
99754W        W64739  10.858   6.350  12.654
99755W        W64740  29.137  21.215   3.696
99756W        W64741  33.338  35.892  11.282
99757W        W64742   9.687  22.084  14.906
99758W        W64743  21.525  14.086   3.860
99759W        W64744  41.626  19.024   3.656
99760W        W64745  40.898  40.579   2.684
99761W        W64746  35.559  37.534   3.407
99762W        W64747  12.824  39.512  11.972
99763W        W64748  15.373   3.695  14.486
99764W        W64749  29.517  24.271   3.999
99765W        W64750  24.400  19.803  12.365
99766W        W64751   4.854  39.557   2.203
99767W        W64752  16.624   3.681   2.778
99768W        W64753  20.501  23.095   1.654
99769W        W64754  24.386  10.692   3.476
99770W        W64755   2.422  23.319   1.785
99771W        W64756  37.907  41.968  14.018
99772W        W64757  30.427   3.865  14.230
99773W        W64758  14.281  11.306  10.668
99774W        W64759   8.823  30.869   1.119
99775W        W64760  21.388  32.258   1.319
99776W        W64761   8.002  29.155  11.921
99777W        W64762   1.308   9.684  14.531
99778W        W64763  36.404  34.252   5.141
99779W        W64764   5.978  35.958  12.326
99780W        W64765  37.763  17.847   3.274
99781W        W64766  24.300  11.087   3.847
99782W        W64767  26.662   0.113   3.280
99783W        W64768  42.978  21.032   1.711
99784W        W64769  39.069   9.872  10.929
99785W        W64770  31.290  17.986   3.448
99786W        W64771  27.229  33.839   1.245
99787W        W64772  36.798  33.096  14.118
99788W        W64773   1.576  25.396  12.936
99789W        W64774  28.441  15.953   1.226
99790W        W64775  24.392   7.829   2.126
99791W        W64776  30.553  27.391   2.374
99792W        W64777  27.679  28.727  14.007
99793W        W64778  20.651  32.863   4.875
99794W        W64779  32.809  40.835  11.515
99795W        W64780  41.108  26.223  12.069
99796W        W64781  31.593  15.061   0.515
99797W        W64782  13.999  42.358   3.385
99798W        W64783  22.212  32.407   3.757
99799W        W64784  28.025  43.757  10.759
99800W        W64785  26.934  20.702  11.644
99801W        W64786  24.309  15.347   5.037
99802W        W64787  18.734  44.390   0.611
99803W        W64788  35.932   7.993   3.169
99804W        W64789  42.502  12.054   4.475
99805W        W64790  12.180  42.847  10.875
99806W        W64791   7.189  42.069  12.117
99807W        W64792  17.425  15.230   1.596
99808W        W64793  34.338   3.881   4.328
99809W        W64794  14.653  33.991   0.438
99810W        W64795   6.244  26.054  14.624
99811W        W64796   1.184  39.583  11.999
99812W        W64797  30.589  22.971   0.729
99813W        W64798  41.847   7.427   3.674
99814W        W64799  29.188  36.044   4.548
99815W        W64800  19.568  33.595  13.582
99816W        W64801   3.158   5.541  14.835
99817W        W64802  31.806  28.976  13.438
99818W        W64803  14.800  20.248   2.288
99819W        W64804   8.874  23.073   0.524
99820W        W64805  37.453  36.028   4.467
99821W        W64806  39.555  38.345  13.087
99822W        W64807  25.617  16.561  12.060
99823W        W64808  25.524   4.129   1.322
99824W        W64809  28.073   0.055  13.472
99825W        W64810   3.444   5.164   0.790
99826W        W64811  10.616  15.086   4.525
99827W        W64812  28.981  43.179   0.415
99828W        W64813  35.946   8.877   2.851
99829W        W64814  20.578  11.383  14.704
99830W        W64815  33.514   2.252   5.074
99831W        W64816   7.893   1.771   4.540
99832W        W64817  43.333  13.486   0.953
99833W        W64818  41.327  26.181  14.457
99834W        W64819  43.229  30.455   1.197
99835W        W64820  18.169  25.271  12.946
99836W        W64821   3.751  17.151   4.539
99837W        W64822  44.386  17.911  11.545
99838W        W64823  30.077   8.968  13.965
99839W        W64824  42.139  19.256  12.932
99840W        W64825  42.419  31.930   2.821
99841W        W64826  38.945  15.774  11.045
99842W        W64827  21.132   1.213  10.628
99843W        W64828  39.070  34.817   5.004
99844W        W64829   9.231  24.648   2.153
99845W        W64830  42.842  25.677   0.082
99846W        W64831  25.061  21.037   5.082
99847W        W64832   9.319   7.874   3.087
99848W        W64833  28.118  23.229   1.093
99849W        W64834  23.689  11.402  12.905
99850W        W64835  19.469  36.580  14.924
99851W        W64836  34.750  37.428  13.938
99852W        W64837  11.246  32.943  12.534
99853W        W64838  25.011  21.312  13.381
99854W        W64839  20.362   5.452   2.825
99855W        W64840  31.658  31.847  14.981
99856W        W64841  43.937  40.784  12.872
99857W        W64842  36.497  11.151   3.102
99858W        W64843  14.557  17.660   0.798
99859W        W64844  19.289  18.366   5.558
99860W        W64845   2.380   2.982   3.391
99861W        W64846  31.516  23.160   2.838
99862W        W64847  17.602   8.295  12.043
99863W        W64848  38.473  27.671  12.131
99864W        W64849  26.417  42.761   4.141
99865W        W64850  11.949  33.614   2.304
99866W        W64851  41.665  43.693   1.270
99867W        W64852  11.029  31.553   4.483
99868W        W64853  29.933   5.714   2.799
99869W        W64854  40.571  20.137  11.949
99870W        W64855  44.091  33.632   0.347
99871W        W64856   5.856  41.896  11.582
99872W        W64857   6.250  11.630  14.980
99873W        W64858  34.015  24.291   0.884
99874W        W64859  11.128  38.833  14.939
99875W        W64860   2.569  21.753   3.189
99876W        W64861   4.652  41.905   4.260
99877W        W64862  44.397  16.753  10.566
99878W        W64863  26.151   3.237  12.518
99879W        W64864  25.938  40.445  10.783
99880W        W64865  43.175  29.055   3.255
99881W        W64866  20.760  41.149   0.729
99882W        W64867  27.118  20.686  14.871
99883W        W64868  25.601  26.172  14.960
99884W        W64869  16.692  41.599  14.393
99885W        W64870  43.642   7.495   0.019
99886W        W64871  26.404  36.534  10.733
99887W        W64872   7.356  19.833  11.005
99888W        W64873   0.323  22.052  14.098
99889W        W64874   0.541   7.798  13.384
99890W        W64875   3.159  17.663   3.857
99891W        W64876  28.664  40.077  12.370
99892W        W64877  32.644  24.639   1.632
99893W        W64878  44.666  10.166  13.811
99894W        W64879   6.233  21.707   2.625
99895W        W64880  43.729   6.420   0.987
99896W        W64881  37.897  10.912   3.563
99897W        W64882   1.873   6.998   0.225
99898W        W64883  10.173   7.164  11.695
99899W        W64884  15.651  41.084   4.034
99900W        W64885   4.346  21.572   4.148
99901W        W64886  32.617  21.054  13.910
99902W        W64887  14.543  32.138   1.715
99903W        W64888   4.712  39.120   4.324
99904W        W64889  13.224  11.690   1.316
99905W        W64890  13.226  14.478   2.816
99906W        W64891  34.251  18.261  13.466
99907W        W64892  33.862  23.120   0.294
99908W        W64893   3.672  17.747   3.821
99909W        W64894  27.762  19.193  11.654
99910W        W64895  37.021  21.466   1.362
99911W        W64896  12.891  12.651  13.833
99912W        W64897  16.706  15.802  14.906
99913W        W64898   3.194  37.786   0.835
99914W        W64899  12.848  40.741  12.397
99915W        W64900  33.279  29.745   4.133
99916W        W64901  25.908  22.433   9.970
99917W        W64902  20.630  42.152   2.090
99918W        W64903  12.626   6.796  10.863
99919W        W64904  35.813  26.058  12.443
99920W        W64905   6.293   2.047   2.412
99921W        W64906  18.526  29.968  12.006
99922W        W64907  31.580  41.088   4.714
99923W        W64908  41.598  21.434  11.620
99924W        W64909  15.429   6.933   4.691
99925W        W64910  27.903  40.739   1.909
99926W        W64911  15.084  16.164  13.369
99927W        W64912  13.117  13.579   3.678
99928W        W64913  21.303  31.862   1.680
99929W        W64914   2.921  44.522  11.677
99930W        W64915  16.247  40.945   4.527
99931W        W64916  30.081   4.609  10.222
99932W        W64917  33.160  30.475   2.413
99933W        W64918  19.487   3.316  13.385
99934W        W64919   6.616  28.533  13.505
99935W        W64920  18.752  10.060   4.235
99936W        W64921  34.899  22.507   1.541
99937W        W64922  42.866  41.514   4.520
99938W        W64923  11.812  34.605  12.936
99939W        W64924  34.653  44.755  14.765
99940W        W64925  35.038   3.469   4.330
99941W        W64926  23.529  35.375   2.224
99942W        W64927  32.552   6.685   3.734
99943W        W64928   2.843  11.889   1.813
99944W        W64929  25.042  20.074   1.173
99945W        W64930   7.408  42.048   3.401
99946W        W64931   5.626  37.649   1.593
99947W        W64932  39.095   0.739  13.740
99948W        W64933  32.717  20.152   4.966
99949W        W64934   7.190  25.630  12.483
99950W        W64935   7.595  11.659   1.853
99951W        W64936  24.598  11.364   4.379
99952W        W64937  33.119  26.900   1.275
99953W        W64938  11.358  10.831  14.450
99954W        W64939  25.088  37.070  13.460
99955W        W64940  25.142  11.260  10.693
99956W        W64941  19.182  35.873   0.104
99957W        W64942  21.840  42.445   2.937
99958W        W64943   6.827  20.580   3.747
99959W        W64944  33.624  14.876   4.179
99960W        W64945   4.498  29.640  13.733
99961W        W64946  33.486  37.724  11.533
99962W        W64947  27.667   9.416   0.560
99963W        W64948  17.248   3.619   0.684
99964W        W64949  20.063  20.751  13.818
99965W        W64950   6.905  28.033   3.274
99966W        W64951  25.421   3.523   4.482
99967W        W64952  36.460  43.254  12.875
99968W        W64953  11.288  41.071  13.816
99969W        W64954  17.606  16.287  13.866
99970W        W64955  12.048  42.844   1.410
99971W        W64956  26.245  23.654  11.778
99972W        W64957   4.897  26.349   0.354
99973W        W64958   6.278  15.816   3.716
99974W        W64959  27.151   9.380  12.112
99975W        W64960  33.814  42.312  12.577
99976W        W64961  15.215  16.898   3.696
99977W        W64962  30.281  12.839  13.312
99978W        W64963  37.919   5.937  12.890
99979W        W64964  14.116  22.062   4.919
99980W        W64965  43.461  40.977   0.001
99981W        W64966  37.978  27.611  12.053
99982W        W64967  20.638  28.406   0.892
99983W        W64968  28.965   9.381   2.503
99984W        W64969  44.577  29.877   2.099
99985W        W64970   1.924  39.936   3.807
99986W        W64971   7.391   1.428  14.508
99987W        W64972  15.386  26.696   9.740
99988W        W64973   2.646  31.129   1.267
99989W        W64974  34.091   5.739  11.874
99990W        W64975  38.341   8.667   4.532
99991W        W64976  28.087  22.231   1.487
99992W        W64977   3.682   0.416  12.471
99993W        W64978  32.150  34.381  14.475
99994W        W64979   2.837   3.021   2.699
99995W        W64980  32.938  17.963  13.379
99996W        W64981  11.306  31.515  12.450
99997W        W64982  21.565   3.389  13.440
99998W        W64983  11.531   7.733  14.855
99999W        W64984  22.483  18.705   2.959
    0W        W64985  39.884  33.504   1.205
    1W        W64986  15.663   0.851   0.470
    2W        W64987  17.783   2.771  14.895
    3W        W64988   4.029  20.768  14.455
    4W        W64989  26.124  28.363   2.980
    5W        W64990  14.429  36.037   0.368
    6W        W64991  29.443  20.779   3.968
    7W        W64992  33.122   5.205  13.080
    8W        W64993  18.334  39.808   2.173
    9W        W64994  20.584  30.064  14.255
   10W        W64995  22.774  26.024   2.769
   11W        W64996  17.918  14.526  11.908
   12W        W64997  37.099  31.355  12.461
   13W        W64998  19.617  41.061  14.559
   14W        W64999  22.085  14.323   2.578
   15W        W65000   4.858  31.121  13.245
   16W        W65001  25.074  11.266  13.373
   17W        W65002  26.630  30.572  14.520
   18W        W65003  40.164  19.846  14.128
   19W        W65004  20.915  44.699  10.468
   20W        W65005   3.798  42.813   3.757
   21W        W65006   5.554   3.250   0.711
   22W        W65007   2.536  17.125   3.836
   23W        W65008  41.926  33.920   1.388
   24W        W65009  22.899  14.752  12.103
   25W        W65010   9.850   3.904   1.269
   26W        W65011  12.301  39.587  11.141
   27W        W65012   5.171  23.570  13.037
   28W        W65013  23.122  44.398  11.989
   29W        W65014  23.665  13.126   2.180
   30W        W65015  16.780   3.980  14.527
   31W        W65016   2.681  39.096  14.947
   32W        W65017   6.325  32.873   1.817
   33W        W65018  17.252  41.443  13.509
   34W        W65019  34.134   3.951  11.965
   35W        W65020  31.614  32.645   1.307
   36W        W65021  24.138  28.194   0.934
   37W        W65022  31.381  13.844  12.992
   38W        W65023  32.676  40.173   0.100
   39W        W65024  18.366  39.373   0.304
   40W        W65025   0.407   3.287   3.850
   41W        W65026  37.803  12.118   3.748
   42W        W65027  18.037  18.228   0.836
   43W        W65028  17.992  11.048  14.453
   44W        W65029  10.829  30.407  11.911
   45W        W65030  24.139  12.569   3.378
   46W        W65031  34.561  16.131   3.222
   47W        W65032  17.328  43.877   4.512
   48W        W65033  22.552  43.013   1.329
   49W        W65034  12.984  22.343  11.079
   50W        W65035  21.196  14.390   4.965
   51W        W65036  18.230  36.409   1.917
   52W        W65037  40.823   4.202   2.093
   53W        W65038  26.891  41.248  14.457
   54W        W65039  15.579  30.472   0.267
   55W        W65040   8.249  11.802  13.385
   56W        W65041   7.780  31.282   0.182
   57W        W65042   2.238  32.953   3.458
   58W        W65043  37.845   5.352   3.171
   59W        W65044  18.297  23.133   4.553
   60W        W65045  24.569  25.142   3.413
   61W        W65046   7.075  22.353   3.219
   62W        W65047   4.486  19.069   3.624
   63W        W65048  24.948  15.123   1.369
   64W        W65049  11.464   6.376   0.758
   65W        W65050  23.586   4.337   9.805
   66W        W65051  36.207  19.973   2.452
   67W        W65052  41.278  29.419   1.920
   68W        W65053  44.311  29.645  12.450
   69W        W65054   5.379   0.685   3.605
   70W        W65055   6.477  26.877  11.981
   71W        W65056  32.371   1.265   4.201
   72W        W65057  30.640   6.733  13.478
   73W        W65058  38.404  36.571   3.385
   74W        W65059  16.017   2.092  13.413
   75W        W65060  20.703  14.808  13.781
   76W        W65061  42.502  14.874  12.511
   77W        W65062  38.459  21.551  13.320
   78W        W65063  29.144  37.514   4.572
   79W        W65064  11.650  43.558  10.772
   80W        W65065  10.262  36.610  13.019
   81W        W65066  41.878   5.331   1.382
   82W        W65067  37.406   2.829   1.231
   83W        W65068  27.708  44.332  11.652
   84W        W65069   1.110   4.500   4.083
   85W        W65070   3.991   2.737  14.415
   86W        W65071   3.364   4.318  14.466
   87W        W65072  19.604  23.036   2.116
   88W        W65073  44.268   5.979  13.983
   89W        W65074  14.053   6.163   1.578
   90W        W65075   5.564   8.754  13.797
   91W        W65076  13.312  30.181  11.337
   92W        W65077  37.275  25.800  10.236
   93W        W65078   5.320  31.701   2.679
   94W        W65079  40.567   6.215  12.516
   95W        W65080   2.222  13.597  13.457
   96W        W65081  40.872  31.896  13.170
   97W        W65082  27.085  24.187   2.180
   98W        W65083  22.082  43.882   0.695
   99W        W65084  19.136  26.485  14.715
  100W        W65085   2.240  22.993  11.558
  101W        W65086   5.697   7.170  11.206
  102W        W65087   4.427  14.312  14.099
  103W        W65088  33.711  22.778  14.529
  104W        W65089   5.453  32.780  14.017
  105W        W65090   8.101  30.531   4.155
  106W        W65091  42.421  28.582  12.950
  107W        W65092  23.627  22.142  10.426
  108W        W65093   2.032  41.937   2.894
  109W        W65094  23.246  36.016   2.913
  110W        W65095  19.522  39.853  13.541
  111W        W65096  13.145   1.555  14.317
  112W        W65097  14.821  19.465   4.501
  113W        W65098  31.439  23.639  14.936
  114W        W65099  42.970  34.104   3.739
  115W        W65100  18.154  12.900   2.050
  116W        W65101   7.929   7.072  12.666
  117W        W65102  41.513   8.122  11.498
  118W        W65103   6.917   9.378  14.489
  119W        W65104  19.995  27.898  13.013
  120W        W65105   3.675  33.853  13.322
  121W        W65106  38.221  31.306  13.110
  122W        W65107  36.587   0.448  13.441
  123W        W65108   9.322  18.111  10.672
  124W        W65109   3.782  10.679  10.752
  125W        W65110   6.474   1.528  13.498
  126W        W65111  16.589  20.239   4.732
  127W        W65112  24.993  13.842   4.637
  128W        W65113  27.168  11.763  11.162
  129W        W65114  43.327  21.927  13.963
  130W        W65115  40.766  36.416   1.817
  131W        W65116  16.721  27.649  13.406
  132W        W65117  10.214  14.555   2.818
  133W        W65118  28.331  41.534  12.592
  134W        W65119  33.674  35.403   4.093
  135W        W65120  16.066  41.612   3.689
  136W        W65121  27.021   4.201   0.199
  137W        W65122  44.019   9.916  14.935
  138W        W65123  13.626  28.033   3.272
  139W        W65124   4.735  33.080  12.517
  140W        W65125  16.883  36.496   2.572
  141W        W65126  25.507  30.498  13.993
  142W        W65127  28.591  31.628   3.947
  143W        W65128  31.017  22.565  11.936
  144W        W65129  29.641  43.077  11.594
  145W        W65130  23.225  43.041   0.854
  146W        W65131  35.499  34.328   1.958
  147W        W65132  33.081  39.637   0.339
  148W        W65133  28.661  27.379  10.997
  149W        W65134  32.086  39.395  14.846
  150W        W65135  22.034  20.224   1.251
  151W        W65136  22.412  40.083  12.980
  152W        W65137  28.255   6.323  14.286
  153W        W65138   6.343   8.283   0.865
  154W        W65139  14.212  34.564   0.317
  155W        W65140  30.541  16.761   1.878
  156W        W65141  17.147  36.457  13.516
  157W        W65142   9.433  40.902   1.689
  158W        W65143  28.425  38.067   3.368
  159W        W65144  35.969  14.278   0.775
  160W        W65145  29.279  34.641  14.336
  161W        W65146  17.370  23.070  10.346
  162W        W65147   5.686  32.019  12.406
  163W        W65148  42.209  29.926  11.606
  164W        W65149  12.125  14.820  12.130
  165W        W65150  28.000  29.275  10.677
  166W        W65151   5.880  16.300   0.333
  167W        W65152  40.747  41.370  11.601
  168W        W65153  44.329  36.657   5.128
  169W        W65154   6.521  36.625  13.998
  170W        W65155  16.691  34.993   0.816
  171W        W65156  34.879  31.130  13.048
  172W        W65157  25.364  39.273   4.540
  173W        W65158  43.118  29.185  11.097
  174W        W65159  38.423  39.491  13.854
  175W        W65160  24.420   2.249  12.048
  176W        W65161  10.117  36.125   3.478
  177W        W65162   1.682  23.592   0.705
  178W        W65163  16.842   5.872   1.196
  179W        W65164   8.984  35.368  13.877
  180W        W65165  43.716  17.107   3.177
  181W        W65166  11.168  24.363   4.824
  182W        W65167   4.261  22.090  14.508
  183W        W65168  21.325  27.205  14.881
  184W        W65169  15.178   8.347   3.588
  185W        W65170  43.418  35.883  14.406
  186W        W65171  32.951  25.012   3.308
  187W        W65172   3.187  22.943  10.676
  188W        W65173   2.914  16.784   0.413
  189W        W65174  16.538  21.756  12.949
  190W        W65175  10.313  14.620  12.477
  191W        W65176  32.690  12.843  12.019
  192W        W65177  16.067   2.320   0.905
  193W        W65178  29.783  29.060  14.266
  194W        W65179   5.499  43.404   3.239
  195W        W65180  16.190  44.389   4.847
  196W        W65181  13.428   1.912   2.833
  197W        W65182   0.225  36.248   9.790
  198W        W65183  31.104  19.595  11.081
  199W        W65184  23.229  36.926  13.559
  200W        W65185  19.179  29.198   0.879
  201W        W65186   5.655   4.275  14.789
  202W        W65187  38.371  37.155  13.517
  203W        W65188  39.495  20.253   4.673
  204W        W65189  18.762  28.481   2.816
  205W        W65190  12.804  31.895   3.594
  206W        W65191   5.841  11.115  14.351
  207W        W65192  26.758  17.641  11.263
  208W        W65193  30.429  25.640  12.736
  209W        W65194   0.980  35.575  13.610
  210W        W65195  12.855   6.978  12.208
  211W        W65196   0.684  25.446   0.504
  212W        W65197  37.843  19.789   2.539
  213W        W65198   1.714  12.618  13.011
  214W        W65199  33.024  10.220   0.498
  215W        W65200  23.581  21.037   1.270
  216W        W65201  41.607  22.695   2.113
  217W        W65202  38.827  27.057  10.705
  218W        W65203  26.495  12.902   4.345
  219W        W65204  18.285  31.576   3.122
  220W        W65205  23.912  36.415  14.671
  221W        W65206  21.641   7.457   3.601
  222W        W65207  42.995   4.428   2.366
  223W        W65208  19.361  25.629  13.881
  224W        W65209  17.560  22.211   1.366
  225W        W65210  16.817  15.696   2.655
  226W        W65211  24.130  22.322   3.234
  227W        W65212  18.214  36.858   3.378
  228W        W65213  34.410   0.220   0.650
  229W        W65214  20.066  20.046   2.291
  230W        W65215  17.949   7.316   0.079
  231W        W65216  39.463  41.656  11.889
  232W        W65217  24.551   8.506   4.119
  233W        W65218  26.734  34.596  14.412
  234W        W65219  16.962  38.990  10.843
  235W        W65220  24.550   6.999   3.217
  236W        W65221  31.941  37.842  11.613
  237W        W65222   3.192  41.403   1.165
  238W        W65223  39.926  43.923   0.798
  239W        W65224  18.619  38.130   1.648
  240W        W65225  16.596  20.959   0.360
  241W        W65226   8.565  44.308  10.719
  242W        W65227  21.749  40.551  13.265
  243W        W65228  34.102  17.771  13.989
  244W        W65229  20.155  40.088  14.037
  245W        W65230   8.160  42.410   3.786
  246W        W65231  11.276  15.002  12.968
  247W        W65232  16.707  33.472   4.112
  248W        W65233  42.859  23.761  12.534
  249W        W65234  27.504  41.717   3.236
  250W        W65235  33.880  31.403   0.487
  251W        W65236  34.994   7.371  10.643
  252W        W65237  31.591  11.364   4.099
  253W        W65238  37.601  19.474  14.964
  254W        W65239  16.131  34.447   2.373
  255W        W65240  30.024  12.705   0.831
  256W        W65241  19.104  10.827   0.199
  257W        W65242  31.469   7.099   4.105
  258W        W65243  31.141  37.855   3.096
  259W        W65244  30.545  35.120  10.687
  260W        W65245  21.653  39.795  14.927
  261W        W65246  18.883  24.955  13.428
  262W        W65247  13.790   3.193   0.512
  263W        W65248   1.249   4.636   2.356
  264W        W65249   9.001  18.566   5.068
  265W        W65250  17.940   1.284  13.875
  266W        W65251  16.948  12.843   4.648
  267W        W65252   5.395  23.193  13.311
  268W        W65253  23.266   5.235  10.841
  269W        W65254  23.462  39.835   1.727
  270W        W65255  16.109  32.967  10.635
  271W        W65256   0.520  22.909  11.943
  272W        W65257  13.320  10.342   5.059
  273W        W65258  30.957  44.804  12.447
  274W        W65259   1.804  35.592  13.635
  275W        W65260  17.127  42.902   2.306
  276W        W65261   4.183  32.093  13.200
  277W        W65262  24.016  15.362   1.878
  278W        W65263  31.094  21.257   2.889
  279W        W65264  31.940  44.760  10.789
  280W        W65265  19.459  10.673   1.871
  281W        W65266  18.485  30.999   1.457
  282W        W65267   6.679   1.314   2.650
  283W        W65268  43.515  32.009   2.386
  284W        W65269  17.103  18.384  12.954
  285W        W65270  42.760  30.465  14.753
  286W        W65271  38.890  11.926  14.454
  287W        W65272  38.653   0.955   1.816
  288W        W65273   4.470  12.829  12.933
  289W        W65274  19.076  37.156  12.328
  290W        W65275   8.430  28.226  12.768
  291W        W65276   8.305  24.931   2.957
  292W        W65277  17.458   8.645  10.694
  293W        W65278  17.812  30.058   2.832
  294W        W65279  29.071   2.445  10.264
  295W        W65280  16.265  14.003  10.793
  296W        W65281   1.771   3.805   1.174
  297W        W65282  29.468   9.533   2.420
  298W        W65283   5.744  22.235  13.902
  299W        W65284  36.334  28.714   4.649
  300W        W65285   3.640   8.843  12.613
  301W        W65286  28.781  34.613   4.713
  302W        W65287   5.261  37.594   0.938
  303W        W65288  28.132   4.143  14.019
  304W        W65289  36.900   0.842   3.298
  305W        W65290  39.642  29.362  11.194
  306W        W65291  13.332  10.318  11.650
  307W        W65292  25.981  38.389   0.311
  308W        W65293   0.679  30.457  14.433
  309W        W65294  28.231  15.065   3.365
  310W        W65295  32.580  23.574  12.923
  311W        W65296  40.581   9.167   2.643
  312W        W65297  40.561  41.418   1.509
  313W        W65298  41.541  44.864   4.135
  314W        W65299  14.683  44.547   3.921
  315W        W65300  30.202  16.820  13.242
  316W        W65301   5.736  20.788  11.046
  317W        W65302  23.751  28.003  11.613
  318W        W65303  12.158  37.372   3.804
  319W        W65304  11.855  39.499  14.469
  320W        W65305  25.555   5.410  12.450
  321W        W65306  37.370   3.948   1.467
  322W        W65307  22.784  15.355   4.561
  323W        W65308  14.582  39.636   2.362
  324W        W65309  15.829  26.065  14.068
  325W        W65310  34.569   2.657  13.916
  326W        W65311   5.405  43.955   0.299
  327W        W65312  28.579   6.866  13.776
  328W        W65313  13.642  21.610  11.094
  329W        W65314  25.154   0.334  12.899
  330W        W65315  19.625  12.807  11.149
  331W        W65316   3.831  21.478   4.174
  332W        W65317  29.967  27.975  11.530
  333W        W65318  25.393   3.205  12.077
  334W        W65319  34.529  25.459   1.402
  335W        W65320  38.920  40.914  12.385
  336W        W65321  16.750  40.885  12.978
  337W        W65322  12.566  10.199  14.003
  338W        W65323   4.580   6.810   0.272
  339W        W65324  12.386  39.884   2.297
  340W        W65325  11.398  15.589   2.774
  341W        W65326  23.299   6.752  12.906
  342W        W65327  13.165  34.919   3.066
  343W        W65328  19.114  12.349   2.888
  344W        W65329  26.077  38.656   5.079
  345W        W65330   2.749  31.909   0.682
  346W        W65331  18.690  42.494   1.948
  347W        W65332   1.964   0.464   2.766
  348W        W65333  35.634   9.783  13.311
  349W        W65334  39.080  43.086  14.529
  350W        W65335  17.978  34.593   1.844
  351W        W65336  44.444  39.534  13.821
  352W        W65337  37.033  40.747   4.155
  353W        W65338   7.920  36.602  14.435
  354W        W65339  19.311  28.656   9.789
  355W        W65340  34.044  29.012  12.982
  356W        W65341  22.602  19.232   4.127
  357W        W65342  10.982  21.050  10.018
  358W        W65343  26.894   3.700  12.854
  359W        W65344  32.302  42.987   2.903
  360W        W65345  12.068  20.786  12.258
  361W        W65346  41.987   0.898  11.323
  362W        W65347  31.309  29.554  12.889
  363W        W65348   2.719  11.760   2.321
  364W        W65349   0.374  11.092   2.809
  365W        W65350  12.139   5.276  13.388
  366W        W65351  13.325  26.461  11.424
  367W        W65352  19.251  36.326  12.593
  368W        W65353   1.537  19.825  12.035
  369W        W65354  21.052  23.479  14.003
  370W        W65355  19.586  20.727  12.449
  371W        W65356  36.139   6.995   4.052
  372W        W65357  16.118  17.114  13.095
  373W        W65358  14.579  12.766   2.409
  374W        W65359  14.132  29.283  10.623
  375W        W65360  19.655  34.689   0.997
  376W        W65361  14.697  27.035   1.253
  377W        W65362  32.681  13.570  13.412
  378W        W65363  36.031  12.674  11.383
  379W        W65364   7.626  42.489  14.007
  380W        W65365  16.096  20.748   1.220
  381W        W65366   2.914   9.416   1.751
  382W        W65367  43.916  39.103  14.259
  383W        W65368  19.052  21.014  11.608
  384W        W65369  12.569  40.376   2.222
  385W        W65370   1.011  10.150  11.576
  386W        W65371  39.048  36.528   2.770
  387W        W65372  14.093  26.686   5.345
  388W        W65373  20.229  43.486  12.503
  389W        W65374  18.029  23.429   1.113
  390W        W65375  29.211  33.853  12.540
  391W        W65376  16.106  24.220   2.269
  392W        W65377   4.374  26.174   4.378
  393W        W65378   2.342  21.628  14.457
  394W        W65379  37.896  12.512   4.545
  395W        W65380  12.213  39.794  11.596
  396W        W65381  16.734  30.294  11.016
  397W        W65382  30.653  40.507   0.874
  398W        W65383   9.329  44.694  12.883
  399W        W65384   6.994  21.129   2.117
  400W        W65385  35.659  29.055   1.848
  401W        W65386  13.732  35.882  14.865
  402W        W65387   9.366  33.988   2.610
  403W        W65388  32.032  14.132  10.757
  404W        W65389   2.689  23.501  11.202
  405W        W65390  12.641   5.404  14.827
  406W        W65391  25.591  33.407  10.793
  407W        W65392  13.216  41.749  13.450
  408W        W65393  30.643   7.167  11.916
  409W        W65394  34.505  20.985   2.258
  410W        W65395   4.416   8.126   3.919
  411W        W65396  11.291  37.030  14.735
  412W        W65397   9.826   0.784   2.174
  413W        W65398  14.306  37.753  11.535
  414W        W65399  10.495  26.872   3.097
  415W        W65400  17.702  35.131  11.854
  416W        W65401  19.230  13.553  10.705
  417W        W65402  40.758  10.097  14.479
  418W        W65403  36.934  36.347   4.496
  419W        W65404  22.250  41.728   4.134
  420W        W65405  17.974   1.769  11.115
  421W        W65406  35.123  39.084   2.297
  422W        W65407  27.759   3.412  14.416
  423W        W65408   8.527  27.730  11.952
  424W        W65409   0.691  23.335   2.298
  425W        W65410   3.402  38.085  10.736
  426W        W65411  43.976   3.325   1.442
  427W        W65412  22.235  28.517   3.306
  428W        W65413   1.028  27.725   0.791
  429W        W65414  38.655  29.366   3.204
  430W        W65415  44.158  27.027   3.517
  431W        W65416  32.198   5.288   2.234
  432W        W65417  33.482  41.383  14.872
  433W        W65418  33.064   3.345   4.342
  434W        W65419  40.469  18.533   0.264
  435W        W65420   6.874  44.301  12.113
  436W        W65421  26.583  33.119   1.208
  437W        W65422  24.030  35.561   2.102
  438W        W65423  23.920  14.648   0.240
  439W        W65424  38.902   1.654   4.669
  440W        W65425  11.203  35.986   2.614
  441W        W65426  38.359  27.224   1.635
  442W        W65427   5.573  35.826  11.044
  443W        W65428  10.257   3.946   0.034
  444W        W65429   1.438  37.081   1.727
  445W        W65430   7.246  32.477   1.310
  446W        W65431  40.578   0.525  14.724
  447W        W65432  37.933  29.054  13.236
  448W        W65433  29.038   1.838  13.562
  449W        W65434  13.208  13.710   4.164
  450W        W65435  21.559  15.135   2.254
  451W        W65436  15.652  26.609   1.382
  452W        W65437  33.909   8.205  12.140
  453W        W65438  13.927  40.000   1.132
  454W        W65439   1.213  39.476  14.382
  455W        W65440  28.178  34.787   0.871
  456W        W65441  39.998   9.350  13.360
  457W        W65442  34.050  11.579  14.852
  458W        W65443  35.555  27.657  11.602
  459W        W65444  21.467  18.831  12.704
  460W        W65445  43.713  22.597  12.739
  461W        W65446  22.827  40.080   0.963
  462W        W65447  41.883   7.824   5.192
  463W        W65448  19.248  43.484   3.088
  464W        W65449   2.924  40.401  14.984
  465W        W65450  42.416  15.968   3.601
  466W        W65451  42.509  44.971   0.522
  467W        W65452  25.172   0.981   1.516
  468W        W65453  29.296  33.460  14.626
  469W        W65454  35.154  18.742  14.863
  470W        W65455  37.587   3.272  14.371
  471W        W65456  23.595  16.241   2.282
  472W        W65457  37.006  24.672  13.774
  473W        W65458  42.158  26.069  13.007
  474W        W65459  13.792  35.700   1.106
  475W        W65460  14.799  32.033   4.244
  476W        W65461  12.120  37.389   4.724
  477W        W65462  40.800   4.332   1.578
  478W        W65463  17.165  31.113  13.353
  479W        W65464  13.428   6.407  10.599
  480W        W65465   1.711  29.858  13.850
  481W        W65466  31.284  30.385   0.400
  482W        W65467  16.014  41.368  12.974
  483W        W65468   1.275  29.070   2.889
  484W        W65469  43.353  28.919  11.502
  485W        W65470  23.180  31.374  14.999
  486W        W65471  42.258  15.597   3.266
  487W        W65472  37.973  15.060   2.728
  488W        W65473   8.790  11.957   4.945
  489W        W65474  30.927  20.914   3.912
  490W        W65475  22.191   6.402   2.882
  491W        W65476  32.105  35.254   1.508
  492W        W65477   2.102   3.219   3.757
  493W        W65478  30.266   7.910   2.406
  494W        W65479  22.974  31.690  12.396
  495W        W65480  23.596  44.573  12.063
  496W        W65481   5.228  36.591  14.609
  497W        W65482  11.092  44.735  13.387
  498W        W65483   1.404   2.970   1.910
  499W        W65484   8.943  24.789  13.080
  500W        W65485  13.162   6.255  11.013
  501W        W65486   1.462  11.193   2.187
  502W        W65487   5.678  16.261   4.134
  503W        W65488  38.293  27.942   1.326
  504W        W65489   5.021  40.986  14.385
  505W        W65490  12.249   8.227  10.649
  506W        W65491  36.867  12.137   4.211
  507W        W65492  21.345  17.075   0.884
  508W        W65493  44.209  19.272   1.454
  509W        W65494   4.425  42.019  14.989
  510W        W65495  25.070   6.362  13.382
  511W        W65496  26.179  22.816  12.107
  512W        W65497  37.147   1.403  11.936
  513W        W65498  10.192  37.609   2.206
  514W        W65499  31.158   8.299   0.472
  515W        W65500  14.595   8.764   3.253
  516W        W65501  32.705  10.617   3.752
  517W        W65502  23.205  11.713   0.721
  518W        W65503  15.338  42.286  11.125
  519W        W65504  37.697   4.325  10.583
  520W        W65505  10.610  30.547   4.390
  521W        W65506  40.935  24.055   9.922
  522W        W65507  16.376  22.217  12.024
  523W        W65508   5.898  44.217  12.497
  524W        W65509  28.302  27.577  11.602
  525W        W65510  17.782   5.963  12.024
  526W        W65511  38.825  43.535  13.335
  527W        W65512   2.787  19.754   2.377
  528W        W65513  38.913  25.799   0.204
  529W        W65514  13.778  37.245   0.449
  530W        W65515  35.514  11.113  12.391
  531W        W65516   9.691  11.668   1.691
  532W        W65517  29.332  19.130   1.614
  533W        W65518  38.944  21.262  12.927
  534W        W65519  39.830  17.663   0.892
  535W        W65520  43.415   9.350   3.803
  536W        W65521  23.237  30.319   3.396
  537W        W65522  34.759  15.126   3.282
  538W        W65523   0.098  19.693  13.222
  539W        W65524  22.943   4.030   1.201
  540W        W65525  43.166   6.929  12.774
  541W        W65526  11.635  32.700  14.910
  542W        W65527  25.944  27.449  11.839
  543W        W65528  40.307  14.082  13.003
  544W        W65529  33.503  11.790  13.402
  545W        W65530  42.720  13.191  11.102
  546W        W65531  31.477  20.288  11.508
  547W        W65532  21.916  10.779   1.666
  548W        W65533  38.320   1.369   0.205
  549W        W65534  29.829  32.755  11.101
  550W        W65535   6.239  10.268   2.464
  551W        W65536  11.155   4.693   0.167
  552W        W65537  43.755  39.781   0.991
  553W        W65538  33.085   1.692  13.075
  554W        W65539  27.708  25.804  14.787
  555W        W65540  12.692   3.288   5.015
  556W        W65541  36.446  42.370  11.877
  557W        W65542  21.708  11.542   2.335
  558W        W65543  43.036  32.910  11.754
  559W        W65544  23.766  44.977  11.616
  560W        W65545  41.515  19.059  11.310
  561W        W65546   4.874  41.843   1.744
  562W        W65547  38.144  12.113   0.310
  563W        W65548  24.215  16.595   1.181
  564W        W65549  16.934  43.738  11.307
  565W        W65550   6.184  21.690   4.241
  566W        W65551  19.127  24.212   3.887
  567W        W65552  41.973   9.826  12.132
  568W        W65553   7.261   4.779   4.090
  569W        W65554  28.527  30.531   1.456
  570W        W65555  32.406  10.293   3.095
  571W        W65556  12.082   5.897  12.071
  572W        W65557  40.867  11.605   0.334
  573W        W65558   2.275  20.330   1.887
  574W        W65559   7.430  25.150   3.101
  575W        W65560  42.355  21.905  14.844
  576W        W65561  11.617  22.302   2.305
  577W        W65562  17.758  40.840  13.087
  578W        W65563  18.844  34.883   1.973
  579W        W65564  19.368  15.111   1.845
  580W        W65565  20.245  27.504   4.791
  581W        W65566  38.128  42.672   1.230
  582W        W65567  27.088  15.165   2.835
  583W        W65568  15.140  20.633   3.052
  584W        W65569  31.877  19.052   2.830
  585W        W65570   9.584  29.054   1.766
  586W        W65571  11.821  35.933  14.310
  587W        W65572  35.953  37.726   4.406
  588W        W65573  30.669  13.188   4.652
  589W        W65574   2.775  20.576   1.836
  590W        W65575  17.615  17.627  11.515
  591W        W65576   0.838   5.307   2.804
  592W        W65577  22.154  37.367   3.662
  593W        W65578  13.145  37.349   3.639
  594W        W65579   6.605  24.826   0.430
  595W        W65580   8.900  32.300  10.997
  596W        W65581  30.327  22.226  13.530
  597W        W65582  13.321  25.677  10.990
  598W        W65583  33.077  39.594  13.860
  599W        W65584  21.066  42.758  14.025
  600W        W65585  26.086   8.878  12.445
  601W        W65586   3.645  22.541  10.753
  602W        W65587   2.939  37.423  11.604
  603W        W65588  24.544  21.838  12.467
  604W        W65589  10.841  33.180  11.597
  605W        W65590  24.691  28.463   1.825
  606W        W65591  27.971  34.389  14.917
  607W        W65592  25.660  18.084  12.088
  608W        W65593   7.842  31.656   2.735
  609W        W65594   8.400  14.155  11.945
  610W        W65595  19.165  28.897  13.980
  611W        W65596  32.846  25.498  14.032
  612W        W65597   6.344  21.215   3.503
  613W        W65598  37.338  41.710   1.434
  614W        W65599   3.983  30.738  12.451
  615W        W65600  43.329  19.224   3.040
  616W        W65601  26.085  28.266  10.388
  617W        W65602  10.842  13.803  11.546
  618W        W65603  25.179  36.226   0.542
  619W        W65604  17.180  17.646   1.086
  620W        W65605   6.770  18.257   4.075
  621W        W65606  12.846  12.669  11.789
  622W        W65607  27.016  40.870   2.776
  623W        W65608  17.583  29.950  13.039
  624W        W65609  14.685  18.564  11.367
  625W        W65610  13.768  25.300   2.702
  626W        W65611  26.110  26.957  10.697
  627W        W65612  34.871  20.597   4.861
  628W        W65613   0.220   5.435  10.743
  629W        W65614  23.654  33.311  13.913
  630W        W65615  11.082   0.755  11.596
  631W        W65616  33.059  44.703   2.953
  632W        W65617  12.595  39.348   2.813
  633W        W65618  14.265  33.958   3.590
  634W        W65619  22.935  18.229   1.129
  635W        W65620  34.044  30.203   2.640
  636W        W65621  12.678  11.140   2.777
  637W        W65622  24.669  32.089   4.688
  638W        W65623  21.682   0.700  12.361
  639W        W65624  12.504  16.539   0.445
  640W        W65625  37.043  26.802   0.485
  641W        W65626  14.500  23.058   4.205
  642W        W65627  38.020  19.492  13.061
  643W        W65628   8.763   3.923   1.178
  644W        W65629  25.713  22.142  11.496
  645W        W65630  30.168  42.938  13.502
  646W        W65631  40.440  42.976   9.990
  647W        W65632   9.281   3.509  11.930
  648W        W65633  13.580   6.898   1.336
  649W        W65634  21.603   7.306  12.971
  650W        W65635  23.562  26.203  13.498
  651W        W65636  44.256   3.199  14.285
  652W        W65637  41.094   6.413  11.653
  653W        W65638  30.038  38.619   2.841
  654W        W65639  10.806  31.829  13.584
  655W        W65640  44.204   3.708  11.983
  656W        W65641  42.318   6.699  13.525
  657W        W65642  11.670  14.773  14.010
  658W        W65643  44.602  35.085  10.547
  659W        W65644  32.900  38.329  11.632
  660W        W65645  35.444  33.683  10.862
  661W        W65646  44.765  23.504  13.033
  662W        W65647  44.925  43.489   4.845
  663W        W65648  17.122  18.893   3.359
  664W        W65649   2.173  12.322  12.859
  665W        W65650  44.896  13.203  14.880
  666W        W65651   1.653   1.610   1.836
  667W        W65652   0.831  18.850   3.740
  668W        W65653  43.735  37.815   1.602
  669W        W65654  40.452  36.318   2.231
  670W        W65655   9.829  32.628  10.817
  671W        W65656  26.448   2.767  12.598
  672W        W65657  12.418  30.967  10.142
  673W        W65658  10.602  31.163  11.518
  674W        W65659  22.948   5.905  13.877
  675W        W65660  16.392  42.017   1.433
  676W        W65661   6.364   5.512  12.547
  677W        W65662  29.446  25.603  10.718
  678W        W65663  11.303  24.413  12.197
  679W        W65664  37.567  28.189   0.122
  680W        W65665  13.695  29.839  11.157
  681W        W65666  14.164  21.249  10.904
  682W        W65667  25.191  18.525  14.780
  683W        W65668   0.954   6.201   1.022
  684W        W65669  20.799   5.682   2.128
  685W        W65670  33.807  44.901   4.110
  686W        W65671  42.464   2.721  14.139
  687W        W65672   4.257  10.760   4.794
  688W        W65673  20.038   2.345   1.233
  689W        W65674  35.524  17.793   4.628
  690W        W65675  22.119   2.584   4.352
  691W        W65676  14.892  38.933  12.147
  692W        W65677  13.803  25.996  14.956
  693W        W65678  31.728   5.964   2.854
  694W        W65679  22.495  26.647  13.149
  695W        W65680  32.834  34.494  11.621
  696W        W65681  43.290  44.938  11.838
  697W        W65682  36.881  41.287  12.622
  698W        W65683  23.791  32.032  14.026
  699W        W65684   1.456  31.107  12.618
  700W        W65685  11.127  42.592   4.039
  701W        W65686  24.589  38.827  11.123
  702W        W65687   8.175  36.962  12.286
  703W        W65688   4.020  43.192  14.544
  704W        W65689  11.569  23.733  13.047
  705W        W65690  10.326  13.730  11.426
  706W        W65691   8.167  17.486  11.251
  707W        W65692  40.563  29.081   4.947
  708W        W65693  25.291   8.251  13.397
  709W        W65694   0.802  44.646  13.870
  710W        W65695  29.838  26.187   2.906
  711W        W65696  32.144   0.864   3.006
  712W        W65697   8.586   7.356   1.372
  713W        W65698  33.333  13.189   1.709
  714W        W65699  18.116  11.182   4.843
  715W        W65700  27.043  38.609   0.800
  716W        W65701  15.374  32.642  13.101
  717W        W65702  37.507  10.183  10.552
  718W        W65703   6.874   5.733   3.130
  719W        W65704  35.946  29.408   3.338
  720W        W65705  26.475   8.221   4.569
  721W        W65706  24.300   2.827   4.533
  722W        W65707  25.687  23.629   1.031
  723W        W65708  12.978  25.530  14.925
  724W        W65709   1.339   3.710  13.778
  725W        W65710  10.134  38.416   3.612
  726W        W65711  20.660   7.785   3.736
  727W        W65712  28.064  40.589  14.527
  728W        W65713  23.505  16.402   4.522
  729W        W65714  43.880  27.722  13.448
  730W        W65715  33.859  10.348  12.156
  731W        W65716  34.832  37.964  13.772
  732W        W65717  12.417  25.979  11.572
  733W        W65718  42.834  24.056  12.093
  734W        W65719   4.221  25.284   3.809
  735W        W65720  44.792   2.439   1.877
  736W        W65721  15.690  14.405   0.463
  737W        W65722  34.462  29.721   3.303
  738W        W65723  39.777  43.601   1.226
  739W        W65724  40.910  27.809  10.342
  740W        W65725  29.612  19.957   1.327
  741W        W65726  19.493  22.006  10.982
  742W        W65727  36.605  30.587   4.523
  743W        W65728  13.230  17.526   0.479
  744W        W65729   4.235  12.841  13.410
  745W        W65730  24.227  42.803  13.806
  746W        W65731  28.181  12.606  12.697
  747W        W65732  36.184   9.416  11.912
  748W        W65733  42.384  19.585   5.086
  749W        W65734  30.580  35.423   1.587
  750W        W65735  24.191  28.087   1.453
  751W        W65736  26.635   3.932   2.325
  752W        W65737   2.522  30.122   2.784
  753W        W65738  40.012   6.329   0.520
  754W        W65739  35.131  12.289   4.261
  755W        W65740   5.509  34.105   3.698
  756W        W65741  38.310   2.864  13.526
  757W        W65742  23.165  23.984  13.812
  758W        W65743  23.658  39.953  14.300
  759W        W65744   1.406  19.328  12.089
  760W        W65745  27.536  28.151   4.601
  761W        W65746  32.218  39.459   1.751
  762W        W65747  16.361  26.838  14.366
  763W        W65748  37.087  10.413  13.645
  764W        W65749  13.661  10.126  12.041
  765W        W65750  36.849  44.704  11.831
  766W        W65751   2.846  16.048  11.890
  767W        W65752  43.938  37.594   3.784
  768W        W65753  44.003  30.948  10.736
  769W        W65754  36.510  35.738  12.447
  770W        W65755  13.472   6.628   4.159
  771W        W65756   7.131   5.863  14.511
  772W        W65757  20.576  22.016   1.353
  773W        W65758  40.029  40.177   3.738
  774W        W65759  13.730   5.201  12.469
  775W        W65760  19.085  29.395  14.762
  776W        W65761  37.916  25.702   0.811
  777W        W65762  15.929  23.191  13.914
  778W        W65763  43.240  11.297  11.216
  779W        W65764  40.315  30.431  12.578
  780W        W65765  34.014  19.857  12.578
  781W        W65766  11.725  10.085   3.118
  782W        W65767   7.910   8.739   3.691
  783W        W65768  31.689  25.088  10.512
  784W        W65769  42.777   3.705   1.878
  785W        W65770  30.479  28.211  14.447
  786W        W65771  24.219  19.475  11.992
  787W        W65772  13.707  37.088  10.581
  788W        W65773  20.815  31.346  10.661
  789W        W65774  19.827  42.544   4.110
  790W        W65775   4.803  35.584   1.831
  791W        W65776  38.312   4.195  14.188
  792W        W65777  28.033  30.949   3.530
  793W        W65778  43.000  11.132   4.509
  794W        W65779  12.757  24.139  12.954
  795W        W65780  25.142   5.368  11.536
  796W        W65781  40.896   2.150   0.729
  797W        W65782  44.845  44.887  14.958
  798W        W65783  21.217  29.214  13.777
  799W        W65784   7.625  22.673   2.680
  800W        W65785  35.119  25.605   0.896
  801W        W65786   3.332   2.808   2.676
  802W        W65787  18.122  40.897   1.951
  803W        W65788  22.291   8.143   2.930
  804W        W65789   4.986  12.392   2.202
  805W        W65790  24.668  34.292  10.109
  806W        W65791  33.325   7.385   1.853
  807W        W65792  17.365  14.194   4.174
  808W        W65793   7.521   2.238  11.757
  809W        W65794  11.791   3.729   2.772
  810W        W65795  41.477  16.885   3.519
  811W        W65796  28.660  13.746   1.388
  812W        W65797   4.683  33.295  14.401
  813W        W65798  34.077  12.051  13.948
  814W        W65799  19.717  33.891   1.428
  815W        W65800   3.468   4.615   0.785
  816W        W65801  26.185  20.320   3.782
  817W        W65802  30.215  38.488   0.376
  818W        W65803   9.200   2.636  13.993
  819W        W65804  32.407  29.761   2.414
  820W        W65805  16.515   1.428   0.429
  821W        W65806  28.448   8.945   0.604
  822W        W65807  18.264  18.009  13.112
  823W        W65808  36.886  10.893  13.728
  824W        W65809  25.956  43.369   2.885
  825W        W65810  38.577   2.472   1.164
  826W        W65811  33.050  29.672  12.487
  827W        W65812  37.114  35.919   2.479
  828W        W65813  32.421  36.930   0.480
  829W        W65814  18.948  35.442  11.670
  830W        W65815  17.235   5.274   1.471
  831W        W65816  17.746  29.687  14.845
  832W        W65817   7.768  31.539   1.153
  833W        W65818  20.165   7.802  10.588
  834W        W65819  42.388  37.559  11.180
  835W        W65820  22.633  21.052  12.976
  836W        W65821  17.849  11.700   4.681
  837W        W65822  17.647   6.787  14.784
  838W        W65823   3.040  22.481  14.295
  839W        W65824   6.328  23.718   2.746
  840W        W65825  27.043  12.643   4.062
  841W        W65826   4.917  26.079  13.491
  842W        W65827  19.688  34.877  13.318
  843W        W65828   5.927  12.689  10.860
  844W        W65829  36.525   6.053  14.602
  845W        W65830  36.616   0.457   4.224
  846W        W65831  27.131  44.781   5.515
  847W        W65832  11.819  23.729  13.516
  848W        W65833   1.182  36.622   0.157
  849W        W65834  26.969   1.795  12.613
  850W        W65835  18.675  37.091   3.354
  851W        W65836   3.011  42.276  12.514
  852W        W65837   0.343  24.714   3.272
  853W        W65838  33.880  40.025   4.057
  854W        W65839   0.804  26.216   2.345
  855W        W65840  24.012   2.496  10.215
  856W        W65841   8.133   4.388  13.462
  857W        W65842  35.388  13.347   4.969
  858W        W65843  15.193  16.822   2.738
  859W        W65844   9.374  27.547   1.785
  860W        W65845  39.984   0.666   4.346
  861W        W65846  27.936  10.826  12.572
  862W        W65847  37.784   6.736   3.577
  863W        W65848  18.223  23.717  11.672
  864W        W65849   5.614   3.681   4.116
  865W        W65850  35.794  18.334  13.969
  866W        W65851  18.648  26.577  13.434
  867W        W65852  14.903  44.296   1.868
  868W        W65853  41.694  44.551  10.472
  869W        W65854  16.865  12.120  11.618
  870W        W65855  39.139  30.564  10.310
  871W        W65856  11.594  22.534   1.847
  872W        W65857  27.910  44.014   2.158
  873W        W65858  31.832   1.928   0.905
  874W        W65859  33.424  13.647   1.457
  875W        W65860  37.161   4.919  12.474
  876W        W65861  37.419   0.097  12.518
  877W        W65862  19.096  30.517  12.869
  878W        W65863  14.168  35.119  11.107
  879W        W65864  20.227   4.892   2.421
  880W        W65865   7.193   9.300  14.928
  881W        W65866  12.670  40.053   4.018
  882W        W65867  35.913  24.521   0.220
  883W        W65868   0.046  14.480   0.359
  884W        W65869  24.178  27.695  10.518
  885W        W65870  15.687  38.151   4.990
  886W        W65871  37.046  35.591   3.811
  887W        W65872  35.460  11.569   2.645
  888W        W65873  31.200  37.927   1.289
  889W        W65874  40.606  40.483  13.866
  890W        W65875  18.551   8.240   1.745
  891W        W65876  10.862  32.145   3.049
  892W        W65877  39.498  33.559  14.125
  893W        W65878   7.286   1.886  11.470
  894W        W65879  34.416   9.945  12.559
  895W        W65880  15.816   6.741   2.088
  896W        W65881  10.202  40.044   2.363
  897W        W65882  12.481   5.009  10.186
  898W        W65883  12.106  30.541   3.692
  899W        W65884  40.195  18.771  11.084
  900W        W65885  39.800  40.807  14.397
  901W        W65886  13.912   5.198  10.691
  902W        W65887  21.924  24.213   1.681
  903W        W65888  30.717  10.336  13.633
  904W        W65889  33.939  31.462  12.928
  905W        W65890  39.935   2.307   0.837
  906W        W65891  28.158  30.377   4.304
  907W        W65892  30.522  23.574   4.659
  908W        W65893  17.682  31.774  12.734
  909W        W65894  42.670  14.862  10.582
  910W        W65895  39.756   8.216  11.068
  911W        W65896  11.302   6.159   4.710
  912W        W65897  34.130  33.595  13.387
  913W        W65898   6.487   4.190  11.197
  914W        W65899  29.732  26.504  11.601
  915W        W65900   6.305  27.049   3.327
  916W        W65901   5.699  43.169   4.193
  917W        W65902  18.125  24.129   3.053
  918W        W65903   7.829  36.600   1.898
  919W        W65904  32.754  37.430   1.308
  920W        W65905  19.225  27.689   0.819
  921W        W65906  36.430   0.204  13.987
  922W        W65907  29.184  21.304   1.872
  923W        W65908  14.410  40.908   0.732
  924W        W65909  21.568  13.912  14.606
  925W        W65910  23.351  21.114   1.759
  926W        W65911  36.886  13.715  11.707
  927W        W65912   5.257  32.425   1.388
  928W        W65913  24.531  11.342   2.705
  929W        W65914  12.853  11.121   0.334
  930W        W65915  44.797  42.737   1.021
  931W        W65916   1.757   8.507   2.410
  932W        W65917  35.190   4.916   2.101
  933W        W65918  32.404   3.384  11.750
  934W        W65919  24.873  39.856   0.939
  935W        W65920  30.517  24.422  12.001
  936W        W65921   1.440  41.941   1.738
  937W        W65922  16.595  17.044   3.071
  938W        W65923  37.161   9.065  12.162
  939W        W65924   2.314  34.423  14.764
  940W        W65925  22.259  21.757  11.764
  941W        W65926   1.918  28.066   1.624
  942W        W65927  19.977  11.387   4.669
  943W        W65928  27.128   9.576   2.195
  944W        W65929  44.239  42.471  12.454
  945W        W65930  24.615  39.989  11.375
  946W        W65931  27.945  27.587   3.327
  947W        W65932  29.047  41.565   3.694
  948W        W65933  34.572  32.662   4.917
  949W        W65934   6.233  12.386   3.611
  950W        W65935  39.932   8.116  11.530
  951W        W65936  14.246  39.389  13.712
  952W        W65937   1.050  39.869   2.851
  953W        W65938  20.744   3.857   1.636
  954W        W65939  22.024   3.664  10.949
  955W        W65940  40.440  21.629   3.674
  956W        W65941  15.595   7.432  14.275
  957W        W65942  40.711  20.488   2.009
  958W        W65943  25.086  24.174   3.915
  959W        W65944   3.466  24.787   3.959
  960W        W65945   3.913  33.982  12.860
  961W        W65946  43.398   8.348  11.195
  962W        W65947  15.599  43.968  14.251
  963W        W65948  25.709  18.818  10.521
  964W        W65949  40.788   1.253   2.432
  965W        W65950   3.267   1.018  14.441
  966W        W65951  11.176  42.218   4.381
  967W        W65952  24.215  16.593  11.150
  968W        W65953  41.510   7.567   4.054
  969W        W65954  13.710  39.338  12.432
  970W        W65955   3.368  27.648   4.292
  971W        W65956  44.982  21.115   1.818
  972W        W65957  29.193  24.973  13.453
  973W        W65958  39.401  40.751   3.952
  974W        W65959  17.709  11.972   3.793
  975W        W65960  35.094   3.355  12.843
  976W        W65961  30.027  23.472   4.933
  977W        W65962  33.848  36.984  12.906
  978W        W65963  20.361  24.026  12.085
  979W        W65964  11.382  12.423  12.494
  980W        W65965  11.368  13.823  13.410
  981W        W65966  25.601  38.217  14.943
  982W        W65967  30.450  13.105   2.847
  983W        W65968  35.360  37.558  13.283
  984W        W65969  26.630  30.827  10.222
  985W        W65970  13.544  41.439   1.227
  986W        W65971  27.124  36.428  14.867
  987W        W65972  15.758  10.811  14.324
  988W        W65973  32.367  42.586   0.327
  989W        W65974   2.473  15.715  11.696
  990W        W65975   7.802   5.884  14.666
  991W        W65976  43.920  18.645   4.760
  992W        W65977   5.835  16.585  13.859
  993W        W65978  30.783  19.201   4.488
  994W        W65979  21.060  23.689   5.209
  995W        W65980  20.257  44.745   0.447
  996W        W65981  18.591  33.602  13.447
  997W        W65982  32.412  40.228   3.601
  998W        W65983  21.700  31.660  10.948
  999W        W65984  28.001   0.523   5.394
 1000W        W65985   4.848  25.448  14.023
 1001W        W65986  10.113  18.172  11.292
 1002W        W65987  12.489  26.503  14.732
 1003W        W65988  18.663  44.034   4.586
 1004W        W65989  31.827  36.876  12.755
 1005W        W65990  28.616  19.051  12.991
 1006W        W65991  31.182   2.914  13.487
 1007W        W65992  24.699  18.448  11.967
 1008W        W65993  40.916   2.394  13.548
 1009W        W65994   3.274  25.911   0.325
 1010W        W65995  41.327  34.450   1.563
 1011W        W65996  36.987   2.767   4.529
 1012W        W65997  39.187  41.380  13.276
 1013W        W65998   1.745  33.699  13.340
 1014W        W65999  27.935  13.127   1.666
 1015W        W66000  40.208  41.573   3.221
 1016W        W66001   2.201  17.412  10.546
 1017W        W66002  31.148  30.587  11.638
 1018W        W66003   9.581  26.137   0.858
 1019W        W66004  37.689  28.763  11.586
 1020W        W66005  11.360  38.893  10.608
 1021W        W66006   3.130   5.752  11.003
 1022W        W66007   9.237  39.379   0.940
 1023W        W66008   1.707  29.002   1.889
 1024W        W66009  24.055   0.400   0.411
 1025W        W66010   4.337  44.821   0.727
 1026W        W66011  20.693  10.823   4.678
 1027W        W66012  18.741  17.115  12.219
 1028W        W66013  11.663  44.772   1.711
 1029W        W66014  16.944  11.838  13.374
 1030W        W66015  16.841  29.017  13.468
 1031W        W66016  26.411   3.398  12.081
 1032W        W66017  33.500  41.281   4.555
 1033W        W66018   0.570  23.047  12.734
 1034W        W66019   9.653  16.310   2.915
 1035W        W66020  10.313  18.318   3.269
 1036W        W66021   6.936  38.545  14.305
 1037W        W66022  16.828  42.024  11.196
 1038W        W66023   2.970  12.686   2.735
 1039W        W66024  37.505  10.750   3.852
 1040W        W66025   8.917  11.167   4.317
 1041W        W66026  29.497  22.783   2.696
 1042W        W66027  38.853  29.453  13.992
 1043W        W66028  24.296  16.540   2.211
 1044W        W66029  38.435  15.244   2.840
 1045W        W66030  31.393  12.250  11.031
 1046W        W66031  18.768  31.646   1.477
 1047W        W66032  10.729  25.322   0.765
 1048W        W66033   2.204   1.635   0.594
 1049W        W66034  20.249  18.660   3.741
 1050W        W66035  27.619  32.947   2.478
 1051W        W66036  40.802  14.325   4.349
 1052W        W66037   3.519   3.539  10.497
 1053W        W66038  41.866   5.041   5.009
 1054W        W66039  26.879   1.289  11.939
 1055W        W66040  40.849  42.303   0.638
 1056W        W66041  35.489  36.948  14.069
 1057W        W66042  13.743  27.472   2.352
 1058W        W66043  24.933  22.878   2.348
 1059W        W66044  23.679  42.820  10.589
 1060W        W66045  28.003   7.608   1.865
 1061W        W66046  26.552   0.519  12.557
 1062W        W66047  31.856  25.367   4.034
 1063W        W66048  43.099  14.801  14.742
 1064W        W66049   4.956   9.705   2.169
 1065W        W66050   4.069  26.273  11.111
 1066W        W66051  33.102  18.678  13.892
 1067W        W66052   9.754  29.091  11.557
 1068W        W66053  10.695  20.598  11.459
 1069W        W66054  34.097  17.175   4.176
 1070W        W66055  15.548   7.647  11.540
 1071W        W66056   6.137  25.167   3.587
 1072W        W66057  17.654  38.176  11.583
 1073W        W66058  25.100  34.190   1.977
 1074W        W66059  22.721   2.329   1.700
 1075W        W66060   8.365  15.235  13.344
 1076W        W66061  26.498   6.246   1.829
 1077W        W66062  33.558  27.423  11.101
 1078W        W66063  24.957   6.127   0.262
 1079W        W66064  31.393  40.416   0.351
 1080W        W66065  41.832  19.772  13.003
 1081W        W66066   9.887  30.911   0.902
 1082W        W66067   9.883  40.817  11.192
 1083W        W66068  42.383  30.088   5.469
 1084W        W66069  24.060   8.416  13.144
 1085W        W66070  37.349  18.556   2.388
 1086W        W66071  44.882   9.994   3.798
 1087W        W66072  35.136  40.961   1.612
 1088W        W66073  13.288   3.833   1.214
 1089W        W66074  24.241   9.605   4.938
 1090W        W66075   9.051  10.420  13.622
 1091W        W66076  34.509  26.886   3.750
 1092W        W66077   6.923   6.722   1.028
 1093W        W66078  15.817  23.097   0.188
 1094W        W66079  22.472  15.283  13.357
 1095W        W66080   7.754  42.978  10.614
 1096W        W66081   3.151  39.320  13.991
 1097W        W66082  44.785  37.081  11.840
 1098W        W66083   3.747   9.736  12.623
 1099W        W66084   6.854   6.632   4.488
 1100W        W66085  33.732  24.194  12.353
 1101W        W66086  39.994  24.744  14.527
 1102W        W66087  26.912  31.930  14.862
 1103W        W66088  40.994  43.017   0.510
 1104W        W66089  17.272  42.965  11.971
 1105W        W66090  38.619  44.962   5.112
 1106W        W66091  26.691  19.505  11.122
 1107W        W66092  23.022  35.208  10.620
 1108W        W66093   7.068  35.322   0.211
 1109W        W66094   5.885  24.763  12.662
 1110W        W66095  23.530  40.452   4.648
 1111W        W66096  23.223   8.324   0.215
 1112W        W66097  20.293  32.079   5.081
 1113W        W66098  21.032  22.634   0.256
 1114W        W66099  15.067  29.969  11.597
 1115W        W66100  12.242  33.435   4.213
 1116W        W66101  41.175  26.303   5.062
 1117W        W66102  16.701  25.070  10.285
 1118W        W66103  16.380  43.332   2.311
 1119W        W66104  14.101  26.052   2.753
 1120W        W66105  31.019  37.964   2.120
 1121W        W66106   4.883  31.571  13.531
 1122W        W66107   0.728  20.284  12.156
 1123W        W66108  12.328  14.284   3.654
 1124W        W66109  11.259  13.093   3.340
 1125W        W66110   8.393   4.260   2.679
 1126W        W66111  25.022   7.363   0.912
 1127W        W66112  14.515  16.155  14.444
 1128W        W66113  26.001  27.437  10.864
 1129W        W66114   8.364   8.921   9.756
 1130W        W66115  30.191  13.619  11.964
 1131W        W66116  12.813   3.396   0.792
 1132W        W66117  17.291  18.787  11.059
 1133W        W66118  30.096  39.798   3.820
 1134W        W66119  20.497  19.177   1.064
 1135W        W66120  16.237  14.338  12.929
 1136W        W66121  23.057   9.335   4.673
 1137W        W66122  23.091  10.863   4.593
 1138W        W66123  30.713  44.220  10.575
 1139W        W66124  36.593  21.420  14.352
 1140W        W66125  25.072  34.619  11.458
 1141W        W66126  20.354  17.644   0.296
 1142W        W66127  40.449  30.527  10.763
 1143W        W66128  38.785  41.813  10.649
 1144W        W66129  36.301   9.863  14.502
 1145W        W66130  13.575  27.217   1.719
 1146W        W66131  30.242  31.503  13.773
 1147W        W66132   1.311  37.248   0.832
 1148W        W66133  32.867  21.008   2.744
 1149W        W66134   6.376  37.911  13.914
 1150W        W66135  24.978  28.622   3.586
 1151W        W66136   4.375  14.782   3.633
 1152W        W66137  32.920  43.502  11.837
 1153W        W66138  29.606  17.659   1.441
 1154W        W66139  22.539  44.773  12.544
 1155W        W66140  38.766  44.506   0.926
 1156W        W66141  40.028  38.534  11.218
 1157W        W66142   2.494   4.775   4.478
 1158W        W66143  13.262  27.790   5.072
 1159W        W66144  37.419   3.660  12.053
 1160W        W66145  33.637   7.215   4.472
 1161W        W66146  23.052   4.372  13.628
 1162W        W66147  13.276  11.448   0.462
 1163W        W66148   7.176  41.041  12.820
 1164W        W66149  35.027  33.055   1.954
 1165W        W66150   2.987  41.028  13.096
 1166W        W66151  10.455  19.620   1.408
 1167W        W66152  39.980  18.563  12.625
 1168W        W66153  18.772  22.138  14.049
 1169W        W66154  32.794  32.100   4.770
 1170W        W66155   7.487   6.466  10.837
 1171W        W66156   0.906  30.502   0.329
 1172W        W66157  38.852  13.428   0.004
 1173W        W66158  44.434  31.577   4.549
 1174W        W66159  22.341  10.667   0.257
 1175W        W66160  23.184   3.809  12.033
 1176W        W66161   4.977  16.521  13.913
 1177W        W66162  34.414   6.441  10.030
 1178W        W66163  24.698   2.278  12.485
 1179W        W66164  32.673  12.695  14.530
 1180W        W66165  21.794   5.692  14.978
 1181W        W66166   9.607   7.850   3.767
 1182W        W66167   6.248  41.959   2.215
 1183W        W66168  17.947  33.042   2.249
 1184W        W66169  20.755  34.381   2.393
 1185W        W66170  41.796  36.025  12.697
 1186W        W66171  44.756  33.339  14.282
 1187W        W66172  27.860  10.384  12.069
 1188W        W66173   7.736  28.879  11.504
 1189W        W66174   0.915   9.696  14.884
 1190W        W66175  27.695  28.610   4.417
 1191W        W66176  25.061   7.671  11.719
 1192W        W66177  21.389   7.387  10.716
 1193W        W66178  30.601  26.273  10.522
 1194W        W66179  31.401  16.351  11.440
 1195W        W66180  19.874  27.076   3.764
 1196W        W66181  43.895  31.455  13.850
 1197W        W66182  24.149  28.971   3.359
 1198W        W66183  27.565  28.517   2.437
 1199W        W66184  36.262  33.454   2.786
 1200W        W66185  41.303  22.442   4.526
 1201W        W66186  40.808  26.662  11.962
 1202W        W66187   6.686  32.060  13.503
 1203W        W66188  10.601  41.886   0.830
 1204W        W66189  26.588  34.469  12.147
 1205W        W66190  32.003  12.584   2.914
 1206W        W66191  33.076  27.365  12.932
 1207W        W66192  28.375  20.795  11.310
 1208W        W66193  23.950   3.314   0.915
 1209W        W66194  35.373  21.003   3.633
 1210W        W66195  10.731  32.632  12.456
 1211W        W66196  14.773   9.876  14.956
 1212W        W66197  19.771  23.597  10.927
 1213W        W66198  24.925  34.116  14.015
 1214W        W66199   9.256   7.325   2.287
 1215W        W66200  14.082  10.282   4.602
 1216W        W66201  37.539   2.871  13.995
 1217W        W66202  43.887  35.606   4.122
 1218W        W66203  28.023  15.530   2.040
 1219W        W66204  42.994  18.298  12.597
 1220W        W66205  38.262  12.218   4.327
 1221W        W66206   3.854  33.550  10.656
 1222W        W66207  17.763  24.913  14.037
 1223W        W66208  32.319  25.030   2.421
 1224W        W66209   8.352   5.925   3.155
 1225W        W66210   5.945  42.462   3.371
 1226W        W66211  37.941   4.684  11.434
 1227W        W66212  21.176  20.798  12.920
 1228W        W66213  39.269  19.590   3.274
 1229W        W66214  39.125  39.287  13.228
 1230W        W66215  41.857  34.398   3.519
 1231W        W66216  31.037   7.734   2.888
 1232W        W66217  38.310  18.629   2.711
 1233W        W66218  20.850  29.821  12.431
 1234W        W66219  41.884  15.594  10.154
 1235W        W66220   1.012  39.381  14.913
 1236W        W66221  29.486   6.237  12.397
 1237W        W66222   7.206  29.687   3.631
 1238W        W66223  28.969  30.205  13.879
 1239W        W66224   7.427  38.756   4.805
 1240W        W66225  23.573  19.366  13.882
 1241W        W66226  16.730  29.218   5.255
 1242W        W66227   7.201  32.266  12.558
 1243W        W66228  30.564  28.499  12.816
 1244W        W66229  36.530  19.729   3.422
 1245W        W66230  14.664  20.013   3.765
 1246W        W66231   7.861   2.652  14.456
 1247W        W66232  28.472  33.649  12.165
 1248W        W66233  26.945  27.446   5.452
 1249W        W66234  39.020  13.202  12.602
 1250W        W66235  25.230  35.393   3.382
 1251W        W66236  11.167  27.615   2.282
 1252W        W66237  33.873  26.435   0.289
 1253W        W66238   7.320   1.262   2.382
 1254W        W66239  37.787  32.303  14.546
 1255W        W66240  41.116  15.571   4.941
 1256W        W66241  15.123  15.318  13.260
 1257W        W66242  33.578  23.211  13.634
 1258W        W66243  41.993  37.984   0.248
 1259W        W66244  22.555   5.492  12.608
 1260W        W66245  23.006  36.313  11.968
 1261W        W66246  23.299  15.570   0.843
 1262W        W66247  38.640  19.817  11.115
 1263W        W66248   1.672   4.602   4.142
 1264W        W66249  14.871  34.582  13.450
 1265W        W66250  10.030   3.338  13.985
 1266W        W66251   1.926  30.965   4.779
 1267W        W66252  36.864   7.326   2.709
 1268W        W66253   8.099  13.669   3.623
 1269W        W66254  29.125   9.261   0.310
 1270W        W66255  25.558   6.006  10.235
 1271W        W66256  42.280  27.621  14.371
 1272W        W66257  23.017  22.940  12.133
 1273W        W66258  25.223  18.156   4.614
 1274W        W66259  42.676  42.735  13.401
 1275W        W66260  17.696   9.664   2.613
 1276W        W66261  34.186  30.961   4.597
 1277W        W66262  17.368   8.922   3.650
 1278W        W66263  35.022  44.403   0.290
 1279W        W66264  40.770  37.833   0.695
 1280W        W66265  34.118  37.478   3.293
 1281W        W66266  25.330  34.786   1.207
 1282W        W66267  18.419  28.132   1.120
 1283W        W66268  33.596   1.562  14.102
 1284W        W66269  18.402   3.102  10.469
 1285W        W66270  15.858   1.826   4.475
 1286W        W66271   9.482  33.446   0.973
 1287W        W66272  25.502  17.718  12.411
 1288W        W66273   3.163  20.098   2.500
 1289W        W66274   5.613  11.324   2.799
 1290W        W66275  11.924  15.144   2.731
 1291W        W66276  19.116  40.827  14.796
 1292W        W66277   7.143   0.095  11.179
 1293W        W66278  31.643   0.740   1.278
 1294W        W66279  32.656  19.222  10.701
 1295W        W66280   9.007   5.829  12.135
 1296W        W66281  25.743  20.889  11.172
 1297W        W66282  24.279  23.262  12.543
 1298W        W66283   1.854   0.028  12.430
 1299W        W66284  32.623  26.215   3.627
 1300W        W66285  15.511  38.628   2.720
 1301W        W66286  17.312  44.364   2.773
 1302W        W66287  38.905  18.661  10.557
 1303W        W66288  19.601   0.166   1.804
 1304W        W66289  24.728   3.367   2.115
 1305W        W66290  25.892  22.468  13.569
 1306W        W66291  23.566  31.857   1.976
 1307W        W66292  38.854  22.333  11.516
 1308W        W66293  43.942   1.499  14.284
 1309W        W66294  37.387  31.969  14.610
 1310W        W66295  27.204  40.038   0.459
 1311W        W66296  15.371  15.780  11.578
 1312W        W66297  10.665  29.081   4.968
 1313W        W66298   9.553  24.595   3.153
 1314W        W66299  43.484  10.475   0.701
 1315W        W66300  12.284  11.306  13.932
 1316W        W66301  44.990   2.192  10.606
 1317W        W66302  22.053  22.477  14.112
 1318W        W66303  19.557  42.313   1.408
 1319W        W66304  27.208  27.150   3.873
 1320W        W66305  40.556  31.582   3.176
 1321W        W66306   0.709  26.404  13.832
 1322W        W66307  42.554  13.623   0.616
 1323W        W66308  39.208  27.106   2.706
 1324W        W66309  28.010  13.802  11.981
 1325W        W66310   5.226  43.474   3.678
 1326W        W66311  32.621   9.831   3.144
 1327W        W66312  15.076   9.720  12.242
 1328W        W66313  35.577   0.758   0.291
 1329W        W66314  23.074  13.885   1.308
 1330W        W66315  44.393  20.568  11.600
 1331W        W66316  12.028  16.545  13.308
 1332W        W66317   3.684  40.935  14.853
 1333W        W66318   5.326  28.958   1.783
 1334W        W66319  10.309  18.194   3.754
 1335W        W66320  23.183  36.077  14.016
 1336W        W66321  15.183  21.035   4.500
 1337W        W66322  17.740  35.777   0.332
 1338W        W66323  39.125  24.460  13.546
 1339W        W66324  11.707  12.266   4.414
 1340W        W66325  37.430   4.319  13.736
 1341W        W66326  28.472  33.153  12.155
 1342W        W66327  43.958  20.630   3.383
 1343W        W66328  39.094  26.132  14.846
 1344W        W66329   0.301  18.244  13.571
 1345W        W66330  20.538  14.859  11.542
 1346W        W66331  43.691  10.423  13.859
 1347W        W66332  41.312   6.862  11.902
 1348W        W66333   0.479   0.467   2.756
 1349W        W66334  16.796  15.813   1.335
 1350W        W66335  21.307   8.294   2.664
 1351W        W66336  21.547  37.796  11.204
 1352W        W66337  11.162  21.069  11.178
 1353W        W66338  13.249  33.337  12.935
 1354W        W66339  31.926  25.864   4.193
 1355W        W66340  37.367   1.348   1.837
 1356W        W66341   1.004  10.446  11.171
 1357W        W66342   7.773   0.569   4.278
 1358W        W66343  28.769  43.238  10.957
 1359W        W66344  36.704  40.267  10.681
 1360W        W66345  32.661  25.111   4.311
 1361W        W66346  13.810  31.291   5.291
 1362W        W66347  16.820  23.121  10.390
 1363W        W66348  42.575  39.443  10.534
 1364W        W66349  25.413  40.274  13.472
 1365W        W66350  29.448  11.608  11.610
 1366W        W66351   0.249  27.970  14.900
 1367W        W66352  34.457   0.892  12.575
 1368W        W66353  16.119  44.300  12.103
 1369W        W66354   9.860  31.529  14.737
 1370W        W66355  15.193   2.774   5.411
 1371W        W66356   9.870  29.639  13.339
 1372W        W66357   6.257  10.675  13.676
 1373W        W66358   5.859  23.686   0.523
 1374W        W66359  33.979  43.770   3.358
 1375W        W66360  40.943  32.195   0.025
 1376W        W66361  23.430  17.214   0.385
 1377W        W66362  20.261  28.671  11.549
 1378W        W66363  24.988  23.866   1.552
 1379W        W66364  30.355   0.535   0.973
 1380W        W66365  13.101  12.090  14.863
 1381W        W66366  34.176  40.102  10.802
 1382W        W66367  25.742  19.655   0.711
 1383W        W66368  29.788  17.685   0.382
 1384W        W66369  22.489  13.878  12.116
 1385W        W66370  28.849  43.528   3.149
 1386W        W66371  42.001  40.959  12.023
 1387W        W66372  29.847   5.782   2.243
 1388W        W66373  43.774  28.324  10.712
 1389W        W66374  35.067  16.815  13.370
 1390W        W66375  28.308   7.246  14.274
 1391W        W66376   5.793  34.914   0.691
 1392W        W66377  35.821  27.044   3.167
 1393W        W66378  22.612   6.524  14.331
 1394W        W66379   6.412  27.686  13.328
 1395W        W66380  25.721  17.518  10.721
 1396W        W66381  36.044   4.918  12.430
 1397W        W66382   9.372   7.347   3.735
 1398W        W66383  39.095  30.375  12.017
 1399W        W66384  15.674  36.938  12.927
 1400W        W66385  36.139  23.797  12.324
 1401W        W66386  16.343  17.853  10.650
 1402W        W66387  15.750  40.223  11.444
 1403W        W66388  18.051  18.473  13.151
 1404W        W66389  37.345  35.214   4.086
 1405W        W66390  21.220  33.399   1.807
 1406W        W66391   0.856  18.688  14.235
 1407W        W66392   0.255  28.720  12.010
 1408W        W66393  17.626  19.628  11.844
 1409W        W66394  11.174   2.119  10.934
 1410W        W66395  33.524  20.975  12.094
 1411W        W66396  38.780  34.903  11.041
 1412W        W66397  32.137  14.239  13.918
 1413W        W66398  19.489  34.112  12.021
 1414W        W66399  33.457  30.163   1.362
 1415W        W66400  26.733  34.163  11.647
 1416W        W66401  44.840  10.397  13.380
 1417W        W66402  41.514  32.079  13.885
 1418W        W66403  43.007  21.399   2.295
 1419W        W66404  14.599  32.529   4.110
 1420W        W66405  19.124  23.270  11.963
 1421W        W66406   3.892  11.039   3.344
 1422W        W66407   0.805  15.735  11.023
 1423W        W66408  16.386  35.817   1.619
 1424W        W66409  21.563  26.145   4.083
 1425W        W66410  19.476   2.666  11.579
 1426W        W66411  38.356   3.584   4.365
 1427W        W66412   6.248  22.208  14.030
 1428W        W66413  23.433  32.150   0.785
 1429W        W66414  19.115  10.430  12.456
 1430W        W66415  20.027  42.418   2.206
 1431W        W66416  19.200  33.882  11.069
 1432W        W66417  11.072  21.543  12.070
 1433W        W66418   1.496  44.971   3.763
 1434W        W66419  41.347   9.404  13.323
 1435W        W66420  43.904  30.400   4.081
 1436W        W66421  44.328  12.252   4.176
 1437W        W66422  15.863  42.716  11.935
 1438W        W66423  38.414   9.204   3.320
 1439W        W66424  33.906   2.702   3.256
 1440W        W66425  14.533   2.021  10.638
 1441W        W66426   0.333  33.286  11.648
 1442W        W66427  39.482   1.347   1.689
 1443W        W66428  25.039  10.890  12.689
 1444W        W66429  13.403   2.806  14.149
 1445W        W66430  13.629  23.210   4.695
 1446W        W66431   5.312   6.315  11.902
 1447W        W66432  12.554   7.671  13.042
 1448W        W66433  24.156  24.369  14.316
 1449W        W66434  30.701  10.115   1.342
 1450W        W66435  29.544  23.602   0.817
 1451W        W66436  30.176  27.104  13.145
 1452W        W66437  16.228  35.081  14.364
 1453W        W66438  40.841  35.263   2.298
 1454W        W66439  24.692  26.106   3.782
 1455W        W66440  30.929  38.164   1.667
 1456W        W66441  34.084  44.109   1.224
 1457W        W66442  43.285  24.786   1.151
 1458W        W66443  29.197   6.760   2.811
 1459W        W66444  36.549  10.328  12.923
 1460W        W66445  14.751  35.797  11.245
 1461W        W66446  13.700  30.506  10.308
 1462W        W66447  42.025   5.385   9.996
 1463W        W66448  28.757  15.799  13.578
 1464W        W66449   2.316  25.229   4.311
 1465W        W66450   5.942   4.008   2.166
 1466W        W66451  10.162  21.251   3.247
 1467W        W66452  19.000  27.647   2.223
 1468W        W66453  28.090  29.214   2.739
 1469W        W66454  20.535  22.933  13.805
 1470W        W66455  16.419   4.682   5.538
 1471W        W66456  13.571  26.493   2.254
 1472W        W66457   5.419   9.669  13.524
 1473W        W66458   3.704  37.884   2.853
 1474W        W66459  36.077  32.256  12.503
 1475W        W66460  15.236  44.329  14.286
 1476W        W66461   0.498  21.126   1.957
 1477W        W66462  36.530   6.497  11.972
 1478W        W66463  21.991  17.272   0.333
 1479W        W66464  21.829  29.177   4.104
 1480W        W66465  32.462   3.653   0.785
 1481W        W66466  34.615  22.116  14.974
 1482W        W66467   9.978   8.329  12.962
 1483W        W66468   6.941  15.326   3.300
 1484W        W66469   9.971   0.995  14.428
 1485W        W66470  30.552  38.842   0.586
 1486W        W66471   2.453   2.379   4.181
 1487W        W66472  20.322  34.605  11.106
 1488W        W66473  41.968   0.837   1.385
 1489W        W66474   9.787  32.384   1.373
 1490W        W66475  22.527  41.326   1.807
 1491W        W66476  31.052   9.698   4.691
 1492W        W66477  10.425  22.562  12.569
 1493W        W66478  29.041  10.627   1.910
 1494W        W66479   9.609  15.279   3.590
 1495W        W66480  39.943  34.427   0.370
 1496W        W66481  30.066  36.945  10.606
 1497W        W66482  43.741  33.830   4.498
 1498W        W66483  21.543   4.409  11.870
 1499W        W66484  33.102  40.725   1.197
 1500W        W66485   8.040  40.048   4.727
 1501W        W66486  25.875  22.595   3.228
 1502W        W66487   3.867   2.725  10.742
 1503W        W66488   9.920  18.375   4.472
 1504W        W66489  26.598  21.159  14.907
 1505W        W66490  12.511  39.896  14.067
 1506W        W66491   9.726  21.945  13.971
 1507W        W66492   0.876  31.189   4.065
 1508W        W66493  12.124  43.504   2.756
 1509W        W66494   7.816  17.262  12.588
 1510W        W66495  27.386  22.963   3.363
 1511W        W66496  34.638  30.554   2.184
 1512W        W66497  14.344  36.632  12.078
 1513W        W66498   4.447  38.347   1.940
 1514W        W66499  15.669  40.327   2.124
 1515W        W66500  26.838  21.475  12.041
 1516W        W66501   1.403  26.249   0.402
 1517W        W66502  20.254  33.541  12.992
 1518W        W66503   1.883  28.524  13.971
 1519W        W66504   2.835   7.630  14.423
 1520W        W66505  16.548  14.676  10.961
 1521W        W66506  25.738  40.029  11.596
 1522W        W66507  16.867  44.294  11.585
 1523W        W66508  24.595  18.255   4.317
 1524W        W66509  35.014  44.071  11.084
 1525W        W66510   2.767  43.291   4.019
 1526W        W66511  32.632  33.190  13.807
 1527W        W66512  11.147  24.516  13.536
 1528W        W66513  14.533  24.214  11.473
 1529W        W66514  43.309   5.300   2.689
 1530W        W66515  21.073  29.055  11.019
 1531W        W66516  11.031  11.046   4.422
 1532W        W66517  39.826  22.212  13.407
 1533W        W66518  19.734  11.924   2.683
 1534W        W66519   3.184  20.000   1.266
 1535W        W66520   5.141  33.482  14.708
 1536W        W66521  20.709  10.802  13.899
 1537W        W66522  23.622   5.689   0.461
 1538W        W66523  15.728  10.190   2.202
 1539W        W66524  21.898  42.026   2.177
 1540W        W66525  29.732   2.413   3.586
 1541W        W66526  20.330  32.837   3.493
 1542W        W66527   8.123   9.844   9.866
 1543W        W66528   3.271   2.809   3.918
 1544W        W66529  44.999  37.954   0.338
 1545W        W66530  10.275   7.146  10.655
 1546W        W66531  34.583  42.573   3.230
 1547W        W66532  34.617  26.636  12.287
 1548W        W66533  10.114  32.957  11.097
 1549W        W66534  43.224  25.719   5.335
 1550W        W66535  15.638  26.558  14.000
 1551W        W66536  16.126   4.227  14.416
 1552W        W66537   8.529  10.664  10.589
 1553W        W66538  10.628   4.461   2.663
 1554W        W66539  17.293   4.447   3.589
 1555W        W66540  26.473  13.031   0.312
 1556W        W66541  44.371  30.527  12.970
 1557W        W66542   8.921  20.714  14.515
 1558W        W66543  18.125   3.446   0.220
 1559W        W66544  43.397  21.921   4.944
 1560W        W66545  17.672   2.203   2.851
 1561W        W66546  33.652  38.824   2.247
 1562W        W66547   8.228   0.001   4.662
 1563W        W66548   4.173  19.807   0.375
 1564W        W66549  16.859   8.407  14.934
 1565W        W66550   1.866  35.619   2.769
 1566W        W66551  20.550  14.616  13.340
 1567W        W66552  32.286  11.211  13.508
 1568W        W66553   2.124  29.619  11.570
 1569W        W66554  39.802   7.175  14.517
 1570W        W66555  33.620  18.410   4.608
 1571W        W66556  25.485  10.005  10.755
 1572W        W66557  21.223   9.221   4.082
 1573W        W66558   3.235  15.016  12.463
 1574W        W66559   8.725  21.181   1.838
 1575W        W66560   3.322  14.133  11.150
 1576W        W66561  11.943  19.466   0.465
 1577W        W66562   9.195   8.727  13.287
 1578W        W66563  23.904  30.142   5.509
 1579W        W66564  39.937  22.293   4.150
 1580W        W66565  42.311  27.579   4.070
 1581W        W66566  10.282   3.921  12.307
 1582W        W66567   2.485  41.453  12.653
 1583W        W66568   8.374  31.728   4.657
 1584W        W66569  28.035  29.518   1.175
 1585W        W66570  36.297  31.418  12.915
 1586W        W66571  12.882  14.387  14.374
 1587W        W66572   2.752   5.159   2.168
 1588W        W66573  24.244  42.181  13.340
 1589W        W66574  44.323  41.764   1.695
 1590W        W66575  16.388  15.059  12.813
 1591W        W66576   3.294  30.850  13.954
 1592W        W66577  25.540   9.434   2.775
 1593W        W66578  16.712   7.245  13.953
 1594W        W66579  36.045  25.941  11.993
 1595W        W66580  20.665  40.053   4.579
 1596W        W66581  19.015  37.668  12.442
 1597W        W66582   0.911  33.423  12.930
 1598W        W66583  39.254  24.433   3.386
 1599W        W66584  23.331  33.126  11.374
 1600W        W66585  38.768   1.935   3.670
 1601W        W66586   9.909  13.193  13.053
 1602W        W66587  43.271  35.597  11.824
 1603W        W66588   2.408  23.274  13.014
 1604W        W66589  22.512  24.188   4.653
 1605W        W66590  30.933  42.745   2.711
 1606W        W66591  24.181  34.119   3.189
 1607W        W66592  21.541   6.322  14.808
 1608W        W66593  17.851  30.428  12.885
 1609W        W66594   0.920  36.172  10.378
 1610W        W66595  16.334  11.451   4.619
 1611W        W66596  27.114   3.998  13.774
 1612W        W66597  27.439   3.225  14.972
 1613W        W66598  34.180  23.996  11.575
 1614W        W66599  22.471   8.521   1.776
 1615W        W66600  38.724  15.143   4.441
 1616W        W66601  23.317  27.235   4.123
 1617W        W66602  24.974  33.157  13.463
 1618W        W66603  29.427  27.137  14.408
 1619W        W66604   2.997  44.849  12.999
 1620W        W66605  41.945  22.256  13.227
 1621W        W66606  36.022  23.980  13.799
 1622W        W66607  22.621  11.891  11.529
 1623W        W66608  40.274  41.048   4.480
 1624W        W66609  25.007  40.234  14.341
 1625W        W66610  14.799  31.499  11.139
 1626W        W66611  26.036   9.599  13.119
 1627W        W66612  37.195   9.695   4.874
 1628W        W66613   6.653  19.210  14.110
 1629W        W66614  38.606  32.006   1.463
 1630W        W66615  23.151   7.316  14.308
 1631W        W66616   3.623  12.310  11.592
 1632W        W66617  38.364  10.148   3.251
 1633W        W66618  16.586  35.340  12.236
 1634W        W66619  12.349   1.566   1.613
 1635W        W66620   7.254  11.232   1.050
 1636W        W66621  38.676  33.471   3.695
 1637W        W66622  40.555  11.114  10.635
 1638W        W66623   0.021  22.120   3.692
 1639W        W66624  18.844  30.111  13.499
 1640W        W66625  33.875  44.854  11.904
 1641W        W66626  39.057   1.480   2.885
 1642W        W66627  14.536  35.423  13.931
 1643W        W66628   1.932  31.601  12.093
 1644W        W66629   7.743   4.813   2.877
 1645W        W66630  17.783   3.642  13.347
 1646W        W66631  13.841  12.656   2.342
 1647W        W66632  12.294  19.082  13.871
 1648W        W66633   7.448  24.852  12.112
 1649W        W66634  15.163  20.658  13.808
 1650W        W66635   8.197  11.812  11.558
 1651W        W66636  34.520  43.901   2.145
 1652W        W66637  20.435  14.323   1.334
 1653W        W66638   4.170  36.407  14.206
 1654W        W66639   0.987  13.590   0.366
 1655W        W66640  26.140  23.259  10.882
 1656W        W66641  21.139   1.972   4.492
 1657W        W66642  27.860  13.801  10.223
 1658W        W66643   4.877  31.383   0.855
 1659W        W66644   4.291  28.586  12.085
 1660W        W66645  18.887   7.010  12.974
 1661W        W66646  43.480   0.830  14.693
 1662W        W66647   7.325   3.237  12.706
 1663W        W66648  23.567  13.192   3.056
 1664W        W66649   5.737   9.214   3.274
 1665W        W66650  44.166   5.744  14.851
 1666W        W66651   1.642  26.118   1.261
 1667W        W66652  19.584  28.875   0.792
 1668W        W66653   2.347  14.181   1.908
 1669W        W66654  20.875  40.600   2.796
 1670W        W66655  13.265  12.704   3.612
 1671W        W66656  34.443  28.134  14.094
 1672W        W66657  21.491   6.544   1.224
 1673W        W66658  30.390  26.556  13.034
 1674W        W66659  34.018  11.069   0.975
 1675W        W66660  29.108  11.016   4.167
 1676W        W66661  34.084   4.514   3.381
 1677W        W66662   5.205  30.599  11.271
 1678W        W66663  16.284  17.282   4.651
 1679W        W66664  39.733  22.762  11.510
 1680W        W66665  27.461  39.346  11.641
 1681W        W66666  18.161  21.196   4.568
 1682W        W66667  42.415   1.768   4.682
 1683W        W66668  35.146  44.799  11.590
 1684W        W66669  33.100  28.739   4.229
 1685W        W66670  28.697  39.926  13.992
 1686W        W66671  29.005  31.710   0.559
 1687W        W66672  28.888   6.861   3.302
 1688W        W66673  18.082  43.329   0.041
 1689W        W66674  31.695  21.636   1.959
 1690W        W66675  30.647  21.240  11.438
 1691W        W66676  16.658   5.194  13.610
 1692W        W66677  14.373  15.266  11.548
 1693W        W66678  18.309  14.051  12.586
 1694W        W66679  26.981  21.519   0.259
 1695W        W66680  34.190  41.054   1.463
 1696W        W66681  40.502  32.852   0.347
 1697W        W66682  20.088  20.811   3.967
 1698W        W66683  15.275   6.916  13.550
 1699W        W66684  28.286  22.199   2.854
 1700W        W66685  16.170   5.180  11.507
 1701W        W66686   9.631  40.640   1.271
 1702W        W66687  37.842  13.595  11.467
 1703W        W66688  33.205  16.356  10.499
 1704W        W66689  18.729  42.055  14.707
 1705W        W66690   6.826  22.695  14.465
 1706W        W66691   4.795  16.296  10.675
 1707W        W66692   7.804  18.521  11.197
 1708W        W66693  25.637  22.171  14.712
 1709W        W66694   9.624  37.095  12.688
 1710W        W66695  25.876   1.304   2.685
 1711W        W66696  14.116  18.238  14.290
 1712W        W66697  26.969  26.251   1.021
 1713W        W66698   2.353   5.136  14.864
 1714W        W66699  14.863  14.516  13.488
 1715W        W66700  21.705  35.490   3.135
 1716W        W66701  18.339  34.142   4.764
 1717W        W66702  11.359   8.891   2.952
 1718W        W66703  38.448  14.797  11.506
 1719W        W66704  24.697  11.712   2.359
 1720W        W66705  13.325   9.261   0.335
 1721W        W66706  16.431  21.712   3.766
 1722W        W66707   9.441  29.327  13.625
 1723W        W66708  26.146  37.476  11.522
 1724W        W66709  18.190  38.857  14.208
 1725W        W66710  19.726  21.712   3.922
 1726W        W66711  15.046  42.430  11.576
 1727W        W66712  28.935  23.737   1.931
 1728W        W66713  13.915  33.210   1.282
 1729W        W66714  42.513   1.897  14.138
 1730W        W66715   0.279  36.725   3.201
 1731W        W66716  12.070  22.123  13.406
 1732W        W66717  40.183  44.536  14.717
 1733W        W66718  16.267   9.604  14.041
 1734W        W66719   4.463  14.124   2.140
 1735W        W66720  13.853  37.407  10.037
 1736W        W66721   8.625  40.278  14.316
 1737W        W66722   3.898  33.184   0.086
 1738W        W66723   6.570  26.006   0.881
 1739W        W66724   3.891  38.060  14.882
 1740W        W66725   5.537   3.372  13.871
 1741W        W66726  11.804   4.942   5.019
 1742W        W66727   2.192  27.447   2.688
 1743W        W66728  37.921  15.262  12.466
 1744W        W66729  38.109  40.061   1.018
 1745W        W66730  28.231  44.426   0.493
 1746W        W66731   6.219  22.704   2.669
 1747W        W66732  28.533  41.787  13.547
 1748W        W66733  33.610  34.853   4.054
 1749W        W66734  13.325  21.147  14.457
 1750W        W66735  26.708  19.758  11.710
 1751W        W66736  23.768  27.535  13.012
 1752W        W66737  44.925  26.053   3.615
 1753W        W66738  18.058  32.723  13.298
 1754W        W66739  16.754  41.108   1.264
 1755W        W66740  32.894  20.161   2.835
 1756W        W66741  42.748  43.861   2.806
 1757W        W66742  19.801  28.900  11.516
 1758W        W66743  17.845  21.671  11.204
 1759W        W66744  30.343  39.257  11.620
 1760W        W66745  22.111  15.064  13.879
 1761W        W66746  24.213  28.226   0.031
 1762W        W66747  32.960  33.075   3.790
 1763W        W66748  18.173  43.736   3.842
 1764W        W66749  19.601  29.921  11.574
 1765W        W66750  24.945  29.447   0.966
 1766W        W66751  18.149  40.735   1.461
 1767W        W66752  43.506  16.045  13.777
 1768W        W66753   0.688  13.728   2.775
 1769W        W66754   6.464  39.355  10.691
 1770W        W66755  31.491  26.133  11.053
 1771W        W66756  26.038  13.301  14.970
 1772W        W66757  35.642  40.502   0.576
 1773W        W66758  12.799  16.650  14.996
 1774W        W66759  15.695  44.543  14.509
 1775W        W66760  31.490   1.378  14.903
 1776W        W66761  22.162  20.111  14.815
 1777W        W66762  17.861  24.847  13.019
 1778W        W66763  30.237  23.118   4.641
 1779W        W66764  14.336  16.762   2.436
 1780W        W66765  34.843  22.051  10.698
 1781W        W66766  22.303   6.929  14.572
 1782W        W66767  11.441  14.322  12.058
 1783W        W66768  10.754  25.077  13.012
 1784W        W66769  26.007  22.168   2.378
 1785W        W66770   2.490   4.907  12.524
 1786W        W66771  15.371  13.830   3.091
 1787W        W66772   4.509   1.503   4.917
 1788W        W66773   0.942  12.260  12.420
 1789W        W66774  37.568   4.542   4.200
 1790W        W66775  42.970  23.052  14.505
 1791W        W66776  28.755  21.573   1.703
 1792W        W66777  32.189  24.368  13.939
 1793W        W66778  28.158  37.399   1.788
 1794W        W66779  43.214  11.864   0.841
 1795W        W66780  41.579  40.942   4.069
 1796W        W66781  38.271   5.143   2.261
 1797W        W66782  19.168  28.987   4.893
 1798W        W66783  43.165   9.741  12.910
 1799W        W66784  25.469  44.285   3.189
 1800W        W66785   9.080  41.225  13.196
 1801W        W66786  34.729  36.930  11.109
 1802W        W66787  27.510  36.802  12.521
 1803W        W66788  32.730  35.875  14.249
 1804W        W66789  12.313  10.130  10.647
 1805W        W66790   0.842  30.179  11.243
 1806W        W66791   6.762  44.042  13.864
 1807W        W66792  16.586   6.162   0.842
 1808W        W66793  21.499  12.547  14.055
 1809W        W66794  32.656  18.448   4.450
 1810W        W66795  17.063  23.041   1.439
 1811W        W66796   1.792  23.043  14.406
 1812W        W66797   7.802  12.355  11.969
 1813W        W66798   2.575  31.982  11.617
 1814W        W66799  19.596  30.610   2.384
 1815W        W66800  18.966  32.137   3.692
 1816W        W66801  36.640   1.943  11.006
 1817W        W66802  21.183  16.716  10.707
 1818W        W66803   4.130   0.993  12.813
 1819W        W66804  41.029  11.911  10.487
 1820W        W66805  16.762  30.481  12.131
 1821W        W66806  29.907  20.323  12.157
 1822W        W66807  11.607  41.716   0.870
 1823W        W66808   8.339  15.342   4.265
 1824W        W66809  17.602  15.923   1.838
 1825W        W66810  18.833  33.939   3.443
 1826W        W66811   3.714  15.147  14.038
 1827W        W66812  37.862  11.303   2.816
 1828W        W66813  41.398  16.195   4.085
 1829W        W66814  34.181  30.068  14.232
 1830W        W66815  42.863  12.959  14.890
 1831W        W66816  37.342  25.462  14.957
 1832W        W66817  40.544  38.479  11.097
 1833W        W66818  18.139  35.038  12.649
 1834W        W66819   2.940  35.947   0.270
 1835W        W66820  28.136  11.820   0.682
 1836W        W66821  17.210  18.008  12.399
 1837W        W66822  15.300  22.602   3.195
 1838W        W66823  13.864  21.639  13.403
 1839W        W66824  11.403  23.207   1.712
 1840W        W66825  40.192  38.469   3.318
 1841W        W66826  39.333  24.054  14.686
 1842W        W66827  25.157  10.540  12.325
 1843W        W66828  40.080  24.935   3.351
 1844W        W66829   6.320  16.602   0.238
 1845W        W66830  21.487  11.040  12.900
 1846W        W66831  26.494  19.789   1.236
 1847W        W66832  43.696  11.871  14.791
 1848W        W66833  43.830   3.737   0.654
 1849W        W66834  44.927  18.650  10.742
 1850W        W66835  21.521  11.347  14.742
 1851W        W66836  18.056  10.138  12.055
 1852W        W66837  43.076  36.586   0.389
 1853W        W66838  10.905  19.690   0.473
 1854W        W66839  24.216   1.589   2.389
 1855W        W66840  28.762  44.523  12.979
 1856W        W66841  40.009  29.977   0.238
 1857W        W66842   8.158  44.218   1.063
 1858W        W66843   0.144  41.801   1.229
 1859W        W66844  29.066  44.882   3.243
 1860W        W66845  12.667   8.922  11.158
 1861W        W66846  20.086  12.791   3.813
 1862W        W66847  40.996  12.751  10.749
 1863W        W66848  38.400   8.237   4.855
 1864W        W66849  26.230  21.209  14.302
 1865W        W66850  29.312  22.307   2.802
 1866W        W66851  26.423   3.739  14.186
 1867W        W66852   9.717  34.271   0.375
 1868W        W66853  10.618  22.574  13.953
 1869W        W66854   8.429   6.369  11.797
 1870W        W66855  39.300   4.172  14.138
 1871W        W66856  23.099  27.817  14.197
 1872W        W66857  32.101   9.334   0.393
 1873W        W66858  43.521  16.791   1.149
 1874W        W66859  28.628  25.561   1.105
 1875W        W66860  40.549  29.925  14.439
 1876W        W66861  36.456  33.301  12.427
 1877W        W66862  41.256  38.893   2.141
 1878W        W66863  36.332   5.645  11.691
 1879W        W66864  40.558  41.342  11.141
 1880W        W66865  36.559  17.200  14.771
 1881W        W66866  13.017  34.152   3.740
 1882W        W66867  31.165   8.380  11.931
 1883W        W66868  41.862   8.789   4.803
 1884W        W66869  12.199  31.675   1.819
 1885W        W66870  16.653   5.800  13.830
 1886W        W66871  20.649   2.448   2.844
 1887W        W66872  41.771  30.189  11.618
 1888W        W66873  17.084   5.871   0.743
 1889W        W66874  35.487  44.886  12.582
 1890W        W66875   7.012  26.344   0.000
 1891W        W66876  42.229  23.107  13.445
 1892W        W66877  10.239  38.844   0.039
 1893W        W66878  17.490  13.367  14.447
 1894W        W66879   8.452   6.767  14.361
 1895W        W66880  35.416  16.552   3.179
 1896W        W66881  10.743  11.866   3.306
 1897W        W66882  18.870  27.354  10.089
 1898W        W66883   0.886  36.392   2.733
 1899W        W66884  32.966   6.399  10.188
 1900W        W66885  10.250  12.924  10.777
 1901W        W66886  19.330  34.022   1.739
 1902W        W66887  12.079  37.510  12.761
 1903W        W66888  42.458  23.691  12.194
 1904W        W66889  40.083   2.727  14.858
 1905W        W66890   7.774  43.938  11.226
 1906W        W66891  24.540   2.162   2.624
 1907W        W66892  38.763  44.495   3.680
 1908W        W66893   6.925   9.298  12.238
 1909W        W66894  29.472   9.746   1.392
 1910W        W66895   8.416  21.961   2.891
 1911W        W66896  41.890  42.050   0.949
 1912W        W66897  31.380  43.362   0.293
 1913W        W66898   3.050  13.629  14.560
 1914W        W66899   7.926  10.188   1.454
 1915W        W66900   9.258  31.077  11.114
 1916W        W66901   3.189  23.551   3.117
 1917W        W66902  39.969   6.444   4.828
 1918W        W66903  40.429   4.138   4.236
 1919W        W66904  21.719  21.103   4.461
 1920W        W66905   5.182  19.760  13.309
 1921W        W66906  37.547  38.836  12.816
 1922W        W66907  11.573  18.690   2.697
 1923W        W66908  35.394  29.251  10.785
 1924W        W66909  12.171  35.822   2.318
 1925W        W66910  44.524   7.715   0.328
 1926W        W66911  28.440  39.315  14.851
 1927W        W66912  26.148  24.689   1.935
 1928W        W66913  15.114  38.431   1.421
 1929W        W66914  22.972   7.303  13.807
 1930W        W66915  41.812  27.761   3.176
 1931W        W66916  29.170  30.352  14.346
 1932W        W66917  12.212   4.137  12.392
 1933W        W66918  44.042  31.858   4.247
 1934W        W66919   0.817   5.707   0.957
 1935W        W66920  14.797  20.298   3.330
 1936W        W66921  34.490  18.104  13.895
 1937W        W66922  43.535  14.215  13.013
 1938W        W66923  26.184  30.225   0.596
 1939W        W66924  44.840  11.239  12.552
 1940W        W66925  39.555  32.899  12.470
 1941W        W66926   5.975  27.141   3.770
 1942W        W66927  20.039  25.405  13.115
 1943W        W66928  33.145  43.899  10.692
 1944W        W66929   5.277  24.042  14.269
 1945W        W66930  28.927  37.474  12.838
 1946W        W66931  33.704   1.364   2.408
 1947W        W66932  20.056  42.373   3.207
 1948W        W66933   2.236  14.524  11.096
 1949W        W66934  44.957  11.019   3.554
 1950W        W66935  38.462  37.997  14.686
 1951W        W66936  24.807   8.322  14.467
 1952W        W66937  24.089  32.045  12.235
 1953W        W66938  39.852  35.318   3.033
 1954W        W66939   2.593  13.702   0.569
 1955W        W66940  28.999  32.094  13.722
 1956W        W66941  40.420  13.164   3.125
 1957W        W66942   8.742  22.932  10.621
 1958W        W66943  15.640  33.565  12.688
 1959W        W66944  13.361  26.678  14.493
 1960W        W66945  43.863  13.230  11.925
 1961W        W66946   8.902  19.804   2.178
 1962W        W66947   2.034  24.191  14.177
 1963W        W66948  21.523  31.312  13.426
 1964W        W66949  22.262  21.139  11.162
 1965W        W66950   8.384   0.518  13.822
 1966W        W66951  38.726  36.255   4.876
 1967W        W66952  12.568  25.247  13.011
 1968W        W66953  41.840  39.979  10.700
 1969W        W66954  11.370  13.076   0.336
 1970W        W66955  26.487  23.127  12.911
 1971W        W66956  15.232  26.255  12.473
 1972W        W66957  21.967   0.421  10.823
 1973W        W66958  41.228  27.561   1.433
 1974W        W66959  27.580  41.270  14.768
 1975W        W66960   9.334  27.008   2.400
 1976W        W66961  15.090  34.831   3.317
 1977W        W66962  37.153  41.132  11.668
 1978W        W66963   7.669  42.416   2.435
 1979W        W66964  21.186   0.009   3.267
 1980W        W66965  33.927  11.897   4.722
 1981W        W66966   7.418   0.604   2.717
 1982W        W66967  10.148  36.077  13.565
 1983W        W66968  15.209  39.909   1.833
 1984W        W66969  29.406  36.898  11.397
 1985W        W66970  29.501  33.207  14.097
 1986W        W66971  14.240  30.442   2.883
 1987W        W66972  20.009  25.522   1.000
 1988W        W66973  19.781  18.881   3.700
 1989W        W66974  40.394   6.162   4.989
 1990W        W66975  12.408  14.219  10.692
 1991W        W66976  34.405   3.720   0.871
 1992W        W66977  16.083  30.956  11.619
 1993W        W66978  19.609  14.070  12.101
 1994W        W66979  38.764  32.612   3.655
 1995W        W66980  34.332  19.610   0.217
 1996W        W66981   1.388  19.864   2.501
 1997W        W66982  42.497  43.455   2.175
 1998W        W66983   7.746  18.217   0.727
 1999W        W66984  44.309  12.268  13.519
 2000W        W66985  35.054  35.554   1.948
 2001W        W66986   4.178  18.610   2.786
 2002W        W66987  38.237  17.745   3.078
 2003W        W66988   5.085  19.880   4.767
 2004W        W66989   1.441  32.167   0.407
 2005W        W66990  19.585  43.915   4.626
 2006W        W66991   5.189  25.414  13.040
 2007W        W66992  38.933   3.029  11.560
 2008W        W66993  10.792   7.942   3.946
 2009W        W66994   3.718  43.970  14.953
 2010W        W66995   2.992  42.781   3.997
 2011W        W66996  40.251  33.607  11.726
 2012W        W66997  35.399  26.966  13.820
 2013W        W66998  13.650  40.282  12.431
 2014W        W66999   7.888  18.214   1.841
 2015W        W67000   3.931   0.839   3.420
 2016W        W67001  30.744  38.826   2.418
 2017W        W67002  40.802  37.894  13.903
 2018W        W67003  32.581   0.276   1.686
 2019W        W67004   3.674  25.645   2.293
 2020W        W67005  15.532  31.985   1.786
 2021W        W67006  24.638  36.715   0.001
 2022W        W67007  29.524  34.313  11.927
 2023W        W67008  37.900  14.539  14.832
 2024W        W67009  25.525  11.402   4.183
 2025W        W67010   3.887  13.734  12.048
 2026W        W67011  29.121   3.385   1.183
 2027W        W67012  16.499  34.363   1.663
 2028W        W67013  41.407  14.843   1.491
 2029W        W67014  32.854  14.272  12.866
 2030W        W67015  25.076  11.556  11.553
 2031W        W67016  29.967  23.636   0.557
 2032W        W67017  36.650  25.103   3.668
 2033W        W67018  43.855  19.483   4.335
 2034W        W67019  26.419   7.155  14.531
 2035W        W67020  39.992  44.665   0.168
 2036W        W67021  11.804  10.314   3.609
 2037W        W67022  36.140  28.987  12.155
 2038W        W67023   0.748  33.453  10.084
 2039W        W67024   0.699  43.816   1.807
 2040W        W67025  23.608   3.844   5.516
 2041W        W67026  28.640  44.118   0.565
 2042W        W67027  19.957  33.964  10.534
 2043W        W67028   7.118  43.389  13.327
 2044W        W67029  13.705  13.084  13.974
 2045W        W67030  14.378  17.714  12.189
 2046W        W67031  38.651  21.267  11.966
 2047W        W67032  10.902   7.424  13.438
 2048W        W67033  42.291  16.937  13.282
 2049W        W67034   8.137  39.051  10.854
 2050W        W67035  37.914  10.829   3.065
 2051W        W67036  37.408  27.554  11.647
 2052W        W67037  26.513   6.565   2.232
 2053W        W67038  27.519  15.356  12.403
 2054W        W67039  21.476  16.258   3.063
 2055W        W67040  12.358  29.210  11.043
 2056W        W67041  36.048  26.938   4.875
 2057W        W67042  25.482  11.542   1.826
 2058W        W67043  26.973  18.707   4.038
 2059W        W67044  13.800  17.270   4.512
 2060W        W67045  16.715  35.065  14.212
 2061W        W67046   3.014  43.363   3.130
 2062W        W67047   4.275  21.607   4.674
 2063W        W67048  30.089  11.832   1.366
 2064W        W67049  27.966   6.952  12.022
 2065W        W67050   2.427  14.847   4.146
 2066W        W67051  36.371  35.418  10.596
 2067W        W67052  35.591  16.147  14.384
 2068W        W67053  34.002   4.827  12.433
 2069W        W67054  43.747  13.129  12.409
 2070W        W67055  44.308  37.982  12.059
 2071W        W67056  11.937  15.916   4.751
 2072W        W67057  23.195   6.419   0.952
 2073W        W67058  30.391  30.589   2.816
 2074W        W67059  42.807  23.914   1.818
 2075W        W67060   7.878   7.165   0.025
 2076W        W67061  38.804   0.952   5.028
 2077W        W67062  39.527  38.631   0.218
 2078W        W67063  26.001  34.782  13.138
 2079W        W67064  26.060  33.973   0.668
 2080W        W67065   5.998  39.237   4.178
 2081W        W67066  13.075  34.218  11.219
 2082W        W67067  30.579  33.015  12.017
 2083W        W67068  27.467  15.308  11.497
 2084W        W67069  25.506   0.802  10.744
 2085W        W67070  13.106  40.105  12.646
 2086W        W67071  30.478  31.047   5.153
 2087W        W67072  37.410  20.272   3.262
 2088W        W67073   7.621   4.300   3.280
 2089W        W67074   2.874  26.675  12.831
 2090W        W67075  29.856  16.068  13.015
 2091W        W67076  31.458  20.324   2.740
 2092W        W67077  43.595  18.558  11.266
 2093W        W67078  10.379  28.099   0.749
 2094W        W67079   8.040   5.261   0.705
 2095W        W67080   4.940   2.812   2.203
 2096W        W67081  16.859  38.027   0.033
 2097W        W67082   4.756  26.590  14.808
 2098W        W67083  12.187  31.158  12.583
 2099W        W67084   5.743   2.654  13.052
 2100W        W67085  11.534  44.856  12.116
 2101W        W67086  30.175  31.515  11.685
 2102W        W67087   9.610  15.788  11.478
 2103W        W67088  39.379  10.193   3.477
 2104W        W67089  27.648  20.747  14.976
 2105W        W67090  41.132   0.049  11.139
 2106W        W67091   8.334  28.070   3.147
 2107W        W67092  25.658  43.533  11.416
 2108W        W67093  43.997  43.380  12.723
 2109W        W67094  21.111  30.389   4.215
 2110W        W67095  42.827  18.628   1.026
 2111W        W67096  19.033  10.209  10.524
 2112W        W67097  43.885  43.395   1.053
 2113W        W67098  17.279  25.200   4.187
 2114W        W67099  33.449  28.039  10.535
 2115W        W67100  31.142  26.677  14.546
 2116W        W67101   4.516  10.858  14.277
 2117W        W67102  23.250  42.507   0.285
 2118W        W67103   9.699   3.036   1.354
 2119W        W67104  19.850  10.692   2.561
 2120W        W67105   9.644  27.365  12.180
 2121W        W67106  38.266  21.071   2.392
 2122W        W67107   0.532  30.964  10.691
 2123W        W67108  19.763   9.398   4.578
 2124W        W67109  14.293  10.121   0.086
 2125W        W67110  32.042   3.336   0.158
 2126W        W67111  34.958  22.931   0.054
 2127W        W67112  40.225  24.563  11.346
 2128W        W67113  43.321  19.853   0.308
 2129W        W67114  16.550  40.946   3.748
 2130W        W67115   7.785  39.144   4.594
 2131W        W67116   0.739  11.676   3.242
 2132W        W67117  16.833   7.225  14.472
 2133W        W67118  30.439  19.130   0.894
 2134W        W67119  17.106   1.485   4.520
 2135W        W67120   8.281  32.412   2.845
 2136W        W67121  20.602  10.500  14.367
 2137W        W67122  29.522  41.048   2.971
 2138W        W67123  14.942   1.950   3.818
 2139W        W67124  44.912  25.347   3.111
 2140W        W67125  36.729   9.621  10.256
 2141W        W67126  29.117  24.542   2.578
 2142W        W67127   2.506  36.923  11.594
 2143W        W67128   5.336  36.996  14.195
 2144W        W67129   8.914  22.215  14.565
 2145W        W67130  32.494  20.458  12.613
 2146W        W67131  15.426  14.481  11.935
 2147W        W67132  35.325   2.674   0.345
 2148W        W67133   1.881   1.818   2.253
 2149W        W67134  44.796   9.363   4.590
 2150W        W67135  26.216   5.778  12.795
 2151W        W67136   5.178   8.710   1.134
 2152W        W67137  42.291  15.242   4.181
 2153W        W67138  30.698   7.625  13.581
 2154W        W67139  43.936  17.352  14.891
 2155W        W67140  34.989   1.760  14.694
 2156W        W67141   4.344  30.479  11.362
 2157W        W67142  22.285  22.193  14.898
 2158W        W67143  23.726   1.866  11.084
 2159W        W67144  11.012  36.022   3.660
 2160W        W67145  27.041  20.954   1.671
 2161W        W67146   4.715   3.948   1.874
 2162W        W67147   1.931  21.769   2.758
 2163W        W67148  25.587  27.646  10.650
 2164W        W67149  29.375  22.013   3.216
 2165W        W67150  33.019  40.166   0.516
 2166W        W67151  24.505  39.502   1.777
 2167W        W67152  19.124  39.578  14.312
 2168W        W67153  23.587  16.703  11.522
 2169W        W67154  30.061  12.826  11.691
 2170W        W67155  14.751  15.014   1.370
 2171W        W67156  28.561   1.707   0.876
 2172W        W67157  27.446  12.329   4.126
 2173W        W67158  29.599  27.553   4.604
 2174W        W67159  39.332  20.513   2.911
 2175W        W67160  42.972  25.398   0.511
 2176W        W67161   7.783  16.087   2.558
 2177W        W67162  27.221  22.204  12.521
 2178W        W67163  22.418   0.331  11.090
 2179W        W67164  37.101  25.030   1.979
 2180W        W67165   9.365   2.563   2.720
 2181W        W67166   6.461  10.700   0.897
 2182W        W67167  20.731   2.816   4.211
 2183W        W67168  30.912  13.222   4.082
 2184W        W67169  43.341  10.840   1.864
 2185W        W67170  14.144  35.380   1.303
 2186W        W67171  25.525  23.555  10.622
 2187W        W67172  16.543   0.408  12.964
 2188W        W67173   3.795   5.026  11.217
 2189W        W67174  41.328  16.002  13.602
 2190W        W67175  32.547   8.531  14.983
 2191W        W67176  14.345   1.187   4.750
 2192W        W67177  43.921  17.817   9.866
 2193W        W67178  39.867   7.322  12.172
 2194W        W67179  14.385  36.395  12.891
 2195W        W67180  11.716  20.103   2.819
 2196W        W67181  18.089  26.716   3.999
 2197W        W67182  18.731  14.524   4.283
 2198W        W67183   0.057  32.458  11.507
 2199W        W67184  24.821  32.110   1.383
 2200W        W67185  35.191   9.830  12.111
 2201W        W67186   9.745  39.696  14.948
 2202W        W67187   1.880  31.486   2.102
 2203W        W67188  36.287   7.873  12.933
 2204W        W67189  41.413   0.790   2.239
 2205W        W67190  34.451  11.982   3.156
 2206W        W67191  44.880  23.302  11.021
 2207W        W67192  36.332  10.939   4.089
 2208W        W67193  19.589  17.091   4.939
 2209W        W67194   6.671  26.499   0.776
 2210W        W67195  29.958   6.784   3.717
 2211W        W67196   2.416  21.525  12.072
 2212W        W67197  11.817  33.640  13.995
 2213W        W67198  17.630   5.090   0.351
 2214W        W67199  27.449  17.116  11.257
 2215W        W67200  40.214  42.406   1.776
 2216W        W67201  10.638  11.161   1.480
 2217W        W67202  36.764  31.596   0.223
 2218W        W67203   5.804  34.920   1.195
 2219W        W67204  28.862  31.698  10.760
 2220W        W67205  30.883  20.867  14.444
 2221W        W67206  40.800  19.237   2.420
 2222W        W67207  17.753  18.988   1.809
 2223W        W67208   3.892  20.536  12.945
 2224W        W67209  35.026   6.187   2.228
 2225W        W67210  41.542  38.097   0.508
 2226W        W67211  33.413   3.936   3.887
 2227W        W67212   3.649  40.105   0.602
 2228W        W67213  43.778  36.247  14.304
 2229W        W67214  32.382  27.677  13.814
 2230W        W67215  28.993  32.003  11.912
 2231W        W67216   4.505   2.516  14.903
 2232W        W67217  21.094  36.668  13.325
 2233W        W67218  23.954   5.755  13.902
 2234W        W67219  22.920  14.285  13.298
 2235W        W67220  31.848  32.995   4.733
 2236W        W67221   2.404  20.570   4.614
 2237W        W67222  38.626  27.762  12.604
 2238W        W67223  32.553  44.471  11.564
 2239W        W67224  10.936   2.993  11.972
 2240W        W67225  44.421  16.752   2.685
 2241W        W67226  43.883  39.260  12.514
 2242W        W67227  12.586  34.416  11.205
 2243W        W67228  26.746  41.920   1.906
 2244W        W67229  36.923  43.908  11.705
 2245W        W67230  26.096  22.307  11.194
 2246W        W67231  18.673  28.861   0.131
 2247W        W67232  10.559  20.515   1.346
 2248W        W67233  35.139  13.593  14.893
 2249W        W67234  21.297  17.482  13.792
 2250W        W67235  36.614  24.145   2.851
 2251W        W67236  15.786  41.844  10.770
 2252W        W67237  20.537  17.138  14.223
 2253W        W67238   8.873  37.345  13.837
 2254W        W67239   6.813   8.510  11.982
 2255W        W67240  34.031   5.151  13.617
 2256W        W67241  44.247   1.353  12.379
 2257W        W67242  43.744  21.395  10.010
 2258W        W67243  25.783  28.915  11.180
 2259W        W67244  40.790  26.563   3.203
 2260W        W67245  40.345  32.584  13.797
 2261W        W67246   9.661  28.828   2.392
 2262W        W67247  44.793  37.533  14.313
 2263W        W67248  24.572  28.966   3.704
 2264W        W67249  28.662   0.802   3.689
 2265W        W67250  42.503   0.510  14.807
 2266W        W67251  31.493  15.921   0.762
 2267W        W67252  19.256  18.046   1.393
 2268W        W67253  19.293  31.892  12.474
 2269W        W67254  30.366  37.913  12.401
 2270W        W67255   7.318  38.871  10.890
 2271W        W67256   4.377  36.430   4.681
 2272W        W67257   4.178  23.026  10.658
 2273W        W67258  41.041  16.547   0.970
 2274W        W67259  32.382  14.554  12.257
 2275W        W67260  19.843  27.642   0.395
 2276W        W67261  16.841   0.701   4.852
 2277W        W67262   4.817  11.422  12.629
 2278W        W67263   4.888  35.844  10.655
 2279W        W67264  22.063  32.673   4.246
 2280W        W67265  15.808  35.157   4.563
 2281W        W67266  20.703   3.216  14.408
 2282W        W67267  26.939  20.348  10.866
 2283W        W67268   2.318  15.840  10.670
 2284W        W67269   4.948  26.978  12.926
 2285W        W67270  20.544  11.828   2.674
 2286W        W67271  27.619   7.124   4.879
 2287W        W67272  25.385  32.359  13.304
 2288W        W67273   6.208  22.036   1.250
 2289W        W67274  44.888  15.743   4.149
 2290W        W67275   4.680  23.405  14.521
 2291W        W67276  19.477  38.184   0.858
 2292W        W67277  30.823  11.159   2.199
 2293W        W67278  42.558  25.031  12.002
 2294W        W67279  14.734  33.481  10.624
 2295W        W67280  32.747   9.776   0.726
 2296W        W67281  36.786  32.810  14.550
 2297W        W67282  17.516  30.672   0.017
 2298W        W67283  35.636  36.505  13.300
 2299W        W67284  14.790   3.210   4.616
 2300W        W67285   7.983  39.018  13.328
 2301W        W67286  25.026  22.822   4.065
 2302W        W67287  44.607  19.068  14.336
 2303W        W67288  41.080  44.945  13.448
 2304W        W67289  23.969  16.141   4.541
 2305W        W67290  28.886  11.196  13.506
 2306W        W67291   1.864   7.564   0.285
 2307W        W67292  31.169  17.220  14.500
 2308W        W67293  42.109   4.374  12.595
 2309W        W67294  19.632   1.266   0.916
 2310W        W67295  38.952   0.913  12.772
 2311W        W67296  38.980  20.790   0.714
 2312W        W67297  33.999   9.605   4.013
 2313W        W67298   5.248  44.302  10.092
 2314W        W67299  14.320   0.756  13.908
 2315W        W67300  36.711  15.585  10.182
 2316W        W67301   0.791  30.001   0.479
 2317W        W67302  39.228  26.377   1.279
 2318W        W67303  36.673   8.221   5.010
 2319W        W67304  32.443  21.261  10.258
 2320W        W67305  25.817  44.426  11.685
 2321W        W67306  37.468  19.915  13.624
 2322W        W67307  22.673  33.638  14.715
 2323W        W67308   4.233  24.181  11.630
 2324W        W67309  37.945  30.151  10.465
 2325W        W67310  12.608   7.221  10.069
 2326W        W67311  33.453  44.817  10.254
 2327W        W67312   5.853  36.598   2.619
 2328W        W67313  27.748  24.198   4.128
 2329W        W67314  44.793  17.556  11.559
 2330W        W67315  38.033  27.583  14.133
 2331W        W67316   9.781  41.213   0.682
 2332W        W67317  41.306  13.340  14.437
 2333W        W67318  25.103  29.693   2.296
 2334W        W67319  22.576  43.084   0.427
 2335W        W67320   3.482   2.713  14.294
 2336W        W67321  10.887  16.306  11.687
 2337W        W67322  22.396  18.147   1.783
 2338W        W67323   0.698  18.094   5.041
 2339W        W67324  17.231   1.873   3.722
 2340W        W67325  30.508  19.496  14.484
 2341W        W67326  33.912  14.803  13.400
 2342W        W67327   3.524  23.154   4.509
 2343W        W67328  13.230  34.655   3.941
 2344W        W67329  31.872  29.189  12.457
 2345W        W67330  32.313   9.971  10.598
 2346W        W67331  37.078  37.256  12.080
 2347W        W67332   0.610  15.933   5.355
 2348W        W67333  18.105  35.374   2.297
 2349W        W67334  31.166  33.132  13.859
 2350W        W67335   2.802  17.094  11.935
 2351W        W67336   8.739   4.300  11.650
 2352W        W67337  37.524  16.263   2.679
 2353W        W67338   0.806  21.292   2.342
 2354W        W67339  20.332  19.774   2.689
 2355W        W67340  14.293  24.092   3.198
 2356W        W67341  35.180  35.681  13.446
 2357W        W67342  18.459  41.427  12.860
 2358W        W67343   4.152  15.975  13.558
 2359W        W67344  11.358  18.503   2.227
 2360W        W67345  43.407  27.105  13.911
 2361W        W67346  36.606  38.187   1.533
 2362W        W67347  12.357  38.303  11.626
 2363W        W67348  11.740   1.292   0.737
 2364W        W67349  44.990  27.546  14.671
 2365W        W67350  37.806  21.205   4.157
 2366W        W67351   9.094  24.159   3.892
 2367W        W67352  11.242  17.785  13.607
 2368W        W67353  20.626  40.868  14.397
 2369W        W67354   4.009  29.573  13.567
 2370W        W67355   1.695  14.277   4.928
 2371W        W67356  30.164  41.982  14.512
 2372W        W67357  24.104  41.079   0.158
 2373W        W67358  42.339  42.300   0.676
 2374W        W67359  23.081  14.721   3.402
 2375W        W67360  31.180  19.539   1.571
 2376W        W67361  33.154  12.701  11.414
 2377W        W67362  33.019  23.094   1.879
 2378W        W67363  39.503   6.380   1.672
 2379W        W67364  13.564  28.894  11.700
 2380W        W67365  37.922  40.001  10.252
 2381W        W67366  17.125   2.621   0.246
 2382W        W67367  20.608  25.313   3.322
 2383W        W67368  43.933   6.836   4.556
 2384W        W67369  36.777   2.719   0.361
 2385W        W67370  26.639  22.006  14.046
 2386W        W67371  40.489  34.191   3.993
 2387W        W67372  20.248  36.956  14.216
 2388W        W67373  13.053  34.163  14.949
 2389W        W67374  14.352  40.897   1.291
 2390W        W67375  25.503  10.901   4.356
 2391W        W67376  38.495   4.234  13.715
 2392W        W67377  22.147  44.022  12.102
 2393W        W67378  29.602  33.017   2.637
 2394W        W67379   5.817  29.917  11.469
 2395W        W67380  39.466  24.989   0.522
 2396W        W67381   3.784  29.688  14.522
 2397W        W67382  17.172  38.026  10.979
 2398W        W67383  25.074   9.614   2.811
 2399W        W67384  44.755  32.396  14.536
 2400W        W67385   8.815  17.180  10.887
 2401W        W67386   2.436  20.635  10.667
 2402W        W67387  29.496  14.868  13.886
 2403W        W67388  33.846  39.382  11.219
 2404W        W67389  36.255   4.446  12.595
 2405W        W67390   5.305  36.939   0.665
 2406W        W67391  34.637  19.517   3.272
 2407W        W67392  10.647  21.496  14.060
 2408W        W67393  25.297  15.819   1.749
 2409W        W67394  25.545  16.434   1.827
 2410W        W67395   6.685   6.385   1.359
 2411W        W67396   0.217  24.265   0.849
 2412W        W67397  26.929   1.323   0.032
 2413W        W67398   3.022  37.137  13.864
 2414W        W67399  10.415   5.164  11.025
 2415W        W67400  31.038  20.706   1.719
 2416W        W67401   4.366   6.788  10.678
 2417W        W67402   4.769   5.363   1.184
 2418W        W67403  43.301  22.368   2.277
 2419W        W67404  37.595  39.130  12.346
 2420W        W67405   7.649  13.297  10.774
 2421W        W67406   9.907  13.303   0.424
 2422W        W67407   8.533   8.932   5.149
 2423W        W67408  22.039   0.721  13.820
 2424W        W67409   8.236  29.359   0.482
 2425W        W67410  26.580   6.648  14.518
 2426W        W67411  40.404  39.361   2.889
 2427W        W67412  24.593  44.282  13.940
 2428W        W67413  27.207  25.951   4.562
 2429W        W67414  23.526  35.910  14.570
 2430W        W67415   6.810  29.064  14.846
 2431W        W67416  30.452  38.659   1.273
 2432W        W67417   5.842  32.312   3.648
 2433W        W67418  39.642  13.722   4.598
 2434W        W67419  19.902   5.715   9.667
 2435W        W67420  41.840  44.822   4.964
 2436W        W67421   9.350  29.093   5.115
 2437W        W67422  10.601  32.432   0.833
 2438W        W67423  31.867  17.669  14.347
 2439W        W67424  21.127  23.802  12.948
 2440W        W67425  40.983  27.029  14.395
 2441W        W67426  31.583   9.274  11.411
 2442W        W67427  26.193  17.584  14.350
 2443W        W67428  18.011  10.153   0.529
 2444W        W67429  43.957  29.512   4.155
 2445W        W67430  38.163  43.472  14.532
 2446W        W67431  28.501  23.503  12.532
 2447W        W67432  44.734  24.656  13.733
 2448W        W67433  35.652   7.824   1.227
 2449W        W67434  40.827  10.837   4.295
 2450W        W67435  30.836  17.090  11.113
 2451W        W67436   9.266  28.023   1.459
 2452W        W67437  25.428  33.499   2.628
 2453W        W67438  12.673  13.777   0.999
 2454W        W67439  33.233  42.042  11.942
 2455W        W67440  42.771   3.957   2.341
 2456W        W67441  13.827   9.180   0.409
 2457W        W67442  13.383  24.098  12.167
 2458W        W67443  36.913   2.943  11.437
 2459W        W67444  28.090  12.589  13.218
 2460W        W67445  33.364  41.577   1.417
 2461W        W67446  29.585  10.792  12.059
 2462W        W67447  43.772  14.774   0.523
 2463W        W67448  18.855  28.351  10.389
 2464W        W67449   3.791  16.008   1.203
 2465W        W67450  43.820  15.713  11.092
 2466W        W67451   6.352  18.020   3.364
 2467W        W67452  23.215  19.042   0.972
 2468W        W67453  42.295  14.229   9.786
 2469W        W67454   7.277  38.865   1.216
 2470W        W67455   3.419   7.215   1.181
 2471W        W67456  10.461  43.890  11.607
 2472W        W67457   9.132  31.082  13.847
 2473W        W67458  25.354   3.337  11.170
 2474W        W67459   2.228  13.147   3.672
 2475W        W67460  27.039  30.384  14.778
 2476W        W67461  36.451  42.501  12.372
 2477W        W67462  32.934  13.923  10.658
 2478W        W67463   2.594  29.124   4.999
 2479W        W67464  27.981   5.442  13.135
 2480W        W67465  17.715  13.414   2.317
 2481W        W67466   3.929  38.449   1.861
 2482W        W67467  37.372  11.829   0.626
 2483W        W67468  44.384  16.765   2.161
 2484W        W67469  39.748  33.347  11.668
 2485W        W67470  38.975  25.028   0.722
 2486W        W67471   8.662  39.209   9.970
 2487W        W67472  19.401  29.506  12.799
 2488W        W67473  33.922  34.942   0.208
 2489W        W67474  38.102  43.907   3.354
 2490W        W67475  36.775   7.660   0.296
 2491W        W67476  34.453  29.408  12.973
 2492W        W67477  28.726  43.189  13.529
 2493W        W67478  20.372  33.996   0.198
 2494W        W67479  19.479  29.168   9.899
 2495W        W67480  35.441  36.867   2.756
 2496W        W67481  38.679   3.136  11.147
 2497W        W67482  31.613  23.942  12.024
 2498W        W67483  21.181  19.786  13.035
 2499W        W67484  14.761  31.310  13.627
 2500W        W67485  31.671  41.042  14.563
 2501W        W67486  36.241   8.814  12.604
 2502W        W67487  19.399  41.823  11.175
 2503W        W67488   9.472  30.446  11.241
 2504W        W67489   0.009  38.311  13.491
 2505W        W67490  29.047  38.590   2.788
 2506W        W67491  37.146  28.267   4.184
 2507W        W67492  22.456  42.886  11.465
 2508W        W67493  12.788  42.298   1.831
 2509W        W67494  35.774  20.144   3.761
 2510W        W67495  30.109  37.675   1.406
 2511W        W67496  16.346  33.825  13.125
 2512W        W67497  16.038  32.760   4.240
 2513W        W67498  21.533  22.081   2.346
 2514W        W67499  19.744   6.970  10.284
 2515W        W67500  35.946  34.845   3.610
 2516W        W67501  39.029  42.096   2.218
 2517W        W67502  18.625  30.741   2.294
 2518W        W67503  11.728  28.408  12.167
 2519W        W67504  35.080   2.203   1.807
 2520W        W67505  21.489   2.492  11.905
 2521W        W67506  18.562  34.299  14.944
 2522W        W67507  41.488  14.146   0.960
 2523W        W67508  41.371   7.735   4.532
 2524W        W67509  18.152  19.887  13.270
 2525W        W67510  19.147  17.557   5.407
 2526W        W67511  34.004  24.799   0.834
 2527W        W67512  30.650   3.039  11.468
 2528W        W67513  11.117  38.939   4.919
 2529W        W67514  37.617   9.388  14.421
 2530W        W67515  28.585  44.229  12.590
 2531W        W67516  31.143  28.153   0.689
 2532W        W67517  34.702  19.571   4.141
 2533W        W67518  14.619  44.774   2.554
 2534W        W67519  33.369  11.608   1.812
 2535W        W67520  21.894  29.671   3.768
 2536W        W67521  44.951  39.490  13.983
 2537W        W67522  41.090  38.504   3.592
 2538W        W67523  11.123  11.260   3.575
 2539W        W67524  32.053  28.199   2.339
 2540W        W67525  31.445  42.293   4.408
 2541W        W67526  20.461  36.650   1.695
 2542W        W67527  21.821  20.076   0.803
 2543W        W67528  44.828  27.695   3.623
 2544W        W67529  17.828  16.374  10.579
 2545W        W67530  27.586  22.312  13.289
 2546W        W67531  13.964  26.235   4.059
 2547W        W67532  19.436  12.787   2.233
 2548W        W67533   8.700  17.569   3.182
 2549W        W67534  14.637  16.538  12.946
 2550W        W67535   9.581  37.524  10.681
 2551W        W67536   7.344  15.065   1.928
 2552W        W67537  11.230  29.950   3.563
 2553W        W67538   8.367   1.289  14.631
 2554W        W67539  20.922   8.001  11.741
 2555W        W67540  27.571  44.996   1.848
 2556W        W67541   9.421  32.310   2.062
 2557W        W67542  36.714   0.249  10.600
 2558W        W67543  11.726  44.428  11.589
 2559W        W67544  27.578   7.753  11.708
 2560W        W67545  38.344  17.258   2.967
 2561W        W67546  14.398  24.707   1.901
 2562W        W67547   5.184   9.681   1.697
 2563W        W67548   3.732  33.645   0.270
 2564W        W67549  20.563  27.853   4.492
 2565W        W67550   3.341   3.753   3.590
 2566W        W67551  23.053  13.822   0.420
 2567W        W67552  21.416   2.352  14.860
 2568W        W67553   7.233  12.841   1.414
 2569W        W67554  15.625   7.466  10.795
 2570W        W67555  21.775   0.189  14.385
 2571W        W67556  16.173  25.670   2.343
 2572W        W67557  28.762  38.432  14.439
 2573W        W67558  32.394  40.325  10.759
 2574W        W67559   1.191  30.151  13.001
 2575W        W67560   3.791   0.819  13.394
 2576W        W67561  34.795   6.453  11.656
 2577W        W67562  39.695  34.482  10.380
 2578W        W67563  34.959  38.362   0.403
 2579W        W67564  43.054  19.764   3.762
 2580W        W67565   2.724  20.163  10.918
 2581W        W67566  12.156  16.655   3.634
 2582W        W67567  26.348  40.578  11.584
 2583W        W67568   2.160  28.586  11.758
 2584W        W67569  34.539  32.171   4.118
 2585W        W67570  41.044   9.331   1.319
 2586W        W67571  29.722  16.409   4.178
 2587W        W67572  26.957  40.211   5.052
 2588W        W67573  43.958   0.919   1.974
 2589W        W67574   0.488  41.985  11.958
 2590W        W67575  12.297  30.567  14.568
 2591W        W67576  30.605  20.605   4.423
 2592W        W67577  44.430  22.300  14.344
 2593W        W67578  43.247  22.116   0.799
 2594W        W67579  27.936  26.303  10.807
 2595W        W67580  20.203  22.067  11.486
 2596W        W67581   6.922   5.714   2.250
 2597W        W67582  30.531   7.814  13.102
 2598W        W67583  17.116  30.284  10.012
 2599W        W67584   9.699  37.210  13.613
 2600W        W67585  15.159  10.717  14.909
 2601W        W67586   5.045  30.393  13.189
 2602W        W67587  10.393  12.834   2.196
 2603W        W67588  39.852   9.747   1.808
 2604W        W67589   9.729  22.662   3.608
 2605W        W67590  15.021  42.726  12.385
 2606W        W67591  18.536  20.188   3.389
 2607W        W67592  32.235  25.272  12.449
 2608W        W67593  30.052   3.390   1.232
 2609W        W67594  16.275  44.006  10.766
 2610W        W67595  34.550  19.797  12.269
 2611W        W67596  32.693   0.424  13.783
 2612W        W67597  39.004  22.821  11.397
 2613W        W67598  26.010  23.960   3.548
 2614W        W67599  20.664  33.036  12.113
 2615W        W67600  12.286  12.591   3.688
 2616W        W67601   3.438  44.822  14.780
 2617W        W67602  36.015  31.930  12.990
 2618W        W67603  16.207   6.944  13.509
 2619W        W67604  30.319  17.150  11.173
 2620W        W67605   8.679  39.720   4.184
 2621W        W67606  32.565  29.467  10.836
 2622W        W67607  40.582  43.918  13.193
 2623W        W67608  34.896  44.305  12.551
 2624W        W67609   8.637   0.101   2.242
 2625W        W67610  44.295  34.742  12.483
 2626W        W67611  13.415  12.438   4.747
 2627W        W67612  27.063   5.025  13.976
 2628W        W67613   5.178  33.132  13.137
 2629W        W67614  31.492  38.298   3.237
 2630W        W67615   6.619  29.558  11.849
 2631W        W67616  26.701  17.141   5.100
 2632W        W67617  12.161  27.729   0.288
 2633W        W67618  33.356  27.478   3.264
 2634W        W67619  39.778  29.925   1.186
 2635W        W67620  18.388   1.340  11.485
 2636W        W67621  34.923   2.971  11.134
 2637W        W67622  33.162  31.126  13.396
 2638W        W67623   6.793  41.433   2.844
 2639W        W67624  33.357  27.995   4.505
 2640W        W67625  39.232  34.559   4.482
 2641W        W67626  11.365  44.847   3.628
 2642W        W67627   8.741  18.085   0.522
 2643W        W67628  20.168  30.923   2.602
 2644W        W67629   7.883  35.919   1.243
 2645W        W67630  14.552  18.473   2.801
 2646W        W67631  43.046  42.270   4.108
 2647W        W67632  27.387  32.538   1.707
 2648W        W67633   6.383   5.669  13.472
 2649W        W67634  42.003  36.250  10.554
 2650W        W67635   7.750   1.990   0.449
 2651W        W67636   4.394  15.140   4.203
 2652W        W67637  15.002   7.699  12.598
 2653W        W67638   9.778  43.442  10.753
 2654W        W67639  13.075  42.488  12.987
 2655W        W67640   8.192  26.443  10.367
 2656W        W67641  26.528  27.676  12.048
 2657W        W67642  22.600  14.137   0.422
 2658W        W67643  34.934   4.975  10.586
 2659W        W67644  12.136  28.533  13.929
 2660W        W67645  20.717  20.422   1.354
 2661W        W67646  31.730  22.540   0.022
 2662W        W67647  27.656  11.510   0.032
 2663W        W67648  43.409   2.537  14.933
 2664W        W67649  36.938  27.982   4.588
 2665W        W67650   1.865  25.289   4.614
 2666W        W67651  22.033  17.258   2.421
 2667W        W67652  34.863  20.068   3.427
 2668W        W67653   7.594  12.090   0.014
 2669W        W67654   1.379  11.563   0.345
 2670W        W67655   3.379  24.408   3.633
 2671W        W67656  22.721  44.753   2.052
 2672W        W67657  21.519   6.140   3.219
 2673W        W67658  39.762  18.151  12.886
 2674W        W67659  12.036  22.559   2.119
 2675W        W67660  40.352  35.382   0.390
 2676W        W67661  42.910  27.942   2.203
 2677W        W67662   8.353  19.658   1.298
 2678W        W67663   9.469  33.601   2.307
 2679W        W67664  15.053  16.734   0.768
 2680W        W67665  27.227  32.057   2.656
 2681W        W67666  33.935  20.139   3.289
 2682W        W67667   9.293  29.891   2.392
 2683W        W67668   5.245  19.244  13.223
 2684W        W67669  39.928  29.972  14.733
 2685W        W67670   2.370  30.358  14.782
 2686W        W67671   3.284  38.514  11.649
 2687W        W67672  42.965  38.420  13.016
 2688W        W67673  39.073  14.615  13.590
 2689W        W67674  18.172  39.924   1.668
 2690W        W67675  37.758  22.560  12.884
 2691W        W67676  28.690  29.377   4.661
 2692W        W67677  42.300  42.390  13.519
 2693W        W67678   6.723  24.144   1.718
 2694W        W67679   2.547  28.439   1.282
 2695W        W67680   4.886  12.524  14.005
 2696W        W67681  15.236  19.235   3.018
 2697W        W67682  38.997   4.078   1.710
 2698W        W67683  10.423  37.408   1.772
 2699W        W67684   7.454  33.812   2.156
 2700W        W67685  38.500  15.568   4.164
 2701W        W67686  16.250  11.776  13.850
 2702W        W67687   6.970  40.468   0.770
 2703W        W67688  44.963  22.112  12.630
 2704W        W67689   7.735   5.584  12.386
 2705W        W67690  21.695  42.578  14.477
 2706W        W67691  25.234   3.415   0.259
 2707W        W67692  35.760  33.499   2.873
 2708W        W67693  19.755  10.102   0.303
 2709W        W67694  28.660  26.940  13.925
 2710W        W67695  17.309  20.652  12.619
 2711W        W67696  15.056   3.779   0.304
 2712W        W67697  16.772  21.654  13.426
 2713W        W67698  22.956  17.880   0.393
 2714W        W67699  23.068  14.347   0.470
 2715W        W67700  44.981  38.430   3.484
 2716W        W67701   4.281  30.623   0.947
 2717W        W67702  41.675  29.282  11.135
 2718W        W67703  34.504  43.362   0.667
 2719W        W67704  28.463  19.782   4.082
 2720W        W67705  27.087  22.578   3.581
 2721W        W67706  18.768  14.243  12.450
 2722W        W67707  16.798  40.438  13.783
 2723W        W67708  23.087   6.194  13.035
 2724W        W67709  37.007  19.298  10.685
 2725W        W67710  10.219   6.228   2.784
 2726W        W67711  34.372  20.719   5.054
 2727W        W67712  18.531  37.794  11.611
 2728W        W67713  29.567   0.440  11.060
 2729W        W67714   9.169  22.663   0.297
 2730W        W67715  17.056  41.946  13.477
 2731W        W67716  42.276  44.036   2.907
 2732W        W67717  22.083   7.757  14.040
 2733W        W67718  42.637  41.737   0.584
 2734W        W67719  14.816  44.188   4.267
 2735W        W67720   1.672  18.209   3.709
 2736W        W67721  13.615  19.696  13.918
 2737W        W67722  35.028   9.068   3.285
 2738W        W67723  19.148  23.666   1.267
 2739W        W67724   3.039  44.209   1.456
 2740W        W67725  42.415   2.757   1.691
 2741W        W67726  34.387  44.815   1.859
 2742W        W67727  44.444  43.342   4.681
 2743W        W67728  18.323  36.349  12.980
 2744W        W67729  13.279   0.378  12.654
 2745W        W67730  40.568  12.246  13.866
 2746W        W67731  16.152  26.801  13.390
 2747W        W67732  28.795  36.680  14.363
 2748W        W67733  43.906  33.597  11.241
 2749W        W67734  16.395   7.023  11.678
 2750W        W67735  43.339  35.486   1.640
 2751W        W67736  44.977   8.129   2.837
 2752W        W67737  32.994  40.593   0.211
 2753W        W67738  23.999  32.534  11.193
 2754W        W67739  13.971   5.344   9.834
 2755W        W67740  19.637  30.037  10.107
 2756W        W67741  12.914   1.075  14.336
 2757W        W67742   0.844  37.894  13.874
 2758W        W67743  28.884  26.460  13.897
 2759W        W67744   5.969  23.208  11.074
 2760W        W67745  40.715  33.980   3.191
 2761W        W67746  31.749  44.291   2.492
 2762W        W67747  34.415  30.916   1.901
 2763W        W67748  13.315  16.307   3.283
 2764W        W67749  11.093  35.971  14.615
 2765W        W67750  26.794  41.346  10.483
 2766W        W67751  34.583  28.884   2.715
 2767W        W67752  11.990  10.044   4.608
 2768W        W67753  22.360  18.850  12.512
 2769W        W67754   0.863  34.836  13.873
 2770W        W67755  42.980  13.380  10.694
 2771W        W67756  17.159  42.332  11.705
 2772W        W67757  44.855  39.201   4.512
 2773W        W67758  18.330  31.186  12.607
 2774W        W67759  24.193   7.398  12.403
 2775W        W67760  35.562   1.508   2.213
 2776W        W67761  36.573   7.191   2.308
 2777W        W67762  17.244  21.733   4.205
 2778W        W67763   8.158  36.367   1.429
 2779W        W67764  40.325   8.781  12.885
 2780W        W67765  33.381  39.317   3.835
 2781W        W67766  25.538   0.828   2.804
 2782W        W67767  13.545  28.512  12.036
 2783W        W67768  27.118  22.054   0.239
 2784W        W67769  30.507  35.970   4.117
 2785W        W67770  27.382  12.229  11.145
 2786W        W67771  30.379  35.440  13.795
 2787W        W67772  21.440  27.577  11.159
 2788W        W67773  21.013   3.805   3.567
 2789W        W67774   0.441  18.762  11.527
 2790W        W67775   0.371  10.719   3.590
 2791W        W67776  16.256  11.364   3.295
 2792W        W67777   3.941   1.446   3.607
 2793W        W67778  40.942  36.112  13.172
 2794W        W67779  31.609  27.628  12.171
 2795W        W67780  26.982  34.178  13.837
 2796W        W67781  43.816  28.082   0.869
 2797W        W67782  11.654  38.618  11.723
 2798W        W67783  43.735  30.571   1.286
 2799W        W67784  31.617  39.114   3.037
 2800W        W67785  28.618  15.748  11.562
 2801W        W67786  27.903  41.317   1.546
 2802W        W67787  25.456  15.267  14.925
 2803W        W67788  40.265  35.582   1.774
 2804W        W67789   2.307   4.030  13.957
 2805W        W67790  24.118  23.700  13.135
 2806W        W67791  11.758  27.495  13.024
 2807W        W67792  15.718  38.579  11.132
 2808W        W67793  43.383  14.139  13.989
 2809W        W67794   5.733  40.193   4.086
 2810W        W67795  20.941  40.024  11.290
 2811W        W67796  14.304  14.175  13.084
 2812W        W67797  37.957  10.670  14.840
 2813W        W67798  29.116  33.833   4.428
 2814W        W67799  15.237  19.082  12.413
 2815W        W67800  17.162   4.397   0.555
 2816W        W67801  43.378   4.864  14.994
 2817W        W67802  16.605  20.479   3.905
 2818W        W67803   6.670  43.198  10.757
 2819W        W67804   2.694  43.075  12.033
 2820W        W67805  16.854  17.960  11.162
 2821W        W67806  14.701  24.017  14.438
 2822W        W67807  14.340  31.478   2.333
 2823W        W67808   5.944  24.558  11.605
 2824W        W67809   6.115   7.677   1.341
 2825W        W67810  19.708  42.858   2.104
 2826W        W67811  10.807  12.344  13.405
 2827W        W67812  43.837  26.225  10.209
 2828W        W67813  16.088  32.465  12.491
 2829W        W67814  32.576  37.800   2.260
 2830W        W67815   6.848  27.681  13.604
 2831W        W67816  29.391  36.422  13.557
 2832W        W67817  16.480  15.587   0.866
 2833W        W67818   6.493  36.078  14.601
 2834W        W67819  15.090  33.494  13.570
 2835W        W67820  42.465  19.213  12.466
 2836W        W67821   3.793  10.606  11.741
 2837W        W67822  12.569   5.554  13.518
 2838W        W67823  36.732  44.625  14.792
 2839W        W67824  12.154  22.324   0.915
 2840W        W67825  37.956  22.947  11.879
 2841W        W67826  40.992  12.157  12.919
 2842W        W67827  42.366  42.824  10.683
 2843W        W67828  44.919  17.642  10.681
 2844W        W67829  26.929  24.238  11.586
 2845W        W67830   6.284  39.890  11.105
 2846W        W67831  14.665   4.650   3.264
 2847W        W67832  35.519   8.881   3.194
 2848W        W67833   5.354  21.727   4.603
 2849W        W67834  28.381   0.282  11.002
 2850W        W67835  35.740  32.895   4.223
 2851W        W67836   3.012  29.467   1.660
 2852W        W67837   9.572  38.774   2.338
 2853W        W67838  34.893  16.526   0.340
 2854W        W67839  29.214   5.457   3.265
 2855W        W67840  13.712  16.472   1.823
 2856W        W67841  21.199  36.560   3.823
 2857W        W67842   5.814   6.652  14.024
 2858W        W67843  35.150  36.626   4.656
 2859W        W67844  36.138  10.932   1.979
 2860W        W67845  15.695   6.625  13.685
 2861W        W67846  26.918   7.713  10.691
 2862W        W67847  12.127  23.015   0.265
 2863W        W67848  25.014  43.991  12.232
 2864W        W67849  25.736  24.110   0.858
 2865W        W67850   6.841  43.580   0.357
 2866W        W67851  17.201   8.229   4.133
 2867W        W67852   8.105   7.552   0.913
 2868W        W67853   7.943  15.647   2.926
 2869W        W67854   8.432  39.273  14.998
 2870W        W67855  19.070  29.055  11.999
 2871W        W67856   9.322  38.928   1.882
 2872W        W67857   4.351  25.397  12.294
 2873W        W67858  18.240   5.173  12.947
 2874W        W67859   1.276  34.564  13.495
 2875W        W67860   8.789  32.155  14.958
 2876W        W67861  28.979   2.384   0.722
 2877W        W67862   9.481  14.380  11.602
 2878W        W67863  15.930   4.032  12.511
 2879W        W67864  30.708   8.158   3.678
 2880W        W67865   4.740  12.054  11.207
 2881W        W67866   1.818  21.571  14.720
 2882W        W67867  43.368  24.503  13.761
 2883W        W67868  42.054  21.323   1.482
 2884W        W67869  37.897  41.901  14.870
 2885W        W67870   9.810   6.689   4.198
 2886W        W67871  27.041  15.587  12.388
 2887W        W67872  32.385  44.175  13.311
 2888W        W67873  17.878   3.691   2.196
 2889W        W67874  39.376  19.795   4.278
 2890W        W67875  24.778  24.484  12.078
 2891W        W67876  36.300  32.754  12.498
 2892W        W67877  25.607  12.768   5.117
 2893W        W67878  25.155  19.867  12.174
 2894W        W67879  28.225   4.379  11.907
 2895W        W67880  10.674  11.843  13.396
 2896W        W67881  14.201  17.256   1.735
 2897W        W67882  33.811  15.802   3.657
 2898W        W67883   6.240  28.234  12.494
 2899W        W67884  16.593  44.526  11.950
 2900W        W67885  31.215   5.517  12.508
 2901W        W67886  10.271  13.930  10.375
 2902W        W67887   0.955  14.518   2.076
 2903W        W67888   3.446  44.838  13.857
 2904W        W67889  20.018   5.830   2.727
 2905W        W67890   9.212  29.600  12.623
 2906W        W67891  22.425  31.872  14.345
 2907W        W67892  31.580   3.249   4.651
 2908W        W67893   8.155  28.570  11.571
 2909W        W67894  33.147   8.239  13.462
 2910W        W67895  19.477  41.087   0.091
 2911W        W67896   6.245   9.290  13.021
 2912W        W67897  26.844  43.877   2.163
 2913W        W67898  42.023   4.711  12.990
 2914W        W67899   4.248  27.929  11.645
 2915W        W67900  42.044  25.245   3.076
 2916W        W67901   9.657  13.646   0.790
 2917W        W67902   7.187  16.555  10.553
 2918W        W67903  10.242  21.819   3.187
 2919W        W67904  40.329  11.823  13.533
 2920W        W67905   2.467  27.070   2.930
 2921W        W67906  22.163  22.923  13.000
 2922W        W67907  41.500  24.359  11.279
 2923W        W67908  10.743  38.513  13.407
 2924W        W67909  30.603   3.688   3.209
 2925W        W67910  41.915  41.849   2.657
 2926W        W67911  43.211  42.454  10.770
 2927W        W67912   5.690  22.240  11.093
 2928W        W67913  35.625   4.226   2.803
 2929W        W67914  24.950  21.669  13.015
 2930W        W67915  14.300  44.722   3.626
 2931W        W67916  11.862  28.678   2.712
 2932W        W67917  34.975   6.693   2.192
 2933W        W67918  44.010   3.217   3.859
 2934W        W67919  24.888  30.359   0.777
 2935W        W67920  42.967   7.403   0.985
 2936W        W67921  22.105  36.073   0.276
 2937W        W67922   5.300   4.811  12.041
 2938W        W67923   7.039  32.934   1.439
 2939W        W67924   6.390  38.684   5.044
 2940W        W67925   5.495   2.512   2.247
 2941W        W67926  28.281  26.339   3.306
 2942W        W67927  22.770  23.381   4.287
 2943W        W67928  20.296  17.845  13.854
 2944W        W67929  27.472  44.168   2.909
 2945W        W67930  40.347   7.879  13.135
 2946W        W67931   4.890  23.176   3.577
 2947W        W67932   1.350  29.339   1.459
 2948W        W67933   2.376   0.783   1.958
 2949W        W67934   2.007   7.779   0.793
 2950W        W67935  40.057  13.737   3.203
 2951W        W67936  20.135  29.662   4.404
 2952W        W67937  37.586  29.148   4.279
 2953W        W67938  35.099  39.430  13.018
 2954W        W67939   8.568  33.034  13.999
 2955W        W67940  22.922   8.354  13.889
 2956W        W67941  11.759  15.616  10.352
 2957W        W67942  32.497  23.519  13.435
 2958W        W67943  10.609   4.947  13.528
 2959W        W67944  36.569  35.851   0.394
 2960W        W67945  21.901  11.865  12.029
 2961W        W67946  11.294  27.621   3.222
 2962W        W67947   9.336  29.255  10.829
 2963W        W67948  17.873  28.523  12.945
 2964W        W67949  44.576  37.096   1.874
 2965W        W67950  43.533   6.885   0.810
 2966W        W67951  37.361  29.063   0.031
 2967W        W67952  16.242  31.037   0.315
 2968W        W67953   3.851  11.327   2.918
 2969W        W67954  22.955  29.000   3.157
 2970W        W67955  10.909  14.259  11.986
 2971W        W67956  17.860  12.744  10.647
 2972W        W67957  32.467  26.716   4.533
 2973W        W67958  31.375  19.128   2.733
 2974W        W67959  23.780  24.565   3.239
 2975W        W67960  33.189  29.874   0.412
 2976W        W67961   3.192  14.647   3.757
 2977W        W67962  35.041   7.383  14.521
 2978W        W67963  42.619  42.057   1.396
 2979W        W67964  21.946   3.905  14.412
 2980W        W67965  43.712  41.716  10.703
 2981W        W67966   6.417  30.628   3.329
 2982W        W67967   7.312  36.640   3.129
 2983W        W67968  15.186  30.885   3.942
 2984W        W67969  14.366   1.426  12.366
 2985W        W67970  32.126  35.125  13.853
 2986W        W67971  44.156  38.908   0.055
 2987W        W67972  37.109   9.386  13.533
 2988W        W67973  27.412  32.673  13.003
 2989W        W67974  10.326  17.288  12.075
 2990W        W67975  27.098  44.926  14.878
 2991W        W67976  36.003  20.439   1.283
 2992W        W67977  28.071  38.574   1.151
 2993W        W67978   4.701  25.099   2.515
 2994W        W67979  43.600  13.278  11.495
 2995W        W67980   4.655  33.556  10.803
 2996W        W67981   8.401  31.872   3.578
 2997W        W67982  10.315  44.380  10.883
 2998W        W67983   5.161  41.425  11.551
 2999W        W67984  29.742  37.091  12.379
 3000W        W67985  19.191   9.296   4.809
 3001W        W67986  33.337   4.965  10.221
 3002W        W67987  25.999   6.299   2.905
 3003W        W67988   8.139   5.256   2.179
 3004W        W67989  41.618  32.254  11.967
 3005W        W67990   9.355  41.829   3.626
 3006W        W67991   2.599  24.669   3.170
 3007W        W67992  26.513   0.667   4.617
 3008W        W67993  16.945  30.233   2.519
 3009W        W67994  43.847  28.444   2.238
 3010W        W67995   3.631  32.970  13.535
 3011W        W67996  16.608  19.233  10.730
 3012W        W67997  19.808  33.532  14.928
 3013W        W67998   2.871  24.304  10.770
 3014W        W67999  28.122   4.032   4.617
 3015W        W68000  21.161  39.957  14.942
 3016W        W68001   3.418  14.116   1.076
 3017W        W68002  18.284   8.868  11.291
 3018W        W68003   2.692  41.009  13.942
 3019W        W68004  39.925  37.561  14.798
 3020W        W68005  41.527  40.770  11.169
 3021W        W68006  21.411  12.961  11.066
 3022W        W68007  13.527   4.038   0.761
 3023W        W68008   3.239  38.925  12.933
 3024W        W68009  44.064  19.144  13.781
 3025W        W68010  19.883  18.518  10.121
 3026W        W68011  36.809   6.249   4.018
 3027W        W68012  34.020  30.150  14.718
 3028W        W68013  43.190   9.138   4.776
 3029W        W68014  20.179  20.216   1.409
 3030W        W68015   7.844  36.698   4.550
 3031W        W68016  28.263  13.202  11.460
 3032W        W68017  36.607  41.031  11.645
 3033W        W68018  15.539  22.178   2.425
 3034W        W68019  38.048  22.157  10.876
 3035W        W68020  32.520  40.262   2.389
 3036W        W68021  10.923   9.226  11.200
 3037W        W68022  24.831  17.138   0.356
 3038W        W68023  32.746  41.755  12.086
 3039W        W68024  11.429  27.412   1.833
 3040W        W68025  11.834  45.000  14.483
 3041W        W68026  34.937  40.449  10.359
 3042W        W68027  43.768  19.518  14.467
 3043W        W68028   1.225  15.958  11.568
 3044W        W68029  29.470  43.280   4.620
 3045W        W68030  14.252  41.317  11.613
 3046W        W68031  20.697  38.277  13.739
 3047W        W68032  28.980  32.063  14.763
 3048W        W68033  40.326  18.323   2.512
 3049W        W68034   5.114  11.857   2.243
 3050W        W68035  32.835  18.710  11.598
 3051W        W68036  27.458  17.270   0.373
 3052W        W68037  21.922  36.941  12.477
 3053W        W68038  38.910  33.995  12.003
 3054W        W68039  21.626  35.789  11.134
 3055W        W68040   1.440  14.838   2.687
 3056W        W68041  13.276  42.570   4.571
 3057W        W68042   6.030  43.243  11.597
 3058W        W68043  28.193  16.121  13.961
 3059W        W68044  24.287  27.571  12.980
 3060W        W68045  21.180  19.206  14.441
 3061W        W68046   8.401  23.107  11.025
 3062W        W68047  18.140  21.537   1.716
 3063W        W68048  35.625  21.152  11.162
 3064W        W68049  18.514  42.086  12.531
 3065W        W68050  23.756  11.674   4.196
 3066W        W68051  32.000   2.453  13.604
 3067W        W68052   6.006  37.316   1.847
 3068W        W68053  12.935  11.767   3.690
 3069W        W68054  33.126  27.608   2.802
 3070W        W68055   0.002  31.958  10.645
 3071W        W68056  17.623  36.055   0.752
 3072W        W68057  19.774  15.766   4.616
 3073W        W68058  16.197  25.037  10.504
 3074W        W68059  43.979  35.979   0.315
 3075W        W68060  25.739  20.257   1.349
 3076W        W68061   4.840  25.438  12.624
 3077W        W68062   9.698  19.577   3.183
 3078W        W68063  16.418   4.078   3.569
 3079W        W68064  44.341  27.439  11.436
 3080W        W68065  18.747  39.072  14.005
 3081W        W68066  30.430  33.059   3.764
 3082W        W68067  34.366   8.919  11.266
 3083W        W68068  39.755   9.997   0.839
 3084W        W68069  12.666  13.313   1.886
 3085W        W68070  25.780   6.283   0.515
 3086W        W68071  34.103   7.631   9.824
 3087W        W68072  44.852   3.895  11.316
 3088W        W68073  39.842   3.714   3.215
 3089W        W68074  15.106  28.941  14.396
 3090W        W68075  17.614   1.245  13.452
 3091W        W68076   5.171   8.239  11.608
 3092W        W68077  40.867  40.599  13.417
 3093W        W68078  28.130  28.833   1.506
 3094W        W68079   8.924  43.925  10.699
 3095W        W68080   7.082  38.695   1.932
 3096W        W68081  43.016   6.940   0.746
 3097W        W68082   3.202  32.403  14.873
 3098W        W68083  26.662  38.971  14.824
 3099W        W68084  36.403  32.359   2.141
 3100W        W68085  36.119  31.692   0.937
 3101W        W68086  41.573  31.161   1.779
 3102W        W68087   1.515  23.301  14.021
 3103W        W68088   0.426  43.458   0.843
 3104W        W68089  10.855  16.105   1.645
 3105W        W68090  28.966  32.461  10.686
 3106W        W68091  18.656  10.017   2.879
 3107W        W68092  36.644  29.436   1.202
 3108W        W68093  37.993  44.995   4.595
 3109W        W68094  37.074  26.909   0.982
 3110W        W68095  38.453   1.032  13.438
 3111W        W68096  23.428   7.835   4.083
 3112W        W68097  20.663   3.737   4.315
 3113W        W68098  21.139  23.026   0.800
 3114W        W68099   7.673  12.651  14.314
 3115W        W68100   7.907  10.926   4.409
 3116W        W68101  28.000  20.370   3.736
 3117W        W68102   3.367  12.285   2.781
 3118W        W68103   8.657  19.243  12.625
 3119W        W68104  33.166  10.957  12.832
 3120W        W68105  29.680  36.477  12.072
 3121W        W68106  18.724  43.786  12.098
 3122W        W68107  22.204  19.021  13.955
 3123W        W68108  23.001  21.882   3.195
 3124W        W68109  31.518   2.392  14.721
 3125W        W68110  25.749  27.626  13.809
 3126W        W68111  13.244  34.580   3.437
 3127W        W68112  28.555   2.294   2.905
 3128W        W68113   3.263  30.075  13.575
 3129W        W68114  32.910   6.394   1.449
 3130W        W68115  27.279  44.392   3.304
 3131W        W68116  41.832  36.517   0.494
 3132W        W68117  43.563  36.871   1.660
 3133W        W68118   3.586  43.495   2.105
 3134W        W68119  36.307  44.479  10.197
 3135W        W68120  41.680   0.325  10.598
 3136W        W68121  11.107  18.979   5.058
 3137W        W68122   3.675  21.798  13.652
 3138W        W68123  28.951   1.762  13.064
 3139W        W68124   4.374  18.827  12.980
 3140W        W68125  25.579  33.086   3.379
 3141W        W68126  36.949  36.813   2.355
 3142W        W68127  13.522  16.436   0.272
 3143W        W68128  15.079   1.386  13.013
 3144W        W68129  13.795  39.956  11.752
 3145W        W68130  33.410   3.799  10.985
 3146W        W68131  14.796  17.526   3.092
 3147W        W68132  17.379   7.790  14.293
 3148W        W68133  11.902  26.083  13.752
 3149W        W68134  27.263  18.748   2.288
 3150W        W68135   1.995  37.627  11.230
 3151W        W68136  30.134  26.212  10.746
 3152W        W68137  37.075  21.957   3.162
 3153W        W68138  38.101  24.100   3.821
 3154W        W68139  13.321  27.765  12.099
 3155W        W68140  26.445  15.110  14.627
 3156W        W68141   5.482  12.142   0.283
 3157W        W68142  26.430  13.786   3.745
 3158W        W68143   2.402  13.156   2.259
 3159W        W68144   8.186  24.351  14.810
 3160W        W68145  16.320  15.882  14.284
 3161W        W68146  26.988   0.461   4.539
 3162W        W68147   6.462  12.905   0.925
 3163W        W68148  44.571   5.766  13.333
 3164W        W68149  38.110  42.582  11.096
 3165W        W68150   8.327  19.033   0.692
 3166W        W68151  10.659  14.793  12.853
 3167W        W68152  34.985  44.844  12.651
 3168W        W68153  11.824  12.824   0.451
 3169W        W68154   6.622  10.182   2.137
 3170W        W68155  43.512  43.420  10.670
 3171W        W68156  28.740  24.162   0.766
 3172W        W68157  13.382  23.214  13.471
 3173W        W68158  36.801  16.848   0.737
 3174W        W68159  37.410   0.881   3.196
 3175W        W68160  27.423  16.692  12.937
 3176W        W68161  18.219  35.826  14.806
 3177W        W68162  38.066  26.596   4.098
 3178W        W68163  34.068  11.145  11.495
 3179W        W68164   4.662   9.553   3.627
 3180W        W68165   5.698  29.022  12.497
 3181W        W68166  34.849  29.220   1.380
 3182W        W68167   6.768  15.652  12.243
 3183W        W68168  42.601  22.762   3.155
 3184W        W68169  42.357  39.590  14.516
 3185W        W68170   4.219  35.902   4.609
 3186W        W68171  39.923   5.053   2.724
 3187W        W68172  41.752  23.470  13.081
 3188W        W68173  20.241  42.605  12.430
 3189W        W68174  44.824  15.716   0.017
 3190W        W68175  33.121  27.363   0.992
 3191W        W68176  40.830  18.237  14.098
 3192W        W68177  11.158   7.225   2.465
 3193W        W68178  12.267  20.263   2.168
 3194W        W68179  43.550  36.354   2.274
 3195W        W68180  30.625   9.085  11.963
 3196W        W68181  12.645  29.321  10.630
 3197W        W68182  33.064   3.312  10.394
 3198W        W68183  25.105  38.468   0.704
 3199W        W68184   9.796   2.756   0.406
 3200W        W68185  18.982   9.194   3.140
 3201W        W68186   1.851  39.991   0.032
 3202W        W68187  16.542  27.054  13.001
 3203W        W68188  40.558   8.064  14.098
 3204W        W68189  31.648  32.610  12.841
 3205W        W68190  22.117  24.192   2.782
 3206W        W68191  23.135   4.859  10.492
 3207W        W68192  21.779   1.994   0.425
 3208W        W68193  34.295  41.111  12.496
 3209W        W68194  28.913  33.662  14.330
 3210W        W68195  37.058  27.563  13.954
 3211W        W68196  13.422   4.942  11.721
 3212W        W68197  18.811  41.238   4.690
 3213W        W68198  12.206  22.436   4.606
 3214W        W68199  21.630  21.106   1.474
 3215W        W68200  10.342   0.303  10.417
 3216W        W68201   7.190  10.828   3.888
 3217W        W68202  23.931  27.225  11.139
 3218W        W68203  29.656  19.751   0.834
 3219W        W68204   4.458  12.413  13.240
 3220W        W68205  11.055   1.353  11.499
 3221W        W68206  34.663  17.761  11.860
 3222W        W68207  30.001  10.230  10.538
 3223W        W68208  42.856  26.418  14.026
 3224W        W68209   8.949  14.406  13.735
 3225W        W68210  12.232   5.702  12.572
 3226W        W68211   0.415  22.432  11.710
 3227W        W68212  31.188   3.305   2.589
 3228W        W68213   1.704  11.431   0.947
 3229W        W68214  19.217   8.271   2.858
 3230W        W68215  30.123  42.811  12.989
 3231W        W68216  24.016  17.123  13.826
 3232W        W68217  20.672   1.410  10.743
 3233W        W68218   5.378  12.915   1.546
 3234W        W68219  40.873  39.035  13.342
 3235W        W68220  40.369  38.769  12.848
 3236W        W68221  27.181  43.501   2.265
 3237W        W68222  31.881  28.122   1.377
 3238W        W68223  44.986  35.892  10.660
 3239W        W68224  12.887  20.782  13.426
 3240W        W68225  33.449  22.455  14.863
 3241W        W68226  10.342  24.380  12.004
 3242W        W68227  23.603  43.286   1.788
 3243W        W68228   8.153  21.697   0.276
 3244W        W68229  34.967   0.417   2.287
 3245W        W68230   8.711   3.289  13.587
 3246W        W68231  32.462  11.718  13.533
 3247W        W68232  36.836  41.087  13.409
 3248W        W68233  31.416  10.769  12.793
 3249W        W68234  21.263  35.979  10.781
 3250W        W68235  17.326   4.012  11.430
 3251W        W68236   5.143   1.168  12.123
 3252W        W68237   2.408   3.214   1.840
 3253W        W68238  24.463  44.339  11.888
 3254W        W68239  40.570  33.685   4.957
 3255W        W68240  22.497  34.437  14.751
 3256W        W68241  41.018   0.669   4.250
 3257W        W68242  16.531  24.967   3.507
 3258W        W68243  34.097  37.775   4.804
 3259W        W68244  39.859  24.898  11.525
 3260W        W68245  33.538  31.168  13.028
 3261W        W68246   2.315  18.775   3.038
 3262W        W68247  36.948  22.250   1.838
 3263W        W68248  24.434   5.427   0.354
 3264W        W68249  28.775  20.868  12.646
 3265W        W68250   2.459   7.592   0.984
 3266W        W68251  20.027  43.611  11.930
 3267W        W68252  37.990  19.086   2.833
 3268W        W68253  34.922   3.869  12.631
 3269W        W68254  11.456  12.131  11.717
 3270W        W68255  15.529  31.069  12.904
 3271W        W68256  17.957  39.456   1.734
 3272W        W68257  24.211  28.520  14.156
 3273W        W68258  18.281  25.081   4.669
 3274W        W68259  37.692  34.870   1.950
 3275W        W68260   7.553  41.832   1.314
 3276W        W68261  25.650  43.369   1.937
 3277W        W68262  30.472  33.309  13.758
 3278W        W68263   3.127  31.524  11.134
 3279W        W68264  17.249  11.785  11.544
 3280W        W68265   5.336  33.112  11.689
 3281W        W68266  19.759  39.476  11.971
 3282W        W68267   6.249  25.722   2.817
 3283W        W68268  27.425   6.436  13.971
 3284W        W68269  30.172  34.325  14.210
 3285W        W68270  35.610  31.601  11.178
 3286W        W68271   9.481  11.767   2.678
 3287W        W68272   4.739  39.467  10.745
 3288W        W68273  16.036  34.248  11.163
 3289W        W68274  32.418  36.080   2.226
 3290W        W68275  38.117  37.251   4.310
 3291W        W68276   1.802  15.830   1.347
 3292W        W68277   8.803  20.746  14.014
 3293W        W68278  11.754   4.792   3.608
 3294W        W68279   1.364   2.440  11.602
 3295W        W68280   5.768  40.658  13.687
 3296W        W68281  19.520  31.032  13.819
 3297W        W68282  35.423  10.299   3.070
 3298W        W68283  35.080   7.924  13.442
 3299W        W68284  35.815  20.388  11.354
 3300W        W68285  39.061  41.769  11.084
 3301W        W68286  28.157  42.917   4.220
 3302W        W68287   7.727   0.203   2.652
 3303W        W68288  11.302   4.034  14.991
 3304W        W68289  11.324  16.602  11.719
 3305W        W68290  13.307   5.471  12.595
 3306W        W68291   6.308  11.797   4.670
 3307W        W68292  41.274  27.717  14.536
 3308W        W68293  26.974  21.021  13.468
 3309W        W68294  43.861  15.264  14.775
 3310W        W68295  24.693  21.614   4.442
 3311W        W68296  17.233   8.155   3.269
 3312W        W68297   1.224  12.758  14.316
 3313W        W68298  20.218  43.296  10.512
 3314W        W68299   1.923  30.248   3.729
 3315W        W68300  34.685  10.229   1.893
 3316W        W68301  18.003  37.312  12.533
 3317W        W68302  29.983  24.959  11.095
 3318W        W68303  11.791  39.237   0.818
 3319W        W68304  35.078  41.300   0.277
 3320W        W68305  39.015  17.265  13.876
 3321W        W68306  30.019  10.175  14.393
 3322W        W68307  32.017  40.432  11.518
 3323W        W68308   9.325   5.851   3.050
 3324W        W68309  32.227  25.823  13.911
 3325W        W68310  44.807   6.194  12.874
 3326W        W68311   9.090  10.899  13.447
 3327W        W68312  12.707  39.363   0.948
 3328W        W68313  20.288   4.852  11.885
 3329W        W68314   9.137  44.939   3.681
 3330W        W68315  13.351  37.089   1.230
 3331W        W68316  15.740   1.366   0.363
 3332W        W68317  28.401  13.587  12.981
 3333W        W68318   3.685   3.299   2.684
 3334W        W68319  39.456   3.137  11.490
 3335W        W68320  33.129  38.809  13.087
 3336W        W68321  36.489  32.173  13.839
 3337W        W68322  43.265  34.584   2.859
 3338W        W68323   8.246  39.878  11.881
 3339W        W68324  16.315  11.894  11.399
 3340W        W68325  28.930  23.239  12.360
 3341W        W68326  28.635  23.991  10.718
 3342W        W68327   6.325  26.936   4.735
 3343W        W68328  12.597  30.551   1.357
 3344W        W68329   4.900  30.161   4.220
 3345W        W68330  37.548  30.554   2.361
 3346W        W68331  11.844  25.050  13.899
 3347W        W68332  39.603   2.310  13.005
 3348W        W68333  22.098  29.078  14.346
 3349W        W68334  28.042   0.612   3.656
 3350W        W68335  42.290  28.757   9.854
 3351W        W68336  38.495  27.730   2.829
 3352W        W68337  19.580  27.535  11.125
 3353W        W68338  19.225  43.268  12.361
 3354W        W68339  28.198  26.938  13.294
 3355W        W68340  23.146   7.437   0.158
 3356W        W68341  32.363  19.413  14.647
 3357W        W68342  26.229   7.324   1.159
 3358W        W68343  40.485  24.754   3.052
 3359W        W68344  41.765  18.083  13.784
 3360W        W68345  17.748  21.662   3.514
 3361W        W68346   2.210  38.911   2.210
 3362W        W68347  28.925   4.692  13.042
 3363W        W68348  44.130  28.524   5.119
 3364W        W68349   2.247   3.449   3.264
 3365W        W68350  15.755  32.793  14.013
 3366W        W68351  21.053  42.880  12.314
 3367W        W68352   9.784  20.661  12.214
 3368W        W68353  30.258  14.103  14.073
 3369W        W68354  20.059  36.884   2.796
 3370W        W68355  26.471   1.055   1.714
 3371W        W68356  31.780  22.985   0.328
 3372W        W68357   1.947   5.789  14.374
 3373W        W68358  30.633  14.505   1.534
 3374W        W68359  22.200  22.636   1.894
 3375W        W68360  12.684  12.346  11.021
 3376W        W68361  41.575  38.004  10.451
 3377W        W68362  43.048  12.326   3.750
 3378W        W68363  13.097  15.046   0.999
 3379W        W68364  14.584   9.187  12.882
 3380W        W68365   5.969  23.609  13.536
 3381W        W68366   1.774  17.306   4.090
 3382W        W68367   3.435  24.188  12.942
 3383W        W68368   2.313  35.332  10.971
 3384W        W68369  20.576  13.599   1.658
 3385W        W68370   3.347   2.385   2.195
 3386W        W68371  39.882  22.488   4.616
 3387W        W68372   3.480  18.711  13.957
 3388W        W68373  27.478   8.947   2.874
 3389W        W68374  41.480   7.905  10.696
 3390W        W68375  32.506  41.556  12.534
 3391W        W68376  14.476   0.831  12.500
 3392W        W68377  35.075  26.715  13.347
 3393W        W68378  31.580  17.670   4.620
 3394W        W68379  24.771  43.000  13.513
 3395W        W68380   2.864   4.280  14.686
 3396W        W68381  16.108   8.692  11.214
 3397W        W68382  31.436  44.890   3.604
 3398W        W68383  43.776  13.632   1.159
 3399W        W68384  27.687   7.678   2.298
 3400W        W68385   9.657  28.202   4.348
 3401W        W68386  21.272  23.997  10.739
 3402W        W68387   4.712  22.973  10.619
 3403W        W68388  25.841  14.231  13.456
 3404W        W68389  27.602  31.450  14.605
 3405W        W68390  21.724   2.940   3.661
 3406W        W68391  19.341  10.216   3.633
 3407W        W68392   1.729   9.206   1.864
 3408W        W68393  26.824  41.544  13.470
 3409W        W68394  15.204  31.708   4.270
 3410W        W68395  33.339   0.333  12.436
 3411W        W68396  34.596  14.771   0.657
 3412W        W68397  31.092  43.849  13.364
 3413W        W68398  30.213  10.333  13.434
 3414W        W68399   7.693   7.229   2.392
 3415W        W68400  35.365  30.037  10.455
 3416W        W68401  44.558  27.982  12.210
 3417W        W68402  26.897  16.860   4.679
 3418W        W68403  11.383  21.603   1.912
 3419W        W68404  30.160  17.308  14.403
 3420W        W68405  12.431  37.128  14.489
 3421W        W68406  11.152  20.548   4.412
 3422W        W68407  13.697  10.634  14.529
 3423W        W68408  43.818  21.630  12.870
 3424W        W68409  19.779  22.635  12.092
 3425W        W68410  21.054  18.090  12.428
 3426W        W68411  12.623   6.240  14.866
 3427W        W68412  11.705  20.787  12.626
 3428W        W68413  36.037  37.945   3.371
 3429W        W68414  18.033  15.303   2.260
 3430W        W68415  17.083   5.473   2.747
 3431W        W68416  13.680  39.150   0.934
 3432W        W68417  22.210  19.835  12.991
 3433W        W68418  26.497   7.695  13.688
 3434W        W68419  21.187  26.486  10.589
 3435W        W68420   4.838  14.206  13.783
 3436W        W68421   1.375  40.103  13.195
 3437W        W68422  35.516   0.243  14.322
 3438W        W68423  23.244  23.844   2.288
 3439W        W68424  26.393  25.028  11.114
 3440W        W68425  27.498   8.307   2.160
 3441W        W68426  44.312  23.151  13.697
 3442W        W68427  18.457  44.042   0.888
 3443W        W68428  25.304   2.511   5.404
 3444W        W68429  37.572  38.385  10.497
 3445W        W68430  27.732  43.262  13.534
 3446W        W68431  32.236   4.452   1.937
 3447W        W68432  11.320  21.377   4.269
 3448W        W68433  28.374  39.260  13.970
 3449W        W68434  27.571  40.189  11.184
 3450W        W68435  32.993   6.913   1.354
 3451W        W68436   5.924  22.677   4.345
 3452W        W68437   3.815  18.836  11.480
 3453W        W68438  33.529  15.303  11.690
 3454W        W68439  44.606  20.001  14.445
 3455W        W68440  42.060  38.839  12.453
 3456W        W68441  22.745  27.929   4.067
 3457W        W68442  21.203  34.042   2.153
 3458W        W68443  12.589  29.062   1.323
 3459W        W68444  15.060  25.212   1.472
 3460W        W68445  13.866   3.179   4.012
 3461W        W68446  36.546  41.497   2.126
 3462W        W68447  38.573  15.890   0.695
 3463W        W68448  30.709  10.589  11.958
 3464W        W68449  41.426  34.254   0.633
 3465W        W68450  39.561  41.501  12.368
 3466W        W68451  36.218  42.379   1.816
 3467W        W68452  20.554  20.254   2.369
 3468W        W68453  26.702  22.465  13.818
 3469W        W68454  23.138  16.216   2.609
 3470W        W68455  24.134   7.352   0.382
 3471W        W68456  38.822  30.218   4.219
 3472W        W68457  19.546   2.732   4.896
 3473W        W68458  17.272  19.387  13.486
 3474W        W68459  15.689   4.734  14.295
 3475W        W68460  24.582   4.233  11.954
 3476W        W68461  33.612  21.211  10.227
 3477W        W68462  37.377  24.219   4.375
 3478W        W68463  33.865  32.965   1.304
 3479W        W68464  32.122  24.004  14.878
 3480W        W68465  31.212  17.615   1.501
 3481W        W68466  23.417  28.373   1.216
 3482W        W68467  14.175   9.231   2.160
 3483W        W68468   6.923   4.161   3.059
 3484W        W68469  27.754  29.864   0.303
 3485W        W68470  23.023  17.754  14.315
 3486W        W68471   1.548  13.806   4.208
 3487W        W68472  26.654  42.914   0.778
 3488W        W68473  14.179  26.444   0.382
 3489W        W68474  30.325  35.615  14.290
 3490W        W68475   0.705   5.965  11.228
 3491W        W68476  22.037  24.872   1.319
 3492W        W68477  43.085   1.267  13.861
 3493W        W68478  16.448  29.509   2.923
 3494W        W68479  20.535  37.673  13.850
 3495W        W68480  39.497   2.194   2.430
 3496W        W68481  30.411  38.952   4.064
 3497W        W68482  40.804   9.084  12.003
 3498W        W68483  40.336  21.764  12.390
 3499W        W68484  29.231  16.903  14.417
 3500W        W68485  13.232  23.047   4.373
 3501W        W68486   4.860  14.840  11.395
 3502W        W68487   8.004  33.499   0.972
 3503W        W68488   5.317  33.104  12.555
 3504W        W68489  19.386  32.006   4.600
 3505W        W68490   9.764  23.422  13.491
 3506W        W68491  10.622  22.037   2.246
 3507W        W68492  22.769   1.276  14.931
 3508W        W68493  23.117  12.260   1.425
 3509W        W68494  38.423  39.144   3.135
 3510W        W68495   7.437  10.746   2.458
 3511W        W68496  27.875  40.054   3.258
 3512W        W68497  21.293   7.234   1.708
 3513W        W68498  44.815  38.291   4.658
 3514W        W68499  21.336   5.318   1.680
 3515W        W68500   4.474  17.237   3.863
 3516W        W68501  18.747  22.234   3.443
 3517W        W68502  19.287  44.789  12.990
 3518W        W68503  36.347  22.774  14.034
 3519W        W68504  17.910  44.588  10.780
 3520W        W68505  19.281   1.451  12.360
 3521W        W68506  22.472  23.095   4.010
 3522W        W68507  29.979  10.872  13.214
 3523W        W68508  23.499   6.393   2.813
 3524W        W68509  27.401  43.933   2.129
 3525W        W68510  41.410   4.655  13.995
 3526W        W68511  17.716   7.802  10.578
 3527W        W68512  19.657  23.294  11.692
 3528W        W68513   0.003  21.266  13.152
 3529W        W68514  10.334   3.763  14.003
 3530W        W68515  39.518  41.336   0.014
 3531W        W68516   6.206  34.347   1.238
 3532W        W68517   4.485  30.089   3.168
 3533W        W68518  22.403  30.973   2.235
 3534W        W68519   0.271  18.882  12.833
 3535W        W68520  21.120   9.059  12.596
 3536W        W68521  27.177  44.388  13.383
 3537W        W68522  10.363   9.992  11.620
 3538W        W68523   1.786  27.142  13.544
 3539W        W68524  15.594  11.861   0.224
 3540W        W68525   9.976  41.003   1.124
 3541W        W68526  21.781  21.704   2.819
 3542W        W68527  40.430  42.534   4.757
 3543W        W68528  39.994  37.801  12.483
 3544W        W68529  41.027   7.140  14.051
 3545W        W68530  36.911  44.809  10.809
 3546W        W68531  28.630  17.756   3.179
 3547W        W68532   2.440   0.880  10.739
 3548W        W68533  28.566  36.374  13.674
 3549W        W68534  26.548  39.376   0.766
 3550W        W68535  35.938   7.190   2.725
 3551W        W68536  26.060   1.447  14.828
 3552W        W68537  35.192  44.073   3.858
 3553W        W68538  36.889   0.415   4.702
 3554W        W68539   5.671  20.769   0.795
 3555W        W68540  43.324  10.867  12.601
 3556W        W68541  30.846  34.566  10.756
 3557W        W68542   8.670  21.284  11.160
 3558W        W68543  30.101  10.681  11.936
 3559W        W68544  36.084  23.093  10.658
 3560W        W68545   3.183  16.773  11.646
 3561W        W68546  30.629  16.992   5.124
 3562W        W68547   4.220  32.641   4.394
 3563W        W68548  14.651  42.418   1.405
 3564W        W68549  13.701  17.220  14.937
 3565W        W68550  28.256  40.703  12.898
 3566W        W68551  27.208  23.664  12.092
 3567W        W68552  10.952  43.794  11.462
 3568W        W68553  34.622  18.487   3.216
 3569W        W68554  39.601   8.120   1.764
 3570W        W68555  42.572   0.543  12.254
 3571W        W68556  12.716  17.562  10.517
 3572W        W68557  27.141  23.525   0.933
 3573W        W68558  17.071  35.942  12.955
 3574W        W68559  43.305  37.647  14.991
 3575W        W68560  40.474  13.255  13.367
 3576W        W68561   2.849  17.781   0.334
 3577W        W68562  19.222  26.177  10.763
 3578W        W68563   7.917  44.683   0.387
 3579W        W68564  29.603  25.941   0.357
 3580W        W68565  42.424  21.417  11.678
 3581W        W68566   7.898  22.984  11.139
 3582W        W68567   5.986  14.756  14.187
 3583W        W68568   5.067  36.206  13.236
 3584W        W68569  18.074  16.910   3.818
 3585W        W68570  18.058  11.645  12.543
 3586W        W68571  28.222   4.684   4.016
 3587W        W68572  32.987  41.062  11.930
 3588W        W68573  28.489   3.411   2.668
 3589W        W68574  32.574  19.528  12.846
 3590W        W68575  23.619  35.548  13.480
 3591W        W68576  36.511  22.025  12.605
 3592W        W68577  12.666  15.215  13.420
 3593W        W68578  30.813  29.147  10.515
 3594W        W68579  34.006  14.571  11.417
 3595W        W68580   4.279   7.607  13.566
 3596W        W68581  36.389  37.433  10.571
 3597W        W68582  20.790  13.048  11.886
 3598W        W68583  18.148  32.515   4.582
 3599W        W68584  30.323  41.373   3.610
 3600W        W68585  21.248   0.510   2.269
 3601W        W68586  26.015  38.304   2.678
 3602W        W68587  26.208  28.129   4.549
 3603W        W68588   3.424   6.131   1.253
 3604W        W68589  40.576  41.035  14.774
 3605W        W68590   9.434  28.910  11.189
 3606W        W68591  28.666  29.454  12.356
 3607W        W68592  10.552  28.945  12.434
 3608W        W68593  39.866  41.550   4.147
 3609W        W68594  17.528   6.797  12.569
 3610W        W68595   3.958  16.012  11.187
 3611W        W68596  34.436  29.378  14.886
 3612W        W68597   8.223  34.627  13.950
 3613W        W68598  41.959  41.798   2.136
 3614W        W68599  22.928  42.886   3.488
 3615W        W68600   3.464   7.107  14.811
 3616W        W68601  16.188  41.977  10.457
 3617W        W68602   3.856  10.668  12.753
 3618W        W68603  21.843   3.001  13.246
 3619W        W68604  38.050  40.625  13.412
 3620W        W68605  37.997   7.639  14.343
 3621W        W68606  30.480  13.653   3.756
 3622W        W68607  40.358  28.551   1.363
 3623W        W68608  40.373  32.116   1.886
 3624W        W68609  16.306  12.438   3.167
 3625W        W68610  12.613  26.516  10.648
 3626W        W68611  15.874   2.846   1.799
 3627W        W68612  41.967  33.641   2.256
 3628W        W68613  25.522  25.263  12.396
 3629W        W68614  39.154   3.967   0.302
 3630W        W68615   7.854  28.365  10.608
 3631W        W68616  14.873  33.746  10.160
 3632W        W68617  34.044  19.827  13.972
 3633W        W68618   5.916   3.750  12.081
 3634W        W68619  31.876  16.118  14.711
 3635W        W68620  30.514  35.907  13.547
 3636W        W68621   1.259   9.478   2.759
 3637W        W68622  30.536  28.447  12.317
 3638W        W68623  40.471  36.116  11.999
 3639W        W68624  39.256  16.787   2.333
 3640W        W68625  24.007  33.367  12.172
 3641W        W68626  27.223  14.446  14.379
 3642W        W68627  38.893  22.700  11.872
 3643W        W68628  30.567  23.909   4.007
 3644W        W68629  28.448  17.575   2.738
 3645W        W68630  12.713  30.995   3.098
 3646W        W68631  34.604  14.936  13.865
 3647W        W68632  13.708   3.657   3.837
 3648W        W68633  22.905  37.508   0.348
 3649W        W68634  41.034  29.235  12.218
 3650W        W68635  44.229  13.734  13.915
 3651W        W68636  10.305  40.255  10.717
 3652W        W68637  38.967  11.942   4.206
 3653W        W68638  27.926   8.267  13.449
 3654W        W68639  15.753  14.107  13.568
 3655W        W68640  14.644   9.722   0.856
 3656W        W68641  13.154  24.156  12.622
 3657W        W68642  17.788  23.104   4.652
 3658W        W68643  13.362  11.834   2.186
 3659W        W68644   4.058  34.614   2.829
 3660W        W68645  24.368   4.321   9.987
 3661W        W68646  36.181  35.876   3.697
 3662W        W68647  10.351  22.515  13.505
 3663W        W68648  25.156  17.765  12.804
 3664W        W68649  28.572  12.839   1.374
 3665W        W68650  22.127  22.992  11.145
 3666W        W68651  17.827  37.997  14.532
 3667W        W68652  36.093  20.685  12.235
 3668W        W68653   9.446  10.169   0.518
 3669W        W68654  36.571  29.104   9.965
 3670W        W68655  43.954  10.187   0.618
 3671W        W68656  42.790  33.007  12.202
 3672W        W68657   8.792  28.554  12.904
 3673W        W68658   1.856  33.446   4.565
 3674W        W68659   4.291  20.389  14.019
 3675W        W68660   9.412   4.299  11.208
 3676W        W68661  39.100  36.139   1.329
 3677W        W68662  23.188  11.777   4.642
 3678W        W68663   1.654  39.411  12.662
 3679W        W68664  32.925  21.611  12.716
 3680W        W68665  15.406  13.011   4.079
 3681W        W68666  18.554  11.262  11.553
 3682W        W68667  18.632  43.414   0.565
 3683W        W68668   7.126  25.797  14.625
 3684W        W68669   2.907   8.836   0.848
 3685W        W68670  43.191   3.290   3.017
 3686W        W68671   2.909  10.141   0.976
 3687W        W68672  35.601  24.026   2.720
 3688W        W68673  41.451  23.549   1.191
 3689W        W68674  36.149  43.764   2.773
 3690W        W68675  37.095  28.912  12.350
 3691W        W68676  33.398  34.482  14.901
 3692W        W68677   5.425  17.373  14.877
 3693W        W68678   2.490  14.300  11.567
 3694W        W68679  12.098  18.114  11.112
 3695W        W68680  10.604  29.075  10.423
 3696W        W68681   5.432  37.689  12.580
 3697W        W68682  15.029  17.107  12.293
 3698W        W68683  25.049   6.064  10.360
 3699W        W68684  44.720  19.688   4.098
 3700W        W68685  23.991  31.493  14.052
 3701W        W68686  14.752   9.317  14.959
 3702W        W68687  21.591   7.366   5.118
 3703W        W68688  13.114   9.302  14.007
 3704W        W68689  16.652  12.858   0.868
 3705W        W68690  43.505  11.486  10.817
 3706W        W68691   6.742  31.608  12.905
 3707W        W68692  20.321  32.914   2.173
 3708W        W68693  14.023   0.214  14.894
 3709W        W68694  14.905  15.157  11.538
 3710W        W68695  27.591  12.812  10.398
 3711W        W68696  35.540  23.286   1.421
 3712W        W68697  31.921  43.325   3.310
 3713W        W68698  19.109  17.150   4.396
 3714W        W68699   7.294   2.211   2.195
 3715W        W68700  23.564   2.902   3.154
 3716W        W68701  16.369  30.748   4.467
 3717W        W68702  23.333  23.928   0.449
 3718W        W68703   8.078  32.431   2.336
 3719W        W68704  32.632   3.588   1.284
 3720W        W68705  28.520  31.028   3.744
 3721W        W68706  23.138  19.966  13.844
 3722W        W68707  42.766  13.592  11.501
 3723W        W68708  21.901  30.970  13.469
 3724W        W68709  36.286  14.177  13.879
 3725W        W68710  27.432   2.989  12.905
 3726W        W68711  16.686  28.102  10.456
 3727W        W68712   9.849   0.118  13.461
 3728W        W68713  21.737  18.137   4.779
 3729W        W68714  20.637   3.511  10.174
 3730W        W68715  30.623  36.033  10.804
 3731W        W68716  16.143   7.413  10.735
 3732W        W68717   6.417  36.114  13.934
 3733W        W68718  24.653   0.779  12.443
 3734W        W68719  11.761  44.979   2.785
 3735W        W68720  20.502  11.665   0.801
 3736W        W68721  37.942  19.833   1.926
 3737W        W68722  12.113   1.644  12.524
 3738W        W68723  38.629  43.916   3.615
 3739W        W68724  27.931  23.403  12.951
 3740W        W68725  37.717  39.483   3.241
 3741W        W68726  14.346  25.585   0.776
 3742W        W68727  15.213  28.985   1.422
 3743W        W68728  26.038  29.621   3.578
 3744W        W68729  11.801  37.974   4.088
 3745W        W68730   8.263  38.061   4.430
 3746W        W68731  21.769  32.647  13.090
 3747W        W68732  41.597  27.685   1.833
 3748W        W68733  34.082  26.322  12.946
 3749W        W68734  41.071  42.395  11.542
 3750W        W68735   3.815  25.569   1.774
 3751W        W68736   1.357  11.270  13.393
 3752W        W68737  32.511  28.025   0.056
 3753W        W68738  29.678  37.831  12.867
 3754W        W68739   8.548  12.733   1.252
 3755W        W68740  33.426  40.787  12.090
 3756W        W68741  30.920   4.202   3.904
 3757W        W68742  37.750  17.678  14.507
 3758W        W68743  14.883  10.679  12.601
 3759W        W68744  29.363  13.088  13.755
 3760W        W68745  24.997  42.584  11.548
 3761W        W68746   2.385  32.596  13.553
 3762W        W68747   6.786  38.801  12.025
 3763W        W68748   7.931  11.652   0.890
 3764W        W68749  12.205  15.794   1.678
 3765W        W68750  41.690  10.416  11.923
 3766W        W68751  18.535  36.006  13.447
 3767W        W68752  18.335  33.104  11.539
 3768W        W68753  32.632  25.639   3.698
 3769W        W68754   7.183  28.615  11.154
 3770W        W68755  27.691  22.062   0.264
 3771W        W68756  40.979  25.645  11.243
 3772W        W68757  32.871  10.788  12.428
 3773W        W68758  35.070   3.508   1.250
 3774W        W68759  19.761  18.038   4.087
 3775W        W68760  37.468   1.223   2.759
 3776W        W68761  29.735  29.324  12.001
 3777W        W68762  39.504  42.433  11.396
 3778W        W68763  13.791  37.475   5.133
 3779W        W68764  38.892  21.488  14.022
 3780W        W68765   6.600  28.432   3.330
 3781W        W68766  33.531  23.797  10.995
 3782W        W68767  44.953  33.782  11.919
 3783W        W68768   9.396  25.850  14.521
 3784W        W68769  16.036  39.424   1.694
 3785W        W68770  40.993  17.741   0.307
 3786W        W68771  20.261  32.508   4.788
 3787W        W68772  21.988  18.177   2.405
 3788W        W68773  36.448  14.727   2.365
 3789W        W68774  44.950  19.824  14.948
 3790W        W68775  30.780  39.989   0.856
 3791W        W68776  13.465   6.720   0.866
 3792W        W68777   5.348  30.737   2.463
 3793W        W68778  10.104  39.507   2.436
 3794W        W68779  17.529  42.890   1.165
 3795W        W68780  22.434   4.752  10.776
 3796W        W68781  38.245  17.661   1.779
 3797W        W68782  42.002  23.049   4.680
 3798W        W68783  32.559  39.362   2.154
 3799W        W68784  13.647  26.545   1.745
 3800W        W68785  41.959  39.012   2.976
 3801W        W68786  40.860  27.638   2.383
 3802W        W68787  39.293  31.308  10.677
 3803W        W68788  37.441  13.353   3.557
 3804W        W68789  11.573  14.799  10.604
 3805W        W68790   4.850  31.154   0.375
 3806W        W68791  38.582  36.077  12.745
 3807W        W68792  11.768  20.317   2.352
 3808W        W68793   3.858  19.475  10.347
 3809W        W68794  37.495  27.642   1.228
 3810W        W68795  38.040  16.622  12.814
 3811W        W68796  37.549   9.173   0.782
 3812W        W68797  15.727  38.404  12.014
 3813W        W68798  15.120  36.810   0.456
 3814W        W68799  34.688  39.772   2.754
 3815W        W68800  16.426  26.011  11.133
 3816W        W68801  25.801  41.884   2.645
 3817W        W68802  43.278   9.123   2.612
 3818W        W68803  15.084  32.704   3.826
 3819W        W68804  12.990   9.188  13.160
 3820W        W68805   6.840  38.142   4.206
 3821W        W68806  33.597   3.495  14.819
 3822W        W68807   2.122  22.476   3.751
 3823W        W68808  16.280   5.444   2.182
 3824W        W68809   0.883   4.272  10.701
 3825W        W68810  12.170   8.706  14.263
 3826W        W68811  24.495   3.076  10.302
 3827W        W68812  43.903  13.308   2.314
 3828W        W68813   2.763  27.677   1.970
 3829W        W68814  13.961   5.755  11.138
 3830W        W68815   3.859  20.530   2.681
 3831W        W68816  13.602  36.941   1.675
 3832W        W68817  39.906  30.544  10.612
 3833W        W68818  41.439  43.358   2.796
 3834W        W68819   8.275  12.284   4.768
 3835W        W68820  44.521  34.410   4.583
 3836W        W68821  44.009  41.398  10.988
 3837W        W68822  23.961  22.801  12.425
 3838W        W68823  21.368  22.673  11.178
 3839W        W68824  41.782  21.823  13.461
 3840W        W68825  12.118  17.747  14.335
 3841W        W68826  32.304  19.595  12.416
 3842W        W68827  40.385   5.903  13.827
 3843W        W68828  40.651  16.111  12.591
 3844W        W68829  21.585   6.483  12.250
 3845W        W68830  31.705  26.193   4.528
 3846W        W68831  41.436  29.946   3.149
 3847W        W68832  18.234  22.733   2.903
 3848W        W68833  42.864   4.805  12.094
 3849W        W68834  23.522  38.700   2.603
 3850W        W68835   4.961  38.903   0.254
 3851W        W68836  32.073   8.238   2.192
 3852W        W68837  31.668  38.263   4.674
 3853W        W68838  24.134  18.546  10.309
 3854W        W68839   7.751  40.234  10.788
 3855W        W68840  24.623  12.707  13.741
 3856W        W68841  29.911  16.700  11.854
 3857W        W68842  11.234   2.389   2.930
 3858W        W68843  28.579   2.054  13.789
 3859W        W68844  12.690   6.941  14.314
 3860W        W68845  13.928   2.248  11.144
 3861W        W68846  44.572  23.195   4.556
 3862W        W68847  17.502   8.830   5.328
 3863W        W68848  19.018   7.768  10.807
 3864W        W68849   8.465  24.998   1.375
 3865W        W68850  29.613  13.768  11.386
 3866W        W68851  27.633  34.266   4.791
 3867W        W68852  30.075  28.484   0.285
 3868W        W68853   0.309   5.360  12.970
 3869W        W68854   0.146   4.113  13.523
 3870W        W68855   5.343  27.388  14.623
 3871W        W68856  44.442   2.731  12.410
 3872W        W68857  38.616  21.678  14.468
 3873W        W68858  40.005   8.853   4.705
 3874W        W68859  41.363   7.309   3.590
 3875W        W68860  11.060  26.467  14.097
 3876W        W68861  28.409  16.843   4.525
 3877W        W68862  17.228   2.180   2.132
 3878W        W68863  44.495  44.839   2.220
 3879W        W68864  11.927  41.887   1.372
 3880W        W68865  36.495  38.441   0.303
 3881W        W68866   6.087  34.041  10.668
 3882W        W68867  20.256  18.756  14.955
 3883W        W68868  21.711  42.384   4.458
 3884W        W68869  20.231  42.891   0.364
 3885W        W68870  30.073  41.678   0.865
 3886W        W68871  40.119  26.168  14.775
 3887W        W68872   5.766  20.514  10.616
 3888W        W68873  44.402  11.287  13.387
 3889W        W68874  34.640  32.460  11.498
 3890W        W68875   7.729  37.506  14.896
 3891W        W68876  20.554  17.028   1.862
 3892W        W68877  17.074  43.380   4.617
 3893W        W68878  16.647  25.459   2.215
 3894W        W68879   2.644   3.760   0.226
 3895W        W68880  11.642  27.404   3.565
 3896W        W68881  27.086  31.931   3.137
 3897W        W68882  32.045  31.745  12.958
 3898W        W68883   5.767   0.018   2.237
 3899W        W68884  28.102   0.852  11.771
 3900W        W68885  42.292  43.818   4.239
 3901W        W68886  15.989  40.439   1.666
 3902W        W68887  17.152  15.066   4.165
 3903W        W68888  14.708  36.925  13.922
 3904W        W68889  30.458  29.870  12.080
 3905W        W68890  12.361  44.862  13.806
 3906W        W68891   9.729  38.647   0.835
 3907W        W68892  18.662  23.584   0.990
 3908W        W68893   0.336   2.384  12.974
 3909W        W68894  13.783  19.528   3.378
 3910W        W68895  21.119  22.224  13.972
 3911W        W68896  21.560  23.832   0.715
 3912W        W68897  32.417  10.316  11.684
 3913W        W68898  21.283  12.732   0.481
 3914W        W68899  28.374  14.108   4.123
 3915W        W68900  11.693  25.632  12.078
 3916W        W68901  15.348  43.373   4.240
 3917W        W68902  34.918  37.664  14.384
 3918W        W68903  43.332  18.220  13.879
 3919W        W68904  32.296  19.088  11.173
 3920W        W68905  20.318   3.193   3.303
 3921W        W68906  40.181  21.245  12.411
 3922W        W68907  42.041  25.558   0.747
 3923W        W68908  29.219  35.754  10.545
 3924W        W68909  34.125  16.577  11.531
 3925W        W68910  40.478  27.090  14.479
 3926W        W68911  36.069  30.346   2.375
 3927W        W68912  32.141  25.930   4.678
 3928W        W68913  39.311   1.658   2.406
 3929W        W68914  41.724  43.817  14.871
 3930W        W68915  10.369  37.618  11.999
 3931W        W68916  36.404  29.925  10.699
 3932W        W68917  36.650  40.621  11.980
 3933W        W68918  10.061  35.989  11.674
 3934W        W68919  23.975   6.996  14.443
 3935W        W68920  34.412   1.247   4.066
 3936W        W68921  18.983  40.262   4.458
 3937W        W68922   4.003  41.511  10.753
 3938W        W68923  25.505  19.477  12.306
 3939W        W68924  44.273  38.449   0.297
 3940W        W68925  12.338  11.687  11.042
 3941W        W68926  34.899  22.780   4.554
 3942W        W68927   1.650   9.872  14.015
 3943W        W68928  36.870   3.460  13.366
 3944W        W68929  32.079  23.530   3.212
 3945W        W68930  29.519  16.940   0.868
 3946W        W68931  32.614  20.160  14.733
 3947W        W68932  39.608  34.499  11.438
 3948W        W68933  25.260  38.999  12.323
 3949W        W68934  24.118  15.676  12.037
 3950W        W68935  34.594  12.362  12.875
 3951W        W68936  32.141   3.360   4.310
 3952W        W68937   4.550   9.605  12.198
 3953W        W68938  36.475  42.308   1.333
 3954W        W68939  14.907  37.034  13.449
 3955W        W68940  12.623   2.681   3.951
 3956W        W68941  27.500  12.229  12.148
 3957W        W68942  37.614   4.752  14.583
 3958W        W68943  39.315  21.010  12.642
 3959W        W68944  32.535  18.297   1.778
 3960W        W68945  30.452  29.002  10.847
 3961W        W68946   1.429  20.643   1.597
 3962W        W68947   2.818  27.908   3.663
 3963W        W68948  37.520   7.449   9.682
 3964W        W68949  14.748   2.588  14.995
 3965W        W68950   1.929   0.457  13.113
 3966W        W68951  32.970   2.601  11.858
 3967W        W68952  10.644   0.332   4.709
 3968W        W68953  18.711  31.160   0.386
 3969W        W68954  11.796  23.534   0.339
 3970W        W68955   1.990  29.913  13.388
 3971W        W68956  29.212  39.954  13.103
 3972W        W68957  10.176   5.232   4.168
 3973W        W68958  24.203   5.931  13.480
 3974W        W68959  40.907  15.033  10.225
 3975W        W68960  20.286  26.900  12.779
 3976W        W68961  15.489   0.939  14.973
 3977W        W68962   1.780  31.759  11.451
 3978W        W68963  18.741  43.403  13.046
 3979W        W68964  30.093   9.628   0.122
 3980W        W68965  22.228  19.325   1.263
 3981W        W68966  15.864  41.217  14.788
 3982W        W68967  32.920  20.965  13.342
 3983W        W68968  13.600   3.649   0.286
 3984W        W68969   7.814  34.867  13.406
 3985W        W68970  21.320  34.225  12.751
 3986W        W68971  37.420  32.934  14.981
 3987W        W68972  11.195  10.738   1.769
 3988W        W68973  14.624  25.396  14.966
 3989W        W68974   7.619   6.777  11.808
 3990W        W68975  40.526  33.833   3.634
 3991W        W68976  25.624   6.820   4.829
 3992W        W68977  43.044  36.965   3.294
 3993W        W68978   4.775  25.010   0.032
 3994W        W68979  10.516  26.166  11.631
 3995W        W68980  16.646  36.950  10.876
 3996W        W68981  27.896  35.386   3.326
 3997W        W68982   7.947  29.056  14.511
 3998W        W68983  17.953  35.381  11.497
 3999W        W68984  36.640  18.714  13.038
 4000W        W68985   1.501  32.824   3.622
 4001W        W68986  33.012   1.333   2.325
 4002W        W68987   8.916  30.573   0.094
 4003W        W68988  31.347  29.074  11.570
 4004W        W68989  28.426   8.424  12.547
 4005W        W68990  24.698  41.992  14.270
 4006W        W68991   9.008   9.745  13.083
 4007W        W68992   4.895  34.105  14.982
 4008W        W68993   8.853   2.367   3.679
 4009W        W68994  15.574  40.460  14.442
 4010W        W68995   4.696  20.821   0.916
 4011W        W68996  31.698  23.139  11.563
 4012W        W68997  32.566   5.136   0.852
 4013W        W68998   6.917  30.004  10.814
 4014W        W68999   9.764  22.007   0.726
 4015W        W69000  16.836  28.162   2.140
 4016W        W69001  28.041  38.361   1.903
 4017W        W69002   3.793  10.732  11.257
 4018W        W69003  36.606   3.875   3.696
 4019W        W69004  39.502   0.890   1.442
 4020W        W69005  41.229  38.017   3.808
 4021W        W69006  22.831  20.258   0.552
 4022W        W69007  26.501  12.847   2.213
 4023W        W69008  44.233  37.631   1.757
 4024W        W69009  32.669  11.685   0.817
 4025W        W69010  14.300   3.197  13.520
 4026W        W69011  42.824  14.370   2.272
 4027W        W69012  35.655  22.005  12.675
 4028W        W69013  32.563  32.957   1.851
 4029W        W69014   3.516  10.937  14.489
 4030W        W69015  41.865  41.446  11.944
 4031W        W69016   9.785  34.507   3.588
 4032W        W69017  12.838  33.612   4.987
 4033W        W69018  25.584  15.761   3.994
 4034W        W69019  29.591  31.650   5.578
 4035W        W69020  29.192   7.479   3.576
 4036W        W69021   2.926  24.286   2.480
 4037W        W69022  36.928  30.412  11.158
 4038W        W69023  37.764  40.547   3.609
 4039W        W69024  37.404  16.340  14.899
 4040W        W69025   3.142  33.413   4.105
 4041W        W69026  37.329  25.076   0.879
 4042W        W69027  23.673   9.598   4.106
 4043W        W69028   5.648   7.426   0.810
 4044W        W69029  36.846  10.297   3.074
 4045W        W69030  37.883  18.793  12.580
 4046W        W69031  22.989  42.831  12.371
 4047W        W69032   6.715  24.076   4.095
 4048W        W69033   5.949   6.419  13.573
 4049W        W69034  36.136  30.710   1.254
 4050W        W69035  33.286  11.562   2.719
 4051W        W69036  38.740  17.784  12.629
 4052W        W69037  33.411  12.832  13.126
 4053W        W69038   2.295  16.715   3.640
 4054W        W69039  12.877   9.669   2.731
 4055W        W69040  30.999   5.219  14.248
 4056W        W69041   1.594  37.919  11.463
 4057W        W69042  35.825  29.879   3.136
 4058W        W69043   7.311  20.870  13.079
 4059W        W69044  44.259  36.617  12.981
 4060W        W69045  34.104  18.609   3.353
 4061W        W69046   8.218  34.033  12.167
 4062W        W69047  32.204  36.692  14.560
 4063W        W69048  39.493   6.386   0.612
 4064W        W69049  23.426  42.005  11.984
 4065W        W69050  14.581  20.121   1.820
 4066W        W69051  31.933   3.723   4.609
 4067W        W69052  37.133   8.748   1.432
 4068W        W69053  42.140  16.187  11.645
 4069W        W69054  22.198  43.832  10.718
 4070W        W69055  30.997  25.240  14.236
 4071W        W69056   7.956  37.292   0.328
 4072W        W69057   3.663   9.261   3.688
 4073W        W69058  20.776  39.303   1.780
 4074W        W69059   4.491  27.472   3.664
 4075W        W69060  18.828  35.385  13.940
 4076W        W69061  13.281  21.041  13.930
 4077W        W69062  16.972   4.358  11.593
 4078W        W69063  44.228  44.677  14.423
 4079W        W69064  10.810  24.940  11.492
 4080W        W69065  16.638  39.152  13.831
 4081W        W69066  12.534  31.171  12.995
 4082W        W69067   8.299  19.315   4.643
 4083W        W69068  31.840  15.729   1.114
 4084W        W69069  22.258  10.013  13.086
 4085W        W69070  10.602  29.509  12.120
 4086W        W69071  40.542  13.901   3.127
 4087W        W69072   2.949  27.227   3.179
 4088W        W69073   4.106  16.791  11.783
 4089W        W69074   2.880  30.641  12.731
 4090W        W69075  29.883  34.714  12.505
 4091W        W69076  33.404   6.295   2.732
 4092W        W69077  18.391  44.772   0.446
 4093W        W69078  21.177  34.541  14.047
 4094W        W69079  37.324   6.810  11.053
 4095W        W69080  31.507  42.796  13.880
 4096W        W69081  25.563  14.056   1.865
 4097W        W69082  24.050  37.255   1.615
 4098W        W69083  14.587   1.776   3.245
 4099W        W69084  16.040   0.995  13.350
 4100W        W69085  28.732  33.640  10.321
 4101W        W69086   0.462  34.621   2.479
 4102W        W69087  20.296  24.043  13.872
 4103W        W69088  34.360  28.424   3.883
 4104W        W69089  11.485   2.383  12.663
 4105W        W69090  23.908  39.710   4.237
 4106W        W69091   0.656   7.506  10.298
 4107W        W69092  17.577  24.476  14.250
 4108W        W69093  34.921  25.223   0.524
 4109W        W69094  39.463  23.061   2.740
 4110W        W69095  42.885  20.957  10.025
 4111W        W69096  20.697  32.386  12.548
 4112W        W69097  26.151  38.905   0.392
 4113W        W69098  37.085  33.001   0.373
 4114W        W69099  12.460  24.733  12.983
 4115W        W69100   8.931   7.465  14.030
 4116W        W69101  33.952  23.603   3.122
 4117W        W69102  26.681  10.912   1.279
 4118W        W69103  42.130  41.844   0.518
 4119W        W69104   0.272  21.531   1.690
 4120W        W69105  27.839   5.646  11.755
 4121W        W69106  28.959  33.853  12.084
 4122W        W69107  33.536  24.155   1.756
 4123W        W69108  13.197   0.342   4.785
 4124W        W69109  25.745  25.780  11.895
 4125W        W69110  24.846  31.147   1.317
 4126W        W69111   4.325  11.184  12.402
 4127W        W69112  13.594  16.836   2.180
 4128W        W69113  31.221   1.199   2.283
 4129W        W69114   2.902  41.507  12.963
 4130W        W69115  15.339  14.770  14.343
 4131W        W69116  22.494  39.891   0.009
 4132W        W69117  12.524  18.067   0.370
 4133W        W69118  16.276   5.152   0.480
 4134W        W69119  36.083  37.811  14.764
 4135W        W69120  11.438  36.474  14.920
 4136W        W69121  24.129   8.912  12.585
 4137W        W69122   5.656   0.236  13.668
 4138W        W69123   8.213  23.068   3.869
 4139W        W69124  24.147  16.523  14.697
 4140W        W69125  33.496   3.686   9.992
 4141W        W69126  28.782  41.326   4.070
 4142W        W69127  15.291   8.043   1.758
 4143W        W69128  21.760  18.242  13.878
 4144W        W69129   5.539   1.401  13.029
 4145W        W69130  14.809  16.217   2.238
 4146W        W69131  10.373  37.875  13.515
 4147W        W69132   1.869   1.409   4.288
 4148W        W69133  25.070  41.000   4.922
 4149W        W69134  19.785  15.631   2.400
 4150W        W69135   0.220  10.777   1.662
 4151W        W69136  34.552  17.419   4.890
 4152W        W69137  21.283   8.694  13.057
 4153W        W69138  40.956  35.506   1.164
 4154W        W69139  38.849   9.641   4.255
 4155W        W69140  36.155  31.475  14.339
 4156W        W69141  12.473  19.361  12.631
 4157W        W69142  25.221  32.553   4.470
 4158W        W69143  29.084  10.117  12.329
 4159W        W69144  24.096  12.752  10.268
 4160W        W69145  43.840  23.751  12.007
 4161W        W69146   1.354  34.409   0.999
 4162W        W69147  39.756  24.072  14.299
 4163W        W69148  44.020  16.804   3.941
 4164W        W69149   1.895  38.369  10.731
 4165W        W69150  43.551  33.067   4.021
 4166W        W69151  40.172  38.285   4.635
 4167W        W69152  44.951  12.356   2.271
 4168W        W69153  31.134  25.002   2.794
 4169W        W69154   1.741  16.133  12.306
 4170W        W69155  32.860   2.931  11.079
 4171W        W69156  42.930  25.755  10.044
 4172W        W69157   4.772   4.191   2.661
 4173W        W69158  38.809  12.782   1.467
 4174W        W69159  29.629  42.379  14.689
 4175W        W69160  43.483  15.792   2.891
 4176W        W69161  26.504   7.347   3.798
 4177W        W69162   5.184   2.996  13.897
 4178W        W69163   4.383  20.021   0.819
 4179W        W69164  15.662  17.988  11.203
 4180W        W69165  39.064   7.123   2.611
 4181W        W69166  31.061   5.339  12.011
 4182W        W69167   5.330   6.713   1.829
 4183W        W69168  33.582  27.228  12.863
 4184W        W69169  25.074   5.384   4.545
 4185W        W69170  18.597  21.121   4.269
 4186W        W69171  27.694  40.478   4.577
 4187W        W69172  16.663  35.033  13.238
 4188W        W69173  29.473  11.540   4.071
 4189W        W69174  38.751   1.428  14.177
 4190W        W69175  11.279   7.714   2.265
 4191W        W69176  41.401  42.660   4.471
 4192W        W69177  42.474   2.787   2.736
 4193W        W69178  13.168  27.948  12.577
 4194W        W69179  43.522  39.981  11.095
 4195W        W69180  18.732  38.872  12.073
 4196W        W69181  43.714  21.583  12.354
 4197W        W69182  41.034  19.758   0.619
 4198W        W69183  26.399  23.774   2.624
 4199W        W69184   8.648  33.629  11.487
 4200W        W69185  42.055  37.721  11.614
 4201W        W69186  24.086  11.289   4.269
 4202W        W69187  38.491  22.651  14.077
 4203W        W69188  25.483  23.320   4.174
 4204W        W69189   9.820   0.546  14.769
 4205W        W69190   9.919  12.200   4.985
 4206W        W69191  20.715  35.604  12.891
 4207W        W69192  24.551   1.871   1.857
 4208W        W69193  25.889   1.434   1.783
 4209W        W69194  33.770  18.872  12.945
 4210W        W69195  31.596   4.157   1.003
 4211W        W69196   6.763   5.638  13.922
 4212W        W69197  17.554  34.750   1.321
 4213W        W69198   4.277  34.561   1.012
 4214W        W69199   2.870   2.880  14.326
 4215W        W69200  21.092  26.667   2.500
 4216W        W69201  35.026  12.601   3.265
 4217W        W69202  25.737  27.410   2.807
 4218W        W69203  30.085  31.834   3.628
 4219W        W69204   7.380  24.794  14.839
 4220W        W69205   3.650  15.545   1.334
 4221W        W69206   3.908  44.802   1.027
 4222W        W69207  32.764  36.429   2.432
 4223W        W69208  13.419   6.762  11.568
 4224W        W69209  24.601  33.569   0.516
 4225W        W69210   2.902  23.280  12.459
 4226W        W69211  33.321   0.424   3.307
 4227W        W69212  26.085  21.001   0.909
 4228W        W69213  17.818   5.380  13.130
 4229W        W69214   6.173  27.676  10.104
 4230W        W69215  33.284  32.506   0.801
 4231W        W69216  14.551  33.895   2.663
 4232W        W69217  24.997   8.306   0.818
 4233W        W69218  37.901  29.012  13.744
 4234W        W69219  14.831  21.674   1.285
 4235W        W69220  43.902  23.504   4.169
 4236W        W69221  38.950   4.329  13.324
 4237W        W69222   5.855  21.942   3.763
 4238W        W69223  31.069  33.357  11.075
 4239W        W69224  35.465  43.669   0.787
 4240W        W69225  41.059  19.905   0.052
 4241W        W69226  40.780  21.968   1.856
 4242W        W69227  43.312  32.603  13.438
 4243W        W69228  11.807  40.557  13.500
 4244W        W69229  12.364  39.824   4.846
 4245W        W69230  22.749  43.846  12.955
 4246W        W69231  39.495  35.431  14.786
 4247W        W69232  17.801  20.082   2.153
 4248W        W69233   2.847  11.732  13.079
 4249W        W69234  23.482  16.159   0.268
 4250W        W69235  34.387   6.132  14.835
 4251W        W69236  12.220  38.140   1.795
 4252W        W69237  41.514  16.790  13.977
 4253W        W69238  14.212   2.830   1.018
 4254W        W69239  24.558  16.071   4.479
 4255W        W69240  19.696  26.474  12.881
 4256W        W69241  15.377   2.778  12.382
 4257W        W69242  44.913   2.034   3.394
 4258W        W69243  17.199  18.283   4.677
 4259W        W69244  27.408  28.112   4.097
 4260W        W69245  14.131   2.270   4.074
 4261W        W69246  39.903  18.159   1.829
 4262W        W69247   1.421  33.832   1.856
 4263W        W69248   8.937  32.484   1.916
 4264W        W69249  27.420  40.655  11.012
 4265W        W69250  10.865  41.101   3.187
 4266W        W69251  12.331   8.110  11.401
 4267W        W69252  35.016  27.686  13.357
 4268W        W69253   9.637  42.834   1.041
 4269W        W69254  31.142   1.313  11.549
 4270W        W69255   4.978  28.975  12.084
 4271W        W69256  35.831  26.126  11.484
 4272W        W69257  16.585  25.537  10.494
 4273W        W69258  42.726  21.539   0.518
 4274W        W69259  28.855  16.962  10.989
 4275W        W69260  25.509  19.777   4.764
 4276W        W69261  10.386  10.890  13.480
 4277W        W69262  24.477  28.015  12.080
 4278W        W69263  24.417  37.585  13.893
 4279W        W69264  13.285   8.354  12.963
 4280W        W69265  38.020  34.254   4.735
 4281W        W69266   7.711  34.579  12.532
 4282W        W69267  34.110  12.985   1.182
 4283W        W69268   9.785  11.424   4.517
 4284W        W69269   9.121  31.929   1.830
 4285W        W69270   8.258   0.383   4.314
 4286W        W69271  35.325  24.260   2.351
 4287W        W69272  16.786  40.029   4.190
 4288W        W69273  33.120  17.768  11.414
 4289W        W69274  13.322  14.342  11.079
 4290W        W69275  33.292  26.747   2.568
 4291W        W69276  13.865  27.658  14.289
 4292W        W69277  34.930  14.261   5.023
 4293W        W69278  32.695  13.677  12.547
 4294W        W69279  24.041  41.868   3.663
 4295W        W69280  28.147  39.928  14.802
 4296W        W69281  28.406  22.623   4.596
 4297W        W69282  42.477  32.228   4.231
 4298W        W69283  25.310  44.773   3.417
 4299W        W69284   9.370  25.523   0.861
 4300W        W69285   0.005  19.737   4.534
 4301W        W69286  24.558   4.909  13.895
 4302W        W69287   8.947   4.798   3.779
 4303W        W69288   7.601  21.677   3.183
 4304W        W69289  25.483  15.810  14.952
 4305W        W69290  40.343  34.537  13.037
 4306W        W69291  43.583  36.800   2.802
 4307W        W69292  19.647  36.407   2.176
 4308W        W69293  38.803  29.591   1.419
 4309W        W69294  27.712  40.223  10.677
 4310W        W69295  22.034  30.656   2.784
 4311W        W69296  34.621   6.346   5.032
 4312W        W69297  16.683   0.831   3.155
 4313W        W69298  30.596  10.353  12.613
 4314W        W69299  35.923  34.417  11.432
 4315W        W69300  12.116  19.074   4.081
 4316W        W69301  30.686   9.648  13.029
 4317W        W69302  23.291  28.977   1.531
 4318W        W69303  30.757  13.691   1.459
 4319W        W69304  41.739  22.482   1.657
 4320W        W69305  34.377  37.969  10.691
 4321W        W69306  17.170  26.194   2.835
 4322W        W69307  32.341  32.433   0.919
 4323W        W69308  11.233  25.211  11.490
 4324W        W69309  27.692  29.732  14.087
 4325W        W69310  17.616  26.888   4.095
 4326W        W69311  32.838  23.087   1.334
 4327W        W69312  16.362  24.707  11.148
 4328W        W69313   1.631  14.706   4.658
 4329W        W69314  21.135  42.361   3.262
 4330W        W69315  20.993  13.662  10.724
 4331W        W69316  18.837  15.385  14.919
 4332W        W69317  28.026  30.663   2.549
 4333W        W69318  39.689  27.120  13.322
 4334W        W69319  27.014  26.689   0.726
 4335W        W69320  39.981   9.383   4.642
 4336W        W69321  18.725  14.063   0.280
 4337W        W69322  17.258  12.059   1.978
 4338W        W69323  31.230   8.382   4.533
 4339W        W69324  23.454   1.897  13.373
 4340W        W69325  32.213  44.941  14.853
 4341W        W69326   6.138   3.487  11.590
 4342W        W69327  20.762  11.716   4.084
 4343W        W69328  15.616  12.868  14.408
 4344W        W69329  12.065  11.284   1.629
 4345W        W69330   7.731  38.318  10.861
 4346W        W69331  27.551  35.492  10.711
 4347W        W69332  41.554  24.094  13.811
 4348W        W69333  20.081  43.445  13.034
 4349W        W69334   1.550   1.794   1.161
 4350W        W69335  15.146  42.312  14.062
 4351W        W69336  10.978  39.837  12.062
 4352W        W69337  43.716   2.113  12.213
 4353W        W69338   6.499  44.439   3.201
 4354W        W69339  28.850   9.137   3.622
 4355W        W69340  24.451  18.149   1.339
 4356W        W69341  16.713  42.958  10.196
 4357W        W69342   5.489  14.459   0.429
 4358W        W69343  15.345   6.729   0.787
 4359W        W69344  23.287  39.952   2.190
 4360W        W69345  42.880  23.583   2.734
 4361W        W69346  44.692  16.824  12.612
 4362W        W69347  30.489  39.823  10.920
 4363W        W69348   4.400  11.316  11.839
 4364W        W69349  16.201   8.214   0.471
 4365W        W69350   0.506  37.481   1.485
 4366W        W69351   6.968  40.193  12.493
 4367W        W69352  34.148  24.670   0.349
 4368W        W69353  13.309  35.922   3.091
 4369W        W69354   5.897  30.251   5.128
 4370W        W69355  25.986  28.972   0.022
 4371W        W69356  11.003   8.351  10.343
 4372W        W69357  25.186  39.947  10.736
 4373W        W69358  15.141  10.987   0.379
 4374W        W69359   5.795   0.667  13.389
 4375W        W69360  40.543  13.181   2.642
 4376W        W69361  12.699   6.603   4.512
 4377W        W69362  33.482  11.718   4.904
 4378W        W69363   0.004  26.562  11.626
 4379W        W69364   5.235  13.752   2.113
 4380W        W69365   1.772   7.273  10.742
 4381W        W69366  27.732  10.599   1.807
 4382W        W69367  25.573  38.492   4.673
 4383W        W69368  17.584  33.867   4.114
 4384W        W69369   6.957  31.151  12.872
 4385W        W69370  21.130  44.230  11.231
 4386W        W69371  12.238  21.003   3.390
 4387W        W69372  32.488  12.206   2.921
 4388W        W69373   4.876  42.951  11.079
 4389W        W69374  38.729  10.093  12.592
 4390W        W69375  26.639  31.506  11.663
 4391W        W69376  12.561  10.396   3.205
 4392W        W69377  20.834  33.393  14.796
 4393W        W69378  10.434   9.143   1.274
 4394W        W69379  11.600   1.828  10.988
 4395W        W69380  26.814  25.273   0.820
 4396W        W69381   6.131   2.665  12.157
 4397W        W69382  42.911  25.077  13.383
 4398W        W69383   9.841   1.113  13.646
 4399W        W69384  35.393   8.294   1.374
 4400W        W69385  21.727   5.012   2.155
 4401W        W69386   9.417  17.642   0.500
 4402W        W69387  18.298  10.713   4.612
 4403W        W69388  32.400  32.585   0.041
 4404W        W69389  25.436  20.672   3.692
 4405W        W69390  20.538  12.763  11.517
 4406W        W69391  16.624  22.782   3.798
 4407W        W69392   7.431  17.560  14.188
 4408W        W69393  38.511  41.044  11.102
 4409W        W69394  22.470  34.568  14.243
 4410W        W69395   3.300  16.725   3.695
 4411W        W69396  29.405  19.757   3.554
 4412W        W69397   2.126  16.046  11.466
 4413W        W69398   1.824  41.344   3.590
 4414W        W69399  41.069   6.830  12.537
 4415W        W69400  37.764  41.779   3.410
 4416W        W69401  13.396   4.646  12.963
 4417W        W69402  18.768  30.603  12.424
 4418W        W69403  12.096  11.041   4.515
 4419W        W69404  28.955   5.320  10.954
 4420W        W69405  44.976  39.719   4.436
 4421W        W69406  20.703  33.685  11.005
 4422W        W69407  12.544  28.475   9.971
 4423W        W69408  12.209  23.446  12.366
 4424W        W69409  41.852   6.911  11.260
 4425W        W69410  43.630  21.721  14.347
 4426W        W69411   8.770  30.363   2.959
 4427W        W69412  22.969   9.989   0.507
 4428W        W69413  14.609  11.978  14.666
 4429W        W69414  34.188  24.809  14.286
 4430W        W69415  39.338  32.534   0.674
 4431W        W69416   3.350  44.295   9.928
 4432W        W69417  16.063  36.086   1.300
 4433W        W69418  36.128  36.394  13.567
 4434W        W69419  20.708  37.802  14.691
 4435W        W69420  41.416  19.105  12.623
 4436W        W69421  21.120  31.167   4.601
 4437W        W69422  19.149  32.634   3.819
 4438W        W69423   8.624  28.002  13.900
 4439W        W69424   7.953   1.859   1.931
 4440W        W69425  24.214   1.672  10.949
 4441W        W69426  39.914  38.303   0.307
 4442W        W69427  38.887  25.741   2.681
 4443W        W69428   7.437  21.162  13.520
 4444W        W69429  36.518  38.108  13.564
 4445W        W69430  42.953  24.655  12.435
 4446W        W69431  36.966  22.173  11.568
 4447W        W69432  12.877   2.658  12.252
 4448W        W69433  22.063  31.582   4.134
 4449W        W69434   4.473  39.551   0.925
 4450W        W69435  12.911  21.258  11.778
 4451W        W69436  17.804  21.671  13.964
 4452W        W69437  36.394  14.656  14.027
 4453W        W69438  32.938  21.243  10.946
 4454W        W69439   2.849  36.022  13.192
 4455W        W69440  38.319   5.728  11.739
 4456W        W69441  16.006  20.251   1.215
 4457W        W69442  21.149  43.349  11.103
 4458W        W69443  27.106  15.115   4.441
 4459W        W69444   5.397  23.759  11.678
 4460W        W69445  30.046  24.645   4.136
 4461W        W69446  39.668  21.315   2.488
 4462W        W69447  41.903  21.536   1.932
 4463W        W69448  36.116  39.811  12.495
 4464W        W69449  16.808  35.866   1.300
 4465W        W69450  21.055  18.182   4.585
 4466W        W69451  13.543  31.806   3.320
 4467W        W69452  20.836  40.813  13.880
 4468W        W69453  27.469  38.072   3.590
 4469W        W69454   0.482   3.166  13.402
 4470W        W69455  10.342  26.254  12.672
 4471W        W69456   8.410  20.593  10.635
 4472W        W69457  11.906   8.571   1.265
 4473W        W69458  12.093  37.336  13.232
 4474W        W69459   0.358  44.678  12.278
 4475W        W69460  11.657  31.054  12.053
 4476W        W69461   0.350   2.259  11.595
 4477W        W69462   4.780  14.690   2.802
 4478W        W69463  12.384  36.756   1.252
 4479W        W69464   7.868  38.536   4.549
 4480W        W69465  18.513  18.299  13.478
 4481W        W69466  35.592  27.933  14.629
 4482W        W69467   4.912  43.426   0.057
 4483W        W69468  44.873   3.369   0.892
 4484W        W69469  37.539  43.911  11.398
 4485W        W69470   6.607  30.443  10.766
 4486W        W69471  13.341  38.825  12.081
 4487W        W69472  10.789  21.308  12.482
 4488W        W69473   8.805   2.749   4.018
 4489W        W69474  27.248   0.941  11.978
 4490W        W69475  37.894  30.028   4.416
 4491W        W69476  10.276  14.459  13.804
 4492W        W69477  33.296  28.009   1.631
 4493W        W69478  14.840   6.872   0.772
 4494W        W69479   9.119  40.966  11.943
 4495W        W69480  10.855  43.470   1.848
 4496W        W69481  28.204  22.476  13.141
 4497W        W69482  22.984  33.706   3.690
 4498W        W69483  44.499   8.361   2.871
 4499W        W69484   1.381  33.468  14.782
 4500W        W69485  32.517   6.184   2.432
 4501W        W69486  26.759  10.655   0.305
 4502W        W69487  34.540   0.979  13.526
 4503W        W69488  26.118  39.000  13.384
 4504W        W69489  15.261  11.039   2.275
 4505W        W69490  26.698  26.301  10.655
 4506W        W69491  12.037  21.562  14.109
 4507W        W69492  39.340  35.480   0.300
 4508W        W69493  24.445  11.746  12.176
 4509W        W69494  17.785  22.184  10.267
 4510W        W69495  33.395   5.655  13.252
 4511W        W69496   6.736  43.348   2.401
 4512W        W69497  30.060  43.036  11.892
 4513W        W69498  29.560  33.675  11.254
 4514W        W69499  18.958  28.476  11.357
 4515W        W69500  32.007  25.631  14.426
 4516W        W69501  28.087  26.973   3.961
 4517W        W69502   4.011   6.672  11.017
 4518W        W69503   6.767  18.710  11.667
 4519W        W69504  20.757  26.702   3.722
 4520W        W69505  31.486  21.083   3.205
 4521W        W69506  41.099  24.531   4.106
 4522W        W69507   0.087  20.010  10.204
 4523W        W69508  34.886   9.737   1.904
 4524W        W69509  11.901   3.214   0.959
 4525W        W69510  41.558   4.738  11.677
 4526W        W69511  19.546   3.864   3.328
 4527W        W69512   2.049  32.588   1.729
 4528W        W69513  23.105  11.078   4.073
 4529W        W69514  30.084  32.391   1.858
 4530W        W69515  45.000  36.974   3.634
 4531W        W69516  43.044  42.858  14.182
 4532W        W69517  31.576  26.948   3.169
 4533W        W69518   0.737  19.816  12.433
 4534W        W69519   9.793  38.857   3.671
 4535W        W69520  29.478  32.983   3.263
 4536W        W69521  44.426   3.376   1.210
 4537W        W69522  20.586   3.933   0.653
 4538W        W69523  22.250  10.071   3.781
 4539W        W69524  11.402  42.380   3.084
 4540W        W69525  12.101  23.778  13.089
 4541W        W69526  26.654  34.702   3.202
 4542W        W69527  12.468   3.566  13.220
 4543W        W69528  20.553   1.488   3.119
 4544W        W69529  33.103   0.687  14.445
 4545W        W69530  19.185  21.749  14.317
 4546W        W69531  17.195  25.924   1.829
 4547W        W69532  19.244  12.667  13.509
 4548W        W69533   7.215  35.177  11.167
 4549W        W69534  11.278  26.923  14.032
 4550W        W69535  22.695   7.144   2.913
 4551W        W69536   9.474  32.028   2.494
 4552W        W69537   4.208  37.545  12.506
 4553W        W69538  35.268  27.995  13.707
 4554W        W69539   8.298  27.116   3.585
 4555W        W69540  35.954   0.944  11.671
 4556W        W69541  36.415  42.727   3.908
 4557W        W69542  12.029  22.591   1.568
 4558W        W69543   4.723   8.895  11.108
 4559W        W69544  40.542  22.477  12.142
 4560W        W69545  25.204   6.427  12.879
 4561W        W69546  36.315   2.459   4.069
 4562W        W69547  30.910  43.170   4.452
 4563W        W69548  44.350   4.250  13.937
 4564W        W69549  23.213  30.254  12.463
 4565W        W69550  12.101  29.747  13.024
 4566W        W69551  36.357   1.483  12.863
 4567W        W69552  29.716   1.681   5.407
 4568W        W69553   0.441  22.496  11.170
 4569W        W69554  25.838   8.733  12.883
 4570W        W69555  30.847  18.758  13.066
 4571W        W69556  37.047  43.317  10.964
 4572W        W69557  33.462  22.362   2.671
 4573W        W69558  44.848   6.411  12.362
 4574W        W69559   3.335  28.983  13.930
 4575W        W69560   5.677  22.560  10.672
 4576W        W69561  16.267  42.441  10.679
 4577W        W69562  35.412  32.139  11.656
 4578W        W69563   2.690  44.940  11.517
 4579W        W69564  24.870   2.326   3.833
 4580W        W69565  43.852  36.352   3.584
 4581W        W69566  22.947  32.528  11.830
 4582W        W69567  25.466   8.364  12.916
 4583W        W69568   5.290  17.800   4.843
 4584W        W69569  38.951  14.299  11.042
 4585W        W69570  40.590  44.381   4.302
 4586W        W69571   2.213   7.934  12.537
 4587W        W69572   5.429   2.393   0.344
 4588W        W69573  21.199  34.554  10.478
 4589W        W69574  30.336  26.167   2.790
 4590W        W69575   8.203  12.327   3.675
 4591W        W69576   9.145  19.024  13.840
 4592W        W69577  13.046   5.341   1.994
 4593W        W69578  29.128  41.976  14.206
 4594W        W69579  27.965  21.070  12.882
 4595W        W69580  27.536  12.202   4.617
 4596W        W69581  26.689  10.165   0.893
 4597W        W69582  36.888  14.520   4.725
 4598W        W69583   6.420   9.392  12.124
 4599W        W69584  33.387   1.508   3.345
 4600W        W69585  40.725  24.707   4.970
 4601W        W69586  30.625  31.384  12.903
 4602W        W69587  32.847  29.902  12.922
 4603W        W69588  39.982  44.393  11.105
 4604W        W69589  23.504  21.797   3.187
 4605W        W69590  41.372  33.582  13.352
 4606W        W69591  37.134  35.118  14.932
 4607W        W69592  44.011   1.715   2.989
 4608W        W69593  23.987   6.202   2.738
 4609W        W69594   8.405  19.030  11.583
 4610W        W69595   9.801  44.464  12.090
 4611W        W69596  34.115  27.959   1.314
 4612W        W69597   8.318   0.762   2.976
 4613W        W69598  10.313  23.747   1.841
 4614W        W69599  17.652  40.828   2.787
 4615W        W69600  15.936   7.798   4.319
 4616W        W69601  20.035   6.779  14.289
 4617W        W69602  40.452  39.251   1.044
 4618W        W69603  14.778  11.343   4.824
 4619W        W69604  20.673  26.268  12.420
 4620W        W69605   2.086   5.579  14.825
 4621W        W69606  23.160   1.828   4.669
 4622W        W69607  38.272  21.793  11.143
 4623W        W69608  34.533   2.412  12.137
 4624W        W69609   2.660  15.040   2.789
 4625W        W69610  31.160  23.631  12.246
 4626W        W69611   6.200   2.093  11.454
 4627W        W69612  18.141  18.526  13.773
 4628W        W69613   9.785   8.166  14.586
 4629W        W69614  11.634  24.172   5.018
 4630W        W69615  14.820  12.197   3.388
 4631W        W69616  15.585   3.231  12.148
 4632W        W69617   0.577  25.917  13.842
 4633W        W69618   3.671   4.263  14.960
 4634W        W69619  21.058  20.239   2.428
 4635W        W69620  19.278  41.287   4.469
 4636W        W69621   1.949  36.026  13.961
 4637W        W69622  22.614  18.090  14.247
 4638W        W69623  25.180  13.279   1.476
 4639W        W69624  28.660  40.174   4.556
 4640W        W69625   1.445   6.520  10.734
 4641W        W69626  42.883  16.250  14.312
 4642W        W69627   4.020  37.900   2.447
 4643W        W69628  21.222  43.308   0.863
 4644W        W69629  19.917  27.909   2.548
 4645W        W69630  34.321  32.934   0.133
 4646W        W69631  38.987  35.121   0.508
 4647W        W69632  31.888   6.718  13.884
 4648W        W69633  39.365  31.523   4.385
 4649W        W69634   1.296  28.682  13.302
 4650W        W69635  28.578  18.456   0.415
 4651W        W69636  20.286   5.174   0.827
 4652W        W69637  14.721  23.549  14.219
 4653W        W69638  43.712  43.257  12.324
 4654W        W69639  21.641  24.955  11.478
 4655W        W69640   1.479  28.434   3.701
 4656W        W69641  42.588  11.195   2.814
 4657W        W69642   7.342  31.935  11.264
 4658W        W69643   3.787  26.912   3.580
 4659W        W69644  43.779  42.574   0.735
 4660W        W69645  43.826  32.401   3.588
 4661W        W69646  37.974  17.403   4.087
 4662W        W69647  26.449   2.924   3.271
 4663W        W69648  36.157   2.479   0.037
 4664W        W69649  22.225  24.186  11.522
 4665W        W69650  39.645   1.353   2.192
 4666W        W69651  16.345  27.222   4.071
 4667W        W69652  30.135  16.236  12.570
 4668W        W69653  44.245  38.515   4.157
 4669W        W69654   8.601   3.838  11.424
 4670W        W69655  35.922  17.274   0.793
 4671W        W69656  42.246   9.205  11.071
 4672W        W69657  40.692  22.641   0.965
 4673W        W69658  28.420  26.434  11.079
 4674W        W69659  34.848  26.400   0.078
 4675W        W69660   8.160  16.489  14.753
 4676W        W69661   5.847  33.541   1.626
 4677W        W69662   6.504  10.557  14.693
 4678W        W69663  43.091  21.125  13.733
 4679W        W69664  31.613  28.624   1.368
 4680W        W69665  38.543   8.346   2.315
 4681W        W69666  33.915   8.213  13.014
 4682W        W69667  24.477  19.608   4.504
 4683W        W69668   8.177   3.416  12.423
 4684W        W69669  32.411  13.179   0.927
 4685W        W69670   7.967   8.828   1.920
 4686W        W69671  27.140  11.304   4.852
 4687W        W69672  12.829  13.634   0.512
 4688W        W69673  32.314  32.511   2.577
 4689W        W69674  39.443  29.071  14.626
 4690W        W69675  29.010  42.368  11.782
 4691W        W69676  21.047  33.996  13.180
 4692W        W69677  33.455   2.701   2.123
 4693W        W69678   8.230  31.496   1.411
 4694W        W69679  42.931  36.870   0.835
 4695W        W69680   3.950  17.545  11.152
 4696W        W69681  28.498  27.435  13.907
 4697W        W69682  34.783  39.101  11.736
 4698W        W69683  44.759  27.006  11.620
 4699W        W69684  26.206  23.520  13.427
 4700W        W69685  20.983  29.993  10.685
 4701W        W69686   8.869  32.352   3.205
 4702W        W69687  42.857  22.104  14.757
 4703W        W69688   6.554  13.459  12.015
 4704W        W69689  11.502  37.340   2.723
 4705W        W69690   1.666   2.146   1.809
 4706W        W69691  12.225  29.434  12.656
 4707W        W69692  32.904   9.267  14.913
 4708W        W69693  19.271  16.139   1.530
 4709W        W69694  31.151  44.825   3.176
 4710W        W69695  18.571  13.060   0.344
 4711W        W69696  13.652  42.802   0.143
 4712W        W69697  41.943  18.654  10.615
 4713W        W69698   6.860   8.845   4.004
 4714W        W69699  11.061  38.482  10.684
 4715W        W69700  42.881  28.988   3.715
 4716W        W69701  41.647  29.575  10.311
 4717W        W69702  21.542  34.503  11.428
 4718W        W69703   8.105   1.569  13.772
 4719W        W69704   1.441  41.526  10.697
 4720W        W69705  23.136  33.360  14.740
 4721W        W69706  24.329  26.042   1.129
 4722W        W69707   2.931  23.585   0.142
 4723W        W69708  10.767  44.936  11.635
 4724W        W69709   3.032  12.659   1.474
 4725W        W69710  40.022   2.333   2.496
 4726W        W69711   8.420  20.519  14.491
 4727W        W69712  31.578  43.560  13.389
 4728W        W69713  17.167  20.876  12.173
 4729W        W69714  32.006  43.004   1.642
 4730W        W69715  15.129  31.564   4.803
 4731W        W69716  36.026  33.654   4.079
 4732W        W69717  18.759  36.957  13.970
 4733W        W69718  20.729  25.809   3.273
 4734W        W69719   4.292   6.010   1.880
 4735W        W69720  43.719   9.270  10.976
 4736W        W69721  44.832  27.480   1.666
 4737W        W69722  12.580   7.771   5.003
 4738W        W69723   5.750   4.577  12.135
 4739W        W69724  24.792   1.699   1.282
 4740W        W69725  32.635  16.620  11.581
 4741W        W69726  20.463  33.976  10.639
 4742W        W69727  14.521  14.858   0.797
 4743W        W69728   0.395  39.309   2.823
 4744W        W69729   8.744  16.126   1.069
 4745W        W69730   3.763  31.047  13.986
 4746W        W69731  43.199  12.467   0.872
 4747W        W69732   1.910  17.346   0.287
 4748W        W69733  39.927  23.526   2.382
 4749W        W69734  44.052  32.448   0.427
 4750W        W69735  43.522  15.599   0.811
 4751W        W69736  19.827  15.072  13.844
 4752W        W69737  34.868  44.292  10.654
 4753W        W69738  41.317  23.616  13.617
 4754W        W69739   1.805  23.095  11.116
 4755W        W69740  23.615  31.177   0.186
 4756W        W69741   8.379  41.823  11.006
 4757W        W69742  15.580  25.483   0.271
 4758W        W69743  41.296  12.280   2.830
 4759W        W69744   9.446  11.298  11.325
 4760W        W69745  16.657  31.194  13.317
 4761W        W69746  33.007  20.400   0.984
 4762W        W69747  21.863  40.599  12.425
 4763W        W69748  28.787  35.557  11.997
 4764W        W69749  24.155   1.089   2.317
 4765W        W69750   6.227  16.573   3.042
 4766W        W69751  38.008   5.640  14.507
 4767W        W69752  11.107  16.228   2.173
 4768W        W69753   5.626  29.403  11.924
 4769W        W69754  33.551  10.127   2.771
 4770W        W69755  34.436  43.684   4.324
 4771W        W69756  20.944  41.127   2.791
 4772W        W69757  15.698  34.482  13.047
 4773W        W69758   2.808   2.786   3.191
 4774W        W69759  33.910  40.341  11.224
 4775W        W69760   2.182  43.366   4.565
 4776W        W69761  32.732  19.011  12.908
 4777W        W69762  25.235  13.756  13.885
 4778W        W69763   2.085  28.679   3.651
 4779W        W69764  41.835  23.605  14.873
 4780W        W69765  35.556  18.707   4.393
 4781W        W69766  19.592  28.623  12.419
 4782W        W69767  36.830  29.083   2.432
 4783W        W69768  35.976  28.507   2.243
 4784W        W69769  41.305   8.726  10.749
 4785W        W69770  34.081  11.298  14.361
 4786W        W69771  42.524  31.859  10.807
 4787W        W69772  30.611  33.988   1.740
 4788W        W69773  16.761   9.946   0.359
 4789W        W69774   3.428   5.022   4.147
 4790W        W69775   9.694  10.798  10.905
 4791W        W69776  12.068  30.100  14.349
 4792W        W69777  26.438  43.582   2.774
 4793W        W69778   0.244  11.800  12.396
 4794W        W69779  22.462  13.987   3.660
 4795W        W69780   0.203  12.726   4.085
 4796W        W69781  15.933  24.222  13.952
 4797W        W69782  11.339  37.100   1.861
 4798W        W69783  11.203  37.381   2.289
 4799W        W69784   6.883  14.339  12.162
 4800W        W69785   8.787   7.363   0.432
 4801W        W69786   4.930  41.985  11.147
 4802W        W69787  27.634   4.825   3.239
 4803W        W69788  42.918   6.145   3.200
 4804W        W69789  10.512  44.344   1.947
 4805W        W69790   4.683  22.241  13.091
 4806W        W69791  44.289  26.757  13.939
 4807W        W69792  19.083   5.682   2.387
 4808W        W69793   4.877  22.231   3.168
 4809W        W69794  42.255  23.952  12.609
 4810W        W69795   2.692  13.626  13.049
 4811W        W69796  28.607  34.994   0.651
 4812W        W69797  10.541  16.041  13.459
 4813W        W69798   3.176   2.728   4.990
 4814W        W69799  23.481  10.904  14.289
 4815W        W69800  27.653  35.233   2.118
 4816W        W69801  30.033  14.269   1.797
 4817W        W69802  12.251   2.381  13.270
 4818W        W69803  25.210  44.986   1.454
 4819W        W69804  35.028  15.076  11.971
 4820W        W69805   6.195  32.149  14.542
 4821W        W69806  22.408   7.490   1.734
 4822W        W69807  39.331  23.249  14.291
 4823W        W69808  14.751  41.064  10.731
 4824W        W69809  26.570  11.744  14.078
 4825W        W69810  27.469  15.726  10.608
 4826W        W69811  40.006   3.151  11.035
 4827W        W69812   8.358  44.244  13.059
 4828W        W69813  19.313  42.351  12.793
 4829W        W69814   3.854  37.841  14.389
 4830W        W69815  19.148  31.929  14.016
 4831W        W69816  26.696   6.048   0.812
 4832W        W69817  23.783  33.576   3.116
 4833W        W69818  42.969  44.226   0.733
 4834W        W69819  33.690  28.503   0.384
 4835W        W69820  17.466  26.751  10.235
 4836W        W69821   1.842   1.892  13.033
 4837W        W69822  35.685  39.768  13.901
 4838W        W69823  41.773  29.511   2.380
 4839W        W69824   0.721  32.543  13.053
 4840W        W69825  27.169   2.139   3.245
 4841W        W69826   0.818  43.807   0.876
 4842W        W69827  13.380   1.932  13.418
 4843W        W69828   9.429  17.521   1.730
 4844W        W69829  31.431  23.533   4.542
 4845W        W69830  15.745  14.762   1.300
 4846W        W69831  34.196  29.911  11.996
 4847W        W69832  31.685  33.862   0.805
 4848W        W69833  34.019  30.120  12.573
 4849W        W69834   9.334   8.372   0.965
 4850W        W69835  23.634   4.283  13.047
 4851W        W69836  34.167  17.750  10.631
 4852W        W69837  16.582   1.058  14.576
 4853W        W69838  22.658  25.880  13.820
 4854W        W69839   6.669  26.626  11.015
 4855W        W69840  19.815   9.443  12.109
 4856W        W69841   5.378  28.046   2.649
 4857W        W69842  29.873  44.422   4.491
 4858W        W69843  14.246  40.005   2.248
 4859W        W69844  30.296  42.661   1.299
 4860W        W69845  34.149   7.080   0.829
 4861W        W69846  39.287  44.399   0.765
 4862W        W69847  21.869  30.832   3.478
 4863W        W69848  40.266   4.491   3.298
 4864W        W69849  27.203  26.488  14.727
 4865W        W69850  23.934  21.195  11.911
 4866W        W69851  12.651  34.974  14.820
 4867W        W69852   3.022  42.827  11.646
 4868W        W69853   0.434   0.020  10.803
 4869W        W69854  16.150  39.061   4.844
 4870W        W69855  35.566  26.061   3.911
 4871W        W69856   0.450  30.066  10.893
 4872W        W69857  38.171  37.258   5.581
 4873W        W69858  12.193  29.564  10.522
 4874W        W69859  30.210   0.083   1.246
 4875W        W69860  20.687  39.886  10.449
 4876W        W69861   6.179  29.930   2.118
 4877W        W69862   4.286  42.808  13.437
 4878W        W69863  39.638  36.482  12.184
 4879W        W69864  19.676  37.428   3.349
 4880W        W69865   4.973  19.323   0.847
 4881W        W69866  42.775  44.863  11.857
 4882W        W69867  29.105  36.832   4.167
 4883W        W69868   2.875   6.649  10.669
 4884W        W69869  18.998  42.835   0.850
 4885W        W69870  42.459  27.147  12.029
 4886W        W69871  42.774  29.458  13.879
 4887W        W69872   0.359  33.150   4.650
 4888W        W69873   9.220  21.005   3.686
 4889W        W69874  15.290  23.125   0.264
 4890W        W69875   5.393  38.072   3.833
 4891W        W69876  17.318  31.381  14.477
 4892W        W69877  25.486  44.836  12.622
 4893W        W69878  29.131  24.227  13.048
 4894W        W69879  23.035  33.620   4.558
 4895W        W69880   9.615   7.921  12.082
 4896W        W69881  15.072  44.162  13.808
 4897W        W69882  15.079  11.675   2.388
 4898W        W69883  20.154   9.100  13.061
 4899W        W69884  31.564  10.853  10.857
 4900W        W69885  44.551  32.895   2.817
 4901W        W69886  17.283  12.419  13.318
 4902W        W69887  34.407   6.387   3.743
 4903W        W69888   8.838   2.442   0.392
 4904W        W69889   6.313  33.886   0.947
 4905W        W69890  27.100  11.602  10.684
 4906W        W69891  16.267  16.390  14.284
 4907W        W69892   1.272  24.489  11.623
 4908W        W69893   2.471  44.953   2.302
 4909W        W69894  22.029  20.689  14.530
 4910W        W69895  19.335   4.908  10.710
 4911W        W69896   0.374  17.003  13.854
 4912W        W69897  12.042  31.925   4.707
 4913W        W69898   6.268  24.160  11.455
 4914W        W69899  42.808  16.511   0.369
 4915W        W69900  11.707  23.920   3.132
 4916W        W69901  27.661  17.313  14.526
 4917W        W69902   0.443   9.881  10.702
 4918W        W69903   2.979   5.346  11.316
 4919W        W69904   7.376  31.151  10.753
 4920W        W69905  17.666  34.645  10.977
 4921W        W69906   8.902  40.410   3.423
 4922W        W69907   8.116  23.266   2.245
 4923W        W69908  20.777  32.005  13.635
 4924W        W69909  18.154  40.849  14.972
 4925W        W69910  20.094  13.636  10.525
 4926W        W69911  15.749  35.101  13.263
 4927W        W69912   2.540  33.064  14.373
 4928W        W69913   3.425  23.847  14.305
 4929W        W69914  21.768  11.920   0.307
 4930W        W69915   5.336  43.671   1.813
 4931W        W69916  20.449  13.378  14.669
 4932W        W69917  18.388   7.902  14.509
 4933W        W69918  29.989   1.312   2.910
 4934W        W69919   4.205  41.540   1.216
 4935W        W69920  29.081  22.036   2.402
 4936W        W69921  37.239  24.041  10.858
 4937W        W69922  11.328  22.143  11.037
 4938W        W69923  33.403   0.347   2.339
 4939W        W69924  15.790  17.100   0.481
 4940W        W69925  10.599   9.823  10.989
 4941W        W69926  21.667  37.378   3.790
 4942W        W69927  31.613  23.051  13.880
 4943W        W69928  26.627   0.155  10.152
 4944W        W69929  18.723   8.928  11.571
 4945W        W69930   8.111  38.402   3.607
 4946W        W69931   7.076   9.268  10.502
 4947W        W69932   3.375  22.053   3.110
 4948W        W69933  37.556  33.514   5.071
 4949W        W69934   8.661   1.751   1.029
 4950W        W69935  26.703   0.011  14.322
 4951W        W69936  23.724  22.025   0.492
 4952W        W69937   6.724  30.151   1.447
 4953W        W69938  43.438  43.569   1.796
 4954W        W69939  42.349  24.333  14.947
 4955W        W69940  41.876  29.708  13.579
 4956W        W69941  37.067  23.802   0.383
 4957W        W69942  24.478  35.047  14.962
 4958W        W69943  38.473  30.130   2.102
 4959W        W69944   2.969  20.103  11.920
 4960W        W69945   5.527   3.635   1.274
 4961W        W69946  16.696   6.964   0.405
 4962W        W69947   6.309  33.379  12.399
 4963W        W69948  43.319  13.432  12.501
 4964W        W69949  22.078  31.118   1.345
 4965W        W69950  11.438  13.711   4.554
 4966W        W69951   4.958  24.805   0.470
 4967W        W69952  44.444  44.575   1.756
 4968W        W69953  27.172   9.162  13.045
 4969W        W69954  31.041  36.542   2.212
 4970W        W69955  19.042  27.499  12.309
 4971W        W69956   1.704  17.503   0.899
 4972W        W69957  25.252  32.884  12.475
 4973W        W69958  32.950  11.728  13.328
 4974W        W69959  17.818  37.556   1.233
 4975W        W69960  14.371  31.954   0.351
 4976W        W69961  38.908  14.811  13.146
 4977W        W69962  29.660   8.971   3.707
 4978W        W69963  29.119   8.243   3.369
 4979W        W69964   4.016  20.462   4.127
 4980W        W69965  40.804  12.208   2.963
 4981W        W69966   4.168   4.936  12.916
 4982W        W69967   4.745  42.820   1.475
 4983W        W69968  11.592   9.206   0.694
 4984W        W69969  25.488  12.867  12.051
 4985W        W69970  20.252  37.861   4.534
 4986W        W69971  19.196   1.679  13.028
 4987W        W69972  43.571  36.838   0.389
 4988W        W69973   8.639  32.767  10.903
 4989W        W69974  11.346  13.318  11.228
 4990W        W69975  17.078  36.117  13.907
 4991W        W69976   6.225  10.233  13.407
 4992W        W69977  29.607  27.071  13.910
 4993W        W69978  29.945  21.481   0.506
 4994W        W69979   6.787  19.779   3.277
 4995W        W69980  13.991  33.341  10.687
 4996W        W69981  21.637  36.904  12.061
 4997W        W69982   9.656  18.591   4.081
 4998W        W69983  16.777   6.934  12.013
 4999W        W69984   4.547  19.025   0.814
 5000W        W69985  16.920   6.255   0.024
 5001W        W69986  14.204  43.668   3.664
 5002W        W69987   5.203  39.976   0.766
 5003W        W69988  35.453  11.911  11.242
 5004W        W69989   4.516  41.398   4.160
 5005W        W69990  24.585  36.943  11.601
 5006W        W69991  24.561  15.838  12.240
 5007W        W69992   4.100  17.619  12.876
 5008W        W69993  20.803  20.377  13.873
 5009W        W69994  22.775  42.885   4.137
 5010W        W69995  36.045  15.827   4.143
 5011W        W69996  31.060  42.813  13.520
 5012W        W69997  15.322  20.374  11.901
 5013W        W69998  14.102  32.062   2.216
 5014W        W69999  14.514  21.270   0.358
 5015W        W70000  38.458   4.277   1.217
 5016W        W70001  43.622  25.781   4.994
 5017W        W70002  23.967  38.768  14.636
 5018W        W70003   2.298  38.878   3.711
 5019W        W70004   5.804  43.883   1.288
 5020W        W70005  16.692  25.112   3.032
 5021W        W70006  33.819  19.189  12.085
 5022W        W70007  36.953   1.653   1.995
 5023W        W70008  26.575  24.572   1.163
 5024W        W70009  12.918  18.764   4.590
 5025W        W70010  42.690   7.728  13.834
 5026W        W70011  16.741  31.122   4.571
 5027W        W70012   0.689  38.590   2.225
 5028W        W70013  31.061  28.930   4.578
 5029W        W70014  24.792   9.573  12.530
 5030W        W70015  39.012  16.957   5.527
 5031W        W70016  27.922  17.586   4.678
 5032W        W70017  35.016  23.754  11.153
 5033W        W70018  21.273  12.533  11.342
 5034W        W70019  38.498  40.037  13.574
 5035W        W70020  17.611   8.717   0.811
 5036W        W70021  40.228  32.057  11.737
 5037W        W70022  15.586  40.916   2.768
 5038W        W70023  31.640  22.760  10.739
 5039W        W70024  14.129  15.956  13.560
 5040W        W70025  42.853  37.496   4.292
 5041W        W70026  44.723  41.846   0.300
 5042W        W70027   5.271  41.915  12.371
 5043W        W70028  14.198  27.412   1.874
 5044W        W70029  34.097  40.113   1.414
 5045W        W70030  28.517  22.700  11.815
 5046W        W70031  16.576  40.101   3.305
 5047W        W70032  10.245  31.847  12.344
 5048W        W70033  31.894  36.003  11.614
 5049W        W70034  36.375  15.168   2.099
 5050W        W70035  15.820  10.660  13.349
 5051W        W70036   2.561   4.476  11.250
 5052W        W70037  25.545   0.773   0.224
 5053W        W70038   1.368  32.102   2.136
 5054W        W70039  44.482  16.309  10.855
 5055W        W70040  25.600  40.063   1.755
 5056W        W70041  17.333  35.700  12.581
 5057W        W70042   9.169  17.354   2.180
 5058W        W70043   4.216   5.463   2.756
 5059W        W70044  32.201  39.319  10.679
 5060W        W70045  32.219  39.701  12.518
 5061W        W70046  23.593  15.230  11.476
 5062W        W70047   9.351   4.336  12.654
 5063W        W70048  38.561  21.501  11.518
 5064W        W70049  26.586  42.200   0.902
 5065W        W70050  21.429   3.212  12.958
 5066W        W70051  33.379   1.003   3.309
 5067W        W70052  43.541  25.604  10.613
 5068W        W70053  28.154  26.880   2.043
 5069W        W70054  36.378  34.529  14.863
 5070W        W70055  38.950  26.728   3.147
 5071W        W70056  40.057   0.220  14.221
 5072W        W70057  31.538  31.710   2.569
 5073W        W70058  28.219   4.807   2.227
 5074W        W70059  18.781  41.658  12.555
 5075W        W70060  36.396  35.798   0.885
 5076W        W70061  26.744  14.646  14.643
 5077W        W70062  22.953  35.104   0.850
 5078W        W70063   2.651  19.189   1.324
 5079W        W70064  29.482  43.657   0.946
 5080W        W70065  43.267  44.393  13.581
 5081W        W70066  40.152   9.059   2.906
 5082W        W70067  14.116  34.058  12.555
 5083W        W70068   3.090  39.040   3.367
 5084W        W70069   9.721  14.135   3.202
 5085W        W70070   5.756  13.720   3.931
 5086W        W70071  29.500  37.943  10.603
 5087W        W70072  41.010  40.045   1.360
 5088W        W70073  29.198  19.503   3.148
 5089W        W70074  42.735  32.508   1.736
 5090W        W70075  41.266  30.555   1.882
 5091W        W70076  13.439  34.665  12.441
 5092W        W70077   9.197  18.271   0.697
 5093W        W70078  26.439  39.600   2.705
 5094W        W70079  42.535  42.119  12.346
 5095W        W70080   4.746  25.567   4.416
 5096W        W70081  42.085  19.056  11.535
 5097W        W70082  17.342  21.800  11.948
 5098W        W70083  37.960  34.564   2.661
 5099W        W70084  19.541  12.001   3.567
 5100W        W70085   4.455   5.250   4.643
 5101W        W70086  24.717  24.247  14.491
 5102W        W70087  42.799   6.652   4.126
 5103W        W70088  13.148  40.473  14.029
 5104W        W70089   5.189  24.902   1.099
 5105W        W70090  25.563  19.740   0.229
 5106W        W70091   7.175  19.148   2.830
 5107W        W70092   2.462   7.532  13.427
 5108W        W70093  12.353  27.209   1.861
 5109W        W70094   7.212  11.349   3.790
 5110W        W70095  29.425   3.352  14.306
 5111W        W70096   8.641  37.799  11.541
 5112W        W70097  20.429  35.114  11.289
 5113W        W70098  26.540  33.223   3.161
 5114W        W70099  13.846   1.463   1.788
 5115W        W70100  19.225  26.877   2.047
 5116W        W70101  29.404   2.345  13.479
 5117W        W70102  13.133  29.548   1.818
 5118W        W70103  13.254   7.006  12.666
 5119W        W70104  31.935   7.427  14.775
 5120W        W70105  13.113  42.743   3.655
 5121W        W70106  27.987  17.556   4.135
 5122W        W70107   3.699   7.324   4.290
 5123W        W70108  27.746  34.947  14.950
 5124W        W70109  21.084  41.311  13.909
 5125W        W70110   8.220  35.087  13.716
 5126W        W70111  38.855  14.915  14.907
 5127W        W70112  42.999  39.101   1.776
 5128W        W70113  10.649  31.429   1.785
 5129W        W70114  22.648  38.662  14.429
 5130W        W70115  39.473  21.626   0.955
 5131W        W70116   0.775  35.856   0.435
 5132W        W70117  44.017  28.725   3.171
 5133W        W70118  12.336  23.246   4.229
 5134W        W70119  15.337  21.478  14.631
 5135W        W70120  19.756  21.504  12.006
 5136W        W70121  16.730  11.755   3.979
 5137W        W70122   2.766  32.942  13.363
 5138W        W70123  32.101   7.347  14.297
 5139W        W70124  28.464  35.803   4.120
 5140W        W70125  43.041  26.422   3.323
 5141W        W70126  10.104  26.474   2.275
 5142W        W70127  20.096  11.314   0.963
 5143W        W70128  14.134  14.735  10.612
 5144W        W70129  39.326  32.578   4.176
 5145W        W70130  36.621  44.485  12.513
 5146W        W70131  16.923  19.613  10.901
 5147W        W70132   6.789  23.968   0.189
 5148W        W70133  35.578  32.542   2.436
 5149W        W70134  38.429  39.580  12.535
 5150W        W70135  32.378  42.299   1.765
 5151W        W70136  41.769  42.408   4.909
 5152W        W70137  24.806  42.845   1.640
 5153W        W70138  21.574  36.533  12.531
 5154W        W70139  38.769   6.826   1.799
 5155W        W70140  13.356  35.374   2.896
 5156W        W70141  22.517  25.490  14.911
 5157W        W70142  17.235  38.872   0.767
 5158W        W70143  44.898   3.550  12.782
 5159W        W70144  13.051  27.095   4.578
 5160W        W70145  19.883  18.842  10.613
 5161W        W70146  25.448  35.350   0.779
 5162W        W70147  44.341  17.679   2.223
 5163W        W70148   7.234  36.981  13.629
 5164W        W70149  30.436   0.240  14.835
 5165W        W70150   6.788  24.234  10.774
 5166W        W70151  34.557  16.363  13.152
 5167W        W70152   7.388   5.303   2.841
 5168W        W70153   7.299   5.349   0.259
 5169W        W70154   7.353   6.562   0.745
 5170W        W70155  28.585   6.351  13.876
 5171W        W70156  36.820   3.898   4.161
 5172W        W70157   9.923  16.848   2.952
 5173W        W70158   7.921   1.065   2.178
 5174W        W70159   8.612  34.983  14.048
 5175W        W70160  36.447  11.025  13.492
 5176W        W70161   4.867  32.144   1.189
 5177W        W70162   7.091  19.013   0.574
 5178W        W70163  40.339  18.138  14.365
 5179W        W70164  35.029  12.838   2.398
 5180W        W70165  30.487   7.927   3.177
 5181W        W70166  28.554  40.571  13.322
 5182W        W70167  24.036   1.897   1.863
 5183W        W70168  33.589  24.149   4.184
 5184W        W70169  33.233  30.882   2.788
 5185W        W70170   3.647  30.130   0.321
 5186W        W70171  31.517  22.546  14.039
 5187W        W70172  44.646  21.502  14.416
 5188W        W70173  11.739  18.237   2.872
 5189W        W70174  42.315  30.682   1.354
 5190W        W70175  36.404  38.436   2.853
 5191W        W70176   0.237  17.158   2.643
 5192W        W70177  26.086  34.337   0.230
 5193W        W70178  13.194  40.401  12.194
 5194W        W70179  12.874  15.484  11.501
 5195W        W70180  23.757  11.679  13.931
 5196W        W70181  39.270   0.416   1.187
 5197W        W70182  12.634  15.357  14.007
 5198W        W70183  15.891  20.723  12.467
 5199W        W70184  26.001   9.447  11.162
 5200W        W70185  14.610  15.657   4.553
 5201W        W70186  32.706   9.955   4.953
 5202W        W70187  44.556   8.916   4.609
 5203W        W70188  28.108  40.065  11.190
 5204W        W70189   0.347  15.814   4.364
 5205W        W70190  27.591   8.627  10.745
 5206W        W70191  24.691   1.310  14.397
 5207W        W70192   2.687   0.930  11.590
 5208W        W70193  18.552  30.060   1.841
 5209W        W70194  39.051  41.253  13.804
 5210W        W70195   4.302   3.495  14.646
 5211W        W70196  24.145  43.870   3.688
 5212W        W70197  19.632  37.104  11.029
 5213W        W70198  14.801  38.492  10.910
 5214W        W70199  28.550   6.685   3.671
 5215W        W70200  15.623  40.949  10.263
 5216W        W70201   4.622  23.421  11.296
 5217W        W70202  11.683   3.774  12.920
 5218W        W70203  36.358   5.583   3.695
 5219W        W70204  31.083  34.370   3.244
 5220W        W70205   7.597  14.638  13.501
 5221W        W70206  44.534  28.228   1.227
 5222W        W70207   1.903  34.186  11.142
 5223W        W70208  34.252  20.626  12.087
 5224W        W70209   8.650  23.942  12.395
 5225W        W70210  27.021  21.482  14.401
 5226W        W70211  38.977  22.122   3.825
 5227W        W70212  37.755  42.947   3.399
 5228W        W70213  23.693  22.213  10.933
 5229W        W70214  22.994   3.816  14.395
 5230W        W70215  34.144  21.002   4.657
 5231W        W70216  41.253  11.631   2.276
 5232W        W70217  43.908  25.108   3.895
 5233W        W70218  24.232  29.017   1.884
 5234W        W70219   4.843   7.759   0.815
 5235W        W70220  30.786  33.403  13.286
 5236W        W70221  41.600  31.539  13.086
 5237W        W70222  43.553  42.805   1.458
 5238W        W70223  37.856  38.166   2.228
 5239W        W70224  19.039  29.467   2.285
 5240W        W70225   2.558  38.062  13.941
 5241W        W70226  13.627   9.703  13.473
 5242W        W70227  34.083  44.390   4.845
 5243W        W70228   8.215  24.014  14.414
 5244W        W70229  43.224   0.225   3.154
 5245W        W70230  36.554   8.331   3.372
 5246W        W70231   4.967   9.275  10.115
 5247W        W70232   6.962   2.835  11.432
 5248W        W70233  16.043  31.560  13.151
 5249W        W70234   7.310   7.251   3.372
 5250W        W70235  34.652  12.242  13.361
 5251W        W70236  42.092   6.376  12.639
 5252W        W70237  19.552  11.180   1.306
 5253W        W70238   6.373  31.251  14.592
 5254W        W70239  26.382  41.576  11.259
 5255W        W70240   4.464  38.229  14.121
 5256W        W70241   4.013  17.063   4.075
 5257W        W70242  35.200   3.704  11.541
 5258W        W70243   3.973   3.641  11.861
 5259W        W70244   4.347  20.655   2.741
 5260W        W70245   8.373  32.366   3.368
 5261W        W70246  39.027   5.451  11.638
 5262W        W70247  37.387  35.889  11.932
 5263W        W70248  36.112   4.904   0.311
 5264W        W70249  16.657  18.403   1.338
 5265W        W70250  44.173  42.985  14.844
 5266W        W70251  19.158  11.963  12.322
 5267W        W70252   4.925   6.799   4.448
 5268W        W70253   3.908  18.327   1.766
 5269W        W70254   9.759   4.754   2.777
 5270W        W70255  40.314  30.056   3.120
 5271W        W70256   4.232  28.202   1.167
 5272W        W70257  43.324   7.477   1.984
 5273W        W70258  12.315  14.081  14.705
 5274W        W70259  37.983   5.227  13.489
 5275W        W70260  30.157  33.048   4.620
 5276W        W70261   0.776  31.488  11.421
 5277W        W70262  38.047  11.739   4.565
 5278W        W70263  20.533   5.197  12.987
 5279W        W70264  35.897  23.501   1.754
 5280W        W70265  34.662  24.920  11.990
 5281W        W70266  38.241  28.699  10.300
 5282W        W70267   1.165  23.482  12.984
 5283W        W70268  10.867  23.061   3.602
 5284W        W70269  27.963   8.899  10.503
 5285W        W70270  20.003  44.322   0.273
 5286W        W70271  29.370  10.683  14.482
 5287W        W70272   1.110  42.947  12.570
 5288W        W70273   7.346  16.789   2.697
 5289W        W70274  13.584  42.277  11.569
 5290W        W70275   7.235  13.074   2.895
 5291W        W70276  41.100  23.860   3.332
 5292W        W70277  41.426  40.791   3.596
 5293W        W70278  20.826  19.504   1.313
 5294W        W70279  42.429  37.045   0.888
 5295W        W70280  35.809  43.799   2.360
 5296W        W70281  39.565   3.955  11.123
 5297W        W70282  23.983  20.840   0.990
 5298W        W70283  38.860   6.372  14.189
 5299W        W70284  19.713  36.557   3.137
 5300W        W70285  28.093  19.526   0.886
 5301W        W70286   5.182  32.171  14.838
 5302W        W70287   8.247  21.828   2.367
 5303W        W70288  21.575   8.426  11.510
 5304W        W70289  37.905  15.587  10.807
 5305W        W70290   0.787  11.951  13.396
 5306W        W70291  36.915  28.863  13.794
 5307W        W70292  44.976  15.548  12.017
 5308W        W70293  33.428  26.374  14.957
 5309W        W70294  26.303  39.831  14.348
 5310W        W70295   5.336  44.478  13.681
 5311W        W70296  39.263  12.290  14.679
 5312W        W70297  38.833   1.834  14.496
 5313W        W70298   7.041  28.186  13.609
 5314W        W70299  38.477  41.934   3.678
 5315W        W70300   8.352  34.363   0.826
 5316W        W70301  26.390  31.427  14.284
 5317W        W70302  38.134   4.652  12.344
 5318W        W70303  39.288  17.687   1.727
 5319W        W70304   1.601  36.986   2.756
 5320W        W70305  39.346  23.958   1.650
 5321W        W70306  40.908  23.539   2.447
 5322W        W70307  37.889  35.380  10.212
 5323W        W70308  37.689  38.836  10.264
 5324W        W70309   3.582  20.235   3.976
 5325W        W70310  18.303  19.417  12.543
 5326W        W70311  25.197  39.985   1.369
 5327W        W70312  41.944   2.467   1.777
 5328W        W70313  43.204   9.604   2.950
 5329W        W70314   0.936  13.163   1.928
 5330W        W70315  32.954   2.301  11.461
 5331W        W70316  32.521  42.298  10.728
 5332W        W70317   0.726   9.737  11.581
 5333W        W70318  28.506   9.133   4.006
 5334W        W70319  29.610   9.802  14.909
 5335W        W70320  13.771  22.560   1.186
 5336W        W70321   7.387  18.215   1.347
 5337W        W70322  33.673  22.197  12.351
 5338W        W70323   6.889  16.277   1.665
 5339W        W70324  42.006  39.339  14.205
 5340W        W70325  20.453   7.099   3.171
 5341W        W70326  12.516   6.336   4.077
 5342W        W70327  20.247   9.196   2.870
 5343W        W70328   7.756  37.118  12.544
 5344W        W70329  20.684  21.560   4.302
 5345W        W70330  10.464  13.555  13.360
 5346W        W70331   0.524  38.138   0.240
 5347W        W70332   8.776  34.926   1.477
 5348W        W70333   0.699  35.907   2.674
 5349W        W70334   9.149  40.597   0.485
 5350W        W70335  32.596   5.125   4.674
 5351W        W70336   9.753  15.266  11.746
 5352W        W70337  11.035  33.482  13.463
 5353W        W70338   4.721  23.995   3.190
 5354W        W70339  18.250  28.508   4.134
 5355W        W70340   6.745  11.755   1.380
 5356W        W70341  26.555  20.298   1.237
 5357W        W70342  41.434  32.836   0.480
 5358W        W70343  17.362  12.107  14.753
 5359W        W70344  17.824  23.806  13.002
 5360W        W70345  28.025  37.570   2.259
 5361W        W70346  39.927  33.057  13.372
 5362W        W70347  37.489  15.278   3.973
 5363W        W70348  14.971  26.245   5.071
 5364W        W70349  34.319  18.180   3.705
 5365W        W70350  33.311  20.070  11.611
 5366W        W70351  36.653  22.524  13.559
 5367W        W70352  25.061  13.866   3.164
 5368W        W70353  10.800  44.830   4.500
 5369W        W70354  17.280  24.062  14.357
 5370W        W70355  28.464  34.640  13.949
 5371W        W70356  41.306  10.883   2.731
 5372W        W70357  19.076   9.016  10.284
 5373W        W70358  16.573   7.328   2.219
 5374W        W70359   2.161  35.786  14.464
 5375W        W70360   5.758  30.192   2.901
 5376W        W70361   7.195  13.155  11.013
 5377W        W70362   9.587  15.609  13.526
 5378W        W70363   4.704  44.263   3.652
 5379W        W70364  41.541  44.956  12.038
 5380W        W70365  24.528  22.693   0.207
 5381W        W70366  26.653  23.065   4.800
 5382W        W70367  14.345  15.906   4.181
 5383W        W70368  39.188  35.135  11.222
 5384W        W70369  13.439  19.343  11.219
 5385W        W70370   4.325  31.044  11.415
 5386W        W70371  40.899   0.715   4.799
 5387W        W70372  42.834   4.803   3.125
 5388W        W70373  41.227  13.431   4.199
 5389W        W70374   0.789  38.868   3.223
 5390W        W70375   9.778  18.966   3.305
 5391W        W70376  18.869  11.607   4.624
 5392W        W70377  38.597  38.511  10.438
 5393W        W70378   1.374   9.192  13.655
 5394W        W70379  21.015  20.002   1.214
 5395W        W70380  28.933  43.958   2.202
 5396W        W70381   0.640  36.080   0.882
 5397W        W70382  15.691  34.976  12.768
 5398W        W70383   9.746  10.939   2.762
 5399W        W70384  33.585  41.513  10.302
 5400W        W70385  40.849  40.798   3.155
 5401W        W70386  31.588  34.856   3.725
 5402W        W70387  39.413  26.787   1.013
 5403W        W70388  43.198  12.283   0.386
 5404W        W70389  37.601  19.763  11.043
 5405W        W70390  44.416  10.088   3.157
 5406W        W70391   7.573   4.076   1.766
 5407W        W70392  17.736  41.086  11.502
 5408W        W70393  42.693  30.882   4.103
 5409W        W70394   6.221  36.025   2.089
 5410W        W70395  15.823  44.052   2.075
 5411W        W70396  33.456  23.333  10.810
 5412W        W70397   5.966  29.015   0.461
 5413W        W70398  38.359  20.635   2.186
 5414W        W70399   7.299  12.088   1.781
 5415W        W70400  39.398   7.150  12.339
 5416W        W70401   6.056  40.089   3.710
 5417W        W70402  20.285  25.458   2.469
 5418W        W70403  30.587   8.065  13.845
 5419W        W70404  29.343   7.998  11.196
 5420W        W70405  21.550  12.335   4.197
 5421W        W70406  32.032   4.415   0.837
 5422W        W70407  21.762  34.939  11.632
 5423W        W70408  18.137   0.451   2.851
 5424W        W70409   5.726   9.013  12.583
 5425W        W70410  16.095   2.362  14.214
 5426W        W70411  28.411  18.726  14.944
 5427W        W70412  33.392  27.503   1.736
 5428W        W70413  26.733  24.742   2.794
 5429W        W70414  16.079  23.256  11.516
 5430W        W70415  23.174  16.522   3.193
 5431W        W70416  18.581  32.131  14.253
 5432W        W70417   8.650   8.839   1.371
 5433W        W70418   6.164  26.738  13.428
 5434W        W70419  26.407  19.169  12.990
 5435W        W70420  24.623  26.022  14.869
 5436W        W70421   6.096  17.608   2.792
 5437W        W70422  15.783   1.392   3.612
 5438W        W70423  20.106  25.755  11.226
 5439W        W70424  27.657  18.726   4.958
 5440W        W70425  41.321  33.953   5.389
 5441W        W70426  22.548   2.882  14.311
 5442W        W70427  12.470  14.387  12.988
 5443W        W70428   2.466  28.054  11.960
 5444W        W70429  33.375   6.884   1.009
 5445W        W70430  27.258  42.766  14.193
 5446W        W70431  42.037  26.563  14.102
 5447W        W70432  39.165   9.733   1.402
 5448W        W70433  38.050  12.275  12.104
 5449W        W70434  25.994  19.484  12.868
 5450W        W70435  22.705  24.034  11.625
 5451W        W70436  36.902  20.129  13.018
 5452W        W70437  41.159  34.824   3.188
 5453W        W70438  26.816  27.923  12.414
 5454W        W70439  44.996  29.529   4.210
 5455W        W70440  31.031  36.801  10.975
 5456W        W70441  31.593  32.413   3.800
 5457W        W70442   4.583  22.063  11.772
 5458W        W70443  24.594  18.039  13.986
 5459W        W70444   8.928  20.951   0.714
 5460W        W70445  12.243  24.476  11.370
 5461W        W70446  14.413  15.190  10.662
 5462W        W70447  16.964   0.145   3.315
 5463W        W70448   6.063  13.377  12.108
 5464W        W70449  31.532  12.952  12.414
 5465W        W70450  30.614  11.716   1.382
 5466W        W70451  21.637  31.196   0.559
 5467W        W70452  15.946  34.885   2.776
 5468W        W70453  32.425  41.176   3.796
 5469W        W70454   4.673  43.738   0.439
 5470W        W70455  10.314  10.658   0.232
 5471W        W70456  28.892   0.351  11.024
 5472W        W70457   5.196  36.974   3.695
 5473W        W70458  16.533  10.076   1.906
 5474W        W70459  20.682   8.211  11.083
 5475W        W70460  26.043  17.314  12.884
 5476W        W70461  32.662  18.031   3.221
 5477W        W70462  29.113  41.290  11.015
 5478W        W70463   7.311  13.122   1.880
 5479W        W70464  19.605  33.921   4.640
 5480W        W70465  35.571  41.343  13.991
 5481W        W70466  10.798  32.939  14.226
 5482W        W70467  15.556  36.825   2.387
 5483W        W70468   4.870  29.968  10.502
 5484W        W70469  28.088  23.712   0.820
 5485W        W70470  22.135  33.198   4.281
 5486W        W70471  24.023  13.188  11.398
 5487W        W70472  29.199  25.038   4.141
 5488W        W70473   2.246   7.373   0.567
 5489W        W70474   9.394  16.364  12.495
 5490W        W70475  21.738   6.722  11.174
 5491W        W70476  35.976   5.817  12.027
 5492W        W70477  41.742  19.268  14.368
 5493W        W70478  12.873  21.101   3.156
 5494W        W70479  37.125   1.887  13.851
 5495W        W70480  44.922  13.343   3.628
 5496W        W70481   5.376  12.424  10.772
 5497W        W70482   8.692  35.047   5.096
 5498W        W70483  13.699  40.835   2.477
 5499W        W70484  44.499   5.667  12.032
 5500W        W70485   8.356   3.598  12.881
 5501W        W70486  10.624   9.113  13.942
 5502W        W70487  33.126  22.417  14.445
 5503W        W70488  27.844  39.420   2.359
 5504W        W70489  42.975  37.417   1.264
 5505W        W70490  38.585   6.746   1.305
 5506W        W70491  43.335  21.702  10.774
 5507W        W70492  34.603   4.543  10.641
 5508W        W70493  39.921  16.240   3.512
 5509W        W70494  21.267  26.011   0.713
 5510W        W70495  18.633  14.363  13.965
 5511W        W70496  13.747  27.724   2.850
 5512W        W70497  27.446  34.516  14.956
 5513W        W70498  13.079  39.262   3.716
 5514W        W70499  17.925   9.296   3.427
 5515W        W70500  34.009  32.034  11.171
 5516W        W70501  33.340  40.333   2.130
 5517W        W70502  16.610  35.579  11.226
 5518W        W70503  25.958  14.323   3.170
 5519W        W70504   8.675  11.307   2.356
 5520W        W70505  11.309  30.595   4.131
 5521W        W70506   4.782  19.136   0.327
 5522W        W70507  13.712  13.274   1.654
 5523W        W70508   5.815  33.443  13.395
 5524W        W70509  11.629   3.875   3.245
 5525W        W70510  15.246  41.059  10.616
 5526W        W70511  30.168   2.415   3.865
 5527W        W70512  12.856  22.703  11.757
 5528W        W70513   0.477   5.514   0.330
 5529W        W70514  25.591  29.378   5.362
 5530W        W70515   7.647   2.205  14.954
 5531W        W70516   3.220  32.661   1.705
 5532W        W70517  44.412  30.675   2.385
 5533W        W70518  30.085  16.819   0.867
 5534W        W70519  14.253   4.208  13.020
 5535W        W70520  44.945  30.208  11.131
 5536W        W70521  11.323  44.451  14.808
 5537W        W70522  33.489  23.479  14.965
 5538W        W70523  28.725   8.622   3.500
 5539W        W70524   3.211  16.178  14.540
 5540W        W70525  20.297  15.689  10.000
 5541W        W70526  19.380  17.091   3.960
 5542W        W70527  32.591  35.479  14.539
 5543W        W70528  36.914  18.517   4.680
 5544W        W70529  24.994  38.353  11.189
 5545W        W70530  15.142  36.102  14.786
 5546W        W70531  12.010  29.418  14.850
 5547W        W70532  24.693  33.127   3.276
 5548W        W70533   7.151  43.584  12.578
 5549W        W70534   6.224  24.091  13.351
 5550W        W70535  24.538   3.956  13.312
 5551W        W70536   7.433  30.248   0.232
 5552W        W70537  32.670  20.588   2.505
 5553W        W70538  41.041  41.574   2.927
 5554W        W70539  22.085  42.802  14.764
 5555W        W70540   5.456  35.452  10.682
 5556W        W70541  20.530  12.705  13.638
 5557W        W70542  13.268  43.424   4.322
 5558W        W70543  22.061   8.357  11.057
 5559W        W70544  19.285  37.017  14.007
 5560W        W70545   8.586  10.444   2.228
 5561W        W70546   3.599  28.007  11.094
 5562W        W70547  42.014   4.665   4.714
 5563W        W70548  39.780  13.752   0.235
 5564W        W70549  43.117  22.505  11.027
 5565W        W70550   2.190   1.288   1.810
 5566W        W70551  30.613  13.175  11.514
 5567W        W70552  27.416  36.419  11.628
 5568W        W70553  36.789   6.730   3.773
 5569W        W70554  26.202  34.462   4.138
 5570W        W70555  36.554  41.529  14.019
 5571W        W70556  25.013  42.112   3.003
 5572W        W70557   9.263   8.901   3.163
 5573W        W70558  23.418   5.120   4.548
 5574W        W70559   5.724  24.314   3.330
 5575W        W70560  30.803  16.755   1.139
 5576W        W70561  18.611  13.427   2.639
 5577W        W70562  21.607  27.208  11.954
 5578W        W70563  41.893  15.720  11.610
 5579W        W70564  19.807   2.627  12.635
 5580W        W70565   3.814   9.367  13.433
 5581W        W70566   5.140   3.822  14.521
 5582W        W70567  13.805  43.987   3.696
 5583W        W70568  17.166  39.545   2.754
 5584W        W70569  40.608  16.538  14.400
 5585W        W70570   1.236  27.013  10.563
 5586W        W70571  18.077  14.624   1.764
 5587W        W70572  11.787   4.994  13.642
 5588W        W70573  24.261   8.650  14.857
 5589W        W70574  12.432   5.642  14.018
 5590W        W70575  35.069  27.603   3.786
 5591W        W70576  13.372  11.768  12.571
 5592W        W70577  34.142  34.529  13.420
 5593W        W70578  17.645  39.848   1.598
 5594W        W70579   4.732  13.710   1.847
 5595W        W70580   6.804  18.411  13.495
 5596W        W70581  34.678  19.163   4.454
 5597W        W70582  38.293  31.078  14.561
 5598W        W70583  17.463   7.544   4.526
 5599W        W70584  22.698  22.142   0.234
 5600W        W70585  27.750  42.659  14.345
 5601W        W70586  25.323  24.353  13.948
 5602W        W70587  23.112   2.405   3.101
 5603W        W70588  10.078   5.752  14.746
 5604W        W70589  31.492  32.739   2.839
 5605W        W70590  20.718  36.151  14.449
 5606W        W70591  13.038  35.103   4.082
 5607W        W70592   4.627  15.292  11.536
 5608W        W70593  22.752  11.080  12.364
 5609W        W70594  35.148  44.502  14.794
 5610W        W70595  40.556   5.898   4.562
 5611W        W70596  36.292  13.391   0.794
 5612W        W70597  30.663  11.811   0.264
 5613W        W70598  41.041  43.147  13.199
 5614W        W70599   5.354  34.363  11.522
 5615W        W70600   1.258  16.438  10.630
 5616W        W70601  19.272  20.246   1.638
 5617W        W70602  44.014  23.631   1.141
 5618W        W70603   1.147  37.829  11.222
 5619W        W70604  37.077  26.052   3.896
 5620W        W70605  25.475  27.205   0.015
 5621W        W70606  24.237   9.568   4.229
 5622W        W70607   5.837  14.654  12.878
 5623W        W70608   7.693  13.928   2.744
 5624W        W70609  22.380  36.991   4.837
 5625W        W70610  25.537  40.504  12.172
 5626W        W70611  18.900  24.507   1.004
 5627W        W70612  40.409   8.695   5.077
 5628W        W70613   9.604  33.002  11.069
 5629W        W70614  43.508   4.528   2.365
 5630W        W70615  24.510  11.688   5.147
 5631W        W70616   2.330  42.464  14.681
 5632W        W70617  13.337  29.165  14.058
 5633W        W70618  23.643   5.606  11.383
 5634W        W70619  25.167  43.184   0.863
 5635W        W70620  22.464  25.816  11.906
 5636W        W70621  28.794   3.836  11.943
 5637W        W70622  30.396  42.461   1.810
 5638W        W70623  25.796   8.856   0.633
 5639W        W70624   1.964   4.853   4.515
 5640W        W70625   8.821  20.705   1.554
 5641W        W70626  11.593  12.107  12.853
 5642W        W70627  18.737  10.375  12.903
 5643W        W70628  35.426  41.096  13.542
 5644W        W70629  36.349   4.129  14.375
 5645W        W70630  25.146  28.924  14.778
 5646W        W70631  13.680  20.707  11.972
 5647W        W70632  17.200  39.482  12.545
 5648W        W70633  17.284  15.204   1.085
 5649W        W70634  20.789  16.570   4.272
 5650W        W70635  38.950   5.180   2.805
 5651W        W70636   8.874  13.596   1.241
 5652W        W70637   7.334  33.917   4.086
 5653W        W70638  16.217  30.618   1.932
 5654W        W70639  32.844  42.249   0.983
 5655W        W70640  35.542  24.331   4.950
 5656W        W70641  11.118  31.752   3.244
 5657W        W70642  20.035  40.748  10.766
 5658W        W70643  42.632  28.762   1.347
 5659W        W70644   2.507   3.852  12.435
 5660W        W70645   5.942  28.982   3.797
 5661W        W70646  11.978  26.667  11.990
 5662W        W70647  35.379  27.577  12.978
 5663W        W70648  18.327  24.564  12.202
 5664W        W70649   0.579  33.185  12.573
 5665W        W70650  36.468  34.346   3.761
 5666W        W70651   3.298  41.644   4.612
 5667W        W70652  10.910  31.977   2.044
 5668W        W70653   8.916  24.693  11.008
 5669W        W70654  25.469  16.042   0.448
 5670W        W70655  21.060  22.530   0.760
 5671W        W70656  23.106  16.994   3.919
 5672W        W70657  44.880  42.102   2.864
 5673W        W70658  27.424  39.031  13.255
 5674W        W70659  19.189   8.340   3.795
 5675W        W70660  43.463  28.391   1.810
 5676W        W70661  32.623  34.071   2.474
 5677W        W70662  44.818   4.349   4.524
 5678W        W70663   8.495  17.728   0.817
 5679W        W70664  35.010  10.855  13.497
 5680W        W70665  12.603  37.470  11.922
 5681W        W70666   1.003   6.766  10.916
 5682W        W70667  31.361   1.323   0.439
 5683W        W70668  32.242  41.821  14.423
 5684W        W70669   9.733  27.693   4.443
 5685W        W70670  20.709   5.663   0.926
 5686W        W70671   6.154  43.808  14.920
 5687W        W70672  34.696   7.737   2.519
 5688W        W70673  27.269  19.061  11.594
 5689W        W70674  32.089  32.455  14.061
 5690W        W70675  40.086  39.348  14.333
 5691W        W70676  25.370  34.531   4.520
 5692W        W70677   5.367   9.369   4.087
 5693W        W70678  11.047  29.242  11.206
 5694W        W70679  34.185  22.214  11.446
 5695W        W70680  19.294  15.796   2.219
 5696W        W70681  41.368  24.481  12.445
 5697W        W70682   9.777  11.398   1.259
 5698W        W70683  29.634  39.783  14.811
 5699W        W70684   3.871  22.253  13.802
 5700W        W70685   4.361  39.047   0.859
 5701W        W70686  27.192  25.178   0.389
 5702W        W70687  27.374  11.096  14.862
 5703W        W70688  13.310  27.318   0.811
 5704W        W70689  17.694  42.097  13.056
 5705W        W70690  27.666  37.562  14.498
 5706W        W70691  18.550  27.648   2.693
 5707W        W70692  37.524  29.963   1.306
 5708W        W70693  27.039  28.778  11.564
 5709W        W70694   0.190  39.610  13.465
 5710W        W70695  10.952  21.266   2.654
 5711W        W70696   0.778  30.181  13.533
 5712W        W70697  39.545   4.201  11.601
 5713W        W70698   4.806  29.031  14.042
 5714W        W70699  42.424   0.951  14.562
 5715W        W70700  11.174  15.567  13.833
 5716W        W70701  35.339  36.494   1.242
 5717W        W70702  21.555  42.161   0.350
 5718W        W70703  12.147  20.631  11.117
 5719W        W70704  13.886  21.698  14.366
 5720W        W70705  18.269  14.536  10.767
 5721W        W70706  27.849  33.207   1.743
 5722W        W70707   4.819  12.400  11.581
 5723W        W70708  33.418  22.494  13.153
 5724W        W70709  11.156  14.305  14.806
 5725W        W70710  20.698  30.285   3.917
 5726W        W70711  34.108  32.759   2.146
 5727W        W70712  34.860  23.175  12.260
 5728W        W70713   8.837  16.675   0.930
 5729W        W70714  20.528  16.547   0.952
 5730W        W70715  41.369   5.602  11.251
 5731W        W70716  31.987  35.926   0.824
 5732W        W70717  17.157  30.380  14.808
 5733W        W70718  41.713  13.320   4.086
 5734W        W70719  18.839  44.509  12.534
 5735W        W70720  30.553   3.975   3.630
 5736W        W70721  44.552  16.250   1.462
 5737W        W70722  20.489  23.281  12.550
 5738W        W70723  33.544  41.554   0.915
 5739W        W70724  36.516  19.086   0.274
 5740W        W70725  17.675  43.799  12.237
 5741W        W70726   8.519  16.229   0.068
 5742W        W70727  13.552  23.170  12.945
 5743W        W70728  33.553   2.406  13.102
 5744W        W70729  40.324  22.694   4.268
 5745W        W70730  17.635  42.475  11.476
 5746W        W70731  22.537  36.808  11.243
 5747W        W70732  13.566   1.767   3.330
 5748W        W70733  16.238  43.495   1.248
 5749W        W70734  31.723  27.106   2.275
 5750W        W70735  44.635   6.957   2.808
 5751W        W70736  30.510  24.165  13.345
 5752W        W70737  22.022  21.396   2.110
 5753W        W70738  25.151  14.007   4.158
 5754W        W70739   2.791  35.186  14.942
 5755W        W70740  37.985   9.926   2.969
 5756W        W70741  10.357   7.169   0.311
 5757W        W70742   6.729   0.810   0.891
 5758W        W70743  10.399  13.584  14.283
 5759W        W70744  44.812  25.649   2.699
 5760W        W70745  38.164  41.508   1.654
 5761W        W70746  22.236  39.056  14.403
 5762W        W70747   0.465  36.927  14.433
 5763W        W70748  27.943  39.688   0.399
 5764W        W70749   2.339  42.851   3.344
 5765W        W70750  27.520  44.999  14.509
 5766W        W70751  28.130  21.766  10.918
 5767W        W70752  28.751   6.276  14.406
 5768W        W70753   1.916  37.032  13.354
 5769W        W70754  30.013   5.973   0.809
 5770W        W70755  36.545   6.392  12.980
 5771W        W70756  30.740  25.031  12.488
 5772W        W70757  12.708  42.070   3.339
 5773W        W70758  15.798  18.034  13.067
 5774W        W70759   2.352   5.029   1.238
 5775W        W70760   8.621  11.568  11.715
 5776W        W70761  39.355   0.617  10.541
 5777W        W70762  27.661   6.356   0.673
 5778W        W70763  33.693  41.634  14.438
 5779W        W70764  14.172   5.255  13.749
 5780W        W70765  20.849   8.720   3.217
 5781W        W70766  28.192  17.254  10.150
 5782W        W70767  38.395  18.734  14.328
 5783W        W70768  22.156  14.625   2.986
 5784W        W70769  20.337  29.985   4.053
 5785W        W70770   4.630  40.043   3.796
 5786W        W70771  37.011  32.195  13.960
 5787W        W70772   9.321   9.736  11.794
 5788W        W70773   4.928  23.830   0.477
 5789W        W70774  34.052  11.184  13.823
 5790W        W70775  26.620   0.450  11.685
 5791W        W70776  18.054  22.616  13.382
 5792W        W70777  39.850  42.359   0.928
 5793W        W70778   4.960  24.947  14.161
 5794W        W70779   0.503   5.166  11.557
 5795W        W70780  31.171  20.149   0.993
 5796W        W70781  28.504  38.910  14.346
 5797W        W70782  24.977   5.402  13.290
 5798W        W70783  32.880   6.336   2.861
 5799W        W70784  23.527  32.263   2.302
 5800W        W70785  29.664   1.951   3.244
 5801W        W70786   3.499  32.061   0.242
 5802W        W70787   6.133  31.956   2.590
 5803W        W70788   4.024  10.779  14.536
 5804W        W70789  33.029   2.648   3.732
 5805W        W70790  15.036   5.656   2.621
 5806W        W70791  32.322  26.125   1.823
 5807W        W70792  13.863  23.025  13.333
 5808W        W70793  23.674  35.386   0.491
 5809W        W70794  26.340  17.208  12.257
 5810W        W70795   7.287   1.938  14.433
 5811W        W70796  16.825  20.279   1.370
 5812W        W70797  29.230  31.757   3.837
 5813W        W70798  16.049  42.527  14.542
 5814W        W70799  34.364  27.073  13.495
 5815W        W70800  23.475  12.079  11.529
 5816W        W70801   0.541  33.931   1.961
 5817W        W70802  40.309   3.429  10.681
 5818W        W70803  12.703  39.274  12.416
 5819W        W70804  35.974  15.904   0.195
 5820W        W70805  22.552  33.393   4.556
 5821W        W70806  23.390  27.241   3.152
 5822W        W70807  23.280  16.517  11.142
 5823W        W70808  32.581  32.631  11.901
 5824W        W70809  14.090  42.282  10.726
 5825W        W70810  40.829  29.950  14.899
 5826W        W70811  32.050  35.509   0.447
 5827W        W70812  40.757  13.139  12.921
 5828W        W70813  40.456  10.358   0.407
 5829W        W70814  10.930   4.949   4.580
 5830W        W70815  14.039  40.109  13.900
 5831W        W70816  38.095  32.563   1.747
 5832W        W70817  42.971  30.455  13.803
 5833W        W70818  11.164  36.037  13.138
 5834W        W70819  28.231  36.007  13.821
 5835W        W70820  41.019  19.981  13.214
 5836W        W70821  42.427  18.738  13.334
 5837W        W70822  21.660  26.091   1.430
 5838W        W70823  26.986  33.690  11.291
 5839W        W70824  13.800  20.529   3.567
 5840W        W70825  26.039  16.558   0.831
 5841W        W70826   7.177  27.685   0.266
 5842W        W70827  16.816   4.441   1.531
 5843W        W70828  33.350  44.524  11.430
 5844W        W70829  35.460  21.615  11.434
 5845W        W70830   8.719   6.311  13.463
 5846W        W70831   2.314  36.184  10.451
 5847W        W70832  32.127  35.013   0.197
 5848W        W70833  10.348  22.079  11.911
 5849W        W70834  14.912  24.003  13.921
 5850W        W70835   0.495   3.322  13.920
 5851W        W70836   2.401  18.879   2.423
 5852W        W70837  12.704  32.890  12.459
 5853W        W70838  12.799  34.557   0.815
 5854W        W70839   9.127  38.420  13.421
 5855W        W70840   0.735  44.171  13.362
 5856W        W70841   5.580  38.101   4.560
 5857W        W70842   7.793  23.051   0.918
 5858W        W70843   6.350  12.675   3.194
 5859W        W70844  27.134  44.975   0.906
 5860W        W70845  35.727  30.594   3.696
 5861W        W70846  23.052  41.801  12.486
 5862W        W70847  38.739  30.727   4.195
 5863W        W70848  38.545  12.656  13.015
 5864W        W70849  26.565   6.835  11.104
 5865W        W70850  19.539   4.336  12.071
 5866W        W70851  12.388  26.793   9.794
 5867W        W70852  38.887  29.084  13.338
 5868W        W70853  33.796  34.628   1.795
 5869W        W70854  24.571  26.460   1.840
 5870W        W70855  36.775  21.621  13.519
 5871W        W70856   9.718  14.048  14.949
 5872W        W70857  14.188  37.852   2.329
 5873W        W70858  43.756  44.271  13.750
 5874W        W70859   2.939  24.917  14.787
 5875W        W70860   9.265  43.323  10.723
 5876W        W70861   3.835  32.447   1.225
 5877W        W70862  19.503  30.641  14.434
 5878W        W70863  28.437  35.939  13.343
 5879W        W70864  43.941  22.983   5.442
 5880W        W70865  22.558  33.877  11.065
 5881W        W70866  39.902  33.162   4.176
 5882W        W70867  39.713  15.425  13.288
 5883W        W70868  13.268  38.682  12.816
 5884W        W70869  13.172  27.296  14.783
 5885W        W70870  31.729   3.795   0.203
 5886W        W70871  27.466  23.636  12.557
 5887W        W70872  12.357   4.408  13.053
 5888W        W70873  33.314   2.220   3.788
 5889W        W70874  20.200  35.443  14.145
 5890W        W70875  18.522  25.492  13.642
 5891W        W70876  33.180  37.271   1.008
 5892W        W70877  35.334  24.195   1.391
 5893W        W70878  20.551  13.821  11.590
 5894W        W70879  29.678  39.498   4.914
 5895W        W70880  12.743   3.700   4.686
 5896W        W70881  27.211  38.369   3.220
 5897W        W70882  27.470  10.613  13.058
 5898W        W70883  22.625  32.140   3.174
 5899W        W70884  35.187  31.649  11.636
 5900W        W70885  27.686   9.421  11.074
 5901W        W70886  14.983   4.721   4.117
 5902W        W70887  25.843  12.374  11.228
 5903W        W70888  24.559   8.755  10.972
 5904W        W70889   9.337  29.356  14.375
 5905W        W70890  26.901  29.525   3.109
 5906W        W70891  16.340  16.138   1.225
 5907W        W70892  34.601  22.611  14.825
 5908W        W70893  43.350  20.881   5.625
 5909W        W70894  13.170  31.583   0.733
 5910W        W70895  22.463   6.846   1.228
 5911W        W70896  22.200   6.764  14.105
 5912W        W70897   9.552  30.967  12.915
 5913W        W70898   1.755   9.280  10.549
 5914W        W70899  43.936  23.488  12.456
 5915W        W70900  19.326  23.106   2.830
 5916W        W70901   3.924  17.672   0.920
 5917W        W70902  36.757  44.324   3.350
 5918W        W70903  43.977  17.685  12.133
 5919W        W70904  43.429  41.360   0.370
 5920W        W70905  16.093  24.596   4.517
 5921W        W70906  19.141  44.565  10.239
 5922W        W70907   5.002  28.033  12.069
 5923W        W70908   5.388  12.682   2.427
 5924W        W70909  17.712  32.555  14.985
 5925W        W70910  10.303   6.614   1.352
 5926W        W70911   9.867  26.130  12.532
 5927W        W70912   8.444  14.600  13.147
 5928W        W70913  44.077  22.277   1.947
 5929W        W70914  17.073  22.498   3.643
 5930W        W70915   0.812  20.223  11.642
 5931W        W70916  31.131  10.274   3.602
 5932W        W70917  40.555   3.379  12.078
 5933W        W70918  35.012  15.572   2.387
 5934W        W70919  26.523  21.365  11.150
 5935W        W70920  27.702   8.884  12.419
 5936W        W70921   5.126   2.406   3.213
 5937W        W70922  33.631  20.459  10.777
 5938W        W70923  11.287  44.075   0.815
 5939W        W70924   8.329   2.480   1.423
 5940W        W70925  14.642  12.186   2.529
 5941W        W70926   1.942  29.032  13.284
 5942W        W70927  14.868  32.888  10.951
 5943W        W70928  39.787  40.010  14.723
 5944W        W70929   1.709   5.275   3.357
 5945W        W70930  29.980  21.670  12.391
 5946W        W70931  16.262  10.221   2.362
 5947W        W70932  31.060  11.453   4.872
 5948W        W70933   5.801  27.425   4.244
 5949W        W70934  21.173   4.905   2.762
 5950W        W70935  27.985  29.499   1.679
 5951W        W70936  35.919  30.535   0.815
 5952W        W70937  21.012  40.890  12.503
 5953W        W70938  11.747  16.642   1.393
 5954W        W70939   7.669   3.061   2.655
 5955W        W70940   8.831  35.474   1.132
 5956W        W70941  13.406   0.418   1.294
 5957W        W70942  44.865  28.511   1.653
 5958W        W70943   4.892  36.640   1.793
 5959W        W70944   0.760  16.311   2.439
 5960W        W70945  12.049   1.724   3.727
 5961W        W70946  14.207  23.767   2.755
 5962W        W70947  19.808  20.125   3.657
 5963W        W70948   9.970   3.001  11.845
 5964W        W70949  37.059  29.518  12.898
 5965W        W70950  18.720  31.066   1.894
 5966W        W70951  22.976  26.569   0.904
 5967W        W70952  40.612  23.615  10.704
 5968W        W70953   8.925  26.038  13.666
 5969W        W70954   1.709  44.009   3.391
 5970W        W70955   8.352  14.688  11.204
 5971W        W70956  15.356  15.680  14.417
 5972W        W70957   1.973  14.115  14.726
 5973W        W70958  44.243  23.903  11.107
 5974W        W70959  20.552   5.400  10.322
 5975W        W70960  27.910   6.261   1.586
 5976W        W70961  23.149  26.154   0.653
 5977W        W70962  41.399  22.067   4.173
 5978W        W70963  24.803  34.077  12.188
 5979W        W70964   0.246  11.797  14.831
 5980W        W70965  17.158   0.631   3.282
 5981W        W70966  23.132  37.870  13.383
 5982W        W70967  22.606  41.614  14.985
 5983W        W70968  10.025  39.385  12.197
 5984W        W70969   8.850   7.291   3.659
 5985W        W70970  33.551  27.367  13.371
 5986W        W70971  41.813  38.025   1.665
 5987W        W70972   4.639  19.225   2.311
 5988W        W70973  38.143  44.627   3.236
 5989W        W70974  31.853  20.463   4.930
 5990W        W70975  18.973  18.475   1.416
 5991W        W70976  26.692  24.297  12.594
 5992W        W70977  38.980  19.845   0.778
 5993W        W70978   3.054  17.780  13.687
 5994W        W70979  36.725   2.342  12.834
 5995W        W70980  16.063  10.233   0.447
 5996W        W70981  14.777  35.481   4.299
 5997W        W70982  29.298  43.196  10.913
 5998W        W70983  26.637  28.163   3.742
 5999W        W70984  10.856  38.336  12.006
 6000W        W70985   8.583  44.951  11.095
 6001W        W70986  37.916   6.635  10.187
 6002W        W70987  19.240  16.265  13.612
 6003W        W70988   2.546  34.968   0.400
 6004W        W70989  19.208   3.637  13.094
 6005W        W70990   6.510  32.781  10.379
 6006W        W70991  15.612  14.305   2.233
 6007W        W70992  14.604  30.947  13.085
 6008W        W70993  20.564  13.850   0.410
 6009W        W70994   1.686  37.827  13.064
 6010W        W70995   2.871   1.864   4.675
 6011W        W70996  31.921   2.511   0.012
 6012W        W70997  25.035   1.340   4.169
 6013W        W70998  41.279  35.383   4.047
 6014W        W70999  43.445   5.481  12.900
 6015W        W71000  12.300  31.463   4.044
 6016W        W71001   0.230  10.884  14.829
 6017W        W71002   7.839  34.836   4.226
 6018W        W71003  15.722  38.295   3.716
 6019W        W71004   5.375   4.438   4.047
 6020W        W71005   7.024  12.708  11.953
 6021W        W71006  11.864  26.190   2.787
 6022W        W71007  18.946   8.756   2.718
 6023W        W71008  43.957  29.402   0.547
 6024W        W71009   8.782   7.116   3.173
 6025W        W71010  13.754  10.696   4.340
 6026W        W71011  37.450  41.394   4.621
 6027W        W71012  10.216  18.122  12.965
 6028W        W71013  19.872  10.694   3.060
 6029W        W71014  32.947   5.973  13.530
 6030W        W71015  31.473  36.406   1.436
 6031W        W71016  32.054  40.152   9.823
 6032W        W71017   1.960  30.100   4.224
 6033W        W71018  29.935  31.236   0.212
 6034W        W71019   1.624   3.934  12.047
 6035W        W71020  16.198  39.915   1.612
 6036W        W71021   6.266  44.543   4.656
 6037W        W71022  32.448  33.997  12.820
 6038W        W71023  26.753   9.637  14.308
 6039W        W71024  17.972   9.311  14.733
 6040W        W71025  26.726  14.279   4.877
 6041W        W71026   8.012  13.353  14.438
 6042W        W71027  37.241   0.046  13.013
 6043W        W71028  33.825  32.034   4.565
 6044W        W71029   9.961  33.084   4.392
 6045W        W71030  17.061  33.957  12.623
 6046W        W71031  39.527  41.302   2.613
 6047W        W71032  11.746  31.842  10.239
 6048W        W71033   3.946  39.319  13.382
 6049W        W71034  35.531  11.819  10.727
 6050W        W71035   8.082  42.975  14.475
 6051W        W71036  23.106  30.068   0.690
 6052W        W71037  28.197  29.170   3.738
 6053W        W71038  28.134  17.198  12.467
 6054W        W71039  42.918  38.532  13.523
 6055W        W71040  41.974  37.424  12.123
 6056W        W71041  14.265  25.183   2.707
 6057W        W71042  35.316  17.280  11.562
 6058W        W71043  22.635  40.001   3.396
 6059W        W71044  22.929  32.399   1.905
 6060W        W71045  19.568  26.158   2.170
 6061W        W71046  11.754  13.107   3.608
 6062W        W71047  23.396  30.465  10.165
 6063W        W71048  26.607   2.474   2.171
 6064W        W71049  10.984   4.254   1.325
 6065W        W71050  16.716  12.814  11.984
 6066W        W71051  38.613  33.924  13.304
 6067W        W71052  13.814  18.995  11.139
 6068W        W71053   7.087  32.642  14.946
 6069W        W71054  32.715  25.358  12.578
 6070W        W71055  37.736  39.751   1.176
 6071W        W71056  13.670  18.508  14.257
 6072W        W71057  13.628  15.798  10.646
 6073W        W71058   5.199   2.735  12.002
 6074W        W71059  28.374  22.731  13.582
 6075W        W71060  43.168  26.024   2.558
 6076W        W71061  36.222  27.058  13.085
 6077W        W71062   4.599  11.807  12.938
 6078W        W71063  27.660  30.781   2.131
 6079W        W71064  40.401  11.326   2.757
 6080W        W71065  36.284  23.504   2.967
 6081W        W71066  13.256  44.446  10.204
 6082W        W71067  29.097  24.784   3.053
 6083W        W71068  15.061   3.680  12.380
 6084W        W71069  22.798  11.658  10.389
 6085W        W71070  20.170   3.060   2.554
 6086W        W71071  39.078  16.589   0.276
 6087W        W71072   2.700  31.198  11.111
 6088W        W71073  34.533  44.180   0.285
 6089W        W71074  28.170  14.296  12.001
 6090W        W71075  26.746   3.483   3.245
 6091W        W71076  21.222  42.239   3.789
 6092W        W71077  26.162   1.905  13.071
 6093W        W71078  42.772  24.805   4.428
 6094W        W71079  23.674  22.058  12.818
 6095W        W71080  27.029  27.881  11.927
 6096W        W71081  31.521  17.179   4.370
 6097W        W71082  30.285  32.523  10.306
 6098W        W71083  32.791  25.285  14.821
 6099W        W71084  14.312  33.542  13.900
 6100W        W71085   8.355  34.374   2.267
 6101W        W71086  21.537  33.147  10.890
 6102W        W71087  25.992  17.651   3.333
 6103W        W71088  25.672  40.516   4.339
 6104W        W71089  32.061  28.089   0.868
 6105W        W71090  14.523  42.055   2.738
 6106W        W71091  32.003  28.031  13.795
 6107W        W71092  28.603  38.754  12.089
 6108W        W71093  33.700  42.161  14.391
 6109W        W71094  29.998   9.143  14.977
 6110W        W71095  41.267  26.632  13.732
 6111W        W71096  28.452  41.452  14.896
 6112W        W71097  12.128   5.560  14.439
 6113W        W71098  28.500  13.818   3.710
 6114W        W71099  19.163  10.072  13.745
 6115W        W71100  34.078  40.898  11.273
 6116W        W71101  37.900  14.670   4.480
 6117W        W71102   8.321  14.095   0.065
 6118W        W71103  36.046  20.023  11.633
 6119W        W71104  23.992  25.641   1.753
 6120W        W71105  31.547   4.923   2.331
 6121W        W71106  11.146  26.692  10.822
 6122W        W71107   2.717   5.346   3.162
 6123W        W71108  18.182  43.337  13.108
 6124W        W71109  19.595  28.148   4.381
 6125W        W71110  43.845  24.989   2.394
 6126W        W71111  16.791  28.317   9.991
 6127W        W71112  12.687  31.690  13.662
 6128W        W71113  14.333   3.464   2.593
 6129W        W71114  22.393   3.695  13.784
 6130W        W71115  30.177   3.711   3.890
 6131W        W71116  29.506   5.020  13.027
 6132W        W71117  43.868  21.648  10.470
 6133W        W71118  40.082   8.471  11.853
 6134W        W71119  35.015   0.971   2.350
 6135W        W71120   8.114  37.558  14.565
 6136W        W71121  40.515  11.770  11.168
 6137W        W71122  16.757  37.635   0.796
 6138W        W71123  20.637  13.685   3.088
 6139W        W71124  11.361   1.427   1.314
 6140W        W71125  18.100  16.594   2.752
 6141W        W71126  20.056  19.308   3.578
 6142W        W71127  13.327   6.092  14.448
 6143W        W71128  37.434  13.900  13.929
 6144W        W71129  18.171  24.695  13.824
 6145W        W71130  21.617  27.239   4.009
 6146W        W71131   2.767   7.632  12.099
 6147W        W71132  13.918  43.877  13.180
 6148W        W71133  26.272  34.775  12.456
 6149W        W71134  36.297   8.285   0.022
 6150W        W71135  34.864  38.146  14.241
 6151W        W71136   5.183  11.717   0.378
 6152W        W71137  25.584  43.598  14.510
 6153W        W71138  21.060  31.878  12.955
 6154W        W71139  43.759   5.603   0.826
 6155W        W71140  38.878  12.221  12.440
 6156W        W71141  14.158   3.816  10.450
 6157W        W71142  17.928   8.283   3.031
 6158W        W71143   7.818  29.421  12.722
 6159W        W71144  12.846   5.859  11.243
 6160W        W71145  44.549   8.649   1.251
 6161W        W71146  29.907  34.571   1.752
 6162W        W71147   2.434  15.849  13.111
 6163W        W71148  21.826  14.488   3.713
 6164W        W71149  41.350  34.723  10.370
 6165W        W71150   0.383  34.977   1.325
 6166W        W71151  11.072   6.988   5.542
 6167W        W71152   8.889  13.768   2.912
 6168W        W71153  33.049  13.636  14.250
 6169W        W71154  38.517  22.488   3.221
 6170W        W71155  44.068   9.890  12.122
 6171W        W71156  29.549  23.201   2.366
 6172W        W71157  39.838  33.161   2.380
 6173W        W71158   0.411   2.001   4.129
 6174W        W71159  36.682  22.799   2.312
 6175W        W71160  34.116  44.410  11.994
 6176W        W71161  19.514  40.914   1.193
 6177W        W71162   5.228  38.904  11.059
 6178W        W71163   6.498  19.856   9.788
 6179W        W71164   2.088  29.364  12.160
 6180W        W71165  37.585  26.724   3.369
 6181W        W71166  29.894   3.876   0.038
 6182W        W71167  15.729  34.397   0.474
 6183W        W71168   6.525  30.072  14.788
 6184W        W71169   5.355  35.181  13.980
 6185W        W71170   8.258  32.409  14.955
 6186W        W71171  25.051  32.518   2.688
 6187W        W71172  41.489  25.396   3.130
 6188W        W71173   2.250   2.032  12.027
 6189W        W71174  20.740  30.547  13.519
 6190W        W71175  38.204  33.579   0.877
 6191W        W71176  36.818  14.451   2.616
 6192W        W71177   6.692  28.020   0.028
 6193W        W71178  32.984  14.160  14.267
 6194W        W71179  41.883   2.735   3.751
 6195W        W71180  18.083  26.839   4.487
 6196W        W71181   6.739  25.015   4.267
 6197W        W71182  31.512  21.699   3.747
 6198W        W71183  41.680  34.316  10.287
 6199W        W71184  37.455  42.770  12.489
 6200W        W71185  16.985   6.226   1.537
 6201W        W71186  30.408  37.531  11.197
 6202W        W71187  17.774  44.803   0.772
 6203W        W71188  18.064  31.488  14.750
 6204W        W71189  44.698  20.098   0.319
 6205W        W71190  26.158  43.616  12.065
 6206W        W71191  42.424  28.546   2.802
 6207W        W71192   2.299   8.326  14.514
 6208W        W71193   4.554  23.451   4.462
 6209W        W71194   5.484  18.591   4.228
 6210W        W71195  17.320  20.186   1.272
 6211W        W71196  13.716  16.868  11.847
 6212W        W71197   4.380   7.234  10.965
 6213W        W71198  13.615  23.969   1.821
 6214W        W71199   5.655   2.372   4.045
 6215W        W71200  43.970  12.167   4.541
 6216W        W71201  17.939  35.395  13.144
 6217W        W71202   5.258   2.702   4.647
 6218W        W71203  33.380  24.593  12.388
 6219W        W71204  31.905  39.680  14.448
 6220W        W71205   8.941  12.816  12.489
 6221W        W71206  35.291  32.566  11.342
 6222W        W71207  11.347  39.752   0.359
 6223W        W71208  21.598  25.730  11.919
 6224W        W71209  18.321  11.375  12.906
 6225W        W71210  21.081  18.058   0.747
 6226W        W71211  29.965  44.255  12.133
 6227W        W71212  30.999  16.399   1.927
 6228W        W71213  26.847   8.944  13.904
 6229W        W71214   4.299  24.668   2.935
 6230W        W71215  14.130  26.981  10.151
 6231W        W71216   3.816  42.656  11.397
 6232W        W71217  10.423  40.491   2.553
 6233W        W71218  44.516  41.776  11.992
 6234W        W71219  23.960   9.619  14.178
 6235W        W71220  10.842  41.228  12.584
 6236W        W71221  30.986  38.465   3.556
 6237W        W71222  44.055  14.180   3.689
 6238W        W71223  28.149  41.915  13.866
 6239W        W71224  41.251  21.739   1.857
 6240W        W71225   5.728  11.112   3.268
 6241W        W71226  20.715  12.296  10.644
 6242W        W71227   1.190  10.823  13.851
 6243W        W71228   5.479  34.902  13.566
 6244W        W71229  20.964  31.773  10.320
 6245W        W71230  17.473  16.329   4.181
 6246W        W71231  37.873   0.915   2.966
 6247W        W71232  41.714  19.269   4.547
 6248W        W71233  42.631   7.860  11.565
 6249W        W71234  24.510  11.276   0.812
 6250W        W71235  26.231  27.063  13.502
 6251W        W71236  15.642  31.859  10.965
 6252W        W71237  31.363  36.076   0.222
 6253W        W71238  44.579  23.343  10.307
 6254W        W71239  33.748  22.831   2.622
 6255W        W71240  18.519  11.883   5.045
 6256W        W71241  28.547  17.047  10.487
 6257W        W71242  24.470  12.641  12.150
 6258W        W71243  14.076  17.743  14.434
 6259W        W71244  40.783  28.935   3.789
 6260W        W71245  40.621  15.502  13.093
 6261W        W71246  30.467  11.369   3.268
 6262W        W71247  35.707  16.710   0.022
 6263W        W71248   3.139  41.743   3.173
 6264W        W71249  34.419  32.103  13.350
 6265W        W71250  26.043   7.946  14.489
 6266W        W71251  33.693   7.702  12.474
 6267W        W71252  27.138   6.879  13.846
 6268W        W71253  30.517  33.450   4.292
 6269W        W71254  35.959  23.754  11.166
 6270W        W71255  37.585   3.766   0.493
 6271W        W71256  21.780  11.257   2.807
 6272W        W71257  14.478  33.916  11.656
 6273W        W71258  29.893  19.664  13.055
 6274W        W71259   1.632  40.510  13.441
 6275W        W71260  32.113  20.059   3.629
 6276W        W71261  31.586  38.912  12.572
 6277W        W71262  39.309  42.484   0.793
 6278W        W71263   2.140  43.898   0.457
 6279W        W71264  11.290  13.288  14.860
 6280W        W71265  19.668   0.437  10.789
 6281W        W71266  19.527  26.618   2.410
 6282W        W71267  16.315  18.149  14.926
 6283W        W71268  39.588  13.515   3.265
 6284W        W71269  42.543  25.391  11.614
 6285W        W71270  42.903  11.560   0.213
 6286W        W71271  27.737  29.352   0.248
 6287W        W71272  12.140  18.251   3.198
 6288W        W71273  21.007  14.615  12.431
 6289W        W71274  10.163   4.910   3.741
 6290W        W71275  18.374   4.845   1.717
 6291W        W71276  31.914  38.728   4.528
 6292W        W71277  14.552  38.427  14.778
 6293W        W71278   4.685  27.660  11.840
 6294W        W71279  39.889  39.275  12.060
 6295W        W71280  26.438  11.339  13.330
 6296W        W71281  18.543   6.624  10.834
 6297W        W71282  36.336  31.021  14.554
 6298W        W71283  37.813   7.874   9.852
 6299W        W71284  33.295  22.211  11.054
 6300W        W71285  26.424  15.771  11.054
 6301W        W71286   6.646  34.579   4.765
 6302W        W71287  12.432  36.029  11.083
 6303W        W71288  21.576  20.192   3.238
 6304W        W71289  35.162   7.978   0.413
 6305W        W71290   7.179  34.586  12.995
 6306W        W71291   4.077  16.901  12.931
 6307W        W71292  33.418  35.066   0.282
 6308W        W71293  14.362  39.550   1.382
 6309W        W71294  35.366  20.415   2.221
 6310W        W71295   0.482  37.930   4.536
 6311W        W71296  26.652  29.347  12.415
 6312W        W71297  15.234  22.683  14.957
 6313W        W71298  42.670  14.263   4.555
 6314W        W71299   8.057  40.617   3.800
 6315W        W71300   7.186  27.085  14.937
 6316W        W71301  12.791   9.048   4.124
 6317W        W71302  31.561  20.285   0.331
 6318W        W71303   0.502  40.882   4.555
 6319W        W71304   6.821   8.558  14.975
 6320W        W71305  29.538  26.388  12.832
 6321W        W71306  29.363  37.992   4.588
 6322W        W71307  33.387   8.654   3.056
 6323W        W71308   5.713  42.833  14.047
 6324W        W71309  17.019   0.817   0.193
 6325W        W71310  20.517  23.245  14.223
 6326W        W71311  13.124  39.814   3.600
 6327W        W71312  27.724  42.889  11.581
 6328W        W71313  16.706   3.094   3.668
 6329W        W71314  44.341  17.985   3.688
 6330W        W71315  34.344  31.920   2.153
 6331W        W71316  36.910   6.736   1.947
 6332W        W71317   9.956  18.590   3.649
 6333W        W71318  31.971   7.663  11.602
 6334W        W71319  11.096  26.080  13.325
 6335W        W71320  12.668  10.643   2.761
 6336W        W71321  27.340  23.518   4.532
 6337W        W71322   5.362  26.518   4.132
 6338W        W71323   1.931  21.571  13.291
 6339W        W71324   5.863  27.257   1.256
 6340W        W71325  18.149   9.186  14.254
 6341W        W71326  35.397  34.108  11.264
 6342W        W71327  36.479  38.820  11.589
 6343W        W71328  25.614  33.007  11.190
 6344W        W71329  40.888   2.256   2.085
 6345W        W71330  12.346   8.323   3.425
 6346W        W71331  38.025  41.010   4.250
 6347W        W71332  41.127  38.409   2.298
 6348W        W71333  44.755  22.308   4.486
 6349W        W71334  38.059  28.116  12.114
 6350W        W71335   3.350  11.793   2.390
 6351W        W71336   8.990  36.494   2.616
 6352W        W71337  14.684   0.715  14.672
 6353W        W71338  14.149   8.559   0.744
 6354W        W71339  42.747  13.835  10.618
 6355W        W71340   0.427  44.450   3.244
 6356W        W71341  30.580  12.675  11.875
 6357W        W71342  42.961  30.799  12.238
 6358W        W71343  24.568  19.011  13.835
 6359W        W71344   2.425  34.482   3.786
 6360W        W71345  32.919  17.195   3.434
 6361W        W71346  35.500   9.418  10.671
 6362W        W71347  15.653  20.129  12.982
 6363W        W71348  25.552  16.154   3.295
 6364W        W71349   0.800  39.576  11.059
 6365W        W71350  20.756  20.663   5.142
 6366W        W71351  43.045  35.173   2.797
 6367W        W71352  10.188  18.494  12.575
 6368W        W71353   7.864  27.410   2.701
 6369W        W71354  20.966  12.221   4.606
 6370W        W71355  26.476   1.971   0.244
 6371W        W71356  34.566   4.981  10.235
 6372W        W71357  34.187   7.729   2.846
 6373W        W71358   9.598  41.713  14.913
 6374W        W71359   1.208   6.260  13.084
 6375W        W71360  12.872  33.437  12.089
 6376W        W71361  31.107  13.109  12.660
 6377W        W71362   7.247  12.216   4.155
 6378W        W71363  27.486  34.780   0.395
 6379W        W71364   9.328  32.157   4.610
 6380W        W71365  19.648  40.526   3.276
 6381W        W71366  43.010  20.403   2.988
 6382W        W71367   3.289  14.377   0.642
 6383W        W71368  23.166  31.589  14.522
 6384W        W71369   6.276  28.510  13.904
 6385W        W71370  11.716  43.356  11.254
 6386W        W71371  21.324   8.159  13.105
 6387W        W71372   4.912  27.003   1.122
 6388W        W71373  19.628   3.265   0.239
 6389W        W71374  39.761   6.722   0.315
 6390W        W71375   6.023  25.497  11.538
 6391W        W71376   7.795  40.255   1.289
 6392W        W71377  41.132  25.979  14.881
 6393W        W71378  17.748   0.064  10.679
 6394W        W71379  21.177  19.125   1.252
 6395W        W71380  11.120  26.029   4.214
 6396W        W71381   9.891  39.003   4.722
 6397W        W71382  39.354  14.387  12.611
 6398W        W71383  19.607  32.534  12.945
 6399W        W71384  31.440  25.985   3.191
 6400W        W71385  27.317  17.573  12.594
 6401W        W71386  13.714  13.035   3.320
 6402W        W71387  34.335  12.001   4.125
 6403W        W71388  13.067   0.408   0.884
 6404W        W71389  44.589  20.036   4.699
 6405W        W71390  16.105  40.970  10.985
 6406W        W71391  43.842   4.178   0.372
 6407W        W71392  18.107   3.605   1.237
 6408W        W71393  38.525  27.584  13.066
 6409W        W71394  33.904  14.211  14.512
 6410W        W71395  28.845  19.707   3.685
 6411W        W71396   9.336  38.697   0.114
 6412W        W71397   9.248  15.899   2.229
 6413W        W71398   5.261  29.976   1.885
 6414W        W71399   0.476  14.331   3.363
 6415W        W71400  44.963  32.177   2.076
 6416W        W71401  11.326  20.744  10.818
 6417W        W71402  32.102  19.794   4.306
 6418W        W71403  11.675  28.739  11.614
 6419W        W71404  18.995   8.227   0.918
 6420W        W71405  40.297  31.093  12.912
 6421W        W71406  23.274   2.496   2.209
 6422W        W71407  37.490   4.811  11.161
 6423W        W71408  10.574  21.616   0.823
 6424W        W71409  25.624  34.331  14.973
 6425W        W71410  32.211  15.778  12.815
 6426W        W71411  41.038  27.161   2.268
 6427W        W71412  15.650  23.152   2.764
 6428W        W71413  35.013  34.189   3.212
 6429W        W71414  35.741   7.951   0.235
 6430W        W71415  19.835   3.979   2.899
 6431W        W71416  38.288  13.177   3.360
 6432W        W71417  21.271  15.526  13.967
 6433W        W71418  24.901   4.761   2.153
 6434W        W71419   7.163  25.720   2.102
 6435W        W71420   4.460  25.637   0.756
 6436W        W71421   0.366   6.343  11.049
 6437W        W71422   3.140   3.267   0.449
 6438W        W71423  21.179   9.735  14.214
 6439W        W71424   3.650  20.165   3.352
 6440W        W71425  16.524  28.298  11.276
 6441W        W71426  35.987  11.685   0.777
 6442W        W71427  15.285  35.522   2.837
 6443W        W71428   8.662  10.651  13.314
 6444W        W71429  11.918   7.569  14.485
 6445W        W71430  29.494   4.959  14.185
 6446W        W71431  22.713  41.023   1.346
 6447W        W71432  29.614  31.329  11.067
 6448W        W71433  12.391  12.622  10.696
 6449W        W71434  38.948  12.242  13.997
 6450W        W71435  30.347   5.859   2.531
 6451W        W71436  32.508  42.276  14.528
 6452W        W71437   8.729  39.710  11.715
 6453W        W71438  27.799   3.421   3.260
 6454W        W71439  10.486  13.375   2.290
 6455W        W71440   9.915  10.472  10.159
 6456W        W71441  23.653  13.665   3.769
 6457W        W71442  35.550  34.766  12.040
 6458W        W71443  39.558   9.765  14.917
 6459W        W71444  39.340   8.590  12.512
 6460W        W71445  23.796  26.138   3.723
 6461W        W71446  15.321  37.960  14.773
 6462W        W71447   0.358   5.494   1.172
 6463W        W71448   6.329  18.245  13.362
 6464W        W71449  30.701  42.949  14.843
 6465W        W71450  39.570  14.141  14.357
 6466W        W71451  28.168  41.412  13.982
 6467W        W71452  39.002  39.314   2.804
 6468W        W71453  15.595  10.352   0.239
 6469W        W71454   4.695  37.790   3.281
 6470W        W71455  37.964  42.954  13.937
 6471W        W71456  25.663  33.091   2.882
 6472W        W71457  29.491  31.254  14.916
 6473W        W71458   5.677  30.202  12.424
 6474W        W71459  39.821  24.623  12.367
 6475W        W71460   1.223  16.077  14.070
 6476W        W71461  39.937  44.290  12.612
 6477W        W71462  40.593   4.217   0.575
 6478W        W71463  26.939  44.955   4.570
 6479W        W71464  26.386  27.482  11.571
 6480W        W71465  38.007  42.100   3.786
 6481W        W71466  11.869   0.489   0.375
 6482W        W71467  14.147  24.924   4.031
 6483W        W71468  44.749  28.916  12.058
 6484W        W71469   6.092  21.074  12.519
 6485W        W71470  15.326  18.318  12.908
 6486W        W71471  36.878  39.904  12.856
 6487W        W71472  41.447  34.497   9.861
 6488W        W71473  18.161   7.368  11.056
 6489W        W71474   5.930   8.181   3.089
 6490W        W71475  41.859  15.609   0.518
 6491W        W71476   9.697   1.751  12.473
 6492W        W71477   3.355  27.187  14.526
 6493W        W71478  28.194  18.145  10.334
 6494W        W71479  23.287  38.768   4.164
 6495W        W71480  31.343  43.701  12.926
 6496W        W71481  10.559  42.445  12.853
 6497W        W71482  31.223  35.616  13.772
 6498W        W71483   4.207  26.465  13.528
 6499W        W71484  26.228  12.805   0.719
 6500W        W71485  37.067  30.256   1.270
 6501W        W71486   2.649  38.603  14.008
 6502W        W71487  18.322   1.332  14.253
 6503W        W71488  13.680  39.651   4.236
 6504W        W71489   5.669  29.192  14.539
 6505W        W71490  33.965  11.094  10.350
 6506W        W71491   8.018  11.349   4.139
 6507W        W71492  16.312   8.224  12.941
 6508W        W71493  43.301  32.936   1.388
 6509W        W71494   6.372  20.035   4.070
 6510W        W71495  11.006  19.205  12.596
 6511W        W71496   7.534  15.287  14.593
 6512W        W71497  26.037  14.136   1.245
 6513W        W71498  20.479  27.737   3.936
 6514W        W71499  33.075  27.232   4.089
 6515W        W71500  31.871  34.711  14.803
 6516W        W71501  11.040  10.226   4.178
 6517W        W71502  23.530  30.580  12.922
 6518W        W71503  41.528  26.754  13.316
 6519W        W71504   6.234   2.194   4.822
 6520W        W71505   9.379  33.450   3.205
 6521W        W71506  41.775  27.201  13.283
 6522W        W71507   2.322  42.064   0.518
 6523W        W71508  31.756  36.244  11.190
 6524W        W71509  41.840  16.772  13.114
 6525W        W71510  29.431  42.373   2.332
 6526W        W71511  11.221   2.306   2.411
 6527W        W71512  13.097   2.437  14.357
 6528W        W71513  16.973  38.113   3.919
 6529W        W71514  23.679  23.655   1.333
 6530W        W71515   8.224  43.365   0.365
 6531W        W71516  30.662  39.940   1.364
 6532W        W71517  42.022  19.649   2.762
 6533W        W71518  42.770  23.692  10.552
 6534W        W71519  37.961  30.229   1.276
 6535W        W71520  24.370  20.608  14.796
 6536W        W71521  22.157   2.606   2.172
 6537W        W71522  29.719   4.579  13.914
 6538W        W71523  15.839   0.024  12.558
 6539W        W71524  24.099   5.811  11.289
 6540W        W71525  30.928  34.339   1.976
 6541W        W71526  36.453   7.744   4.991
 6542W        W71527  17.294  31.658   0.340
 6543W        W71528  35.169  19.056   4.401
 6544W        W71529  30.446  42.059  10.765
 6545W        W71530  41.097  34.059   1.276
 6546W        W71531  35.825  38.203  10.742
 6547W        W71532  27.140  21.228  14.843
 6548W        W71533   6.410  17.303  11.650
 6549W        W71534  25.002  32.118   5.081
 6550W        W71535  14.019  28.516  10.991
 6551W        W71536  42.951  10.367  11.499
 6552W        W71537  25.169  40.730   0.869
 6553W        W71538  40.499  12.934   4.298
 6554W        W71539  17.205  15.584   4.128
 6555W        W71540  25.738   3.170   4.703
 6556W        W71541  33.513  17.497  11.192
 6557W        W71542  23.772  36.610   3.314
 6558W        W71543  36.274  20.258  13.810
 6559W        W71544  36.602   5.405   0.574
 6560W        W71545  42.730  17.303  12.453
 6561W        W71546   0.368  43.308   4.572
 6562W        W71547   9.885  12.199   4.182
 6563W        W71548  37.600  41.184  14.787
 6564W        W71549  24.909  17.007  12.383
 6565W        W71550  43.582  20.854   4.522
 6566W        W71551  12.723  41.847  10.692
 6567W        W71552  33.992  15.510  13.233
 6568W        W71553   4.162  38.007  12.755
 6569W        W71554  30.534   9.204   0.798
 6570W        W71555  17.338  44.122  11.470
 6571W        W71556  19.224  35.266   3.215
 6572W        W71557  12.630  20.611  12.397
 6573W        W71558  40.321   7.446  11.966
 6574W        W71559  22.477  22.602  13.286
 6575W        W71560  26.326   0.491  12.093
 6576W        W71561  43.861   7.688   4.198
 6577W        W71562   7.963  37.621  12.556
 6578W        W71563  17.123   6.784   5.622
 6579W        W71564  22.462  17.577   3.625
 6580W        W71565  38.901  40.311   1.412
 6581W        W71566  23.271   3.403  14.181
 6582W        W71567   0.875  44.748   0.009
 6583W        W71568   2.524   6.310   2.793
 6584W        W71569  15.782  18.073  11.737
 6585W        W71570  37.244   7.118   0.941
 6586W        W71571  44.244  40.314   1.894
 6587W        W71572  19.275  15.788  10.424
 6588W        W71573  35.818  33.574   3.596
 6589W        W71574  21.742   7.595   1.291
 6590W        W71575  26.198  27.888   0.048
 6591W        W71576  24.840  17.148  13.325
 6592W        W71577  39.067  10.277  11.635
 6593W        W71578   6.169  21.804  10.404
 6594W        W71579   5.887  19.671   3.190
 6595W        W71580  13.897   2.215  13.017
 6596W        W71581  38.889  39.289  13.687
 6597W        W71582  18.645   4.175   1.297
 6598W        W71583  43.792  32.275   2.767
 6599W        W71584   5.071   5.192   3.754
 6600W        W71585   4.127  23.405   3.106
 6601W        W71586  30.401  43.787  12.983
 6602W        W71587  43.622   5.356  13.937
 6603W        W71588  25.269  14.090  12.596
 6604W        W71589   2.725   1.319   0.004
 6605W        W71590  34.314  42.662  14.016
 6606W        W71591  25.901  29.476   0.233
 6607W        W71592  28.963  11.196   4.635
 6608W        W71593  39.374   1.982   3.332
 6609W        W71594   4.932  17.778  12.302
 6610W        W71595  10.359  40.987   1.950
 6611W        W71596  34.931  41.873   1.639
 6612W        W71597  30.287  22.675   1.731
 6613W        W71598   7.719  27.230  10.416
 6614W        W71599   9.652  37.474  14.423
 6615W        W71600  21.712   9.112  11.108
 6616W        W71601  27.007  18.098  10.413
 6617W        W71602  29.174   7.409  11.986
 6618W        W71603   0.321  31.565  13.185
 6619W        W71604  29.172  41.679   4.170
 6620W        W71605  43.327   9.005  11.605
 6621W        W71606   0.516  28.232   0.269
 6622W        W71607  27.039  13.703   3.330
 6623W        W71608   8.836  39.114   2.007
 6624W        W71609  21.101   9.186  13.088
 6625W        W71610  44.291  38.331  10.564
 6626W        W71611  41.360   0.299   1.443
 6627W        W71612  22.658  28.727  12.089
 6628W        W71613  37.620  29.631  13.797
 6629W        W71614  18.334  16.593  10.605
 6630W        W71615  27.587   0.389   3.504
 6631W        W71616  34.449  10.109  14.749
 6632W        W71617  25.719  43.303  12.279
 6633W        W71618  39.179  23.979  13.810
 6634W        W71619  25.574  27.360   3.679
 6635W        W71620  38.334  30.208   0.935
 6636W        W71621  39.951   1.149  11.898
 6637W        W71622  21.013  24.486   0.715
 6638W        W71623  42.259   3.494   3.272
 6639W        W71624  41.009  38.046  13.447
 6640W        W71625  31.749   5.950   2.337
 6641W        W71626  17.488   8.663  13.281
 6642W        W71627  41.813   1.071   1.890
 6643W        W71628  15.110  14.977   4.300
 6644W        W71629  17.726   9.767   3.917
 6645W        W71630   9.444  32.472  14.450
 6646W        W71631  37.005  22.279  11.062
 6647W        W71632  39.700  29.584  12.031
 6648W        W71633  20.194  43.893  13.288
 6649W        W71634  20.554  15.809   3.262
 6650W        W71635  11.244   9.229  11.713
 6651W        W71636  19.272  18.789   1.801
 6652W        W71637  30.682   7.301   3.726
 6653W        W71638  39.768   1.867  13.521
 6654W        W71639   4.127  30.527  14.727
 6655W        W71640  10.234  29.374  14.550
 6656W        W71641  27.978   9.156   4.649
 6657W        W71642   2.011  36.486  13.632
 6658W        W71643  44.602  35.543  13.702
 6659W        W71644  17.991   3.954  12.477
 6660W        W71645  34.948  17.853   4.192
 6661W        W71646  10.814  42.025  13.072
 6662W        W71647  12.266  41.384  13.520
 6663W        W71648  17.260  27.682  12.922
 6664W        W71649  36.558  28.475  14.000
 6665W        W71650  41.302  13.300   3.697
 6666W        W71651  27.169   4.147  12.897
 6667W        W71652  41.776  25.536  12.868
 6668W        W71653   7.444   9.728  12.365
 6669W        W71654   2.750   0.386   4.105
 6670W        W71655  33.047  30.132  14.912
 6671W        W71656  22.950   1.449   4.310
 6672W        W71657  27.022  28.429   1.607
 6673W        W71658   7.875  14.158  14.836
 6674W        W71659  20.721  18.963   3.016
 6675W        W71660  21.297  42.895  14.491
 6676W        W71661  33.033   5.087   9.803
 6677W        W71662  31.213   1.949   1.709
 6678W        W71663   0.895   8.972   1.591
 6679W        W71664  11.646   3.731   3.739
 6680W        W71665   5.381  41.518   1.336
 6681W        W71666  19.830  11.170   2.324
 6682W        W71667  24.784  37.586   0.276
 6683W        W71668  41.870  12.067  11.481
 6684W        W71669  41.564   9.239   1.256
 6685W        W71670  20.794  34.480   1.458
 6686W        W71671  13.881  36.924   1.215
 6687W        W71672  28.979  34.308  12.289
 6688W        W71673  31.663   8.735  14.872
 6689W        W71674   7.838  19.747   3.268
 6690W        W71675  15.761   9.170  12.060
 6691W        W71676  21.625  12.028  13.930
 6692W        W71677  16.886   3.854   1.864
 6693W        W71678  13.386   8.033  10.056
 6694W        W71679  36.345   8.929  12.100
 6695W        W71680   5.805  16.653  12.641
 6696W        W71681  42.762  42.687  10.992
 6697W        W71682  16.089  39.517   2.634
 6698W        W71683  12.821  27.020   2.129
 6699W        W71684  28.961   8.913   0.701
 6700W        W71685  34.635  44.358   1.900
 6701W        W71686  38.211  35.549  11.181
 6702W        W71687  26.123  33.409  12.624
 6703W        W71688  33.441  23.755  14.477
 6704W        W71689   7.929  31.913   2.255
 6705W        W71690  20.217   3.022  11.030
 6706W        W71691  19.685  11.679   3.183
 6707W        W71692   2.283  34.994  12.521
 6708W        W71693   3.380  17.736   2.487
 6709W        W71694   3.259  23.646   1.536
 6710W        W71695  40.313  40.804  14.393
 6711W        W71696  25.253  27.393   2.682
 6712W        W71697  37.536  26.977   3.822
 6713W        W71698  19.305   2.779  12.554
 6714W        W71699   8.381  25.950  14.403
 6715W        W71700  25.179   4.115   1.757
 6716W        W71701  24.958   2.758  11.556
 6717W        W71702  43.005  20.637  12.349
 6718W        W71703  19.492  19.780  13.020
 6719W        W71704  32.706  10.730   2.853
 6720W        W71705   4.203  23.738   1.785
 6721W        W71706  18.718  30.708   4.832
 6722W        W71707   6.759  15.823   4.916
 6723W        W71708  12.475   6.452   3.270
 6724W        W71709  12.325   7.151   0.337
 6725W        W71710  27.104   7.223   0.046
 6726W        W71711  11.768   1.683   3.282
 6727W        W71712   6.706  44.782  12.521
 6728W        W71713  27.143  35.480   0.276
 6729W        W71714  36.932   7.274  12.435
 6730W        W71715   4.708  36.071   3.670
 6731W        W71716  37.879  30.475  13.930
 6732W        W71717  33.471  33.115  11.881
 6733W        W71718  11.414  28.444   2.340
 6734W        W71719  29.228  39.935   0.855
 6735W        W71720  36.889  16.222  14.000
 6736W        W71721  13.317  36.170  13.670
 6737W        W71722  39.622  35.896  13.086
 6738W        W71723  27.518   3.737   0.692
 6739W        W71724   9.397  13.561  10.765
 6740W        W71725  13.181   9.909   3.843
 6741W        W71726  25.443  33.686   3.618
 6742W        W71727  41.473  16.533   3.123
 6743W        W71728  36.506  16.702  14.538
 6744W        W71729   9.976   3.050   0.829
 6745W        W71730  25.908   7.500   2.334
 6746W        W71731  24.167  29.552  14.316
 6747W        W71732   1.956  39.531  14.814
 6748W        W71733  18.784  36.623   3.207
 6749W        W71734  26.490   5.404   4.179
 6750W        W71735  31.888   1.311   2.855
 6751W        W71736  21.502   7.201  13.915
 6752W        W71737  27.543  28.030   0.718
 6753W        W71738   4.736  17.572   1.382
 6754W        W71739  40.150  44.746  11.904
 6755W        W71740  18.728  35.222   1.068
 6756W        W71741  28.382  43.253   3.294
 6757W        W71742  27.227  44.904  10.713
 6758W        W71743  24.590  11.702  12.682
 6759W        W71744  30.282  29.824  13.991
 6760W        W71745  23.243   8.209  12.119
 6761W        W71746  12.778  41.819   2.002
 6762W        W71747  30.536  40.367  11.063
 6763W        W71748  16.027  30.026  12.480
 6764W        W71749  11.373  22.643  11.119
 6765W        W71750   6.874  20.218  14.435
 6766W        W71751   2.291  18.250   3.011
 6767W        W71752   1.468  13.218   1.020
 6768W        W71753  12.550  10.826   3.668
 6769W        W71754  34.123   2.996   1.408
 6770W        W71755  25.425   6.840   4.226
 6771W        W71756  26.672   1.374  13.869
 6772W        W71757  36.587  35.628   1.354
 6773W        W71758  34.796  25.999  13.854
 6774W        W71759  36.505  38.932   2.653
 6775W        W71760  35.518  26.117   4.808
 6776W        W71761  10.394  36.330   4.293
 6777W        W71762   8.758  32.641   0.193
 6778W        W71763  11.720  30.956   2.006
 6779W        W71764   5.626  21.550  11.851
 6780W        W71765  36.694   5.809  10.115
 6781W        W71766  22.999  35.689  14.289
 6782W        W71767  33.874  20.545  14.972
 6783W        W71768  29.367  44.865  10.357
 6784W        W71769  39.849  30.215   4.261
 6785W        W71770  34.130  22.496   2.437
 6786W        W71771  33.815   9.200   3.755
 6787W        W71772  28.418  40.769  13.800
 6788W        W71773  20.593   1.322   0.097
 6789W        W71774  43.624  44.976   1.835
 6790W        W71775  25.561  15.089  14.400
 6791W        W71776  13.317  35.866   4.652
 6792W        W71777  32.365  25.473  11.958
 6793W        W71778  27.125  16.578   1.295
 6794W        W71779  26.409  27.055   1.370
 6795W        W71780   1.303  34.905   4.498
 6796W        W71781   2.847  18.708  10.543
 6797W        W71782  24.481  17.654   4.587
 6798W        W71783  23.866  20.027   3.972
 6799W        W71784  15.141  24.548  10.258
 6800W        W71785  17.348  38.072  14.287
 6801W        W71786   0.968  22.440   5.353
 6802W        W71787  18.652   9.489   2.822
 6803W        W71788  23.192  12.432  10.920
 6804W        W71789  14.971   4.366   1.868
 6805W        W71790  15.263  23.718   2.342
 6806W        W71791   4.386  20.272   0.363
 6807W        W71792   2.802   7.133  14.373
 6808W        W71793   4.384  27.091   2.338
 6809W        W71794   5.669  31.187   2.377
 6810W        W71795  21.285  37.052   3.874
 6811W        W71796  14.111  37.915  13.283
 6812W        W71797  43.399  42.779   3.374
 6813W        W71798   7.001  12.368   4.608
 6814W        W71799  25.148   2.023   2.183
 6815W        W71800   7.510   1.486   2.804
 6816W        W71801  32.081   5.110  11.459
 6817W        W71802  43.851  29.599   1.018
 6818W        W71803   1.733  13.698  14.990
 6819W        W71804  28.089  41.453  11.236
 6820W        W71805  43.608  43.029   4.733
 6821W        W71806   1.001  30.681   3.199
 6822W        W71807  32.352  32.087  14.351
 6823W        W71808  32.093  23.252  14.449
 6824W        W71809  13.080  27.467   5.428
 6825W        W71810   7.345  16.302  13.771
 6826W        W71811  33.372  34.314   0.940
 6827W        W71812   1.318  30.033  11.992
 6828W        W71813   9.252   7.352   3.169
 6829W        W71814  41.305  28.498  11.031
 6830W        W71815  15.414   1.539  10.686
 6831W        W71816  31.042  10.653   3.269
 6832W        W71817  31.691  39.843   1.393
 6833W        W71818   5.329  19.352  12.249
 6834W        W71819  34.877  30.929  12.262
 6835W        W71820  21.476  11.852  14.858
 6836W        W71821  28.910  18.616   0.067
 6837W        W71822   3.506  11.340   0.584
 6838W        W71823  17.493   1.735  13.365
 6839W        W71824  38.565  37.483  14.792
 6840W        W71825   3.976   0.596   2.021
 6841W        W71826  44.529  24.132  11.465
 6842W        W71827  14.526  30.464  13.290
 6843W        W71828  34.384  26.069  11.535
 6844W        W71829   0.677  27.838  13.896
 6845W        W71830  40.571  31.846   3.633
 6846W        W71831  29.019  34.330   2.231
 6847W        W71832   2.490  23.450   3.673
 6848W        W71833  23.924   6.376  12.414
 6849W        W71834  19.781  30.430  14.834
 6850W        W71835   8.576  33.839   4.169
 6851W        W71836  14.747  21.481  13.433
 6852W        W71837  23.391  36.381   1.328
 6853W        W71838  12.823  38.044  10.697
 6854W        W71839  44.325  37.022  12.077
 6855W        W71840  22.755  44.053   4.226
 6856W        W71841  14.088  25.599   2.427
 6857W        W71842  10.119  29.093   1.225
 6858W        W71843  12.610  14.881  13.014
 6859W        W71844  14.070  14.715  13.057
 6860W        W71845  39.881  23.249  11.562
 6861W        W71846  24.025  34.129  12.621
 6862W        W71847  14.563  21.732   1.751
 6863W        W71848  14.018  21.225   4.822
 6864W        W71849  24.473  27.450  13.455
 6865W        W71850  37.295  25.459   3.503
 6866W        W71851  17.582  32.711  13.545
 6867W        W71852  18.808  37.187   1.274
 6868W        W71853  39.854   5.746   3.386
 6869W        W71854   5.743   3.787  13.050
 6870W        W71855  24.469  12.170  12.452
 6871W        W71856   8.200   2.846  12.928
 6872W        W71857   0.491  13.883  14.510
 6873W        W71858  31.415   7.595   1.691
 6874W        W71859  24.573  29.666   2.251
 6875W        W71860  37.265  36.286  12.648
 6876W        W71861  30.895  23.343  14.304
 6877W        W71862  21.093  40.354   3.553
 6878W        W71863  12.932  21.680  12.538
 6879W        W71864   4.698  24.064  13.382
 6880W        W71865  36.505  25.355  14.592
 6881W        W71866   7.827  44.515  13.384
 6882W        W71867  12.298  30.553  10.418
 6883W        W71868  27.181  31.279  12.973
 6884W        W71869  13.132  35.452   4.936
 6885W        W71870  28.105  24.326  10.321
 6886W        W71871  32.067  18.797   1.349
 6887W        W71872  29.991  14.769  14.266
 6888W        W71873  36.764   5.967  11.686
 6889W        W71874  35.462  44.010  12.016
 6890W        W71875  36.840  14.282   1.123
 6891W        W71876   9.263   7.949  14.474
 6892W        W71877  39.474   5.443  12.922
 6893W        W71878  16.083   0.794  13.831
 6894W        W71879  13.761  32.652  14.836
 6895W        W71880   3.796  44.810   2.433
 6896W        W71881  33.560  44.012   3.137
 6897W        W71882  13.041  39.273   0.015
 6898W        W71883  32.687   1.966   2.698
 6899W        W71884   0.849  35.517  10.631
 6900W        W71885  40.867   0.809   0.902
 6901W        W71886  12.072  11.381  11.720
 6902W        W71887  42.960   0.304  14.856
 6903W        W71888  31.121  15.216   3.212
 6904W        W71889   0.248   0.704   1.473
 6905W        W71890  36.393  32.240  11.981
 6906W        W71891  35.465  44.720  14.378
 6907W        W71892  15.599   5.761  13.112
 6908W        W71893   5.288  14.832  11.108
 6909W        W71894  29.114  10.775  10.764
 6910W        W71895  39.139   8.140   4.165
 6911W        W71896   6.120  15.009  11.579
 6912W        W71897  44.342  42.342  11.612
 6913W        W71898   9.104  33.000  10.974
 6914W        W71899   6.144  23.712  13.036
 6915W        W71900  27.222  29.768   2.756
 6916W        W71901  43.544  26.335   9.737
 6917W        W71902  28.818   5.295   2.129
 6918W        W71903  42.420  10.449   1.295
 6919W        W71904  34.064  20.090   0.900
 6920W        W71905   7.246   9.134  11.578
 6921W        W71906  20.982  17.748   2.017
 6922W        W71907  33.161   3.763  12.142
 6923W        W71908  21.942   3.973   0.356
 6924W        W71909  27.490  42.331   0.915
 6925W        W71910  12.644  19.635   4.588
 6926W        W71911   2.942   3.660  13.322
 6927W        W71912  33.542  11.103  11.581
 6928W        W71913  10.280  29.061  13.062
 6929W        W71914   3.715  12.831  13.391
 6930W        W71915  17.022   9.899   2.092
 6931W        W71916  26.346  28.846   4.537
 6932W        W71917   2.447  17.613  12.093
 6933W        W71918  18.220  29.544   1.411
 6934W        W71919  35.232  31.631  10.824
 6935W        W71920  33.617  41.494  13.636
 6936W        W71921  11.606  21.554   2.840
 6937W        W71922  11.030  12.953  11.062
 6938W        W71923   2.531  19.660   0.244
 6939W        W71924  32.971  21.473   1.789
 6940W        W71925  24.270  32.100  11.231
 6941W        W71926  41.961  12.590  14.360
 6942W        W71927  27.001  36.331  11.958
 6943W        W71928  39.281  41.957  11.527
 6944W        W71929  23.611  29.071  12.986
 6945W        W71930  44.260  37.641  14.771
 6946W        W71931   2.915  44.490   0.056
 6947W        W71932  37.413  18.675   0.343
 6948W        W71933  23.964  16.706   3.688
 6949W        W71934   1.426  27.406  11.558
 6950W        W71935  36.938  43.463  12.488
 6951W        W71936   1.257   8.393  12.474
 6952W        W71937  25.194  28.789  14.062
 6953W        W71938  41.994  13.059  11.503
 6954W        W71939   6.770   3.963   2.415
 6955W        W71940  28.574  44.330  12.074
 6956W        W71941  29.490  27.089  12.315
 6957W        W71942  42.938   8.135   2.805
 6958W        W71943  11.093   7.368  13.943
 6959W        W71944  40.420  36.407   1.215
 6960W        W71945  15.577  21.407  13.667
 6961W        W71946  32.567  30.361  14.908
 6962W        W71947   1.266   3.888   0.477
 6963W        W71948  23.909  24.835   1.741
 6964W        W71949  13.483  23.742   3.179
 6965W        W71950  34.661   4.174   0.622
 6966W        W71951  27.567  40.454  14.354
 6967W        W71952  29.016  13.708   4.604
 6968W        W71953  30.103  35.900   4.889
 6969W        W71954  44.253  36.625  14.872
 6970W        W71955  29.530  20.516  14.361
 6971W        W71956  23.628  23.295   4.906
 6972W        W71957  26.948  12.760   4.545
 6973W        W71958  19.199   3.680   4.227
 6974W        W71959  35.628  19.810  13.370
 6975W        W71960  29.535   7.435   4.567
 6976W        W71961  22.459  22.952   1.543
 6977W        W71962  13.091  38.399   0.957
 6978W        W71963  26.066  26.691   1.210
 6979W        W71964  28.083   9.230   0.297
 6980W        W71965  24.198  44.112   3.218
 6981W        W71966  23.812   1.277  12.535
 6982W        W71967  43.067  38.365   3.157
 6983W        W71968  35.852  27.033   2.316
 6984W        W71969  43.916  12.608  13.553
 6985W        W71970  35.488  12.047  12.342
 6986W        W71971  33.313  42.872   2.792
 6987W        W71972   0.819  20.076   4.228
 6988W        W71973  26.695  10.639   1.711
 6989W        W71974  26.869  29.580   4.000
 6990W        W71975  37.243  38.782   3.347
 6991W        W71976  15.194  23.567  11.494
 6992W        W71977  22.056  12.139   1.697
 6993W        W71978  40.560  43.050  13.056
 6994W        W71979   5.190  31.653   3.640
 6995W        W71980  31.513   7.438  11.530
 6996W        W71981  37.467  32.335   2.588
 6997W        W71982  21.616  26.136  11.511
 6998W        W71983  18.973   8.845  14.383
 6999W        W71984  30.539  41.089  11.599
 7000W        W71985  27.939  19.357   3.262
 7001W        W71986   3.170  23.091   1.406
 7002W        W71987   0.831  24.930   3.331
 7003W        W71988  43.967  26.474   3.379
 7004W        W71989  25.780  18.709   0.381
 7005W        W71990  26.079  15.819  10.644
 7006W        W71991  13.521  37.370  11.506
 7007W        W71992  38.590   4.458  12.462
 7008W        W71993  26.030   9.869   1.678
 7009W        W71994  28.065  34.016   4.514
 7010W        W71995   2.053  29.616   4.105
 7011W        W71996  14.786  29.573   1.506
 7012W        W71997  25.691   6.696   1.311
 7013W        W71998   9.733  26.675  10.658
 7014W        W71999  10.670  26.268   4.246
 7015W        W72000   6.719  39.573  13.289
 7016W        W72001  44.739  24.823   3.122
 7017W        W72002  32.185  25.910   3.752
 7018W        W72003  18.222   2.860   2.404
 7019W        W72004  44.761  33.671  11.000
 7020W        W72005  13.321  43.026   0.497
 7021W        W72006   6.524   9.105   4.291
 7022W        W72007  18.144  19.931  12.379
 7023W        W72008  13.632  35.458   4.759
 7024W        W72009  30.585  44.688  10.400
 7025W        W72010  31.922  16.184  13.080
 7026W        W72011  22.430  28.934   3.093
 7027W        W72012   4.404  23.574  14.926
 7028W        W72013  22.145   4.677   2.285
 7029W        W72014  10.239  25.639  13.794
 7030W        W72015  14.401  16.133   4.653
 7031W        W72016  30.053   9.891   3.784
 7032W        W72017  12.200  39.489   3.724
 7033W        W72018  18.472  35.512   4.906
 7034W        W72019   5.739  36.594  10.586
 7035W        W72020   6.813  31.485   1.934
 7036W        W72021  33.601  36.633  13.274
 7037W        W72022  12.737  44.018  14.260
 7038W        W72023  26.040  13.843   1.741
 7039W        W72024  33.432  27.585   0.216
 7040W        W72025  11.723  20.468   0.480
 7041W        W72026  21.317  30.829  11.174
 7042W        W72027  10.707  11.488   1.058
 7043W        W72028  10.437   5.207   1.426
 7044W        W72029  27.619  10.832  12.035
 7045W        W72030  22.843   0.766   0.808
 7046W        W72031  29.657   8.764   0.001
 7047W        W72032  37.985  23.986  14.564
 7048W        W72033   5.981  10.633  11.676
 7049W        W72034   4.199  23.974  12.506
 7050W        W72035  21.737  10.143  11.067
 7051W        W72036  21.217  32.877  12.601
 7052W        W72037   6.550  37.020   3.773
 7053W        W72038   6.756  25.544   3.040
 7054W        W72039  27.754   6.353  14.357
 7055W        W72040  27.711  34.558   0.805
 7056W        W72041  19.655  11.340   2.789
 7057W        W72042  16.958  43.267  13.669
 7058W        W72043  10.927  33.278  12.925
 7059W        W72044  10.351  43.847  12.941
 7060W        W72045  35.007  22.340  11.088
 7061W        W72046  31.054  31.398  12.627
 7062W        W72047  40.327   4.170   1.886
 7063W        W72048   2.877  20.554   4.394
 7064W        W72049  24.141  25.690  10.918
 7065W        W72050  29.514  25.874  12.715
 7066W        W72051  33.082  42.273  11.390
 7067W        W72052  24.576   3.023   4.132
 7068W        W72053  27.699  27.986  12.091
 7069W        W72054  33.646  25.064   4.094
 7070W        W72055  34.410  37.787  11.527
 7071W        W72056   8.133  40.924  10.422
 7072W        W72057  20.452   0.431   4.222
 7073W        W72058  39.426  22.231   2.070
 7074W        W72059   5.071  39.093  14.022
 7075W        W72060   7.405   3.833   0.643
 7076W        W72061  36.894  20.722  12.473
 7077W        W72062  38.856   5.420  13.951
 7078W        W72063  20.068  22.693  10.679
 7079W        W72064  15.074  31.814  13.382
 7080W        W72065  28.996  35.317  12.442
 7081W        W72066  35.540  36.508   4.305
 7082W        W72067  14.814  11.195  12.085
 7083W        W72068  13.216  15.521   3.748
 7084W        W72069  31.993   0.056   0.851
 7085W        W72070  42.079   7.871   1.698
 7086W        W72071  44.957  41.431   3.383
 7087W        W72072  19.321  15.012  14.041
 7088W        W72073  14.441   2.007   3.683
 7089W        W72074  36.955  38.633   4.671
 7090W        W72075  26.991  11.629   4.067
 7091W        W72076  12.953  14.115   0.706
 7092W        W72077  23.413  35.238   3.087
 7093W        W72078  30.514  30.039   2.807
 7094W        W72079  16.906  33.950  11.181
 7095W        W72080  15.324  27.156  13.623
 7096W        W72081   2.274  14.531   0.727
 7097W        W72082  41.672  16.105  10.715
 7098W        W72083  26.522  10.248  14.879
 7099W        W72084  21.480  25.492   3.759
 7100W        W72085  42.362   1.747   2.902
 7101W        W72086   2.870   7.316   1.181
 7102W        W72087  29.446  42.637  10.721
 7103W        W72088  31.100   6.635   0.325
 7104W        W72089   3.831   0.016   0.061
 7105W        W72090   0.662  24.245   0.533
 7106W        W72091  29.782  13.048  12.518
 7107W        W72092   0.239  27.734   3.950
 7108W        W72093   1.274  35.357   4.756
 7109W        W72094   8.331  17.954   1.244
 7110W        W72095  11.873  11.931  11.007
 7111W        W72096  18.538  10.123  10.661
 7112W        W72097  27.005  15.819   0.203
 7113W        W72098   6.850   8.410   0.868
 7114W        W72099   9.963  32.360  14.492
 7115W        W72100  34.695  36.384   0.343
 7116W        W72101  29.794   8.036  11.457
 7117W        W72102  42.905   2.873  13.073
 7118W        W72103   1.950  30.483  13.050
 7119W        W72104  36.421   5.614   4.545
 7120W        W72105   8.108  36.631  14.952
 7121W        W72106  18.325  15.150   3.235
 7122W        W72107   1.301  40.786   1.297
 7123W        W72108   2.530  26.557  13.778
 7124W        W72109  20.209  13.785   3.379
 7125W        W72110  19.780  12.521   1.952
 7126W        W72111   7.645  10.214   4.134
 7127W        W72112  22.743  41.518   2.281
 7128W        W72113   1.796  29.189   4.306
 7129W        W72114  21.725  28.637   4.166
 7130W        W72115  13.335  41.872  11.382
 7131W        W72116  26.042  29.083   3.580
 7132W        W72117  14.507  41.296   2.127
 7133W        W72118  27.134  43.899  12.506
 7134W        W72119  26.628  20.122   3.607
 7135W        W72120  31.606  42.130   2.778
 7136W        W72121  40.446  15.767  14.920
 7137W        W72122  41.425  24.218  10.797
 7138W        W72123  24.126  15.490  14.801
 7139W        W72124  42.023   2.242  12.520
 7140W        W72125  31.314   4.813   0.000
 7141W        W72126  42.275   9.853  11.714
 7142W        W72127   1.453  40.032  13.698
 7143W        W72128   0.165  12.606   1.692
 7144W        W72129  12.206  43.371  11.145
 7145W        W72130  12.251  13.674   0.029
 7146W        W72131  43.144  38.137  14.833
 7147W        W72132  12.148   1.263   2.398
 7148W        W72133  21.321  43.371  10.620
 7149W        W72134   4.997  35.055  14.590
 7150W        W72135  25.652   3.619   1.184
 7151W        W72136  20.208  41.729   1.198
 7152W        W72137  28.597  27.188  11.462
 7153W        W72138  39.283  23.544  14.711
 7154W        W72139  24.215  21.538  12.198
 7155W        W72140  16.308   9.967   4.593
 7156W        W72141  43.994   8.307   0.475
 7157W        W72142  24.713  43.501   2.372
 7158W        W72143  34.919  43.806   1.455
 7159W        W72144   1.061  14.111  13.383
 7160W        W72145  29.994  14.619  14.812
 7161W        W72146  44.768  13.347   2.189
 7162W        W72147  23.017  35.868   0.503
 7163W        W72148  20.481  11.276   1.510
 7164W        W72149  35.477  31.256  11.855
 7165W        W72150  11.347  23.494  13.461
 7166W        W72151   8.893   1.426  14.532
 7167W        W72152  29.039  28.146   0.604
 7168W        W72153  23.680   0.496  11.510
 7169W        W72154  22.779  35.952   2.700
 7170W        W72155  29.167  37.679  14.604
 7171W        W72156   3.486  26.004   2.651
 7172W        W72157  39.237  27.671   1.236
 7173W        W72158  27.922  14.538   2.857
 7174W        W72159   0.879  24.707   1.417
 7175W        W72160  32.546  43.688   2.162
 7176W        W72161   4.366  13.689  11.705
 7177W        W72162  34.008  40.722   3.185
 7178W        W72163  21.580  13.734   3.290
 7179W        W72164   4.599  13.819  14.485
 7180W        W72165  21.653  42.070  14.510
 7181W        W72166   1.772  25.880  12.989
 7182W        W72167  23.077  38.498   4.538
 7183W        W72168   7.662   0.980  13.100
 7184W        W72169  39.874  32.261  12.925
 7185W        W72170  16.690   4.560  11.209
 7186W        W72171   2.792  20.459   3.853
 7187W        W72172   6.646  19.359  13.540
 7188W        W72173  36.941   1.791  10.614
 7189W        W72174  38.929  31.900  10.951
 7190W        W72175  29.987   9.627   2.413
 7191W        W72176  30.691  41.708  12.929
 7192W        W72177  33.565  13.720  12.277
 7193W        W72178  27.491   7.981   2.691
 7194W        W72179  34.055  12.152   1.787
 7195W        W72180  27.877  23.523   4.526
 7196W        W72181  18.776  29.245  13.839
 7197W        W72182   2.123  29.905   0.554
 7198W        W72183  21.446  36.377   0.762
 7199W        W72184  22.474  41.454   0.917
 7200W        W72185   2.670  11.890  13.557
 7201W        W72186  26.958  35.791  11.182
 7202W        W72187  28.707  27.634  11.932
 7203W        W72188  39.736  28.877   0.923
 7204W        W72189   0.415  33.072  10.693
 7205W        W72190  37.899  29.593  14.915
 7206W        W72191  29.088   8.701  13.851
 7207W        W72192  27.226  27.611   0.692
 7208W        W72193  25.693  36.551  13.782
 7209W        W72194  30.790   4.883  12.015
 7210W        W72195  39.909  41.559  14.164
 7211W        W72196  23.224  36.917  13.039
 7212W        W72197  26.996   2.434  12.025
 7213W        W72198  22.550  11.396  10.785
 7214W        W72199  10.384   6.699  11.600
 7215W        W72200   9.276  19.404   2.147
 7216W        W72201  18.491  19.997   0.498
 7217W        W72202   3.328   0.910   0.748
 7218W        W72203  34.433   7.145  14.838
 7219W        W72204  42.414  13.850   1.966
 7220W        W72205  34.300  11.233   4.620
 7221W        W72206  36.544  21.733  12.193
 7222W        W72207   4.699   4.193  13.080
 7223W        W72208   4.415  39.765   1.395
 7224W        W72209   7.703  20.080   1.775
 7225W        W72210  20.361  22.278  10.613
 7226W        W72211  43.050   9.630   1.351
 7227W        W72212   2.808  30.020  14.915
 7228W        W72213  35.456  11.677   1.747
 7229W        W72214   6.189  23.902   1.384
 7230W        W72215  27.273  32.020   0.215
 7231W        W72216  40.798  43.142  11.914
 7232W        W72217  16.172  28.080  12.499
 7233W        W72218   7.641  22.700  10.375
 7234W        W72219   1.243   5.952  13.955
 7235W        W72220  11.734   0.276   1.651
 7236W        W72221  14.138  18.171  12.445
 7237W        W72222  31.685  42.961   3.041
 7238W        W72223  44.884  24.341  12.039
 7239W        W72224  25.536  17.086  12.930
 7240W        W72225  37.921   8.326   4.569
 7241W        W72226  17.707  32.083  14.761
 7242W        W72227  22.637  22.512   0.982
 7243W        W72228  12.013  10.085  12.162
 7244W        W72229  34.712  28.466  10.237
 7245W        W72230  25.444   1.830  14.437
 7246W        W72231  20.692  15.954   2.742
 7247W        W72232  32.874  41.787   4.532
 7248W        W72233  16.579  30.643   0.278
 7249W        W72234   9.757  18.800   2.795
 7250W        W72235  42.451  12.675   4.065
 7251W        W72236   4.192   6.476  11.454
 7252W        W72237  21.000  12.031  13.246
 7253W        W72238  14.137  26.684  13.997
 7254W        W72239  23.671  34.391   1.700
 7255W        W72240  10.631  35.995  13.294
 7256W        W72241  43.941  26.065   3.720
 7257W        W72242  44.792  30.569   4.635
 7258W        W72243   2.460  24.184  12.044
 7259W        W72244  32.631  23.559   4.601
 7260W        W72245  21.834  41.258  11.955
 7261W        W72246  38.393  14.127  13.056
 7262W        W72247  40.381  26.623  14.722
 7263W        W72248  16.852  44.957   0.293
 7264W        W72249  21.065   9.936   5.141
 7265W        W72250   4.747  33.160   1.569
 7266W        W72251  17.835  10.549   5.362
 7267W        W72252   7.138  15.721   1.207
 7268W        W72253  33.891  24.035   3.768
 7269W        W72254  24.458  23.338   0.678
 7270W        W72255  20.254  24.484  10.655
 7271W        W72256  20.156  36.011   1.128
 7272W        W72257  39.647  31.357   0.853
 7273W        W72258  24.951  36.820   3.656
 7274W        W72259  42.505  34.561   2.328
 7275W        W72260  34.404  20.490   2.216
 7276W        W72261   8.126  11.295  13.539
 7277W        W72262  16.817  19.020  13.968
 7278W        W72263  39.833  32.871   2.818
 7279W        W72264  18.219   4.928   4.047
 7280W        W72265  35.164  28.150  14.825
 7281W        W72266  23.870  43.466   0.483
 7282W        W72267   7.265  15.835   1.693
 7283W        W72268   5.814  24.012  10.974
 7284W        W72269  32.116   9.098   1.305
 7285W        W72270  11.392  15.334   1.808
 7286W        W72271  33.492   9.082  12.265
 7287W        W72272  41.556  33.057  10.687
 7288W        W72273   9.590  12.628   1.807
 7289W        W72274  23.312  44.299   1.440
 7290W        W72275   1.897  34.117  12.073
 7291W        W72276  25.770  41.691   1.357
 7292W        W72277  35.111  17.253  10.791
 7293W        W72278  33.435  22.910  12.273
 7294W        W72279  38.542   5.523  14.784
 7295W        W72280  38.615  35.932  10.338
 7296W        W72281   7.778  31.141   2.828
 7297W        W72282   1.332  28.571   1.152
 7298W        W72283  44.020  18.529  10.983
 7299W        W72284  17.854   5.078   3.711
 7300W        W72285  41.311  12.114   1.426
 7301W        W72286  30.385  44.960  13.828
 7302W        W72287  22.359  34.846   0.021
 7303W        W72288  29.847   5.287   2.499
 7304W        W72289  39.029  25.834  12.945
 7305W        W72290  44.915  44.515   0.321
 7306W        W72291  22.925   2.537   2.646
 7307W        W72292  23.472   4.720   3.201
 7308W        W72293  30.917  30.986  10.637
 7309W        W72294   9.786  22.034  11.709
 7310W        W72295   0.529  28.576   2.941
 7311W        W72296  15.407  36.589  12.041
 7312W        W72297  22.971  43.337  11.555
 7313W        W72298   9.678  39.140   0.787
 7314W        W72299   2.640  33.540   4.059
 7315W        W72300  11.675  42.799   3.133
 7316W        W72301  23.892  44.823   0.772
 7317W        W72302  15.577  11.630   1.730
 7318W        W72303  11.668   4.608  14.440
 7319W        W72304  36.859  22.570  13.024
 7320W        W72305  17.091  21.296  12.482
 7321W        W72306   2.962  21.468  13.409
 7322W        W72307  11.713  20.826   2.245
 7323W        W72308   9.013  29.684   5.066
 7324W        W72309  10.880  23.510  11.249
 7325W        W72310  14.488  16.152   0.278
 7326W        W72311  13.221  44.503  11.523
 7327W        W72312  11.673  34.095  13.018
 7328W        W72313  30.748  26.282  11.574
 7329W        W72314  25.123  22.915  13.126
 7330W        W72315  41.278  18.633  12.519
 7331W        W72316  15.944  18.677  10.663
 7332W        W72317  21.129  33.506   4.434
 7333W        W72318  10.117  37.388  11.614
 7334W        W72319  23.935  43.669  11.214
 7335W        W72320  41.094   9.876  13.405
 7336W        W72321  30.591  41.130   4.382
 7337W        W72322  15.560  23.982   2.672
 7338W        W72323   8.618  11.314   3.881
 7339W        W72324  10.691  35.910  14.945
 7340W        W72325  11.808  11.764   4.306
 7341W        W72326  10.676  31.092  14.848
 7342W        W72327  13.649  24.658   2.247
 7343W        W72328  41.186  24.070   3.864
 7344W        W72329  23.113  22.560   3.784
 7345W        W72330  23.696  24.555  14.543
 7346W        W72331   8.855   9.737  12.045
 7347W        W72332   4.350  14.374   0.448
 7348W        W72333  38.844  23.285  11.603
 7349W        W72334   5.745  32.826   3.311
 7350W        W72335  31.741  18.691   0.533
 7351W        W72336  22.820  13.259  11.550
 7352W        W72337   3.955  32.107  14.378
 7353W        W72338   7.284   4.337  14.047
 7354W        W72339   1.458  36.589   1.847
 7355W        W72340  18.023  28.477  14.979
 7356W        W72341  12.375  19.769  10.411
 7357W        W72342  22.634   4.139   2.904
 7358W        W72343  31.847  15.851   4.605
 7359W        W72344   3.724  34.071  14.950
 7360W        W72345  22.604  31.091  10.670
 7361W        W72346   1.043  43.453   3.174
 7362W        W72347  31.368  20.699   1.306
 7363W        W72348  39.741  39.026  11.176
 7364W        W72349  35.972  33.166  12.559
 7365W        W72350  25.686  14.175  12.328
 7366W        W72351   2.253   1.657  12.816
 7367W        W72352   0.443  19.270  11.716
 7368W        W72353  23.295  13.738   2.905
 7369W        W72354  11.404   8.875   1.436
 7370W        W72355  37.768  11.760   0.311
 7371W        W72356  36.805  40.403  12.508
 7372W        W72357  28.982  28.722   2.781
 7373W        W72358   2.029  36.953  13.843
 7374W        W72359  26.602  15.688   0.529
 7375W        W72360  27.872  22.262   1.009
 7376W        W72361  19.843  39.415   0.423
 7377W        W72362  14.182   8.211  11.055
 7378W        W72363  18.379   5.450   4.039
 7379W        W72364  41.311   5.704  13.105
 7380W        W72365  28.222  12.349   3.759
 7381W        W72366  22.010  34.122   2.709
 7382W        W72367   5.023  13.900  14.822
 7383W        W72368   6.567  15.581   2.876
 7384W        W72369  17.683  39.402   2.205
 7385W        W72370  25.572  24.780  11.137
 7386W        W72371  22.006  13.210  11.608
 7387W        W72372   4.001   1.969  14.074
 7388W        W72373   9.086  21.701  14.602
 7389W        W72374  10.632  12.203   0.937
 7390W        W72375  30.805  28.673  13.523
 7391W        W72376  35.834   9.314  11.482
 7392W        W72377  38.750   9.275   2.925
 7393W        W72378  37.516  34.325  10.954
 7394W        W72379  14.058  41.910   2.200
 7395W        W72380   8.990  25.686  11.986
 7396W        W72381  34.953  29.231  13.035
 7397W        W72382  32.827  10.297   1.590
 7398W        W72383  28.576   5.416  13.846
 7399W        W72384  19.069  34.576   0.444
 7400W        W72385  31.510  10.619  11.308
 7401W        W72386   0.684  29.886   1.472
 7402W        W72387  25.478  16.810   2.671
 7403W        W72388  14.283   0.346   4.478
 7404W        W72389  13.429  32.943   2.209
 7405W        W72390  11.834  15.605  14.924
 7406W        W72391  25.253   6.407   1.352
 7407W        W72392   2.594  28.601  14.815
 7408W        W72393   0.308  16.075   9.822
 7409W        W72394   6.506  14.339   3.197
 7410W        W72395   0.995  41.304  10.559
 7411W        W72396  14.153  43.651  12.333
 7412W        W72397   4.468   4.898   1.924
 7413W        W72398  17.892   3.188  11.231
 7414W        W72399   8.263  24.087  10.643
 7415W        W72400  36.387  35.884  12.909
 7416W        W72401  20.316  19.485  14.286
 7417W        W72402   0.037  26.178  10.026
 7418W        W72403   0.686   2.221   2.364
 7419W        W72404  44.062  16.161   4.985
 7420W        W72405  15.568   1.673  12.037
 7421W        W72406   8.288  31.480  11.612
 7422W        W72407  32.720   0.838  12.626
 7423W        W72408  24.834  22.256  11.691
 7424W        W72409  36.104  35.715   2.723
 7425W        W72410  44.721   2.098  12.879
 7426W        W72411  31.577  16.228   3.862
 7427W        W72412  39.495  10.346  12.960
 7428W        W72413  28.537  19.309  13.495
 7429W        W72414   7.746  30.208   1.072
 7430W        W72415  29.603  16.132   1.400
 7431W        W72416  44.768  14.346  13.458
 7432W        W72417  17.834  19.665   1.043
 7433W        W72418   1.233  35.985   2.636
 7434W        W72419  40.889  11.639   0.845
 7435W        W72420   4.071  11.708   1.111
 7436W        W72421  40.986  44.818   4.076
 7437W        W72422  29.656  42.341  11.154
 7438W        W72423  27.537  32.583   1.224
 7439W        W72424   7.347  30.543   2.610
 7440W        W72425  40.330  40.264   0.943
 7441W        W72426  40.484  42.449   4.248
 7442W        W72427  43.283  33.339   1.734
 7443W        W72428  29.576  25.347  12.057
 7444W        W72429  13.559  44.712   3.301
 7445W        W72430  16.647   0.228  10.807
 7446W        W72431  40.212  10.225   2.305
 7447W        W72432  26.659  27.848  13.882
 7448W        W72433  13.265   7.901  10.520
 7449W        W72434  15.361  12.791  13.365
 7450W        W72435  10.658  44.521  13.600
 7451W        W72436  34.053  15.072   0.384
 7452W        W72437   1.570  39.749   2.774
 7453W        W72438  23.705  29.307  14.535
 7454W        W72439  31.416  38.441  12.605
 7455W        W72440  43.414  10.525  11.634
 7456W        W72441  25.484  35.464  13.058
 7457W        W72442  17.520  31.636  11.714
 7458W        W72443  23.701  28.719   4.451
 7459W        W72444  27.420  40.996   4.087
 7460W        W72445  20.921  18.196   1.752
 7461W        W72446  19.572  43.276  11.480
 7462W        W72447  16.135   9.056   1.867
 7463W        W72448  34.360  18.626  11.478
 7464W        W72449  17.634  21.216  11.503
 7465W        W72450  27.233   5.796  14.905
 7466W        W72451  29.157  27.889  10.263
 7467W        W72452   1.182  37.432  14.792
 7468W        W72453  29.056  39.972   2.752
 7469W        W72454  26.033  41.463  12.791
 7470W        W72455  13.697  42.662   2.829
 7471W        W72456  14.135  18.702  14.544
 7472W        W72457  15.198  22.431  10.781
 7473W        W72458  29.928  19.042   3.133
 7474W        W72459  40.328  22.726  12.544
 7475W        W72460  38.980  34.740   4.056
 7476W        W72461  37.809   7.713   2.222
 7477W        W72462   8.446  34.660  10.477
 7478W        W72463  30.110  18.730  13.591
 7479W        W72464  27.972  32.856   3.338
 7480W        W72465  17.421   7.121   1.931
 7481W        W72466  23.227   5.826   1.731
 7482W        W72467  34.178  34.897   2.619
 7483W        W72468  44.322  14.944  11.189
 7484W        W72469  39.761  38.111  11.398
 7485W        W72470  34.405  22.859  10.750
 7486W        W72471  20.212  15.077   3.612
 7487W        W72472  30.571  27.246   1.833
 7488W        W72473  18.265  23.003   0.926
 7489W        W72474  35.965  18.379  10.919
 7490W        W72475  44.539  11.673  10.767
 7491W        W72476  26.897   7.023  14.319
 7492W        W72477  22.902   3.505  13.819
 7493W        W72478  35.878  25.152  13.997
 7494W        W72479  10.379  34.000   1.463
 7495W        W72480  42.489  24.844   0.002
 7496W        W72481  40.564  33.081   0.821
 7497W        W72482  36.485  36.919   0.167
 7498W        W72483  26.879  13.686  13.976
 7499W        W72484  24.996  33.831   2.790
 7500W        W72485  36.474  17.098   1.697
 7501W        W72486   5.373   1.701  11.133
 7502W        W72487  14.633  31.529  13.192
 7503W        W72488  39.296  11.066   3.655
 7504W        W72489  35.345  28.692   0.902
 7505W        W72490  39.248   5.697   4.172
 7506W        W72491   6.899   0.541  11.363
 7507W        W72492  17.742  18.670  10.203
 7508W        W72493   2.967  26.049  13.352
 7509W        W72494   9.668  32.130  11.478
 7510W        W72495   1.267  10.770   3.112
 7511W        W72496  28.479  28.030  13.259
 7512W        W72497   1.053   8.803   3.488
 7513W        W72498  20.102  39.704  11.016
 7514W        W72499   6.232   7.365  11.457
 7515W        W72500  23.944  34.633  12.580
 7516W        W72501   3.920  18.057  10.269
 7517W        W72502   7.124  16.696   1.145
 7518W        W72503  33.166  35.982   3.671
 7519W        W72504   6.261  42.080  12.392
 7520W        W72505   6.675  35.766   2.902
 7521W        W72506  20.759  28.498  11.224
 7522W        W72507   5.320  28.095   3.178
 7523W        W72508  29.579  21.132  12.140
 7524W        W72509  29.126  30.021   3.217
 7525W        W72510  24.453  21.153  11.086
 7526W        W72511  26.008  18.509   4.220
 7527W        W72512  33.353   4.836  13.966
 7528W        W72513  44.821   5.121  10.648
 7529W        W72514  32.047  31.380  10.690
 7530W        W72515  38.751  43.939  13.024
 7531W        W72516  14.842  11.177   1.368
 7532W        W72517   1.028  32.994   3.760
 7533W        W72518   6.228  15.892  12.368
 7534W        W72519  25.170  14.653   1.252
 7535W        W72520  25.023  20.390  11.103
 7536W        W72521   6.133  16.882  14.845
 7537W        W72522  37.308  10.103  12.288
 7538W        W72523  15.655  41.780   3.249
 7539W        W72524  15.922  30.503   4.308
 7540W        W72525  26.219  41.509   2.771
 7541W        W72526  13.255  33.062   3.717
 7542W        W72527  39.131  32.613   1.963
 7543W        W72528  10.599  19.192   3.242
 7544W        W72529  16.816   7.433  12.446
 7545W        W72530  36.419  38.017   4.710
 7546W        W72531   3.395  32.679   3.776
 7547W        W72532  14.222   2.316   5.328
 7548W        W72533  37.294  27.003   4.272
 7549W        W72534  31.983  37.792   0.423
 7550W        W72535   6.344  35.081  11.954
 7551W        W72536   5.866  32.394   2.633
 7552W        W72537  44.784  26.075  11.552
 7553W        W72538  29.180  20.728  13.904
 7554W        W72539  37.961  20.007  14.399
 7555W        W72540  16.365  19.986  13.990
 7556W        W72541  27.661  18.487  12.898
 7557W        W72542  42.896  39.361   2.238
 7558W        W72543   3.942  41.080   2.419
 7559W        W72544  11.970  31.005   0.466
 7560W        W72545  21.322  38.379  11.563
 7561W        W72546  30.194  32.489  14.988
 7562W        W72547  17.136  11.274  11.638
 7563W        W72548  21.633   7.855   0.852
 7564W        W72549  26.034  15.529   4.362
 7565W        W72550   3.122  21.616   3.224
 7566W        W72551  13.029   0.037   1.984
 7567W        W72552  33.320  28.415  12.161
 7568W        W72553  30.788  24.213  13.874
 7569W        W72554   7.942   9.808   1.817
 7570W        W72555  13.820  23.420  12.534
 7571W        W72556  14.387  43.910   3.225
 7572W        W72557   4.862  44.437  14.997
 7573W        W72558  21.290  15.301   3.643
 7574W        W72559  22.877  18.100  12.820
 7575W        W72560  32.069  39.537  12.998
 7576W        W72561  16.140   7.090   4.946
 7577W        W72562   0.944   9.895  11.139
 7578W        W72563  43.728  11.114  11.174
 7579W        W72564  34.042   4.718   4.712
 7580W        W72565   5.838  25.999  11.467
 7581W        W72566  32.396  14.102   4.670
 7582W        W72567   2.738  14.923   3.743
 7583W        W72568  29.953  37.640  13.289
 7584W        W72569  26.167  32.878  11.844
 7585W        W72570  43.335  30.068   2.390
 7586W        W72571  32.952  24.854   3.874
 7587W        W72572  27.252  13.970  14.588
 7588W        W72573  40.885  33.269   4.170
 7589W        W72574   4.662  39.642  11.673
 7590W        W72575  12.946  36.357  14.905
 7591W        W72576  19.980   9.022   1.257
 7592W        W72577  22.587  37.456   0.802
 7593W        W72578   4.189  12.225   0.887
 7594W        W72579  27.590  11.860  13.051
 7595W        W72580   4.892   6.212  13.162
 7596W        W72581  10.854  24.614  13.955
 7597W        W72582  34.795  44.327  11.488
 7598W        W72583   0.523  24.799   2.199
 7599W        W72584   8.710  12.384  14.780
 7600W        W72585   9.237  15.742   4.630
 7601W        W72586  14.690   5.225  10.520
 7602W        W72587  20.944   5.308  14.413
 7603W        W72588   5.779  35.369   3.284
 7604W        W72589  43.182  37.461   3.309
 7605W        W72590  27.949   7.404   3.717
 7606W        W72591  27.679  12.658  12.407
 7607W        W72592  11.242   3.220  11.617
 7608W        W72593  11.054  39.878   2.228
 7609W        W72594  30.023  24.833   3.636
 7610W        W72595   7.440   0.275  12.884
 7611W        W72596   2.872  38.346  10.653
 7612W        W72597   3.546  22.260  10.320
 7613W        W72598  19.095  28.944   1.376
 7614W        W72599  12.644  37.432   2.670
 7615W        W72600  30.953  10.948   4.796
 7616W        W72601  35.478   7.172  12.112
 7617W        W72602   5.476  42.599   3.453
 7618W        W72603  38.432  21.501   2.596
 7619W        W72604   1.972   2.287  13.366
 7620W        W72605   5.654   1.428   2.633
 7621W        W72606   4.788  40.413  14.488
 7622W        W72607  25.968   4.508  13.252
 7623W        W72608  34.236  39.338   1.923
 7624W        W72609  25.179  42.070   0.333
 7625W        W72610  21.564  41.228  11.191
 7626W        W72611   6.763  28.440   0.349
 7627W        W72612  40.335  44.562  11.464
 7628W        W72613  10.418  29.704   1.253
 7629W        W72614  16.565  26.130  12.025
 7630W        W72615  30.172  42.275  11.233
 7631W        W72616  11.149   4.472   2.705
 7632W        W72617  23.523  20.187  14.461
 7633W        W72618  31.189  18.373  13.826
 7634W        W72619   7.427  43.830  11.600
 7635W        W72620  38.094  30.216  11.473
 7636W        W72621   2.228  34.248   1.368
 7637W        W72622   6.890  28.098   2.374
 7638W        W72623  16.126  34.081   0.370
 7639W        W72624  43.883  15.213   0.787
 7640W        W72625  12.206  41.843  14.879
 7641W        W72626  25.828   3.482  14.226
 7642W        W72627  13.090  23.076   0.833
 7643W        W72628  35.067  19.239   2.824
 7644W        W72629   9.874  27.949   3.444
 7645W        W72630  13.719   4.273   3.484
 7646W        W72631   8.868   2.489  11.662
 7647W        W72632  32.007  42.784  12.932
 7648W        W72633  25.806  33.847  14.314
 7649W        W72634  43.829   4.834  14.758
 7650W        W72635  26.137   7.680   2.775
 7651W        W72636   7.822  27.224  12.084
 7652W        W72637  43.855  38.322   1.850
 7653W        W72638  42.118  39.616   1.734
 7654W        W72639  32.010  42.274   4.867
 7655W        W72640  22.784  28.553  11.106
 7656W        W72641  22.973  35.204  13.624
 7657W        W72642  20.710  11.168   3.416
 7658W        W72643   6.643  43.498  14.889
 7659W        W72644  26.738   7.281   3.350
 7660W        W72645   6.207   6.823  12.704
 7661W        W72646   3.952   4.650  10.243
 7662W        W72647  42.673  24.247  12.557
 7663W        W72648  37.054  32.031   0.504
 7664W        W72649   6.320  19.961   3.184
 7665W        W72650  19.959  40.510  13.816
 7666W        W72651  29.468   9.282  14.219
 7667W        W72652  20.538  23.781   9.827
 7668W        W72653  34.418  32.642  13.333
 7669W        W72654  23.957  16.319   1.886
 7670W        W72655  22.317  35.620   0.422
 7671W        W72656   6.669   8.331  14.525
 7672W        W72657   0.860  35.732   1.686
 7673W        W72658   2.775  29.374   4.591
 7674W        W72659   1.915   5.161  10.694
 7675W        W72660  42.924  39.169  14.439
 7676W        W72661  24.455  43.436  10.717
 7677W        W72662   0.455   6.152  13.445
 7678W        W72663  43.992  37.279  13.849
 7679W        W72664  10.670   2.486   0.834
 7680W        W72665  36.021   4.854   4.331
 7681W        W72666  12.363  33.031   3.188
 7682W        W72667   6.329  26.567   5.149
 7683W        W72668  14.276   6.917  11.567
 7684W        W72669   3.845  44.876  14.390
 7685W        W72670   3.769  19.533   0.543
 7686W        W72671  19.775   6.463   3.745
 7687W        W72672  12.622   7.305   5.308
 7688W        W72673  17.696  38.081   0.963
 7689W        W72674  16.400  16.571   1.530
 7690W        W72675  19.853  15.445  11.998
 7691W        W72676  10.574  30.748   2.757
 7692W        W72677  35.042  36.547   0.742
 7693W        W72678  41.790  19.964   1.822
 7694W        W72679  38.371   9.431   1.265
 7695W        W72680  17.320  37.896   2.256
 7696W        W72681  18.825  29.548   0.741
 7697W        W72682  36.860  42.832   3.362
 7698W        W72683   0.284  41.848   0.296
 7699W        W72684  39.155   5.972  14.386
 7700W        W72685  34.167  13.817  13.317
 7701W        W72686  25.963  16.153   1.163
 7702W        W72687  18.247  27.552   1.047
 7703W        W72688  23.697  25.431  13.785
 7704W        W72689  17.334  10.369  14.791
 7705W        W72690  17.771  38.415  14.192
 7706W        W72691  12.155  27.377  11.461
 7707W        W72692   9.255  21.125  14.894
 7708W        W72693  15.210  40.355  13.549
 7709W        W72694  25.496  14.087   2.394
 7710W        W72695  29.361  19.359   4.338
 7711W        W72696   8.794  25.737   2.770
 7712W        W72697  42.467  39.304  11.014
 7713W        W72698  31.796   0.272  10.904
 7714W        W72699  37.939  12.896   1.888
 7715W        W72700  29.000   4.209  13.885
 7716W        W72701  25.366  38.487  11.576
 7717W        W72702   9.666   5.804   1.230
 7718W        W72703  24.983  16.225  14.297
 7719W        W72704  10.703   2.385   2.332
 7720W        W72705  24.233  23.124   3.050
 7721W        W72706  44.390  27.238   0.734
 7722W        W72707  34.022  29.450  12.119
 7723W        W72708   7.629  21.707   4.987
 7724W        W72709  16.187  28.089  10.315
 7725W        W72710  43.709  28.954   0.439
 7726W        W72711  38.317  19.166   4.650
 7727W        W72712  30.395   1.736  13.908
 7728W        W72713  27.920   6.744   4.650
 7729W        W72714   4.502   2.980   2.406
 7730W        W72715  44.795  38.467   2.004
 7731W        W72716  30.969  31.892   1.378
 7732W        W72717  39.474  30.465   4.525
 7733W        W72718  31.870  35.571   1.843
 7734W        W72719  26.710   2.996  11.181
 7735W        W72720  44.039   1.858  11.273
 7736W        W72721   2.500  28.877  12.037
 7737W        W72722  38.909  12.106  13.483
 7738W        W72723  12.969   3.024   4.162
 7739W        W72724  15.896  34.364  12.553
 7740W        W72725   5.920   5.653  13.800
 7741W        W72726  11.678  11.198   1.279
 7742W        W72727   6.713  16.796  10.504
 7743W        W72728   4.279   4.967   9.974
 7744W        W72729   0.145  28.163   3.655
 7745W        W72730  34.434  13.108  14.398
 7746W        W72731  37.357  40.853   0.793
 7747W        W72732  21.181   2.605   4.061
 7748W        W72733   6.641  10.836   3.169
 7749W        W72734   6.347  14.078  13.881
 7750W        W72735  30.472  20.546  13.415
 7751W        W72736  25.060  44.555   1.709
 7752W        W72737  34.933  43.573   0.916
 7753W        W72738  13.834  16.288  10.726
 7754W        W72739  37.988  17.637  11.502
 7755W        W72740   7.507  41.299  11.195
 7756W        W72741   6.866   4.862  14.919
 7757W        W72742  35.628  34.893   0.477
 7758W        W72743   9.916  15.755  11.037
 7759W        W72744  21.847   5.173   1.681
 7760W        W72745  12.070  41.538  11.986
 7761W        W72746  25.963  35.413   0.904
 7762W        W72747   3.473  11.465  13.509
 7763W        W72748  32.223  15.843  14.444
 7764W        W72749  40.904  44.078   2.818
 7765W        W72750  40.832  33.461  13.917
 7766W        W72751  41.739  44.792   2.848
 7767W        W72752  34.620  36.509   2.848
 7768W        W72753  11.331  14.311   2.862
 7769W        W72754  40.928  25.742  13.018
 7770W        W72755  29.922  33.258   1.138
 7771W        W72756   2.471   9.150   4.136
 7772W        W72757  41.275  18.151  14.837
 7773W        W72758   9.975  36.864   1.219
 7774W        W72759  33.754  16.491   3.600
 7775W        W72760  14.165  15.536  14.729
 7776W        W72761  19.343  30.338  11.813
 7777W        W72762  13.835  25.594   1.742
 7778W        W72763  41.972  34.114   2.759
 7779W        W72764  36.096  39.044   1.875
 7780W        W72765  40.107  27.520   2.942
 7781W        W72766  15.580  24.137  13.083
 7782W        W72767  44.891  35.892   0.241
 7783W        W72768  41.301   8.277  11.052
 7784W        W72769  24.999  23.646   2.824
 7785W        W72770  30.348  14.734  12.455
 7786W        W72771   2.693  13.400   3.648
 7787W        W72772  29.074  26.075  13.605
 7788W        W72773  20.802  18.776   1.248
 7789W        W72774  31.169  26.739  13.042
 7790W        W72775  10.207   4.213   1.753
 7791W        W72776   1.650  31.703   0.350
 7792W        W72777  27.870  21.081   1.501
 7793W        W72778  20.700  13.593  13.465
 7794W        W72779  38.575  30.095  11.294
 7795W        W72780  23.407  31.127   4.206
 7796W        W72781  12.007  12.268  13.878
 7797W        W72782  29.122  40.071   3.585
 7798W        W72783  20.225   6.733   5.496
 7799W        W72784  34.906  11.405   3.969
 7800W        W72785  12.956   4.778  13.813
 7801W        W72786  35.835  25.220   4.264
 7802W        W72787  27.832  23.075  11.156
 7803W        W72788  31.485   9.141   0.755
 7804W        W72789  42.474  12.156   3.967
 7805W        W72790   4.720  24.534  14.015
 7806W        W72791  29.822   5.441  13.431
 7807W        W72792  44.822  24.225   2.896
 7808W        W72793   4.295  37.366   3.318
 7809W        W72794  43.624   7.091  14.133
 7810W        W72795  24.103  33.482   1.322
 7811W        W72796  30.943  16.891  12.564
 7812W        W72797   4.881  13.189   1.648
 7813W        W72798   3.665   2.798   4.811
 7814W        W72799   3.813   1.605  11.640
 7815W        W72800  41.062  23.190  12.780
 7816W        W72801  21.225  20.053  10.463
 7817W        W72802  42.572  19.487   3.657
 7818W        W72803   8.678  35.417  14.319
 7819W        W72804  44.004  28.460   0.303
 7820W        W72805  21.814  42.223  13.602
 7821W        W72806  18.495  22.024  14.990
 7822W        W72807  21.182   3.397  14.620
 7823W        W72808  15.482  13.375   2.288
 7824W        W72809  23.444  27.613  13.441
 7825W        W72810  18.325  31.465   0.213
 7826W        W72811   3.724  34.587   3.834
 7827W        W72812  44.924  31.609   2.870
 7828W        W72813  19.596  40.564  12.378
 7829W        W72814  41.481   3.333  12.974
 7830W        W72815  26.178  22.922  14.641
 7831W        W72816   8.353   9.007  12.064
 7832W        W72817  21.542  19.382   2.369
 7833W        W72818  27.704   6.265   4.579
 7834W        W72819   4.419  35.103   3.534
 7835W        W72820  35.616   3.310  12.913
 7836W        W72821  41.736  39.116  13.355
 7837W        W72822  44.404  42.338   0.302
 7838W        W72823   5.178   3.968   4.047
 7839W        W72824  12.750  16.843  12.990
 7840W        W72825  27.398  39.990  14.609
 7841W        W72826  27.160  26.733  10.763
 7842W        W72827  40.131   6.084  11.593
 7843W        W72828  38.785  24.496  10.494
 7844W        W72829  15.635  19.483   2.225
 7845W        W72830   2.733  39.186  11.106
 7846W        W72831  21.217  41.830  11.271
 7847W        W72832  13.140   3.298   0.317
 7848W        W72833  32.615   6.204   3.917
 7849W        W72834  39.353   6.980  12.843
 7850W        W72835  15.350   2.941   1.787
 7851W        W72836  25.101   5.150   1.841
 7852W        W72837  13.538  33.091  14.983
 7853W        W72838   4.858  18.012  14.012
 7854W        W72839   8.908  30.902  12.425
 7855W        W72840  18.674   3.855  12.945
 7856W        W72841  33.037  37.723  13.914
 7857W        W72842  28.491  13.400   2.791
 7858W        W72843  15.006  20.707   2.127
 7859W        W72844  20.105  13.778  14.538
 7860W        W72845  16.584  28.193  14.376
 7861W        W72846  24.469  30.561   1.010
 7862W        W72847  13.304  35.992  11.457
 7863W        W72848  36.806   9.621   0.361
 7864W        W72849  36.489  24.947  11.115
 7865W        W72850  21.667  34.990  14.438
 7866W        W72851  19.790  37.081  14.009
 7867W        W72852   3.764  41.968   2.355
 7868W        W72853  39.836  29.012  12.912
 7869W        W72854  34.424  24.600  12.863
 7870W        W72855  39.986  37.558   1.150
 7871W        W72856   2.165  43.795   3.254
 7872W        W72857  29.568  38.846  10.402
 7873W        W72858  16.716  40.894   0.262
 7874W        W72859  17.383  42.870  14.404
 7875W        W72860  25.714  34.596   4.146
 7876W        W72861  31.495   9.475   4.521
 7877W        W72862  35.430  10.186  12.458
 7878W        W72863   9.691   4.580   4.420
 7879W        W72864  44.044  32.174  12.351
 7880W        W72865  15.693   2.486  11.525
 7881W        W72866  41.080   1.789   0.363
 7882W        W72867  12.531  42.334  10.756
 7883W        W72868  27.648  24.940   0.654
 7884W        W72869  11.204   2.897  13.389
 7885W        W72870  27.921  37.143   1.283
 7886W        W72871  24.539  34.086  12.645
 7887W        W72872  34.350  23.372  10.745
 7888W        W72873  29.213  35.922  14.065
 7889W        W72874  20.134  35.557  11.213
 7890W        W72875  37.863  37.842  13.298
 7891W        W72876  20.083  23.612  11.593
 7892W        W72877  14.254  30.141  12.966
 7893W        W72878  39.896   4.485   1.693
 7894W        W72879  38.169  16.143   4.579
 7895W        W72880  16.750  21.619   1.474
 7896W        W72881  33.375  26.103  11.738
 7897W        W72882  27.303  39.485   2.384
 7898W        W72883  25.247  43.042  13.328
 7899W        W72884   8.311  43.007  11.502
 7900W        W72885  40.721   8.286   0.901
 7901W        W72886   9.114  26.689  11.571
 7902W        W72887  33.147  30.073  11.016
 7903W        W72888   7.338   0.876   4.219
 7904W        W72889  26.722  26.630   4.949
 7905W        W72890  39.089   8.463  11.520
 7906W        W72891   6.828  19.285  11.085
 7907W        W72892  30.432  12.460   1.838
 7908W        W72893  18.530  23.056  10.996
 7909W        W72894  37.881  27.599  14.628
 7910W        W72895  38.894  20.349  12.177
 7911W        W72896  25.164   7.751  12.220
 7912W        W72897   2.365  15.314  13.086
 7913W        W72898   5.866   2.292   3.588
 7914W        W72899  11.840  19.644  11.136
 7915W        W72900   8.253  35.877   3.723
 7916W        W72901   4.424  25.925  13.474
 7917W        W72902  34.611  19.148   1.850
 7918W        W72903  43.969  24.076   2.845
 7919W        W72904  20.451  41.010   0.313
 7920W        W72905   0.564  15.906   2.976
 7921W        W72906  23.597  28.716  11.924
 7922W        W72907  39.398  44.102  11.968
 7923W        W72908   8.220  17.509   1.478
 7924W        W72909  21.282   7.024  10.369
 7925W        W72910  27.047  43.050   1.555
 7926W        W72911  44.921   1.531   3.519
 7927W        W72912  40.315  20.567  12.118
 7928W        W72913  37.612  22.702  14.093
 7929W        W72914  38.209  11.793   3.553
 7930W        W72915  37.521  44.957   2.194
 7931W        W72916  39.195  10.300   5.127
 7932W        W72917   9.145  35.935   3.749
 7933W        W72918  32.468  28.163  13.605
 7934W        W72919  37.599   1.688  14.941
 7935W        W72920   6.846  32.883   0.348
 7936W        W72921  37.332  15.257  13.531
 7937W        W72922  18.192  36.092   0.277
 7938W        W72923  17.738  44.157  14.548
 7939W        W72924  43.111  33.594  13.359
 7940W        W72925  42.271  13.414   0.213
 7941W        W72926  33.400  29.598  13.760
 7942W        W72927  19.375  20.986   4.147
 7943W        W72928  18.584  15.230   2.379
 7944W        W72929  30.541  41.257  14.031
 7945W        W72930  44.440   0.546  12.061
 7946W        W72931   0.768   2.641   1.695
 7947W        W72932  42.443  20.992   1.388
 7948W        W72933   9.101  39.104  10.986
 7949W        W72934  32.429  14.645  13.626
 7950W        W72935   2.738  14.427   1.615
 7951W        W72936  28.972   9.265   1.241
 7952W        W72937   8.848  29.446   4.591
 7953W        W72938  17.170   8.904   2.800
 7954W        W72939  39.497  44.596  11.949
 7955W        W72940  15.732  34.109   1.337
 7956W        W72941  35.395  24.303  11.783
 7957W        W72942  22.473   9.805   4.168
 7958W        W72943  28.111  18.774   4.649
 7959W        W72944  37.566   3.651   2.794
 7960W        W72945   2.210  16.804  14.903
 7961W        W72946   2.660  14.465   3.553
 7962W        W72947  14.922  41.340  14.967
 7963W        W72948  21.261  40.296   5.092
 7964W        W72949   3.389  42.285  14.966
 7965W        W72950  28.593  44.278  14.714
 7966W        W72951  31.076  31.055   3.279
 7967W        W72952  32.065  37.041   2.291
 7968W        W72953   4.414  23.510   2.362
 7969W        W72954   5.483  43.418   1.375
 7970W        W72955  20.582   1.704  11.156
 7971W        W72956  14.063  44.094  11.123
 7972W        W72957   6.649  18.759   0.002
 7973W        W72958  41.108  30.591  13.040
 7974W        W72959  36.837  39.422   1.166
 7975W        W72960  38.971  31.647   5.123
 7976W        W72961   5.146   7.329   0.827
 7977W        W72962  24.604   3.017  12.687
 7978W        W72963  41.765  31.626  13.973
 7979W        W72964  31.565  29.307  14.936
 7980W        W72965   8.036  18.669  11.650
 7981W        W72966  23.312  22.092   3.581
 7982W        W72967  25.686  28.530   5.195
 7983W        W72968  24.704  21.380  11.488
 7984W        W72969   9.246  15.420   2.442
 7985W        W72970  27.703  19.692   2.278
 7986W        W72971  17.718  16.275  11.450
 7987W        W72972   4.741   8.756   2.942
 7988W        W72973   7.915   0.921  12.633
 7989W        W72974   8.895  43.859  11.517
 7990W        W72975  30.054  29.110   0.104
 7991W        W72976  23.065   8.326   1.209
 7992W        W72977   1.839   7.206   4.411
 7993W        W72978  34.102  16.694   2.820
 7994W        W72979  39.861  34.446   3.102
 7995W        W72980  27.983  28.153  14.403
 7996W        W72981  13.413  18.963   4.556
 7997W        W72982  36.534   1.648  10.158
 7998W        W72983  42.993  23.574  14.364
 7999W        W72984   9.869  17.542   0.237
 8000W        W72985  38.390  41.506   2.396
 8001W        W72986  33.379  15.013   0.740
 8002W        W72987   3.041  10.883   3.179
 8003W        W72988  14.091  23.706   4.549
 8004W        W72989  32.063  11.817  12.346
 8005W        W72990  38.483  33.911   2.619
 8006W        W72991  10.649  30.983   0.383
 8007W        W72992   0.996  13.765  11.110
 8008W        W72993  33.129  33.673   3.206
 8009W        W72994  36.078  32.679   1.851
 8010W        W72995  41.858  31.044  13.038
 8011W        W72996  43.911   8.447   3.773
 8012W        W72997  32.826  30.762  13.550
 8013W        W72998  14.341  21.464   2.130
 8014W        W72999  16.089  12.111   2.277
 8015W        W73000  22.550  44.305  12.843
 8016W        W73001  27.808  42.107   2.824
 8017W        W73002   4.669  21.683   2.606
 8018W        W73003   7.722  39.960   0.864
 8019W        W73004  39.611  28.939   5.196
 8020W        W73005   9.432   4.864  11.970
 8021W        W73006  37.608  13.255   2.114
 8022W        W73007  18.838  28.797  13.576
 8023W        W73008   8.727   7.889  12.350
 8024W        W73009  19.591  23.949   1.988
 8025W        W73010  11.344  35.135   4.731
 8026W        W73011  41.383   1.107  13.960
 8027W        W73012  28.433  30.134   3.552
 8028W        W73013   5.768  30.337   0.175
 8029W        W73014  14.122   2.378   0.759
 8030W        W73015   6.390  12.296   0.331
 8031W        W73016  43.790  29.469   4.648
 8032W        W73017  34.347   9.071   2.696
 8033W        W73018   3.167   2.062  11.690
 8034W        W73019  20.749  35.050   3.908
 8035W        W73020  17.950  24.426   4.190
 8036W        W73021  21.226  13.173  12.562
 8037W        W73022  17.734   2.405  13.924
 8038W        W73023  29.340  24.071  12.533
 8039W        W73024  41.808   2.712  11.024
 8040W        W73025   5.365  39.763  14.105
 8041W        W73026  12.651   7.914   0.626
 8042W        W73027  21.528  39.132   3.237
 8043W        W73028  16.398  24.373   2.673
 8044W        W73029  18.664  39.859   4.429
 8045W        W73030   1.175  11.322   0.776
 8046W        W73031  26.566  28.485  11.505
 8047W        W73032  34.395  22.958   3.397
 8048W        W73033  20.052  37.356  10.781
 8049W        W73034  20.388  17.552  13.399
 8050W        W73035  21.540  32.018   2.200
 8051W        W73036   5.824  30.645   2.628
 8052W        W73037   1.043  18.163  12.572
 8053W        W73038   2.668  17.015   3.347
 8054W        W73039   3.473  28.612  13.001
 8055W        W73040  20.513  42.408   0.255
 8056W        W73041   2.911  22.308   4.386
 8057W        W73042   5.867  32.433  13.537
 8058W        W73043  31.383   6.201   0.381
 8059W        W73044  28.643  28.955  12.426
 8060W        W73045   5.413  26.491  14.418
 8061W        W73046   3.428  43.561   0.231
 8062W        W73047  13.577  27.237   2.797
 8063W        W73048  25.980  26.473  14.748
 8064W        W73049  21.558  38.340  11.124
 8065W        W73050   5.458   3.879   2.270
 8066W        W73051  20.587  29.243   0.455
 8067W        W73052   8.042  43.318   2.734
 8068W        W73053  41.745  15.001   1.863
 8069W        W73054  12.025  32.394  14.462
 8070W        W73055   2.755   0.528   4.734
 8071W        W73056  43.777  12.263   1.560
 8072W        W73057  21.258  41.340   0.282
 8073W        W73058  42.384  13.841  14.370
 8074W        W73059   8.447  22.108  14.347
 8075W        W73060  21.289   9.653  14.702
 8076W        W73061  35.576  42.763  11.468
 8077W        W73062   1.276  13.159  13.366
 8078W        W73063  20.704  44.493   3.736
 8079W        W73064   2.810  27.374   3.661
 8080W        W73065  28.459  30.914  14.650
 8081W        W73066  14.262  33.655   5.027
 8082W        W73067  28.389  34.881   2.726
 8083W        W73068  32.390  35.225  12.501
 8084W        W73069  34.170  24.574   4.839
 8085W        W73070  16.819  15.608   0.403
 8086W        W73071   8.914  38.490   4.084
 8087W        W73072   8.264   5.904  11.581
 8088W        W73073  16.375  38.127   0.708
 8089W        W73074   9.295  42.017   4.643
 8090W        W73075  21.022  26.437  12.061
 8091W        W73076   1.502  17.004   0.377
 8092W        W73077  22.603   2.761   4.406
 8093W        W73078  34.805   8.471   0.141
 8094W        W73079  35.689   1.164   1.252
 8095W        W73080  22.515  20.730   1.758
 8096W        W73081  14.272  11.914   3.786
 8097W        W73082  23.762  20.365  14.020
 8098W        W73083  26.178  39.037  13.989
 8099W        W73084  38.072  13.805   0.987
 8100W        W73085  13.514   0.810  11.578
 8101W        W73086   0.504  11.358  13.933
 8102W        W73087  13.728  35.110  13.542
 8103W        W73088  34.663  40.941   5.001
 8104W        W73089  26.172  36.638  13.953
 8105W        W73090  30.196   9.348  12.151
 8106W        W73091  26.313  18.651  10.988
 8107W        W73092  19.656  16.155   2.305
 8108W        W73093  40.770  42.404  11.975
 8109W        W73094  37.598   2.523  13.027
 8110W        W73095  19.236  41.474   5.015
 8111W        W73096  40.009  25.471   3.298
 8112W        W73097  20.712  42.821  13.176
 8113W        W73098  26.634  15.282  12.464
 8114W        W73099  39.369  32.647  12.043
 8115W        W73100  13.947  39.838  13.028
 8116W        W73101  15.400   9.693  11.506
 8117W        W73102  27.188  10.138  11.511
 8118W        W73103  16.300  10.139  13.086
 8119W        W73104  38.582  14.259   2.714
 8120W        W73105  35.290  44.532   0.940
 8121W        W73106  10.541   1.431  11.561
 8122W        W73107  24.610   0.413   3.127
 8123W        W73108  36.524  43.739  11.440
 8124W        W73109  23.959  17.049   4.079
 8125W        W73110  37.359  11.289   2.716
 8126W        W73111  17.566  37.733   3.302
 8127W        W73112  15.538  21.895   3.854
 8128W        W73113  42.985  42.780   4.113
 8129W        W73114  44.187  36.940  10.371
 8130W        W73115  40.239  28.288   4.607
 8131W        W73116  39.499  23.021   4.562
 8132W        W73117  15.987  14.599   0.860
 8133W        W73118  22.071  32.734   3.302
 8134W        W73119  18.425  25.279   4.208
 8135W        W73120  10.514  37.641   2.632
 8136W        W73121  12.364  27.723  11.108
 8137W        W73122   8.340  30.142  10.672
 8138W        W73123  27.995   5.180  13.603
 8139W        W73124  19.003  41.529  14.025
 8140W        W73125   5.359   1.244   0.720
 8141W        W73126  26.339  12.386   2.328
 8142W        W73127  38.019  32.533  11.655
 8143W        W73128  24.164  23.997   2.753
 8144W        W73129  11.427  22.009  14.049
 8145W        W73130  18.422  15.663   3.749
 8146W        W73131  36.539  33.124   4.508
 8147W        W73132  41.509  30.212   4.764
 8148W        W73133  27.200  44.377   4.088
 8149W        W73134  37.779  13.263  14.814
 8150W        W73135  11.059   5.310   4.133
 8151W        W73136  33.668  19.761   0.904
 8152W        W73137  16.601   6.918   3.192
 8153W        W73138  41.417  20.013  13.566
 8154W        W73139   4.156  39.751  11.082
 8155W        W73140  13.748  28.865  11.240
 8156W        W73141  39.139  27.984  11.112
 8157W        W73142  16.084  28.644   0.452
 8158W        W73143   8.309  35.114   4.237
 8159W        W73144  35.841   5.300   4.138
 8160W        W73145  13.310  23.014   3.265
 8161W        W73146   7.883  29.408  10.656
 8162W        W73147  10.294  16.778  12.110
 8163W        W73148  11.246  34.433   0.855
 8164W        W73149  22.744  19.148  11.878
 8165W        W73150  43.885  42.481  13.604
 8166W        W73151  43.478  44.785   3.268
 8167W        W73152  39.943  37.954   3.458
 8168W        W73153  10.805  36.056   1.047
 8169W        W73154  11.685  18.164  13.157
 8170W        W73155  23.954  10.948  13.018
 8171W        W73156  12.636  16.609   1.924
 8172W        W73157  16.074  44.273  14.283
 8173W        W73158  17.071   0.928  14.697
 8174W        W73159  13.713  36.497   4.650
 8175W        W73160  37.345  21.543   3.373
 8176W        W73161   7.666   1.495  11.448
 8177W        W73162   5.387   2.955   2.476
 8178W        W73163  43.899   0.753   2.996
 8179W        W73164  34.149   9.915   3.634
 8180W        W73165  39.874   4.198   2.133
 8181W        W73166  37.352  19.672  12.111
 8182W        W73167  13.123  44.763  14.913
 8183W        W73168  30.098  38.024   2.149
 8184W        W73169  30.084  24.566  10.735
 8185W        W73170  42.928   7.838   0.662
 8186W        W73171   7.312  42.004  13.488
 8187W        W73172  35.645  21.273   1.305
 8188W        W73173  22.721   8.364  14.385
 8189W        W73174  43.666  15.753   2.417
 8190W        W73175   0.258  22.898  13.394
 8191W        W73176  29.663  33.864  13.349
 8192W        W73177   8.424  35.336   2.412
 8193W        W73178  19.813  25.125   4.099
 8194W        W73179  16.832  19.326   3.274
 8195W        W73180  12.800  42.982   0.460
 8196W        W73181   1.459   0.600   2.795
 8197W        W73182  31.803  42.125   0.361
 8198W        W73183   5.431  35.290   4.738
 8199W        W73184  15.707  19.250   4.653
 8200W        W73185   8.947  21.105   4.972
 8201W        W73186  31.821  18.430  12.916
 8202W        W73187  13.216   4.116  11.934
 8203W        W73188  35.153  29.488  12.622
 8204W        W73189   1.499  28.527  14.338
 8205W        W73190  28.663  23.227  14.409
 8206W        W73191  44.658   9.328   1.897
 8207W        W73192  26.900  37.998  14.294
 8208W        W73193  13.865  41.785  11.470
 8209W        W73194  15.595   4.686  12.008
 8210W        W73195  24.646  25.498   3.043
 8211W        W73196  16.580   3.452   1.718
 8212W        W73197  40.590  30.405  14.176
 8213W        W73198  30.971  12.874   4.966
 8214W        W73199  16.739   0.355  12.476
 8215W        W73200   8.404   2.369  14.301
 8216W        W73201   0.011  34.944   3.121
 8217W        W73202   2.352  15.309  12.561
 8218W        W73203  24.565  34.764   2.655
 8219W        W73204  15.695  33.924   4.855
 8220W        W73205   1.405   4.273   4.845
 8221W        W73206  15.722  33.709   3.189
 8222W        W73207  12.169  28.249   0.278
 8223W        W73208  30.991  44.362  14.974
 8224W        W73209   8.418  34.275  11.616
 8225W        W73210   1.444  12.676   0.526
 8226W        W73211  26.229   9.600   4.128
 8227W        W73212  31.895  40.409  13.760
 8228W        W73213  32.934   1.188   1.746
 8229W        W73214   6.438  11.596   0.982
 8230W        W73215  32.214  40.987  12.951
 8231W        W73216  44.906  20.010   3.231
 8232W        W73217  44.043   7.121  14.882
 8233W        W73218  42.560  38.058  13.412
 8234W        W73219  36.363  44.032  12.388
 8235W        W73220  28.672  44.843  12.034
 8236W        W73221  14.911   8.905  11.894
 8237W        W73222  21.141  19.996  13.962
 8238W        W73223  14.648  23.571   4.275
 8239W        W73224  33.399   0.433  11.495
 8240W        W73225  24.435  28.091   4.151
 8241W        W73226  10.603   2.329   0.260
 8242W        W73227  36.638   9.405   0.819
 8243W        W73228  44.980  14.073  13.081
 8244W        W73229  31.108  37.057   3.622
 8245W        W73230  33.596  18.914   3.804
 8246W        W73231  27.203  13.867  13.598
 8247W        W73232  17.544  12.328   1.663
 8248W        W73233  20.238  31.617   0.122
 8249W        W73234   6.635  31.468   3.775
 8250W        W73235  41.924  38.264  12.899
 8251W        W73236  40.405   0.907   2.404
 8252W        W73237  37.585  36.533  13.574
 8253W        W73238   5.119  36.862  13.704
 8254W        W73239   7.425   9.827   1.783
 8255W        W73240  22.154  31.530  11.184
 8256W        W73241  22.837  13.852  10.366
 8257W        W73242  39.001   3.895   0.794
 8258W        W73243   5.326  39.009   0.630
 8259W        W73244  17.483  38.036   3.741
 8260W        W73245  13.512  41.447  10.633
 8261W        W73246  16.307  42.420  11.202
 8262W        W73247  38.515   3.790   3.541
 8263W        W73248   4.346  43.371   4.121
 8264W        W73249  15.239  11.141   3.621
 8265W        W73250   1.841  41.530   2.657
 8266W        W73251  35.516  13.257   0.220
 8267W        W73252  19.785  22.561  14.885
 8268W        W73253   7.745  21.263  12.695
 8269W        W73254  43.795  27.931  11.037
 8270W        W73255  20.146  35.921  11.596
 8271W        W73256  40.448  29.857  11.622
 8272W        W73257   5.652  27.367  10.440
 8273W        W73258   7.244  29.913  12.938
 8274W        W73259   8.445  16.635   3.651
 8275W        W73260  13.633  41.967  13.693
 8276W        W73261  38.048   4.039   0.956
 8277W        W73262  17.538   1.224   0.759
 8278W        W73263  13.060   1.861   0.234
 8279W        W73264   3.801  34.461  14.249
 8280W        W73265   3.426  28.495  11.180
 8281W        W73266  11.034  10.900  12.441
 8282W        W73267  18.681  21.210  12.590
 8283W        W73268   1.523  44.836   3.242
 8284W        W73269  30.984  37.825  14.410
 8285W        W73270  33.944   5.462   1.449
 8286W        W73271  19.220  14.906   3.234
 8287W        W73272  43.273  24.181  14.793
 8288W        W73273  17.801  26.744  14.447
 8289W        W73274  15.486   6.050  14.389
 8290W        W73275  20.447  36.584  14.559
 8291W        W73276   7.425  15.637   3.741
 8292W        W73277  25.622  14.876   1.427
 8293W        W73278   0.810   8.716  11.667
 8294W        W73279  32.603  24.652  11.723
 8295W        W73280   7.538  43.975   0.345
 8296W        W73281  43.913  18.792   0.884
 8297W        W73282   9.838   9.340  12.758
 8298W        W73283   5.714  24.996  13.664
 8299W        W73284  26.925  10.472  13.776
 8300W        W73285   9.758   8.775  13.953
 8301W        W73286   3.458  36.987   0.452
 8302W        W73287  38.134   6.494   9.729
 8303W        W73288  16.554  43.163  13.996
 8304W        W73289  27.617  29.399   2.244
 8305W        W73290  21.665  32.975   3.550
 8306W        W73291  14.027  44.722  13.031
 8307W        W73292  11.828  41.253  14.284
 8308W        W73293   5.912  31.488  13.404
 8309W        W73294  29.914  20.088   4.251
 8310W        W73295   1.022   8.553  14.377
 8311W        W73296  38.627  24.154  11.359
 8312W        W73297  17.838  15.836  10.519
 8313W        W73298  42.803  34.825  13.223
 8314W        W73299  10.304  35.962  10.038
 8315W        W73300  26.958  10.542  14.833
 8316W        W73301   0.558  35.855  12.901
 8317W        W73302  40.947  27.132   1.363
 8318W        W73303  32.585  40.950   1.270
 8319W        W73304  21.590  34.449  13.715
 8320W        W73305   7.913  42.492  12.380
 8321W        W73306  36.424  26.140  13.452
 8322W        W73307  36.433  23.552   1.709
 8323W        W73308  34.552   9.599   3.637
 8324W        W73309  33.635  14.596  13.796
 8325W        W73310  21.721   3.820   2.009
 8326W        W73311  33.835   3.297  11.644
 8327W        W73312  16.649  38.157   1.788
 8328W        W73313   9.301  34.818  11.446
 8329W        W73314  25.024  14.754   4.574
 8330W        W73315  44.916  27.067   0.606
 8331W        W73316  22.588  42.492   1.269
 8332W        W73317  17.443  12.386  12.358
 8333W        W73318  22.736   8.622  14.867
 8334W        W73319  26.464  30.591   1.771
 8335W        W73320  41.500  25.017   2.641
 8336W        W73321  38.492  32.490   1.377
 8337W        W73322  18.290  30.343   4.178
 8338W        W73323   3.858  37.085   0.070
 8339W        W73324  29.123  31.099   2.194
 8340W        W73325  19.648   7.479  14.170
 8341W        W73326  14.446  38.337  13.933
 8342W        W73327  42.543   3.622  13.943
 8343W        W73328  31.826  21.516  12.477
 8344W        W73329  30.356   6.439   2.308
 8345W        W73330   1.445  11.664   1.332
 8346W        W73331  21.349   9.653   2.793
 8347W        W73332  33.697  36.331   2.850
 8348W        W73333  20.508  40.691   1.583
 8349W        W73334  37.477  15.799  13.468
 8350W        W73335   0.483  25.481  11.641
 8351W        W73336   6.004  19.506  10.662
 8352W        W73337  24.795  34.870   0.341
 8353W        W73338  27.488  13.590  11.936
 8354W        W73339  11.788  26.587   4.012
 8355W        W73340  28.449  41.559  12.064
 8356W        W73341  28.202  43.390   3.795
 8357W        W73342  28.507   9.454  10.488
 8358W        W73343  11.441  22.558  12.363
 8359W        W73344  36.416  43.586   4.481
 8360W        W73345  37.901  26.181  11.613
 8361W        W73346  31.368  10.437  10.559
 8362W        W73347  38.376  17.015  10.080
 8363W        W73348  23.563  35.873   1.389
 8364W        W73349  17.089  18.625   0.037
 8365W        W73350  31.063  37.788   2.594
 8366W        W73351  10.805  13.279  14.300
 8367W        W73352  27.200  27.140  13.971
 8368W        W73353  22.472  28.025  10.443
 8369W        W73354   6.190  42.752  10.435
 8370W        W73355  42.896  13.140  12.435
 8371W        W73356   7.848  26.461  11.602
 8372W        W73357  28.432  36.540  10.695
 8373W        W73358   0.530  32.078   3.773
 8374W        W73359  20.573  33.876  14.707
 8375W        W73360  28.553   4.394   3.392
 8376W        W73361  24.503  26.588   3.746
 8377W        W73362  27.434  33.392   2.664
 8378W        W73363  37.389  39.027  13.300
 8379W        W73364  30.739  26.059  13.944
 8380W        W73365  19.671  17.081  14.097
 8381W        W73366   7.325   3.355   1.317
 8382W        W73367   1.364  28.279   3.112
 8383W        W73368  36.142   0.809   2.341
 8384W        W73369  20.931  31.152  13.380
 8385W        W73370   8.761  10.210   4.600
 8386W        W73371   3.951  40.149   2.317
 8387W        W73372   1.733  17.157  10.660
 8388W        W73373  19.610  12.725  12.138
 8389W        W73374   9.841  20.518  11.251
 8390W        W73375  30.829  41.291  13.589
 8391W        W73376  23.332  37.777   2.279
 8392W        W73377   9.461  13.473  11.270
 8393W        W73378  30.644  23.529  12.166
 8394W        W73379   7.979  26.677   4.196
 8395W        W73380  28.195  43.422  14.832
 8396W        W73381  42.480   7.999   4.286
 8397W        W73382  12.257  41.911   3.119
 8398W        W73383  14.644   3.423   1.730
 8399W        W73384   3.017  23.487   3.648
 8400W        W73385  26.932  36.894  11.996
 8401W        W73386  15.083   5.621  13.885
 8402W        W73387  31.928  11.664  13.850
 8403W        W73388  38.285  16.704  13.713
 8404W        W73389  40.744   0.316  10.880
 8405W        W73390  28.551  21.518  10.672
 8406W        W73391  26.084  41.070  11.585
 8407W        W73392  27.671  39.614   3.660
 8408W        W73393  13.527   2.715   3.429
 8409W        W73394  41.005  24.200   0.333
 8410W        W73395   1.845  17.218  14.389
 8411W        W73396  34.140   8.629  11.728
 8412W        W73397   4.425  17.678   4.171
 8413W        W73398  16.170  36.600   3.643
 8414W        W73399   0.830   6.900  14.016
 8415W        W73400  12.560   8.367  14.287
 8416W        W73401  33.873  38.297  14.907
 8417W        W73402  41.369   6.788  11.410
 8418W        W73403  19.724   9.250   1.635
 8419W        W73404  34.986  32.404  14.527
 8420W        W73405  22.627  23.116  10.555
 8421W        W73406  20.946  32.006  14.501
 8422W        W73407  15.062   2.719   2.293
 8423W        W73408  15.154  12.335  13.341
 8424W        W73409  36.811  28.016  13.953
 8425W        W73410  14.777  44.942   0.276
 8426W        W73411  35.914  19.842  10.618
 8427W        W73412   4.304   4.180  10.416
 8428W        W73413  24.431   5.303   3.761
 8429W        W73414  40.223   6.455  11.215
 8430W        W73415  11.372  43.469   1.849
 8431W        W73416  40.744   2.438   0.306
 8432W        W73417  43.164   6.045  11.196
 8433W        W73418  10.308  31.709  14.977
 8434W        W73419  35.812  25.593   1.724
 8435W        W73420  35.814  35.112  12.323
 8436W        W73421   9.324  21.657   2.228
 8437W        W73422  17.484  11.608   2.122
 8438W        W73423  10.720  39.549   4.486
 8439W        W73424  37.427  28.915  13.465
 8440W        W73425  23.667  18.650   5.527
 8441W        W73426   2.208  10.799   1.480
 8442W        W73427  13.332  25.609  14.571
 8443W        W73428  17.121  44.432  10.326
 8444W        W73429  17.532  21.181  14.470
 8445W        W73430  26.480  40.927  14.824
 8446W        W73431  30.389   1.757  14.810
 8447W        W73432  31.616  33.091  10.984
 8448W        W73433  28.722  44.544  14.283
 8449W        W73434   5.313  36.886  11.473
 8450W        W73435   3.469  12.284   2.232
 8451W        W73436  31.189  21.481  12.991
 8452W        W73437   4.142   0.470  13.718
 8453W        W73438  23.256  39.985  13.414
 8454W        W73439  13.871  23.614   2.343
 8455W        W73440  34.247   2.460   3.998
 8456W        W73441  22.120  13.909   4.921
 8457W        W73442  13.831  40.882   1.464
 8458W        W73443  36.603  10.497  13.441
 8459W        W73444   7.960  22.064  13.476
 8460W        W73445  14.301  44.494  11.996
 8461W        W73446  39.251   4.426   0.044
 8462W        W73447  16.826   5.804  11.317
 8463W        W73448  33.107  33.401  11.068
 8464W        W73449   1.887  42.901   4.543
 8465W        W73450  36.047  35.533  12.535
 8466W        W73451  21.320  14.784   2.681
 8467W        W73452  12.327  17.828  10.733
 8468W        W73453   0.783  17.588  10.826
 8469W        W73454  14.236  23.813  13.392
 8470W        W73455  44.446  22.777   2.782
 8471W        W73456  16.558  41.720   1.023
 8472W        W73457  37.425  27.080  10.750
 8473W        W73458  26.799  33.669  11.782
 8474W        W73459   8.720  24.904   3.274
 8475W        W73460  12.943  36.484  12.594
 8476W        W73461  15.426   9.757  13.931
 8477W        W73462  14.630  36.846   3.610
 8478W        W73463   6.337   6.975   4.551
 8479W        W73464  33.616  31.986  13.549
 8480W        W73465  24.169  31.367  14.972
 8481W        W73466  39.295  10.046   2.228
 8482W        W73467  23.283  31.023   0.626
 8483W        W73468  19.720   1.086  13.650
 8484W        W73469   5.534  13.813  14.835
 8485W        W73470  17.174  12.593  11.931
 8486W        W73471  27.843  42.839  14.840
 8487W        W73472  44.737  18.042   1.295
 8488W        W73473   9.880  27.538   1.851
 8489W        W73474   6.693  41.636   0.151
 8490W        W73475  42.858  13.752   1.048
 8491W        W73476  44.134  16.998  12.683
 8492W        W73477  38.250  39.710  11.692
 8493W        W73478  44.706  43.431   3.863
 8494W        W73479  19.717  15.477   1.904
 8495W        W73480   3.812   3.792   1.674
 8496W        W73481   9.858  10.900   3.675
 8497W        W73482  41.513   0.017   0.226
 8498W        W73483   8.280  34.010   4.564
 8499W        W73484  21.769  44.719   1.523
 8500W        W73485   3.603  33.834   1.358
 8501W        W73486  18.266  24.588   1.796
 8502W        W73487  14.266  39.985  14.372
 8503W        W73488  31.194   3.412  10.130
 8504W        W73489  16.798   4.338  12.994
 8505W        W73490  27.542  37.932   1.266
 8506W        W73491  16.544  39.508   1.694
 8507W        W73492  22.745  43.407   2.311
 8508W        W73493  40.479   5.379  13.867
 8509W        W73494  41.017  23.016   3.732
 8510W        W73495  27.396  44.766   2.292
 8511W        W73496  20.050  30.949   3.124
 8512W        W73497  41.486  41.503   0.507
 8513W        W73498   7.021  17.118   1.967
 8514W        W73499  40.513  10.887  12.840
 8515W        W73500  11.894  42.408  14.791
 8516W        W73501  42.980  20.283  11.069
 8517W        W73502  41.127  36.035   1.797
 8518W        W73503   4.807  33.098   4.668
 8519W        W73504  17.780  39.949  13.002
 8520W        W73505  44.497   3.502  14.646
 8521W        W73506  11.876  38.386   4.438
 8522W        W73507   7.576  32.846   1.481
 8523W        W73508  24.265   2.552   5.381
 8524W        W73509   3.343  12.600   0.196
 8525W        W73510  25.422  29.690  11.975
 8526W        W73511  15.168  23.566   1.500
 8527W        W73512   3.621  23.575   1.178
 8528W        W73513  22.853   9.180  11.066
 8529W        W73514  31.106   4.963  13.418
 8530W        W73515  43.384  38.421   1.276
 8531W        W73516  27.947  22.890  13.850
 8532W        W73517   9.762  16.943   4.767
 8533W        W73518  28.036   0.305   1.845
 8534W        W73519  21.684   0.716   1.250
 8535W        W73520  29.192  36.302  12.155
 8536W        W73521  18.287  28.522  12.000
 8537W        W73522   3.403  28.845  12.548
 8538W        W73523   0.766  44.274  10.740
 8539W        W73524   2.974  33.710  11.127
 8540W        W73525  24.056  41.984  14.910
 8541W        W73526   9.281  32.927  13.390
 8542W        W73527   3.477  14.489   3.345
 8543W        W73528  27.101  43.047  10.658
 8544W        W73529  41.393   5.451   4.536
 8545W        W73530  25.506  43.886  14.973
 8546W        W73531  31.104  21.814  14.302
 8547W        W73532  25.878  17.193   3.141
 8548W        W73533   8.808  25.383   1.353
 8549W        W73534  38.441   8.165  12.305
 8550W        W73535  13.795   2.485  12.060
 8551W        W73536  44.750  33.995   2.441
 8552W        W73537  13.476  42.498   3.284
 8553W        W73538  14.873  37.261   4.133
 8554W        W73539  19.748  36.465  12.562
 8555W        W73540  35.793  22.978   4.582
 8556W        W73541  12.158  12.227   4.102
 8557W        W73542  29.919  27.166  11.176
 8558W        W73543  28.708  26.087  14.229
 8559W        W73544  34.021   8.575   2.355
 8560W        W73545  26.420  35.477  13.912
 8561W        W73546  17.164  19.296   5.655
 8562W        W73547  27.663  32.543  13.956
 8563W        W73548  14.607  25.684   1.210
 8564W        W73549  18.011   1.700  13.583
 8565W        W73550  12.343  28.540   2.574
 8566W        W73551  43.892  26.193  12.387
 8567W        W73552  33.051  12.272   2.150
 8568W        W73553  37.924  14.039  13.512
 8569W        W73554  35.519  44.559   3.986
 8570W        W73555  20.820   8.305   3.789
 8571W        W73556  23.497  32.018   3.201
 8572W        W73557  23.445  24.988  13.830
 8573W        W73558   2.299  36.841   2.225
 8574W        W73559  28.508   5.920  12.574
 8575W        W73560  21.614   6.230  10.330
 8576W        W73561  24.787   8.775   0.769
 8577W        W73562  34.507  24.938   0.712
 8578W        W73563   9.852  33.659  11.534
 8579W        W73564  17.518  30.846   3.078
 8580W        W73565   1.748  35.190  11.610
 8581W        W73566  36.860  10.993  10.420
 8582W        W73567  41.856  43.498   0.296
 8583W        W73568  26.975   0.349  10.516
 8584W        W73569  25.981  18.853   2.386
 8585W        W73570  16.411  39.899   2.472
 8586W        W73571  20.316  16.670   2.432
 8587W        W73572  23.605  31.575   4.435
 8588W        W73573   0.711  37.345  13.181
 8589W        W73574  32.854  32.154  14.318
 8590W        W73575  26.974  42.526   3.079
 8591W        W73576  13.865   3.600   4.321
 8592W        W73577  39.725  34.887   3.336
 8593W        W73578  20.547  24.981  11.074
 8594W        W73579   0.989  18.772  10.437
 8595W        W73580  42.989   8.689   0.449
 8596W        W73581   7.260  23.694   0.776
 8597W        W73582  24.529  17.156  13.851
 8598W        W73583  32.917  39.074  12.677
 8599W        W73584  38.641  44.881  13.843
 8600W        W73585   2.681   9.214  13.025
 8601W        W73586  21.258  11.908   1.283
 8602W        W73587  24.951  18.759   0.809
 8603W        W73588  27.497  18.335   1.418
 8604W        W73589   6.897  27.350   2.689
 8605W        W73590  22.134  28.382   1.918
 8606W        W73591  31.498  11.643  13.528
 8607W        W73592  23.216  12.625   3.773
 8608W        W73593   9.002  22.344   3.745
 8609W        W73594   9.639  15.143  12.727
 8610W        W73595  19.834  41.994   1.734
 8611W        W73596  31.695  32.091  13.566
 8612W        W73597  30.651  44.573  13.170
 8613W        W73598  31.980   8.598   3.218
 8614W        W73599  33.907  32.142  13.085
 8615W        W73600   3.737  25.193   3.633
 8616W        W73601   2.783  28.455  11.857
 8617W        W73602  23.735  31.720   0.833
 8618W        W73603  10.334  43.035  11.084
 8619W        W73604  30.523  25.103  14.448
 8620W        W73605  15.783  10.805   4.596
 8621W        W73606  17.303  41.359  11.585
 8622W        W73607  18.764  39.084   1.976
 8623W        W73608  24.033  31.524  13.544
 8624W        W73609  35.933  37.419  14.327
 8625W        W73610  17.825   0.800  14.154
 8626W        W73611  22.844  11.754  11.031
 8627W        W73612   3.476  30.128  13.102
 8628W        W73613  18.119  44.909  14.260
 8629W        W73614   1.558  30.505   4.055
 8630W        W73615  23.621  38.368  14.526
 8631W        W73616  31.962  16.804   0.424
 8632W        W73617   9.774  39.181  14.909
 8633W        W73618   3.731  43.984   3.328
 8634W        W73619  44.732  16.522   1.880
 8635W        W73620  32.858  26.095  11.728
 8636W        W73621   0.902  27.087  14.276
 8637W        W73622  27.002   2.051  14.328
 8638W        W73623  42.195  15.598   5.080
 8639W        W73624  29.617   3.768   3.329
 8640W        W73625  35.593  19.009   2.133
 8641W        W73626  42.276   2.195  13.381
 8642W        W73627  33.888  38.530  13.950
 8643W        W73628   6.424   9.755  12.495
 8644W        W73629  28.603  18.321  11.157
 8645W        W73630  13.503  44.723  13.049
 8646W        W73631  16.775   7.928   4.929
 8647W        W73632  32.044  20.024   0.403
 8648W        W73633  19.325  41.425   1.220
 8649W        W73634   4.042  11.683  10.340
 8650W        W73635  20.185  25.854   3.287
 8651W        W73636  14.581  14.809  14.780
 8652W        W73637  18.963  16.671  13.824
 8653W        W73638  23.239  14.676  13.455
 8654W        W73639   1.000  16.178   2.891
 8655W        W73640  24.578  32.713   0.469
 8656W        W73641  21.590  26.054  14.542
 8657W        W73642   8.809  16.271  13.669
 8658W        W73643  30.499  14.718   2.447
 8659W        W73644  38.890  18.508   0.334
 8660W        W73645   3.928  22.047   0.780
 8661W        W73646   6.805   2.003  12.812
 8662W        W73647  26.156  44.306  10.337
 8663W        W73648  39.944  32.321   0.523
 8664W        W73649  35.546  38.790   0.818
 8665W        W73650  40.407   2.944  10.784
 8666W        W73651  12.793  27.489   1.939
 8667W        W73652  23.240  20.482  12.839
 8668W        W73653  14.317  34.333  14.285
 8669W        W73654  32.122   5.417   4.382
 8670W        W73655  44.103  20.076  10.957
 8671W        W73656   4.024  26.804   1.376
 8672W        W73657   6.854   7.881  11.179
 8673W        W73658  18.795  13.758   2.236
 8674W        W73659  34.992  13.592   0.816
 8675W        W73660   4.502   9.845   4.373
 8676W        W73661  11.560  12.844  11.137
 8677W        W73662   8.812  10.553   0.500
 8678W        W73663  29.132  18.846  12.108
 8679W        W73664  20.237  26.059  11.628
 8680W        W73665   0.758  35.123  12.411
 8681W        W73666  21.101  19.765   1.658
 8682W        W73667  19.368  15.297  12.035
 8683W        W73668  42.316  32.890  12.061
 8684W        W73669  21.058  15.482   0.831
 8685W        W73670  22.874  28.315  13.421
 8686W        W73671  37.236  40.549   3.704
 8687W        W73672  18.649  21.392  11.555
 8688W        W73673  40.582  40.060  12.591
 8689W        W73674  19.093  25.185  12.041
 8690W        W73675   2.820  23.022   3.665
 8691W        W73676  44.494  28.465  11.998
 8692W        W73677  29.399  38.486  12.402
 8693W        W73678  36.571   1.954   1.821
 8694W        W73679  27.076  28.496  14.386
 8695W        W73680   8.242  15.898  14.807
 8696W        W73681  38.897  31.105  11.500
 8697W        W73682  26.097  18.825   3.274
 8698W        W73683  29.392  17.236  14.841
 8699W        W73684  15.685   2.990   5.445
 8700W        W73685   3.186  20.323   1.662
 8701W        W73686  36.869  41.491   2.902
 8702W        W73687  30.080  21.260   1.903
 8703W        W73688  19.519  18.823   3.245
 8704W        W73689  38.315  24.656   3.576
 8705W        W73690  32.882  39.413  14.906
 8706W        W73691  35.707  15.298  13.739
 8707W        W73692   2.930  28.055  14.434
 8708W        W73693   6.067   6.569  10.794
 8709W        W73694  27.033  29.404   4.457
 8710W        W73695  24.585  20.662  12.899
 8711W        W73696  18.300  37.235  13.474
 8712W        W73697   7.758  40.347   2.270
 8713W        W73698  31.510  41.258   3.695
 8714W        W73699   0.796  23.931  12.027
 8715W        W73700  11.859  31.394   4.259
 8716W        W73701  41.328  28.559  10.500
 8717W        W73702  31.418  22.614   0.436
 8718W        W73703  38.099  33.457  11.608
 8719W        W73704  21.569  16.337   2.162
 8720W        W73705  32.537  19.535   1.103
 8721W        W73706   6.643  37.895   0.477
 8722W        W73707  18.341  31.415   1.237
 8723W        W73708  37.480  28.233   3.796
 8724W        W73709  10.890   3.203  12.440
 8725W        W73710  27.788   8.272   0.629
 8726W        W73711  31.605  21.767   4.796
 8727W        W73712  22.106  34.579   2.467
 8728W        W73713   1.812  29.670  11.183
 8729W        W73714  18.752  36.008  12.421
 8730W        W73715   4.803   8.840   1.474
 8731W        W73716  33.652  13.275   3.299
 8732W        W73717  12.938  33.567  14.150
 8733W        W73718  19.400  13.646  11.192
 8734W        W73719   1.683  12.892   2.309
 8735W        W73720   3.922  37.384   2.393
 8736W        W73721  16.467   9.832  11.198
 8737W        W73722  34.362   0.742  10.749
 8738W        W73723  13.194  32.954  12.586
 8739W        W73724  44.431   3.288   3.581
 8740W        W73725  33.158  22.560   0.291
 8741W        W73726  29.776   1.789  10.636
 8742W        W73727   2.866  20.761  13.773
 8743W        W73728  12.322  26.839   1.481
 8744W        W73729  42.036   8.175  14.367
 8745W        W73730   6.528   9.613  14.207
 8746W        W73731  13.553   3.536  11.144
 8747W        W73732  40.008   7.114  11.721
 8748W        W73733  19.244  13.660  13.102
 8749W        W73734  29.013   7.378  11.475
 8750W        W73735  32.226   3.208   3.829
 8751W        W73736   5.998   0.820  11.213
 8752W        W73737  14.563  38.898  11.207
 8753W        W73738  22.245   5.293  13.533
 8754W        W73739   8.863  44.670   0.414
 8755W        W73740  33.655   5.876  10.160
 8756W        W73741  32.493  33.485  13.407
 8757W        W73742  38.204  24.271  11.086
 8758W        W73743  35.122  43.553   3.723
 8759W        W73744  19.546   6.582  12.629
 8760W        W73745  24.309  40.354   0.879
 8761W        W73746   6.755  40.065  11.132
 8762W        W73747  13.547  13.152  13.462
 8763W        W73748  41.303  15.378  14.774
 8764W        W73749  35.547  43.749   0.295
 8765W        W73750  15.302  27.752  12.134
 8766W        W73751  39.270  37.571   3.140
 8767W        W73752  32.469  37.316  10.411
 8768W        W73753  30.381  34.248   3.766
 8769W        W73754  37.752  44.356  14.940
 8770W        W73755   9.283  13.704  14.215
 8771W        W73756  39.620   2.813   4.414
 8772W        W73757  30.074   2.643   2.688
 8773W        W73758   8.193  33.586   1.458
 8774W        W73759  24.532  26.456   5.180
 8775W        W73760  28.477  21.025   4.363
 8776W        W73761  20.494  31.168   2.914
 8777W        W73762  19.224  25.748  11.066
 8778W        W73763   2.903   9.654   2.225
 8779W        W73764  38.846  10.968   1.380
 8780W        W73765  10.919   8.771  14.397
 8781W        W73766  16.573  18.558  13.997
 8782W        W73767   7.882   9.208  11.966
 8783W        W73768  30.662  24.606  10.695
 8784W        W73769  31.529  34.992  14.486
 8785W        W73770  22.737  35.661   0.884
 8786W        W73771   2.518  33.239   1.504
 8787W        W73772  41.169   5.947  13.526
 8788W        W73773  19.889  41.153   0.433
 8789W        W73774   0.666  35.025   2.781
 8790W        W73775  11.031  16.196  13.472
 8791W        W73776  30.420   3.185  14.058
 8792W        W73777  22.403   2.714  11.979
 8793W        W73778   9.596  34.371  12.148
 8794W        W73779   7.966  26.972  13.727
 8795W        W73780  26.741   5.241   3.735
 8796W        W73781  13.908  12.501  11.111
 8797W        W73782  11.201  29.034   3.083
 8798W        W73783  19.525  34.548   1.852
 8799W        W73784  38.249  12.810  10.934
 8800W        W73785  31.679  37.570  10.756
 8801W        W73786  26.210  26.088  14.334
 8802W        W73787  10.715  16.885   4.170
 8803W        W73788  42.933  39.412  14.935
 8804W        W73789  29.919  18.527   1.268
 8805W        W73790  16.412  28.953   3.647
 8806W        W73791  16.974  11.127   2.796
 8807W        W73792  13.388  35.800   2.596
 8808W        W73793  34.523   7.400   4.524
 8809W        W73794  19.910  21.769   9.832
 8810W        W73795  41.144  31.715  14.959
 8811W        W73796  37.104  42.746   0.511
 8812W        W73797  16.251  38.918   4.336
 8813W        W73798  36.781  44.450   2.168
 8814W        W73799   5.735  19.287  13.904
 8815W        W73800  19.548  10.300   3.161
 8816W        W73801  21.603  25.535   0.183
 8817W        W73802   5.398  44.808   3.670
 8818W        W73803  38.838  34.031  10.498
 8819W        W73804  17.186   2.195  12.343
 8820W        W73805  15.903   9.958  13.887
 8821W        W73806  42.339   0.867  13.049
 8822W        W73807  35.356   6.947   3.723
 8823W        W73808   8.774  38.718  13.672
 8824W        W73809  40.531  27.444  11.141
 8825W        W73810  37.050   3.692  12.935
 8826W        W73811  18.461  19.604  12.988
 8827W        W73812   8.726  26.328   0.162
 8828W        W73813   0.497  11.336  14.887
 8829W        W73814  26.379  23.700  11.014
 8830W        W73815  26.349  38.274  11.553
 8831W        W73816  23.127  35.552  13.276
 8832W        W73817   1.250  42.435   2.416
 8833W        W73818   4.858  26.553  10.625
 8834W        W73819  42.828   2.970   1.440
 8835W        W73820   0.028  38.431   2.926
 8836W        W73821   9.893  11.172  13.972
 8837W        W73822  22.148  14.815   2.261
 8838W        W73823   4.925  21.068   1.334
 8839W        W73824  32.038  16.218  12.576
 8840W        W73825  29.073  21.590  11.262
 8841W        W73826  38.650  11.603  10.868
 8842W        W73827  43.726  29.455  14.753
 8843W        W73828   3.250  10.159  11.876
 8844W        W73829   8.026   6.387  10.739
 8845W        W73830  36.323  37.629  13.514
 8846W        W73831  27.603  35.368  13.897
 8847W        W73832  32.015  12.036   4.554
 8848W        W73833  23.471  34.458  12.682
 8849W        W73834  43.841   7.452  11.092
 8850W        W73835   7.879  17.829  14.245
 8851W        W73836  35.847   9.619   0.901
 8852W        W73837  38.707  12.901  11.160
 8853W        W73838   8.987  36.888  11.931
 8854W        W73839  25.813  41.010  12.019
 8855W        W73840  13.375  18.856   1.234
 8856W        W73841  26.627  36.935   2.540
 8857W        W73842  14.513  16.627  11.528
 8858W        W73843  10.087  26.808   4.807
 8859W        W73844  15.737  25.487   2.100
 8860W        W73845  29.060  22.324  11.049
 8861W        W73846  34.082   9.964  10.352
 8862W        W73847   6.265  28.244   0.202
 8863W        W73848   8.781  25.894  11.551
 8864W        W73849  43.466  33.198  12.979
 8865W        W73850  27.390  20.411  14.239
 8866W        W73851  29.210   7.602  10.638
 8867W        W73852  14.283  11.685   1.752
 8868W        W73853  40.766  30.891   1.384
 8869W        W73854   0.964  39.902   3.357
 8870W        W73855  17.153  44.849   2.582
 8871W        W73856  15.417  24.160  13.975
 8872W        W73857  40.755   7.978   3.333
 8873W        W73858  15.706  44.037   3.748
 8874W        W73859   3.835  16.568  13.782
 8875W        W73860  15.608  10.862  11.194
 8876W        W73861  30.099   3.149   9.926
 8877W        W73862  41.211   4.467  10.770
 8878W        W73863   2.997  13.258   4.773
 8879W        W73864  37.854   1.968   1.463
 8880W        W73865  38.934   1.262  12.390
 8881W        W73866  17.945  18.503   4.820
 8882W        W73867  29.843  36.183  14.839
 8883W        W73868  14.811   0.180  11.528
 8884W        W73869  16.115  26.010  10.713
 8885W        W73870  30.972  11.659   3.035
 8886W        W73871  39.476  11.305   4.313
 8887W        W73872  15.774  27.938  12.214
 8888W        W73873   3.927  43.401  14.071
 8889W        W73874  36.081  31.158   0.959
 8890W        W73875  14.557   4.120  14.387
 8891W        W73876   0.478   1.026  14.808
 8892W        W73877  23.655   2.949  12.946
 8893W        W73878   5.247  13.620  14.434
 8894W        W73879  38.123  21.545   0.391
 8895W        W73880  42.952   4.925  12.596
 8896W        W73881  14.293   6.808   3.224
 8897W        W73882  13.008   1.344  11.205
 8898W        W73883  20.760  11.163   2.475
 8899W        W73884   3.326  39.663   3.900
 8900W        W73885   6.160  12.891   3.631
 8901W        W73886  27.365  36.971  14.278
 8902W        W73887  28.591  26.675  13.008
 8903W        W73888  19.527  44.867   3.306
 8904W        W73889  26.446  19.042   2.379
 8905W        W73890  12.231  44.304  12.067
 8906W        W73891   2.919  19.180   0.877
 8907W        W73892  14.009  14.856   0.804
 8908W        W73893  10.123  30.157  14.964
 8909W        W73894  38.773  11.613  11.626
 8910W        W73895  29.673  17.761  11.566
 8911W        W73896  25.788  43.851   3.968
 8912W        W73897  23.473  35.297  14.089
 8913W        W73898  43.248  17.726  14.707
 8914W        W73899  40.481  19.812  14.944
 8915W        W73900   6.649  19.081   2.895
 8916W        W73901   4.749  19.790  10.594
 8917W        W73902  38.553  12.885  13.476
 8918W        W73903   0.545   1.296  13.468
 8919W        W73904  39.596  14.245   4.564
 8920W        W73905  33.595   9.697   3.053
 8921W        W73906  25.690  42.952  14.063
 8922W        W73907  11.678   9.935  10.646
 8923W        W73908   1.353   4.577  11.571
 8924W        W73909  15.404  10.640   0.699
 8925W        W73910  14.671  44.164  10.755
 8926W        W73911  22.611   6.354  11.680
 8927W        W73912  17.600  35.518  13.517
 8928W        W73913  29.258  35.123   3.236
 8929W        W73914  17.598   8.467   3.429
 8930W        W73915  13.899  30.902   2.824
 8931W        W73916  33.194  17.777  10.667
 8932W        W73917  14.713  41.278   3.142
 8933W        W73918  42.865  11.591  14.296
 8934W        W73919  13.620  32.264   2.169
 8935W        W73920  17.506  28.490   0.031
 8936W        W73921  21.635  26.040   0.056
 8937W        W73922  11.824   5.775   1.668
 8938W        W73923  44.400  13.366  11.019
 8939W        W73924   0.380  44.376  14.228
 8940W        W73925   1.432   1.857  14.296
 8941W        W73926  38.833  24.186  14.791
 8942W        W73927  39.868   0.899   1.059
 8943W        W73928  32.959   8.005   2.333
 8944W        W73929  19.037  33.012  14.962
 8945W        W73930  25.684   7.661  12.133
 8946W        W73931  30.406  38.316   1.662
 8947W        W73932  44.057  10.388   1.604
 8948W        W73933  36.535  40.864   0.881
 8949W        W73934   8.453  38.521  11.091
 8950W        W73935   8.894  22.203  12.119
 8951W        W73936  43.003  23.707   2.249
 8952W        W73937  14.590  21.125   2.455
 8953W        W73938   6.929   0.064   0.418
 8954W        W73939  42.906   2.387  12.794
 8955W        W73940  23.776   5.823   1.657
 8956W        W73941  15.334   3.403   2.912
 8957W        W73942  41.776  19.047  13.885
 8958W        W73943   9.182  32.946   3.266
 8959W        W73944   5.378  24.229  10.746
 8960W        W73945  38.608  21.231  11.084
 8961W        W73946  21.077  14.355   2.144
 8962W        W73947  12.859  37.364   4.077
 8963W        W73948  29.122  35.426  14.974
 8964W        W73949  10.738  17.063  13.344
 8965W        W73950   0.209  20.295   2.919
 8966W        W73951  15.191   2.844   3.655
 8967W        W73952  25.781   6.440  14.141
 8968W        W73953  38.092  26.769   1.836
 8969W        W73954   7.936   5.252   3.662
 8970W        W73955   0.834  23.025   1.878
 8971W        W73956  14.269  44.430   2.651
 8972W        W73957  10.238  34.857   4.314
 8973W        W73958  23.800  31.667   2.908
 8974W        W73959  43.983  13.665  12.202
 8975W        W73960  32.048  12.143  10.270
 8976W        W73961  23.716  42.550   2.723
 8977W        W73962  34.913  29.015   0.824
 8978W        W73963  29.439   9.641  13.320
 8979W        W73964   7.949  26.238  12.076
 8980W        W73965  29.709  19.607  13.586
 8981W        W73966  22.298  31.206   3.301
 8982W        W73967  34.846  17.227   3.734
 8983W        W73968  39.743  19.051  14.394
 8984W        W73969  10.686  44.124  11.173
 8985W        W73970  12.956   2.990  13.941
 8986W        W73971  33.629  21.023   4.637
 8987W        W73972   4.976   4.929  14.886
 8988W        W73973  30.591  34.088  14.395
 8989W        W73974  23.177  14.894   2.408
 8990W        W73975  34.310  42.342   0.317
 8991W        W73976  34.460  33.453   0.666
 8992W        W73977  43.725  27.519   2.712
 8993W        W73978  14.847   0.002   1.141
 8994W        W73979   0.471  17.321   1.305
 8995W        W73980  19.723  36.477   3.670
 8996W        W73981  12.480  28.495  10.537
 8997W        W73982   4.600  35.140   4.040
 8998W        W73983   6.443  24.781   3.425
 8999W        W73984  10.732  28.175  10.374
 9000W        W73985  25.117  35.853   3.897
 9001W        W73986  18.571  25.688   3.925
 9002W        W73987  44.960  20.977  10.527
 9003W        W73988  14.594  35.890   3.616
 9004W        W73989  36.511  32.523  13.388
 9005W        W73990  38.867  38.907   3.192
 9006W        W73991   1.471  39.000   0.915
 9007W        W73992  27.080  42.574   1.334
 9008W        W73993   0.252  26.899  12.607
 9009W        W73994  40.564  28.431  14.384
 9010W        W73995  12.205   1.745  14.311
 9011W        W73996   9.874  43.918   3.836
 9012W        W73997  14.362  22.529   4.100
 9013W        W73998  16.358  28.981  14.876
 9014W        W73999  43.475  27.103  11.061
 9015W        W74000  44.488  12.292  14.853
 9016W        W74001  33.802  27.103   2.059
 9017W        W74002  35.272  41.800  13.951
 9018W        W74003  31.207  30.133  14.945
 9019W        W74004  22.606   2.663  13.849
 9020W        W74005  26.207  22.388  13.994
 9021W        W74006  31.878  20.202   4.060
 9022W        W74007  19.295  30.728   4.090
 9023W        W74008   3.823   3.444   4.080
 9024W        W74009   0.905  18.263  13.922
 9025W        W74010  17.331   7.222   3.985
 9026W        W74011  42.277  43.994  13.967
 9027W        W74012  30.092  25.979  13.946
 9028W        W74013  15.553  39.831   2.208
 9029W        W74014  42.042   6.218  11.538
 9030W        W74015  30.864   3.405   1.124
 9031W        W74016   1.702  11.538   4.659
 9032W        W74017  26.415  12.276  13.457
 9033W        W74018  19.584  29.431  14.919
 9034W        W74019  24.005  13.504   2.055
 9035W        W74020  10.587   2.478   4.251
 9036W        W74021  16.670  26.931  11.588
 9037W        W74022  39.394  12.262  13.388
 9038W        W74023  10.399  37.011  13.377
 9039W        W74024  15.861   7.883   0.765
 9040W        W74025  42.581   4.112   1.637
 9041W        W74026  37.174  14.724  12.072
 9042W        W74027  17.634   9.110  14.318
 9043W        W74028  43.291  37.038  12.024
 9044W        W74029  22.145  27.980   0.297
 9045W        W74030  29.612   3.842   0.479
 9046W        W74031  16.674  38.131   2.700
 9047W        W74032   0.875  23.193  11.228
 9048W        W74033   2.681  23.605  12.089
 9049W        W74034  24.973  32.628  13.468
 9050W        W74035  42.923   8.286   4.180
 9051W        W74036  30.873   4.272  11.608
 9052W        W74037  39.583  39.040   0.601
 9053W        W74038   3.407  11.315   1.096
 9054W        W74039  39.934  25.795  14.432
 9055W        W74040   3.987  36.406   2.609
 9056W        W74041  23.884  12.456  14.401
 9057W        W74042   3.541   6.498  11.094
 9058W        W74043  19.758   8.767  12.657
 9059W        W74044   2.805  43.745  13.440
 9060W        W74045   4.998  24.427  12.561
 9061W        W74046  34.896  16.554   3.244
 9062W        W74047  30.070  13.096  14.753
 9063W        W74048   5.806  38.302   0.732
 9064W        W74049  26.492  31.847   2.344
 9065W        W74050  18.596  16.412   2.728
 9066W        W74051  33.648  32.457  10.539
 9067W        W74052  38.033  42.685   3.759
 9068W        W74053   6.265  33.590  10.844
 9069W        W74054  22.655  24.033   0.994
 9070W        W74055  20.263  24.834  13.127
 9071W        W74056  13.676   1.451   2.709
 9072W        W74057   8.798   2.930  12.014
 9073W        W74058  28.744  24.756  13.273
 9074W        W74059  10.325   6.704   1.847
 9075W        W74060  33.588  35.632  10.622
 9076W        W74061  19.264  37.471  14.516
 9077W        W74062   2.320  41.257   3.728
 9078W        W74063  31.222  16.635  13.059
 9079W        W74064  20.304  26.532  11.416
 9080W        W74065  25.195  42.984   3.206
 9081W        W74066  19.039  16.119   2.701
 9082W        W74067   1.745   9.955   4.324
 9083W        W74068  18.960   9.427   1.334
 9084W        W74069  19.750  16.034   2.787
 9085W        W74070  19.695  11.832  10.666
 9086W        W74071  28.728  34.185   4.983
 9087W        W74072  37.180  26.638  10.688
 9088W        W74073  42.867  35.618  12.155
 9089W        W74074  22.806  31.225   4.526
 9090W        W74075  15.720  30.110  13.097
 9091W        W74076  43.948  41.755   0.843
 9092W        W74077  13.935   8.517   1.754
 9093W        W74078  27.449  43.979  14.613
 9094W        W74079  32.198  18.701   3.712
 9095W        W74080  44.968   3.123   2.642
 9096W        W74081  37.539  32.856   4.327
 9097W        W74082   2.335  35.273   1.305
 9098W        W74083   2.746  12.782  14.565
 9099W        W74084  40.747  16.147   1.400
 9100W        W74085  37.103  19.120   1.340
 9101W        W74086  22.146  42.331  14.530
 9102W        W74087  32.387  27.785  14.337
 9103W        W74088  44.015  39.550   3.688
 9104W        W74089  28.302   9.627  14.396
 9105W        W74090  40.547  12.656   2.989
 9106W        W74091  18.554  37.870   4.300
 9107W        W74092   2.072   1.238  14.138
 9108W        W74093  17.847  18.484   1.919
 9109W        W74094  26.720  22.697   2.219
 9110W        W74095  13.204  25.112   3.383
 9111W        W74096   3.946  42.207  11.651
 9112W        W74097  15.211  38.569  10.601
 9113W        W74098  13.804   5.406   1.526
 9114W        W74099   7.945  15.717  13.935
 9115W        W74100  19.002  17.788  12.985
 9116W        W74101  27.644  12.301   2.782
 9117W        W74102  33.972  36.028  12.572
 9118W        W74103  25.968  11.083   0.033
 9119W        W74104  33.619  12.630   0.357
 9120W        W74105  34.955  12.422  11.944
 9121W        W74106  17.918  28.551  11.655
 9122W        W74107   2.813   8.799  13.958
 9123W        W74108  30.687  19.085   0.451
 9124W        W74109   4.034   1.350   2.218
 9125W        W74110  29.939   1.963  14.589
 9126W        W74111  22.584  38.468   3.418
 9127W        W74112  13.046   4.813  10.868
 9128W        W74113  25.428  40.702   3.579
 9129W        W74114  21.159  13.019   4.980
 9130W        W74115  18.688   4.562  11.157
 9131W        W74116   5.654  43.078   3.653
 9132W        W74117  19.480  41.545  14.810
 9133W        W74118   1.316  43.473   2.251
 9134W        W74119  10.898  34.881  10.988
 9135W        W74120  20.392  35.360  12.101
 9136W        W74121  34.287  16.113  14.448
 9137W        W74122  34.288  13.220   3.782
 9138W        W74123  24.981   2.711  12.483
 9139W        W74124   1.024  44.977  14.226
 9140W        W74125  28.174  25.049  12.220
 9141W        W74126  15.619  32.378  12.688
 9142W        W74127  42.924  28.035  13.267
 9143W        W74128  40.375   1.506   0.911
 9144W        W74129  26.086  40.397   1.811
 9145W        W74130  19.093  11.038   0.670
 9146W        W74131  25.453  16.644   3.590
 9147W        W74132  13.972  17.190   2.183
 9148W        W74133  42.023  11.395   1.344
 9149W        W74134  19.320  16.116   3.649
 9150W        W74135  21.110  13.589   1.747
 9151W        W74136  33.628   8.209  12.568
 9152W        W74137  14.606   4.032   3.615
 9153W        W74138  44.420   4.268   4.862
 9154W        W74139  29.571  22.274   0.531
 9155W        W74140  26.965  40.505  10.745
 9156W        W74141   0.206   2.982  12.087
 9157W        W74142  22.253  18.190   2.921
 9158W        W74143   3.692  38.894   2.785
 9159W        W74144   7.074  29.901   4.465
 9160W        W74145   4.043   0.735  14.706
 9161W        W74146  19.115   2.303   1.632
 9162W        W74147  36.527   0.402  12.369
 9163W        W74148   9.313  34.461   2.372
 9164W        W74149  36.317  37.986  10.709
 9165W        W74150   3.072  23.168  11.144
 9166W        W74151  36.576  41.858  12.021
 9167W        W74152  13.549  44.241   4.069
 9168W        W74153  11.195  34.605   2.375
 9169W        W74154  35.840   1.281   3.605
 9170W        W74155   3.592  14.738   0.902
 9171W        W74156   0.913   3.379  13.084
 9172W        W74157  17.083  35.644  11.493
 9173W        W74158  40.911  40.596  14.773
 9174W        W74159  12.166  37.094   3.361
 9175W        W74160   4.936   4.963  13.802
 9176W        W74161  35.144  30.561   2.179
 9177W        W74162  13.316   3.744   2.671
 9178W        W74163  34.095  20.132  12.132
 9179W        W74164  21.809  24.028   2.250
 9180W        W74165  37.554   4.134  14.694
 9181W        W74166  44.424  40.824  10.445
 9182W        W74167  17.384  15.644  10.655
 9183W        W74168  36.227  33.024   4.092
 9184W        W74169  14.102   7.750   2.428
 9185W        W74170  28.478  16.594  13.932
 9186W        W74171  11.600  38.051  13.861
 9187W        W74172  41.645  35.114   0.237
 9188W        W74173  44.446   7.873  10.057
 9189W        W74174  18.488  17.560  12.954
 9190W        W74175  19.012   6.296  11.818
 9191W        W74176  12.342  44.041  14.924
 9192W        W74177  17.873  13.281   1.853
 9193W        W74178  35.406  40.106  12.041
 9194W        W74179   6.326  23.220  11.441
 9195W        W74180  24.928   6.304  11.584
 9196W        W74181  40.382  36.060  13.857
 9197W        W74182  42.536  24.668  14.531
 9198W        W74183  43.494  32.100   0.798
 9199W        W74184  22.965  37.815   4.456
 9200W        W74185   2.637  17.110  14.787
 9201W        W74186  33.099  30.084   1.760
 9202W        W74187  23.516  29.074  11.244
 9203W        W74188   9.820   9.476   3.794
 9204W        W74189  40.830  23.819   0.661
 9205W        W74190   0.694  20.802   1.308
 9206W        W74191  26.541  16.301  12.252
 9207W        W74192  30.188  13.700   3.221
 9208W        W74193  29.918  14.294   4.897
 9209W        W74194   4.359  42.743  10.355
 9210W        W74195  29.507  43.946   1.414
 9211W        W74196  27.566  13.978  12.717
 9212W        W74197  42.993   2.026  13.403
 9213W        W74198  29.507  29.948   3.566
 9214W        W74199  44.856  29.915   0.725
 9215W        W74200  33.063  35.529  13.509
 9216W        W74201  21.150  13.357  12.071
 9217W        W74202   9.140  17.861   2.230
 9218W        W74203  21.016  17.296   1.703
 9219W        W74204  31.568  38.551  13.976
 9220W        W74205  16.469   6.023  12.570
 9221W        W74206  34.496  21.593  13.653
 9222W        W74207  41.163  29.926   4.527
 9223W        W74208   7.281  39.407  10.680
 9224W        W74209  36.009  21.466  12.906
 9225W        W74210  20.302  28.255  11.214
 9226W        W74211  18.528  40.711   2.754
 9227W        W74212  34.371  40.752   2.767
 9228W        W74213  35.105   3.038  12.040
 9229W        W74214  20.095  28.605  12.536
 9230W        W74215  36.938  24.364  13.380
 9231W        W74216   5.494   7.584   4.513
 9232W        W74217  37.328  20.067   3.740
 9233W        W74218   4.960  12.766   3.454
 9234W        W74219  39.984  13.620  12.525
 9235W        W74220  31.545  16.679   3.589
 9236W        W74221  37.571  24.608  14.517
 9237W        W74222   9.713  26.288   2.706
 9238W        W74223  37.075  14.736  12.592
 9239W        W74224   4.440   0.663  10.940
 9240W        W74225  43.233  40.496   2.570
 9241W        W74226  36.032   2.961   4.128
 9242W        W74227  39.347   0.021   4.188
 9243W        W74228   0.648   8.505   4.779
 9244W        W74229  36.113  21.184   4.022
 9245W        W74230  44.304  20.310   2.877
 9246W        W74231  35.244  31.829   5.088
 9247W        W74232  25.367  26.560   4.688
 9248W        W74233   1.326  34.097   1.432
 9249W        W74234  13.415  17.027   5.099
 9250W        W74235  17.561  40.902   3.710
 9251W        W74236  17.176   2.471  13.863
 9252W        W74237  25.491  38.575   0.338
 9253W        W74238  21.442  28.737   2.391
 9254W        W74239  29.098  37.817   1.302
 9255W        W74240   0.738   3.828   1.240
 9256W        W74241  37.928  34.749  12.035
 9257W        W74242  14.335  44.755  13.991
 9258W        W74243  11.387  11.655  12.159
 9259W        W74244  15.512   4.701  13.790
 9260W        W74245  14.593   7.809  13.314
 9261W        W74246  40.042   9.429   1.443
 9262W        W74247  29.226  32.126   0.808
 9263W        W74248  29.519  30.022  10.606
 9264W        W74249   3.440  25.025  13.067
 9265W        W74250  26.623  36.783   1.350
 9266W        W74251  36.055  13.083  12.572
 9267W        W74252  12.182  19.025   0.312
 9268W        W74253  21.497  28.723   3.710
 9269W        W74254  28.214   6.874  14.819
 9270W        W74255   0.854  35.493   2.952
 9271W        W74256   4.766  15.763   3.582
 9272W        W74257  35.082   5.686   4.663
 9273W        W74258  15.090  40.984  14.280
 9274W        W74259  25.631  44.675  12.089
 9275W        W74260  13.708  19.986  10.801
 9276W        W74261  39.243  28.178  12.130
 9277W        W74262   5.876  23.847  12.613
 9278W        W74263   4.921  12.779  12.672
 9279W        W74264   7.387  12.059   2.688
 9280W        W74265  36.411   3.928   2.330
 9281W        W74266  34.878  44.053   2.949
 9282W        W74267  43.204   0.699   2.348
 9283W        W74268  40.943  25.618   0.976
 9284W        W74269  17.112   1.973   4.986
 9285W        W74270  39.007  18.241   0.788
 9286W        W74271  15.553   1.999  11.575
 9287W        W74272   0.189   8.184   0.697
 9288W        W74273   9.912  19.508   1.392
 9289W        W74274  13.403  42.894   0.997
 9290W        W74275  28.454  41.055  11.485
 9291W        W74276   9.391  26.827  11.149
 9292W        W74277  39.046   8.937  14.560
 9293W        W74278  24.232  36.378   0.180
 9294W        W74279  15.217  20.015   4.299
 9295W        W74280  30.701  12.251  12.686
 9296W        W74281  21.564  43.538  10.188
 9297W        W74282   1.481   0.777  14.772
 9298W        W74283  17.853  12.146  14.898
 9299W        W74284   0.790  19.790   1.279
 9300W        W74285  44.894  31.483   4.266
 9301W        W74286  17.526  42.404   3.468
 9302W        W74287  12.291   0.637  11.301
 9303W        W74288  28.018   3.873  11.133
 9304W        W74289  10.622   2.431  11.651
 9305W        W74290  43.821  24.683   3.597
 9306W        W74291  11.367  17.119  14.358
 9307W        W74292  41.602  44.029  10.468
 9308W        W74293   2.732  41.268  13.490
 9309W        W74294  24.095  10.442  13.793
 9310W        W74295  26.011   4.853  14.998
 9311W        W74296  43.929  20.254  11.412
 9312W        W74297  25.386  16.690  13.848
 9313W        W74298  42.083  31.355   0.330
 9314W        W74299   5.354  34.261  14.225
 9315W        W74300   5.332  15.263  13.568
 9316W        W74301   2.535   5.277   0.334
 9317W        W74302   4.614  12.815  10.288
 9318W        W74303  30.817  19.156  11.196
 9319W        W74304  35.499  10.279  14.530
 9320W        W74305  34.314   5.344   4.174
 9321W        W74306  26.085  14.186  10.681
 9322W        W74307  21.292  35.847   2.348
 9323W        W74308  22.278  17.600  12.205
 9324W        W74309  33.971  34.424  11.610
 9325W        W74310   5.129  10.787  12.067
 9326W        W74311  26.296  21.592  11.994
 9327W        W74312   3.685   9.995  14.863
 9328W        W74313  17.248   9.284  12.840
 9329W        W74314  39.016  24.089   0.265
 9330W        W74315  43.818  30.305   1.752
 9331W        W74316   8.205  29.704  12.406
 9332W        W74317  36.474  13.876  14.398
 9333W        W74318  33.544   3.952   1.930
 9334W        W74319  33.833  10.585   0.931
 9335W        W74320  15.124  18.679   4.297
 9336W        W74321  40.176  23.065  13.820
 9337W        W74322  36.695  11.850  10.560
 9338W        W74323   4.830  28.564  10.370
 9339W        W74324  27.633  20.626   3.237
 9340W        W74325  40.903  27.552   9.867
 9341W        W74326   7.090  43.849  11.979
 9342W        W74327  27.089  38.899  11.196
 9343W        W74328   3.211  37.557  14.063
 9344W        W74329  35.002  19.725  13.996
 9345W        W74330  43.940  34.274  12.380
 9346W        W74331  33.603   4.697   3.236
 9347W        W74332   4.840  14.818   3.871
 9348W        W74333   5.391  31.521  12.271
 9349W        W74334  40.271   4.768   5.307
 9350W        W74335  17.585   8.652  13.809
 9351W        W74336  23.643  18.392  10.096
 9352W        W74337  26.716  44.615  14.696
 9353W        W74338  13.780   5.209   2.390
 9354W        W74339  25.926  23.822  12.146
 9355W        W74340  22.546  20.753  13.526
 9356W        W74341   6.410  37.510  11.904
 9357W        W74342   6.311  12.439   0.805
 9358W        W74343   9.657  42.961   3.296
 9359W        W74344  38.920   6.220   2.375
 9360W        W74345   0.531  19.802  11.944
 9361W        W74346  24.124  18.546   1.193
 9362W        W74347  15.111  35.128   1.873
 9363W        W74348  19.001  30.431  14.326
 9364W        W74349  40.352  10.037   3.139
 9365W        W74350  40.704   5.764  13.419
 9366W        W74351  32.810  18.474   2.981
 9367W        W74352  17.676  26.672   2.249
 9368W        W74353  31.033  13.836  11.832
 9369W        W74354  44.272  24.880  12.376
 9370W        W74355  35.080  36.332   2.705
 9371W        W74356  24.633  21.256   1.389
 9372W        W74357  25.583   1.021   2.328
 9373W        W74358  33.530  31.969   3.259
 9374W        W74359  17.999  12.484   2.333
 9375W        W74360  39.397   4.863  11.519
 9376W        W74361  10.945  24.103  13.846
 9377W        W74362   8.925  42.115  13.352
 9378W        W74363  35.840  29.482  11.041
 9379W        W74364  31.651  34.986   2.611
 9380W        W74365  13.056  16.799  13.437
 9381W        W74366   6.165  38.122  14.905
 9382W        W74367  43.321   1.208   2.301
 9383W        W74368  41.485   0.748   1.158
 9384W        W74369  40.852  34.105   2.383
 9385W        W74370  35.977  19.067   1.441
 9386W        W74371   6.764   3.016  14.851
 9387W        W74372  34.623   1.253  10.718
 9388W        W74373  25.393  39.499   0.207
 9389W        W74374  25.594  44.782   0.378
 9390W        W74375  28.940  11.952   2.429
 9391W        W74376  29.080  10.213   3.713
 9392W        W74377  25.645  32.725  13.027
 9393W        W74378  21.037  21.672   1.687
 9394W        W74379  14.357  14.067  14.024
 9395W        W74380  20.859  14.587   2.604
 9396W        W74381   2.357   0.197  12.412
 9397W        W74382   7.612  36.734  13.876
 9398W        W74383  43.222   1.015   0.829
 9399W        W74384  31.137   0.901  12.505
 9400W        W74385   5.001   1.099  14.788
 9401W        W74386  41.033   4.752   1.376
 9402W        W74387  44.813  23.529  12.099
 9403W        W74388  16.032   5.901   2.323
 9404W        W74389  21.324   7.166   4.300
 9405W        W74390  28.650   7.379   4.871
 9406W        W74391  23.561   0.387  14.558
 9407W        W74392  36.052   7.734   4.579
 9408W        W74393  28.690  23.077   4.645
 9409W        W74394  38.971  40.970   3.776
 9410W        W74395  14.009  30.574  11.363
 9411W        W74396  16.928  38.111   0.539
 9412W        W74397  31.961  26.211   1.448
 9413W        W74398  23.082  20.477   0.942
 9414W        W74399  37.240   0.060   2.953
 9415W        W74400  25.133  19.618  13.115
 9416W        W74401  40.618  23.061   2.878
 9417W        W74402  28.301   4.885   0.834
 9418W        W74403  24.710  38.407  11.625
 9419W        W74404  30.914  34.239  12.009
 9420W        W74405  20.138  11.384  12.479
 9421W        W74406   0.308  41.968  10.695
 9422W        W74407  12.737   0.023   0.739
 9423W        W74408  26.783  39.013  12.522
 9424W        W74409   7.384  28.580  10.653
 9425W        W74410  16.813  22.259  10.433
 9426W        W74411  39.364  24.388  14.053
 9427W        W74412  14.706  34.413   1.806
 9428W        W74413  14.805  40.877   2.285
 9429W        W74414   3.450   3.050  10.666
 9430W        W74415   4.635   9.058   3.705
 9431W        W74416  16.603  16.193   4.447
 9432W        W74417  22.571  17.524  11.148
 9433W        W74418  42.902  41.024  11.540
 9434W        W74419  26.941  12.100   0.291
 9435W        W74420  22.006  39.910   2.135
 9436W        W74421  44.720  31.859  14.462
 9437W        W74422  37.688  21.233  11.041
 9438W        W74423  26.576  20.561  14.834
 9439W        W74424   8.159  19.944  11.139
 9440W        W74425  44.007  21.787  11.431
 9441W        W74426  12.449  14.579   1.425
 9442W        W74427  28.625  44.359   2.293
 9443W        W74428  27.470  27.628  12.373
 9444W        W74429  25.612  29.639  14.837
 9445W        W74430  24.020  34.440  11.192
 9446W        W74431  40.393  33.228  10.059
 9447W        W74432  40.811  26.843   4.499
 9448W        W74433  20.179  36.564   3.390
 9449W        W74434   8.487  34.544   1.774
 9450W        W74435  38.978   6.718   2.287
 9451W        W74436  44.509   7.637   1.735
 9452W        W74437  35.129  41.400  14.256
 9453W        W74438  21.055  15.232  12.390
 9454W        W74439  15.099  35.497   4.742
 9455W        W74440  41.960   2.815   0.950
 9456W        W74441   1.179  34.885  14.289
 9457W        W74442  10.429  15.775   3.706
 9458W        W74443  30.946  37.811  12.434
 9459W        W74444  29.646  27.128   1.412
 9460W        W74445  26.193   3.469   4.512
 9461W        W74446  43.308  40.305  14.456
 9462W        W74447   2.721  27.754  11.166
 9463W        W74448   2.843  14.197  13.343
 9464W        W74449  15.366  12.838  13.939
 9465W        W74450   6.539  40.272   3.820
 9466W        W74451  32.469  22.565  13.875
 9467W        W74452   1.455  24.263  14.931
 9468W        W74453  14.460  32.661   0.625
 9469W        W74454   8.712  38.932   1.067
 9470W        W74455  25.305  44.892   0.951
 9471W        W74456  34.937  23.801   4.490
 9472W        W74457  28.104   2.289  13.866
 9473W        W74458  32.662  12.058   5.247
 9474W        W74459  22.915  35.065   4.678
 9475W        W74460  39.306  21.608  10.462
 9476W        W74461  36.763  44.034  12.721
 9477W        W74462  39.897  38.907  13.016
 9478W        W74463   4.494  19.867   3.106
 9479W        W74464   9.229  21.563   3.092
 9480W        W74465  35.330  12.413   0.259
 9481W        W74466  23.041  18.261   2.378
 9482W        W74467  14.156  16.296  12.233
 9483W        W74468  37.281   8.795  12.593
 9484W        W74469  13.622   5.608  11.546
 9485W        W74470   4.454  30.320   2.265
 9486W        W74471   4.526  14.944  12.471
 9487W        W74472  21.344  21.690  12.059
 9488W        W74473  40.470  14.699  10.731
 9489W        W74474  13.148  14.994   2.880
 9490W        W74475   1.547   2.534   4.714
 9491W        W74476   1.253   3.159   4.011
 9492W        W74477  13.321   3.276   1.802
 9493W        W74478  10.745  23.740  10.800
 9494W        W74479  27.119   8.423   4.116
 9495W        W74480  39.621  40.240  10.742
 9496W        W74481  43.779  24.055   1.375
 9497W        W74482   0.490  32.311   3.296
 9498W        W74483  22.118   3.943   3.178
 9499W        W74484  29.741  21.149  11.494
 9500W        W74485  25.067  33.667  14.848
 9501W        W74486  34.784  40.006   2.208
 9502W        W74487   0.728  25.072  12.833
 9503W        W74488  20.457  14.329   0.250
 9504W        W74489   7.230  37.963  14.234
 9505W        W74490  19.752  29.466  13.916
 9506W        W74491  13.873  15.077  11.394
 9507W        W74492  17.101  43.443   2.648
 9508W        W74493  12.147  27.385  13.422
 9509W        W74494  34.834   4.636  14.031
 9510W        W74495  35.503  36.638   3.433
 9511W        W74496  15.171   4.366   2.351
 9512W        W74497  31.790  23.807  13.141
 9513W        W74498   2.018  42.074  14.496
 9514W        W74499  25.457  12.272   4.268
 9515W        W74500   5.160   9.535  13.971
 9516W        W74501  27.633  19.290  14.403
 9517W        W74502  12.658  12.681  13.334
 9518W        W74503  22.551   6.718   2.661
 9519W        W74504   1.545  31.443   4.087
 9520W        W74505  40.320  16.788   0.871
 9521W        W74506   2.217  22.097  12.024
 9522W        W74507  43.583  35.943  12.631
 9523W        W74508  26.366  11.531   1.839
 9524W        W74509  24.760  25.762   1.285
 9525W        W74510  15.707   5.945  14.881
 9526W        W74511   6.669   6.948   1.431
 9527W        W74512  26.900   9.614  13.100
 9528W        W74513  36.810  14.296  12.798
 9529W        W74514   6.829  14.665  14.504
 9530W        W74515  35.480  34.451   4.272
 9531W        W74516   6.239  21.229  13.925
 9532W        W74517   1.826   5.371   4.535
 9533W        W74518  10.578  10.311   2.134
 9534W        W74519  30.834  12.947   1.000
 9535W        W74520  16.585  15.294   0.015
 9536W        W74521  43.701  40.808   3.164
 9537W        W74522  36.862  10.453   1.363
 9538W        W74523  21.483  20.075   5.511
 9539W        W74524  17.934  18.811   9.741
 9540W        W74525  20.317  44.448  11.009
 9541W        W74526  26.939  16.213  10.719
 9542W        W74527  41.387  25.033  13.344
 9543W        W74528   4.716  41.316  11.748
 9544W        W74529  24.576  20.360  10.589
 9545W        W74530  24.159  38.563  13.780
 9546W        W74531  37.541  39.815  12.527
 9547W        W74532   4.394  24.279  14.362
 9548W        W74533   1.231   5.255   3.606
 9549W        W74534   7.161  29.065   4.912
 9550W        W74535  43.456  29.613  10.575
 9551W        W74536  16.170   7.428   0.706
 9552W        W74537  33.432  21.178  13.217
 9553W        W74538  43.624  32.573  11.528
 9554W        W74539  12.865  39.882   2.124
 9555W        W74540  24.944   6.711  11.202
 9556W        W74541  43.460  23.673   0.282
 9557W        W74542   6.905  29.592  14.179
 9558W        W74543  43.889  12.385   3.241
 9559W        W74544  32.651  15.305   1.347
 9560W        W74545  15.319   1.434   0.074
 9561W        W74546  19.731  32.832   2.146
 9562W        W74547  43.830  10.342   3.912
 9563W        W74548  22.671   4.832   2.940
 9564W        W74549  17.160  23.194  10.811
 9565W        W74550  12.848  39.305   1.450
 9566W        W74551  16.281  24.134   4.313
 9567W        W74552  27.086   0.998   0.899
 9568W        W74553  24.780  41.035   0.411
 9569W        W74554  28.681  36.030  10.594
 9570W        W74555  40.924  18.359   3.189
 9571W        W74556  11.566  22.798   1.404
 9572W        W74557   6.036  15.087   0.787
 9573W        W74558  14.072  44.922  12.161
 9574W        W74559  30.427   0.514   4.148
 9575W        W74560   5.358  22.330  10.282
 9576W        W74561  13.606   2.536  14.984
 9577W        W74562   7.957  11.642   2.822
 9578W        W74563  21.620  40.431   3.605
 9579W        W74564   3.974  38.448   4.489
 9580W        W74565  13.180  21.354   2.235
 9581W        W74566  22.515  43.704  11.998
 9582W        W74567  27.149   1.731  13.920
 9583W        W74568  39.783   7.851  14.186
 9584W        W74569  13.230  28.247  14.492
 9585W        W74570  16.157  28.760  11.957
 9586W        W74571  13.932  20.959  11.603
 9587W        W74572  19.329   0.262   3.606
 9588W        W74573  36.900  30.531  14.142
 9589W        W74574  19.054   4.745   4.256
 9590W        W74575  14.657  33.683   0.862
 9591W        W74576  39.988  24.252  14.729
 9592W        W74577  18.044  15.605   1.830
 9593W        W74578   1.331  16.978  11.603
 9594W        W74579  40.802   3.741   3.309
 9595W        W74580  36.199  29.687   1.393
 9596W        W74581  37.977  24.050   2.510
 9597W        W74582   3.240  34.689   1.186
 9598W        W74583  13.717  13.821   1.491
 9599W        W74584  25.491  10.366  11.969
 9600W        W74585   1.423  31.979   4.152
 9601W        W74586  44.896  40.445  13.974
 9602W        W74587  36.311   3.358  10.910
 9603W        W74588  30.494  16.272  14.601
 9604W        W74589   9.677  18.037   1.395
 9605W        W74590  43.384  25.117   2.676
 9606W        W74591  43.428  29.861   4.704
 9607W        W74592  39.040  31.503  13.437
 9608W        W74593  36.491  10.624   0.370
 9609W        W74594  37.833  43.286  10.706
 9610W        W74595  14.151  38.829  13.240
 9611W        W74596  16.578  42.653  14.109
 9612W        W74597  31.432   9.360   1.235
 9613W        W74598  14.606  23.333   1.198
 9614W        W74599   4.131  15.643   4.850
 9615W        W74600  34.370  30.693  10.765
 9616W        W74601   9.352  21.014  13.321
 9617W        W74602  23.218  30.447  10.678
 9618W        W74603  12.124   6.651  11.039
 9619W        W74604  26.498  16.827  11.008
 9620W        W74605  29.715  31.668  12.869
 9621W        W74606  40.846  36.543   3.131
 9622W        W74607  38.879  10.337  12.135
 9623W        W74608  34.146  14.282  11.840
 9624W        W74609  43.469  30.981  14.949
 9625W        W74610  36.468   8.763  14.431
 9626W        W74611  27.340  13.913  14.087
 9627W        W74612  15.640  42.383  13.970
 9628W        W74613  28.959  12.481   0.130
 9629W        W74614  44.739  18.413  13.955
 9630W        W74615  12.874   7.268  12.918
 9631W        W74616  29.445  29.359   2.678
 9632W        W74617  28.248  33.606  13.486
 9633W        W74618  44.616   0.069   1.738
 9634W        W74619  16.300   9.310   2.346
 9635W        W74620  17.062  19.956  13.744
 9636W        W74621  21.981  35.016   4.723
 9637W        W74622   0.941  22.704   1.475
 9638W        W74623  34.558  22.721   0.810
 9639W        W74624  33.179  10.666  14.668
 9640W        W74625  31.141  41.616  14.945
 9641W        W74626  37.928  11.388   3.794
 9642W        W74627  21.766  38.998  10.724
 9643W        W74628  24.108  42.526   4.976
 9644W        W74629  39.584  41.985  13.677
 9645W        W74630  21.756  21.170   3.939
 9646W        W74631  13.627  12.611  12.040
 9647W        W74632  42.441  30.900   4.595
 9648W        W74633  24.617  12.722   4.701
 9649W        W74634  12.180  42.481  11.664
 9650W        W74635  32.179  20.517   0.325
 9651W        W74636  21.367  18.561  11.739
 9652W        W74637   1.873  39.823  13.982
 9653W        W74638  13.820  44.873  14.007
 9654W        W74639  28.851   0.784  13.953
 9655W        W74640  40.093  16.190  11.174
 9656W        W74641  22.431  42.971   2.285
 9657W        W74642   7.656   2.344  14.087
 9658W        W74643  37.724  41.058  11.127
 9659W        W74644  30.975  36.015   1.366
 9660W        W74645  35.864  30.177  14.712
 9661W        W74646  33.591  20.106   4.539
 9662W        W74647  35.076   2.982   1.257
 9663W        W74648  34.183  12.692  11.525
 9664W        W74649  32.647  38.743   3.883
 9665W        W74650  25.040  32.147   2.309
 9666W        W74651  30.202   9.649   0.993
 9667W        W74652  12.312  23.508   0.250
 9668W        W74653   1.923   6.686   4.481
 9669W        W74654   0.442  42.532  12.965
 9670W        W74655   8.698  11.302  14.867
 9671W        W74656  19.073  12.888   0.422
 9672W        W74657  22.038  25.514   2.876
 9673W        W74658  38.423  41.585  11.139
 9674W        W74659  44.316  34.147  13.048
 9675W        W74660  27.160  23.219  12.368
 9676W        W74661  17.055  40.876   3.746
 9677W        W74662  15.981  34.934  11.585
 9678W        W74663  43.369   3.004  11.799
 9679W        W74664  21.219   5.549  12.460
 9680W        W74665  42.382   0.353  13.207
 9681W        W74666  16.608  38.556   4.577
 9682W        W74667  20.459  25.237  11.611
 9683W        W74668  15.302  21.241  10.974
 9684W        W74669  42.320  11.931   2.222
 9685W        W74670   7.212  19.452   2.164
 9686W        W74671  16.476   7.848  10.747
 9687W        W74672  12.136  36.478   1.810
 9688W        W74673  29.672  10.683  13.582
 9689W        W74674  39.351   8.630  13.360
 9690W        W74675  39.487  23.024   9.370
 9691W        W74676  37.425  28.156   4.637
 9692W        W74677   3.084  15.423  10.463
 9693W        W74678   0.866  24.658   0.321
 9694W        W74679   6.351   6.497  14.083
 9695W        W74680   0.422  38.755  13.842
 9696W        W74681  17.420   4.527  11.390
 9697W        W74682  11.350   6.924  13.978
 9698W        W74683   7.910  18.770   2.441
 9699W        W74684  23.711  40.421  14.582
 9700W        W74685  19.126  39.467   2.167
 9701W        W74686   6.905  15.396   1.825
 9702W        W74687   5.595  24.134   5.010
 9703W        W74688   3.974  38.226   0.400
 9704W        W74689  41.875  44.723  14.943
 9705W        W74690   2.407  12.218   2.198
 9706W        W74691  34.037  33.111   1.767
 9707W        W74692  27.482  15.888   4.676
 9708W        W74693  23.348  20.600   1.359
 9709W        W74694  20.761  30.286   4.821
 9710W        W74695  19.199   7.162   4.766
 9711W        W74696  31.546   1.789   1.355
 9712W        W74697  44.946   2.030   3.897
 9713W        W74698  24.034  17.147   1.471
 9714W        W74699  37.177   0.950  11.085
 9715W        W74700   8.258   9.625   3.790
 9716W        W74701  33.004  21.153   2.224
 9717W        W74702  11.733  38.116  12.829
 9718W        W74703  40.752  20.779  11.540
 9719W        W74704  42.921  33.120   0.527
 9720W        W74705  28.440  14.061   0.567
 9721W        W74706  33.557  44.747   0.223
 9722W        W74707  42.836   0.395   4.381
 9723W        W74708  44.148  11.234   0.249
 9724W        W74709  10.316  12.270  13.550
 9725W        W74710  22.964   3.534   2.776
 9726W        W74711  25.088  26.882  12.094
 9727W        W74712  30.483  26.883  11.744
 9728W        W74713  41.574  35.618  10.199
 9729W        W74714  18.794  38.331  14.455
 9730W        W74715  14.607  31.039   2.207
 9731W        W74716  23.637  27.095   0.967
 9732W        W74717  21.481   6.461   2.315
 9733W        W74718  33.446   2.216   2.272
 9734W        W74719   2.528  14.772  14.387
 9735W        W74720  38.870   2.020   0.693
 9736W        W74721  32.727   2.727  10.612
 9737W        W74722   7.838  16.566   0.785
 9738W        W74723  34.275   9.458  12.471
 9739W        W74724  35.331  37.886   1.718
 9740W        W74725  38.956  16.147   2.969
 9741W        W74726  26.515  18.823  11.473
 9742W        W74727  23.568   7.291  11.629
 9743W        W74728   5.259  17.541  13.443
 9744W        W74729  36.884  19.664  11.882
 9745W        W74730  16.221   4.729  14.339
 9746W        W74731  19.142  40.570   0.257
 9747W        W74732  11.060  28.688   4.741
 9748W        W74733  14.281  41.892  14.500
 9749W        W74734   4.711  13.267  11.899
 9750W        W74735  32.141   8.237   2.696
 9751W        W74736  39.829   4.857  10.192
 9752W        W74737   5.267   5.489  13.048
 9753W        W74738  35.573  31.595   2.634
 9754W        W74739  41.942  19.086  12.439
 9755W        W74740  44.095  44.833   4.673
 9756W        W74741  18.846  14.371   2.781
 9757W        W74742  24.203  14.617  12.048
 9758W        W74743  42.962  29.418  14.385
 9759W        W74744  17.058  38.817   4.677
 9760W        W74745  28.834  30.141   5.495
 9761W        W74746  30.605  21.755  11.113
 9762W        W74747  18.671  25.047  12.967
 9763W        W74748   1.747  22.032   4.582
 9764W        W74749  41.683   8.052   4.786
 9765W        W74750  18.840  40.665   5.086
 9766W        W74751  26.432  11.857  12.139
 9767W        W74752  15.440  40.783  12.452
 9768W        W74753  37.273  12.634  14.354
 9769W        W74754  25.201  32.881  11.544
 9770W        W74755  24.363  44.656   0.648
 9771W        W74756  12.191  40.370   3.319
 9772W        W74757   6.688  28.091  13.224
 9773W        W74758  25.582  11.526  10.779
 9774W        W74759  27.750  10.293  13.368
 9775W        W74760  20.893  39.939  14.486
 9776W        W74761  24.637   0.421  13.093
 9777W        W74762  22.175  31.995   4.694
 9778W        W74763   5.230  26.080   1.797
 9779W        W74764  10.461  39.624   3.307
 9780W        W74765  32.426  16.854  11.999
 9781W        W74766  42.243  22.304   9.720
 9782W        W74767   6.132  42.013   3.510
 9783W        W74768  27.375   3.900   1.157
 9784W        W74769  24.409  12.271  13.417
 9785W        W74770  30.812  35.499  14.070
 9786W        W74771   9.173  44.387  11.548
 9787W        W74772  34.315  43.279  13.632
 9788W        W74773  20.359  28.181  14.039
 9789W        W74774  22.191  44.170   2.682
 9790W        W74775   4.917  12.394  12.316
 9791W        W74776  23.081  35.921   1.192
 9792W        W74777  33.433  44.324   0.479
 9793W        W74778   9.420  15.848   2.731
 9794W        W74779  44.280  19.735   1.179
 9795W        W74780  32.107  12.837   3.981
 9796W        W74781  43.230   8.119   3.237
 9797W        W74782  30.948  26.024   0.309
 9798W        W74783  17.010  19.240  14.395
 9799W        W74784  34.848  43.647  13.090
 9800W        W74785   4.050   3.173   2.242
 9801W        W74786  35.590  21.246   4.065
 9802W        W74787  29.100  27.040   1.707
 9803W        W74788  30.695  15.838   3.099
 9804W        W74789  28.991   7.885  14.464
 9805W        W74790  32.015   8.404   0.803
 9806W        W74791  25.021  27.646  11.157
 9807W        W74792  10.265  11.575   1.300
 9808W        W74793  43.575  29.191   4.045
 9809W        W74794  12.839   4.610   3.086
 9810W        W74795  25.980  43.227  11.138
 9811W        W74796   9.966  17.142  10.721
 9812W        W74797  40.120  13.587   4.476
 9813W        W74798  20.216  29.451   3.393
 9814W        W74799  31.414  19.740   1.176
 9815W        W74800   2.527  44.937   3.279
 9816W        W74801  38.674  26.415   4.082
 9817W        W74802  39.490  37.046  13.791
 9818W        W74803   1.329   5.351  12.848
 9819W        W74804  30.880   5.307   2.769
 9820W        W74805   8.914   9.695  10.562
 9821W        W74806  23.072   0.024   1.770
 9822W        W74807  22.428   7.996   1.742
 9823W        W74808  31.595   1.040   0.829
 9824W        W74809  32.286   1.387  14.350
 9825W        W74810  38.994  28.031   0.745
 9826W        W74811  37.441  22.274   0.455
 9827W        W74812  19.940  32.137  14.495
 9828W        W74813   0.161   0.428   2.283
 9829W        W74814  31.834  18.053   1.738
 9830W        W74815  32.035  31.897   0.395
 9831W        W74816  36.449  37.834   3.659
 9832W        W74817   7.695   2.786   1.622
 9833W        W74818  25.451   0.357   1.191
 9834W        W74819  38.549  12.628   3.054
 9835W        W74820  39.931  16.360  10.346
 9836W        W74821   1.359  22.613  12.797
 9837W        W74822   1.785  16.255  11.791
 9838W        W74823  23.267  17.987  14.959
 9839W        W74824  38.021  11.211  13.979
 9840W        W74825  12.712  29.340   0.835
 9841W        W74826  40.378  26.624  10.394
 9842W        W74827  25.212  36.499  12.524
 9843W        W74828  40.785  26.953   2.646
 9844W        W74829   3.808  14.282   0.763
 9845W        W74830  31.416  25.457  13.311
 9846W        W74831   6.370  32.367   1.836
 9847W        W74832   9.671  42.478  10.885
 9848W        W74833   5.181  39.586  11.638
 9849W        W74834  19.095   8.590  12.868
 9850W        W74835  14.058   9.745   2.306
 9851W        W74836  33.849   6.358   1.353
 9852W        W74837   1.417  21.617  11.908
 9853W        W74838  29.430  32.112  12.831
 9854W        W74839  39.486  36.765   4.132
 9855W        W74840  24.233   5.564   4.164
 9856W        W74841   1.730  21.137  10.470
 9857W        W74842  16.878   3.286  11.656
 9858W        W74843  24.475  11.862   1.886
 9859W        W74844  20.840   6.831  12.037
 9860W        W74845  16.236  28.102   4.000
 9861W        W74846  36.959  37.526  14.270
 9862W        W74847  44.404  16.023   4.083
 9863W        W74848  35.370  39.476   0.583
 9864W        W74849  35.516  22.969  14.280
 9865W        W74850  34.002  13.784  14.773
 9866W        W74851  39.376  34.881   1.337
 9867W        W74852  39.352   2.751  14.407
 9868W        W74853  16.609  41.236  10.735
 9869W        W74854  28.381  20.033   3.641
 9870W        W74855  43.394  21.190   2.600
 9871W        W74856  22.024  43.241   0.459
 9872W        W74857  17.594  25.995   1.047
 9873W        W74858  42.282  24.547   5.100
 9874W        W74859  41.875   3.747   3.826
 9875W        W74860  12.735  44.398   3.157
 9876W        W74861   7.856  35.560  14.449
 9877W        W74862  30.174  37.356  11.618
 9878W        W74863  11.292  18.053  14.461
 9879W        W74864  37.341  24.636  13.124
 9880W        W74865   6.334   9.776   2.666
 9881W        W74866  36.845  14.764  14.934
 9882W        W74867  24.239  15.685   1.288
 9883W        W74868  26.394  22.517  13.433
 9884W        W74869   9.241  24.165   2.349
 9885W        W74870  20.152  13.839   2.822
 9886W        W74871  20.758   0.494   1.326
 9887W        W74872  24.623  29.363  11.415
 9888W        W74873   6.642  14.343  11.154
 9889W        W74874  18.053  19.227   2.722
 9890W        W74875  36.801  27.623   0.581
 9891W        W74876  42.811   3.976   1.192
 9892W        W74877  42.526  38.993   1.569
 9893W        W74878   4.856   4.487  11.070
 9894W        W74879   9.554  20.545   2.045
 9895W        W74880  32.378  19.985  13.900
 9896W        W74881  19.597   6.731  14.952
 9897W        W74882  19.510  17.348  10.642
 9898W        W74883  20.081   9.440   2.395
 9899W        W74884  30.941  38.797   0.240
 9900W        W74885  35.687  21.814   1.330
 9901W        W74886  36.456  27.891   5.019
 9902W        W74887  37.172  40.770  12.651
 9903W        W74888  39.357   8.893  12.920
 9904W        W74889  27.183  38.101   2.385
 9905W        W74890  39.346  27.102   3.244
 9906W        W74891   0.878  41.393   0.011
 9907W        W74892  40.460  24.124  11.194
 9908W        W74893   6.456  19.233  14.892
 9909W        W74894  18.271  10.152  11.577
 9910W        W74895  27.078   5.014   2.849
 9911W        W74896  42.864  22.648   2.330
 9912W        W74897  34.131  30.114   4.622
 9913W        W74898  37.507  21.822   4.685
 9914W        W74899  13.043  29.611  13.993
 9915W        W74900  20.112  24.121  12.583
 9916W        W74901  43.802  43.990   9.880
 9917W        W74902  23.125  21.931  12.021
 9918W        W74903  10.842  28.534   0.669
 9919W        W74904  35.911   6.175   0.716
 9920W        W74905  21.989   6.750  12.012
 9921W        W74906  25.983  29.497   1.728
 9922W        W74907  38.377  19.088   4.148
 9923W        W74908   0.203  29.188   1.805
 9924W        W74909  42.121  36.063   0.487
 9925W        W74910  29.127   9.580  14.896
 9926W        W74911  29.177  21.068  11.267
 9927W        W74912  32.131  10.726  11.660
 9928W        W74913  22.197  11.152   0.422
 9929W        W74914  28.405   9.741  11.016
 9930W        W74915  17.730   1.470   0.332
 9931W        W74916  24.150  13.762  13.270
 9932W        W74917   2.967  28.938   2.486
 9933W        W74918  34.718  33.710   1.618
 9934W        W74919   9.344  37.916   4.739
 9935W        W74920  40.829   1.876  13.461
 9936W        W74921  20.155  43.955   3.874
 9937W        W74922   2.571  33.362   2.202
 9938W        W74923  38.037   6.527  14.125
 9939W        W74924  10.997  18.311  12.427
 9940W        W74925  10.333  29.914   1.732
 9941W        W74926  14.574   7.810  11.682
 9942W        W74927  42.931  31.396  11.549
 9943W        W74928  35.951   8.883  14.284
 9944W        W74929  22.766  25.522  11.103
 9945W        W74930  11.826  11.506   0.835
 9946W        W74931  31.842  18.791   4.170
 9947W        W74932  43.910  21.115  10.426
 9948W        W74933  22.557  10.444  14.799
 9949W        W74934  32.787  34.458   1.760
 9950W        W74935  19.856  36.325  11.518
 9951W        W74936  36.169  19.097  13.970
 9952W        W74937   6.417  36.577   4.602
 9953W        W74938   6.392   7.380  14.809
 9954W        W74939  29.478  41.865   0.610
 9955W        W74940   7.683   0.861   1.770
 9956W        W74941  17.631  30.037   1.833
 9957W        W74942  23.178  27.031   0.704
 9958W        W74943  16.935  15.012  14.048
 9959W        W74944  29.092  16.035  11.530
 9960W        W74945  29.528  11.341  14.844
 9961W        W74946  23.004  37.066  11.193
 9962W        W74947  10.214  39.889  11.457
 9963W        W74948  20.041  21.989  12.449
 9964W        W74949  10.013  14.300  14.569
 9965W        W74950  40.466  19.259  14.926
 9966W        W74951  44.482  17.584  12.487
 9967W        W74952  13.087  11.146  11.484
 9968W        W74953  38.335  27.934  11.722
 9969W        W74954  10.109  16.368   4.700
 9970W        W74955  15.795  35.167  14.853
 9971W        W74956  23.595  44.935   4.517
 9972W        W74957  27.124  37.419  13.076
 9973W        W74958  29.674  26.515   4.120
 9974W        W74959  11.676   7.619  10.918
 9975W        W74960  33.373  38.124  12.471
 9976W        W74961  37.583  20.233   4.146
 9977W        W74962  43.030   9.429   3.437
 9978W        W74963  29.122  18.032   4.818
 9979W        W74964   6.249  35.554   3.093
 9980W        W74965  23.088  16.568   4.216
 9981W        W74966  19.023  12.280   4.395
 9982W        W74967   8.332  14.299   3.423
 9983W        W74968   9.691  29.555   1.787
 9984W        W74969  20.799  36.181  10.607
 9985W        W74970   4.190  13.262   3.810
 9986W        W74971  13.305   0.654  14.067
 9987W        W74972  42.888  21.599  13.869
 9988W        W74973  21.607  24.653   3.894
 9989W        W74974  21.146  10.412   0.888
 9990W        W74975  40.385  42.946   4.087
 9991W        W74976   3.339  33.834   4.311
 9992W        W74977  13.293  38.228  13.052
 9993W        W74978   7.767   2.533  10.871
 9994W        W74979   1.721  42.548   2.768
 9995W        W74980  29.197  22.316  12.455
 9996W        W74981  26.647  43.672   4.385
 9997W        W74982  25.009   0.953   2.011
 9998W        W74983  39.306  41.793  10.619
 9999W        W74984  31.574   7.551  10.788
10000W        W74985   5.258  22.273  10.767
10001W        W74986  31.720  30.524   3.598
10002W        W74987   8.402  28.179  14.868
10003W        W74988  39.430  40.974  12.476
10004W        W74989  37.820  44.438  13.800
10005W        W74990  40.744  24.415  13.883
10006W        W74991   9.532   2.807   1.813
10007W        W74992  21.281  12.073   1.930
10008W        W74993   0.679  12.799   0.906
10009W        W74994  17.245  37.313   5.006
10010W        W74995  23.755  18.949   5.112
10011W        W74996   8.473  13.432  11.171
10012W        W74997  38.409  26.458  13.734
10013W        W74998  35.384  37.403   4.472
10014W        W74999  35.051  42.503  12.997
10015W        W75000  13.268  15.305   2.454
10016W        W75001  10.784   6.697  14.555
10017W        W75002  15.731  23.685  13.967
10018W        W75003   3.015  17.409   0.030
10019W        W75004  21.039   9.673  12.963
10020W        W75005   6.739   3.131   3.682
10021W        W75006   6.352  28.104  14.203
10022W        W75007  19.746  17.698   9.821
10023W        W75008  31.700   2.167  10.597
10024W        W75009   9.319  30.089   3.801
10025W        W75010   5.990  43.389   3.394
10026W        W75011  37.031  34.627   0.652
10027W        W75012  41.780   7.994  11.910
10028W        W75013  36.571   4.264   3.322
10029W        W75014  18.994  31.403   3.701
10030W        W75015  15.276  16.411  11.163
10031W        W75016  30.249   5.462   2.195
10032W        W75017  20.548   8.818  11.893
10033W        W75018  20.773   6.497  11.606
10034W        W75019  38.380  12.355  12.487
10035W        W75020  34.536   3.185  14.840
10036W        W75021  12.999   1.907  13.086
10037W        W75022  43.951   8.082  12.982
10038W        W75023  23.184  36.434  11.496
10039W        W75024  21.537  32.896  11.845
10040W        W75025  16.315  15.691   2.749
10041W        W75026  12.239  15.170   4.107
10042W        W75027   3.728  13.370   0.042
10043W        W75028  13.329  39.638  14.338
10044W        W75029   8.253  40.862   2.789
10045W        W75030  27.088  15.604   1.704
10046W        W75031   3.251   5.032  14.790
10047W        W75032  15.225  35.218  11.598
10048W        W75033  40.857  34.309  13.011
10049W        W75034   2.348  15.682  11.175
10050W        W75035  15.962  18.155  10.832
10051W        W75036  34.886   5.116   5.058
10052W        W75037  17.542  38.681  11.423
10053W        W75038  10.502  29.715   4.952
10054W        W75039  18.347  14.180   1.823
10055W        W75040  38.456  31.177   3.842
10056W        W75041   7.978  23.583  14.547
10057W        W75042  43.411  30.200   4.204
10058W        W75043  40.384   9.711  14.191
10059W        W75044  23.295  22.904   4.717
10060W        W75045  11.591  22.646   4.071
10061W        W75046  25.387  44.500  10.714
10062W        W75047   7.787  13.662   1.986
10063W        W75048  38.627  25.067   3.743
10064W        W75049  21.959  16.559  11.177
10065W        W75050  16.587  34.088  14.452
10066W        W75051  43.001  18.280   3.242
10067W        W75052   7.808   9.909  14.432
10068W        W75053   1.895  27.644  11.556
10069W        W75054  26.554  26.124  12.998
10070W        W75055  16.467  28.749   2.790
10071W        W75056  15.136  10.108  10.297
10072W        W75057   4.500   5.687  13.994
10073W        W75058   1.446  13.302  14.351
10074W        W75059  29.608  27.555  14.638
10075W        W75060   2.379  25.399   1.931
10076W        W75061  41.005  42.045  11.005
10077W        W75062  27.262  34.522   5.491
10078W        W75063  13.858  26.818   2.698
10079W        W75064  23.115  20.115  14.779
10080W        W75065  25.056  16.126  10.709
10081W        W75066  11.776  35.470   2.281
10082W        W75067  42.581  42.921   4.431
10083W        W75068  41.609  15.276   2.866
10084W        W75069  21.288  41.014   1.874
10085W        W75070   8.843   0.798  13.833
10086W        W75071  16.001   4.241   1.823
10087W        W75072  38.374  39.911  12.141
10088W        W75073  44.554  41.460  13.798
10089W        W75074  31.137  37.101   4.130
10090W        W75075   3.825  19.126  10.748
10091W        W75076  12.900  10.215   0.514
10092W        W75077  26.700  39.105  13.960
10093W        W75078  28.592   7.382  13.800
10094W        W75079  24.140  42.503   0.865
10095W        W75080  38.431  11.722   4.904
10096W        W75081  19.812  20.245   0.763
10097W        W75082  19.186  28.065   2.533
10098W        W75083   9.853  38.946  12.455
10099W        W75084  42.501   8.108   0.788
10100W        W75085  44.813  39.274  13.548
10101W        W75086  32.720  28.584  14.918
10102W        W75087   4.713   4.365  12.602
10103W        W75088  35.634  43.456  12.131
10104W        W75089  35.381  27.262  13.400
10105W        W75090  37.370  37.569  13.493
10106W        W75091  23.036  39.537   3.901
10107W        W75092  41.087  39.360  12.983
10108W        W75093  40.277  40.611   1.790
10109W        W75094   6.383   6.428   1.998
10110W        W75095  32.599  19.366   1.603
10111W        W75096  10.541  12.840   4.458
10112W        W75097  38.315  16.258  14.999
10113W        W75098  32.620  32.028   1.740
10114W        W75099  31.948   9.426   0.905
10115W        W75100  39.614  36.451   3.745
10116W        W75101  44.499  38.437  13.483
10117W        W75102  31.874   7.401   3.997
10118W        W75103   3.203  11.614  13.916
10119W        W75104  21.878   3.770  13.618
10120W        W75105  41.032   0.991  12.995
10121W        W75106  14.002   4.003   0.379
10122W        W75107  20.052  14.650  10.629
10123W        W75108   6.886  39.868   3.137
10124W        W75109   0.670  30.419  11.715
10125W        W75110  40.488   1.281  13.581
10126W        W75111  22.723  25.266   2.416
10127W        W75112  40.167  17.076   3.089
10128W        W75113  28.217   1.800  14.702
10129W        W75114  21.964  42.538  13.214
10130W        W75115   0.896  42.369   0.069
10131W        W75116  28.138   8.000   0.886
10132W        W75117  41.558  19.429   2.785
10133W        W75118  40.365  32.589   4.090
10134W        W75119  23.938  29.981   5.004
10135W        W75120  14.077  16.263   2.884
10136W        W75121  43.447  14.052   4.984
10137W        W75122  16.571  11.288   3.755
10138W        W75123  11.151  17.085   1.018
10139W        W75124  30.700  20.927   2.706
10140W        W75125  23.567  43.038   0.451
10141W        W75126  13.142  35.538  11.235
10142W        W75127  17.650  36.832   0.246
10143W        W75128  44.898  35.736   4.227
10144W        W75129  23.130  39.037   0.621
10145W        W75130  29.941  27.148  10.658
10146W        W75131  30.150  28.902  11.241
10147W        W75132  33.503  23.596   5.080
10148W        W75133   8.769  32.206  13.233
10149W        W75134  19.206  12.744   4.361
10150W        W75135   3.952  44.560  11.275
10151W        W75136  24.788  39.030   3.750
10152W        W75137  23.710  33.373  13.035
10153W        W75138   7.794  18.059   5.016
10154W        W75139  13.222   4.442  14.108
10155W        W75140  21.718  31.545  11.444
10156W        W75141  33.748  41.070   0.739
10157W        W75142  19.737  27.213   1.278
10158W        W75143  11.727  25.564  13.865
10159W        W75144  42.765  19.442  10.227
10160W        W75145  33.576  36.806  13.775
10161W        W75146  24.655  11.253  13.878
10162W        W75147  44.496  33.140   4.716
10163W        W75148  37.076  44.721   1.170
10164W        W75149  12.916  40.883   1.315
10165W        W75150   7.910  28.991   1.282
10166W        W75151  28.308   3.491   3.136
10167W        W75152  22.726  40.996   2.177
10168W        W75153  14.778  44.354  12.070
10169W        W75154   9.218  44.142   1.965
10170W        W75155  28.618  35.536  14.226
10171W        W75156  14.229   6.697   1.414
10172W        W75157  13.265   8.939   3.837
10173W        W75158  35.626  21.483   1.862
10174W        W75159  11.318   1.793   0.308
10175W        W75160   8.780  44.726  12.440
10176W        W75161   0.110  24.781  11.919
10177W        W75162   2.798   7.168  10.956
10178W        W75163   8.737   0.758  10.673
10179W        W75164  40.439   0.377   1.746
10180W        W75165   7.562  40.539   3.617
10181W        W75166   8.786  32.183   0.494
10182W        W75167  38.588   4.913  10.014
10183W        W75168  41.968  13.218  11.974
10184W        W75169  28.950  38.330   3.985
10185W        W75170  16.383  33.882  11.151
10186W        W75171  35.090  34.085   1.707
10187W        W75172  28.121  23.888  10.623
10188W        W75173   8.242  29.063  11.480
10189W        W75174  13.859   4.634   3.132
10190W        W75175  29.655  42.337  12.923
10191W        W75176  24.403   8.821   3.087
10192W        W75177   1.586  34.511  12.089
10193W        W75178  26.637   4.216  10.298
10194W        W75179   3.965  21.483  13.334
10195W        W75180  31.184   8.849   5.475
10196W        W75181  26.680   6.386  11.872
10197W        W75182  25.502  39.903  11.159
10198W        W75183  11.809  13.263   1.345
10199W        W75184  33.433  13.935   3.863
10200W        W75185  31.581  29.884   2.796
10201W        W75186  13.110  13.191   4.155
10202W        W75187   7.760   3.329   3.495
10203W        W75188  39.210  36.061  11.466
10204W        W75189  10.735  20.100   3.665
10205W        W75190  20.352  25.319  12.253
10206W        W75191   9.863  16.897  14.867
10207W        W75192  28.242  30.546   3.797
10208W        W75193  14.577   0.054   4.063
10209W        W75194  14.139  33.544  12.950
10210W        W75195  19.505  39.528   1.778
10211W        W75196  35.024  43.278   4.722
10212W        W75197  32.881  25.863  12.603
10213W        W75198  27.738  42.393   4.927
10214W        W75199  10.586  30.896   1.847
10215W        W75200  12.214  16.835  14.877
10216W        W75201  21.688  40.767   1.683
10217W        W75202   8.849  34.374   0.169
10218W        W75203  13.200   3.786   4.476
10219W        W75204  35.748  33.938  13.970
10220W        W75205  12.587   9.294   0.804
10221W        W75206  26.907  35.777   3.788
10222W        W75207  35.802  33.597   2.341
10223W        W75208  12.851  20.728   0.007
10224W        W75209  27.032  38.758   0.284
10225W        W75210  35.344   9.211  11.656
10226W        W75211   0.079  31.740   1.822
10227W        W75212  13.531  34.196   0.356
10228W        W75213  15.717  18.819  12.615
10229W        W75214  37.902  29.499  14.402
10230W        W75215  24.474   2.485   1.049
10231W        W75216  29.964  38.759  14.748
10232W        W75217  22.713  34.558   1.730
10233W        W75218  34.680  23.046   2.242
10234W        W75219  16.579  19.090  13.027
10235W        W75220  19.337  42.410   4.037
10236W        W75221  28.427  15.312   2.922
10237W        W75222  30.046   2.481   5.537
10238W        W75223  40.457  27.667  10.668
10239W        W75224   3.408  20.036  14.041
10240W        W75225  19.223  38.952   2.187
10241W        W75226  24.184  26.490   1.516
10242W        W75227   0.043   2.885   0.910
10243W        W75228   1.922  10.985   4.760
10244W        W75229  12.563   4.764  10.645
10245W        W75230  27.015  21.297   2.178
10246W        W75231  19.209   2.701  12.028
10247W        W75232  24.914  30.182   2.229
10248W        W75233  22.132  44.243  12.567
10249W        W75234   4.460  22.605   1.378
10250W        W75235  33.001  32.224   3.172
10251W        W75236  14.263  35.317  12.115
10252W        W75237  15.982  37.553   5.034
10253W        W75238  18.769  31.647  11.673
10254W        W75239   8.848  15.307  14.223
10255W        W75240  25.669  19.561  13.277
10256W        W75241  43.810  20.547   1.259
10257W        W75242  17.596  18.989   3.130
10258W        W75243  14.659   3.099   2.376
10259W        W75244  23.709  10.623  11.549
10260W        W75245  37.828   7.050   1.655
10261W        W75246  41.629  18.471   2.387
10262W        W75247  41.889  23.489   1.734
10263W        W75248  42.022   7.669  10.742
10264W        W75249  42.767   0.577  14.357
10265W        W75250  39.254  21.534   3.301
10266W        W75251   7.898  21.364   2.321
10267W        W75252  40.468   9.756   0.735
10268W        W75253   0.869  42.293  12.093
10269W        W75254   0.583  22.900  13.831
10270W        W75255  26.424  43.729  14.718
10271W        W75256  22.097  44.282   0.325
10272W        W75257   9.676  43.788  11.131
10273W        W75258  32.442  37.986   1.800
10274W        W75259  23.101  26.049  14.005
10275W        W75260  10.017  33.676   2.359
10276W        W75261  15.718  31.617   1.450
10277W        W75262  29.977  33.890  10.530
10278W        W75263  25.076  20.068   4.689
10279W        W75264   2.434  23.924  14.377
10280W        W75265  29.400  28.595   3.731
10281W        W75266  31.847  25.992   2.904
10282W        W75267  31.665  28.963   2.875
10283W        W75268  35.844  17.698  12.138
10284W        W75269  43.344  44.001  14.930
10285W        W75270  16.656  18.148  13.067
10286W        W75271  15.616  21.629  12.835
10287W        W75272  30.567  15.450  13.001
10288W        W75273   4.856  42.278  13.915
10289W        W75274  44.192  30.669   1.652
10290W        W75275   1.465   9.461   4.096
10291W        W75276  41.349  24.126  14.337
10292W        W75277  37.589   2.404   0.331
10293W        W75278  16.082  26.661  10.271
10294W        W75279  17.844   0.918  13.075
10295W        W75280   5.428  23.755   4.671
10296W        W75281  31.840  40.880  13.464
10297W        W75282  24.468  44.786  14.841
10298W        W75283   2.246  29.473  14.344
10299W        W75284   6.317  27.977   4.659
10300W        W75285  11.385   2.350  14.416
10301W        W75286  39.174  11.672  12.941
10302W        W75287  37.848  30.823  14.372
10303W        W75288  29.083   7.260   3.078
10304W        W75289  17.350  33.180  11.786
10305W        W75290  41.282   7.708  14.761
10306W        W75291  27.594  34.136  14.631
10307W        W75292  24.818  35.597  11.701
10308W        W75293  36.725  16.116  12.251
10309W        W75294   0.510  19.661   2.448
10310W        W75295  11.834  28.785   1.823
10311W        W75296  35.472  23.075  11.387
10312W        W75297  27.734   5.395  14.336
10313W        W75298  17.232  39.657  11.186
10314W        W75299  25.736  20.179   2.411
10315W        W75300  36.826  42.772  12.063
10316W        W75301  28.704  30.927   0.649
10317W        W75302   9.323  23.238  11.214
10318W        W75303  30.333   8.182  10.427
10319W        W75304   3.715  40.985   0.818
10320W        W75305   9.982  33.973  13.477
10321W        W75306  41.945  43.901  11.715
10322W        W75307  11.242  43.820   4.528
10323W        W75308  34.992  31.385  13.472
10324W        W75309  35.886  10.769   1.521
10325W        W75310  29.404  13.083   3.221
10326W        W75311   5.602  36.395   4.238
10327W        W75312  10.588   7.053   4.072
10328W        W75313  17.587  39.315   4.126
10329W        W75314  23.273   0.213  11.562
10330W        W75315  34.388   3.303   1.729
10331W        W75316   0.632  26.183   1.462
10332W        W75317  20.325  27.651   2.749
10333W        W75318   5.428  22.726  14.434
10334W        W75319  20.979  16.166   4.014
10335W        W75320  43.423  26.526  10.192
10336W        W75321   4.294  12.698   4.187
10337W        W75322  16.238  33.427   1.425
10338W        W75323  13.103  38.864  13.290
10339W        W75324  24.658  14.673   1.392
10340W        W75325  32.619  41.006  13.955
10341W        W75326  32.010  41.436   3.569
10342W        W75327   7.144   8.926  13.856
10343W        W75328  42.001  31.747  10.712
10344W        W75329  35.950  44.808  10.424
10345W        W75330  37.510  16.597   0.355
10346W        W75331   1.169   8.775  14.801
10347W        W75332  26.686  14.080  12.501
10348W        W75333  40.584  26.621  11.493
10349W        W75334  32.447   9.622   3.613
10350W        W75335  24.368  26.540   1.019
10351W        W75336  17.638  34.471   3.680
10352W        W75337  40.914  43.959   0.964
10353W        W75338  15.355   7.288   2.717
10354W        W75339   9.301   0.479  10.606
10355W        W75340  34.712  22.159  11.455
10356W        W75341   9.700  15.796  10.543
10357W        W75342  37.404  33.127  14.058
10358W        W75343   7.444  39.029   0.760
10359W        W75344   8.203  34.520  12.026
10360W        W75345  41.991  17.182  12.843
10361W        W75346  17.611  18.324   1.477
10362W        W75347   8.920   3.805  12.143
10363W        W75348  32.079  20.563   1.859
10364W        W75349  12.908   6.953  11.684
10365W        W75350  42.198   2.077   3.259
10366W        W75351  13.399  37.840   3.439
10367W        W75352   8.348  40.947   4.128
10368W        W75353  28.122  18.601  14.290
10369W        W75354  33.321  33.864   1.283
10370W        W75355  29.671  20.022   0.401
10371W        W75356  40.450   6.820   2.834
10372W        W75357   7.862  31.246  11.018
10373W        W75358  43.790  18.738  13.962
10374W        W75359  15.584  42.613   1.332
10375W        W75360  18.694  41.359  13.349
10376W        W75361  12.097  30.091   0.348
10377W        W75362  12.647  18.644  13.585
10378W        W75363   1.254   2.604   0.786
10379W        W75364   2.634   8.329  10.722
10380W        W75365  37.480   6.402  11.312
10381W        W75366  25.686  30.460   0.463
10382W        W75367  44.946  27.990   3.199
10383W        W75368  10.469   0.460   1.398
10384W        W75369  20.162   5.828  12.439
10385W        W75370  27.612  41.384   3.795
10386W        W75371  18.025  25.315  10.828
10387W        W75372  26.081  17.347   2.274
10388W        W75373  26.619  18.180  12.096
10389W        W75374  20.185  27.946  10.782
10390W        W75375  16.560  43.807   0.946
10391W        W75376   7.311   2.966   0.374
10392W        W75377  38.064  23.551   2.310
10393W        W75378  36.942  26.892   3.649
10394W        W75379   0.326  43.849  11.477
10395W        W75380   6.642  42.977   4.171
10396W        W75381  42.405  43.750  11.097
10397W        W75382  30.548  14.206  14.769
10398W        W75383  13.400   5.944   4.802
10399W        W75384  30.032   0.441   3.305
10400W        W75385  20.039  22.668   4.192
10401W        W75386  41.745   6.138   4.230
10402W        W75387   5.778  13.041   2.312
10403W        W75388  35.085  34.353  10.936
10404W        W75389  36.807   5.147  12.772
10405W        W75390  28.096  33.341  11.214
10406W        W75391  20.635  26.637   1.157
10407W        W75392  20.077  24.587   4.231
10408W        W75393  30.008  40.629  13.485
10409W        W75394  18.891  42.975  11.174
10410W        W75395  42.090   8.347   4.687
10411W        W75396  30.661  30.140  12.462
10412W        W75397  35.989  12.546  14.753
10413W        W75398  25.705  40.660  14.403
10414W        W75399  41.379  21.597  14.995
10415W        W75400  38.689  20.661  10.201
10416W        W75401  40.546  28.737   4.555
10417W        W75402  16.771   1.642  10.528
10418W        W75403  32.556  37.270   2.260
10419W        W75404  42.878  14.883   2.188
10420W        W75405   3.374  12.187   1.207
10421W        W75406  14.394  18.753   3.215
10422W        W75407  16.793  17.270  11.631
10423W        W75408   1.632   1.350  14.407
10424W        W75409  10.424  14.068   4.035
10425W        W75410  36.540   9.299   2.542
10426W        W75411  33.625  16.132  13.616
10427W        W75412   1.700  35.532   1.396
10428W        W75413  31.607  15.307   1.400
10429W        W75414  15.696  25.764  12.010
10430W        W75415  23.312  32.623   0.978
10431W        W75416   1.332  22.154   0.772
10432W        W75417   3.762  13.949  14.957
10433W        W75418  18.288   4.575   4.445
10434W        W75419  23.457   3.319  10.655
10435W        W75420  16.482   3.953   2.364
10436W        W75421  34.225  18.143   3.167
10437W        W75422  12.648  23.614  10.691
10438W        W75423  17.756  39.153  11.532
10439W        W75424   4.434  34.101   0.779
10440W        W75425   4.175  29.540   2.302
10441W        W75426  29.376  23.072  12.206
10442W        W75427  40.996  15.543   0.809
10443W        W75428  27.778  29.980   5.398
10444W        W75429  33.646  10.177  13.709
10445W        W75430  32.435  15.124   1.817
10446W        W75431  32.210   0.346  13.862
10447W        W75432   3.427  25.811   4.234
10448W        W75433  12.342  41.372   3.192
10449W        W75434  38.495  44.841   1.214
10450W        W75435  16.846  25.049  14.465
10451W        W75436   3.710  15.237  13.194
10452W        W75437   9.898   9.959  10.302
10453W        W75438  33.068   1.767   3.641
10454W        W75439  14.291   8.358  14.840
10455W        W75440   7.342  39.482   2.674
10456W        W75441  26.549   9.234   2.943
10457W        W75442  40.849   6.289   3.237
10458W        W75443  35.934  13.663   1.611
10459W        W75444  35.453  12.306   3.255
10460W        W75445  24.643   9.319   3.171
10461W        W75446  21.974   7.020  11.559
10462W        W75447  26.210  25.084   1.301
10463W        W75448   4.780  29.692  13.294
10464W        W75449  33.001  15.283  14.029
10465W        W75450  22.233  33.004  12.306
10466W        W75451  34.097  33.598  14.206
10467W        W75452  18.456  22.648   5.039
10468W        W75453  24.453  32.502   2.669
10469W        W75454  37.233   1.630   0.830
10470W        W75455  26.988  40.752   3.922
10471W        W75456  37.741  25.429  11.047
10472W        W75457  31.633  38.727   2.136
10473W        W75458  39.955  36.365   2.386
10474W        W75459  12.850  38.664   4.737
10475W        W75460   1.226  42.024  14.798
10476W        W75461  39.439   1.012  13.458
10477W        W75462  11.410   7.280   0.662
10478W        W75463  26.231   7.289  10.004
10479W        W75464   1.436  29.707   3.237
10480W        W75465  33.983   3.685  14.521
10481W        W75466  12.157   0.797   2.230
10482W        W75467  13.974  16.968   4.881
10483W        W75468  33.959  32.671  13.085
10484W        W75469  24.495  14.588  14.366
10485W        W75470  26.076  15.012   4.309
10486W        W75471  11.239  38.562  13.094
10487W        W75472   7.778  20.104  12.935
10488W        W75473  43.482  20.554  11.660
10489W        W75474  18.270  12.755  12.807
10490W        W75475  38.192   0.980  11.165
10491W        W75476  23.166   0.437  14.044
10492W        W75477  33.892  39.602  11.674
10493W        W75478  36.781  18.348  11.488
10494W        W75479   6.966  43.940   1.185
10495W        W75480  39.840  43.243  11.620
10496W        W75481  10.876   4.643  11.760
10497W        W75482  25.891  31.672  12.163
10498W        W75483  13.292  26.043   1.447
10499W        W75484  30.731  32.848  13.925
10500W        W75485  33.522  31.696  13.131
10501W        W75486  25.590   8.259   4.704
10502W        W75487  10.443  19.781  12.045
10503W        W75488   0.316  28.580   2.462
10504W        W75489   8.395  16.833   4.667
10505W        W75490  33.169  25.109   4.255
10506W        W75491  22.793  22.719   4.185
10507W        W75492  40.046  28.769   4.503
10508W        W75493  20.140  18.190  10.489
10509W        W75494  13.262  27.946  11.087
10510W        W75495  16.333   7.068   4.120
10511W        W75496  44.892  27.984   1.771
10512W        W75497   7.717  10.054   0.833
10513W        W75498   0.200  25.692   2.332
10514W        W75499  11.232  11.064  13.454
10515W        W75500  19.743  27.649  13.388
10516W        W75501   5.859  26.367   2.296
10517W        W75502  17.126  39.409   0.811
10518W        W75503  41.307  35.712  11.778
10519W        W75504  44.037  25.622  14.371
10520W        W75505  21.676  42.447   3.936
10521W        W75506  26.640   6.392  11.361
10522W        W75507   1.007  19.025   5.103
10523W        W75508  31.718   6.753  11.171
10524W        W75509  31.182  23.597  13.938
10525W        W75510  12.209  23.360  11.008
10526W        W75511   2.540  30.302  11.947
10527W        W75512   8.366  15.399  14.975
10528W        W75513  36.449   3.884  12.912
10529W        W75514  39.771  28.110   2.206
10530W        W75515  22.038   8.882   2.667
10531W        W75516  13.051  10.975   3.665
10532W        W75517  33.459   4.989   4.106
10533W        W75518  15.032   3.245   1.452
10534W        W75519  33.224  36.498  12.890
10535W        W75520  42.075  17.507  11.827
10536W        W75521  16.822  13.481  12.822
10537W        W75522   7.833  31.674  11.292
10538W        W75523  36.730  33.171   4.030
10539W        W75524  38.852   8.762   3.597
10540W        W75525  10.435  16.113   3.315
10541W        W75526  12.050  29.154  13.074
10542W        W75527  35.048  20.488   0.372
10543W        W75528   4.272  43.252   2.396
10544W        W75529   3.550  20.131   0.949
10545W        W75530  16.540  15.199   0.531
10546W        W75531   5.530  17.077  12.063
10547W        W75532  25.960  27.505  14.250
10548W        W75533   9.505  28.406  11.124
10549W        W75534  15.582  29.420   3.474
10550W        W75535  10.843  12.922  12.067
10551W        W75536  33.080  23.278   4.210
10552W        W75537  33.085  43.747   4.434
10553W        W75538   7.794  11.633  13.867
10554W        W75539  16.515  22.879   1.100
10555W        W75540  32.476  20.791  14.341
10556W        W75541  35.079  43.318  12.778
10557W        W75542  21.938  12.103   4.504
10558W        W75543  36.007  43.925   0.085
10559W        W75544  43.009   9.776   2.109
10560W        W75545  28.035  42.870  13.965
10561W        W75546  42.463  22.788   3.677
10562W        W75547  30.125  26.203   1.486
10563W        W75548  11.074  12.105   1.740
10564W        W75549  16.182  23.080   3.786
10565W        W75550  40.628  12.517  14.482
10566W        W75551  11.574  19.384  12.865
10567W        W75552  13.553   4.205  12.337
10568W        W75553  13.551  26.931   3.211
10569W        W75554  14.801  21.461  10.262
10570W        W75555  21.165  10.261   3.390
10571W        W75556   9.855   6.693  11.610
10572W        W75557  19.236  31.133   0.021
10573W        W75558  11.576  12.833  13.326
10574W        W75559   2.763   4.129  14.204
10575W        W75560   3.334  34.384  13.970
10576W        W75561  42.371  31.619  14.064
10577W        W75562  19.027  41.312  14.944
10578W        W75563  14.756  34.572  14.430
10579W        W75564  41.514   7.856   0.820
10580W        W75565  10.193  44.227  11.893
10581W        W75566  36.033  14.269   4.197
10582W        W75567  43.349  42.177  11.567
10583W        W75568  19.312  18.008   9.881
10584W        W75569   3.710  19.760   3.705
10585W        W75570  10.623  43.841   2.117
10586W        W75571  12.956  12.140  11.735
10587W        W75572  42.098  26.327  11.724
10588W        W75573  12.716  12.245  13.059
10589W        W75574  43.982   8.637  10.777
10590W        W75575  39.662  41.591  13.336
10591W        W75576  13.583  39.765   3.299
10592W        W75577  37.283  13.216  14.696
10593W        W75578  22.581  43.800   1.908
10594W        W75579  21.280   0.388   1.300
10595W        W75580  29.703  21.557  13.019
10596W        W75581  34.917  43.298   1.355
10597W        W75582  15.180  20.751  13.295
10598W        W75583  30.900  42.830  14.385
10599W        W75584  21.468  44.533   4.170
10600W        W75585  15.774  17.778   1.169
10601W        W75586   0.923  35.020   1.402
10602W        W75587  31.726   1.865   2.755
10603W        W75588  18.676  43.996   1.385
10604W        W75589  33.423  31.157   0.397
10605W        W75590   7.912  37.113   1.864
10606W        W75591  24.133  26.948   0.256
10607W        W75592  14.248  13.057   5.072
10608W        W75593  31.409  18.447   3.289
10609W        W75594   5.023   9.182   1.814
10610W        W75595  22.489  38.892   4.940
10611W        W75596  40.321  19.396   3.361
10612W        W75597   5.759  30.685   1.609
10613W        W75598  39.441  32.016   0.833
10614W        W75599   5.239  24.514  14.029
10615W        W75600  33.185   7.124  10.304
10616W        W75601  14.184   0.942   0.518
10617W        W75602  21.757  30.694  13.078
10618W        W75603  31.200  29.762  11.198
10619W        W75604   1.323  41.311   3.660
10620W        W75605  33.630   1.537   2.899
10621W        W75606   5.820  27.886  10.450
10622W        W75607   2.745  23.057  11.502
10623W        W75608  28.181   1.392  14.334
10624W        W75609   6.628  39.894   4.594
10625W        W75610  10.399  37.042   0.275
10626W        W75611  44.834   0.688   0.495
10627W        W75612  20.143  19.122  12.024
10628W        W75613  11.415  43.573   4.112
10629W        W75614  16.129  13.607   0.970
10630W        W75615  21.511  39.787  11.014
10631W        W75616   9.933  27.972  10.539
10632W        W75617   3.766   9.472  14.923
10633W        W75618   9.970  31.949   2.650
10634W        W75619   4.889   2.639   5.081
10635W        W75620   1.719   9.522   4.593
10636W        W75621  25.954  14.185   2.686
10637W        W75622  27.856  23.594   3.657
10638W        W75623  28.321   7.015  12.892
10639W        W75624   5.706  17.375   3.818
10640W        W75625  43.085   9.216   0.529
10641W        W75626   2.387  16.594   4.837
10642W        W75627  33.668  12.130   0.257
10643W        W75628   7.289  37.172  14.766
10644W        W75629  36.030  18.196   4.874
10645W        W75630  24.579   7.520   2.512
10646W        W75631  21.496  44.840   2.899
10647W        W75632  29.536  39.540   0.745
10648W        W75633  41.480  15.725  11.960
10649W        W75634  14.778  40.712  11.121
10650W        W75635  17.751  23.010   3.762
10651W        W75636  11.985   1.111  12.388
10652W        W75637  36.732  40.373  13.088
10653W        W75638  10.368  36.396  11.705
10654W        W75639  34.856   8.603  12.124
10655W        W75640  12.137  17.012  11.169
10656W        W75641  32.351  18.544  14.421
10657W        W75642   4.141   0.480   4.661
10658W        W75643  36.095  38.536   1.931
10659W        W75644  41.257  34.303   5.008
10660W        W75645   4.782  35.964  11.707
10661W        W75646  40.963  28.501  13.452
10662W        W75647  28.188  15.038  10.546
10663W        W75648  34.404  29.772  11.003
10664W        W75649  29.070  17.830  12.022
10665W        W75650  20.566  44.829   1.934
10666W        W75651  23.982  15.235  12.910
10667W        W75652   3.804  38.933   1.730
10668W        W75653  12.608   4.980  11.090
10669W        W75654  20.537  22.710   2.882
10670W        W75655  44.738  25.553   4.929
10671W        W75656  29.912  33.116  12.309
10672W        W75657   9.693   0.185  12.538
10673W        W75658   9.361   7.679   4.175
10674W        W75659  11.757   6.659  10.599
10675W        W75660  14.095   0.831   4.489
10676W        W75661   3.133   8.704  12.688
10677W        W75662  37.224  14.773   2.721
10678W        W75663  41.543  23.225   4.902
10679W        W75664  39.789  14.968  11.517
10680W        W75665  24.767  38.452   3.395
10681W        W75666  20.679  21.865  11.512
10682W        W75667  30.099   5.008  13.294
10683W        W75668  28.434   6.754  12.054
10684W        W75669  35.998   4.654   1.765
10685W        W75670  11.081  38.219   3.379
10686W        W75671  12.102  20.165  13.874
10687W        W75672  18.567   8.721   0.771
10688W        W75673  23.454  36.122   0.894
10689W        W75674  34.356  15.125   2.917
10690W        W75675  21.481  28.971   0.807
10691W        W75676   8.037  18.903  13.825
10692W        W75677  15.040   4.259   3.900
10693W        W75678   2.816   8.033  11.727
10694W        W75679  14.805  35.862   2.811
10695W        W75680  25.580   0.365  14.831
10696W        W75681  32.587  30.153   1.632
10697W        W75682  33.035  40.311  12.477
10698W        W75683  12.068  42.063  11.941
10699W        W75684  25.706  14.696  13.322
10700W        W75685  27.392  13.415  13.913
10701W        W75686   1.541  38.593   1.681
10702W        W75687  30.058  14.592  12.881
10703W        W75688   9.032   7.046  11.202
10704W        W75689   8.194  37.020  13.303
10705W        W75690  34.332  14.350  14.802
10706W        W75691  43.446  31.640  11.526
10707W        W75692  15.257   6.641  14.000
10708W        W75693  27.596   7.986  12.170
10709W        W75694  39.953  13.097  12.508
10710W        W75695  20.181  26.426   1.464
10711W        W75696  29.658  12.111   4.844
10712W        W75697  31.625  40.565   0.775
10713W        W75698  31.949  28.727  12.643
10714W        W75699  42.798  21.311   4.795
10715W        W75700  19.341   4.700  11.745
10716W        W75701  11.692  14.347   0.421
10717W        W75702  37.254  27.517  13.484
10718W        W75703  26.453   3.347  12.933
10719W        W75704  38.433  24.651  12.469
10720W        W75705  16.628  13.644   4.687
10721W        W75706  21.546  19.582   0.769
10722W        W75707  28.526  12.049   0.971
10723W        W75708  30.288  37.887  13.830
10724W        W75709   8.486  10.864  12.335
10725W        W75710  32.489  35.557   4.471
10726W        W75711  19.237  21.876   4.039
10727W        W75712  29.977  36.637  12.474
10728W        W75713  29.429  17.783  13.088
10729W        W75714  40.446   3.679  11.543
10730W        W75715  43.539  27.871   3.706
10731W        W75716   5.206  38.595  13.896
10732W        W75717  19.696  20.221   4.583
10733W        W75718  15.047  25.499   0.299
10734W        W75719  37.805  28.015   1.430
10735W        W75720   8.895  26.209  14.160
10736W        W75721  22.618  40.789   4.467
10737W        W75722  36.761  19.495   0.485
10738W        W75723  37.372  22.988   3.563
10739W        W75724  22.326  38.011   3.601
10740W        W75725  37.885  31.044   0.756
10741W        W75726  14.569  24.210  10.971
10742W        W75727  27.920  23.890  11.683
10743W        W75728  28.247   8.254   2.857
10744W        W75729   1.187  38.326   0.762
10745W        W75730  34.874  21.114   1.594
10746W        W75731   6.606  10.537  10.755
10747W        W75732  17.459  33.418   0.324
10748W        W75733  33.128  20.903   4.596
10749W        W75734  17.413  44.438   3.282
10750W        W75735   9.768  40.005  12.869
10751W        W75736  42.380  33.209   1.353
10752W        W75737   3.762  20.226   4.498
10753W        W75738  19.212  43.201  12.888
10754W        W75739  24.025  43.872   1.894
10755W        W75740  31.481  39.082   0.891
10756W        W75741  36.661   5.110   1.488
10757W        W75742  20.693   0.709  11.364
10758W        W75743  15.247  13.249  14.269
10759W        W75744   8.508  39.409  14.512
10760W        W75745  24.728   3.459  13.509
10761W        W75746  31.385  35.972  11.558
10762W        W75747  16.594  17.929   3.653
10763W        W75748  26.422  23.984  14.811
10764W        W75749  41.338   0.724   0.679
10765W        W75750   3.944  24.942   4.066
10766W        W75751  30.829  30.458   4.598
10767W        W75752  11.336  16.392  13.882
10768W        W75753  28.074  37.614  10.733
10769W        W75754  39.499   7.199  11.840
10770W        W75755  20.490   7.442  13.932
10771W        W75756  24.819  40.864  12.081
10772W        W75757  30.968  34.620   0.078
10773W        W75758  15.783  25.995   3.282
10774W        W75759  12.431  34.590  14.458
10775W        W75760  42.817  30.377   0.269
10776W        W75761  10.663  39.034  13.481
10777W        W75762  23.076   2.086   3.748
10778W        W75763  42.235  11.194   1.808
10779W        W75764   8.746  38.168   2.217
10780W        W75765  20.230  36.956   1.260
10781W        W75766   7.057  32.633   0.854
10782W        W75767  19.625  37.173   4.239
10783W        W75768  28.851   7.904   3.701
10784W        W75769   9.841   9.869   2.430
10785W        W75770  34.496  21.272  14.223
10786W        W75771  19.860  34.149  11.650
10787W        W75772  11.176   6.261   2.107
10788W        W75773   1.444  42.885  14.403
10789W        W75774  27.497  36.484  13.042
10790W        W75775  17.498  13.842  11.517
10791W        W75776   0.802  44.009  11.674
10792W        W75777  29.098  26.667  12.935
10793W        W75778  20.252  12.707   0.017
10794W        W75779  27.803  37.528   5.284
10795W        W75780   3.190   9.753  11.251
10796W        W75781  32.397   2.151  13.454
10797W        W75782  22.108  13.142  14.044
10798W        W75783  37.096  37.327   2.253
10799W        W75784  43.735  15.837   4.132
10800W        W75785  29.118  20.538   2.585
10801W        W75786  14.929  38.558  11.392
10802W        W75787  25.073  32.075   4.329
10803W        W75788  24.501  20.007   1.958
10804W        W75789  32.197  26.557  12.135
10805W        W75790  37.517  33.482   3.203
10806W        W75791  37.379  21.068   3.175
10807W        W75792  29.687  40.315  14.856
10808W        W75793  17.702   7.410  14.092
10809W        W75794   1.028  26.454   4.565
10810W        W75795   0.641   8.775  14.663
10811W        W75796   0.419  38.521   5.019
10812W        W75797  36.911  30.618   2.197
10813W        W75798  30.270  44.447  14.612
10814W        W75799   8.741  19.269   2.349
10815W        W75800  38.492   0.504  10.378
10816W        W75801  20.123  10.646  13.021
10817W        W75802   9.587  17.128  12.520
10818W        W75803  18.605  43.491   0.013
10819W        W75804   5.971   1.496  10.771
10820W        W75805  15.649   0.498   3.575
10821W        W75806  28.137  25.133   1.433
10822W        W75807  10.792  23.251  14.435
10823W        W75808   0.923   2.036  14.400
10824W        W75809   5.142  31.019   3.087
10825W        W75810   3.738  30.886   4.663
10826W        W75811  39.435  22.069  10.662
10827W        W75812  19.755  42.192  13.030
10828W        W75813  35.338   5.659   1.686
10829W        W75814   8.938   2.842   2.484
10830W        W75815   5.237  43.052  14.889
10831W        W75816   3.763  42.905   1.246
10832W        W75817  27.145   1.477   4.036
10833W        W75818  35.958  37.011   0.969
10834W        W75819   1.549  30.047   4.537
10835W        W75820  38.267  36.819  13.936
10836W        W75821  18.497  35.505   2.655
10837W        W75822  39.018  19.023   0.243
10838W        W75823  10.110  34.649  14.759
10839W        W75824   7.811   7.660   0.271
10840W        W75825  28.209   6.715   1.477
10841W        W75826  11.462  39.321   5.027
10842W        W75827  36.110  40.717   0.661
10843W        W75828  29.429  37.945  13.301
10844W        W75829  30.777   2.785   4.326
10845W        W75830  28.435  43.259  13.965
10846W        W75831  19.642  30.158  14.395
10847W        W75832  16.665   7.671  10.284
10848W        W75833  33.133  21.332  11.901
10849W        W75834  15.843  27.230  11.592
10850W        W75835  22.187  43.360  12.497
10851W        W75836  16.731  40.902  13.992
10852W        W75837  43.916   9.096  10.548
10853W        W75838  11.752  23.560   1.833
10854W        W75839  19.839  15.945  13.957
10855W        W75840  25.557   3.755   1.674
10856W        W75841  24.198  35.566   0.686
10857W        W75842  39.104  33.916  14.359
10858W        W75843  29.524  14.689  12.907
10859W        W75844  30.640  39.611  11.967
10860W        W75845   3.676  23.065  10.728
10861W        W75846  16.141  25.641  13.900
10862W        W75847   9.851  19.989   0.359
10863W        W75848  19.278  38.190   0.377
10864W        W75849  23.793  31.001  13.061
10865W        W75850  27.507  11.559  11.549
10866W        W75851  25.676  32.544   1.224
10867W        W75852   2.299   2.149  14.337
10868W        W75853  18.262  18.623  10.144
10869W        W75854  17.695   4.029   4.437
10870W        W75855  15.215  26.975   1.232
10871W        W75856  26.498   0.163   4.680
10872W        W75857  19.739   6.140  13.576
10873W        W75858   8.448   4.825  14.759
10874W        W75859  42.964  44.776   2.683
10875W        W75860  19.002  43.416  11.408
10876W        W75861  39.406  37.905   1.843
10877W        W75862  15.355  41.459  13.489
10878W        W75863  35.833  31.451  13.812
10879W        W75864  17.636  15.424   0.267
10880W        W75865  14.738  11.742   3.582
10881W        W75866  13.721  11.230  12.922
10882W        W75867  40.784  10.689  14.047
10883W        W75868  30.322  11.864   4.171
10884W        W75869  27.519  13.794   1.126
10885W        W75870  28.968  39.666  13.595
10886W        W75871  36.912  19.587   4.676
10887W        W75872  41.368  33.035  13.079
10888W        W75873  44.771  24.470   2.190
10889W        W75874  15.082  29.671   2.727
10890W        W75875  11.410  31.567   4.120
10891W        W75876   0.262  12.755  14.812
10892W        W75877  44.211  31.021  12.867
10893W        W75878  12.733  25.925  11.995
10894W        W75879   1.505  24.196   3.546
10895W        W75880  35.544  17.104  14.718
10896W        W75881   6.610   8.343  11.105
10897W        W75882   7.348  33.642   0.371
10898W        W75883  26.455  44.398   1.382
10899W        W75884  25.869  39.841  12.058
10900W        W75885   2.915  10.246   3.727
10901W        W75886  37.006  16.004  11.075
10902W        W75887  33.210  15.397  10.671
10903W        W75888  11.398  41.027  12.544
10904W        W75889   7.454  32.485  12.178
10905W        W75890  27.552   4.952  10.588
10906W        W75891  32.424  26.598   2.037
10907W        W75892  15.077  33.834  14.363
10908W        W75893   4.278  14.402   2.757
10909W        W75894  28.093  34.865   4.278
10910W        W75895  37.377   5.003   1.371
10911W        W75896  24.217  34.545  10.051
10912W        W75897  13.813   6.457   1.222
10913W        W75898   4.201  24.072   3.752
10914W        W75899  28.195  23.946  12.110
10915W        W75900  29.991   8.694   3.044
10916W        W75901  20.712  10.624   3.371
10917W        W75902  16.088  24.785  14.419
10918W        W75903   7.706   9.716   1.346
10919W        W75904  41.427  41.657  12.123
10920W        W75905   8.821   5.738   0.850
10921W        W75906  41.445  32.559  10.811
10922W        W75907  29.869  36.167  13.391
10923W        W75908  44.943   3.939  10.799
10924W        W75909  42.313  12.350   1.402
10925W        W75910  26.271   6.227  11.037
10926W        W75911   3.603  33.308   2.249
10927W        W75912  24.634  12.950  12.850
10928W        W75913  41.777  35.358  13.893
10929W        W75914  22.643  37.255  10.328
10930W        W75915  41.818   9.755   1.481
10931W        W75916  38.040  22.014   1.440
10932W        W75917  37.068  40.312  12.011
10933W        W75918  27.293  41.735  12.842
10934W        W75919   5.365  24.196   1.549
10935W        W75920  23.650  42.876  11.577
10936W        W75921  15.813   2.467  10.549
10937W        W75922   3.663  12.343   4.566
10938W        W75923  28.914  13.322   1.261
10939W        W75924  20.486  41.311  14.829
10940W        W75925  28.877  39.816   3.205
10941W        W75926  41.517  25.976  13.644
10942W        W75927  12.367  10.220  11.169
10943W        W75928  44.893  14.040  14.099
10944W        W75929  21.088  35.085  13.394
10945W        W75930  44.477   3.246  11.230
10946W        W75931  30.548   8.487  11.261
10947W        W75932  43.192  24.135  12.486
10948W        W75933   7.188  12.137  11.162
10949W        W75934  32.755   8.442   1.264
10950W        W75935  33.773  15.658   2.680
10951W        W75936  26.491  23.221   4.318
10952W        W75937  12.919  19.456  11.170
10953W        W75938   6.625   5.241   3.066
10954W        W75939  22.574   6.297  11.186
10955W        W75940  19.609   9.007   4.258
10956W        W75941  43.148  20.684  10.371
10957W        W75942  43.972  24.933  13.942
10958W        W75943  42.362   8.109  12.563
10959W        W75944   7.976  33.372   5.041
10960W        W75945   3.892  17.822  11.593
10961W        W75946  16.148  38.524   2.258
10962W        W75947  24.422   0.853  14.300
10963W        W75948   1.952  34.795   4.538
10964W        W75949  14.074   5.818   0.747
10965W        W75950  37.564  44.849   0.183
10966W        W75951  10.841   6.795  14.048
10967W        W75952  21.546  32.280   4.164
10968W        W75953  30.870  27.056   2.678
10969W        W75954   1.561  25.003   4.937
10970W        W75955  27.583  35.086   0.802
10971W        W75956  18.036  11.344   4.338
10972W        W75957  29.624  37.929  14.796
10973W        W75958   0.977  38.455  13.415
10974W        W75959  31.061   4.790  10.099
10975W        W75960   0.839  38.978  12.557
10976W        W75961   3.796  12.614   3.285
10977W        W75962   6.108  16.545   4.103
10978W        W75963  23.504  18.609  14.362
10979W        W75964  35.611   1.337  10.510
10980W        W75965  18.579  36.904  11.504
10981W        W75966  27.913  17.185   0.642
10982W        W75967  37.875  37.980   1.738
10983W        W75968  19.304   0.172   2.480
10984W        W75969  43.567  14.295  10.686
10985W        W75970  22.645   0.844  14.551
10986W        W75971  44.802  24.046  14.241
10987W        W75972  41.467  44.548  12.931
10988W        W75973  19.318  29.786   2.751
10989W        W75974  23.436  32.536  11.968
10990W        W75975  19.863   7.765  11.003
10991W        W75976  36.992  43.436   3.756
10992W        W75977  41.646  38.951   1.190
10993W        W75978   0.151  10.066  13.667
10994W        W75979  39.093  28.880  10.147
10995W        W75980   1.846  29.627   4.581
10996W        W75981   7.287  39.823  13.989
10997W        W75982  30.624  34.359   2.423
10998W        W75983   0.304  36.820   9.653
10999W        W75984   1.938   4.202  14.785
11000W        W75985  21.062  21.512  14.714
11001W        W75986  14.161  20.248  10.791
11002W        W75987   5.505  11.815   2.586
11003W        W75988  28.837  38.021   1.701
11004W        W75989  36.472  39.393  13.288
11005W        W75990  30.643  44.465   1.995
11006W        W75991  29.417  12.106  13.406
11007W        W75992   7.901  14.053   2.292
11008W        W75993  37.870  43.878   0.132
11009W        W75994   2.041  22.575  14.244
11010W        W75995  25.691  25.153   1.322
11011W        W75996  30.610  19.957   0.387
11012W        W75997  28.279  33.515   3.746
11013W        W75998   6.722  22.071   1.235
11014W        W75999   9.408   8.146  14.957
11015W        W76000  43.174   0.201   2.472
11016W        W76001  18.684  31.076  13.303
11017W        W76002  39.074  40.473   0.338
11018W        W76003  16.857  24.903  11.228
11019W        W76004   3.030   6.172   2.873
11020W        W76005   1.547   5.466  14.923
11021W        W76006  42.745  44.378   2.374
11022W        W76007   2.542  25.188  10.820
11023W        W76008   8.542   6.155   1.787
11024W        W76009  26.816  24.333  14.847
11025W        W76010  43.434   9.504  11.613
11026W        W76011  38.731  36.543  13.854
11027W        W76012  35.293   4.681  12.199
11028W        W76013  19.453   3.646   0.531
11029W        W76014  14.760  41.561   3.612
11030W        W76015   8.573  17.213   3.873
11031W        W76016  25.224  27.992   4.194
11032W        W76017  42.326   4.904  14.268
11033W        W76018  12.424  38.201  13.122
11034W        W76019   6.847  24.583   0.964
11035W        W76020   2.773  32.238   2.903
11036W        W76021  31.406  15.345  13.755
11037W        W76022  16.791  42.906  12.183
11038W        W76023   0.359  22.589  14.231
11039W        W76024  28.356  13.327   1.318
11040W        W76025   1.447  12.704   3.678
11041W        W76026  33.646  35.879  12.203
11042W        W76027  16.412  26.307   1.998
11043W        W76028  36.803  13.157   2.925
11044W        W76029  14.373   5.034   9.847
11045W        W76030   1.702   5.892   2.376
11046W        W76031  11.507   6.276   4.211
11047W        W76032  34.856  30.508   4.170
11048W        W76033  29.886  41.881  11.038
11049W        W76034  14.179  26.364  10.903
11050W        W76035  19.127  35.901   1.138
11051W        W76036   6.381  32.702  10.884
11052W        W76037  24.602  13.823   2.837
11053W        W76038  18.351   8.315   2.238
11054W        W76039  23.944  17.768  14.234
11055W        W76040   7.854  32.965   3.922
11056W        W76041  21.791  24.783   0.836
11057W        W76042   0.431  28.602   3.980
11058W        W76043  18.675  30.189   4.487
11059W        W76044  26.570  23.086  12.377
11060W        W76045  41.937  43.847  12.220
11061W        W76046  33.475   7.018  14.170
11062W        W76047  20.107  26.241  11.061
11063W        W76048   9.302   3.742  12.478
11064W        W76049  20.102  29.027   3.697
11065W        W76050   7.217   7.079   0.744
11066W        W76051  37.947  26.726  13.976
11067W        W76052   6.571  38.656   1.906
11068W        W76053   7.716  18.795  12.527
11069W        W76054  26.533  41.520   4.447
11070W        W76055   2.886   5.780   0.812
11071W        W76056  37.979  12.783  14.896
11072W        W76057   8.907  14.307   4.154
11073W        W76058  43.028   8.191   0.305
11074W        W76059  15.709  34.798  10.602
11075W        W76060  23.004   9.593   4.195
11076W        W76061  20.003  22.496  12.541
11077W        W76062  33.405  16.063   0.815
11078W        W76063  31.019   8.407   0.961
11079W        W76064   4.317  23.253  11.675
11080W        W76065  35.054  22.770   0.541
11081W        W76066  40.502  23.710   1.648
11082W        W76067  40.943  30.240   9.716
11083W        W76068  26.214  31.180  10.942
11084W        W76069  21.205   6.768   4.628
11085W        W76070   3.490  22.773   1.702
11086W        W76071   1.805  44.538  12.627
11087W        W76072  19.580   6.448   3.190
11088W        W76073  33.904  42.984   2.172
11089W        W76074  41.637  14.678  12.654
11090W        W76075  33.418  18.268   0.972
11091W        W76076  43.820  13.850  10.737
11092W        W76077  36.595   1.051   2.163
11093W        W76078  36.029  13.515  12.873
11094W        W76079  44.763  22.122   2.337
11095W        W76080  19.607  27.249   5.444
11096W        W76081  39.018  35.902   0.433
11097W        W76082   6.294  12.434  12.087
11098W        W76083   0.289   3.503   1.247
11099W        W76084  32.817  25.736  12.096
11100W        W76085  39.051  17.449  10.508
11101W        W76086  17.006  29.474  13.289
11102W        W76087  14.600  34.217   0.900
11103W        W76088   4.815  36.843   0.470
11104W        W76089   6.927  32.981  11.584
11105W        W76090  15.831  21.657   2.296
11106W        W76091  35.984  30.141   3.794
11107W        W76092  40.715  13.507  12.108
11108W        W76093  13.884   3.381  10.293
11109W        W76094  22.549  22.654   3.716
11110W        W76095  29.701  13.942   3.234
11111W        W76096   5.241  15.770  14.952
11112W        W76097  35.935   5.617  14.374
11113W        W76098   7.333   5.957  11.228
11114W        W76099  34.855  11.591   4.769
11115W        W76100  42.867  19.426  10.741
11116W        W76101   6.956  13.633  11.115
11117W        W76102   5.692   4.324  11.677
11118W        W76103  26.440  38.380  12.044
11119W        W76104  10.150   6.234  13.382
11120W        W76105  37.749  36.041  13.835
11121W        W76106  22.203  42.769   2.719
11122W        W76107  25.404  23.112   2.304
11123W        W76108  10.214  26.657  13.033
11124W        W76109  24.758   5.503  12.845
11125W        W76110  36.059   3.201   1.271
11126W        W76111  37.370  20.476   1.938
11127W        W76112  41.686  15.266  12.505
11128W        W76113  44.616  34.612  10.774
11129W        W76114  13.043   7.168  10.399
11130W        W76115  36.937  22.762   1.843
11131W        W76116  14.614   7.159   4.669
11132W        W76117  24.213  11.824  14.965
11133W        W76118  25.321  34.531   2.287
11134W        W76119  31.497  30.311   0.869
11135W        W76120  23.184   8.783  11.106
11136W        W76121   0.042  14.565   1.670
11137W        W76122  23.055  35.105  12.644
11138W        W76123  43.105  17.511  13.851
11139W        W76124   9.373   5.157  13.024
11140W        W76125  39.544  10.803  12.683
11141W        W76126  11.946   5.904  13.989
11142W        W76127  24.152  26.222  14.756
11143W        W76128   8.291  39.867   2.913
11144W        W76129   0.341  20.563  13.446
11145W        W76130  23.951  20.802   4.142
11146W        W76131  30.819  33.100   3.181
11147W        W76132   4.720  41.026  12.987
11148W        W76133  36.461   9.152   3.515
11149W        W76134  13.588   5.918  11.966
11150W        W76135  33.803  37.139   1.779
11151W        W76136  11.252  17.712   4.467
11152W        W76137   3.107  24.737   2.271
11153W        W76138  19.838  42.564  12.077
11154W        W76139  35.451   9.321  13.572
11155W        W76140   4.134   2.455   4.283
11156W        W76141  15.635  32.530   4.517
11157W        W76142  36.548  11.208   3.625
11158W        W76143  40.358   3.664   3.672
11159W        W76144  28.395  31.889   4.904
11160W        W76145   2.813  17.297   0.564
11161W        W76146  25.560  37.364  13.394
11162W        W76147  39.114  24.567   0.952
11163W        W76148  10.218  14.554   4.164
11164W        W76149  13.681   4.545  13.379
11165W        W76150  40.424   6.876  11.439
11166W        W76151  41.340  10.900  11.183
11167W        W76152   9.264  23.053  10.732
11168W        W76153  39.535  37.670   0.704
11169W        W76154  16.673   8.223   4.530
11170W        W76155  34.427   0.741   0.720
11171W        W76156  21.536  16.769  10.336
11172W        W76157  36.597  25.537  14.084
11173W        W76158  10.097   5.722   2.682
11174W        W76159  33.397   8.568  12.214
11175W        W76160  16.768  10.891  13.553
11176W        W76161  34.654  31.820   1.737
11177W        W76162  29.225  30.895  13.110
11178W        W76163  14.382  16.505  14.883
11179W        W76164  38.247  13.402   4.289
11180W        W76165   2.517  42.391  12.451
11181W        W76166  39.006   5.525   4.709
11182W        W76167   4.896  37.814   0.297
11183W        W76168   3.536  33.457   4.638
11184W        W76169  34.813   1.159   4.886
11185W        W76170  30.578  23.698  10.711
11186W        W76171  32.967  35.856   1.294
11187W        W76172  32.582  14.825   3.477
11188W        W76173   3.024  14.677   0.277
11189W        W76174   5.793  37.635   2.684
11190W        W76175  23.613  36.620   4.750
11191W        W76176  43.707  34.176   3.209
11192W        W76177  40.917   1.508   1.428
11193W        W76178  31.327  15.630  12.589
11194W        W76179  29.381  13.246  12.064
11195W        W76180  11.347  37.021  12.470
11196W        W76181  36.352  17.045  13.682
11197W        W76182  39.115  30.507   1.364
11198W        W76183   8.650  11.195  13.431
11199W        W76184  21.297  38.057   4.564
11200W        W76185  21.934   5.400   0.399
11201W        W76186  19.323   0.908   3.122
11202W        W76187  34.887  36.429  11.013
11203W        W76188   6.525  29.044  10.685
11204W        W76189  27.690  13.573  12.396
11205W        W76190   8.360  13.668   1.218
11206W        W76191  31.455  12.150   0.924
11207W        W76192  12.634   4.393  14.823
11208W        W76193   8.928  44.473  14.939
11209W        W76194  30.188  41.089   4.702
11210W        W76195   8.398  35.648  10.556
11211W        W76196   0.289  37.051   4.075
11212W        W76197   4.880   8.118   0.420
11213W        W76198   2.292  43.873  13.870
11214W        W76199  19.584  10.366   2.260
11215W        W76200  40.478  36.089  12.989
11216W        W76201  24.955   0.034   1.896
11217W        W76202  36.451  14.214  10.655
11218W        W76203  36.841  26.586   1.808
11219W        W76204  17.365  14.568  11.175
11220W        W76205  39.428  33.621  10.846
11221W        W76206  35.446   6.775   1.269
11222W        W76207  34.840  17.041  12.071
11223W        W76208  40.807   9.745   3.102
11224W        W76209   8.861  14.754  11.142
11225W        W76210  44.924  23.994  12.845
11226W        W76211   3.526  20.109  12.955
11227W        W76212  22.328   5.573   0.832
11228W        W76213  12.653   5.288  11.485
11229W        W76214   1.712  27.023  10.772
11230W        W76215   7.421  32.908  11.424
11231W        W76216  44.216   1.381  12.903
11232W        W76217  21.824  20.625  14.055
11233W        W76218  37.900  16.304   2.303
11234W        W76219   8.282  39.476  12.613
11235W        W76220  31.466  24.462   4.192
11236W        W76221   7.370  35.990  13.383
11237W        W76222  28.667  11.218  12.975
11238W        W76223  22.097  38.113   1.445
11239W        W76224  34.628  19.231  10.631
11240W        W76225  31.224  31.152   4.108
11241W        W76226  37.590  26.866   1.688
11242W        W76227  14.827  23.808  11.184
11243W        W76228  18.719  44.228   3.256
11244W        W76229   6.183  36.453  14.382
11245W        W76230  34.360  22.022   1.446
11246W        W76231  17.242  24.054  13.320
11247W        W76232   4.036  11.950   2.143
11248W        W76233   7.812  23.780   4.091
11249W        W76234  10.428  34.215   1.916
11250W        W76235  14.606  44.955   1.632
11251W        W76236  14.345  40.280  11.636
11252W        W76237  22.701  22.645  11.845
11253W        W76238  26.153  35.110   1.291
11254W        W76239  16.043   5.194  14.527
11255W        W76240  32.098  39.619   2.241
11256W        W76241  23.412  32.369  13.878
11257W        W76242  32.462   5.099   1.368
11258W        W76243  29.316  17.184   1.326
11259W        W76244  13.708  30.540   0.700
11260W        W76245   5.808  40.461  14.490
11261W        W76246  14.806  10.731   2.238
11262W        W76247  10.819   7.947  13.359
11263W        W76248  20.824  32.983  13.485
11264W        W76249  25.198  23.805  14.817
11265W        W76250  41.078   8.251  10.595
11266W        W76251  16.653  12.894   0.320
11267W        W76252  27.907  16.677  12.377
11268W        W76253  24.521  38.918   4.183
11269W        W76254  38.480  26.919   3.321
11270W        W76255  22.701  17.157  10.791
11271W        W76256  12.669  18.688   1.765
11272W        W76257  27.149  34.101   4.596
11273W        W76258  20.575  40.283   1.892
11274W        W76259  35.826  42.649  14.457
11275W        W76260  32.076  27.310  13.023
11276W        W76261  12.170  20.178  12.951
11277W        W76262   0.822   5.363  12.893
11278W        W76263  41.393  35.266   3.249
11279W        W76264  35.886  44.346   1.407
11280W        W76265   6.820  20.268   4.182
11281W        W76266  17.633  32.935   0.349
11282W        W76267  25.119  14.159  10.968
11283W        W76268   1.853  13.077  14.110
11284W        W76269  21.227  41.984  11.741
11285W        W76270   6.949  36.974   2.943
11286W        W76271   7.338  19.705   2.628
11287W        W76272  41.505  33.545   3.230
11288W        W76273  34.809  39.624   1.378
11289W        W76274  42.894  20.668  13.860
11290W        W76275  26.882   9.772   0.190
11291W        W76276  27.446   4.806  12.034
11292W        W76277  22.088  38.981   1.669
11293W        W76278   4.480  13.851   0.468
11294W        W76279  12.377  11.819   0.306
11295W        W76280  17.723  41.384  14.460
11296W        W76281  11.815  44.969   3.806
11297W        W76282  11.771  18.400   1.830
11298W        W76283  42.661   1.735   3.760
11299W        W76284  11.111  40.051  12.978
11300W        W76285  33.935   1.280   4.272
11301W        W76286  13.448  40.704   5.017
11302W        W76287  24.745   0.748   0.886
11303W        W76288  27.813  27.498   9.884
11304W        W76289  10.757   7.847   2.108
11305W        W76290  31.705  32.396  11.576
11306W        W76291   7.274   4.096   9.948
11307W        W76292  17.544  14.025  11.031
11308W        W76293  18.010   9.207  10.537
11309W        W76294   0.055  23.499  11.472
11310W        W76295   4.824   0.787   2.915
11311W        W76296  31.496  17.899   0.190
11312W        W76297  30.713   8.735   1.276
11313W        W76298  29.696   7.734   0.010
11314W        W76299  10.259   8.716   3.651
11315W        W76300  24.457   1.744  14.242
11316W        W76301  11.618  28.664  13.486
11317W        W76302  40.476  16.289   3.576
11318W        W76303  10.363  11.629   2.633
11319W        W76304  18.255  39.698   3.092
11320W        W76305  19.140  37.330  10.422
11321W        W76306  10.922  38.323  11.154
11322W        W76307   8.890  29.175   2.236
11323W        W76308  24.031   2.460   1.966
11324W        W76309  34.404  25.012  11.556
11325W        W76310   5.776  29.475   0.353
11326W        W76311  32.040  41.850   0.732
11327W        W76312  18.068  23.166  14.936
11328W        W76313   3.645  23.775  12.027
11329W        W76314  12.396  29.909   2.937
11330W        W76315  14.863  32.151  12.141
11331W        W76316   3.685  33.518  14.226
11332W        W76317   8.836   5.512   0.339
11333W        W76318   0.252  14.789  11.592
11334W        W76319   4.045   3.938  13.791
11335W        W76320  37.006  17.779   1.213
11336W        W76321  39.779  11.897   1.911
11337W        W76322  37.036  36.591  14.319
11338W        W76323  29.128   0.912  14.382
11339W        W76324  38.342   8.207  13.414
11340W        W76325  37.532  32.957   3.298
11341W        W76326  23.405   3.354  14.676
11342W        W76327  22.085  13.112   1.915
11343W        W76328  33.115  37.614   3.134
11344W        W76329  20.530   4.809   3.276
11345W        W76330  14.745  13.792   4.845
11346W        W76331   2.045  28.958  12.801
11347W        W76332  27.108  39.229   0.087
11348W        W76333  17.814  40.698   3.284
11349W        W76334  21.181  22.507   1.679
11350W        W76335   0.174  30.544  14.511
11351W        W76336  37.509   6.788   1.311
11352W        W76337  31.130  14.306  11.989
11353W        W76338  11.208   9.642  10.533
11354W        W76339  22.937  23.035   3.763
11355W        W76340  32.279  28.069   5.065
11356W        W76341  31.845  36.253   4.911
11357W        W76342  10.442  30.122   4.109
11358W        W76343  41.055  33.430  12.955
11359W        W76344  41.082  40.874  13.839
11360W        W76345   7.086  14.766  13.666
11361W        W76346  23.970  38.042  12.016
11362W        W76347  16.581  22.217   4.616
11363W        W76348  43.388  43.566  13.968
11364W        W76349  23.794  30.057  14.906
11365W        W76350   3.954  22.292   3.999
11366W        W76351  10.385  33.198   0.751
11367W        W76352   7.950  37.507  13.460
11368W        W76353  19.712   8.835  14.911
11369W        W76354  25.248  21.806  14.730
11370W        W76355   6.615  37.289   2.657
11371W        W76356  34.751  32.317   3.642
11372W        W76357  19.744   4.962  10.077
11373W        W76358  20.425  22.196  14.994
11374W        W76359   1.223   2.335   2.566
11375W        W76360  25.645   4.933  12.597
11376W        W76361   9.594  32.757   2.302
11377W        W76362  17.381   7.034   3.516
11378W        W76363  17.074   6.703   3.231
11379W        W76364  39.415  18.512   2.875
11380W        W76365   9.140   2.420   2.250
11381W        W76366   1.779  42.295  14.955
11382W        W76367  32.431  24.195   0.274
11383W        W76368  34.671  23.598   1.429
11384W        W76369  18.374   3.377  11.232
11385W        W76370  16.740  19.153  12.077
11386W        W76371  34.423  40.507  13.904
11387W        W76372  22.452   8.304  13.445
11388W        W76373  31.014  14.874   2.665
11389W        W76374   0.251  32.890  14.975
11390W        W76375  25.642   0.275   4.653
11391W        W76376   5.614  13.203   0.971
11392W        W76377  35.789  39.067  10.576
11393W        W76378  28.007  32.490  12.166
11394W        W76379  23.811  15.158   4.502
11395W        W76380  26.329  42.448  14.450
11396W        W76381  31.700  38.920   4.082
11397W        W76382  13.738   1.675  11.807
11398W        W76383  11.738  28.700   3.220
11399W        W76384  40.849   1.322  12.037
11400W        W76385  23.194  33.897   4.135
11401W        W76386  34.761  43.061   0.321
11402W        W76387   0.807   1.220  10.725
11403W        W76388  10.154   7.241  14.102
11404W        W76389  26.465  33.106  10.187
11405W        W76390  13.265  34.190   4.196
11406W        W76391  16.866  25.601   0.683
11407W        W76392  32.825  11.045  14.867
11408W        W76393  30.140  32.554   9.798
11409W        W76394   3.986  20.606   0.325
11410W        W76395  15.746  33.041  11.977
11411W        W76396  22.088  38.514   3.679
11412W        W76397  16.870  15.601  10.602
11413W        W76398  13.287  15.567   9.762
11414W        W76399   4.257   4.331  12.376
11415W        W76400  32.435  31.686   4.627
11416W        W76401  30.704  40.915  12.652
11417W        W76402  11.269  18.738  14.008
11418W        W76403  13.205   6.481  12.719
11419W        W76404   9.151  10.795   1.163
11420W        W76405   5.854   4.920  12.536
11421W        W76406  15.175  13.569   2.683
11422W        W76407  22.841  21.158   1.804
11423W        W76408   7.625  31.328  12.010
11424W        W76409   8.727  34.947   0.082
11425W        W76410  31.054   0.629  14.279
11426W        W76411  28.937  10.524   4.108
11427W        W76412  10.937  12.109   4.138
11428W        W76413  28.460  44.537   1.403
11429W        W76414  16.425  28.814   5.365
11430W        W76415  24.806  30.867   0.098
11431W        W76416  26.057  41.013   3.661
11432W        W76417  35.028  31.316   3.301
11433W        W76418  40.692   6.383   2.653
11434W        W76419  19.481  14.755  13.596
11435W        W76420  19.527  37.477  14.991
11436W        W76421  20.234  41.159   0.837
11437W        W76422  34.477  31.127   4.216
11438W        W76423  40.941  26.690  13.309
11439W        W76424   5.735  43.874  14.059
11440W        W76425  19.039  39.886  14.816
11441W        W76426   2.261   3.464  11.901
11442W        W76427   4.841  43.120  13.453
11443W        W76428   7.342  27.471  13.018
11444W        W76429  43.936  13.233  14.832
11445W        W76430  37.615  14.658   1.907
11446W        W76431  41.586   2.439   4.593
11447W        W76432  28.580  21.973   0.367
11448W        W76433  33.012  31.157   4.210
11449W        W76434  42.778  24.451   3.186
11450W        W76435  38.639   9.877  14.975
11451W        W76436   4.393   4.809   5.461
11452W        W76437  15.796   3.206   3.607
11453W        W76438   3.940  25.462  14.552
11454W        W76439  37.462  42.777  13.863
11455W        W76440   4.407  31.992   0.247
11456W        W76441  29.757  10.850   1.245
11457W        W76442  16.041  44.445   0.832
11458W        W76443   1.687  40.319   3.545
11459W        W76444  29.661  20.513  13.013
11460W        W76445   8.822  44.899  14.295
11461W        W76446  17.756  21.459   2.290
11462W        W76447  22.218  19.709   2.635
11463W        W76448  39.095  16.791  12.488
11464W        W76449  12.353  14.529  14.371
11465W        W76450  18.966  14.618  13.496
11466W        W76451  39.066  27.538   3.127
11467W        W76452  26.871  24.967  11.018
11468W        W76453   8.798  31.522  10.444
11469W        W76454  17.223   1.020  10.051
11470W        W76455  12.751  11.433  11.228
11471W        W76456  31.182  19.587   2.082
11472W        W76457  36.870   4.167   2.279
11473W        W76458  12.338  35.925   4.759
11474W        W76459  32.651  39.469   4.632
11475W        W76460  38.771   7.809   2.015
11476W        W76461  17.593  41.817  13.505
11477W        W76462  10.099   6.662  10.238
11478W        W76463   2.521  22.010  12.579
11479W        W76464  43.561  42.855  13.445
11480W        W76465  17.293   9.784  12.993
11481W        W76466  15.022  39.340   0.728
11482W        W76467  23.051  32.619  12.334
11483W        W76468  14.733  19.318   2.278
11484W        W76469  41.364  30.835   4.128
11485W        W76470   0.393  33.924  13.183
11486W        W76471  10.084  10.739   0.940
11487W        W76472  30.168  30.198   4.112
11488W        W76473  12.290   3.650   4.966
11489W        W76474  23.594  15.734   3.353
11490W        W76475  24.022  41.519  12.947
11491W        W76476  31.369   8.175  13.590
11492W        W76477   2.439   0.545  11.838
11493W        W76478  40.375   0.304  11.221
11494W        W76479  38.405   2.370  11.908
11495W        W76480   4.207  33.622   0.889
11496W        W76481  31.841   0.192   3.429
11497W        W76482  36.518  39.756  10.404
11498W        W76483   8.708  12.344  12.408
11499W        W76484   6.395  28.085   2.223
11500W        W76485   2.249  30.969  11.044
11501W        W76486   6.802   7.735   2.608
11502W        W76487  29.140  22.543   2.337
11503W        W76488  43.280  26.620  11.101
11504W        W76489   0.349  15.519  11.099
11505W        W76490  30.984  36.381  10.685
11506W        W76491  44.048  14.826  13.953
11507W        W76492  40.895  25.959   4.218
11508W        W76493  43.725  40.846  11.798
11509W        W76494   6.152  17.656   3.698
11510W        W76495  22.774  15.567  12.389
11511W        W76496  31.595  27.493   0.426
11512W        W76497   9.841   4.403  10.903
11513W        W76498  40.118  41.361   0.814
11514W        W76499  20.720   0.213  13.852
11515W        W76500  32.668  30.149   2.150
11516W        W76501  35.531  14.694   0.428
11517W        W76502  31.231  16.369   0.249
11518W        W76503  11.207  34.326   1.940
11519W        W76504   4.319  33.266   1.258
11520W        W76505  39.265  17.307  11.970
11521W        W76506  11.534  28.353   1.841
11522W        W76507  27.714  33.052   2.955
11523W        W76508   9.541  14.840   1.805
11524W        W76509  41.021   9.215   1.884
11525W        W76510  23.006  18.723  13.510
11526W        W76511  26.198  43.488   9.897
11527W        W76512   6.694  25.988  14.841
11528W        W76513  24.145  42.919   3.222
11529W        W76514  42.299  15.737   1.324
11530W        W76515  14.531  17.176  11.119
11531W        W76516  41.789  42.956   5.130
11532W        W76517  36.420   6.330   0.402
11533W        W76518  35.139  40.408   2.256
11534W        W76519  13.054   8.551  12.501
11535W        W76520  25.406  37.062   2.228
11536W        W76521  38.459  23.229   3.802
11537W        W76522  24.133  44.299   0.969
11538W        W76523  44.423  44.880   2.722
11539W        W76524  13.810  27.768  13.357
11540W        W76525  37.795  14.300  13.940
11541W        W76526  42.896  38.267   2.215
11542W        W76527   9.157  42.295   2.234
11543W        W76528  18.604  35.817   3.946
11544W        W76529  23.467   2.427   0.679
11545W        W76530   2.409  18.692   1.171
11546W        W76531   8.017  42.017   4.598
11547W        W76532  11.316  18.659  12.173
11548W        W76533  11.803  30.353  13.886
11549W        W76534  11.386   8.596  10.612
11550W        W76535  41.767  28.613   1.852
11551W        W76536  24.082  25.191  13.156
11552W        W76537  33.418   1.905  10.654
11553W        W76538   6.210  39.506   1.836
11554W        W76539  34.215  16.181   0.926
11555W        W76540  36.910   4.841   2.713
11556W        W76541  11.623  31.605  12.055
11557W        W76542   0.907  40.532   4.508
11558W        W76543  28.776  21.015  11.609
11559W        W76544  11.349  28.664   4.254
11560W        W76545   6.303  31.840  10.415
11561W        W76546  24.143   4.554  14.039
11562W        W76547  38.535  25.585  12.863
11563W        W76548  42.935  13.411  11.967
11564W        W76549  44.276  33.235   2.519
11565W        W76550  30.511  20.600   3.761
11566W        W76551  12.840  27.437  10.247
11567W        W76552   9.943  12.385  14.518
11568W        W76553  25.434  29.660  12.894
11569W        W76554  36.818  21.867   4.050
11570W        W76555   7.926   3.731   1.932
11571W        W76556  12.592   6.160   1.129
11572W        W76557  32.574  12.562   5.052
11573W        W76558  24.553  21.128   3.699
11574W        W76559  21.020   0.912   2.489
11575W        W76560  15.640  22.503   0.810
11576W        W76561   6.031  39.090  10.605
11577W        W76562  33.498  40.056   1.697
11578W        W76563  12.615  35.986   1.013
11579W        W76564   4.779   0.338  10.674
11580W        W76565  30.183  20.856  13.875
11581W        W76566  30.379   9.667   1.524
11582W        W76567   2.004  30.472  14.443
11583W        W76568  24.399  41.661   1.354
11584W        W76569  40.353  39.470   4.179
11585W        W76570  34.269  26.720  12.642
11586W        W76571   5.117  16.150   0.819
11587W        W76572  26.561   5.139  12.430
11588W        W76573  44.962  40.895   4.553
11589W        W76574  25.022  36.353  11.266
11590W        W76575  30.354  22.620   2.743
11591W        W76576  18.273   7.414   3.998
11592W        W76577  40.080  11.585  12.457
11593W        W76578  35.883  21.214   2.591
11594W        W76579  37.403  44.497   4.855
11595W        W76580   2.960  40.732  12.128
11596W        W76581  33.183  17.709  14.060
11597W        W76582  33.614  15.087  14.083
11598W        W76583  20.241  44.316  13.961
11599W        W76584  41.351  39.064  11.493
11600W        W76585   9.026  34.998   2.357
11601W        W76586  25.723  37.188   4.056
11602W        W76587  25.144  37.272  14.352
11603W        W76588  11.386  25.208   4.196
11604W        W76589  10.108   8.185   0.524
11605W        W76590  44.375  33.163   0.840
11606W        W76591  14.772  17.499   0.331
11607W        W76592  32.665  40.549   4.384
11608W        W76593  43.030   1.779  11.570
11609W        W76594  23.555  39.712   2.843
11610W        W76595  14.790   6.187  13.054
11611W        W76596  33.190  11.133   4.251
11612W        W76597   3.068  44.815   3.281
11613W        W76598  11.193  31.228  10.660
11614W        W76599  43.559  13.342   2.712
11615W        W76600  44.577  37.002   4.839
11616W        W76601  15.227  19.660   4.775
11617W        W76602   1.598  14.630  11.213
11618W        W76603   8.907  15.860   2.674
11619W        W76604   4.013  23.561   4.000
11620W        W76605  19.743  15.696  11.172
11621W        W76606  28.323  11.369  12.117
11622W        W76607  31.172  21.133  14.779
11623W        W76608  31.297  19.377  14.308
11624W        W76609  28.553  29.449   2.843
11625W        W76610  34.015  22.110   2.059
11626W        W76611  43.524  15.185  12.171
11627W        W76612  30.579  25.700   1.901
11628W        W76613   2.761  11.235  11.066
11629W        W76614  32.483  27.702   1.424
11630W        W76615  41.820   4.643   0.245
11631W        W76616   1.320  21.172   2.349
11632W        W76617  21.788  37.424   2.795
11633W        W76618  34.501  41.386  14.962
11634W        W76619  10.094   1.882  14.832
11635W        W76620   7.488   5.961  10.738
11636W        W76621  21.933  32.207   5.110
11637W        W76622  21.689  31.494   1.404
11638W        W76623  10.169  13.739   0.833
11639W        W76624   8.342  39.906  11.381
11640W        W76625  17.244  24.883   4.615
11641W        W76626   8.661  19.510  10.821
11642W        W76627   9.834  17.887   1.857
11643W        W76628   4.800  10.533   2.732
11644W        W76629   5.183   4.563  11.579
11645W        W76630  21.670  14.657   5.018
11646W        W76631  31.342  12.220  12.918
11647W        W76632  28.270   3.441  14.390
11648W        W76633   3.435  37.873   4.373
11649W        W76634  24.408   2.944   1.279
11650W        W76635   1.947   8.579   4.331
11651W        W76636  20.262   7.668   2.296
11652W        W76637  44.019  21.650   0.533
11653W        W76638   8.651   4.277  13.999
11654W        W76639  17.229  37.331  10.743
11655W        W76640  37.302  10.544  10.963
11656W        W76641  11.170  34.917  11.806
11657W        W76642   9.773  30.676  13.279
11658W        W76643  29.396   3.928  14.989
11659W        W76644  29.528  41.296   2.495
11660W        W76645   6.850  10.086   3.677
11661W        W76646  33.919  29.261   1.413
11662W        W76647  23.554  38.987   0.940
11663W        W76648  33.637  23.636   3.588
11664W        W76649  13.032  40.721   0.545
11665W        W76650  16.743  19.205   4.693
11666W        W76651  39.582  32.568   3.208
11667W        W76652   9.627  13.679  13.806
11668W        W76653   2.571  19.734   4.688
11669W        W76654  13.610  10.147   3.675
11670W        W76655  19.942  41.258  14.903
11671W        W76656  33.305  11.091   0.030
11672W        W76657  33.477  36.444   0.761
11673W        W76658  25.378   2.847  10.245
11674W        W76659  14.509  25.389  13.008
11675W        W76660  16.764   0.228   4.142
11676W        W76661   8.238   9.262  14.822
11677W        W76662   7.083   2.723   0.765
11678W        W76663  34.529  25.696  13.522
11679W        W76664  21.047  19.697  11.657
11680W        W76665  38.811  21.639   3.025
11681W        W76666  27.613  44.267   0.028
11682W        W76667  10.291   9.494  11.602
11683W        W76668  13.639  32.526   2.633
11684W        W76669  12.523  33.259   2.734
11685W        W76670  24.597  15.610  11.782
11686W        W76671   8.590  24.177   0.894
11687W        W76672   8.464  28.996  14.510
11688W        W76673  18.994  10.127  11.999
11689W        W76674  29.348   5.972   2.135
11690W        W76675  22.665  19.854  13.578
11691W        W76676   8.829   0.764   3.272
11692W        W76677   5.790  34.048   1.698
11693W        W76678   2.246  20.119   0.311
11694W        W76679   1.038  29.454  10.544
11695W        W76680   0.848   1.217  12.910
11696W        W76681  42.849   1.335  11.198
11697W        W76682   8.089  37.885  13.764
11698W        W76683  41.160  30.380  13.536
11699W        W76684  19.823  25.068   1.252
11700W        W76685  27.541  22.757  13.569
11701W        W76686  43.802  41.535  13.034
11702W        W76687  37.862  14.930   4.050
11703W        W76688   7.380  10.654  13.761
11704W        W76689   8.208  41.430  14.798
11705W        W76690   6.860   8.040   0.064
11706W        W76691   0.430  41.464  11.955
11707W        W76692  14.936  42.922  10.411
11708W        W76693  11.452  22.077   0.464
11709W        W76694   3.533  29.536   4.242
11710W        W76695  41.180  27.097  13.510
11711W        W76696  29.269  40.544   2.100
11712W        W76697  43.742  30.253  12.611
11713W        W76698   8.334  21.507   1.361
11714W        W76699  23.033  42.458   4.365
11715W        W76700  25.579  31.436  13.737
11716W        W76701  33.539  21.960  14.774
11717W        W76702  17.686   6.712   2.611
11718W        W76703  24.293  17.365  11.607
11719W        W76704  35.954  18.590  12.333
11720W        W76705  27.623  36.338   4.162
11721W        W76706   6.105  42.897   0.866
11722W        W76707   4.347  42.346   4.257
11723W        W76708  13.083  29.089  14.495
11724W        W76709  15.707  42.656  11.136
11725W        W76710   0.408  18.695  14.502
11726W        W76711   0.458  35.537  12.504
11727W        W76712  10.748  20.035   2.341
11728W        W76713  38.761  16.664   9.956
11729W        W76714  27.378  16.205  12.733
11730W        W76715  29.608   5.850  14.410
11731W        W76716  18.724  27.701   0.960
11732W        W76717   0.817  14.053  12.191
11733W        W76718   2.526  28.522  10.638
11734W        W76719  30.075   8.017  14.000
11735W        W76720  19.323   6.950  13.595
11736W        W76721   0.177  35.819   2.805
11737W        W76722  20.810  30.542  14.952
11738W        W76723  38.399  27.251   3.701
11739W        W76724   3.449  13.640   2.877
11740W        W76725   4.670  20.085  14.986
11741W        W76726  35.858  15.435  14.975
11742W        W76727   9.665  34.318   1.325
11743W        W76728   8.343  39.225  13.658
11744W        W76729   2.935   7.697  10.748
11745W        W76730  33.772  22.359   3.470
11746W        W76731  35.621  14.876   0.909
11747W        W76732  38.824  23.452   4.117
11748W        W76733  23.401   8.822  10.251
11749W        W76734  23.957  16.335   4.063
11750W        W76735  20.027  29.924  14.064
11751W        W76736  29.622   9.414   0.254
11752W        W76737  41.871  32.591   0.293
11753W        W76738  35.534  36.132   0.037
11754W        W76739  25.438  27.644  13.391
11755W        W76740  26.699   5.504  13.302
11756W        W76741  16.493  17.722   0.271
11757W        W76742  40.973  30.530  14.510
11758W        W76743  24.305  10.888  12.623
11759W        W76744  36.427  38.312   3.383
11760W        W76745  10.683  44.350  11.688
11761W        W76746  23.989   6.873  12.251
11762W        W76747  19.077  23.687   4.482
11763W        W76748   5.473  25.264   4.220
11764W        W76749   3.573  31.827   0.756
11765W        W76750  31.384  27.417  12.562
11766W        W76751  27.200   6.176   2.157
11767W        W76752   1.894  16.356   4.103
11768W        W76753  30.404  29.840  13.094
11769W        W76754  21.837  20.661  12.122
11770W        W76755  42.749  13.301   4.065
11771W        W76756   7.881  15.103   4.261
11772W        W76757  30.953  32.657   0.793
11773W        W76758  42.824  19.301  12.114
11774W        W76759   0.364  39.358   4.393
11775W        W76760   7.686  43.801  12.575
11776W        W76761  31.656  21.224   3.665
11777W        W76762  21.209  18.491   2.063
11778W        W76763  15.268  28.743  14.850
11779W        W76764  24.098  17.638  10.881
11780W        W76765  15.351  35.668  14.972
11781W        W76766  29.214   8.762   3.551
11782W        W76767   5.375  27.478   4.940
11783W        W76768  44.762   5.509  14.328
11784W        W76769   6.743  29.868   3.814
11785W        W76770  36.047  29.161  14.382
11786W        W76771   2.615  29.113   1.511
11787W        W76772  32.118  21.446   0.385
11788W        W76773  43.406  41.014   4.930
11789W        W76774  20.525  35.469   4.085
11790W        W76775  13.340  21.006   1.875
11791W        W76776   3.488  20.457  10.266
11792W        W76777  27.561   3.485   1.384
11793W        W76778  27.166  31.408   3.169
11794W        W76779  42.364  15.268  11.506
11795W        W76780  35.394  44.154   2.292
11796W        W76781  41.619  38.328  14.135
11797W        W76782  21.275   9.609   0.221
11798W        W76783  35.819  40.943   3.802
11799W        W76784  14.714  13.629  14.186
11800W        W76785  12.207   6.423   1.374
11801W        W76786  15.084  21.634  12.151
11802W        W76787  44.419   1.732  14.469
11803W        W76788  12.416  31.928   1.389
11804W        W76789   9.149  31.337  13.058
11805W        W76790  16.158  22.275   0.791
11806W        W76791  11.122  11.162   1.229
11807W        W76792  34.385   7.172  14.329
11808W        W76793  34.448  44.431  14.325
11809W        W76794   0.704   3.045  12.134
11810W        W76795   8.911  19.328  14.532
11811W        W76796  10.398  32.523   3.172
11812W        W76797   9.419  41.987   4.128
11813W        W76798   5.353  14.383   1.354
11814W        W76799  40.970  16.292  13.025
11815W        W76800  32.863  10.807   1.694
11816W        W76801  16.805   6.648   2.774
11817W        W76802   4.043  42.586   0.327
11818W        W76803  31.455   9.768  12.552
11819W        W76804  44.852  31.508   3.364
11820W        W76805  16.268  12.125   1.339
11821W        W76806  23.260  44.530  13.561
11822W        W76807  25.720  21.271  14.148
11823W        W76808  23.664  38.147  11.623
11824W        W76809  33.169  29.384  12.036
11825W        W76810  17.783  44.515  12.997
11826W        W76811   7.239   6.672  13.032
11827W        W76812  22.930  27.880  10.227
11828W        W76813  29.838  32.167   5.492
11829W        W76814   1.238   3.005  12.910
11830W        W76815  42.488  40.107  11.621
11831W        W76816  11.689  38.802   4.030
11832W        W76817  38.941  30.353   0.268
11833W        W76818  44.307  20.307  12.196
11834W        W76819  20.945   8.320  14.826
11835W        W76820  16.805  10.850  14.103
11836W        W76821  44.688  40.270  13.039
11837W        W76822  38.523  20.762  12.931
11838W        W76823   7.768   3.192   4.962
11839W        W76824  18.378  32.147   3.814
11840W        W76825  11.288  34.575   3.371
11841W        W76826   5.752  11.283   0.671
11842W        W76827  36.655   0.447  14.389
11843W        W76828  44.753  17.922   4.043
11844W        W76829  32.415  35.962   3.161
11845W        W76830  41.390  21.736   0.498
11846W        W76831  17.221  26.172  13.868
11847W        W76832  24.120  11.652   2.786
11848W        W76833  11.614   4.465  14.965
11849W        W76834  29.571  40.317  12.058
11850W        W76835  37.461  33.640   4.197
11851W        W76836  38.612  13.891  10.981
11852W        W76837  39.766  12.781   1.792
11853W        W76838   5.303  27.357  11.136
11854W        W76839  30.514   9.468  10.501
11855W        W76840  32.125  33.111  11.159
11856W        W76841  16.919  22.485   1.924
11857W        W76842   9.304  28.997   1.163
11858W        W76843  29.693  38.464   0.317
11859W        W76844  14.769  34.393   4.225
11860W        W76845  23.801  14.042  12.944
11861W        W76846  14.239  13.029  13.838
11862W        W76847  13.579  14.810   2.660
11863W        W76848  39.280  37.988  11.495
11864W        W76849  41.771  20.355  13.365
11865W        W76850  38.408  38.036   3.396
11866W        W76851  33.111  18.126  12.396
11867W        W76852   8.644  38.858  12.749
11868W        W76853   2.398   5.713   0.558
11869W        W76854  16.485  18.298  13.552
11870W        W76855  34.552   4.873   4.235
11871W        W76856  11.340  29.405  12.563
11872W        W76857  23.304  32.534   4.572
11873W        W76858  23.465  10.704   1.866
11874W        W76859  13.825  35.012  12.187
11875W        W76860  30.038  30.551  10.791
11876W        W76861   7.686  10.688  12.051
11877W        W76862   3.612   1.151   4.955
11878W        W76863  35.896  17.251  13.394
11879W        W76864  11.651  39.522   1.775
11880W        W76865  16.805  22.217   3.293
11881W        W76866  23.204  37.906  10.735
11882W        W76867  41.076   4.864  13.377
11883W        W76868   2.759  41.658   2.355
11884W        W76869  10.295  23.506  13.536
11885W        W76870  12.727  17.785   2.758
11886W        W76871  35.390   4.220   3.326
11887W        W76872  43.834   8.441   4.715
11888W        W76873  25.570  16.771   4.516
11889W        W76874  37.062   4.010  12.534
11890W        W76875   4.850  30.546  12.128
11891W        W76876  42.411   1.948   0.083
11892W        W76877  15.081  28.568   0.310
11893W        W76878   0.499  36.857  12.066
11894W        W76879  40.609   9.021  13.658
11895W        W76880  27.054  16.144   4.803
11896W        W76881   2.450  43.757   0.085
11897W        W76882  12.757  44.943   0.225
11898W        W76883  24.790  34.434  13.328
11899W        W76884   9.059  10.227  12.065
11900W        W76885  37.022  19.092  14.592
11901W        W76886   1.524  27.142   1.891
11902W        W76887  29.466   8.465  10.424
11903W        W76888  34.811  40.740   0.237
11904W        W76889   7.582  10.117  14.887
11905W        W76890  16.575  17.794  13.694
11906W        W76891  15.468  14.573   0.912
11907W        W76892  44.849   5.374   4.648
11908W        W76893  32.757  35.564   3.115
11909W        W76894  27.724  10.733  14.994
11910W        W76895  30.171  43.475   1.701
11911W        W76896  17.645  20.611   1.272
11912W        W76897  27.198   2.434  13.365
11913W        W76898  12.688   4.195   3.762
11914W        W76899  30.712  41.846   5.092
11915W        W76900   7.242  10.129  11.588
11916W        W76901  28.804  28.869  14.188
11917W        W76902  24.619  39.820   3.269
11918W        W76903  38.299  19.030  13.462
11919W        W76904  30.981  20.541   3.522
11920W        W76905  18.101  29.903  13.069
11921W        W76906   0.043  40.688  12.931
11922W        W76907  30.918   6.401   1.359
11923W        W76908   3.844  42.919  13.832
11924W        W76909  17.562  18.656   3.513
11925W        W76910  23.313  26.078  14.734
11926W        W76911  37.487   0.374   1.706
11927W        W76912  44.318  32.049   3.289
11928W        W76913   4.972  40.536  13.040
11929W        W76914   6.038  32.608  14.761
11930W        W76915  43.133  41.772   4.123
11931W        W76916  20.643   3.246   0.238
11932W        W76917  33.568  17.168   2.740
11933W        W76918  19.910  17.823  12.131
11934W        W76919  42.739   5.351  12.022
11935W        W76920  20.026  34.647  12.508
11936W        W76921  36.079   1.306   0.948
11937W        W76922  30.683  37.438   2.610
11938W        W76923   6.389  12.790   2.345
11939W        W76924  16.507  25.088  11.974
11940W        W76925   2.395  25.083   2.393
11941W        W76926  33.597  36.652   1.872
11942W        W76927  25.166  32.140  10.838
11943W        W76928   6.854  28.215   0.994
11944W        W76929  16.391   4.905  14.791
11945W        W76930  25.761  28.109   3.984
11946W        W76931  21.867  26.458  14.341
11947W        W76932  39.009  39.163   4.057
11948W        W76933  11.938  21.106   2.635
11949W        W76934  32.930  31.194  10.598
11950W        W76935  21.302  10.365  11.231
11951W        W76936  29.559  18.443  14.004
11952W        W76937   5.085  30.306  10.858
11953W        W76938  39.283  17.552  13.507
11954W        W76939  22.750  41.533  12.104
11955W        W76940  32.672  24.999   0.991
11956W        W76941  30.036  26.370  11.212
11957W        W76942  22.288  25.580  11.485
11958W        W76943  26.102  25.069  10.686
11959W        W76944  24.875   9.519  14.422
11960W        W76945  15.144  35.455  11.166
11961W        W76946   7.789  23.831   4.636
11962W        W76947  40.825  20.611  12.018
11963W        W76948   1.462   4.389   3.727
11964W        W76949  27.006   1.788  10.830
11965W        W76950  11.675  22.493   0.696
11966W        W76951  43.785  22.681   1.734
11967W        W76952  15.803  17.626   4.568
11968W        W76953  24.542   2.322   2.113
11969W        W76954  33.166  44.031   2.314
11970W        W76955  11.716  44.449  13.105
11971W        W76956  28.488  12.596  14.401
11972W        W76957  31.884  31.098  13.499
11973W        W76958   1.913   3.243   5.279
11974W        W76959   0.731   1.446   2.956
11975W        W76960  31.077  33.450  11.571
11976W        W76961  28.678  32.516  12.692
11977W        W76962  37.551  23.157  13.341
11978W        W76963  26.499  16.089   3.211
11979W        W76964  10.841  39.320   3.530
11980W        W76965  40.420  30.102  11.085
11981W        W76966   8.426  24.155  12.794
11982W        W76967  12.758   4.376  11.569
11983W        W76968   2.589  41.861   3.090
11984W        W76969   8.248  28.228   4.922
11985W        W76970   4.039  17.492  14.094
11986W        W76971  11.400  41.903   1.321
11987W        W76972   1.611  28.417  14.841
11988W        W76973   5.097  33.568   2.659
11989W        W76974  13.267  34.689   0.994
11990W        W76975  31.309  16.705   1.203
11991W        W76976  27.915  35.739  12.498
11992W        W76977  15.710  28.112  14.386
11993W        W76978   5.822  19.635  14.525
11994W        W76979  42.335  11.421   2.283
11995W        W76980   7.469  37.573  10.241
11996W        W76981  39.886  19.695  10.622
11997W        W76982  39.382  13.623  12.041
11998W        W76983  17.157  21.096  14.847
11999W        W76984  28.431  23.961   1.130
12000W        W76985  17.792  35.428  12.659
12001W        W76986  13.055  29.384   2.833
12002W        W76987   0.034  14.148   0.753
12003W        W76988   4.163  34.894   3.915
12004W        W76989   2.834  42.007  12.967
12005W        W76990  22.836  36.872  13.882
12006W        W76991   8.767   1.849   3.750
12007W        W76992  30.261  36.574   2.771
12008W        W76993  19.799  25.465  12.125
12009W        W76994  43.257  41.855  13.721
12010W        W76995  42.998  33.844  12.844
12011W        W76996  31.612  18.587   4.619
12012W        W76997  42.049  42.417  13.037
12013W        W76998  36.443  16.568   3.899
12014W        W76999   3.699  40.015  13.951
12015W        W77000   8.273  31.939   2.620
12016W        W77001  22.422   7.679  11.989
12017W        W77002  39.611  38.838   3.906
12018W        W77003  13.102  19.106   3.335
12019W        W77004  40.359  38.119  14.054
12020W        W77005   0.199  38.455   4.020
12021W        W77006  15.659  18.814   0.310
12022W        W77007  28.068  38.298   2.801
12023W        W77008  19.230   7.344   0.847
12024W        W77009  19.961  12.365  14.257
12025W        W77010   0.498  14.823  14.572
12026W        W77011  25.042  21.069   0.241
12027W        W77012  34.128  41.444  11.207
12028W        W77013   2.821   0.346   2.570
12029W        W77014  13.200  43.563   0.415
12030W        W77015  20.481  30.964  13.720
12031W        W77016   7.761  25.627   3.621
12032W        W77017   4.671   3.953   0.520
12033W        W77018  33.744  19.258   4.184
12034W        W77019  41.345  18.277   4.610
12035W        W77020  33.889  34.507  10.784
12036W        W77021  20.653  14.700   4.102
12037W        W77022  21.304  40.871  12.952
12038W        W77023  25.659  35.933  10.770
12039W        W77024   8.390  29.173   2.183
12040W        W77025   9.055  16.563   1.956
12041W        W77026  20.046  17.177  13.350
12042W        W77027  30.562   8.974  10.722
12043W        W77028   1.865  17.507   2.372
12044W        W77029  38.063  31.265   0.245
12045W        W77030  39.592  14.747  14.441
12046W        W77031  16.846  14.803   1.410
12047W        W77032  38.982  27.151  11.720
12048W        W77033  16.917  21.909   3.702
12049W        W77034  11.824   8.263  13.137
12050W        W77035  38.355  24.098   2.881
12051W        W77036  24.233  15.865   1.796
12052W        W77037  13.133  26.931  12.427
12053W        W77038  28.655  26.006   1.412
12054W        W77039  25.762  25.467   0.845
12055W        W77040  28.831  39.490   2.733
12056W        W77041  14.589   9.613   0.358
12057W        W77042  33.267  30.175  13.056
12058W        W77043  32.120  41.009  13.883
12059W        W77044  15.056  34.264  13.083
12060W        W77045  38.527  26.987   2.042
12061W        W77046  43.397   7.227   3.306
12062W        W77047   6.774   2.590  10.456
12063W        W77048  42.255  28.060   0.836
12064W        W77049  10.245  17.163   2.664
12065W        W77050   4.215   3.321  11.082
12066W        W77051   9.309  12.737  11.627
12067W        W77052  13.604   6.069   0.269
12068W        W77053  27.080  17.366   3.752
12069W        W77054  16.815   7.406   1.371
12070W        W77055  10.814  16.753  11.954
12071W        W77056  17.066   4.787  12.991
12072W        W77057  25.183  15.007   4.074
12073W        W77058  40.535  21.738  11.563
12074W        W77059  35.002  35.814   4.735
12075W        W77060  43.742  26.043   3.244
12076W        W77061  26.669  32.704   0.708
12077W        W77062  36.774  22.759   3.285
12078W        W77063   8.295  29.609   4.826
12079W        W77064   1.053  28.477   4.635
12080W        W77065  35.755  41.006   0.357
12081W        W77066  12.023  17.868   4.126
12082W        W77067  29.388  31.050  11.439
12083W        W77068  38.828  22.277   1.710
12084W        W77069   1.731  11.774  13.799
12085W        W77070  17.735  44.310   1.029
12086W        W77071  16.281   3.768   3.166
12087W        W77072  21.766  25.487   2.441
12088W        W77073  40.460  28.588   4.049
12089W        W77074  29.617  11.697  13.631
12090W        W77075   1.899   3.407   0.821
12091W        W77076  15.800   0.143   4.469
12092W        W77077  19.748  14.954   0.723
12093W        W77078   9.202  11.201  14.715
12094W        W77079  44.909  34.634  14.749
12095W        W77080  39.075  11.181  11.606
12096W        W77081  25.794  43.876  10.458
12097W        W77082   5.527  29.014   4.285
12098W        W77083  44.069  33.965   1.276
12099W        W77084   5.999  26.988  10.425
12100W        W77085  16.479  44.059   2.733
12101W        W77086  15.659   7.395   4.591
12102W        W77087   8.293   7.381   0.262
12103W        W77088  18.186   6.683   1.452
12104W        W77089  33.384  43.421   4.151
12105W        W77090  31.451   1.731  13.964
12106W        W77091  26.440   8.500   1.872
12107W        W77092  23.961  38.575  12.069
12108W        W77093   8.572  24.727  14.923
12109W        W77094  37.413  36.518   4.563
12110W        W77095  31.982  34.926  13.024
12111W        W77096  29.461  26.478  10.364
12112W        W77097   1.012  19.546  14.293
12113W        W77098  37.929   8.293  10.768
12114W        W77099  28.900  33.459  13.063
12115W        W77100  14.065  37.114   1.843
12116W        W77101  19.396  22.212   2.819
12117W        W77102   6.364  20.585  11.056
12118W        W77103  15.569  34.527  12.018
12119W        W77104  17.025  19.667   4.116
12120W        W77105  21.717  32.567  14.465
12121W        W77106   2.550  29.024  14.482
12122W        W77107   1.865  14.694   4.188
12123W        W77108   2.521  40.924   1.684
12124W        W77109  22.566  24.270  13.989
12125W        W77110  23.010  14.681  10.682
12126W        W77111  14.137  25.160   1.810
12127W        W77112  31.954  13.830   0.252
12128W        W77113  33.487  14.142  14.054
12129W        W77114  19.277  28.146   4.782
12130W        W77115  23.576  30.165   0.371
12131W        W77116  33.232  32.597   2.261
12132W        W77117  15.498  19.972  14.858
12133W        W77118  42.364  20.651  14.601
12134W        W77119   9.668  44.961   0.984
12135W        W77120  32.998   3.688  12.883
12136W        W77121  25.678   7.827   1.842
12137W        W77122  20.529  44.936  13.435
12138W        W77123  37.871  28.007  13.876
12139W        W77124  14.096  19.082   0.315
12140W        W77125  29.538  21.585  14.426
12141W        W77126  38.556  17.136  14.494
12142W        W77127  27.091  19.209   3.906
12143W        W77128  10.892  13.171   1.468
12144W        W77129  42.251  37.196   4.648
12145W        W77130  14.634   1.920   1.277
12146W        W77131  34.172  22.667  13.584
12147W        W77132  43.854   0.481  11.187
12148W        W77133  24.030  31.969  11.666
12149W        W77134  28.091  36.595  13.578
12150W        W77135   3.930  24.559  14.460
12151W        W77136  15.677  31.855   0.451
12152W        W77137  19.234  20.758  11.142
12153W        W77138  41.181  43.370   1.440
12154W        W77139  18.661  10.531   3.040
12155W        W77140  13.341  30.401  12.276
12156W        W77141   9.819  23.236   4.887
12157W        W77142   0.881  39.061   0.359
12158W        W77143  34.030   3.208   3.335
12159W        W77144  37.577  35.509   1.302
12160W        W77145   2.742  10.931  13.493
12161W        W77146   2.548  41.908   4.955
12162W        W77147   4.455  29.880   4.162
12163W        W77148   2.045   9.620   1.892
12164W        W77149  28.027  19.767  11.560
12165W        W77150  38.772  15.608   0.328
12166W        W77151  41.445  34.926  13.898
12167W        W77152  39.317  39.979  13.810
12168W        W77153   5.694  15.188   1.403
12169W        W77154  35.145  23.022  11.844
12170W        W77155  21.076  11.311  12.102
12171W        W77156  28.677   1.277   2.292
12172W        W77157  21.753  38.106  11.628
12173W        W77158  26.614  17.335  13.559
12174W        W77159  11.964   9.745  14.912
12175W        W77160  28.034  42.055   4.342
12176W        W77161  29.744  25.162  10.687
12177W        W77162  36.907  44.773   2.559
12178W        W77163  37.412   1.735   2.891
12179W        W77164  21.542  22.623   0.289
12180W        W77165  19.018  12.573   4.835
12181W        W77166  13.780  39.150   4.073
12182W        W77167  31.540  10.650   0.795
12183W        W77168   0.279  15.683   1.763
12184W        W77169  12.820  42.071  11.150
12185W        W77170  25.552  11.041  13.103
12186W        W77171  37.072   5.653   3.227
12187W        W77172  41.436  22.974   3.085
12188W        W77173  17.555  42.731  10.423
12189W        W77174  15.360  42.017   4.071
12190W        W77175  39.815  16.969  13.293
12191W        W77176  39.018  40.040   4.296
12192W        W77177  24.763  28.118  11.665
12193W        W77178  27.386  37.546  14.978
12194W        W77179  11.956  15.680  13.051
12195W        W77180   3.886  39.976   3.371
12196W        W77181  40.449   1.405   1.663
12197W        W77182  16.380   5.291  13.137
12198W        W77183  33.032  38.920  14.907
12199W        W77184  36.510  25.757   4.632
12200W        W77185  10.977  26.521   5.008
12201W        W77186  17.941   7.892   3.803
12202W        W77187  20.184  11.610  13.805
12203W        W77188   3.318  24.289   4.136
12204W        W77189  29.549   0.474  13.334
12205W        W77190  21.573  33.397   2.683
12206W        W77191  13.762  38.860   0.023
12207W        W77192  17.357  42.740   3.852
12208W        W77193  42.757   4.374   2.824
12209W        W77194  35.103  40.044   2.621
12210W        W77195  18.482  26.612   0.338
12211W        W77196  37.331  43.504   1.349
12212W        W77197  24.026   3.752  14.564
12213W        W77198  19.397  36.388  11.698
12214W        W77199  21.337  39.434   4.003
12215W        W77200  30.096  32.877   2.646
12216W        W77201  23.481  27.011  13.898
12217W        W77202  34.966  33.143  10.478
12218W        W77203   5.887  35.145  13.971
12219W        W77204  33.525  31.892  14.927
12220W        W77205   1.175   7.579   2.653
12221W        W77206  11.154  29.493   1.850
12222W        W77207  23.962  12.603   2.335
12223W        W77208   7.832  32.022   4.921
12224W        W77209  39.796   2.408  12.531
12225W        W77210  30.787  17.714   0.122
12226W        W77211  21.493  36.362  13.573
12227W        W77212   8.812   5.606  14.460
12228W        W77213  27.006  15.801  13.807
12229W        W77214  19.305  10.160   0.650
12230W        W77215  42.007  10.926   4.468
12231W        W77216  24.296  43.318  14.844
12232W        W77217  23.969  11.146   2.924
12233W        W77218  25.636  35.326  13.519
12234W        W77219   5.184  23.287  10.662
12235W        W77220  43.435   2.973   2.687
12236W        W77221   2.786  40.109   4.380
12237W        W77222  19.548   5.792  13.258
12238W        W77223  13.451  30.905  14.350
12239W        W77224  38.523  29.223   1.054
12240W        W77225  11.720   2.557   2.211
12241W        W77226  43.992  35.875  14.762
12242W        W77227  17.776  43.922  11.235
12243W        W77228  39.053  13.600  13.342
12244W        W77229  44.395  35.162   0.431
12245W        W77230  37.574  27.926   4.199
12246W        W77231  42.536   6.895  13.976
12247W        W77232   6.648   8.253   1.843
12248W        W77233  23.313  18.399  11.879
12249W        W77234   0.731   1.391  11.661
12250W        W77235  25.566  19.375  11.671
12251W        W77236   5.775  29.607  13.269
12252W        W77237  13.627  41.996   3.479
12253W        W77238  21.116  33.973  14.726
12254W        W77239  17.088  14.402  12.853
12255W        W77240  34.099   9.129  11.670
12256W        W77241  32.634   7.055  13.792
12257W        W77242  11.314  12.920  12.413
12258W        W77243   5.430  29.473  12.853
12259W        W77244  13.654   5.334  11.122
12260W        W77245  33.442  25.601   2.757
12261W        W77246  19.552  12.781  11.646
12262W        W77247  14.323  32.449   1.384
12263W        W77248  33.378  31.058  11.940
12264W        W77249  13.587   0.100  14.400
12265W        W77250  13.218   2.881   2.653
12266W        W77251  15.766  30.943   0.125
12267W        W77252   8.130  37.917   0.504
12268W        W77253  14.535  17.019  10.205
12269W        W77254  39.975  25.274  14.420
12270W        W77255  14.382  42.942  11.874
12271W        W77256  20.287  30.151  12.533
12272W        W77257  14.735  34.626  12.901
12273W        W77258  13.128  27.437   1.559
12274W        W77259  19.140  12.795  12.930
12275W        W77260   4.278  14.067   0.047
12276W        W77261  20.446   8.334  14.894
12277W        W77262   9.963  22.839   3.141
12278W        W77263  14.311  20.706   2.666
12279W        W77264  31.020   2.097   2.371
12280W        W77265  16.268  15.521  12.596
12281W        W77266  10.633   3.393  11.980
12282W        W77267  36.942  21.424  13.076
12283W        W77268   4.295  32.950  14.367
12284W        W77269  19.633  29.941  14.879
12285W        W77270  17.543  14.906   0.355
12286W        W77271   5.971   6.939   4.190
12287W        W77272  22.021   6.337  12.917
12288W        W77273  11.903  11.391  12.220
12289W        W77274  18.515  41.439  11.209
12290W        W77275  37.179   5.185  10.920
12291W        W77276  29.418   5.432  11.137
12292W        W77277  43.148  21.268  12.928
12293W        W77278  24.072  38.972   4.980
12294W        W77279  10.829  36.330   2.396
12295W        W77280  15.450  23.733   3.624
12296W        W77281  23.720  36.218   0.127
12297W        W77282  34.754  17.188  11.158
12298W        W77283  42.343  38.552   3.255
12299W        W77284  44.408  43.422  11.174
12300W        W77285  11.965  11.008   0.763
12301W        W77286   3.782  12.042   2.582
12302W        W77287   5.228   3.960  12.962
12303W        W77288  32.069  17.231   2.091
12304W        W77289  27.481   2.989   3.171
12305W        W77290  21.175  21.348  13.792
12306W        W77291  42.081  29.987   1.711
12307W        W77292  16.581   5.970  10.889
12308W        W77293  30.125  31.405   9.792
12309W        W77294  17.561  26.261   0.576
12310W        W77295  37.726  36.950   5.541
12311W        W77296  20.713   3.537  14.830
12312W        W77297  10.685  30.993   4.076
12313W        W77298  16.752  17.793   2.603
12314W        W77299  19.049   5.550   0.329
12315W        W77300  17.787  42.836   3.580
12316W        W77301  11.098   8.217   2.171
12317W        W77302   2.894  28.591  14.353
12318W        W77303  10.882  27.576  11.607
12319W        W77304  22.436  31.092  12.187
12320W        W77305  18.782  21.809   3.760
12321W        W77306  24.465   6.426  13.856
12322W        W77307  15.666  32.963  10.919
12323W        W77308  20.932   0.403   4.040
12324W        W77309  27.902  28.183   4.215
12325W        W77310   9.829   0.003  14.814
12326W        W77311  16.726   9.624  12.260
12327W        W77312  11.596  10.451  13.173
12328W        W77313   6.547  16.515  11.340
12329W        W77314  16.101   4.576   9.723
12330W        W77315  32.805  44.953   4.291
12331W        W77316   1.702  41.706   2.155
12332W        W77317   7.387  43.457   3.591
12333W        W77318  17.613  22.629   4.539
12334W        W77319   9.733  28.957  10.666
12335W        W77320  43.513  15.254   0.430
12336W        W77321  38.347  35.471   4.099
12337W        W77322  12.620  38.355  12.562
12338W        W77323   2.605  14.277  13.863
12339W        W77324  31.235  32.925  12.810
12340W        W77325   2.900  18.780   3.267
12341W        W77326   2.814  21.544  14.241
12342W        W77327  30.043  15.043   1.335
12343W        W77328   7.982  19.496  12.093
12344W        W77329   1.767   7.021   1.480
12345W        W77330  44.436  29.651   0.192
12346W        W77331  17.503  24.422   2.683
12347W        W77332  42.057   4.808  11.665
12348W        W77333  13.139  42.185   0.167
12349W        W77334  30.669  41.130   0.455
12350W        W77335  22.448   2.224  12.103
12351W        W77336  18.138  37.074   1.316
12352W        W77337  29.317  37.585   0.897
12353W        W77338  18.737  39.556   3.805
12354W        W77339  38.831   8.757  12.639
12355W        W77340  21.640   3.010   2.785
12356W        W77341  30.371  28.998   4.102
12357W        W77342  13.802  33.443  13.928
12358W        W77343  28.500  11.134  14.814
12359W        W77344  38.857   3.310   4.201
12360W        W77345  23.398   2.726   2.686
12361W        W77346  41.325   6.774   1.286
12362W        W77347  12.826  23.977  13.431
12363W        W77348  38.853  22.666  12.384
12364W        W77349   9.051   1.530  11.602
12365W        W77350  42.961   5.165  14.946
12366W        W77351  43.329  21.567  13.597
12367W        W77352  14.649  34.560   3.296
12368W        W77353   5.131  12.577  11.203
12369W        W77354  11.844  10.753  14.649
12370W        W77355  26.161  40.904  10.733
12371W        W77356   0.408  34.726  10.337
12372W        W77357  34.889  33.493   2.877
12373W        W77358  34.064   7.723   3.661
12374W        W77359  42.491  15.298  14.267
12375W        W77360  31.994  16.820   3.855
12376W        W77361  23.749   4.689  14.409
12377W        W77362  36.072  35.737   0.467
12378W        W77363  43.279  22.619   1.831
12379W        W77364   4.816  10.252  13.428
12380W        W77365  40.914   9.967  12.066
12381W        W77366  13.026  36.818   0.883
12382W        W77367  29.030  33.833  11.116
12383W        W77368   6.888  20.061  12.984
12384W        W77369  37.541  22.096  12.881
12385W        W77370   3.552  31.979   5.081
12386W        W77371  39.458   3.153   3.599
12387W        W77372   2.256   0.372  13.773
12388W        W77373  27.529  33.534   3.140
12389W        W77374  13.793  12.759  10.679
12390W        W77375  17.076  44.795  13.467
12391W        W77376  29.729  21.048   0.301
12392W        W77377  25.112  22.521   0.445
12393W        W77378  31.087  18.333  13.265
12394W        W77379  16.203  37.271   1.915
12395W        W77380  22.237  18.854   4.177
12396W        W77381  39.485  25.443  14.337
12397W        W77382  36.620   4.986   0.279
12398W        W77383  34.062  32.477   0.079
12399W        W77384   0.499  23.959   1.826
12400W        W77385   1.087  12.278  14.932
12401W        W77386  10.723  24.451   2.433
12402W        W77387  21.668  41.981   3.696
12403W        W77388   1.573  29.497  10.432
12404W        W77389  38.796  39.443  14.237
12405W        W77390   9.124  31.735  12.237
12406W        W77391   8.674  37.526   2.885
12407W        W77392  21.210  32.853   1.768
12408W        W77393  20.483  26.136  13.444
12409W        W77394  37.799  23.690   0.846
12410W        W77395  11.160   3.792  13.425
12411W        W77396   4.962  37.541   4.167
12412W        W77397  32.059   7.787   3.701
12413W        W77398  29.719   1.512   1.383
12414W        W77399  24.664  13.902   1.833
12415W        W77400  11.868  16.093  11.557
12416W        W77401  32.093  44.691  14.101
12417W        W77402  33.053  36.996  12.548
12418W        W77403   7.938  43.905  11.701
12419W        W77404  26.739  12.793   0.724
12420W        W77405  19.260  24.230   0.362
12421W        W77406   6.033  23.132   0.685
12422W        W77407  43.577  44.901   3.802
12423W        W77408  31.240  42.113  14.786
12424W        W77409  34.552  40.994   3.233
12425W        W77410   8.123  29.445   2.947
12426W        W77411  37.406  14.040   0.352
12427W        W77412  23.618   6.575  13.248
12428W        W77413  15.705  13.640  13.854
12429W        W77414  10.718  10.366   0.556
12430W        W77415  12.400  21.516  14.495
12431W        W77416   6.259  24.116  12.394
12432W        W77417  33.434  44.816   1.257
12433W        W77418  28.790  31.094  13.335
12434W        W77419  14.282  27.165  12.966
12435W        W77420   9.609  22.973  14.885
12436W        W77421  21.709  12.355   2.036
12437W        W77422   3.401   9.699  10.774
12438W        W77423  36.829  39.095   3.409
12439W        W77424   0.226  25.220   4.211
12440W        W77425  23.777  29.019   1.340
12441W        W77426  18.650   6.909   0.169
12442W        W77427  33.408  19.564   0.493
12443W        W77428  37.278  18.274  11.516
12444W        W77429  38.041  10.273  14.257
12445W        W77430  25.283  42.997   1.823
12446W        W77431   9.412   1.423  13.596
12447W        W77432  11.392  12.625  11.576
12448W        W77433  22.543  33.837  11.981
12449W        W77434  35.764  41.980   0.288
12450W        W77435  25.517  41.186  13.348
12451W        W77436   7.742   7.605   4.663
12452W        W77437   0.017   5.674   3.211
12453W        W77438  25.309  29.259  10.267
12454W        W77439   8.433  34.337   3.786
12455W        W77440   6.958  25.065  13.043
12456W        W77441  44.123  34.907  10.649
12457W        W77442  12.125   0.846   0.899
12458W        W77443  44.471  31.981  10.720
12459W        W77444  21.668  27.700   3.665
12460W        W77445  10.746  35.764   4.610
12461W        W77446  14.088  24.272   1.876
12462W        W77447  25.727  34.784   2.481
12463W        W77448  41.397  41.940  14.181
12464W        W77449  11.925  19.624  10.640
12465W        W77450   0.292  30.726   1.013
12466W        W77451  11.066  37.546  13.128
12467W        W77452  16.018  27.620   3.953
12468W        W77453  21.265  38.852   4.041
12469W        W77454  12.918  10.865  12.401
12470W        W77455  43.578  14.367   2.769
12471W        W77456  31.095  30.924  13.995
12472W        W77457  34.304   2.414  12.581
12473W        W77458  41.801  22.013  11.066
12474W        W77459   8.765   2.572  11.177
12475W        W77460  25.503  25.628   1.280
12476W        W77461   0.280  23.732   4.363
12477W        W77462  39.616  10.648  14.519
12478W        W77463  35.987  34.518   1.885
12479W        W77464  36.823  27.172   3.209
12480W        W77465   1.357  11.060  11.487
12481W        W77466  11.268  18.188  13.943
12482W        W77467  33.081  40.735  12.861
12483W        W77468  12.081  24.705   4.350
12484W        W77469   8.911   5.881   2.179
12485W        W77470  26.463  22.793  11.669
12486W        W77471  12.816  42.892  12.002
12487W        W77472  36.953  44.719  11.303
12488W        W77473  26.772  10.800   3.596
12489W        W77474   6.213  30.006  11.180
12490W        W77475  13.064  35.566  14.476
12491W        W77476  41.926  41.892   4.963
12492W        W77477  18.527  41.576   3.221
12493W        W77478  11.229   7.139  10.546
12494W        W77479  19.722  28.776   4.065
12495W        W77480  17.658  11.692  10.697
12496W        W77481   6.461  27.205   0.602
12497W        W77482  14.215  38.915   4.168
12498W        W77483  34.103  39.776   3.634
12499W        W77484   0.424  30.303   1.276
12500W        W77485  35.952   7.173   0.711
12501W        W77486  21.440  40.926   1.258
12502W        W77487  25.678  28.182   1.329
12503W        W77488  40.202   2.823   2.604
12504W        W77489  35.861  11.898   4.167
12505W        W77490  41.364  11.488   0.254
12506W        W77491   0.213   7.769   1.039
12507W        W77492  30.679   2.835  13.318
12508W        W77493  16.561   7.328  13.465
12509W        W77494  18.631  13.854   0.801
12510W        W77495  21.736   9.833  10.649
12511W        W77496  23.131  24.915  10.673
12512W        W77497   6.865   6.395  13.276
12513W        W77498   1.579   5.812  11.171
12514W        W77499  25.108   1.092   0.112
12515W        W77500  27.327  20.933   2.422
12516W        W77501  20.385   5.377   5.521
12517W        W77502  19.203  15.109   3.705
12518W        W77503  36.970  44.424   3.804
12519W        W77504  12.041  33.577   0.450
12520W        W77505  33.594  29.512  11.507
12521W        W77506  26.579  31.123   1.707
12522W        W77507  26.738  12.213   2.887
12523W        W77508  10.407  37.253  12.356
12524W        W77509   8.228   9.277   5.390
12525W        W77510  35.900  13.826   2.630
12526W        W77511  15.005  39.982   3.844
12527W        W77512  24.502  23.709  12.428
12528W        W77513   5.399   9.293  11.764
12529W        W77514   9.372  10.456  11.147
12530W        W77515  32.690   1.171  12.993
12531W        W77516   4.197   7.929   0.356
12532W        W77517  12.778  22.180   4.088
12533W        W77518  42.436  34.249   1.445
12534W        W77519  29.256  28.440   4.669
12535W        W77520  30.041  12.784   1.905
12536W        W77521  39.884  36.340   0.291
12537W        W77522   4.463  39.950  10.700
12538W        W77523  29.989  10.126   0.920
12539W        W77524  13.140   8.337   4.548
12540W        W77525   7.813   4.902  11.768
12541W        W77526  30.372  24.503  12.969
12542W        W77527  15.359  40.255  14.876
12543W        W77528  20.535  12.809  12.553
12544W        W77529  19.991  39.440  11.510
12545W        W77530  36.898  21.500  11.176
12546W        W77531   9.645  41.969  13.939
12547W        W77532  31.680  44.044  11.567
12548W        W77533  32.314  35.526   0.952
12549W        W77534  27.421  33.020   1.495
12550W        W77535  16.098  39.922   0.285
12551W        W77536   3.307  26.237  11.567
12552W        W77537  43.534  43.005   0.919
12553W        W77538  37.449  19.158  12.396
12554W        W77539  23.614  30.724  13.515
12555W        W77540  43.383  41.953  14.993
12556W        W77541  39.067   7.454  12.945
12557W        W77542   4.162  23.952   0.930
12558W        W77543   8.941  17.678   2.686
12559W        W77544  35.058  15.056   4.521
12560W        W77545  18.468  42.687  11.322
12561W        W77546  30.671  29.756  14.415
12562W        W77547  10.276  12.141   3.268
12563W        W77548  22.556   5.408   2.234
12564W        W77549  10.311  35.221   2.869
12565W        W77550  33.918   7.277   5.189
12566W        W77551  37.857  29.512  12.519
12567W        W77552  11.446  40.500  11.510
12568W        W77553  12.432   8.733  10.638
12569W        W77554  11.086  19.114   3.405
12570W        W77555  22.873  31.916   3.964
12571W        W77556  29.732  13.394  13.517
12572W        W77557  34.791   0.377   3.768
12573W        W77558  44.518  42.748  13.375
12574W        W77559  34.269   7.381  11.052
12575W        W77560  12.827  36.336   0.660
12576W        W77561  38.315  18.535  12.375
12577W        W77562  29.247  14.279   2.192
12578W        W77563  32.138  34.497   0.345
12579W        W77564  30.126  35.777  12.204
12580W        W77565  35.884  43.013   3.203
12581W        W77566   8.743  15.084   2.232
12582W        W77567  11.721  29.969  12.128
12583W        W77568  41.765  24.496   1.382
12584W        W77569  31.564   7.596   0.645
12585W        W77570  36.148   5.778   1.084
12586W        W77571  32.122  39.021  13.041
12587W        W77572  34.558   1.247   2.023
12588W        W77573  14.051  13.084   1.232
12589W        W77574   8.977  39.681  10.052
12590W        W77575  37.016  37.999   1.794
12591W        W77576  18.530  39.835   1.295
12592W        W77577   8.220   0.694   0.906
12593W        W77578  18.345  26.198   1.689
12594W        W77579  30.659   9.740   5.023
12595W        W77580  43.525  30.452  11.184
12596W        W77581  23.174  13.524  13.327
12597W        W77582  37.804   7.299  13.490
12598W        W77583   9.390  29.089   3.507
12599W        W77584  22.919  30.544  14.987
12600W        W77585  28.061  20.499   4.425
12601W        W77586  15.659  10.631  10.659
12602W        W77587  33.916  35.011   0.722
12603W        W77588  34.208  35.261   2.264
12604W        W77589  21.176  39.074   3.598
12605W        W77590  36.618  38.126  11.122
12606W        W77591  26.935  37.306  13.953
12607W        W77592   7.996   9.860  13.081
12608W        W77593  26.535  21.477  12.450
12609W        W77594  24.056  16.837  10.737
12610W        W77595  15.683   2.823   4.537
12611W        W77596  25.042  32.137  13.619
12612W        W77597  20.629  29.202   1.323
12613W        W77598   9.324  34.841   2.753
12614W        W77599  20.938  15.846   2.295
12615W        W77600  40.130  33.974   0.521
12616W        W77601  27.842  33.710   1.802
12617W        W77602  29.552  15.656   1.648
12618W        W77603  10.116  30.401  10.777
12619W        W77604  30.527  39.425   3.840
12620W        W77605  27.366  27.972  13.613
12621W        W77606   4.786  20.301  10.698
12622W        W77607  43.881  24.531   2.633
12623W        W77608  17.349  10.317   2.804
12624W        W77609  31.549   2.887   2.484
12625W        W77610   4.924   6.906  14.894
12626W        W77611  24.070   3.524  12.084
12627W        W77612   6.408  37.807   3.253
12628W        W77613   4.281  18.528  14.945
12629W        W77614  13.239  28.218   1.401
12630W        W77615  21.558  30.465   1.692
12631W        W77616  34.430  11.902  11.558
12632W        W77617  16.667  32.918  13.589
12633W        W77618  42.207   2.354   1.333
12634W        W77619  34.692  26.686   0.941
12635W        W77620  41.767  36.139   1.484
12636W        W77621   6.861  10.506  12.968
12637W        W77622  11.706  43.055  10.849
12638W        W77623  22.447   3.382  13.369
12639W        W77624  12.618  32.384   0.227
12640W        W77625  17.979  33.819  13.034
12641W        W77626  12.867   5.188   3.639
12642W        W77627   0.299  16.247   2.655
12643W        W77628  39.784  16.471  14.761
12644W        W77629  30.476   6.248   4.752
12645W        W77630   8.773  44.286  13.398
12646W        W77631  33.125  21.017  14.980
12647W        W77632   7.967   0.472   4.740
12648W        W77633   6.829  22.978  11.172
12649W        W77634   4.727  31.134   1.279
12650W        W77635  18.830  23.526  12.989
12651W        W77636   3.499  32.981  12.042
12652W        W77637   2.745  14.401   4.036
12653W        W77638  17.817  11.237   3.205
12654W        W77639   4.251  24.549  12.018
12655W        W77640  38.793   8.379   4.460
12656W        W77641  30.983   3.544   4.625
12657W        W77642  24.229  23.649   3.289
12658W        W77643  25.253  35.945   2.251
12659W        W77644  20.364  36.038   4.268
12660W        W77645  33.447   4.022   4.374
12661W        W77646  31.521  40.081   1.853
12662W        W77647   6.382   4.189   1.341
12663W        W77648  27.690  21.634   2.360
12664W        W77649  30.733   5.646   2.230
12665W        W77650   5.393  27.064   4.598
12666W        W77651  16.312  19.015  13.840
12667W        W77652  41.848   4.328   1.089
12668W        W77653  17.344   8.706   1.849
12669W        W77654  20.094  17.007   2.109
12670W        W77655   7.081  36.142  12.023
12671W        W77656  13.209  11.326   2.372
12672W        W77657  23.703  16.776   3.162
12673W        W77658  21.104  20.867   2.843
12674W        W77659  36.451  22.018  13.517
12675W        W77660  35.010  13.413   2.811
12676W        W77661  43.381   7.794   2.412
12677W        W77662  32.953  41.349  12.363
12678W        W77663  21.147  39.824  10.224
12679W        W77664   9.367  25.731  13.451
12680W        W77665  29.096  33.356  11.230
12681W        W77666  14.635   8.670  12.936
12682W        W77667  38.054  37.216   2.877
12683W        W77668  14.711  36.473   0.438
12684W        W77669  15.237  19.044   1.496
12685W        W77670  18.662  16.130   3.690
12686W        W77671  38.579  43.182   4.381
12687W        W77672  13.659  28.223   2.282
12688W        W77673  43.507  21.651   0.724
12689W        W77674  37.932   0.418   4.295
12690W        W77675  16.201  18.370  13.020
12691W        W77676  35.455  11.934   0.495
12692W        W77677   4.057   5.175   5.595
12693W        W77678   2.716  21.250  13.818
12694W        W77679  41.430   8.409   3.741
12695W        W77680  34.060  44.007   2.384
12696W        W77681   8.483  41.239   0.716
12697W        W77682  14.017   2.643   3.252
12698W        W77683  30.493  44.702  10.917
12699W        W77684  18.548   0.879  14.879
12700W        W77685   1.009  28.351   0.468
12701W        W77686  22.574  12.958  13.874
12702W        W77687  39.964  23.290  14.823
12703W        W77688  44.306   1.357   2.484
12704W        W77689  29.170  37.166  14.568
12705W        W77690  17.311  31.670   0.860
12706W        W77691   0.793   5.946   0.487
12707W        W77692  35.899  30.556  13.291
12708W        W77693  15.719  25.357  13.451
12709W        W77694  32.925   4.745   1.849
12710W        W77695  23.168  22.199   1.922
12711W        W77696  25.002  40.188   4.990
12712W        W77697  11.148  40.037  13.937
12713W        W77698  39.832  17.220   3.483
12714W        W77699   5.591  20.814  14.445
12715W        W77700  25.701  20.759   1.256
12716W        W77701  37.116  35.379   3.338
12717W        W77702  27.508   2.439  12.052
12718W        W77703  34.806  38.593  11.567
12719W        W77704  20.811   1.980  11.552
12720W        W77705  25.466  21.322  11.036
12721W        W77706  13.364  40.392   0.328
12722W        W77707   7.673  33.345   1.365
12723W        W77708  19.485  33.430   1.433
12724W        W77709  29.849  20.026   1.847
12725W        W77710  32.943   5.944   1.069
12726W        W77711   3.773   7.632   0.257
12727W        W77712  42.541  37.484  13.849
12728W        W77713  40.423   9.053  10.732
12729W        W77714  35.345  18.396  13.697
12730W        W77715   8.241  26.990  12.750
12731W        W77716  38.302   8.271   3.828
12732W        W77717   2.218   4.868   0.326
12733W        W77718  22.440  14.169   2.963
12734W        W77719   1.952  42.392  11.466
12735W        W77720  25.268  24.109  12.690
12736W        W77721  22.003  34.260  12.910
12737W        W77722  33.655  21.031   0.082
12738W        W77723  27.105  34.136  14.809
12739W        W77724  42.554   9.026  12.077
12740W        W77725  16.377   3.870   0.736
12741W        W77726  22.488   8.022  13.872
12742W        W77727  26.221   6.659   2.633
12743W        W77728  17.207  37.095   0.418
12744W        W77729  11.678  15.162  10.062
12745W        W77730  20.025  11.170   3.737
12746W        W77731  26.446  19.610   1.749
12747W        W77732  20.579   9.419   2.314
12748W        W77733   5.644  33.051   1.045
12749W        W77734  37.026  30.583  10.676
12750W        W77735  31.015  23.732   0.266
12751W        W77736   5.807  11.307  10.691
12752W        W77737  32.497  26.743   3.622
12753W        W77738  12.293  39.573   0.334
12754W        W77739  42.057  20.510  12.493
12755W        W77740   3.338  31.600   4.356
12756W        W77741  31.707  39.390  10.667
12757W        W77742  37.831  30.523   0.839
12758W        W77743  29.748  18.728  13.201
12759W        W77744  12.590  11.316  13.484
12760W        W77745  20.072  12.609  10.475
12761W        W77746   4.734   5.221  14.185
12762W        W77747  40.379  39.980   0.470
12763W        W77748  23.961   0.715  10.564
12764W        W77749  24.120  40.128  11.251
12765W        W77750   1.394  30.980   3.870
12766W        W77751  34.622  12.975  12.331
12767W        W77752   6.399  35.322   3.974
12768W        W77753  23.730  40.896   3.051
12769W        W77754  43.888   3.407  12.511
12770W        W77755  35.938  32.948  10.719
12771W        W77756   6.210   2.852   0.456
12772W        W77757  18.205  29.149  11.189
12773W        W77758  32.509  37.816   0.380
12774W        W77759  15.155   9.689   0.806
12775W        W77760   3.500  39.572   2.603
12776W        W77761   7.262   1.895   3.067
12777W        W77762  13.383  14.388   4.535
12778W        W77763  32.679  38.345   3.543
12779W        W77764   0.760  12.082  11.988
12780W        W77765   8.850  14.267   2.635
12781W        W77766  10.483  28.663   2.644
12782W        W77767   6.202  37.660   3.833
12783W        W77768  24.947   8.697  12.202
12784W        W77769  18.561   0.341  11.073
12785W        W77770  25.181  27.294   4.965
12786W        W77771   9.277   3.669   0.467
12787W        W77772  12.833  38.412   0.511
12788W        W77773   4.456  16.043   4.786
12789W        W77774  38.776  17.606  13.496
12790W        W77775  17.680  42.862   2.588
12791W        W77776  17.349  33.283   5.086
12792W        W77777   5.414   9.750   3.739
12793W        W77778  26.571  32.478   0.242
12794W        W77779  39.491  36.370   2.591
12795W        W77780   3.260  43.809   1.696
12796W        W77781  40.930  26.901   1.815
12797W        W77782  11.137  16.700  13.480
12798W        W77783  20.808   1.086  14.247
12799W        W77784  25.119  25.453  14.021
12800W        W77785  35.449  19.506  11.113
12801W        W77786  23.276  11.197   1.846
12802W        W77787  18.982  40.507  12.875
12803W        W77788  29.051  34.006   3.956
12804W        W77789  25.263  13.657   2.212
12805W        W77790  23.488  20.560  13.307
12806W        W77791  19.613  41.732   3.742
12807W        W77792   0.626   5.829   4.124
12808W        W77793   8.557   3.346  10.715
12809W        W77794  37.065  35.510   1.243
12810W        W77795  14.844  27.015  13.852
12811W        W77796  15.878   4.989  14.984
12812W        W77797  13.741   4.482   1.115
12813W        W77798  22.618  13.627  11.212
12814W        W77799  20.124  41.908   3.688
12815W        W77800  19.173   1.907  12.559
12816W        W77801   0.949  27.690  14.315
12817W        W77802  38.754  44.002  10.666
12818W        W77803  12.336  23.491  13.517
12819W        W77804  20.564  36.283   1.364
12820W        W77805  42.864  26.395   2.371
12821W        W77806  29.261  30.963   4.915
12822W        W77807  43.028   6.965   1.278
12823W        W77808   9.243  38.080  14.391
12824W        W77809  39.050  27.617  12.846
12825W        W77810   0.614  41.069  12.978
12826W        W77811  30.543  22.022   3.695
12827W        W77812  35.030   2.376  13.971
12828W        W77813  40.769  44.857   3.108
12829W        W77814   8.557   8.295  13.080
12830W        W77815  13.561  20.456   3.007
12831W        W77816  40.600  11.639  10.685
12832W        W77817  32.167  23.665  14.121
12833W        W77818  17.205  36.411  10.448
12834W        W77819  37.487  12.349  10.500
12835W        W77820  39.531  28.094   4.065
12836W        W77821  40.648  38.378  13.715
12837W        W77822  26.760  14.729   3.666
12838W        W77823  16.144  43.331   2.915
12839W        W77824  38.302  12.327  14.416
12840W        W77825   8.990  32.063  12.815
12841W        W77826   5.933  15.250   2.303
12842W        W77827  37.069  11.952   2.311
12843W        W77828  32.017   3.479  13.487
12844W        W77829  43.515  11.316   4.838
12845W        W77830  10.452  44.879   4.117
12846W        W77831  18.374  14.954  12.052
12847W        W77832   3.548  10.856   0.826
12848W        W77833  20.212   6.301  14.244
12849W        W77834  21.222  44.393   2.879
12850W        W77835  18.136  38.846   0.705
12851W        W77836  44.466   6.304   4.411
12852W        W77837  15.289  22.049   4.347
12853W        W77838  27.588   8.117   4.030
12854W        W77839   7.451  15.825  13.947
12855W        W77840  34.440  32.082   1.307
12856W        W77841  21.100  26.057   0.225
12857W        W77842  22.644  27.270  11.391
12858W        W77843   1.467  39.368  11.596
12859W        W77844  15.102  30.735  10.557
12860W        W77845  23.100  14.246  13.782
12861W        W77846  33.088   5.054  12.537
12862W        W77847  20.150  37.942  14.399
12863W        W77848   9.099   0.554   0.513
12864W        W77849  29.551  20.131   2.283
12865W        W77850  33.834   0.357  12.884
12866W        W77851  16.143  19.194   2.897
12867W        W77852  34.534  42.740  14.499
12868W        W77853   8.467  22.653   4.142
12869W        W77854  44.528   6.158   0.728
12870W        W77855  36.430  33.801   0.202
12871W        W77856   7.410  20.165  12.150
12872W        W77857  23.192   0.084   4.866
12873W        W77858  11.500  30.181  13.442
12874W        W77859  13.631  40.409  11.927
12875W        W77860  30.720   7.391   4.612
12876W        W77861  23.191  34.023   1.428
12877W        W77862  19.058  20.285   2.261
12878W        W77863  21.250  41.741  12.944
12879W        W77864  17.785  28.402   0.460
12880W        W77865  33.195  32.994   4.266
12881W        W77866  18.351   2.897   5.153
12882W        W77867   7.666  24.000   0.697
12883W        W77868  37.967   7.533   1.417
12884W        W77869  38.850   4.769  13.050
12885W        W77870  23.845   3.836  12.676
12886W        W77871  32.570  37.277  14.520
12887W        W77872  37.291   4.925   4.430
12888W        W77873  17.399  35.989  10.666
12889W        W77874  22.100   6.399  11.021
12890W        W77875  41.746   8.404   4.258
12891W        W77876   0.237  39.133  14.259
12892W        W77877  30.636  29.758   2.377
12893W        W77878  41.075  41.518  12.467
12894W        W77879  37.844  42.256  10.761
12895W        W77880  43.078  42.869   4.648
12896W        W77881   3.850  34.416   0.734
12897W        W77882   9.590  26.999  12.585
12898W        W77883  27.146   9.543  14.823
12899W        W77884  43.208  32.493   0.217
12900W        W77885   1.358  25.251   1.934
12901W        W77886  16.246  13.243   2.756
12902W        W77887  38.278  39.406  12.992
12903W        W77888   4.748   5.724  13.538
12904W        W77889  37.714  26.356   3.015
12905W        W77890  37.786   9.817  12.014
12906W        W77891   6.871   1.557  11.669
12907W        W77892  12.555   2.347  11.968
12908W        W77893   9.369   8.634  12.797
12909W        W77894  29.014  40.430  13.125
12910W        W77895   3.363  31.208   0.319
12911W        W77896  30.872  16.545   4.713
12912W        W77897  19.734  30.505   3.868
12913W        W77898  43.880  28.076   4.961
12914W        W77899  29.009  18.782   3.685
12915W        W77900  39.468  17.205   1.491
12916W        W77901  39.790  39.793  13.010
12917W        W77902  24.030  21.018  10.470
12918W        W77903  21.535   2.545  10.606
12919W        W77904  32.361  38.558  12.972
12920W        W77905  40.661   7.526  14.089
12921W        W77906  21.072  23.127   3.639
12922W        W77907  29.018   3.662  13.909
12923W        W77908   5.736   5.687  12.973
12924W        W77909  22.211  39.937   3.083
12925W        W77910   2.797  36.422  12.821
12926W        W77911   7.026   1.000  11.037
12927W        W77912   6.343  12.728   4.083
12928W        W77913  38.854   9.377  12.111
12929W        W77914  10.565   3.500  14.855
12930W        W77915  22.324  15.682  12.586
12931W        W77916  32.103  44.880   1.330
12932W        W77917   3.416   9.494   4.247
12933W        W77918  25.702   9.570  13.518
12934W        W77919  20.042  33.964  14.758
12935W        W77920  10.430  32.323   4.866
12936W        W77921  43.863   0.770   3.522
12937W        W77922  36.946   8.110   3.127
12938W        W77923   5.229  32.469   1.896
12939W        W77924  10.580   3.809   2.721
12940W        W77925  20.740   7.538   0.961
12941W        W77926   1.950  20.242   4.163
12942W        W77927   4.463   3.558   3.116
12943W        W77928  26.424  23.601  12.425
12944W        W77929  23.986  10.663   1.614
12945W        W77930  30.382  34.416   1.956
12946W        W77931  43.987  30.887   3.206
12947W        W77932   1.667  26.634  13.504
12948W        W77933  17.763  33.928  11.231
12949W        W77934  25.589  29.570  14.316
12950W        W77935  14.787  43.320   2.499
12951W        W77936   0.400  25.965   1.045
12952W        W77937   0.402  25.548  12.149
12953W        W77938   9.621   6.880   4.637
12954W        W77939  20.546  18.214  12.458
12955W        W77940  11.749  39.716  12.464
12956W        W77941   3.887  30.474  12.032
12957W        W77942  44.821  19.191   2.434
12958W        W77943  25.509  15.289  11.303
12959W        W77944   8.376  26.953  12.255
12960W        W77945   4.447  37.303  11.871
12961W        W77946   5.911  39.458   4.688
12962W        W77947   1.052  16.514  13.858
12963W        W77948  41.172  29.036   4.541
12964W        W77949  37.236  40.047   3.672
12965W        W77950   9.719  13.287  12.565
12966W        W77951  38.118  24.344  12.751
12967W        W77952  24.206  38.455  14.299
12968W        W77953  20.732   1.122   3.439
12969W        W77954  32.994  20.113   1.975
12970W        W77955  26.015  34.482   0.719
12971W        W77956  37.997  24.034   0.533
12972W        W77957  16.863  16.578   3.041
12973W        W77958  40.459   5.770  10.798
12974W        W77959  30.112  12.110  13.825
12975W        W77960  37.994  13.490  12.657
12976W        W77961   9.390   8.366  11.954
12977W        W77962   8.322  29.399  12.811
12978W        W77963   6.980  37.726  11.084
12979W        W77964  22.230  38.301  13.805
12980W        W77965  19.154  24.283  14.485
12981W        W77966  12.662  24.516  14.303
12982W        W77967  20.933   8.046  12.774
12983W        W77968  44.276   8.172   4.003
12984W        W77969  19.806  41.919   3.284
12985W        W77970  38.583  31.623  12.517
12986W        W77971   9.737  35.362   1.299
12987W        W77972  32.024  10.169  13.398
12988W        W77973  16.861   1.157  10.766
12989W        W77974  25.489  27.080   1.859
12990W        W77975  32.723  30.539   5.003
12991W        W77976  36.429  43.507  12.411
12992W        W77977  29.557  27.644   4.105
12993W        W77978  31.059   3.012   4.738
12994W        W77979  19.560   7.945   0.201
12995W        W77980  42.991  16.799   1.401
12996W        W77981  25.096  35.315  14.425
12997W        W77982  30.221  43.471  12.103
12998W        W77983  40.853  12.090  14.287
12999W        W77984  43.323  11.827  14.422
13000W        W77985   9.539   9.041   5.027
13001W        W77986   6.459  34.491   4.272
13002W        W77987   4.243  35.450   0.964
13003W        W77988  18.695  30.220   2.325
13004W        W77989  16.642  29.881   3.207
13005W        W77990  17.066   3.477   3.759
13006W        W77991   3.971  14.781   4.375
13007W        W77992  37.023   4.798   1.743
13008W        W77993  40.996  26.425   1.640
13009W        W77994  42.104  32.243  10.802
13010W        W77995  12.170   9.714   2.008
13011W        W77996  20.871  20.115  11.318
13012W        W77997  34.583  39.434  13.080
13013W        W77998  15.341  25.392  12.279
13014W        W77999  31.138  26.726   2.972
13015W        W78000  38.497   3.235   3.417
13016W        W78001  14.757   6.818  12.128
13017W        W78002  41.276  38.984   0.240
13018W        W78003   7.173  26.538  13.645
13019W        W78004  35.124  14.409   0.282
13020W        W78005  39.646   3.167   2.309
13021W        W78006  24.198   6.240  11.018
13022W        W78007   4.452  17.555   0.913
13023W        W78008  18.780   8.022   1.336
13024W        W78009  26.505  10.960  10.668
13025W        W78010   8.988  15.603  13.799
13026W        W78011   0.401  44.278   0.240
13027W        W78012   7.231  31.102   3.367
13028W        W78013  33.280  15.816   2.791
13029W        W78014  15.618  13.432   3.350
13030W        W78015  27.433  22.483   1.149
13031W        W78016  38.834   2.966   2.597
13032W        W78017  29.028  22.230  13.073
13033W        W78018  24.710  35.257   1.737
13034W        W78019  11.627  25.633   3.977
13035W        W78020  17.730  12.754   4.123
13036W        W78021  11.511  10.287  13.970
13037W        W78022  15.605  10.435   1.140
13038W        W78023  13.104  28.672  12.984
13039W        W78024  13.885  37.894   0.784
13040W        W78025  19.485  31.090   4.510
13041W        W78026  37.413   0.683   2.712
13042W        W78027  18.979  10.127   3.278
13043W        W78028  43.645  26.167   2.725
13044W        W78029  10.425  13.981  13.678
13045W        W78030  41.789   6.777  10.484
13046W        W78031  36.510  20.393  12.468
13047W        W78032  21.623  21.035  12.841
13048W        W78033  15.097   9.214  11.498
13049W        W78034  28.142   1.992   0.501
13050W        W78035   8.865  11.829   1.269
13051W        W78036  10.441  20.611  10.619
13052W        W78037  38.137  25.221   2.000
13053W        W78038   5.806  38.598   3.213
13054W        W78039  35.233  15.201  12.439
13055W        W78040  27.927  29.703  11.411
13056W        W78041  31.506   9.734   4.968
13057W        W78042  38.891   0.295  13.540
13058W        W78043   1.084   8.313   4.549
13059W        W78044  13.937  42.163   3.867
13060W        W78045  37.080  22.195  10.554
13061W        W78046  13.612  30.535   3.698
13062W        W78047   1.215   6.166  11.125
13063W        W78048  31.366  14.831  14.768
13064W        W78049  43.495  19.523  11.578
13065W        W78050  42.960  24.630   1.830
13066W        W78051  22.220  38.613  11.901
13067W        W78052  38.262   0.003  14.349
13068W        W78053  32.696  21.062   3.845
13069W        W78054  19.218  26.334  14.227
13070W        W78055  41.821   5.747   1.805
13071W        W78056  39.382  25.509   2.808
13072W        W78057  34.951  33.311   4.543
13073W        W78058  11.828   7.253  12.757
13074W        W78059  30.949  25.225  12.037
13075W        W78060   9.966  17.559   3.649
13076W        W78061   3.015   9.802  12.155
13077W        W78062  12.392  37.170   4.222
13078W        W78063  34.031  25.556   1.449
13079W        W78064   3.927   5.618  11.133
13080W        W78065   0.299  28.810  13.048
13081W        W78066   5.269  11.415   0.803
13082W        W78067  41.264   9.190  11.065
13083W        W78068   3.385  16.426  14.067
13084W        W78069  44.751  25.714   0.937
13085W        W78070  38.047   2.977   3.330
13086W        W78071  25.555  42.044   3.118
13087W        W78072  40.770  13.610   3.839
13088W        W78073  42.319  33.847   4.041
13089W        W78074   6.101  40.051  14.319
13090W        W78075  38.476  12.823  14.421
13091W        W78076  10.896   5.876  12.445
13092W        W78077  36.243   3.112  14.208
13093W        W78078  37.867  29.024  12.723
13094W        W78079  13.721  33.976   0.801
13095W        W78080  21.984  44.334  13.034
13096W        W78081   8.422   4.359  10.312
13097W        W78082  17.817  31.138  14.346
13098W        W78083  35.428   8.918   2.707
13099W        W78084   7.960  28.756   3.221
13100W        W78085  31.032   2.394   1.927
13101W        W78086  42.475  32.174   3.296
13102W        W78087  16.609   1.741  14.906
13103W        W78088  24.328  11.869  11.276
13104W        W78089  28.215  19.179  10.678
13105W        W78090   3.724   0.249  10.635
13106W        W78091  30.672  27.601  12.718
13107W        W78092  12.453  30.315   0.000
13108W        W78093  10.008  23.466   2.146
13109W        W78094  30.043  16.159   0.899
13110W        W78095  33.078  13.740   0.685
13111W        W78096  30.238  18.260  13.409
13112W        W78097   0.681  36.374   3.287
13113W        W78098  21.283  28.902  13.373
13114W        W78099  15.201  33.523   1.693
13115W        W78100  43.400   0.179  13.302
13116W        W78101  14.404  33.600   3.083
13117W        W78102  42.330  22.563  11.520
13118W        W78103  25.480   4.878   0.908
13119W        W78104   0.353  43.333  11.653
13120W        W78105   1.067  41.791   3.755
13121W        W78106   7.801  44.095  12.970
13122W        W78107  24.444  22.743  13.446
13123W        W78108  32.971   4.057  12.505
13124W        W78109  32.949  13.772   3.685
13125W        W78110  33.442  13.665   2.439
13126W        W78111  12.364  36.999  11.662
13127W        W78112  24.789   4.145   0.392
13128W        W78113  44.437  15.242  12.540
13129W        W78114  36.946  31.820   1.185
13130W        W78115   6.691  10.508   2.620
13131W        W78116  36.679  44.493   4.209
13132W        W78117  14.632   0.978   2.292
13133W        W78118  36.058  14.880  12.109
13134W        W78119  18.936  25.383   4.193
13135W        W78120  14.129   9.157  13.815
13136W        W78121   5.976  41.395  14.339
13137W        W78122  17.351  11.487   1.284
13138W        W78123  35.044   1.879  13.817
13139W        W78124  28.627  42.432  14.861
13140W        W78125   4.960  13.738  10.557
13141W        W78126  15.061  26.012   4.067
13142W        W78127   4.947  36.085   2.357
13143W        W78128   0.360   0.664   3.859
13144W        W78129  12.421  29.691   0.335
13145W        W78130   0.296   2.017  12.100
13146W        W78131  37.082  19.602  13.868
13147W        W78132  22.474  11.196   4.691
13148W        W78133  32.554  44.261  12.055
13149W        W78134  43.763   7.920   4.676
13150W        W78135  20.892  38.312   1.777
13151W        W78136  10.941  44.770   3.371
13152W        W78137  12.262  12.742   0.181
13153W        W78138  27.356   2.381   0.458
13154W        W78139   2.894   9.689  13.035
13155W        W78140  29.692   7.660  12.561
13156W        W78141  44.235  29.521  13.867
13157W        W78142  38.785   0.444  12.652
13158W        W78143  42.939  15.836  12.644
13159W        W78144   8.126  42.589   2.724
13160W        W78145  39.032   2.221  11.258
13161W        W78146  41.008  20.967  13.193
13162W        W78147  40.540  24.395   9.899
13163W        W78148   2.834  28.881  13.899
13164W        W78149   7.742   3.625   5.260
13165W        W78150   8.505  21.327   0.431
13166W        W78151  39.113  40.288  10.699
13167W        W78152  27.338  23.550   3.698
13168W        W78153  39.565  27.292  11.993
13169W        W78154   4.996  41.502   0.994
13170W        W78155  21.316   2.410  14.320
13171W        W78156   9.048  14.625  11.984
13172W        W78157  19.739  44.635   1.851
13173W        W78158  14.417  19.252   4.206
13174W        W78159  32.610  44.300  14.916
13175W        W78160  26.087  39.316  11.638
13176W        W78161  25.166  20.949   2.733
13177W        W78162  26.407  40.271   4.283
13178W        W78163  16.567  14.822  12.239
13179W        W78164  42.859  35.991  10.178
13180W        W78165  26.121  36.208   4.815
13181W        W78166  18.097  31.897  13.025
13182W        W78167  40.570  22.117  14.818
13183W        W78168  39.016  27.041  14.883
13184W        W78169  12.107  41.350  11.009
13185W        W78170  36.311  14.358  11.450
13186W        W78171  20.993  40.845  11.161
13187W        W78172  39.084  42.039  14.412
13188W        W78173  10.872  39.482   3.049
13189W        W78174  29.817  44.795  12.945
13190W        W78175  30.982   6.682  11.549
13191W        W78176  16.598  32.984  10.905
13192W        W78177   7.477  17.651  13.442
13193W        W78178  24.072   0.518  13.780
13194W        W78179  42.544  11.132  12.905
13195W        W78180  34.665  16.091   3.745
13196W        W78181   5.644   3.775   0.428
13197W        W78182  26.930  16.836  12.990
13198W        W78183  15.564   8.771  11.240
13199W        W78184  31.513  27.051  10.541
13200W        W78185  18.196  16.045   3.481
13201W        W78186  22.232  38.028  12.930
13202W        W78187  17.454  26.893  11.733
13203W        W78188  23.070  17.087   4.422
13204W        W78189   8.182  15.804  10.609
13205W        W78190   5.426  14.944  12.656
13206W        W78191   3.828  13.128   1.605
13207W        W78192  14.633   3.235  14.506
13208W        W78193  20.233  30.995   4.212
13209W        W78194  12.812   9.707  12.971
13210W        W78195   4.923  18.739  10.655
13211W        W78196   5.225   6.653  10.620
13212W        W78197  10.058   8.332   4.544
13213W        W78198  24.770  11.710  14.072
13214W        W78199  35.680  38.883  12.910
13215W        W78200   7.215  31.664  10.735
13216W        W78201   2.518  40.489  12.137
13217W        W78202  39.717  36.317   4.256
13218W        W78203  43.479  36.735  11.124
13219W        W78204  42.390  20.920  12.582
13220W        W78205  32.678  42.428  11.638
13221W        W78206  38.961  39.602  12.141
13222W        W78207  43.441   3.893   0.987
13223W        W78208  43.644  21.462  14.780
13224W        W78209  41.276  32.974   5.146
13225W        W78210   6.276  27.058   1.520
13226W        W78211  18.286  15.797  13.492
13227W        W78212  14.579   1.865   2.339
13228W        W78213  22.689  39.785   1.375
13229W        W78214  21.648  22.797  12.936
13230W        W78215   3.906  30.632   3.083
13231W        W78216  34.518   5.254  14.783
13232W        W78217  12.900  20.668  10.635
13233W        W78218  33.841  34.982  12.558
13234W        W78219  30.686  43.776  12.016
13235W        W78220   5.357  10.277  12.071
13236W        W78221   0.017  30.906  10.672
13237W        W78222  26.537  31.060  14.700
13238W        W78223  17.955  29.582   4.026
13239W        W78224  33.634  19.586  11.219
13240W        W78225  39.585   9.292  13.924
13241W        W78226  19.635  16.319  12.025
13242W        W78227  33.386  27.250  11.585
13243W        W78228  41.287  22.778  12.604
13244W        W78229   4.367   1.951   1.068
13245W        W78230  39.848   0.017   0.981
13246W        W78231  41.989  30.055  13.207
13247W        W78232  19.652  38.870  13.621
13248W        W78233  24.553  35.772   2.725
13249W        W78234  37.403  16.331  13.966
13250W        W78235  37.024  32.625  13.442
13251W        W78236   9.632  33.061  12.369
13252W        W78237   7.295  32.976   1.883
13253W        W78238  11.584  19.129   1.177
13254W        W78239  44.197   8.019  13.915
13255W        W78240   8.753  21.304  14.778
13256W        W78241   6.033   3.335  13.752
13257W        W78242  27.046  31.550   0.341
13258W        W78243  27.152  30.051  13.524
13259W        W78244  43.304   9.496  13.752
13260W        W78245  11.144   9.482   2.179
13261W        W78246  23.026  10.743   3.616
13262W        W78247  29.697  17.142   3.779
13263W        W78248   1.939  34.570   4.011
13264W        W78249  13.081  38.999   5.095
13265W        W78250   3.691  38.494  13.929
13266W        W78251   2.398  21.260   0.894
13267W        W78252   1.296  27.516   2.172
13268W        W78253  42.753  28.088   0.699
13269W        W78254  20.215  28.955  10.619
13270W        W78255   1.497  29.389  14.934
13271W        W78256   2.578  12.725  12.584
13272W        W78257  37.529  28.632  12.517
13273W        W78258  42.437  41.046  12.641
13274W        W78259  28.631   0.406   0.275
13275W        W78260   5.931   1.316   3.838
13276W        W78261   4.647  21.299  13.976
13277W        W78262   9.864  20.186  13.377
13278W        W78263  27.271  32.967  14.104
13279W        W78264  42.307  12.367   1.910
13280W        W78265  10.869  29.416   1.203
13281W        W78266  25.424   5.535   3.725
13282W        W78267  43.354  26.377  13.867
13283W        W78268  11.313  21.661  11.239
13284W        W78269  43.403  31.748  14.098
13285W        W78270   6.685  31.026  12.467
13286W        W78271   2.075  17.791   0.040
13287W        W78272   1.919  39.505   4.147
13288W        W78273  41.356   4.409   3.178
13289W        W78274  38.103  44.891  13.855
13290W        W78275  16.630  25.188   0.482
13291W        W78276   3.925  40.960   1.384
13292W        W78277  41.216   4.065   1.729
13293W        W78278   1.469  38.130   1.894
13294W        W78279  27.585  23.976   4.559
13295W        W78280  42.794   8.471  14.925
13296W        W78281  11.560   3.391  10.341
13297W        W78282  17.651   7.961  11.105
13298W        W78283  37.611  39.913  14.099
13299W        W78284  10.060  36.893   3.496
13300W        W78285  35.411  15.689  14.999
13301W        W78286  19.195  38.942   5.221
13302W        W78287   9.309  36.352   0.860
13303W        W78288  32.023  38.008  14.501
13304W        W78289   0.281  38.515   0.508
13305W        W78290  16.315  30.582   3.985
13306W        W78291  44.874  17.250  12.387
13307W        W78292   9.694  40.705  13.472
13308W        W78293  25.217  14.229  12.100
13309W        W78294  34.376  38.107   2.158
13310W        W78295  27.506  25.415   2.694
13311W        W78296  33.659  18.413   3.582
13312W        W78297  12.257   5.821   1.353
13313W        W78298  15.850  39.347  14.358
13314W        W78299  42.017   8.768  10.798
13315W        W78300  43.040  36.073   0.361
13316W        W78301  41.158  36.863  14.938
13317W        W78302  29.089  41.812   0.996
13318W        W78303  18.510  16.758  11.934
13319W        W78304  14.247  42.743   4.647
13320W        W78305  44.719   2.272  12.387
13321W        W78306   4.355  36.989   0.243
13322W        W78307  30.432  26.169   1.048
13323W        W78308  12.876  12.507   1.352
13324W        W78309  29.540  24.926   3.334
13325W        W78310   4.921  19.682  11.488
13326W        W78311  42.379  42.499   2.582
13327W        W78312  31.918  16.803  11.754
13328W        W78313  15.614  11.900   3.703
13329W        W78314  25.417   9.830  11.777
13330W        W78315  40.396   8.822   1.751
13331W        W78316   7.934   8.342   5.025
13332W        W78317  37.727  39.782  11.582
13333W        W78318  32.105  17.629   4.951
13334W        W78319  24.747   7.846   0.786
13335W        W78320  10.697  24.031   3.393
13336W        W78321  41.052  38.096  14.805
13337W        W78322  44.914  27.080   9.912
13338W        W78323  44.723  33.468   3.588
13339W        W78324   3.425  31.108   2.636
13340W        W78325  16.448  25.706  14.385
13341W        W78326  43.480   5.538   2.146
13342W        W78327  44.449   0.222   4.631
13343W        W78328  17.117  17.378  13.097
13344W        W78329  10.832  26.604   1.720
13345W        W78330  23.929  25.296  11.754
13346W        W78331  36.028  43.569   0.487
13347W        W78332  30.265  21.117  12.659
13348W        W78333   6.900  29.984  11.997
13349W        W78334  31.843  36.477  13.824
13350W        W78335  28.004  13.740   3.538
13351W        W78336  33.998  38.740  13.464
13352W        W78337  29.834  42.219   4.071
13353W        W78338  13.686  34.759   3.706
13354W        W78339  34.353   7.536   5.004
13355W        W78340  36.822  33.638   0.879
13356W        W78341  34.038  31.739  13.348
13357W        W78342  12.818  42.087  13.402
13358W        W78343  17.203  44.470  13.892
13359W        W78344  21.911  12.378  11.983
13360W        W78345  42.935   3.235  13.938
13361W        W78346  41.560  21.148  12.913
13362W        W78347   0.169  40.341   0.022
13363W        W78348  20.461  30.070   0.904
13364W        W78349   9.781  20.394  14.003
13365W        W78350  14.801   2.954   1.887
13366W        W78351  35.899   9.931   0.471
13367W        W78352  25.913  26.836   0.706
13368W        W78353  12.802   6.918   0.275
13369W        W78354  28.008  16.538  10.582
13370W        W78355   3.209  11.820  11.689
13371W        W78356  36.500   0.077  11.037
13372W        W78357  13.428  16.544  10.918
13373W        W78358  12.995  25.317  10.860
13374W        W78359  12.405  22.151   3.709
13375W        W78360  36.722   8.166  12.908
13376W        W78361  26.854  16.645  10.174
13377W        W78362  42.138  28.864   1.183
13378W        W78363  38.897  22.790   1.687
13379W        W78364  42.520  27.640  13.910
13380W        W78365  34.821   5.724   2.593
13381W        W78366   7.726   1.477   0.988
13382W        W78367   2.505   3.981   3.614
13383W        W78368   6.893   1.049  11.531
13384W        W78369  40.189   0.538  12.470
13385W        W78370  34.379  33.135  12.430
13386W        W78371  21.602  41.966  12.082
13387W        W78372   9.142  36.807  14.972
13388W        W78373  44.718  29.002   1.811
13389W        W78374   8.839  37.642  11.116
13390W        W78375  26.393  43.759  12.975
13391W        W78376  11.689  11.824   4.803
13392W        W78377  38.760  34.313  12.495
13393W        W78378  39.356  13.277   1.038
13394W        W78379   4.709  21.324  10.885
13395W        W78380  18.014   1.008   0.039
13396W        W78381  32.063  40.979  12.067
13397W        W78382  24.889   6.621  14.348
13398W        W78383  36.785   0.943  14.222
13399W        W78384  15.286  21.131   3.022
13400W        W78385  33.986  37.742  10.417
13401W        W78386   5.864  34.901  11.057
13402W        W78387  43.317  20.595  13.585
13403W        W78388  20.336  26.460  14.190
13404W        W78389   0.311  14.079   2.935
13405W        W78390  44.244  19.207   3.265
13406W        W78391   8.705  25.436   3.716
13407W        W78392  33.462  21.251  11.107
13408W        W78393   4.732  23.064   1.395
13409W        W78394   9.937  19.628   5.030
13410W        W78395  27.467  32.138  12.932
13411W        W78396   0.334  11.605   2.721
13412W        W78397  16.872  10.939   1.679
13413W        W78398  22.124  37.604  12.006
13414W        W78399  10.163  34.881  12.550
13415W        W78400  18.109  34.845   3.236
13416W        W78401  44.516  11.403  13.877
13417W        W78402  36.087  36.324   4.466
13418W        W78403   8.328  16.762   4.143
13419W        W78404  24.660   5.881  12.498
13420W        W78405  29.046   6.729  13.562
13421W        W78406  39.630  11.174   3.263
13422W        W78407  14.461  14.182   0.412
13423W        W78408   3.928   3.375   3.552
13424W        W78409   8.507  40.313  12.006
13425W        W78410  13.021  10.779  10.769
13426W        W78411  37.406   0.989   1.392
13427W        W78412  21.240   5.782  12.952
13428W        W78413  40.009  30.501  12.150
13429W        W78414   6.139  30.115   4.672
13430W        W78415  10.385   1.441   1.299
13431W        W78416  29.884   1.352   1.866
13432W        W78417  44.291  44.460  14.951
13433W        W78418   9.803  41.837   3.262
13434W        W78419  28.893   1.221  11.005
13435W        W78420  29.953  31.862  14.003
13436W        W78421  43.587  34.722   0.949
13437W        W78422  28.915   4.207   4.200
13438W        W78423  26.586  25.420   4.958
13439W        W78424  11.805  13.247  13.544
13440W        W78425  15.807  19.011  14.021
13441W        W78426  21.254   7.613  12.611
13442W        W78427  20.481  40.413  13.798
13443W        W78428  37.472  30.083   4.735
13444W        W78429   8.641  44.285  11.632
13445W        W78430  34.897  13.702   1.357
13446W        W78431  24.528   7.285   0.044
13447W        W78432  30.853  23.964   2.838
13448W        W78433  19.188  35.770  14.011
13449W        W78434  34.451  31.215  10.436
13450W        W78435  41.399  19.494  11.068
13451W        W78436  18.775  23.517  10.925
13452W        W78437  29.167   5.965  11.875
13453W        W78438  16.207  16.293   4.805
13454W        W78439  18.817  15.590   2.047
13455W        W78440  36.371  15.178   0.702
13456W        W78441  30.943  35.651  12.434
13457W        W78442  26.031  33.662  10.697
13458W        W78443  17.676  19.687  12.363
13459W        W78444  12.786   5.482  12.448
13460W        W78445  41.529  36.479  10.196
13461W        W78446  10.304  34.122  14.837
13462W        W78447  36.514  36.393  12.980
13463W        W78448  14.607  30.223   0.870
13464W        W78449   5.672  43.030  13.097
13465W        W78450  12.293  21.273  12.238
13466W        W78451   4.012   5.944  12.587
13467W        W78452  28.200  26.203   1.260
13468W        W78453  11.750  16.532   3.253
13469W        W78454  33.503  20.249   0.786
13470W        W78455  34.875  22.132   2.687
13471W        W78456   8.643   2.091  10.230
13472W        W78457  14.866  22.523  13.455
13473W        W78458   7.897  42.911   2.366
13474W        W78459  44.479   2.692  14.368
13475W        W78460  22.216  35.698   0.940
13476W        W78461   0.428   8.408  11.529
13477W        W78462   4.977  11.776  10.822
13478W        W78463  29.879  32.967  12.792
13479W        W78464  10.726   2.289   2.860
13480W        W78465   7.813   8.718  10.998
13481W        W78466  17.060   2.782   1.226
13482W        W78467   7.414  30.164  13.348
13483W        W78468  21.044  17.399   1.166
13484W        W78469   0.379  24.747  10.205
13485W        W78470  20.231  16.352   4.525
13486W        W78471  33.031   0.739   3.026
13487W        W78472  18.033  26.214   0.804
13488W        W78473  42.394  35.902  14.410
13489W        W78474  32.654   2.260   4.498
13490W        W78475  27.533  14.245  14.955
13491W        W78476   1.731  44.517   3.581
13492W        W78477  18.972  37.039  14.429
13493W        W78478  35.545  13.832  13.510
13494W        W78479  37.475  35.497  14.860
13495W        W78480  26.133  30.731  11.229
13496W        W78481  31.026  12.114   3.658
13497W        W78482  39.082  17.782  13.937
13498W        W78483   7.905   9.221  12.497
13499W        W78484   2.342   2.231   3.697
13500W        W78485  37.830  27.394   3.672
13501W        W78486  15.134  37.302   0.303
13502W        W78487  34.887  11.504   3.466
13503W        W78488  15.854   8.783  14.312
13504W        W78489  36.093  18.620  11.826
13505W        W78490  17.509   4.642   0.908
13506W        W78491  34.524  44.335   5.111
13507W        W78492   3.780  31.712  12.386
13508W        W78493   3.727   4.222   1.929
13509W        W78494   1.506  31.898  14.687
13510W        W78495  18.197   6.810  14.863
13511W        W78496  19.679  22.045   1.302
13512W        W78497  18.640  39.411   2.363
13513W        W78498  25.782   4.107  13.508
13514W        W78499  43.292  23.711   3.863
13515W        W78500  16.268  43.730  12.963
13516W        W78501   3.794  29.109  13.755
13517W        W78502  13.923  17.329   1.304
13518W        W78503   4.785   2.821   0.301
13519W        W78504  18.671  35.883   0.257
13520W        W78505   1.366  13.900   5.071
13521W        W78506  43.793  20.783   2.912
13522W        W78507  37.843  19.009   1.797
13523W        W78508   3.824  22.713   2.552
13524W        W78509  39.083  10.729   0.219
13525W        W78510  23.192  23.796  14.291
13526W        W78511  43.814  32.037   3.235
13527W        W78512   1.208  44.929   0.819
13528W        W78513   5.336  39.474   0.896
13529W        W78514  22.991  17.570  11.446
13530W        W78515  22.677  19.098  10.869
13531W        W78516  43.530  27.070   0.341
13532W        W78517  20.468  17.775   4.422
13533W        W78518  29.258  19.677  13.924
13534W        W78519  28.609  41.212   2.250
13535W        W78520  30.724  36.762   2.866
13536W        W78521  16.804  25.944   4.037
13537W        W78522  25.918  39.295   2.740
13538W        W78523  12.078  40.346   1.478
13539W        W78524   9.715  16.785   0.655
13540W        W78525  11.930  34.030  12.448
13541W        W78526  23.069  42.908  14.789
13542W        W78527  25.664  33.495   9.988
13543W        W78528  42.152  36.287   2.793
13544W        W78529  33.675  21.833   3.564
13545W        W78530  41.845  24.742  12.551
13546W        W78531  19.505  31.088   3.100
13547W        W78532   4.880  21.996  12.687
13548W        W78533  43.835  42.360   4.050
13549W        W78534  44.411  11.311   1.257
13550W        W78535  43.456  17.583   9.888
13551W        W78536  22.529  14.148   4.139
13552W        W78537  34.371   7.694  10.622
13553W        W78538  44.536  39.970  11.579
13554W        W78539  27.449   6.292  12.405
13555W        W78540  21.494   4.314  12.423
13556W        W78541  17.769   9.376  13.891
13557W        W78542  19.732  36.124   4.083
13558W        W78543   2.491   6.918  13.855
13559W        W78544   1.202  36.355   2.249
13560W        W78545   8.594  43.182  12.321
13561W        W78546  36.950  15.225   2.159
13562W        W78547  12.945  29.529   3.652
13563W        W78548  41.951   4.927  10.805
13564W        W78549  28.913   1.256  14.848
13565W        W78550  21.568  41.037   4.064
13566W        W78551  14.908   7.897  11.005
13567W        W78552  26.045  33.326  12.082
13568W        W78553  32.080  23.607   3.742
13569W        W78554  23.111  21.647   1.818
13570W        W78555  34.874   8.143  13.887
13571W        W78556   6.111  35.816  10.027
13572W        W78557  24.120   2.086   2.328
13573W        W78558  25.148  22.218   1.812
13574W        W78559  12.842  33.361  12.609
13575W        W78560  37.436  25.284   5.320
13576W        W78561   3.829  34.511   1.269
13577W        W78562  36.595   2.252   0.236
13578W        W78563  20.873   4.413   2.314
13579W        W78564  31.996  25.448   4.510
13580W        W78565   3.667  20.102  11.147
13581W        W78566  20.030  32.248  11.145
13582W        W78567  32.591  25.143  13.059
13583W        W78568  40.058  22.729   0.014
13584W        W78569   6.353  43.627  13.053
13585W        W78570   8.178  39.044  12.868
13586W        W78571  24.755  11.770  14.958
13587W        W78572  27.701  31.872  12.469
13588W        W78573   2.690  32.523   4.364
13589W        W78574  15.574  25.139   1.496
13590W        W78575  34.045  34.584   4.139
13591W        W78576  37.160  39.880   0.376
13592W        W78577  11.633  26.087  14.798
13593W        W78578  17.819  40.359   3.664
13594W        W78579   7.742  14.215   1.804
13595W        W78580  35.946  15.515  11.372
13596W        W78581  30.976  10.640  12.393
13597W        W78582   1.137  24.864  13.472
13598W        W78583  12.144  20.676  13.716
13599W        W78584  44.344  31.103   0.565
13600W        W78585  28.859  36.251  11.634
13601W        W78586   6.337  23.467   2.186
13602W        W78587  27.729  33.102  11.539
13603W        W78588   1.202  23.569  11.135
13604W        W78589  18.075  19.868  11.749
13605W        W78590  38.101  11.795   0.708
13606W        W78591  31.329  36.525  13.636
13607W        W78592  24.800  22.427   3.236
13608W        W78593  13.708   8.630  11.667
13609W        W78594  25.764  41.658  14.790
13610W        W78595  22.033  36.810   4.512
13611W        W78596  44.439  44.833   4.280
13612W        W78597  42.859  37.063  14.174
13613W        W78598  10.469  16.093  12.583
13614W        W78599  41.502  17.583   3.181
13615W        W78600   6.750  18.571   1.803
13616W        W78601  23.395  44.229   2.266
13617W        W78602  35.302  12.623  14.049
13618W        W78603  25.037  28.532  11.581
13619W        W78604   0.557  36.549  14.088
13620W        W78605   1.772  16.664   3.698
13621W        W78606   0.017  25.785  10.918
13622W        W78607  17.737  16.641  12.362
13623W        W78608  23.279  30.224   1.662
13624W        W78609  33.365  28.023   0.491
13625W        W78610   0.578  37.186   1.911
13626W        W78611  17.309  26.955  13.446
13627W        W78612  14.154  11.389   2.718
13628W        W78613   1.842   5.041  14.904
13629W        W78614  30.547   0.730  14.956
13630W        W78615  19.707  44.911   2.297
13631W        W78616  12.800  33.477  13.661
13632W        W78617  25.008  28.656   2.190
13633W        W78618  43.240   9.861   3.663
13634W        W78619  14.806  16.150   3.231
13635W        W78620   6.156  18.110   2.905
13636W        W78621  18.405   8.341   0.031
13637W        W78622  27.133  29.798  11.604
13638W        W78623  27.707  32.974  14.368
13639W        W78624  23.007   3.407  12.386
13640W        W78625  14.105   5.743  12.086
13641W        W78626  10.262   0.599  13.061
13642W        W78627  12.628  14.496  13.890
13643W        W78628  42.093   1.462   1.256
13644W        W78629   2.093  35.012  10.642
13645W        W78630   6.452   3.257  14.072
13646W        W78631  40.727  14.557  10.296
13647W        W78632  43.548  27.731   3.208
13648W        W78633  34.295  34.131  14.094
13649W        W78634  22.307   0.474  13.400
13650W        W78635  44.986  33.221   3.176
13651W        W78636  26.538  26.485   3.477
13652W        W78637  43.777   3.928  11.092
13653W        W78638   3.599  27.749   2.162
13654W        W78639   6.382  44.495   0.222
13655W        W78640  10.939   9.276  13.121
13656W        W78641  31.561  29.825  13.522
13657W        W78642  32.512  10.190  12.663
13658W        W78643   1.058  41.993   4.512
13659W        W78644  25.232  26.466  11.560
13660W        W78645  35.163  10.432   4.942
13661W        W78646  21.103  43.387   3.146
13662W        W78647  19.775   3.762  13.370
13663W        W78648  29.720  32.913   0.818
13664W        W78649  33.066  25.165  13.346
13665W        W78650   5.622  36.267  14.757
13666W        W78651  16.757  20.909  12.582
13667W        W78652  33.455   9.404   0.264
13668W        W78653  34.919  18.352  13.975
13669W        W78654  13.651   3.503   1.428
13670W        W78655   4.747   8.540  11.580
13671W        W78656  39.346  43.607  12.072
13672W        W78657  17.534  17.757   4.081
13673W        W78658  30.536  29.929   3.845
13674W        W78659  16.090  33.096   0.112
13675W        W78660   6.261  24.661  14.924
13676W        W78661  31.637  19.975   0.765
13677W        W78662  35.477  41.922  12.535
13678W        W78663   5.973  15.456   1.764
13679W        W78664   1.965  10.358   2.580
13680W        W78665  40.035  33.078  10.499
13681W        W78666  34.493  37.143   1.317
13682W        W78667  35.093  30.264  12.802
13683W        W78668  19.780  19.650   3.863
13684W        W78669   8.581   0.399   1.792
13685W        W78670  20.435   5.660  13.577
13686W        W78671  40.744  19.700  12.889
13687W        W78672  36.246  30.607   3.714
13688W        W78673  37.423  16.295   0.758
13689W        W78674  23.045  43.865   0.261
13690W        W78675  38.353   3.324   4.808
13691W        W78676  12.577  29.043  13.504
13692W        W78677  36.032  35.980   0.016
13693W        W78678  17.537  33.562  11.526
13694W        W78679  18.086  37.433  12.032
13695W        W78680  38.667  26.394   1.196
13696W        W78681  40.489  22.740  11.222
13697W        W78682  32.641  20.177  10.826
13698W        W78683  30.146  36.078   2.876
13699W        W78684  17.226  29.505   4.665
13700W        W78685  20.993  15.494   3.223
13701W        W78686  36.758  35.461   4.800
13702W        W78687  39.113  44.905  14.034
13703W        W78688  12.624  23.706  14.790
13704W        W78689   0.691  12.657   1.819
13705W        W78690  15.241   4.700   3.614
13706W        W78691  26.944  22.038  12.926
13707W        W78692   6.803  41.471  11.417
13708W        W78693  13.747  30.085  12.968
13709W        W78694   0.418  14.560   0.013
13710W        W78695  44.778  32.992   4.279
13711W        W78696  38.129   1.797   0.002
13712W        W78697   3.564   4.023   3.190
13713W        W78698  14.815  34.007  10.644
13714W        W78699   0.401  34.501   1.098
13715W        W78700  13.022   1.517  11.925
13716W        W78701  11.658  40.991  12.995
13717W        W78702   6.126   4.382   3.276
13718W        W78703  43.813  42.953  10.704
13719W        W78704  13.696  18.760   0.360
13720W        W78705  14.269  43.248   2.431
13721W        W78706  43.316  20.520   4.224
13722W        W78707  16.856   6.895   1.298
13723W        W78708  11.820  33.044  13.100
13724W        W78709   0.715  37.963   3.326
13725W        W78710  38.852  30.830  11.924
13726W        W78711  40.854  32.734   4.953
13727W        W78712   7.285   6.980   2.600
13728W        W78713  15.883   0.030  14.370
13729W        W78714  20.084  16.759   1.658
13730W        W78715  13.130  38.942   1.212
13731W        W78716   9.825  15.973  13.869
13732W        W78717  29.669   6.698  11.615
13733W        W78718  39.357  23.086  11.680
13734W        W78719  25.219  32.455  12.808
13735W        W78720  22.247  19.960  13.885
13736W        W78721  25.251  38.831   3.569
13737W        W78722  10.927  22.657  12.520
13738W        W78723  29.521  10.495  10.610
13739W        W78724  24.576   9.557   2.695
13740W        W78725  10.191  35.672   2.178
13741W        W78726  44.799  20.719   1.471
13742W        W78727  32.565  29.878  12.500
13743W        W78728  31.135  19.107   2.285
13744W        W78729  34.449  11.453   3.179
13745W        W78730  25.633  40.907  10.928
13746W        W78731  44.903  27.568  10.550
13747W        W78732   5.312  42.838  14.411
13748W        W78733  19.096  26.898   4.288
13749W        W78734   5.462  14.611   2.657
13750W        W78735   1.545   1.267  11.166
13751W        W78736  15.384  41.896  13.775
13752W        W78737   3.640  19.023   3.917
13753W        W78738  40.779  34.999  12.301
13754W        W78739   5.337  35.332   4.215
13755W        W78740  40.480  40.563  12.846
13756W        W78741  20.937  26.919  10.762
13757W        W78742  15.096  12.789  14.420
13758W        W78743  27.398  13.938   4.096
13759W        W78744  27.423   0.824  13.867
13760W        W78745  26.056  21.136   3.236
13761W        W78746  39.484  35.699   3.080
13762W        W78747  36.176  15.806   1.682
13763W        W78748  24.375  40.175   2.945
13764W        W78749   1.361  41.425  14.846
13765W        W78750  20.453  23.064  10.268
13766W        W78751  27.925   9.316  12.603
13767W        W78752  40.122  20.066   0.274
13768W        W78753  39.748  21.680  10.865
13769W        W78754  20.688  42.421   0.741
13770W        W78755  20.287  16.532  13.422
13771W        W78756  22.511  27.132  10.490
13772W        W78757  24.392  39.467   4.225
13773W        W78758  13.728  39.486  11.935
13774W        W78759   6.186  17.466  12.961
13775W        W78760  10.332  28.617   0.809
13776W        W78761  16.780  24.265  13.440
13777W        W78762  24.622  13.845   5.007
13778W        W78763   9.026  36.264  11.329
13779W        W78764  32.161  40.436   4.509
13780W        W78765  24.545  24.165  13.456
13781W        W78766  17.777  38.493   0.205
13782W        W78767  26.095  37.817   3.699
13783W        W78768  30.951   8.318  12.448
13784W        W78769   4.527  26.573   3.052
13785W        W78770   5.757  44.613   4.870
13786W        W78771  40.933  24.042  14.834
13787W        W78772   6.655  13.960  11.914
13788W        W78773  34.203  36.918   4.471
13789W        W78774  40.058   0.815   1.549
13790W        W78775   4.211  15.814   3.466
13791W        W78776   1.437  32.001  10.759
13792W        W78777  42.280  21.146  12.121
13793W        W78778  16.914  39.957   2.402
13794W        W78779  41.477  13.140   4.555
13795W        W78780  17.012   7.664  12.906
13796W        W78781  32.968  34.254   4.823
13797W        W78782  32.534   2.476  12.766
13798W        W78783  16.730  20.547   0.635
13799W        W78784  44.500   8.643   2.159
13800W        W78785   7.606  26.185   0.970
13801W        W78786  23.229  10.943  10.700
13802W        W78787  30.206  38.821  12.928
13803W        W78788   1.342  42.753   0.369
13804W        W78789  18.016  12.202  11.147
13805W        W78790   7.938  26.411   3.256
13806W        W78791   8.909  38.460   0.300
13807W        W78792   0.195   3.985   0.403
13808W        W78793  18.273   4.286  11.029
13809W        W78794  25.238  15.692   3.584
13810W        W78795  32.427  29.513  11.318
13811W        W78796   3.734  36.592  12.988
13812W        W78797  23.106  30.564   9.719
13813W        W78798  25.294   2.776   1.675
13814W        W78799   3.471  10.723   4.013
13815W        W78800  41.334  11.924  11.619
13816W        W78801  13.753  29.386  13.405
13817W        W78802  31.664  19.218  12.979
13818W        W78803  32.632  41.965  12.979
13819W        W78804  22.012  37.122   0.256
13820W        W78805  22.173  26.113  13.892
13821W        W78806  25.612  31.074  14.517
13822W        W78807   6.612  27.563   0.274
13823W        W78808   0.826  30.571   2.733
13824W        W78809  32.268  20.496  13.084
13825W        W78810   1.856   1.349  12.642
13826W        W78811  31.540  40.132  12.076
13827W        W78812  13.070   6.293   5.051
13828W        W78813  34.429  19.600   4.591
13829W        W78814  43.207  21.701   5.372
13830W        W78815  42.430  41.955   2.366
13831W        W78816   3.110  26.089  13.861
13832W        W78817  33.789  42.026   0.747
13833W        W78818  29.630  26.242  12.361
13834W        W78819  16.850  26.053  14.248
13835W        W78820  42.153  14.600  12.859
13836W        W78821   8.452  41.865   4.371
13837W        W78822  13.255  18.116  14.870
13838W        W78823  22.732  14.385   1.797
13839W        W78824  28.605  21.209  14.885
13840W        W78825   7.438  19.116   4.332
13841W        W78826  10.886  27.958   3.752
13842W        W78827  16.181   3.213   1.456
13843W        W78828  29.098  25.366   2.167
13844W        W78829  43.040  21.201   3.335
13845W        W78830  13.201   8.097   4.096
13846W        W78831  29.171  27.357   2.183
13847W        W78832   2.563  25.562   0.092
13848W        W78833  15.305  22.738  13.336
13849W        W78834   5.994  41.871  14.558
13850W        W78835  28.619   6.274   4.145
13851W        W78836  10.627  11.372   3.464
13852W        W78837  43.569   0.339  10.767
13853W        W78838  33.727  36.441   2.343
13854W        W78839   4.928   4.317   0.275
13855W        W78840  35.078  38.296  11.186
13856W        W78841  32.267   2.945  14.360
13857W        W78842  16.719  38.029   4.536
13858W        W78843  12.389  11.577  10.547
13859W        W78844  36.038   8.391  11.941
13860W        W78845  36.911  28.292  11.583
13861W        W78846  37.034   8.644   4.143
13862W        W78847  25.570  28.658  13.297
13863W        W78848  10.797   5.840   4.983
13864W        W78849  15.202  23.572  13.967
13865W        W78850  42.117  26.129  12.228
13866W        W78851  29.600  39.002  14.090
13867W        W78852  32.495  25.075   1.920
13868W        W78853  25.940  27.689   2.434
13869W        W78854  19.125  42.791  14.770
13870W        W78855  38.783  27.900   2.310
13871W        W78856  24.197  25.063  12.639
13872W        W78857  24.187  28.727   0.907
13873W        W78858  20.201   4.432  10.595
13874W        W78859   2.272   0.272   1.883
13875W        W78860  19.077  35.468   4.257
13876W        W78861  24.530   9.037   4.963
13877W        W78862   9.185  43.168   1.143
13878W        W78863  21.946  34.967   0.821
13879W        W78864  19.753   1.431  10.971
13880W        W78865   3.928  21.238   4.682
13881W        W78866  34.910  39.931  12.966
13882W        W78867  15.765  20.613   4.293
13883W        W78868  31.825  24.175   2.437
13884W        W78869  27.513  13.816  10.637
13885W        W78870  30.680  42.839   3.148
13886W        W78871  16.248  29.659   0.497
13887W        W78872  43.356  23.763   2.631
13888W        W78873  10.592  35.922  14.358
13889W        W78874  10.751  42.279   3.620
13890W        W78875  27.129  28.164   2.176
13891W        W78876  30.449  13.564  11.205
13892W        W78877  24.015  39.482  13.510
13893W        W78878  40.549   0.940  12.453
13894W        W78879  36.608  30.545   0.450
13895W        W78880  10.215   8.748   0.681
13896W        W78881  22.150  30.515  14.436
13897W        W78882  13.789  32.496  14.316
13898W        W78883  43.808  20.503  10.872
13899W        W78884  37.613  44.768  14.674
13900W        W78885  27.784   4.327   3.221
13901W        W78886   6.473  31.376   4.267
13902W        W78887   6.454   0.398   4.351
13903W        W78888  29.756  25.104  11.539
13904W        W78889  12.634   3.153  13.475
13905W        W78890  41.469  37.161   0.889
13906W        W78891  11.089   6.310   1.095
13907W        W78892  28.579  27.934   2.634
13908W        W78893  21.204   4.594   0.368
13909W        W78894   5.820  26.089   2.748
13910W        W78895  33.084   1.337   4.823
13911W        W78896  43.831  18.182  13.570
13912W        W78897  21.031  30.434  13.087
13913W        W78898  43.684  26.058  11.461
13914W        W78899  42.998  22.508   1.373
13915W        W78900   5.899  41.464   1.325
13916W        W78901   7.882  32.402   3.190
13917W        W78902  21.779   0.755  12.854
13918W        W78903  42.706  39.949   1.887
13919W        W78904  12.416  27.135   3.560
13920W        W78905  21.785  21.607   4.216
13921W        W78906  36.329   7.955  12.045
13922W        W78907   6.087  42.867   1.798
13923W        W78908   8.208  43.270  10.602
13924W        W78909  13.301  21.243   2.732
13925W        W78910   0.443  13.637  13.675
13926W        W78911  31.906  13.612  10.848
13927W        W78912  11.247  20.021   2.179
13928W        W78913   8.044   5.241   1.606
13929W        W78914   1.918   6.652   1.812
13930W        W78915  44.896  19.686  14.044
13931W        W78916  26.611  34.909   1.467
13932W        W78917  11.750  37.595   5.017
13933W        W78918  30.836  35.325  13.575
13934W        W78919  26.034  27.902  14.557
13935W        W78920  25.631  31.216   0.021
13936W        W78921  22.687  10.421  13.049
13937W        W78922   2.900   9.225   2.870
13938W        W78923  41.067  36.372  14.865
13939W        W78924  36.195   0.230  13.178
13940W        W78925  37.082  43.802  14.489
13941W        W78926  22.801   7.259  10.325
13942W        W78927   0.498   6.884   1.068
13943W        W78928  32.765  20.306   3.301
13944W        W78929  10.392   6.957   5.322
13945W        W78930  27.419  20.586  11.547
13946W        W78931  22.768   5.979  12.679
13947W        W78932  15.345  29.644   4.124
13948W        W78933   9.067  22.292  11.206
13949W        W78934  37.920   5.518   2.303
13950W        W78935  26.153  27.431  12.293
13951W        W78936   4.916  23.184   1.880
13952W        W78937  34.668  17.594   0.797
13953W        W78938   2.750   7.247   0.680
13954W        W78939  36.731  22.642  11.652
13955W        W78940  30.491  31.891  10.482
13956W        W78941  20.769  33.928  11.468
13957W        W78942  18.152  27.016  12.528
13958W        W78943  32.702  23.161   2.298
13959W        W78944  12.035  42.494   4.276
13960W        W78945   3.996  41.347  12.589
13961W        W78946  29.162  39.393  11.536
13962W        W78947   8.482  27.048  13.540
13963W        W78948   3.228  20.884  13.422
13964W        W78949  22.632  10.781  13.464
13965W        W78950  17.069  15.295   3.711
13966W        W78951   9.377  19.126  14.738
13967W        W78952  16.202  34.320  12.992
13968W        W78953  30.783  36.991   2.371
13969W        W78954  37.328   1.427  14.009
13970W        W78955  26.496  12.395  10.797
13971W        W78956  11.796  17.399   1.753
13972W        W78957  10.915  21.319   1.804
13973W        W78958  43.789   7.422   1.766
13974W        W78959  29.849  42.170   0.828
13975W        W78960  41.524  43.709  11.456
13976W        W78961  19.860  39.706   2.424
13977W        W78962   0.791  44.247   3.580
13978W        W78963  43.343  38.053  13.897
13979W        W78964   3.771  11.608   3.357
13980W        W78965  34.292  31.340   0.833
13981W        W78966   9.940  10.776  14.876
13982W        W78967  26.802  42.241  14.349
13983W        W78968  29.614  32.654   3.633
13984W        W78969  32.007  10.229  13.934
13985W        W78970  39.064  22.579   0.284
13986W        W78971  39.487  32.163   0.307
13987W        W78972  10.685  39.445  12.244
13988W        W78973  33.972  10.053  14.972
13989W        W78974  21.367   6.262   3.709
13990W        W78975   9.208  18.123   2.692
13991W        W78976  30.917  31.563   4.236
13992W        W78977  13.341  40.790   3.868
13993W        W78978  12.307  41.599   4.135
13994W        W78979  27.473  27.193  10.645
13995W        W78980  38.863  29.589  11.622
13996W        W78981  12.052  24.604   4.896
13997W        W78982  42.485   1.489   4.201
13998W        W78983  25.618  44.324   4.198
13999W        W78984   4.875  42.154   0.226
14000W        W78985   7.740  42.317   2.947
14001W        W78986  18.647  12.646  14.456
14002W        W78987  21.147  14.452   3.029
14003W        W78988  14.298  28.427   2.811
14004W        W78989  22.286  27.198   0.762
14005W        W78990  33.176  14.296  11.992
14006W        W78991  29.111   3.393  13.456
14007W        W78992  16.282  22.197  14.890
14008W        W78993  39.085  21.977  13.935
14009W        W78994  40.529  31.840   0.060
14010W        W78995  11.525  25.653  12.583
14011W        W78996  25.479  40.671  14.939
14012W        W78997  25.767   7.192   0.401
14013W        W78998  36.597  10.699   3.712
14014W        W78999  35.149  17.025   1.353
14015W        W79000  35.463  41.854   0.845
14016W        W79001   6.893  37.030  14.475
14017W        W79002   5.430  20.240   3.577
14018W        W79003   2.965  30.583   0.536
14019W        W79004   5.905  15.718  10.578
14020W        W79005   9.830  14.828  10.907
14021W        W79006  34.486  29.585   2.227
14022W        W79007  31.935  24.165  14.365
14023W        W79008  37.085  24.627   2.402
14024W        W79009   1.730  22.334  12.981
14025W        W79010  32.429  21.342  11.447
14026W        W79011  41.836  15.029   4.017
14027W        W79012  32.475  26.334   0.255
14028W        W79013  14.323  13.661  13.322
14029W        W79014  39.119   2.098   0.243
14030W        W79015  39.895   2.694   1.716
14031W        W79016  17.068  13.010   4.154
14032W        W79017   5.291  29.181   0.381
14033W        W79018   2.238   8.682   3.135
14034W        W79019   4.675  14.335   3.729
14035W        W79020   3.148  15.254   4.409
14036W        W79021  37.412   5.961  10.407
14037W        W79022  29.976   8.323   2.266
14038W        W79023  31.235   5.922   0.771
14039W        W79024  30.575  41.550  10.700
14040W        W79025  40.054   1.276   3.628
14041W        W79026  12.791  30.547  14.492
14042W        W79027   0.696  38.900   1.304
14043W        W79028  23.661   2.869   0.862
14044W        W79029  25.440  25.576  12.835
14045W        W79030  29.584  38.066   2.115
14046W        W79031   7.805   8.633   3.192
14047W        W79032  32.624  39.824   0.464
14048W        W79033  16.799   5.377  14.077
14049W        W79034  11.620  26.122   4.211
14050W        W79035  42.014  29.668   4.192
14051W        W79036  41.444   3.682   4.112
14052W        W79037  30.058  21.806  13.306
14053W        W79038  18.277   9.178   0.577
14054W        W79039  20.046  35.259   4.034
14055W        W79040  36.924  17.286   1.004
14056W        W79041  15.751  35.672  11.006
14057W        W79042   0.892  33.619  14.870
14058W        W79043  10.211  19.660   4.586
14059W        W79044  30.445  13.121   3.810
14060W        W79045  17.003  18.195  10.472
14061W        W79046  31.223  39.923  11.642
14062W        W79047  40.006  44.315   3.267
14063W        W79048   1.570  37.046  11.567
14064W        W79049  21.621  21.772   0.338
14065W        W79050   7.958  30.651   1.224
14066W        W79051  44.864   5.977   2.772
14067W        W79052  19.433  18.637   0.167
14068W        W79053   6.736  13.856   1.744
14069W        W79054  21.270   3.470   0.893
14070W        W79055  42.831   6.841  14.380
14071W        W79056  20.244   0.403  14.784
14072W        W79057  24.643  27.472   3.753
14073W        W79058  21.160  10.734  13.652
14074W        W79059  13.120  23.629  12.078
14075W        W79060  20.728  20.770  14.697
14076W        W79061  35.602   8.179  12.102
14077W        W79062  42.733  10.132  13.967
14078W        W79063  36.889  34.618   3.611
14079W        W79064  32.634  39.969   0.958
14080W        W79065   3.315   6.374  14.312
14081W        W79066  22.064  21.305   1.260
14082W        W79067  24.578  12.252   3.341
14083W        W79068   3.491  12.578  12.977
14084W        W79069  25.799  44.761   1.792
14085W        W79070   2.078   4.931  11.140
14086W        W79071  34.045  27.128   3.638
14087W        W79072  14.633  14.727   4.384
14088W        W79073  44.985   9.823  12.512
14089W        W79074  26.612  18.829   3.084
14090W        W79075   6.696  22.567  13.043
14091W        W79076  21.596   8.126  11.062
14092W        W79077  33.807   0.910   1.824
14093W        W79078  21.245  36.759   2.191
14094W        W79079  34.886  38.341   3.642
14095W        W79080  20.471   1.757  14.891
14096W        W79081  27.414  25.651   3.165
14097W        W79082  30.981  11.612  13.305
14098W        W79083  32.660  19.459  11.155
14099W        W79084  29.488  29.630   3.125
14100W        W79085  24.517  12.343   3.858
14101W        W79086   0.380   7.398  11.552
14102W        W79087  21.692  16.329  13.337
14103W        W79088   6.355  14.056   0.240
14104W        W79089  11.182  10.647  12.885
14105W        W79090  28.584  11.817   0.388
14106W        W79091  30.898  35.105  11.665
14107W        W79092  39.875  40.263   4.542
14108W        W79093  29.137  41.371   2.823
14109W        W79094  31.370  24.612  14.910
14110W        W79095  14.131   7.642   3.149
14111W        W79096  34.431   9.404  11.958
14112W        W79097  29.531  26.400   4.597
14113W        W79098  17.784  23.569  14.790
14114W        W79099  16.039   3.041   0.051
14115W        W79100   0.704  41.496  13.306
14116W        W79101   5.147  40.379  12.352
14117W        W79102  36.136  43.374  12.009
14118W        W79103  13.272  24.202   3.202
14119W        W79104  36.548   0.554   1.276
14120W        W79105  33.079  28.156   2.847
14121W        W79106  13.365  14.315  11.582
14122W        W79107  23.294  30.840  11.477
14123W        W79108  31.225  38.634  11.982
14124W        W79109  40.209   5.598  13.444
14125W        W79110   9.285  13.172   3.587
14126W        W79111  21.324  42.377  13.374
14127W        W79112  22.507  26.257  12.162
14128W        W79113  14.520  17.101   3.330
14129W        W79114  35.307  28.883   3.646
14130W        W79115  40.915  27.610  12.899
14131W        W79116   1.276  23.613   1.040
14132W        W79117  11.766  18.608   0.515
14133W        W79118   2.746  33.090   2.709
14134W        W79119  44.938  42.789  10.627
14135W        W79120   2.358  22.350  10.412
14136W        W79121   8.879  11.663  14.071
14137W        W79122   1.514  32.931   1.766
14138W        W79123  29.542  12.666   1.837
14139W        W79124  38.685  26.328   0.414
14140W        W79125  40.814   8.869   1.318
14141W        W79126  13.944  13.443   0.732
14142W        W79127  32.875  20.202   4.097
14143W        W79128  19.581   2.409   3.430
14144W        W79129   5.717  36.087  11.499
14145W        W79130   0.821  11.784  13.902
14146W        W79131  16.685   8.014   0.406
14147W        W79132   4.432  22.036   2.919
14148W        W79133  13.594  41.932  12.665
14149W        W79134  17.268  29.740   0.242
14150W        W79135   7.153  10.234  13.953
14151W        W79136  17.143  37.976  11.489
14152W        W79137   9.807  34.116  10.488
14153W        W79138   6.294  36.576   1.387
14154W        W79139  20.993  11.789   3.634
14155W        W79140  29.514   9.834   3.726
14156W        W79141   2.306  36.384  12.982
14157W        W79142   1.824  37.027   2.290
14158W        W79143  29.846  40.299  13.870
14159W        W79144  17.612   0.411   2.895
14160W        W79145   2.968  18.083   4.066
14161W        W79146  27.008  15.617   3.698
14162W        W79147   2.959  36.329  12.362
14163W        W79148  13.741  34.282  11.251
14164W        W79149  36.958   0.052  14.586
14165W        W79150  43.998  26.134   0.551
14166W        W79151  38.824  26.564  14.902
14167W        W79152  15.987  21.130   4.980
14168W        W79153   2.206   5.714   4.638
14169W        W79154   8.846  33.459   0.292
14170W        W79155  34.127  20.643  10.742
14171W        W79156  27.685  29.050  12.518
14172W        W79157  16.085  25.851   2.846
14173W        W79158  23.506  15.356   1.840
14174W        W79159  34.194  16.826  13.799
14175W        W79160  13.664  22.990   0.910
14176W        W79161  36.287  12.347  10.012
14177W        W79162  31.947   2.234   3.782
14178W        W79163  29.478  40.348  12.888
14179W        W79164  37.919  37.912  14.318
14180W        W79165  22.516  20.552  14.710
14181W        W79166  21.908  23.877  12.073
14182W        W79167  24.643  28.898  13.520
14183W        W79168  33.148  12.615   0.992
14184W        W79169  39.048  36.568  11.616
14185W        W79170  13.656  38.141  13.507
14186W        W79171  20.996   3.417   2.753
14187W        W79172  12.847  37.576  13.862
14188W        W79173   9.169  33.029  12.011
14189W        W79174   1.245  44.896  14.674
14190W        W79175  10.907   8.738   2.331
14191W        W79176  20.113   1.911  14.072
14192W        W79177  33.459  12.727   5.269
14193W        W79178  27.220   5.466   3.722
14194W        W79179  27.200  27.755   2.589
14195W        W79180  22.303  44.282   4.152
14196W        W79181   8.788  33.990  12.536
14197W        W79182   8.982  23.598  14.900
14198W        W79183  34.788  35.872   0.465
14199W        W79184  18.108  36.071  13.901
14200W        W79185  43.448  20.035   3.421
14201W        W79186   9.720   5.010   4.109
14202W        W79187   0.004  16.538   4.694
14203W        W79188  30.413  35.062  11.595
14204W        W79189  41.221  15.322  13.937
14205W        W79190   8.147  23.298  14.946
14206W        W79191  17.906  28.750  14.557
14207W        W79192  42.952  31.641  12.819
14208W        W79193   7.750  26.960  12.518
14209W        W79194   4.873  28.097   5.083
14210W        W79195  14.257  36.357  11.638
14211W        W79196  15.132  33.962  11.364
14212W        W79197  36.317   9.240   3.008
14213W        W79198  38.609  16.645   3.743
14214W        W79199  12.643  19.764   1.637
14215W        W79200  20.776  16.740   2.226
14216W        W79201  11.170  16.916  13.930
14217W        W79202  28.096  23.686   3.225
14218W        W79203  16.823  44.831  11.567
14219W        W79204   6.439  44.836  12.066
14220W        W79205  33.954  25.091  13.486
14221W        W79206  19.099  44.972   2.965
14222W        W79207  24.200  19.729  12.881
14223W        W79208  33.864  17.624  13.410
14224W        W79209  18.693  33.107  11.903
14225W        W79210   9.931  30.377   0.856
14226W        W79211   0.484  10.541   3.106
14227W        W79212   0.268   6.261  14.825
14228W        W79213  23.534  25.298   2.850
14229W        W79214  36.433  22.575   0.016
14230W        W79215  19.078  21.755   2.168
14231W        W79216  23.418  36.463  12.906
14232W        W79217   7.305  31.620   4.370
14233W        W79218   0.199  15.827   3.354
14234W        W79219  29.259  19.698   2.169
14235W        W79220   1.497  30.977  10.783
14236W        W79221  26.284  17.619  11.493
14237W        W79222   2.338   2.677  14.230
14238W        W79223  41.348   0.493   4.719
14239W        W79224  39.811   8.625  13.628
14240W        W79225  28.684  43.269  14.986
14241W        W79226  41.389   6.459   4.779
14242W        W79227  11.173   7.877  12.032
14243W        W79228   2.248  32.935  11.014
14244W        W79229  41.574  39.166  13.869
14245W        W79230  14.820  42.257  14.871
14246W        W79231  17.568  30.704   3.625
14247W        W79232   2.277  15.368   2.980
14248W        W79233  38.555   7.726  13.383
14249W        W79234  27.171  12.514   2.724
14250W        W79235   3.419  34.762  12.898
14251W        W79236  17.549  43.900   1.348
14252W        W79237   2.289  15.824   4.661
14253W        W79238   6.314  24.764   2.840
14254W        W79239  35.436  25.434   3.135
14255W        W79240  31.458  11.302  14.883
14256W        W79241   0.752   0.034   2.829
14257W        W79242   2.981   3.201  13.529
14258W        W79243  44.899  11.396   1.086
14259W        W79244  16.768  44.563  13.124
14260W        W79245   2.438  34.399  11.458
14261W        W79246   6.861   0.361   4.703
14262W        W79247  30.351  37.515   0.912
14263W        W79248  37.954   2.038   0.436
14264W        W79249  20.971  14.276   1.272
14265W        W79250  13.641  44.985  11.040
14266W        W79251  37.112  39.363  11.758
14267W        W79252   2.483  17.724   4.495
14268W        W79253  39.335   4.239   3.634
14269W        W79254  10.549  25.984  14.928
14270W        W79255  37.845  10.350   4.726
14271W        W79256  41.909  14.154   5.009
14272W        W79257  37.372   8.167   2.828
14273W        W79258   2.755  16.295   1.872
14274W        W79259  37.474  27.016  13.814
14275W        W79260  12.577  40.920   0.296
14276W        W79261  25.938  28.915   5.427
14277W        W79262  22.602  30.597  11.005
14278W        W79263   2.474   8.623  14.912
14279W        W79264  16.006  37.194   4.637
14280W        W79265  30.444  35.465  12.454
14281W        W79266  37.395  25.601   0.890
14282W        W79267  19.660   7.447   3.466
14283W        W79268  23.336  11.315  14.594
14284W        W79269   7.897  17.982  11.209
14285W        W79270   0.748  34.048   4.583
14286W        W79271  12.400  20.423   4.271
14287W        W79272   5.525  28.040   4.302
14288W        W79273  32.143   7.812  12.505
14289W        W79274   7.101  18.759   4.151
14290W        W79275   9.050  22.493   3.244
14291W        W79276  34.098   5.127   2.421
14292W        W79277  23.566  42.820  14.960
14293W        W79278  11.318  41.867   4.738
14294W        W79279  34.885  26.209  13.363
14295W        W79280  42.439   2.765   1.159
14296W        W79281  16.088  28.219  12.977
14297W        W79282  14.346  22.195  10.344
14298W        W79283   1.490  18.350  13.823
14299W        W79284  26.678  25.568   1.751
14300W        W79285  43.806  41.945   3.306
14301W        W79286  23.150  38.348   3.302
14302W        W79287  43.742  33.199  14.990
14303W        W79288  33.642   7.220   2.265
14304W        W79289  21.572   0.722  11.124
14305W        W79290  16.076  20.372  14.196
14306W        W79291  28.940  29.171  11.400
14307W        W79292  25.594   5.001   4.982
14308W        W79293  44.778  20.001  11.544
14309W        W79294  13.252  23.130   2.732
14310W        W79295  32.467  14.680  14.614
14311W        W79296   0.476  14.134   3.858
14312W        W79297  42.956  33.536  14.261
14313W        W79298  31.932  27.534   2.107
14314W        W79299  31.549  44.414   0.826
14315W        W79300  22.166   1.478  12.529
14316W        W79301  43.823  23.552  14.005
14317W        W79302  11.292  20.271   0.130
14318W        W79303  22.265  39.018  13.553
14319W        W79304  32.059  20.679   0.904
14320W        W79305  29.879  12.526   2.333
14321W        W79306  35.846   0.385   2.895
14322W        W79307  21.810  17.649  13.530
14323W        W79308  17.161  23.527   3.594
14324W        W79309  26.949   0.309   1.271
14325W        W79310  16.571  42.541  14.611
14326W        W79311  29.118  32.317   2.761
14327W        W79312  16.874   9.921   3.251
14328W        W79313   0.842  42.777  14.018
14329W        W79314   3.921  16.312  12.468
14330W        W79315   3.397  40.889  11.865
14331W        W79316   7.170   1.909   4.089
14332W        W79317   2.064  27.981   2.122
14333W        W79318  31.579  29.535   0.409
14334W        W79319   2.028  38.133  11.165
14335W        W79320   6.830   4.680   3.091
14336W        W79321   6.899   8.767  11.027
14337W        W79322  15.384  21.246  11.953
14338W        W79323  34.535  11.583   0.481
14339W        W79324  14.676   8.848   2.384
14340W        W79325  41.683  14.697  13.157
14341W        W79326  40.338   4.368   2.362
14342W        W79327  22.269  33.987  12.430
14343W        W79328   3.357  17.795   0.231
14344W        W79329  31.121  35.897  14.238
14345W        W79330  28.944  29.341   4.217
14346W        W79331  10.253   1.692  13.777
14347W        W79332  31.955  26.741  10.623
14348W        W79333  34.546  38.579  11.113
14349W        W79334  34.318  20.897  13.168
14350W        W79335  20.261  22.139  13.504
14351W        W79336   9.222   2.785   4.869
14352W        W79337  38.147  37.425   1.232
14353W        W79338  44.419  17.616   2.801
14354W        W79339  14.516   4.005  13.555
14355W        W79340  42.451  32.251  11.635
14356W        W79341  21.127  33.950  11.080
14357W        W79342  41.821   0.347   1.160
14358W        W79343  43.697   0.287   2.300
14359W        W79344  10.415   4.472  13.464
14360W        W79345  38.836  20.017  14.022
14361W        W79346   8.812  36.696   5.156
14362W        W79347  34.092   2.439   2.766
14363W        W79348  21.609   0.732   0.438
14364W        W79349  33.457   2.417  10.596
14365W        W79350   8.792  42.257  14.894
14366W        W79351  39.411  38.949   1.449
14367W        W79352   7.349  16.075  13.308
14368W        W79353  18.637  27.106   0.261
14369W        W79354  20.132  12.780  13.990
14370W        W79355   0.733  11.110  14.395
14371W        W79356  14.205  33.136   4.274
14372W        W79357  25.935   2.217  12.021
14373W        W79358   9.698  15.653   2.232
14374W        W79359  31.651  10.921   0.286
14375W        W79360  18.572  34.281   2.683
14376W        W79361  10.084  35.063  13.426
14377W        W79362  25.755  15.728   1.416
14378W        W79363  32.877  32.888   1.435
14379W        W79364  10.597  40.018   1.212
14380W        W79365  12.223  39.977  12.396
14381W        W79366  13.119  27.275   0.319
14382W        W79367  40.331  39.538  12.502
14383W        W79368   0.130  14.725   9.996
14384W        W79369  42.324   0.783   0.966
14385W        W79370   2.170  28.558  13.129
14386W        W79371  43.423  25.975  12.403
14387W        W79372  14.203  15.771   9.979
14388W        W79373  25.143  24.331  14.887
14389W        W79374  39.528  29.451  12.880
14390W        W79375  36.068   0.413  11.735
14391W        W79376   0.328   8.361  10.682
14392W        W79377   1.635  14.851  13.467
14393W        W79378   2.643  33.841   3.613
14394W        W79379  24.445  21.615  12.947
14395W        W79380   3.222  44.022   0.773
14396W        W79381  17.839  22.484  12.030
14397W        W79382  38.811  24.257   2.691
14398W        W79383  37.920  17.080   3.607
14399W        W79384   9.917  31.901  10.106
14400W        W79385  28.855  20.229   3.786
14401W        W79386   2.864   4.985   4.776
14402W        W79387  33.649  11.868   1.052
14403W        W79388  16.770  43.305   4.165
14404W        W79389   6.136  33.901  11.683
14405W        W79390  19.134  36.230  14.728
14406W        W79391  19.539   9.200  10.791
14407W        W79392  12.743  35.000   2.731
14408W        W79393  30.178  40.172  14.748
14409W        W79394  30.944  26.563   4.705
14410W        W79395  40.778  38.053   1.223
14411W        W79396  32.124  28.605   1.297
14412W        W79397  17.219   3.933   2.699
14413W        W79398  28.181  37.505  14.508
14414W        W79399  19.162  22.522   3.287
14415W        W79400   1.765  13.796   3.726
14416W        W79401  20.999  27.521   1.326
14417W        W79402  41.919  12.681   3.314
14418W        W79403   4.480  13.842   1.317
14419W        W79404  29.076  26.537  14.360
14420W        W79405  16.790  20.748  13.496
14421W        W79406  40.887  41.385  13.825
14422W        W79407  17.845  42.945   1.584
14423W        W79408  19.267  30.406  12.331
14424W        W79409   7.214   4.259   4.676
14425W        W79410   0.531  13.058   4.960
14426W        W79411   1.468   0.594  14.041
14427W        W79412  14.347   1.487  10.617
14428W        W79413  28.130  27.862   2.348
14429W        W79414  35.007   7.759  12.586
14430W        W79415  35.582   6.909  11.687
14431W        W79416  13.592  27.642  12.556
14432W        W79417  10.070  21.423  14.331
14433W        W79418  10.264   1.396   4.166
14434W        W79419  21.933  37.493   2.295
14435W        W79420  24.606  35.082   0.809
14436W        W79421   8.320  27.977  12.348
14437W        W79422   9.082  22.514  13.861
14438W        W79423  40.388  23.190   1.849
14439W        W79424  37.815  27.964   0.510
14440W        W79425  23.486   3.261   1.163
14441W        W79426  18.213  20.642   0.683
14442W        W79427  16.869  30.853  14.871
14443W        W79428  43.550  19.820   1.700
14444W        W79429  26.740  38.099  12.379
14445W        W79430   5.206  16.844   1.237
14446W        W79431   9.689  19.998  14.329
14447W        W79432  43.681  29.524   3.630
14448W        W79433   3.000  34.178  13.632
14449W        W79434  42.295   6.736   0.189
14450W        W79435  20.155  43.187   5.192
14451W        W79436  11.206   7.213  12.126
14452W        W79437  34.556  38.395   1.036
14453W        W79438  36.445  15.196  14.254
14454W        W79439  34.054  31.930  13.822
14455W        W79440   8.093  39.962   2.450
14456W        W79441  30.889  43.361   0.502
14457W        W79442  39.857  23.558  14.356
14458W        W79443  35.689  31.032   4.513
14459W        W79444  34.077  25.490  14.947
14460W        W79445  35.984  27.611  13.802
14461W        W79446  10.622  35.152  12.555
14462W        W79447  39.830  38.541  12.629
14463W        W79448  22.681  15.243  12.826
14464W        W79449   8.502  29.470   3.296
14465W        W79450  37.590  24.625   0.893
14466W        W79451  28.605  17.901  10.847
14467W        W79452   9.467   9.606  13.302
14468W        W79453   9.262  25.534   2.911
14469W        W79454   3.868  11.221  11.070
14470W        W79455  30.429  22.188   1.971
14471W        W79456  43.970  12.601   0.526
14472W        W79457  30.691  12.414   3.310
14473W        W79458   7.961  19.218   1.664
14474W        W79459   1.434  35.853  13.132
14475W        W79460  39.652  18.767   3.832
14476W        W79461  20.737   5.255  13.468
14477W        W79462   3.377  37.054  12.366
14478W        W79463  11.663   6.852   0.798
14479W        W79464  22.476  28.389   0.209
14480W        W79465  36.355  36.349   0.219
14481W        W79466  39.106  40.752  13.887
14482W        W79467  14.034  19.216  11.530
14483W        W79468   1.457  23.513   2.472
14484W        W79469  13.512  43.358  10.667
14485W        W79470  14.021  43.323  10.696
14486W        W79471  39.092  44.884   0.044
14487W        W79472   6.404  24.932   2.217
14488W        W79473  35.949  21.833   0.864
14489W        W79474  19.321   7.483   1.788
14490W        W79475  42.118  33.748  12.037
14491W        W79476  39.944  20.975   3.261
14492W        W79477   3.800  29.896   3.692
14493W        W79478  30.073  44.315  13.677
14494W        W79479  38.576  41.905   0.235
14495W        W79480  18.338   5.524   0.492
14496W        W79481  17.712  33.707  14.376
14497W        W79482  27.161  41.992   4.132
14498W        W79483  24.272  15.265  10.720
14499W        W79484   0.669   1.032  11.291
14500W        W79485   9.117  18.590  10.706
14501W        W79486  14.686  44.054   1.426
14502W        W79487  13.888  36.004  11.626
14503W        W79488  37.489  31.586   3.368
14504W        W79489  20.514  39.565   4.178
14505W        W79490   8.721  21.295   4.530
14506W        W79491  14.864  37.960  12.041
14507W        W79492  19.307  27.553   3.221
14508W        W79493  39.436  16.698   5.705
14509W        W79494  14.728  40.241   4.583
14510W        W79495  24.719  34.734   3.524
14511W        W79496  20.766  40.857  12.970
14512W        W79497   8.751  23.710   0.712
14513W        W79498  18.115   4.400  14.377
14514W        W79499  34.539   4.929   4.737
14515W        W79500  25.980  17.228   5.092
14516W        W79501  21.815  16.813   2.236
14517W        W79502  40.748  27.031   0.906
14518W        W79503  22.024  33.118  10.698
14519W        W79504  34.443   9.885   4.080
14520W        W79505   8.782   8.697   2.965
14521W        W79506  41.292  39.461   3.297
14522W        W79507   0.712  40.663   4.984
14523W        W79508   8.929  32.705  11.347
14524W        W79509  22.525   0.901   2.150
14525W        W79510  17.827  44.955   4.677
14526W        W79511  18.777  34.128   0.441
14527W        W79512  33.668   2.123   4.594
14528W        W79513   1.357  10.209   0.419
14529W        W79514  31.637  30.078   1.871
14530W        W79515  14.555   2.603   2.255
14531W        W79516  41.057  32.453   4.588
14532W        W79517  43.250  35.219  12.874
14533W        W79518  41.002  30.869   3.716
14534W        W79519   8.670  13.242  12.580
14535W        W79520  34.536   6.281  12.831
14536W        W79521  29.756  22.766  11.152
14537W        W79522  36.145  34.206   0.193
14538W        W79523  28.565  37.104  11.568
14539W        W79524  26.046  19.553   0.259
14540W        W79525   6.708  32.601   1.237
14541W        W79526  29.906  31.775   5.171
14542W        W79527  43.223  36.316   3.637
14543W        W79528   2.948  13.180   2.327
14544W        W79529  20.621  25.726  11.485
14545W        W79530  13.839  27.977  12.883
14546W        W79531  44.554  34.727   9.794
14547W        W79532   9.901  42.220  13.537
14548W        W79533  12.536   9.351   2.207
14549W        W79534  30.457  27.616  10.780
14550W        W79535  25.772  14.373   3.699
14551W        W79536  29.221   8.669  14.756
14552W        W79537  32.341   0.025   4.532
14553W        W79538  25.991  13.798   3.155
14554W        W79539  20.581   4.271   4.220
14555W        W79540  30.217  36.292  12.153
14556W        W79541  27.681  22.684   0.733
14557W        W79542  14.527   1.277  11.906
14558W        W79543  25.743  39.169  12.082
14559W        W79544  15.635  22.610  10.585
14560W        W79545  34.509  28.564   2.285
14561W        W79546  24.022  27.439   0.304
14562W        W79547  15.469  17.538  10.992
14563W        W79548   0.699   3.233   0.384
14564W        W79549  44.840  20.185  13.959
14565W        W79550  32.368  23.676   4.176
14566W        W79551  15.080  37.095   3.673
14567W        W79552  20.252  14.174  13.358
14568W        W79553  36.361  19.890  12.487
14569W        W79554  38.037  14.314   2.677
14570W        W79555  21.649  37.679  14.393
14571W        W79556  42.124  24.431  10.367
14572W        W79557  18.910  14.268  11.506
14573W        W79558  17.364  36.891  12.137
14574W        W79559  34.712   6.674   4.077
14575W        W79560   8.942  14.839   2.669
14576W        W79561  40.247  44.327   3.872
14577W        W79562   5.156   8.464  10.262
14578W        W79563  19.080  13.594   4.560
14579W        W79564  24.972  22.152   0.816
14580W        W79565  38.339  30.917  10.675
14581W        W79566  11.817  13.676  13.998
14582W        W79567  20.208  34.386   3.550
14583W        W79568  27.467  35.902  13.358
14584W        W79569  18.679  13.088   1.264
14585W        W79570   0.688   0.330   4.048
14586W        W79571  24.499  10.305   0.927
14587W        W79572  30.600  15.822   3.625
14588W        W79573  15.767  15.084   4.241
14589W        W79574   5.408  36.563  11.873
14590W        W79575  15.802  25.537  12.470
14591W        W79576  21.668  16.537   3.574
14592W        W79577   2.183   6.180   0.493
14593W        W79578  13.633  33.146   1.768
14594W        W79579  18.677  29.559   4.485
14595W        W79580  14.355  17.841  14.023
14596W        W79581  17.770  16.778   0.797
14597W        W79582  30.636   4.306  14.853
14598W        W79583  21.636  10.498  12.926
14599W        W79584  31.021   4.439  12.061
14600W        W79585  13.595  24.228  12.891
14601W        W79586  39.803   2.388   4.184
14602W        W79587  17.941  28.616   5.020
14603W        W79588  17.866  29.128  13.389
14604W        W79589  32.508   4.160   0.913
14605W        W79590   4.261  35.510  14.947
14606W        W79591  29.795   6.177   5.211
14607W        W79592  31.272  38.833   3.823
14608W        W79593   7.207  13.264  10.497
14609W        W79594   0.981  38.383   3.149
14610W        W79595  43.517  32.096   1.350
14611W        W79596  40.895   6.985  13.562
14612W        W79597  12.043  37.291  11.958
14613W        W79598  15.863  23.095  11.973
14614W        W79599  27.085  17.261   0.711
14615W        W79600  39.603  26.968   2.400
14616W        W79601  36.015  15.491  14.148
14617W        W79602  10.925   2.017  13.204
14618W        W79603  35.862  12.848   2.578
14619W        W79604  22.078  18.655   2.646
14620W        W79605   3.117  25.000  13.488
14621W        W79606   4.257  10.376  12.005
14622W        W79607   8.018  33.343   0.432
14623W        W79608  31.488  18.937   3.197
14624W        W79609  10.722  13.365  12.837
14625W        W79610  36.031  39.222  10.999
14626W        W79611  20.042  21.044  14.248
14627W        W79612  11.597   5.616  14.284
14628W        W79613  37.412  16.310  11.127
14629W        W79614  25.940  23.530   2.624
14630W        W79615  25.073   4.700  13.782
14631W        W79616  25.862  17.802   4.253
14632W        W79617   5.486  38.889   0.122
14633W        W79618  44.049  23.578  13.451
14634W        W79619   6.752  11.202   0.872
14635W        W79620  33.261   8.582   0.494
14636W        W79621   8.258  30.267   0.163
14637W        W79622  11.774  24.911  11.526
14638W        W79623  19.027  40.727  13.534
14639W        W79624  29.573  15.201  14.565
14640W        W79625  34.822   8.913  13.900
14641W        W79626  34.592   6.671   0.005
14642W        W79627   7.362  12.408   0.943
14643W        W79628   4.358  19.517   4.720
14644W        W79629  40.429  34.665  14.969
14645W        W79630  14.666  40.491   1.253
14646W        W79631  36.352   9.669   3.686
14647W        W79632  11.319  38.130   1.848
14648W        W79633  42.586  17.627   1.167
14649W        W79634  28.883  41.088   0.951
14650W        W79635   6.852  37.018   1.003
14651W        W79636  10.977  27.381  14.062
14652W        W79637   6.763  28.915   4.596
14653W        W79638  38.982  30.664   2.275
14654W        W79639  33.122  23.487   0.336
14655W        W79640  25.225  29.208  14.340
14656W        W79641  40.497  29.598  11.191
14657W        W79642  34.084   8.769  14.381
14658W        W79643  15.803  42.690  13.590
14659W        W79644   7.152   8.419   4.057
14660W        W79645   7.323  36.132   3.163
14661W        W79646  18.375   4.973  11.147
14662W        W79647   5.805  10.280  13.740
14663W        W79648  34.417  11.486   4.104
14664W        W79649  10.375  39.060  12.371
14665W        W79650  13.775  38.262   0.267
14666W        W79651  29.671   8.715   1.304
14667W        W79652  36.327  26.147  12.550
14668W        W79653  37.730   3.453  11.110
14669W        W79654  40.967  30.403   1.490
14670W        W79655   6.807  35.751  12.185
14671W        W79656  20.544  22.552   4.335
14672W        W79657  10.001  27.120   0.945
14673W        W79658   1.516  19.843   0.588
14674W        W79659   3.301  32.496  11.982
14675W        W79660   4.128  27.674  14.064
14676W        W79661   3.011   0.902  14.868
14677W        W79662  19.989   6.917   3.661
14678W        W79663  20.067  17.154  14.432
14679W        W79664  18.831   4.328   0.719
14680W        W79665  27.922  15.291  12.815
14681W        W79666  15.950  25.960   0.463
14682W        W79667   5.934  44.288  13.494
14683W        W79668   9.395  18.758  12.972
14684W        W79669  40.865  28.936  13.061
14685W        W79670   6.038  24.561   3.682
14686W        W79671  23.117  11.364   2.311
14687W        W79672   4.127  35.461  11.114
14688W        W79673   4.917  11.072  13.099
14689W        W79674  18.528   2.885   3.352
14690W        W79675   4.233  21.108   3.906
14691W        W79676  23.967  13.149  12.950
14692W        W79677   7.443  25.177   1.426
14693W        W79678  22.487  37.847  13.991
14694W        W79679  27.060  31.895   1.690
14695W        W79680  34.812  10.596   3.252
14696W        W79681  40.435  42.549  11.581
14697W        W79682  36.288   2.341   1.642
14698W        W79683  41.782  21.137  10.896
14699W        W79684  14.750  31.049   4.138
14700W        W79685  36.976  15.927   4.974
14701W        W79686  40.404   3.421   0.970
14702W        W79687   6.683  12.137   3.638
14703W        W79688  41.598   4.464  14.728
14704W        W79689  12.751   9.427  11.537
14705W        W79690  14.808   9.408  11.931
14706W        W79691  36.368  31.485   2.321
14707W        W79692  43.037   7.623  12.862
14708W        W79693  17.854   4.344  14.935
14709W        W79694  35.867   8.049  13.870
14710W        W79695  14.951  14.634  12.018
14711W        W79696  12.294  24.005  13.541
14712W        W79697   4.904  13.229  14.450
14713W        W79698   0.768  42.148  14.084
14714W        W79699   1.912  36.831   1.829
14715W        W79700  30.990  19.486  14.735
14716W        W79701  18.204  38.986  11.307
14717W        W79702  42.241  33.463   0.905
14718W        W79703  43.280  11.227  13.420
14719W        W79704  41.354  44.310   2.979
14720W        W79705  43.762   5.489  12.107
14721W        W79706  14.944  31.096   4.918
14722W        W79707  31.042   5.581  13.474
14723W        W79708   0.514  13.170  13.976
14724W        W79709  39.929  10.709   4.057
14725W        W79710  28.774  16.002   2.396
14726W        W79711  14.861  18.078  10.732
14727W        W79712  29.593   9.401  12.404
14728W        W79713  41.426  15.351   1.646
14729W        W79714   0.760  26.086  10.678
14730W        W79715   2.947  10.670   2.327
14731W        W79716   3.977  34.664  10.657
14732W        W79717  22.736  22.611   1.887
14733W        W79718  30.238  24.462   4.591
14734W        W79719  43.333  15.993   4.474
14735W        W79720  38.073  35.389   1.267
14736W        W79721  15.332  18.747   2.863
14737W        W79722  29.700  12.618  10.748
14738W        W79723  35.083  23.183   3.894
14739W        W79724  13.153  20.543  13.838
14740W        W79725  30.671  37.864  11.998
14741W        W79726  11.128  19.765  13.769
14742W        W79727  18.588  19.728  13.512
14743W        W79728  42.624  26.218  11.441
14744W        W79729   6.638   8.220   3.311
14745W        W79730  37.297   3.577  10.837
14746W        W79731   7.522  40.791  13.837
14747W        W79732   7.462  28.450  14.843
14748W        W79733  32.857  16.032  14.397
14749W        W79734  42.530  13.362  12.706
14750W        W79735   4.664  44.625   1.665
14751W        W79736  43.064  41.287  11.157
14752W        W79737  42.017   2.175   4.776
14753W        W79738  17.398  43.335   2.198
14754W        W79739  34.930  32.796   4.564
14755W        W79740  14.981   9.807  11.225
14756W        W79741  28.947  36.728  13.592
14757W        W79742  19.931  31.004  10.755
14758W        W79743  15.649   7.186   1.784
14759W        W79744  32.646  10.363  10.704
14760W        W79745  41.002   0.727   1.391
14761W        W79746  27.110   2.512   4.194
14762W        W79747   2.400  10.180  10.401
14763W        W79748  32.240   0.799   4.047
14764W        W79749  21.518   8.800   2.664
14765W        W79750  34.530  13.932  11.577
14766W        W79751  40.959   3.661   1.911
14767W        W79752  18.557  38.627   1.761
14768W        W79753  19.237  35.768   3.294
14769W        W79754  32.317  23.037   3.761
14770W        W79755  30.030  24.234  11.966
14771W        W79756  37.146  40.818  12.116
14772W        W79757  29.976   7.221   0.076
14773W        W79758  29.988  30.656   4.245
14774W        W79759  12.624  13.032  14.090
14775W        W79760   6.277  36.564   0.821
14776W        W79761  15.770  10.084   3.711
14777W        W79762   3.055  12.861  12.489
14778W        W79763  38.094  36.432  11.529
14779W        W79764   4.784  11.151  12.182
14780W        W79765  13.249   8.635   2.399
14781W        W79766  41.532  27.203   0.525
14782W        W79767  18.195  14.460  11.476
14783W        W79768  14.679  14.967   3.567
14784W        W79769  11.827   6.141   4.598
14785W        W79770  38.083  30.103   3.931
14786W        W79771  23.534  39.492  14.995
14787W        W79772  15.278   0.896   2.826
14788W        W79773  37.574  10.301  13.478
14789W        W79774  28.063  44.279  12.463
14790W        W79775  33.789  13.272   1.497
14791W        W79776  31.012  14.693   1.227
14792W        W79777  14.778  29.672   2.325
14793W        W79778  31.523   3.706  11.532
14794W        W79779  23.170  39.314  12.616
14795W        W79780   1.765   8.479   3.276
14796W        W79781  36.872  26.248   3.010
14797W        W79782  39.525  13.617  14.268
14798W        W79783  44.436   5.717   1.668
14799W        W79784  23.634  16.920  11.069
14800W        W79785   4.840  21.753   0.724
14801W        W79786  15.634  42.967  11.542
14802W        W79787  36.458  17.560   4.325
14803W        W79788  36.621  29.374   4.109
14804W        W79789  19.527  37.344   1.773
14805W        W79790   6.122  38.100   3.570
14806W        W79791  44.706  10.222  10.831
14807W        W79792  34.504  18.606  13.743
14808W        W79793  32.390  21.659   1.276
14809W        W79794  17.589  38.638  12.992
14810W        W79795  31.685  44.805  12.135
14811W        W79796  43.860  16.851  14.877
14812W        W79797   3.357  33.425  11.372
14813W        W79798   8.564  28.958   3.585
14814W        W79799   8.162   0.795   4.002
14815W        W79800   0.729   8.819   0.169
14816W        W79801  28.577  40.814   0.152
14817W        W79802  23.275  30.896  14.856
14818W        W79803  27.206  16.793  14.282
14819W        W79804  32.790  39.922   3.300
14820W        W79805  42.415   4.878   0.995
14821W        W79806   6.969  42.461  11.909
14822W        W79807  14.422  35.086   5.057
14823W        W79808   9.229  40.847  12.853
14824W        W79809  42.427   7.720  12.023
14825W        W79810  22.759  13.812  13.518
14826W        W79811  20.167  16.449  12.024
14827W        W79812   7.446   8.075  11.672
14828W        W79813   5.336   6.692   2.374
14829W        W79814  33.383  30.431  10.718
14830W        W79815  30.387  20.230  14.820
14831W        W79816  32.783  24.505  11.149
14832W        W79817  16.406   4.765   1.811
14833W        W79818  24.742  39.406   2.297
14834W        W79819  26.421  31.048  12.712
14835W        W79820  25.644  40.090  12.455
14836W        W79821  42.997  35.066   0.235
14837W        W79822  15.665  22.285  11.649
14838W        W79823  13.599  38.487   3.705
14839W        W79824  14.122  10.909   2.901
14840W        W79825   9.867  18.127   3.995
14841W        W79826  30.050   7.134  10.606
14842W        W79827  36.096   0.446   3.347
14843W        W79828  44.655  26.466   4.999
14844W        W79829  21.049  16.337   2.088
14845W        W79830  21.165  25.390  12.081
14846W        W79831  20.074  12.850  12.312
14847W        W79832  14.040  42.356   0.498
14848W        W79833   7.467   9.259   4.288
14849W        W79834  25.628  25.543   1.774
14850W        W79835  44.937  25.094  14.012
14851W        W79836  20.429  37.195   1.706
14852W        W79837  16.058  28.484  10.648
14853W        W79838  42.467  40.810   3.774
14854W        W79839   6.389   4.829   3.312
14855W        W79840  18.812  14.740   2.382
14856W        W79841  27.016  39.064  10.725
14857W        W79842  24.191  42.047   4.487
14858W        W79843  42.540   8.628   0.691
14859W        W79844  38.090  11.255  12.025
14860W        W79845  20.323  20.466   5.414
14861W        W79846  42.766  16.130   3.101
14862W        W79847  10.782  36.496   3.783
14863W        W79848  38.959  40.826   1.336
14864W        W79849  12.868  17.955  11.860
14865W        W79850  29.607  41.802   1.107
14866W        W79851  40.837  29.094   0.833
14867W        W79852   9.363  10.819   2.163
14868W        W79853  20.908  36.479   1.017
14869W        W79854   0.427  40.020   0.836
14870W        W79855  22.387  41.968   2.017
14871W        W79856   9.335  11.577  12.014
14872W        W79857  19.124  24.509   2.754
14873W        W79858  10.333  10.149   2.680
14874W        W79859  35.916  40.797  10.903
14875W        W79860  33.016   9.099   2.392
14876W        W79861  17.224  19.752   0.404
14877W        W79862  31.036  39.257  12.016
14878W        W79863  24.104  28.756  12.092
14879W        W79864  22.508   3.171  13.844
14880W        W79865   7.839  17.141  11.479
14881W        W79866  39.259  42.138   4.068
14882W        W79867   1.817  32.187   4.403
14883W        W79868   1.358  27.805   0.408
14884W        W79869  11.514   1.673  10.110
14885W        W79870   1.459  41.698  14.369
14886W        W79871   6.310  13.077  10.781
14887W        W79872  22.986  35.376   2.182
14888W        W79873  20.153  21.679   1.333
14889W        W79874  39.932   4.213  13.522
14890W        W79875  41.554   4.620   3.767
14891W        W79876  29.977  21.185   0.968
14892W        W79877  42.475  38.473  14.696
14893W        W79878  23.093  31.078  14.402
14894W        W79879  35.799  41.231  12.651
14895W        W79880   9.080  20.565   3.475
14896W        W79881   0.116  28.366   2.063
14897W        W79882  42.452  35.577  14.850
14898W        W79883  27.411  43.216   9.340
14899W        W79884  23.796  21.552  11.521
14900W        W79885  12.802  34.374   3.250
14901W        W79886   8.193  41.062   1.155
14902W        W79887  13.727   5.789  14.281
14903W        W79888  17.633   4.573   0.382
14904W        W79889  21.551  13.460  12.883
14905W        W79890  29.716  34.438  10.665
14906W        W79891   8.171  26.977   1.797
14907W        W79892  44.387  37.578   0.823
14908W        W79893  29.040  12.449   1.795
14909W        W79894   7.313   7.249  14.814
14910W        W79895  38.403  23.034  11.633
14911W        W79896  32.475   2.959   2.679
14912W        W79897  11.356  16.223   1.693
14913W        W79898  28.676   7.746  13.419
14914W        W79899  38.800  38.364  10.906
14915W        W79900   0.752   4.684   4.623
14916W        W79901   7.345  24.011  10.577
14917W        W79902  18.916   6.306   5.071
14918W        W79903  28.702   3.320  11.051
14919W        W79904  23.442  27.368  14.326
14920W        W79905  43.622  41.581   2.604
14921W        W79906   5.457  19.642  12.877
14922W        W79907  36.448  37.151  10.089
14923W        W79908  26.312  32.505   2.230
14924W        W79909   3.406   5.280  10.483
14925W        W79910  15.302  26.384  10.555
14926W        W79911   0.179  38.003   2.670
14927W        W79912  12.818  20.050   1.220
14928W        W79913  42.480  39.757  12.982
14929W        W79914  43.728   0.995   0.962
14930W        W79915  26.991  12.311   0.803
14931W        W79916  18.279  15.163   3.765
14932W        W79917  18.138  37.355  14.719
14933W        W79918  25.720  11.187   3.250
14934W        W79919  28.781  30.718  10.835
14935W        W79920  29.203  31.057   1.306
14936W        W79921  14.586  42.714   4.146
14937W        W79922   4.830  37.365   3.671
14938W        W79923   7.432   9.611   0.859
14939W        W79924  23.766  13.074   4.448
14940W        W79925   5.502  20.257  12.513
14941W        W79926   7.754  35.626  11.579
14942W        W79927  39.237  44.746  12.895
14943W        W79928  32.904   2.113  12.794
14944W        W79929  43.058  29.291   4.173
14945W        W79930  12.104  33.556   2.804
14946W        W79931  16.648   8.167   1.715
14947W        W79932  42.854  24.487  14.893
14948W        W79933   2.394   0.696  12.336
14949W        W79934  29.439   0.932  12.090
14950W        W79935  24.810  21.589  14.535
14951W        W79936   8.667  28.929   2.649
14952W        W79937  20.349   4.408   2.326
14953W        W79938  13.751  36.050  12.617
14954W        W79939   8.833   7.636   3.092
14955W        W79940  42.581  33.072  12.676
14956W        W79941  33.790   4.384  12.625
14957W        W79942  18.689   2.008  12.397
14958W        W79943  36.073   6.723  11.834
14959W        W79944  13.968  19.557   0.445
14960W        W79945  15.568  23.180  11.555
14961W        W79946  44.529  10.576   4.590
14962W        W79947  21.944  18.556  12.602
14963W        W79948   7.885  12.120   4.442
14964W        W79949  27.636  25.641  13.790
14965W        W79950  26.468  16.598  12.921
14966W        W79951  44.095  43.809   0.279
14967W        W79952  13.641  31.157   4.689
14968W        W79953  41.927  24.505   1.894
14969W        W79954  20.138  16.902  14.881
14970W        W79955  19.072  25.863  14.857
14971W        W79956  26.183  25.125   3.152
14972W        W79957  27.897  33.496   0.860
14973W        W79958  24.048  22.984   3.757
14974W        W79959  31.795  21.005  12.419
14975W        W79960  11.653  16.757   3.711
14976W        W79961  38.105   2.271   2.903
14977W        W79962  37.909  33.575  14.384
14978W        W79963  42.782  40.726   5.049
14979W        W79964  13.046  27.437  11.581
14980W        W79965  25.671   2.211  14.716
14981W        W79966   0.255  41.742  13.802
14982W        W79967  23.203  38.850  10.623
14983W        W79968  19.756  26.710   1.324
14984W        W79969  26.269  44.886   0.778
14985W        W79970  36.538  11.558  13.512
14986W        W79971  15.669  27.427   3.032
14987W        W79972  36.597  31.555   2.823
14988W        W79973   2.154   0.054  13.342
14989W        W79974  24.888  22.760  12.454
14990W        W79975   8.684  17.287   4.721
14991W        W79976  38.836   5.201  13.478
14992W        W79977  14.089  14.971  11.855
14993W        W79978   3.734  24.716   3.402
14994W        W79979  12.313   1.923  13.819
14995W        W79980  26.923  27.533   0.269
14996W        W79981  31.744  17.884  11.626
14997W        W79982  36.408  36.179   2.132
14998W        W79983  26.102  22.751   2.774
14999W        W79984   0.558  13.064  12.964
15000W        W79985  25.902  43.514   4.330
15001W        W79986  36.804  41.532   3.925
15002W        W79987  18.368  23.725  12.924
15003W        W79988  24.541   9.268  11.078
15004W        W79989   8.703  36.851   2.850
15005W        W79990  38.314  39.199  14.273
15006W        W79991   5.776   9.886   0.677
15007W        W79992  14.549   9.350  12.387
15008W        W79993  24.431  29.553   0.218
15009W        W79994   4.908   1.498   0.544
15010W        W79995   8.146  30.202   1.431
15011W        W79996  12.302  23.636   4.579
15012W        W79997  38.306  30.749   0.878
15013W        W79998  31.963  20.154  13.482
15014W        W79999  23.003   6.790  12.131
15015W        W80000  27.390  41.962  10.786
15016W        W80001  20.532  43.856  11.586
15017W        W80002  18.297  22.809   2.405
15018W        W80003   4.505  44.179   3.188
15019W        W80004  44.432  34.463  13.865
15020W        W80005   3.783  44.460  12.168
15021W        W80006  11.316  35.032  14.779
15022W        W80007   0.799  38.969  13.513
15023W        W80008  20.279  15.820   2.328
15024W        W80009   1.777  31.467  14.464
15025W        W80010   0.802  18.299   4.581
15026W        W80011  37.297  20.357  13.838
15027W        W80012  43.948  31.398   3.340
15028W        W80013  32.111  13.320  14.098
15029W        W80014   6.674  11.635  13.301
15030W        W80015  40.818  17.086  12.614
15031W        W80016  12.344  24.703   1.906
15032W        W80017  32.407  14.614  10.147
15033W        W80018  12.079  14.768  13.036
15034W        W80019  30.205  39.893  13.910
15035W        W80020  33.917  39.623  13.831
15036W        W80021   3.865   9.778  13.105
15037W        W80022  18.101  18.975  12.267
15038W        W80023   8.453  39.281   4.043
15039W        W80024  43.042   5.253   4.226
15040W        W80025  17.478  15.793  12.697
15041W        W80026   9.993  27.794  12.076
15042W        W80027  33.446   3.448   3.690
15043W        W80028  28.998  22.536  11.604
15044W        W80029   6.173  41.493   2.618
15045W        W80030  39.748  44.312   3.724
15046W        W80031  10.122  32.745   4.027
15047W        W80032  25.476  13.814  10.739
15048W        W80033  15.808  28.937  14.018
15049W        W80034  41.745  17.058  12.354
15050W        W80035  24.480   2.038  13.825
15051W        W80036  20.620  21.762   2.323
15052W        W80037   7.279  20.971   1.220
15053W        W80038  12.459   7.419   0.762
15054W        W80039  12.592  35.067   3.799
15055W        W80040   7.336  15.657  12.157
15056W        W80041  43.515  18.649   2.184
15057W        W80042  13.056  24.020   1.896
15058W        W80043  17.064  32.496   2.812
15059W        W80044   0.390  12.675  13.300
15060W        W80045  19.845  29.672  12.577
15061W        W80046  18.655  10.400  13.829
15062W        W80047  34.132  31.583  11.928
15063W        W80048  21.840  35.958   4.403
15064W        W80049  26.269  39.058  12.456
15065W        W80050  39.099   3.862  13.158
15066W        W80051  38.563  43.323  14.921
15067W        W80052  16.228   3.905  11.495
15068W        W80053  23.220  15.329  10.671
15069W        W80054  18.774  17.723   0.530
15070W        W80055  16.918   9.889   4.492
15071W        W80056  37.877   3.048   1.131
15072W        W80057  19.031  18.681  14.851
15073W        W80058  16.592   3.021   1.152
15074W        W80059   9.353  14.097   0.831
15075W        W80060  27.455   0.376  14.870
15076W        W80061   2.767  25.226   4.566
15077W        W80062  38.086  12.667  13.262
15078W        W80063   4.765  37.430   1.192
15079W        W80064  19.665   3.135  12.482
15080W        W80065   2.517   5.985  13.086
15081W        W80066  13.857  10.926   0.815
15082W        W80067  38.474   6.859   2.232
15083W        W80068  29.075   5.832  10.815
15084W        W80069  26.468  36.818   0.830
15085W        W80070  17.167   5.722   3.176
15086W        W80071   7.161   0.424  12.027
15087W        W80072  34.040  44.483   2.163
15088W        W80073   9.336  40.410  10.688
15089W        W80074  17.457  12.295   0.222
15090W        W80075  40.487   9.725  14.725
15091W        W80076  39.448  11.802   0.715
15092W        W80077  29.830  38.392   2.435
15093W        W80078  34.063  39.373  14.274
15094W        W80079  29.606  15.939   0.663
15095W        W80080   2.775   2.276   0.365
15096W        W80081  17.904  26.715  13.142
15097W        W80082  10.300  29.378  10.731
15098W        W80083  31.561   6.115  11.945
15099W        W80084  37.513  10.283   1.823
15100W        W80085  21.509  21.187  14.531
15101W        W80086  25.044  26.930   2.624
15102W        W80087  14.934  24.886   3.295
15103W        W80088   2.879  16.733  13.981
15104W        W80089  10.165   1.528   2.242
15105W        W80090   1.332  44.027   4.188
15106W        W80091   4.185   1.922  11.670
15107W        W80092  21.917   5.287  10.967
15108W        W80093  31.365   9.161  14.937
15109W        W80094  12.662  37.834   4.172
15110W        W80095   7.347  27.646  13.494
15111W        W80096  26.118  35.461   0.396
15112W        W80097   0.255  22.173   4.608
15113W        W80098  17.081   4.893  11.644
15114W        W80099  23.535  29.689   4.848
15115W        W80100  22.007  26.021  13.391
15116W        W80101  22.427  34.591  13.720
15117W        W80102  39.807  22.254   3.669
15118W        W80103   2.276   3.756   4.477
15119W        W80104  20.237   8.611  14.000
15120W        W80105  34.555   7.918   3.776
15121W        W80106  23.669  21.209   3.366
15122W        W80107  40.847  15.868   4.110
15123W        W80108  11.894  30.993   3.466
15124W        W80109  28.880  23.077  14.855
15125W        W80110   8.772  28.890  10.774
15126W        W80111  43.441  31.711  13.035
15127W        W80112   9.304  21.932  11.489
15128W        W80113  27.644  24.710  13.414
15129W        W80114  37.522  27.118   0.185
15130W        W80115  23.921  17.932  12.364
15131W        W80116  21.792  22.004   1.901
15132W        W80117  19.999  12.935   0.450
15133W        W80118  10.389  19.802  11.138
15134W        W80119  42.404  19.301  11.161
15135W        W80120  27.570  35.818   0.272
15136W        W80121  36.290  17.204   4.908
15137W        W80122   3.940  35.397   2.339
15138W        W80123  30.032   0.207  13.505
15139W        W80124  12.169  33.896   4.619
15140W        W80125  14.394  12.771   0.959
15141W        W80126  42.276   5.366   2.928
15142W        W80127  38.452  17.170   0.011
15143W        W80128  21.273  32.701  13.253
15144W        W80129  12.648  21.151  10.586
15145W        W80130  25.489  24.018  10.854
15146W        W80131  40.041  41.291  13.159
15147W        W80132  33.638   4.397  13.923
15148W        W80133   5.270  11.618   4.544
15149W        W80134  22.189   0.468   2.032
15150W        W80135  36.924  20.441   3.116
15151W        W80136  10.236  44.849   2.070
15152W        W80137   6.406  23.031  14.362
15153W        W80138  13.323  43.760  14.856
15154W        W80139  44.896   4.621   3.472
15155W        W80140  32.565  29.908  10.543
15156W        W80141  20.828  31.988   1.877
15157W        W80142  31.031  11.931   1.126
15158W        W80143  41.980  23.069  12.323
15159W        W80144  26.947  38.436  14.004
15160W        W80145   8.630  18.589   4.146
15161W        W80146  34.152   4.419  13.872
15162W        W80147   3.367  33.788   3.785
15163W        W80148  42.968  35.599   1.307
15164W        W80149  23.601   8.826   3.214
15165W        W80150   8.146   2.825   5.078
15166W        W80151  37.375   5.187  12.029
15167W        W80152  30.499  18.104   2.959
15168W        W80153  41.547  20.319  11.466
15169W        W80154   5.808  16.257  13.431
15170W        W80155  18.185  32.596   1.284
15171W        W80156  27.390   9.718   0.865
15172W        W80157  18.728   3.409  12.602
15173W        W80158  20.175   5.332   9.916
15174W        W80159   1.526  13.512   3.137
15175W        W80160  35.634  32.004  12.544
15176W        W80161  19.531  22.217   5.378
15177W        W80162  11.098   5.432   0.861
15178W        W80163  36.556  26.768  13.907
15179W        W80164  39.063  40.489  12.120
15180W        W80165  35.495   2.814   4.901
15181W        W80166  25.284  24.532  12.073
15182W        W80167  15.818   3.481  14.854
15183W        W80168  31.598  12.445   3.295
15184W        W80169  18.575  35.468   4.392
15185W        W80170   9.168  34.000   2.117
15186W        W80171  27.737   4.753   4.220
15187W        W80172  11.566  23.481   3.356
15188W        W80173  25.128  37.279   4.726
15189W        W80174  23.274  42.949  12.888
15190W        W80175  34.573  16.032  10.734
15191W        W80176  27.037  11.852  14.297
15192W        W80177  15.997  16.681   4.126
15193W        W80178  39.061  26.185   3.105
15194W        W80179   4.153  35.823  12.994
15195W        W80180   3.146   8.928  13.523
15196W        W80181  37.597  22.055   3.872
15197W        W80182  21.257  32.076  11.960
15198W        W80183  33.915   3.261  13.585
15199W        W80184  13.167   7.283   2.895
15200W        W80185  41.332  35.758   3.192
15201W        W80186  12.287  44.794  10.756
15202W        W80187  35.291  33.778  12.097
15203W        W80188  33.986   8.558   4.223
15204W        W80189  30.962  11.853   4.528
15205W        W80190  10.630  33.299   0.274
15206W        W80191  17.874  42.685  14.385
15207W        W80192  19.143  12.343   0.401
15208W        W80193  11.341  26.135   2.746
15209W        W80194  30.592   6.656  12.029
15210W        W80195  30.047   4.599   4.191
15211W        W80196  42.504  36.813   4.967
15212W        W80197   2.662  15.022   4.570
15213W        W80198  34.887  25.761   4.136
15214W        W80199  42.254   8.483   4.217
15215W        W80200  13.381   7.700  12.027
15216W        W80201   7.191   4.940   1.719
15217W        W80202  28.071  35.909   3.318
15218W        W80203  34.076   1.374  12.879
15219W        W80204  15.450  11.557  11.614
15220W        W80205  10.592  31.336  13.599
15221W        W80206  25.539  40.589  12.683
15222W        W80207  41.799   8.789   5.299
15223W        W80208  24.531  18.808  14.359
15224W        W80209  20.589  23.184   2.703
15225W        W80210  13.373   3.454  10.342
15226W        W80211  37.859   3.650  14.648
15227W        W80212   9.915   4.911   1.407
15228W        W80213   3.669  44.263  13.208
15229W        W80214  19.775  20.693   4.805
15230W        W80215  43.423   8.509  13.856
15231W        W80216  27.470  22.617   3.935
15232W        W80217  44.447  22.710   4.586
15233W        W80218  28.425  13.752  11.561
15234W        W80219  29.915  30.870   1.871
15235W        W80220   2.338  14.849  12.803
15236W        W80221  25.021  36.552  10.775
15237W        W80222  12.964  17.983  10.738
15238W        W80223   7.555  44.066  13.429
15239W        W80224   2.546   4.092   2.258
15240W        W80225  29.577   6.880  10.304
15241W        W80226  21.171   3.743  12.344
15242W        W80227  42.853  28.928  10.705
15243W        W80228  33.800  20.236  11.639
15244W        W80229  17.682  15.788   4.128
15245W        W80230  22.663  35.933  13.977
15246W        W80231  38.782  22.795  14.900
15247W        W80232  41.004  39.807   2.248
15248W        W80233  16.343  31.032   4.897
15249W        W80234   0.946  43.010  14.543
15250W        W80235  22.801  30.756  11.444
15251W        W80236  33.885  19.525  10.430
15252W        W80237  25.101  44.054   0.406
15253W        W80238   3.975  31.354  11.042
15254W        W80239  19.437  42.305  11.716
15255W        W80240  21.282  27.546   5.078
15256W        W80241  36.938   0.156  11.578
15257W        W80242  27.172  24.533  13.516
15258W        W80243  27.697  21.479   4.232
15259W        W80244  40.391   3.749   0.554
15260W        W80245   1.301  34.268   0.455
15261W        W80246   6.947  41.788   0.776
15262W        W80247  33.382  36.036   0.386
15263W        W80248   9.693  10.607  14.393
15264W        W80249  23.862   0.167  10.622
15265W        W80250  14.296  40.115   2.818
15266W        W80251  25.870  38.218  10.897
15267W        W80252   4.008  36.779   4.896
15268W        W80253  20.114  10.130  13.030
15269W        W80254   3.876  36.856  14.104
15270W        W80255  44.253   0.962   1.130
15271W        W80256  23.636  41.381  12.556
15272W        W80257   9.316  31.261   5.013
15273W        W80258  17.692  41.510  11.874
15274W        W80259  13.066  39.775   0.752
15275W        W80260  40.408  33.095   4.058
15276W        W80261   5.320  43.354  14.452
15277W        W80262   3.962  34.157   1.634
15278W        W80263   3.210   3.996  14.937
15279W        W80264  23.624  34.632  12.180
15280W        W80265  35.210  43.007  11.134
15281W        W80266  33.150  34.562  14.409
15282W        W80267   8.335  42.382   0.170
15283W        W80268  18.533  41.888  13.408
15284W        W80269  14.346  14.509  13.464
15285W        W80270  23.269  43.553   0.889
15286W        W80271  38.587  28.081   1.859
15287W        W80272  10.279  14.711  14.808
15288W        W80273  14.852  22.557   1.950
15289W        W80274  28.248  29.805  14.787
15290W        W80275  29.589  42.843   3.338
15291W        W80276  30.950   3.081   5.520
15292W        W80277  35.627   4.844   4.001
15293W        W80278  41.778  25.530   2.720
15294W        W80279  42.923  36.515  10.299
15295W        W80280   9.433   1.793   4.664
15296W        W80281   5.856  23.011  11.546
15297W        W80282  10.824  20.257  14.890
15298W        W80283   5.119  15.834   1.294
15299W        W80284  12.190  35.349   3.649
15300W        W80285  24.741  29.346  14.324
15301W        W80286  38.109  14.131   3.550
15302W        W80287   7.381  29.491  13.960
15303W        W80288   2.117   4.958   3.650
15304W        W80289  22.474  36.988   4.306
15305W        W80290   3.799  38.831  14.320
15306W        W80291  32.637  32.954  13.306
15307W        W80292   4.884  26.431   4.362
15308W        W80293  33.604  15.076  10.650
15309W        W80294   1.967  44.886   4.519
15310W        W80295  19.572   3.342   1.877
15311W        W80296  32.101  34.290   3.231
15312W        W80297  27.029   5.276  11.681
15313W        W80298  30.449  22.045  13.064
15314W        W80299  25.587  15.135   1.871
15315W        W80300  22.558  24.640   0.174
15316W        W80301  27.848   6.224  13.151
15317W        W80302  27.387  42.546   0.447
15318W        W80303  27.561  21.001   2.872
15319W        W80304  21.887  34.338   1.460
15320W        W80305   1.458  32.108  14.214
15321W        W80306  17.480  19.100  11.655
15322W        W80307   2.439  18.638   0.280
15323W        W80308  12.793  43.366   4.107
15324W        W80309  14.439  30.959   1.716
15325W        W80310  39.909   1.335   0.778
15326W        W80311  26.540  20.981  13.948
15327W        W80312  44.872  25.481   1.396
15328W        W80313   3.884  30.431  13.270
15329W        W80314  39.953  29.576  11.566
15330W        W80315  23.571  30.669   2.793
15331W        W80316   6.670  39.725   1.902
15332W        W80317  30.439   1.307   1.857
15333W        W80318   5.773  34.854   3.224
15334W        W80319  24.435  22.922  12.201
15335W        W80320  18.859   8.903  12.508
15336W        W80321  23.087  12.816   0.008
15337W        W80322   3.139  42.830  12.146
15338W        W80323  26.465  24.518   0.245
15339W        W80324  22.726   9.294  14.402
15340W        W80325  31.704   5.737  14.706
15341W        W80326  23.994  20.054   2.692
15342W        W80327  27.536  36.329   1.226
15343W        W80328  32.591  27.728  13.342
15344W        W80329  23.818  18.250   5.216
15345W        W80330   0.793   6.393   3.203
15346W        W80331  10.385  15.145  10.003
15347W        W80332  16.908  33.434  12.508
15348W        W80333  38.569   2.564   3.737
15349W        W80334  36.435  37.124  13.559
15350W        W80335  20.629  31.029   1.217
15351W        W80336  39.077  20.074  13.557
15352W        W80337  18.114  34.934  14.555
15353W        W80338  30.202  39.529   1.776
15354W        W80339  16.848  18.601  11.869
15355W        W80340  31.431  14.635  11.264
15356W        W80341  27.413  40.717   3.652
15357W        W80342  28.572  23.010  12.638
15358W        W80343  20.029  30.429   2.590
15359W        W80344  18.054   9.680  10.317
15360W        W80345  10.139  10.618   2.725
15361W        W80346  22.679  44.468   2.621
15362W        W80347  43.042  17.724   0.905
15363W        W80348  29.715  23.130   0.374
15364W        W80349  43.395  28.617  14.391
15365W        W80350  12.580   4.309   2.762
15366W        W80351   0.156  16.063  14.044
15367W        W80352  25.050  41.425  13.155
15368W        W80353  32.632  23.647  11.074
15369W        W80354   0.098  18.547  12.246
15370W        W80355  42.856  21.633  12.323
15371W        W80356   9.593  22.809  13.282
15372W        W80357  18.623  18.082  14.307
15373W        W80358  39.438  10.426   3.026
15374W        W80359   1.195   2.965  11.994
15375W        W80360   2.047   9.860   4.796
15376W        W80361  13.462  15.196   1.964
15377W        W80362  16.686  21.971   4.161
15378W        W80363  36.505  39.034   1.126
15379W        W80364   8.713  34.068  12.009
15380W        W80365  36.953   0.460  14.947
15381W        W80366   3.121  28.559  14.832
15382W        W80367  29.568  18.517   3.420
15383W        W80368  22.016   7.228  14.867
15384W        W80369  11.207  42.762   1.435
15385W        W80370  39.929  39.399   0.775
15386W        W80371  12.319  23.221  14.818
15387W        W80372  38.874  19.177  13.756
15388W        W80373  11.193  15.052  13.899
15389W        W80374  39.348   8.938  11.768
15390W        W80375  38.220  33.946   3.146
15391W        W80376  36.491  41.520   0.066
15392W        W80377   2.312  35.346  13.337
15393W        W80378  39.902  39.841   4.816
15394W        W80379  31.450  41.747  13.885
15395W        W80380  42.565  38.083   0.027
15396W        W80381  14.423  12.469  11.235
15397W        W80382  17.533   4.260   3.985
15398W        W80383  21.588  18.498   2.639
15399W        W80384  29.823   1.620   3.732
15400W        W80385   4.824  17.809  13.467
15401W        W80386  28.518  28.411  14.182
15402W        W80387  26.723  18.379   4.776
15403W        W80388  28.989  29.766   1.857
15404W        W80389  22.807   6.767  12.963
15405W        W80390  32.521  26.630  14.827
15406W        W80391  35.202  16.700  14.904
15407W        W80392   7.994  35.591  13.909
15408W        W80393  28.578   2.669   1.623
15409W        W80394   0.048  21.018   2.798
15410W        W80395  41.775  24.412  14.338
15411W        W80396  36.846  19.208   0.913
15412W        W80397  35.023  19.189   3.366
15413W        W80398  40.815  28.079  13.122
15414W        W80399  37.571   8.296  13.905
15415W        W80400  31.113  24.904   1.652
15416W        W80401  36.509   4.515   0.439
15417W        W80402  44.751  42.337   4.284
15418W        W80403  27.708  30.526   2.929
15419W        W80404  14.920  23.349   2.480
15420W        W80405  30.525  30.618   4.164
15421W        W80406  33.907  24.528  12.916
15422W        W80407  22.905  24.746   1.646
15423W        W80408  13.761  44.882  12.593
15424W        W80409  41.328  25.833   3.434
15425W        W80410  35.829  10.667  14.343
15426W        W80411  19.718  21.555   3.413
15427W        W80412  15.077   5.696   0.886
15428W        W80413  19.214  39.480   0.766
15429W        W80414  20.001  40.057  13.542
15430W        W80415  25.988  39.768   2.953
15431W        W80416   9.705   0.833  11.479
15432W        W80417   0.686  21.766  12.325
15433W        W80418   6.196  17.188  10.658
15434W        W80419  17.701  28.518   3.290
15435W        W80420  40.553  39.791  14.514
15436W        W80421   5.799  41.479   0.294
15437W        W80422  10.828   8.860   2.842
15438W        W80423   2.968  43.240  13.453
15439W        W80424  41.375  17.856   1.859
15440W        W80425  16.565  30.523   2.821
15441W        W80426   7.026  19.803  12.209
15442W        W80427   7.678  12.988  11.183
15443W        W80428   8.208  24.670  11.201
15444W        W80429  28.050  41.647   2.328
15445W        W80430  20.276  31.979   9.937
15446W        W80431  17.790  33.697  12.570
15447W        W80432  20.006  20.558  11.578
15448W        W80433   0.444  14.056  15.000
15449W        W80434   3.708  36.543   3.097
15450W        W80435  10.407  26.079   2.568
15451W        W80436  11.466  34.368  14.391
15452W        W80437   3.365  32.933  10.323
15453W        W80438   8.380   8.119   3.873
15454W        W80439  12.219  21.706  14.947
15455W        W80440   8.421  27.655  14.992
15456W        W80441  38.302   6.298  10.801
15457W        W80442  23.204  13.322   0.343
15458W        W80443  12.919  30.965  14.202
15459W        W80444  14.148  23.026  11.960
15460W        W80445   7.874  41.241   4.272
15461W        W80446  25.567  13.527   1.742
15462W        W80447  15.071  23.030   3.362
15463W        W80448   7.343  24.239   0.324
15464W        W80449  19.815  10.739   3.558
15465W        W80450  36.205  40.908  12.064
15466W        W80451  41.451   2.338  12.975
15467W        W80452   7.900  35.012   1.259
15468W        W80453  39.401  43.072  10.735
15469W        W80454  15.100   2.333  14.013
15470W        W80455   5.999   3.401   0.404
15471W        W80456  35.008  31.661  14.803
15472W        W80457  36.103  38.031   1.864
15473W        W80458  13.544  12.155  13.936
15474W        W80459  21.191  10.726   4.780
15475W        W80460  13.802  20.069  14.302
15476W        W80461  37.878  38.812   3.669
15477W        W80462  35.161   1.813   0.163
15478W        W80463  35.579  23.301   2.385
15479W        W80464   3.339  11.395  14.359
15480W        W80465  34.904   5.389   3.337
15481W        W80466  19.277   9.673   2.298
15482W        W80467  10.638  25.982  11.083
15483W        W80468   4.472   4.313  11.927
15484W        W80469  15.007  20.863  11.169
15485W        W80470  32.951  22.239   1.006
15486W        W80471  13.347   9.749  12.919
15487W        W80472  31.062  29.372   3.754
15488W        W80473  38.089  34.051  14.242
15489W        W80474  42.268  30.179  13.902
15490W        W80475  42.084   5.535  14.886
15491W        W80476  27.523  36.894  10.681
15492W        W80477   7.142  30.019   3.162
15493W        W80478  31.448   7.917   4.609
15494W        W80479   6.836  11.886   3.180
15495W        W80480  42.372   0.535  11.323
15496W        W80481  19.165  10.621   3.327
15497W        W80482  39.890   3.359   2.730
15498W        W80483  34.702  29.967  14.289
15499W        W80484  10.328  21.130  13.315
15500W        W80485  36.598  34.611   4.819
15501W        W80486  35.767  31.098   3.769
15502W        W80487  33.442   2.371   0.404
15503W        W80488  34.313  10.622   0.751
15504W        W80489  17.318  23.865   1.715
15505W        W80490  13.155  23.279  10.763
15506W        W80491  14.298  11.402   3.811
15507W        W80492  19.987   9.421   0.914
15508W        W80493  31.947   4.731  14.406
15509W        W80494  10.915  19.614   3.752
15510W        W80495  14.691  17.181   0.934
15511W        W80496   0.408   2.235   0.692
15512W        W80497  38.964  16.842   4.536
15513W        W80498  22.321  32.475   4.844
15514W        W80499  25.048  37.097  10.816
15515W        W80500  19.819   1.839  11.615
15516W        W80501   7.849   1.698   1.451
15517W        W80502  11.111  10.633  11.405
15518W        W80503  38.042  14.648  12.395
15519W        W80504   7.793  26.953   1.394
15520W        W80505  44.312  33.509   1.665
15521W        W80506   3.070  14.059  11.947
15522W        W80507  23.790  39.013   2.305
15523W        W80508  24.129  25.300   4.176
15524W        W80509   1.395  22.628   4.551
15525W        W80510  38.091  14.563  11.023
15526W        W80511  31.902  16.121  11.209
15527W        W80512  35.328  38.026   0.471
15528W        W80513   1.229  16.704   1.890
15529W        W80514   5.877  15.262  13.420
15530W        W80515   9.803   6.845  14.789
15531W        W80516  35.599  28.510  12.901
15532W        W80517  17.631   1.555   3.721
15533W        W80518  30.897  21.751   2.886
15534W        W80519  14.252  42.356  13.664
15535W        W80520  27.876   0.275  11.153
15536W        W80521  18.731  42.519  14.951
15537W        W80522   4.651  41.685   0.328
15538W        W80523  19.056  41.694  14.528
15539W        W80524   5.465   5.851   0.009
15540W        W80525  18.088  38.532  12.969
15541W        W80526  16.584  22.637  10.719
15542W        W80527  15.654   0.243  13.539
15543W        W80528  40.044  42.310  13.021
15544W        W80529  38.123  38.875   2.753
15545W        W80530  15.618  38.483   4.580
15546W        W80531  11.822   8.351  14.930
15547W        W80532  41.936   2.605  12.111
15548W        W80533  19.707  41.018   4.202
15549W        W80534  35.020  32.151  14.967
15550W        W80535   4.907  40.500   4.588
15551W        W80536  13.143   4.281   1.915
15552W        W80537  31.075  15.563  13.036
15553W        W80538  23.910   3.969   2.721
15554W        W80539  21.028  28.503   3.818
15555W        W80540   1.303   7.853  13.858
15556W        W80541  28.449  31.502  13.327
15557W        W80542   8.335  14.555  12.622
15558W        W80543  17.573  31.681   3.608
15559W        W80544   2.588  15.705   3.253
15560W        W80545  39.625   8.485   2.547
15561W        W80546  22.965  18.514   2.886
15562W        W80547  35.970  41.129  11.661
15563W        W80548  44.438   6.985   2.294
15564W        W80549  37.348  35.543   5.057
15565W        W80550  25.107   2.982   2.111
15566W        W80551  43.511   8.713   2.365
15567W        W80552  38.303   8.859  11.672
15568W        W80553  14.617  17.548   1.839
15569W        W80554   5.719  33.573  11.008
15570W        W80555   0.258   4.362  12.063
15571W        W80556  31.914  20.162  14.022
15572W        W80557  26.588  39.602  11.543
15573W        W80558   9.754   8.106  11.625
15574W        W80559   5.832  42.768  12.671
15575W        W80560  34.834  12.723  13.338
15576W        W80561  25.444  14.865   2.726
15577W        W80562   5.312  39.902   3.278
15578W        W80563  42.941  35.490  14.490
15579W        W80564  27.945   2.753  12.559
15580W        W80565  23.765  44.563  11.279
15581W        W80566  42.526  31.154   2.289
15582W        W80567  34.171  38.796   1.984
15583W        W80568   3.648  39.497  13.791
15584W        W80569  36.095  34.822   3.078
15585W        W80570  15.089   1.782   2.299
15586W        W80571  43.671  43.473   3.695
15587W        W80572  43.686  22.902   4.986
15588W        W80573   9.803  14.375   0.350
15589W        W80574  38.444  23.470  14.507
15590W        W80575  34.624  40.006   4.365
15591W        W80576  34.959   9.451  13.485
15592W        W80577  16.838  10.293  14.946
15593W        W80578   2.344  18.699   4.442
15594W        W80579  14.348   3.150  14.970
15595W        W80580  35.685   3.029  12.051
15596W        W80581  16.665  14.913   4.312
15597W        W80582   6.451  29.134   0.715
15598W        W80583  10.247   7.679   0.372
15599W        W80584   6.693  20.617  12.013
15600W        W80585   9.723  24.939  13.645
15601W        W80586   7.445  40.437   1.635
15602W        W80587  40.895  33.424   1.706
15603W        W80588  38.069  39.873   1.603
15604W        W80589  11.090  21.664  13.846
15605W        W80590  19.888  17.927  14.879
15606W        W80591  24.699  24.605  11.115
15607W        W80592  36.308  18.647  14.253
15608W        W80593  37.332  31.054   3.214
15609W        W80594   2.983  36.539   2.693
15610W        W80595  31.184  15.840   0.314
15611W        W80596  21.592  36.322   3.602
15612W        W80597  21.193  26.956   3.839
15613W        W80598  22.387  40.388  11.998
15614W        W80599  20.664   6.868  14.991
15615W        W80600  25.568  11.608   2.942
15616W        W80601  37.693  14.645   2.807
15617W        W80602   7.423  26.620   3.336
15618W        W80603  11.812  11.809  11.891
15619W        W80604  11.270   1.721   2.206
15620W        W80605  41.772  40.819   0.735
15621W        W80606  23.385   1.418   2.732
15622W        W80607  22.716  28.259   5.068
15623W        W80608  15.251  24.950   2.815
15624W        W80609  14.662  43.756   0.999
15625W        W80610  16.790  36.017   0.711
15626W        W80611  40.494   4.211   2.838
15627W        W80612  21.938   7.820   1.729
15628W        W80613   4.118   0.994  11.147
15629W        W80614   8.624  43.720  11.077
15630W        W80615  30.890  37.490   3.878
15631W        W80616  16.203   1.869  12.451
15632W        W80617  39.855  38.624   4.365
15633W        W80618  38.944  43.032   2.661
15634W        W80619  35.345  37.388  12.777
15635W        W80620  43.020  15.559   0.486
15636W        W80621  13.109  21.540  13.905
15637W        W80622  36.447   9.950  11.861
15638W        W80623   2.869   1.684   2.527
15639W        W80624  29.617  11.194   3.701
15640W        W80625   6.649  11.865   0.217
15641W        W80626  18.573  33.507   3.790
15642W        W80627  32.417  42.177  11.999
15643W        W80628  37.056  15.722  12.528
15644W        W80629  13.612  43.363   1.733
15645W        W80630   6.899  24.089   2.755
15646W        W80631  31.146  13.735  13.485
15647W        W80632  27.114  22.152  13.873
15648W        W80633  40.364   5.984  14.936
15649W        W80634  43.052  32.603  10.705
15650W        W80635  20.138  24.637  12.664
15651W        W80636  24.638  19.347  12.461
15652W        W80637  18.258  17.563   0.443
15653W        W80638  36.243  15.592   2.923
15654W        W80639  42.764  12.293   0.672
15655W        W80640  44.346   5.195  14.394
15656W        W80641  13.763  42.828   4.420
15657W        W80642  31.625   9.887   1.441
15658W        W80643  40.550  18.825   4.846
15659W        W80644   7.685   6.354  12.128
15660W        W80645  23.165  30.503  14.501
15661W        W80646  12.789   2.275  11.522
15662W        W80647   8.808  39.917   1.271
15663W        W80648   1.315  13.319  11.342
15664W        W80649  31.316  23.718   0.685
15665W        W80650  33.312  15.721  11.061
15666W        W80651  20.201  26.896  11.044
15667W        W80652  24.532   5.682   1.382
15668W        W80653  44.533   6.685   0.915
15669W        W80654  35.051   2.392  13.055
15670W        W80655   3.501  30.030   4.112
15671W        W80656  12.119  31.525   0.432
15672W        W80657  23.096   1.722   0.972
15673W        W80658  31.515  32.589  11.136
15674W        W80659  31.233  12.344   0.494
15675W        W80660  22.564  33.091   0.736
15676W        W80661  19.749  23.213   2.558
15677W        W80662  25.568  18.152  14.556
15678W        W80663   2.721  42.227   1.392
15679W        W80664  29.507   4.663   3.130
15680W        W80665  39.443   8.257   4.617
15681W        W80666  35.882  10.640   2.371
15682W        W80667  43.793  17.253  11.878
15683W        W80668  15.767   9.722  14.326
15684W        W80669  10.579  27.219   4.014
15685W        W80670  31.082  18.746   1.919
15686W        W80671  19.692  26.174   2.660
15687W        W80672  23.051  17.201   2.692
15688W        W80673  26.025  19.369   2.471
15689W        W80674  39.429  22.632   9.719
15690W        W80675  33.690  39.853  10.883
15691W        W80676  19.277  43.560   1.200
15692W        W80677  38.404  10.761  12.608
15693W        W80678   2.854  39.451   3.100
15694W        W80679   6.543   2.882   4.070
15695W        W80680  30.950   6.824   4.024
15696W        W80681  21.523  34.552   2.766
15697W        W80682  28.819   1.314   3.690
15698W        W80683   8.608  37.849  10.631
15699W        W80684  29.325   0.914  13.066
15700W        W80685  35.068  28.754   1.328
15701W        W80686  39.549  30.059  11.461
15702W        W80687   6.734  22.794  10.689
15703W        W80688   7.323   9.288  13.452
15704W        W80689   6.174   8.925   5.052
15705W        W80690   3.350  21.786   2.657
15706W        W80691  36.666  26.703   1.257
15707W        W80692  26.613   5.850  11.957
15708W        W80693  34.534  40.294  14.374
15709W        W80694  19.749  32.957  11.604
15710W        W80695  14.057  13.149  13.357
15711W        W80696  11.635  37.243   4.658
15712W        W80697  32.973  12.858  10.757
15713W        W80698   4.894  31.066   3.729
15714W        W80699  43.277  16.045   0.873
15715W        W80700  23.584  11.606  12.442
15716W        W80701   7.035  40.405  14.261
15717W        W80702   3.299  16.293   1.920
15718W        W80703  23.926  23.027   2.093
15719W        W80704  43.360  38.352   3.809
15720W        W80705  22.663  38.445   0.457
15721W        W80706  10.036  23.667  13.121
15722W        W80707   7.243  18.551   4.601
15723W        W80708  41.189   0.268   3.934
15724W        W80709  30.676  10.400  11.154
15725W        W80710  41.024   3.781   2.446
15726W        W80711  30.796  37.095  13.391
15727W        W80712  10.476  21.067  14.283
15728W        W80713  21.363  43.724  12.680
15729W        W80714  22.225  21.330   3.859
15730W        W80715  10.390   6.719   2.762
15731W        W80716  16.734   8.441   4.072
15732W        W80717  38.879  40.284  13.834
15733W        W80718  11.882  35.845   1.856
15734W        W80719  26.163   3.344   2.677
15735W        W80720  29.121   3.540  14.691
15736W        W80721  26.782   8.435   0.489
15737W        W80722  43.846  10.093  13.453
15738W        W80723  19.676  20.194   1.276
15739W        W80724  38.530  17.776   1.286
15740W        W80725  41.871  37.611  10.313
15741W        W80726   2.936  20.518   2.838
15742W        W80727  43.036  14.190   0.857
15743W        W80728  39.518  18.991  11.974
15744W        W80729  36.979  22.125  13.671
15745W        W80730  15.299   6.243   0.282
15746W        W80731  23.012  28.907   1.106
15747W        W80732   1.888  43.793  13.058
15748W        W80733  31.079  32.497  14.716
15749W        W80734  39.673   9.808   1.322
15750W        W80735  11.416  15.121   4.061
15751W        W80736  40.424  13.532  14.438
15752W        W80737  33.400  37.154   3.964
15753W        W80738  20.843  29.478   4.924
15754W        W80739  29.971   5.584   4.765
15755W        W80740   4.902  11.910  12.486
15756W        W80741  41.469  31.844   2.570
15757W        W80742   0.291  30.617  11.413
15758W        W80743  14.900  35.042  13.207
15759W        W80744  40.845  44.693  12.551
15760W        W80745  33.618   0.322  11.049
15761W        W80746  40.797  19.711  14.210
15762W        W80747  35.858  14.522  13.096
15763W        W80748   9.609  43.330  12.960
15764W        W80749  18.284  35.875  11.663
15765W        W80750  37.553  18.434  14.907
15766W        W80751   3.747  16.208   2.180
15767W        W80752   5.186  23.115   1.134
15768W        W80753  12.136  26.215  11.177
15769W        W80754  29.732  28.961   3.564
15770W        W80755  12.735  36.553   4.712
15771W        W80756  27.281  41.588  11.550
15772W        W80757  18.149   9.809  14.918
15773W        W80758   9.025  28.721   3.512
15774W        W80759  18.536  12.391  11.058
15775W        W80760  28.237  17.092   2.702
15776W        W80761  39.988  38.851   0.332
15777W        W80762  15.562  38.245  12.970
15778W        W80763   7.684  30.778   0.315
15779W        W80764  41.625   5.118  12.554
15780W        W80765   2.754  26.495   1.828
15781W        W80766  26.631   1.035  12.457
15782W        W80767  30.044  30.650   0.975
15783W        W80768  23.604  30.480  13.989
15784W        W80769  44.369   7.649   1.197
15785W        W80770   5.189  30.573   4.672
15786W        W80771  13.200  34.196  12.447
15787W        W80772  15.346  33.217   2.349
15788W        W80773   7.408  10.159   1.349
15789W        W80774  13.580  41.471  13.921
15790W        W80775  35.019   1.073  14.206
15791W        W80776  31.110  17.515   3.360
15792W        W80777   7.811  35.918  11.172
15793W        W80778  28.938   2.190  14.864
15794W        W80779   4.165  10.222   4.536
15795W        W80780  12.959  10.299  11.218
15796W        W80781   0.108  30.871   4.937
15797W        W80782  12.133  16.569   4.541
15798W        W80783  30.147  18.313   0.821
15799W        W80784  31.194  16.832   2.131
15800W        W80785  15.407  25.721  14.339
15801W        W80786  14.372   2.181  12.832
15802W        W80787  19.683   4.433  11.457
15803W        W80788   4.674   4.446  14.841
15804W        W80789  44.822  10.247   0.372
15805W        W80790   7.112  13.949   0.843
15806W        W80791   9.604  12.724   3.529
15807W        W80792  20.530  39.346  12.682
15808W        W80793  17.800  44.477   2.960
15809W        W80794   6.564   4.321  12.275
15810W        W80795  22.274  28.043   1.443
15811W        W80796  32.104  23.158  13.946
15812W        W80797  30.315  28.938  11.724
15813W        W80798  42.744  28.017   3.296
15814W        W80799  17.262  16.080  12.321
15815W        W80800  36.936   6.746  12.388
15816W        W80801   1.893   9.728  12.928
15817W        W80802  42.881   9.734  10.764
15818W        W80803   0.959  38.387  13.941
15819W        W80804  38.921  27.498   4.447
15820W        W80805  12.445   3.713  12.205
15821W        W80806  28.519  35.983   3.633
15822W        W80807  35.917  11.064  13.514
15823W        W80808  35.625  40.266  14.383
15824W        W80809  31.789  11.848   4.127
15825W        W80810  21.261  29.491  14.199
15826W        W80811  20.954  27.307  14.051
15827W        W80812  32.017  31.641  11.130
15828W        W80813  23.681  16.189  11.037
15829W        W80814  43.300  38.871  11.133
15830W        W80815  27.204  33.367   0.400
15831W        W80816  42.530  44.251   3.378
15832W        W80817  35.613  44.407   2.770
15833W        W80818   8.933   8.901   4.356
15834W        W80819  29.190  11.679  10.929
15835W        W80820  35.137  41.089  12.052
15836W        W80821  25.448  29.123  12.972
15837W        W80822   8.699  36.931  12.520
15838W        W80823  20.329  14.865  12.947
15839W        W80824  38.296  40.384   1.426
15840W        W80825  16.332  42.956  12.395
15841W        W80826   8.957  31.575   3.570
15842W        W80827  33.333  41.501  14.069
15843W        W80828   6.027  10.619  14.475
15844W        W80829  39.844   5.346  14.110
15845W        W80830  34.012  17.831  12.958
15846W        W80831  21.696   2.391  13.952
15847W        W80832   9.417  36.618   3.419
15848W        W80833   3.621   1.042  12.937
15849W        W80834  15.122  27.418   2.344
15850W        W80835   8.349  38.969  11.855
15851W        W80836  37.365  32.853   2.779
15852W        W80837  30.010  34.337  12.197
15853W        W80838  18.548  26.609   4.393
15854W        W80839  44.476  22.509   0.439
15855W        W80840  18.373  39.898   0.806
15856W        W80841  38.377  11.355   2.684
15857W        W80842  40.960  34.524  10.984
15858W        W80843  24.929  32.882  14.317
15859W        W80844  36.584  33.457  13.807
15860W        W80845  36.500  38.806  14.936
15861W        W80846  36.063   5.183   2.767
15862W        W80847  25.215   7.379  13.999
15863W        W80848  37.788  13.220   3.218
15864W        W80849   1.333  31.896  11.236
15865W        W80850  37.634  13.825  11.062
15866W        W80851   6.963  32.943   3.416
15867W        W80852  32.969  19.102   2.278
15868W        W80853  36.022  22.218   2.598
15869W        W80854  27.949  12.580   4.535
15870W        W80855  31.931  10.272  11.848
15871W        W80856  40.601  37.095   3.265
15872W        W80857   8.658   6.884   0.221
15873W        W80858  33.095  35.491  14.434
15874W        W80859  43.976  39.771  10.327
15875W        W80860  40.423  18.410   3.011
15876W        W80861  30.584  29.181  11.312
15877W        W80862  31.085   4.162  12.983
15878W        W80863  19.484  19.278  14.523
15879W        W80864  37.750  29.023   3.168
15880W        W80865   0.440  31.113  11.580
15881W        W80866  11.784   6.834  13.727
15882W        W80867  15.778   2.877  11.156
15883W        W80868  26.663   4.632  12.480
15884W        W80869  43.895  22.322  11.707
15885W        W80870   3.804  14.597  11.944
15886W        W80871  43.805   7.557  13.916
15887W        W80872  37.870  15.693   4.531
15888W        W80873  17.262  12.182   2.933
15889W        W80874  19.712  15.080  12.372
15890W        W80875  26.690  31.415  12.955
15891W        W80876  35.084  26.387   4.667
15892W        W80877  25.979  37.242  14.744
15893W        W80878  17.790   2.141   1.403
15894W        W80879   9.133  30.473  12.108
15895W        W80880  27.452  33.619   4.113
15896W        W80881  22.657   2.019  11.685
15897W        W80882  29.913  43.431   4.248
15898W        W80883  31.231   5.375   3.858
15899W        W80884  28.642  39.567   1.734
15900W        W80885  16.201  34.156  13.519
15901W        W80886  39.559   9.434   3.998
15902W        W80887  25.971  13.838   0.222
15903W        W80888  19.025   7.727  11.337
15904W        W80889  41.472  18.652  13.738
15905W        W80890   8.343  15.366   2.424
15906W        W80891   0.347  19.990  14.020
15907W        W80892  33.342  36.333  13.809
15908W        W80893  38.346   9.198  14.864
15909W        W80894  38.800  14.826   4.013
15910W        W80895  17.377  35.061   4.517
15911W        W80896  44.581  18.291  14.435
15912W        W80897  11.046  20.522   3.541
15913W        W80898   6.412  10.208   2.953
15914W        W80899  43.371  30.950  12.509
15915W        W80900  26.518  20.152  14.475
15916W        W80901   3.372  40.923  11.352
15917W        W80902  28.546  10.524   3.757
15918W        W80903  29.353  32.031  11.486
15919W        W80904  25.490  21.187  10.240
15920W        W80905  21.248   7.920  14.508
15921W        W80906   2.390   6.945   4.570
15922W        W80907  11.849  35.919   4.587
15923W        W80908   5.706   7.373   4.069
15924W        W80909  20.270  43.203  10.997
15925W        W80910   2.659  24.433  11.413
15926W        W80911   5.167   6.250  11.401
15927W        W80912  31.024  30.892  12.572
15928W        W80913  14.061  34.501  13.873
15929W        W80914  22.583  44.286   3.372
15930W        W80915  13.801  12.208   5.006
15931W        W80916  40.011  16.368   4.456
15932W        W80917  17.123   7.621  14.712
15933W        W80918  42.447  43.362  10.709
15934W        W80919  11.899  37.033  10.384
15935W        W80920   0.383  21.979  11.416
15936W        W80921  37.891  29.561  10.825
15937W        W80922   1.306  32.613   2.183
15938W        W80923  40.603  43.871  12.062
15939W        W80924  13.390  31.935  11.129
15940W        W80925  10.701  13.796  12.051
15941W        W80926  19.881  27.891   0.845
15942W        W80927  44.064  14.314  10.754
15943W        W80928   3.729  40.057   4.910
15944W        W80929   5.467   7.404   3.604
15945W        W80930  33.385  19.560   4.518
15946W        W80931  20.762  42.344  14.764
15947W        W80932  42.442   4.802   3.467
15948W        W80933  44.226   7.584   4.847
15949W        W80934  41.453  34.355   4.104
15950W        W80935  11.347  43.965   1.954
15951W        W80936  16.401  25.149  13.994
15952W        W80937  12.318  44.341   2.341
15953W        W80938  13.292   2.746  13.651
15954W        W80939   4.843  22.477  10.458
15955W        W80940  36.550  39.337  10.696
15956W        W80941   0.067  18.524   3.272
15957W        W80942   2.601  28.056   3.208
15958W        W80943   1.409  35.453  13.901
15959W        W80944   6.223  38.814   2.771
15960W        W80945   9.930  37.006   4.668
15961W        W80946  28.468   7.170   2.396
15962W        W80947   8.422  23.144  12.836
15963W        W80948  20.449  43.597   3.650
15964W        W80949   1.172  36.021   0.828
15965W        W80950   7.184  20.033   3.054
15966W        W80951  13.542  28.207  14.110
15967W        W80952  22.928  26.659  12.845
15968W        W80953  18.747   5.792   0.684
15969W        W80954   9.804  15.299  11.250
15970W        W80955   4.316  16.511  10.537
15971W        W80956  36.700   9.303  12.172
15972W        W80957   3.470   1.477   4.578
15973W        W80958   1.141  24.654   2.781
15974W        W80959   2.358  10.695  11.150
15975W        W80960  28.738  44.186   1.751
15976W        W80961  31.963  21.580  11.652
15977W        W80962  16.747  23.232   3.614
15978W        W80963  13.571  19.250   0.266
15979W        W80964   4.965   1.894  14.377
15980W        W80965  41.895  30.024  14.940
15981W        W80966  43.570  31.111   0.465
15982W        W80967  33.051  37.028   4.644
15983W        W80968  16.750  20.257   3.374
15984W        W80969   6.417  29.115   3.849
15985W        W80970   2.207  20.114   2.877
15986W        W80971   2.980  41.712  11.808
15987W        W80972   3.337  20.633   3.299
15988W        W80973  14.805  35.972   9.683
15989W        W80974  21.942   0.875  13.329
15990W        W80975   6.387  29.948  12.142
15991W        W80976  10.021  39.321   3.934
15992W        W80977  29.580  42.375   4.491
15993W        W80978  20.722  17.627  14.094
15994W        W80979  34.322  40.161  13.487
15995W        W80980  24.242   0.162   4.205
15996W        W80981  42.710  21.996   0.769
15997W        W80982   7.053  39.254  14.921
15998W        W80983  11.586  24.719   4.259
15999W        W80984   1.215  19.574  10.736
16000W        W80985  21.913  31.126   2.955
16001W        W80986  15.612  16.338   4.134
16002W        W80987  38.924   9.310   3.414
16003W        W80988  13.780   5.475  12.882
16004W        W80989  31.454   5.898  11.334
16005W        W80990  30.421  14.487  14.357
16006W        W80991  21.294  18.625   1.179
16007W        W80992  42.906  40.485  12.862
16008W        W80993  23.588  20.106   1.432
16009W        W80994   8.962   2.105   4.563
16010W        W80995   9.639   4.089   3.660
16011W        W80996   2.213   2.503   2.422
16012W        W80997   5.850  18.426   2.615
16013W        W80998  36.997  27.504  13.032
16014W        W80999  19.965   0.506  14.375
16015W        W81000  26.470  39.064  10.671
16016W        W81001  21.916  37.646   4.170
16017W        W81002  41.808  35.317   1.875
16018W        W81003   2.072  40.207   2.361
16019W        W81004  19.237  37.884  11.089
16020W        W81005  10.724  15.632  12.348
16021W        W81006   3.393  39.874   3.038
16022W        W81007  33.981  27.908  13.892
16023W        W81008  15.069  24.045   3.589
16024W        W81009  26.101  43.460   2.185
16025W        W81010  37.317  27.479  12.617
16026W        W81011  22.013  15.251   2.003
16027W        W81012  35.146   3.257  10.119
16028W        W81013  16.260   6.737  10.301
16029W        W81014  22.201   6.338   1.303
16030W        W81015   6.391  37.956  11.147
16031W        W81016  37.401  10.790  13.407
16032W        W81017  32.127  42.101   2.678
16033W        W81018  34.398   2.819   0.510
16034W        W81019  14.323  35.673   2.708
16035W        W81020  18.004  39.772   1.184
16036W        W81021  28.514  28.473   3.156
16037W        W81022  25.162  19.113   2.029
16038W        W81023  11.840  16.349  13.821
16039W        W81024  20.309  24.551   1.860
16040W        W81025  27.259  34.031  11.603
16041W        W81026  16.787   9.404   2.163
16042W        W81027   4.957  27.123   2.788
16043W        W81028   2.488  29.385   4.174
16044W        W81029  21.522  17.376  12.580
16045W        W81030  18.097   6.887  11.642
16046W        W81031   3.026  33.487   4.604
16047W        W81032  16.144  16.717   0.539
16048W        W81033  38.752   5.900   2.003
16049W        W81034  16.734  12.291   1.551
16050W        W81035  15.097  33.449  14.740
16051W        W81036   1.344  29.025  11.642
16052W        W81037   7.233   5.368  13.863
16053W        W81038  42.032  24.135  13.954
16054W        W81039  28.593  16.703   0.946
16055W        W81040  27.991   5.969   0.760
16056W        W81041  31.014  21.155  12.121
16057W        W81042  39.809  18.695   4.481
16058W        W81043  25.328  10.300   4.768
16059W        W81044  37.036  16.785  11.725
16060W        W81045  23.565  40.867  11.590
16061W        W81046   6.416  25.496   4.350
16062W        W81047  16.716  20.775   3.504
16063W        W81048  19.774  29.396   0.828
16064W        W81049  39.108   1.213  11.882
16065W        W81050  22.996  37.846  13.890
16066W        W81051  42.983  44.561   3.237
16067W        W81052  14.162  23.383   3.604
16068W        W81053  27.964   5.498   1.015
16069W        W81054  37.327   0.291   0.346
16070W        W81055  36.019  29.421  10.561
16071W        W81056  42.958  30.906  10.663
16072W        W81057  15.937  11.687  13.324
16073W        W81058   5.216  14.801   3.065
16074W        W81059   4.416   6.980   2.944
16075W        W81060   0.730  14.531  12.081
16076W        W81061  44.772   3.070  12.904
16077W        W81062  37.367  24.713  11.535
16078W        W81063  16.704   7.162   2.731
16079W        W81064  16.693   8.444   1.292
16080W        W81065  31.082  13.379   1.175
16081W        W81066  17.194  37.066   1.323
16082W        W81067  26.671  28.329   2.406
16083W        W81068  30.018  23.594   1.092
16084W        W81069  21.829  16.974  10.736
16085W        W81070  18.909  23.220   4.627
16086W        W81071  33.830  15.134   2.618
16087W        W81072  13.574  42.410  10.697
16088W        W81073  36.269  18.122   0.373
16089W        W81074  10.949  34.974   2.111
16090W        W81075  12.587  36.195  12.812
16091W        W81076  38.434   5.799   1.227
16092W        W81077  40.323  33.466  13.923
16093W        W81078   1.764   5.782   4.965
16094W        W81079  30.238  11.750  11.578
16095W        W81080  30.417  10.969   1.938
16096W        W81081  26.619   1.492   0.417
16097W        W81082  16.797  40.045  12.961
16098W        W81083  23.060   3.254   0.461
16099W        W81084   6.951  25.187  13.935
16100W        W81085  44.016  10.055  12.599
16101W        W81086   5.648  33.590   2.679
16102W        W81087  37.489  18.331  12.013
16103W        W81088  13.753   7.839  14.548
16104W        W81089  26.985  11.712   3.557
16105W        W81090  44.812   8.848   0.247
16106W        W81091   2.964   4.075  12.593
16107W        W81092  38.569  43.817   0.373
16108W        W81093  37.019  40.650  11.597
16109W        W81094  42.801  25.147  14.687
16110W        W81095   5.255  37.873  14.574
16111W        W81096  29.677  32.723  13.891
16112W        W81097   6.357  41.064  12.460
16113W        W81098  28.278  40.826   2.319
16114W        W81099  25.816  11.233  14.521
16115W        W81100  33.457  22.432  14.036
16116W        W81101   4.858  35.060   2.157
16117W        W81102  30.563  32.546   3.916
16118W        W81103  12.468  28.171   1.617
16119W        W81104  27.936   7.833  14.465
16120W        W81105  27.473  44.196  14.157
16121W        W81106   6.623  43.331  14.391
16122W        W81107  14.531  30.035  12.526
16123W        W81108  27.275   5.269   4.610
16124W        W81109  27.615   1.821  13.691
16125W        W81110  27.926  28.589   1.931
16126W        W81111  11.721   9.761  14.452
16127W        W81112  30.767   3.090   2.375
16128W        W81113  35.377  42.980   4.473
16129W        W81114  13.562  34.207  13.209
16130W        W81115  28.639  31.462   1.355
16131W        W81116   5.521  18.541  14.254
16132W        W81117  33.189  13.200   3.124
16133W        W81118  37.750  22.676   3.782
16134W        W81119  25.500  13.567   3.308
16135W        W81120  39.043   4.970   0.330
16136W        W81121   0.981  44.941   4.721
16137W        W81122   1.379  44.479   0.550
16138W        W81123  12.338  12.799  12.505
16139W        W81124  18.815   2.844  12.330
16140W        W81125  24.527  41.583  12.499
16141W        W81126  25.098  43.789  12.694
16142W        W81127   0.825   6.286  10.796
16143W        W81128  31.671  29.552   1.259
16144W        W81129  11.868   7.255   3.756
16145W        W81130   2.450   8.114   1.749
16146W        W81131   0.369  15.075   0.014
16147W        W81132  29.218   3.058  11.555
16148W        W81133   4.492  35.064  10.734
16149W        W81134  43.933  13.574  11.166
16150W        W81135  42.102  22.153   1.463
16151W        W81136  11.558  15.908  13.955
16152W        W81137  26.273  33.556  13.111
16153W        W81138  11.350   4.211  13.719
16154W        W81139  24.790  11.295  14.415
16155W        W81140  20.975  28.075  13.029
16156W        W81141  21.299  13.215   2.770
16157W        W81142  32.456  31.166   2.300
16158W        W81143  24.981  43.446  11.578
16159W        W81144  41.926  33.254  12.011
16160W        W81145  15.067   6.155   2.401
16161W        W81146  27.954  26.436  13.895
16162W        W81147  26.888  34.800  13.081
16163W        W81148  10.944   2.843   2.471
16164W        W81149  34.108  11.850   1.360
16165W        W81150  16.095  32.661  12.019
16166W        W81151  35.909   9.326  13.366
16167W        W81152  13.179   1.949   0.724
16168W        W81153   2.415   2.472   4.773
16169W        W81154  34.462  20.109  13.812
16170W        W81155  40.868   6.898   2.488
16171W        W81156   8.208  15.575  12.578
16172W        W81157   6.494  17.905   0.487
16173W        W81158  42.395  14.779   2.432
16174W        W81159   7.465   8.372  10.733
16175W        W81160  21.657  32.606   1.740
16176W        W81161  17.322  21.181   0.842
16177W        W81162  12.655  32.434   3.154
16178W        W81163  19.595  29.024  11.073
16179W        W81164  34.465  14.257   3.830
16180W        W81165  36.395  11.563  12.339
16181W        W81166   3.642  25.611   3.296
16182W        W81167  22.208  43.898  11.594
16183W        W81168   2.261  22.187  11.287
16184W        W81169  41.406  14.752  11.680
16185W        W81170  36.405   7.102   0.961
16186W        W81171   0.204  42.036   4.112
16187W        W81172   5.364  38.767  13.131
16188W        W81173  20.539   3.959   3.802
16189W        W81174  42.299  38.396  10.731
16190W        W81175   8.924  25.914   3.709
16191W        W81176  24.886  25.220   2.602
16192W        W81177   2.361  35.860  13.085
16193W        W81178  44.698  36.346   0.007
16194W        W81179   8.102  32.861   1.511
16195W        W81180  39.336   1.073  10.790
16196W        W81181  36.410  29.073   1.486
16197W        W81182   5.823   6.441  12.608
16198W        W81183  34.956  12.957  11.928
16199W        W81184  20.605  28.048  14.510
16200W        W81185  24.041  24.451   2.537
16201W        W81186  38.310  20.596   0.393
16202W        W81187   7.337  38.618  13.245
16203W        W81188  40.841  15.792   2.771
16204W        W81189  38.123  39.515   0.211
16205W        W81190   4.641  27.648   2.255
16206W        W81191   7.142  39.333   3.132
16207W        W81192  34.637   3.919   4.941
16208W        W81193  15.778  29.749   3.813
16209W        W81194   8.402  30.957   4.156
16210W        W81195  40.805  24.431   4.546
16211W        W81196   7.884  43.293   4.456
16212W        W81197  12.917  39.902  13.107
16213W        W81198  13.161  16.259  14.962
16214W        W81199  29.002   8.718  10.490
16215W        W81200  44.311  14.104   3.182
16216W        W81201  38.487  17.182  11.420
16217W        W81202  30.543  34.472   0.928
16218W        W81203  15.445  38.117   2.785
16219W        W81204   8.003   2.904   3.329
16220W        W81205   5.876  26.305  13.491
16221W        W81206  22.422   5.734   3.011
16222W        W81207  20.637  12.132  14.393
16223W        W81208  10.210  28.020  12.640
16224W        W81209   7.944  10.742   2.635
16225W        W81210  14.096  21.488  12.976
16226W        W81211   3.454  38.450  14.475
16227W        W81212  20.628  38.098   0.363
16228W        W81213  14.297  42.893  14.357
16229W        W81214  26.679  29.636  10.979
16230W        W81215  16.706  34.164  12.971
16231W        W81216  36.399  11.923  11.431
16232W        W81217  16.733  16.254  13.068
16233W        W81218  42.883   5.853  12.074
16234W        W81219  16.800   6.273  14.000
16235W        W81220  40.815  36.511   0.310
16236W        W81221  23.641  12.780  13.387
16237W        W81222  37.607   1.441  14.441
16238W        W81223  39.310   4.584  14.542
16239W        W81224  26.944  36.678  10.777
16240W        W81225  30.115  20.657   4.649
16241W        W81226  25.645  24.910   4.063
16242W        W81227   6.075   7.678   0.083
16243W        W81228  27.368  17.331  12.141
16244W        W81229   8.853  42.931   1.505
16245W        W81230  40.817   6.715   1.238
16246W        W81231  28.949  17.540  14.965
16247W        W81232   5.220   3.662   0.834
16248W        W81233   3.517  18.237  14.236
16249W        W81234  13.518  41.871  14.967
16250W        W81235   1.570   3.770  13.299
16251W        W81236  26.190  17.139  14.951
16252W        W81237   3.156  26.710  11.112
16253W        W81238  14.553  41.978  13.471
16254W        W81239  43.211  25.552  13.523
16255W        W81240  10.850   0.881   2.658
16256W        W81241  23.702  12.922  14.326
16257W        W81242   0.664  23.191  14.825
16258W        W81243  27.192  31.912   0.704
16259W        W81244   5.791  41.481  11.911
16260W        W81245  37.015  10.111   1.743
16261W        W81246  41.118  29.876   1.725
16262W        W81247  41.041  32.392  10.564
16263W        W81248  36.961   7.006  11.388
16264W        W81249  35.665  24.620  14.776
16265W        W81250  15.806  15.708   3.650
16266W        W81251  20.241  35.031  11.757
16267W        W81252  23.427  14.638  13.957
16268W        W81253  40.097  16.626   2.816
16269W        W81254  33.961   8.496  14.801
16270W        W81255   5.700   9.419   0.928
16271W        W81256  12.122   4.499   1.781
16272W        W81257  27.457  24.565   2.286
16273W        W81258  21.207  41.397  12.530
16274W        W81259  18.146   8.847  12.913
16275W        W81260  14.570  13.204  13.416
16276W        W81261  37.402  22.724   0.009
16277W        W81262  28.509  28.303  13.684
16278W        W81263  23.520  17.062   1.306
16279W        W81264   1.241  17.712   1.252
16280W        W81265  29.192   1.705   5.456
16281W        W81266  16.838   6.253  12.914
16282W        W81267  30.939   8.015  13.370
16283W        W81268  25.377  11.274  11.196
16284W        W81269  20.952  36.807   4.193
16285W        W81270   0.393  36.653  12.565
16286W        W81271  37.586  39.680   3.687
16287W        W81272  15.848   2.715   5.012
16288W        W81273  16.642  37.580  14.864
16289W        W81274  25.210  10.522   1.851
16290W        W81275  31.007  29.320  12.533
16291W        W81276  32.897  17.236   0.979
16292W        W81277   8.280  40.454  10.677
16293W        W81278  29.398  23.778  13.877
16294W        W81279   6.480  29.205   2.714
16295W        W81280  34.479  16.282   2.328
16296W        W81281  12.251  44.107   0.793
16297W        W81282  23.225  29.395  12.797
16298W        W81283  32.234  41.718  12.111
16299W        W81284  42.797  16.317  12.482
16300W        W81285  19.686   6.501  10.589
16301W        W81286  25.263  29.153   1.372
16302W        W81287  35.959   7.201   1.591
16303W        W81288  20.715  30.589  14.049
16304W        W81289  30.449  15.216   1.632
16305W        W81290  40.890   9.843  10.716
16306W        W81291  33.088  34.859   4.181
16307W        W81292  39.709  38.542   0.702
16308W        W81293  20.583  17.317   1.406
16309W        W81294  34.124  20.282  14.581
16310W        W81295  36.111  23.899   1.450
16311W        W81296  44.768  14.770  11.396
16312W        W81297   1.373  29.109  10.752
16313W        W81298  34.929  28.973  10.723
16314W        W81299  31.442  31.879   0.905
16315W        W81300  12.394  15.193  10.611
16316W        W81301  28.464  25.031   4.595
16317W        W81302  16.340  38.046  13.935
16318W        W81303   7.236  35.319   2.366
16319W        W81304  40.247  21.956   1.732
16320W        W81305   6.912   9.724   5.536
16321W        W81306  22.747   7.244  12.015
16322W        W81307  30.005  14.290   2.994
16323W        W81308   2.943  26.938  11.521
16324W        W81309  25.773  10.753   3.651
16325W        W81310  18.869  20.006   1.347
16326W        W81311  11.184  35.414  13.476
16327W        W81312  39.363  39.142  12.135
16328W        W81313  37.783  15.552   3.633
16329W        W81314  30.569  16.434  11.669
16330W        W81315   4.479  17.645  12.516
16331W        W81316  10.074  25.048   3.750
16332W        W81317  33.894  43.528   4.228
16333W        W81318  42.781  19.552   1.501
16334W        W81319   4.877  18.164   4.646
16335W        W81320  43.291  41.052   3.410
16336W        W81321  34.426  28.645  13.852
16337W        W81322  15.600  30.226   3.757
16338W        W81323   9.155  39.071  10.078
16339W        W81324  23.735  30.870  10.214
16340W        W81325  27.750   2.657  13.980
16341W        W81326  22.628   3.758   2.461
16342W        W81327  43.565  35.045   1.823
16343W        W81328  29.927   8.262   1.394
16344W        W81329  34.070  33.856  11.642
16345W        W81330  31.952  14.878   1.051
16346W        W81331   9.889   5.277  10.286
16347W        W81332  42.037  36.919  14.961
16348W        W81333  16.549  27.749   2.805
16349W        W81334  29.515  37.681   4.195
16350W        W81335  29.155  12.315   3.660
16351W        W81336  11.484   6.730  11.024
16352W        W81337  20.402  35.070  13.864
16353W        W81338  17.309  43.915  10.994
16354W        W81339  10.231   0.102  13.091
16355W        W81340  38.928  30.132   3.326
16356W        W81341  30.222  43.006   4.179
16357W        W81342  29.517  25.547   1.899
16358W        W81343  29.840  30.202  11.741
16359W        W81344   7.926  24.101   0.260
16360W        W81345  27.921  36.493  11.612
16361W        W81346  32.354  43.333   4.069
16362W        W81347   5.802  14.125   1.399
16363W        W81348  18.494  25.468  10.661
16364W        W81349  34.661  33.841   0.359
16365W        W81350  33.735   7.623  10.206
16366W        W81351  23.774  36.970  12.120
16367W        W81352   3.860  32.535   2.231
16368W        W81353  17.216  35.576   1.451
16369W        W81354  26.258  14.248   3.561
16370W        W81355   4.551  37.881   4.145
16371W        W81356  37.835   6.934   9.764
16372W        W81357  44.415  30.424   2.840
16373W        W81358  13.599  42.338   1.428
16374W        W81359   5.697  19.031  14.347
16375W        W81360  26.079  32.305  14.454
16376W        W81361  31.876  17.340  13.948
16377W        W81362  36.848  12.830   1.435
16378W        W81363   6.309  11.549   5.270
16379W        W81364  29.375  12.468   2.358
16380W        W81365  26.792  18.301  13.143
16381W        W81366  33.120  12.036   1.691
16382W        W81367  28.419  16.340   4.384
16383W        W81368  16.094  15.077   2.679
16384W        W81369   8.672  36.842   3.376
16385W        W81370  40.329  17.097   0.416
16386W        W81371  36.042  44.697  10.940
16387W        W81372  43.870  28.450  14.266
16388W        W81373  41.356  19.963  10.181
16389W        W81374  24.638  25.263   0.373
16390W        W81375  38.331  34.367   2.365
16391W        W81376  12.835  11.701   0.664
16392W        W81377  21.792  11.206   3.681
16393W        W81378  31.643  43.816   1.189
16394W        W81379  31.378  39.244  11.055
16395W        W81380  23.898  41.000  11.034
16396W        W81381   4.626   7.394   3.186
16397W        W81382  27.556  40.091  13.353
16398W        W81383  23.691  37.594   3.378
16399W        W81384  23.843  37.305   1.148
16400W        W81385  42.926  21.038   1.193
16401W        W81386  15.750   9.717   2.784
16402W        W81387   2.898  28.205   1.960
16403W        W81388  35.138  26.121  12.036
16404W        W81389  18.146  16.139   2.479
16405W        W81390  17.212  23.778   4.160
16406W        W81391   2.400  13.635   1.881
16407W        W81392  20.482  42.919   0.839
16408W        W81393  36.816  41.212   2.470
16409W        W81394  30.581  26.091   3.691
16410W        W81395  25.506  40.681  13.189
16411W        W81396  20.240   1.825   4.925
16412W        W81397  13.052  13.366  13.334
16413W        W81398   6.174  44.714  10.635
16414W        W81399  15.728   7.441   3.425
16415W        W81400   8.320  29.570  11.553
16416W        W81401  37.304   5.988   1.842
16417W        W81402  31.962  42.286   1.399
16418W        W81403  21.313  12.293   0.147
16419W        W81404  34.386   0.204  10.655
16420W        W81405  44.899  34.794  10.191
16421W        W81406  13.541  38.295   3.213
16422W        W81407  24.508  38.620  12.084
16423W        W81408  24.544  42.303   4.825
16424W        W81409  18.516   3.707   0.426
16425W        W81410  27.128  33.553  14.053
16426W        W81411  12.589  27.107  11.531
16427W        W81412  16.579  11.442   0.909
16428W        W81413  29.292   2.758  12.946
16429W        W81414   1.715  10.797   3.368
16430W        W81415  19.279  27.334  14.564
16431W        W81416  40.554  40.998  13.920
16432W        W81417  22.677  11.170   1.426
16433W        W81418  20.425  18.184   1.919
16434W        W81419  43.168  26.158  11.371
16435W        W81420  31.609   9.868  13.929
16436W        W81421  15.824  35.967  11.574
16437W        W81422  41.449  31.620  11.149
16438W        W81423  15.029   4.464  13.390
16439W        W81424  10.701  44.207  14.000
16440W        W81425  19.753  30.628   1.119
16441W        W81426  14.809  25.473  13.518
16442W        W81427  36.364  16.839   3.134
16443W        W81428  37.470   2.556   4.084
16444W        W81429  33.185  41.472   2.703
16445W        W81430  24.108   0.632   4.084
16446W        W81431  34.726  34.989  11.577
16447W        W81432  37.786   0.520   1.283
16448W        W81433  32.942  10.291  12.360
16449W        W81434  18.772  27.970  13.900
16450W        W81435   8.415  41.813   2.432
16451W        W81436  11.099  14.534  12.860
16452W        W81437  38.925  30.945  14.435
16453W        W81438   5.545  42.372  12.461
16454W        W81439  23.430   5.806  13.003
16455W        W81440   8.985   3.882  13.450
16456W        W81441  16.802  29.245   4.741
16457W        W81442   6.436  16.183   1.381
16458W        W81443  21.688  15.617  10.237
16459W        W81444  12.140  44.540   3.827
16460W        W81445  16.140  41.938   1.907
16461W        W81446   2.480  23.975  11.188
16462W        W81447  10.285   8.071   2.815
16463W        W81448  25.641  24.528  10.686
16464W        W81449  41.000  30.159   2.183
16465W        W81450   7.782  21.314  14.581
16466W        W81451  22.050  34.627   0.391
16467W        W81452  32.555  37.803  14.499
16468W        W81453   0.062  34.686   9.697
16469W        W81454  11.661  43.978   2.794
16470W        W81455   4.757  44.315  12.417
16471W        W81456  32.154  22.224  13.570
16472W        W81457  21.094  17.734  10.905
16473W        W81458  25.562  12.258   0.866
16474W        W81459  32.382  14.984  11.983
16475W        W81460   1.350  39.856   4.746
16476W        W81461   6.819  22.679  13.552
16477W        W81462  22.159  10.253  14.524
16478W        W81463  12.643   2.522   0.861
16479W        W81464  23.633   9.346  13.309
16480W        W81465  28.481  44.769  14.834
16481W        W81466  24.506  17.732   4.086
16482W        W81467   0.037  10.264   1.766
16483W        W81468  37.455   6.754   2.240
16484W        W81469  11.302   9.031   4.537
16485W        W81470  37.554  32.941   0.982
16486W        W81471  17.755  10.922   1.398
16487W        W81472  25.902  29.778   4.518
16488W        W81473  35.956  19.077  12.541
16489W        W81474  15.069  42.749   1.302
16490W        W81475  43.490  16.488   0.714
16491W        W81476  10.382  28.656  11.999
16492W        W81477  17.616   7.676  11.567
16493W        W81478  10.412  36.510  13.520
16494W        W81479   0.761  19.684  13.868
16495W        W81480   8.797  21.259  13.908
16496W        W81481   3.680  22.625  14.960
16497W        W81482  27.953   4.821  12.006
16498W        W81483   2.992  24.826  11.542
16499W        W81484  27.360  26.270   4.184
16500W        W81485  23.731  41.415  13.438
16501W        W81486   6.815  28.321   1.925
16502W        W81487   7.676  25.728   2.203
16503W        W81488  40.473  31.445  11.050
16504W        W81489  42.613  27.042   1.374
16505W        W81490  22.985  16.637   4.706
16506W        W81491  22.976  41.370   3.287
16507W        W81492  30.891   0.407   0.844
16508W        W81493  19.810  38.607   0.959
16509W        W81494  22.709  44.687  12.067
16510W        W81495   8.943  26.552   9.814
16511W        W81496  34.892  20.628   2.318
16512W        W81497  43.421  19.290  13.512
16513W        W81498  23.657  13.084   0.241
16514W        W81499  22.301   0.824   0.876
16515W        W81500  17.760  44.871  11.650
16516W        W81501   8.460  34.610  12.861
16517W        W81502  43.344  25.868   3.545
16518W        W81503  40.992  11.686   3.144
16519W        W81504  33.466  28.378  14.441
16520W        W81505  33.747   6.399   2.341
16521W        W81506   7.742   7.412  12.328
16522W        W81507  32.680  14.690  14.112
16523W        W81508   6.133  30.396  12.114
16524W        W81509  14.140  17.877   4.101
16525W        W81510  10.127  14.887   3.752
16526W        W81511  22.441   9.738  13.473
16527W        W81512  27.035  23.931   2.766
16528W        W81513   7.866  10.778   2.133
16529W        W81514  28.126  23.613   4.095
16530W        W81515  41.891  20.743  12.975
16531W        W81516  19.588  30.622  12.700
16532W        W81517  31.453  42.197  11.986
16533W        W81518  34.482   5.424  13.775
16534W        W81519  34.024  15.694   0.973
16535W        W81520   2.958  17.966   1.745
16536W        W81521  37.733  43.470   2.104
16537W        W81522  38.441  24.089   1.910
16538W        W81523  11.820   0.990  14.460
16539W        W81524  17.540  21.744  14.430
16540W        W81525   7.919  44.477  11.184
16541W        W81526  37.516  39.237  10.564
16542W        W81527  44.372  13.358  11.889
16543W        W81528  33.794  16.859   3.219
16544W        W81529  12.218  42.253   3.513
16545W        W81530  19.152   2.187  13.020
16546W        W81531  10.812   5.940   1.803
16547W        W81532  30.212   1.784   1.858
16548W        W81533  33.924   6.740   9.803
16549W        W81534  22.584  17.552   2.717
16550W        W81535  18.253  18.015  11.743
16551W        W81536  35.456  26.982  12.538
16552W        W81537  14.362  11.387   1.330
16553W        W81538   3.674  42.585  12.937
16554W        W81539  32.429  24.655   4.557
16555W        W81540  15.639  24.034   2.178
16556W        W81541  10.445   5.772   0.302
16557W        W81542  32.010  31.107  14.415
16558W        W81543  38.519  18.771  12.808
16559W        W81544  16.396  31.587   2.159
16560W        W81545   1.968  23.390  10.737
16561W        W81546  42.032  38.109  13.388
16562W        W81547  30.694  10.933  11.144
16563W        W81548  11.571  15.246  11.662
16564W        W81549  16.776   8.300  10.662
16565W        W81550  21.772   0.489  11.628
16566W        W81551   3.000  30.094  11.518
16567W        W81552   7.192  25.122  12.562
16568W        W81553  24.534  16.125  13.971
16569W        W81554  22.453  15.337  11.617
16570W        W81555  27.219  29.694  10.648
16571W        W81556  10.695  41.522  12.190
16572W        W81557   7.866  33.867   0.323
16573W        W81558  13.371  13.751   3.258
16574W        W81559  38.320  30.821   3.376
16575W        W81560  41.305  44.509  12.088
16576W        W81561  38.068   6.463  11.956
16577W        W81562  28.378  24.694  12.910
16578W        W81563  38.596  33.837  12.782
16579W        W81564   5.844  38.459   3.822
16580W        W81565  36.208  13.162  13.913
16581W        W81566  43.930  12.224  12.499
16582W        W81567   7.862  44.248  13.827
16583W        W81568  39.876   8.295   2.150
16584W        W81569   3.344  24.550   0.205
16585W        W81570  22.452   5.378   3.749
16586W        W81571  24.182  12.833   1.460
16587W        W81572   8.335  27.097   0.410
16588W        W81573   4.028  17.260   1.821
16589W        W81574  15.287  13.888   2.296
16590W        W81575  11.016   4.611  13.767
16591W        W81576  17.174  21.133   4.227
16592W        W81577  41.831  14.285   4.108
16593W        W81578   9.750   1.044  14.907
16594W        W81579   6.915  33.999   3.710
16595W        W81580  11.792  19.694  14.399
16596W        W81581  18.996   3.874  10.675
16597W        W81582  25.908  16.115  11.609
16598W        W81583  44.292  21.865  14.606
16599W        W81584  10.178  28.889   5.060
16600W        W81585   8.517  35.637   2.857
16601W        W81586  19.830  44.186  14.787
16602W        W81587  34.281   2.081  11.443
16603W        W81588  20.804  14.119  12.514
16604W        W81589  11.293   4.749   3.398
16605W        W81590  26.290  32.039   0.501
16606W        W81591  32.485  32.176   0.361
16607W        W81592  23.077  38.038  14.358
16608W        W81593  16.092  41.430  11.180
16609W        W81594  32.849  36.853  12.996
16610W        W81595  14.795  41.560  11.580
16611W        W81596  40.784  18.349  14.596
16612W        W81597  33.940   0.412   3.853
16613W        W81598  35.560  37.211   2.375
16614W        W81599  15.408  22.710  11.617
16615W        W81600  22.073  28.417  10.450
16616W        W81601  32.189  40.980  14.537
16617W        W81602   9.830  42.964  10.976
16618W        W81603   2.724  17.633  14.064
16619W        W81604  27.160   3.209  11.593
16620W        W81605  42.127  37.937   4.596
16621W        W81606  21.609  40.513  14.352
16622W        W81607   4.439   1.774   3.696
16623W        W81608  33.117  11.418   3.815
16624W        W81609  25.747  13.267  14.510
16625W        W81610   7.400  35.540  14.859
16626W        W81611   7.214  44.549   1.695
16627W        W81612  36.113   7.813  14.289
16628W        W81613  17.104  13.332   4.559
16629W        W81614   1.819  42.754  14.735
16630W        W81615  20.488  36.066   0.476
16631W        W81616  17.229  15.403   4.621
16632W        W81617  35.816  11.792   3.050
16633W        W81618  34.874   2.371  12.541
16634W        W81619  23.204   7.457   4.734
16635W        W81620  22.580  32.450  10.234
16636W        W81621   2.876  36.658  13.807
16637W        W81622  15.805  38.779   3.566
16638W        W81623   1.304  29.241   4.151
16639W        W81624  30.613   5.406   1.268
16640W        W81625  34.278   8.399  11.262
16641W        W81626  18.021  21.791  14.854
16642W        W81627  41.965  32.892  14.361
16643W        W81628  22.283  37.772  14.506
16644W        W81629  11.875  35.973  11.205
16645W        W81630  19.537  15.327  14.469
16646W        W81631   9.842  12.290   2.571
16647W        W81632  12.878  40.841   3.607
16648W        W81633  18.228  12.763   0.598
16649W        W81634   2.826  24.547   4.442
16650W        W81635  23.033  20.193   3.240
16651W        W81636  25.688   3.116   0.991
16652W        W81637  12.207  32.106  12.578
16653W        W81638  30.486  27.823   3.346
16654W        W81639   7.358  38.276  13.824
16655W        W81640  14.633   9.114  14.242
16656W        W81641  20.522  26.430   0.623
16657W        W81642  44.444   1.888   3.227
16658W        W81643  27.101  35.184   2.608
16659W        W81644  32.549   6.774   1.736
16660W        W81645  16.513  10.631   1.976
16661W        W81646  10.700  31.127   1.360
16662W        W81647  42.910  18.557   5.414
16663W        W81648  33.364  43.019  14.239
16664W        W81649  39.969  44.162  11.559
16665W        W81650  36.509  44.573  11.074
16666W        W81651  43.270  23.626  10.677
16667W        W81652  24.940   6.707   4.168
16668W        W81653  17.309   6.381   9.808
16669W        W81654  35.189  12.158   5.683
16670W        W81655   5.768  41.884  10.652
16671W        W81656  36.273  22.617  10.798
16672W        W81657  41.232  14.101  12.985
16673W        W81658  36.636  16.180  10.748
16674W        W81659  21.058  20.164   3.389
16675W        W81660  29.139   7.785   1.411
16676W        W81661  17.912   3.730   1.694
16677W        W81662   2.454  25.228  12.894
16678W        W81663  13.239   1.997   5.132
16679W        W81664   5.767   4.794   3.949
16680W        W81665  11.185  41.563  12.426
16681W        W81666  11.751  10.957  10.767
16682W        W81667  38.517  29.146  12.564
16683W        W81668  30.639  12.658  12.383
16684W        W81669  11.970  18.945   3.585
16685W        W81670   7.421  24.278  13.911
16686W        W81671  28.152   2.920   0.533
16687W        W81672   4.815   6.686   1.595
16688W        W81673  30.052  33.900  14.488
16689W        W81674  40.121  13.659  10.924
16690W        W81675  13.302  20.783   0.811
16691W        W81676  44.436  39.498   1.244
16692W        W81677  17.153  33.519   0.726
16693W        W81678  20.795  43.982   3.736
16694W        W81679  32.906  21.935  14.512
16695W        W81680  26.330  31.157   3.702
16696W        W81681  44.242  18.572  12.356
16697W        W81682  24.166  23.468  14.444
16698W        W81683   0.739  30.120  14.041
16699W        W81684   4.708  22.078  11.258
16700W        W81685  31.006  25.365   1.404
16701W        W81686   3.944  16.000   3.014
16702W        W81687  20.800  30.213   2.867
16703W        W81688  36.192  18.244   1.118
16704W        W81689  25.057  27.968  14.466
16705W        W81690  29.126  37.347   4.085
16706W        W81691  19.685   9.647  11.649
16707W        W81692  27.440  31.424  10.706
16708W        W81693  44.939  26.925   5.061
16709W        W81694   9.944  35.090   4.676
16710W        W81695  13.258  40.861  13.111
16711W        W81696  13.588  25.583   1.239
16712W        W81697   3.752  29.385   3.758
16713W        W81698  39.355   0.444  12.020
16714W        W81699  24.405   4.194   2.749
16715W        W81700   2.961   8.187   1.267
16716W        W81701   9.183   8.815  11.747
16717W        W81702  35.933  31.765   2.268
16718W        W81703  33.954  21.783  11.618
16719W        W81704  44.610  24.777  12.012
16720W        W81705  10.757  36.921   3.231
16721W        W81706  15.998  17.646  10.972
16722W        W81707  11.185  26.807   4.599
16723W        W81708  25.541  34.901  10.771
16724W        W81709   7.906  32.180  11.958
16725W        W81710   5.640  18.736  14.762
16726W        W81711  16.828  24.560   1.758
16727W        W81712  43.366  20.671   1.738
16728W        W81713  18.233  10.132  13.968
16729W        W81714  38.743   7.860   4.992
16730W        W81715  34.304  16.159  12.648
16731W        W81716  13.645  29.458   0.789
16732W        W81717   9.626   7.728   0.872
16733W        W81718  23.069  29.969  10.932
16734W        W81719   3.017  37.374  10.156
16735W        W81720  30.531   4.426  10.383
16736W        W81721  39.979  42.864  11.917
16737W        W81722  31.050   8.731   3.146
16738W        W81723  33.864   5.648  11.429
16739W        W81724  37.565  44.712   3.197
16740W        W81725  16.833  44.050   1.885
16741W        W81726  32.200  17.078  10.387
16742W        W81727  24.146  37.564  14.349
16743W        W81728  32.026  20.006   4.759
16744W        W81729  13.862  30.369   3.290
16745W        W81730   7.458  37.925  11.078
16746W        W81731  40.912   6.394   3.727
16747W        W81732  43.891  16.426  13.619
16748W        W81733  32.994   2.862  12.617
16749W        W81734  30.495  20.136   4.169
16750W        W81735   0.251  19.734  11.494
16751W        W81736  22.191  28.872  11.985
16752W        W81737  26.025  37.038  12.453
16753W        W81738  42.147  31.774   2.384
16754W        W81739  15.818  39.374   2.209
16755W        W81740  13.164  39.363  13.064
16756W        W81741   4.314  25.016   2.133
16757W        W81742   7.454  17.652  12.460
16758W        W81743  18.626  18.103   4.880
16759W        W81744  22.026  34.821  13.995
16760W        W81745  39.171   3.211  11.962
16761W        W81746  18.827  13.417  13.823
16762W        W81747  40.978  26.232   3.608
16763W        W81748  32.093  40.489   0.975
16764W        W81749   0.063  28.608   4.356
16765W        W81750  29.693  13.651  11.869
16766W        W81751  10.361  26.510  10.851
16767W        W81752  41.042  41.369   1.280
16768W        W81753  19.841  41.340   1.153
16769W        W81754  40.910  39.112  14.901
16770W        W81755  27.583  14.354  11.801
16771W        W81756  33.922  22.160  10.995
16772W        W81757   8.354  41.570   1.124
16773W        W81758  12.284   6.183  13.005
16774W        W81759  19.733  22.619   3.694
16775W        W81760  20.018   3.704  10.465
16776W        W81761  20.631  38.266   3.652
16777W        W81762  31.818  44.287  12.802
16778W        W81763   3.639   7.023  11.045
16779W        W81764  13.386  27.228  12.836
16780W        W81765  36.907  42.729   0.031
16781W        W81766  26.537  25.815  14.974
16782W        W81767  38.913  34.636  12.923
16783W        W81768  42.805  26.152   1.630
16784W        W81769  30.560  12.610   2.791
16785W        W81770  33.770  33.576  14.605
16786W        W81771  37.055  37.468   3.628
16787W        W81772  20.808  24.207  10.663
16788W        W81773   6.650  27.409  12.593
16789W        W81774  36.777  36.992   1.002
16790W        W81775  12.766  23.538   4.306
16791W        W81776  24.136   9.723  10.407
16792W        W81777  30.145  28.017   1.154
16793W        W81778   0.253  39.358  10.338
16794W        W81779   8.872  14.746   0.412
16795W        W81780  28.083  16.760   0.911
16796W        W81781  37.516  24.752   2.152
16797W        W81782   4.540  32.014   2.185
16798W        W81783  44.120   5.278   1.569
16799W        W81784  22.598  29.347   0.565
16800W        W81785  40.067  21.058   1.009
16801W        W81786   2.291  30.623   3.632
16802W        W81787  33.583  12.830   4.183
16803W        W81788  30.538  40.534   3.725
16804W        W81789  44.879  17.089  10.651
16805W        W81790   9.325  13.082   1.765
16806W        W81791  40.954   9.720   0.924
16807W        W81792  25.076  29.971   3.121
16808W        W81793   8.318  44.853  11.527
16809W        W81794   1.483  10.183  11.356
16810W        W81795   0.006  35.983   3.778
16811W        W81796  12.610  24.385   3.251
16812W        W81797  32.421  39.224  12.663
16813W        W81798  15.742   0.538  12.620
16814W        W81799  38.372  17.014  12.701
16815W        W81800  20.140  38.092   1.908
16816W        W81801  42.910  40.720  11.948
16817W        W81802  22.586  16.674  13.825
16818W        W81803   2.494  34.790   2.217
16819W        W81804  20.163   9.385  13.504
16820W        W81805  38.442  18.104   0.890
16821W        W81806  38.106  43.418  11.958
16822W        W81807  44.062  41.989  11.954
16823W        W81808  38.946   5.858  14.890
16824W        W81809  38.929   0.716  13.246
16825W        W81810  38.577  24.991   5.532
16826W        W81811  41.862  15.442   5.438
16827W        W81812  19.009  18.045  11.276
16828W        W81813  23.074   5.540   4.519
16829W        W81814   8.647  22.636  12.006
16830W        W81815  30.340  34.578  13.802
16831W        W81816  33.679   7.723  13.407
16832W        W81817  27.757  18.976   1.941
16833W        W81818  36.996  29.409  10.648
16834W        W81819  32.501  15.713   3.559
16835W        W81820  29.577  33.075  10.632
16836W        W81821  28.979  27.557  12.762
16837W        W81822  36.967   8.306   4.583
16838W        W81823  27.202  18.023   4.060
16839W        W81824  29.168   4.795   3.555
16840W        W81825  12.718  21.238  13.214
16841W        W81826  27.589  20.129   3.134
16842W        W81827  28.518  20.683  10.824
16843W        W81828  39.820   8.947  11.517
16844W        W81829  39.965  15.530   4.086
16845W        W81830  44.432  25.170   4.749
16846W        W81831  29.711  24.408   5.066
16847W        W81832  28.987  39.481  11.048
16848W        W81833  35.984  23.126   2.110
16849W        W81834  13.025   5.751   3.648
16850W        W81835  33.040  43.765  13.888
16851W        W81836  20.463  36.346   0.032
16852W        W81837  22.819  29.516  13.099
16853W        W81838  18.271   2.748   3.841
16854W        W81839   5.678  27.122  14.918
16855W        W81840  30.923  17.284   1.835
16856W        W81841  29.512   0.241   3.250
16857W        W81842  19.122  38.088   1.459
16858W        W81843  34.005  40.383  14.442
16859W        W81844  19.260  30.307   2.746
16860W        W81845  41.003  11.801  10.987
16861W        W81846  26.771  35.511   4.862
16862W        W81847  22.092  40.447   3.863
16863W        W81848  33.054   0.108   1.512
16864W        W81849  22.058   8.219   3.828
16865W        W81850   8.318   7.837   1.342
16866W        W81851  26.356   2.468   0.342
16867W        W81852  22.177  19.587  14.834
16868W        W81853  36.045  38.997   2.863
16869W        W81854   1.479  31.414   2.868
16870W        W81855  42.813  12.851  13.809
16871W        W81856  34.668  24.030  11.468
16872W        W81857  20.744   8.949   2.385
16873W        W81858  32.445  42.851  13.210
16874W        W81859   1.182  30.522  11.900
16875W        W81860  14.085  42.560  12.087
16876W        W81861  10.774  28.330   3.401
16877W        W81862  31.008  30.962   1.989
16878W        W81863  27.085  12.662  10.300
16879W        W81864  24.195   5.313   3.289
16880W        W81865  36.580  26.575   4.361
16881W        W81866  13.796   9.185   4.084
16882W        W81867  39.347  21.044  13.667
16883W        W81868  38.271  24.108   4.587
16884W        W81869  41.905   1.304   3.616
16885W        W81870  36.426  44.809  10.604
16886W        W81871   0.992  13.666  12.469
16887W        W81872  23.071  40.926  11.421
16888W        W81873   7.174  26.220   2.195
16889W        W81874   6.249  35.066   0.474
16890W        W81875  18.944  41.170  12.499
16891W        W81876  36.322  29.872  13.023
16892W        W81877  24.388  43.731  14.044
16893W        W81878  30.037  23.551   4.403
16894W        W81879   9.370  15.574  12.842
16895W        W81880  15.308  24.675   9.780
16896W        W81881  12.386   3.779  13.704
16897W        W81882  28.530  24.475  11.515
16898W        W81883  44.767  28.956   4.630
16899W        W81884  28.277  44.218   3.197
16900W        W81885   6.373  31.134   0.494
16901W        W81886  35.800  34.095   1.608
16902W        W81887  24.734  18.161   1.791
16903W        W81888  43.653  20.979  14.505
16904W        W81889  37.857  20.819  14.846
16905W        W81890  22.096  18.382   5.054
16906W        W81891  32.122  23.392  13.069
16907W        W81892   7.693  29.749  13.121
16908W        W81893  37.033  40.596   5.057
16909W        W81894  17.969   6.568  10.726
16910W        W81895  37.907  33.061  13.933
16911W        W81896  18.231  33.375  11.982
16912W        W81897  14.189  30.761   3.302
16913W        W81898  38.744   5.179   1.492
16914W        W81899  15.236  14.597  14.947
16915W        W81900  42.781  32.230   0.391
16916W        W81901  23.157   1.478  10.249
16917W        W81902  34.491  42.375  13.444
16918W        W81903  32.145   9.734  12.945
16919W        W81904  27.953  35.082  14.465
16920W        W81905   2.301  24.416   0.298
16921W        W81906   5.541  15.236   0.896
16922W        W81907  23.182   1.311  10.729
16923W        W81908   5.378  37.565  14.978
16924W        W81909  44.480  21.536   4.497
16925W        W81910  13.165  24.803   2.103
16926W        W81911  36.534  16.538   1.034
16927W        W81912  16.462  20.034  12.552
16928W        W81913  41.371  32.094  12.420
16929W        W81914  38.299  17.781  14.437
16930W        W81915   7.334  13.578   2.996
16931W        W81916   4.270   3.617  12.599
16932W        W81917  38.160  43.535   1.823
16933W        W81918  40.351  18.372  10.798
16934W        W81919  38.305  19.734   3.296
16935W        W81920  15.579  21.772  13.323
16936W        W81921  39.677  36.767   0.043
16937W        W81922  37.374  17.760   2.947
16938W        W81923  17.576  34.096  12.863
16939W        W81924  10.871  40.604   4.578
16940W        W81925   9.201  10.112  10.807
16941W        W81926  14.785  13.383   0.544
16942W        W81927  23.104  24.215   4.141
16943W        W81928   9.357   4.278  13.547
16944W        W81929  22.536  10.249   0.777
16945W        W81930  31.770   8.341  14.529
16946W        W81931  15.931  26.013   1.429
16947W        W81932  25.837  28.100   4.940
16948W        W81933   1.944  31.535   3.713
16949W        W81934  28.859  28.810   2.257
16950W        W81935  33.679  34.903   2.716
16951W        W81936  21.258  28.220   2.516
16952W        W81937   1.755  22.687  13.396
16953W        W81938  33.317  11.116   1.414
16954W        W81939  30.302  18.498   4.125
16955W        W81940  41.225   1.278  10.738
16956W        W81941  15.546  35.105   2.538
16957W        W81942  39.786  13.126   2.149
16958W        W81943  18.165  33.596   1.505
16959W        W81944  32.991   4.228   3.780
16960W        W81945  38.875  18.159  11.875
16961W        W81946  33.377  15.541   0.789
16962W        W81947  27.140  16.644   2.775
16963W        W81948  44.902  35.421   1.943
16964W        W81949  34.716  18.283   4.337
16965W        W81950  16.345  32.387   1.823
16966W        W81951  38.011  19.933  12.798
16967W        W81952  28.666  10.212  10.166
16968W        W81953  28.364  17.371   4.578
16969W        W81954   2.762  16.951   1.029
16970W        W81955  43.792   6.581   0.472
16971W        W81956  38.425  38.465  12.958
16972W        W81957   6.890   3.250   0.534
16973W        W81958  12.823  23.017   3.044
16974W        W81959  15.432  19.462   1.745
16975W        W81960  12.068  34.515   2.949
16976W        W81961  26.145  18.880  12.119
16977W        W81962  23.267  43.923  12.904
16978W        W81963  28.272  40.504   4.406
16979W        W81964   4.376  29.372   1.838
16980W        W81965  30.160  16.159   4.077
16981W        W81966  40.145  36.633  10.757
16982W        W81967  35.104  42.202   0.754
16983W        W81968   7.170   3.012   1.740
16984W        W81969  35.984  14.983  14.058
16985W        W81970  12.161  41.042   0.932
16986W        W81971   3.972  10.157   2.836
16987W        W81972  41.865  38.251  11.600
16988W        W81973   5.962  19.732  14.026
16989W        W81974  34.419  26.476  11.227
16990W        W81975  12.038  10.778   3.549
16991W        W81976  31.618   3.512  13.828
16992W        W81977  29.605  30.787  13.822
16993W        W81978  10.990  27.008  12.717
16994W        W81979  10.554  39.562   2.657
16995W        W81980   3.237   1.845  13.771
16996W        W81981  24.577   6.675   4.567
16997W        W81982  40.863  28.813   1.735
16998W        W81983  33.430  17.268   3.277
16999W        W81984  31.824  20.581  14.941
17000W        W81985  36.440  32.040   3.737
17001W        W81986   2.043   3.932   2.213
17002W        W81987  33.560   2.621   4.694
17003W        W81988  13.780  33.450   0.820
17004W        W81989  21.433   9.051   4.911
17005W        W81990  35.798   8.310   1.030
17006W        W81991  39.784  20.749   1.327
17007W        W81992  26.919  24.974   3.772
17008W        W81993  19.531  29.942  12.096
17009W        W81994  26.634  28.631   4.125
17010W        W81995  34.380  38.313  14.046
17011W        W81996  10.159  40.856  14.388
17012W        W81997   7.036  14.434   3.235
17013W        W81998  43.236  40.317   1.304
17014W        W81999  33.701  24.761  14.440
17015W        W82000  29.036  38.385   4.480
17016W        W82001  27.058   7.705  11.534
17017W        W82002   4.241  10.716  10.998
17018W        W82003  14.088   1.874   0.585
17019W        W82004  13.723  40.526   4.390
17020W        W82005   6.953  31.470   2.851
17021W        W82006  26.245  39.960  11.718
17022W        W82007  39.726  29.922  12.771
17023W        W82008  16.219  32.882   1.660
17024W        W82009   4.460  42.890   0.535
17025W        W82010   6.455   6.153  14.974
17026W        W82011  33.667  25.532  12.396
17027W        W82012  38.566  39.956   2.558
17028W        W82013   9.939  15.464  13.901
17029W        W82014  22.774   2.334   2.206
17030W        W82015   5.091  21.231   3.648
17031W        W82016   0.193  35.414  11.858
17032W        W82017   1.225  18.654   1.473
17033W        W82018   7.246  27.590   4.392
17034W        W82019  22.683  36.388   2.960
17035W        W82020  33.693   8.467  14.312
17036W        W82021  42.016   4.499   2.205
17037W        W82022   9.818   2.173   0.539
17038W        W82023  28.512  28.191   0.649
17039W        W82024  32.171   8.306   3.615
17040W        W82025  32.563  34.043   0.691
17041W        W82026  36.500   6.014   4.862
17042W        W82027   3.462  37.515  11.633
17043W        W82028   1.439   1.076   2.997
17044W        W82029  32.891  10.387  11.849
17045W        W82030  39.315  18.247  14.061
17046W        W82031  18.470  23.533   3.814
17047W        W82032  22.027  28.656   1.488
17048W        W82033  43.580  10.157   0.269
17049W        W82034  41.645  19.295  13.028
17050W        W82035  43.058  37.212   2.389
17051W        W82036  35.153   1.018  11.197
17052W        W82037  24.071  23.376  13.940
17053W        W82038   5.281  34.128  12.048
17054W        W82039  28.553  29.306  14.001
17055W        W82040   2.196  36.413   0.406
17056W        W82041  21.161  29.534  12.822
17057W        W82042  13.638   1.237  13.287
17058W        W82043  32.624   4.689  10.857
17059W        W82044  26.026  40.021  12.766
17060W        W82045  22.753  19.521   3.433
17061W        W82046  42.527  43.387   4.775
17062W        W82047  21.365  28.270   4.113
17063W        W82048  44.737  32.693  14.963
17064W        W82049  10.695  25.443  12.572
17065W        W82050  22.745  35.880  13.087
17066W        W82051  14.176  26.906  11.664
17067W        W82052  39.108  14.299   2.629
17068W        W82053  22.317  41.445   0.417
17069W        W82054  23.858  29.970  13.991
17070W        W82055  22.687  38.099  13.566
17071W        W82056  15.586  39.500  10.702
17072W        W82057  16.020  10.728   1.221
17073W        W82058  23.516  17.871   1.627
17074W        W82059  19.450  24.139  11.596
17075W        W82060  18.458  11.635   2.452
17076W        W82061  34.634   8.924   0.322
17077W        W82062  10.836   5.206  10.717
17078W        W82063  10.110  12.313   3.733
17079W        W82064  40.958  15.167  13.275
17080W        W82065  29.499  34.979   0.694
17081W        W82066  44.350  27.480   3.632
17082W        W82067  18.859   2.728   1.916
17083W        W82068  27.917  38.057   4.493
17084W        W82069  20.412  27.019  11.535
17085W        W82070  42.891  30.233  12.932
17086W        W82071  19.271   5.462   9.758
17087W        W82072  24.184  28.099  14.527
17088W        W82073  18.115   5.993   0.353
17089W        W82074   8.006   3.824   4.260
17090W        W82075  12.083   1.447   4.767
17091W        W82076   4.218  39.347  11.564
17092W        W82077   1.709  41.395  13.558
17093W        W82078   9.146   5.208  11.680
17094W        W82079  24.207  18.038   0.889
17095W        W82080   5.482  32.759  12.908
17096W        W82081  21.986  26.122   3.242
17097W        W82082   1.330  35.824   4.078
17098W        W82083   7.864  43.279   0.024
17099W        W82084  44.869   5.718   0.902
17100W        W82085  31.829  15.624  10.311
17101W        W82086  16.875  41.109   3.287
17102W        W82087  38.756   5.759  11.979
17103W        W82088  23.630  31.660  14.952
17104W        W82089   4.753  16.925  14.377
17105W        W82090  19.998  22.235   2.235
17106W        W82091   8.409   6.479   2.217
17107W        W82092  21.610  10.782  13.352
17108W        W82093   2.394  40.585  10.787
17109W        W82094   3.293  27.862  12.509
17110W        W82095  17.517   0.972  11.577
17111W        W82096  35.757  42.717  12.604
17112W        W82097   6.394  33.863  13.987
17113W        W82098   8.653   7.897  14.032
17114W        W82099  39.662  11.595  12.732
17115W        W82100   0.373   1.512   4.274
17116W        W82101   2.271   5.425  10.956
17117W        W82102  10.660  17.058   4.798
17118W        W82103  24.104   8.765  10.724
17119W        W82104  32.373  20.308   4.011
17120W        W82105  13.067  35.976   3.562
17121W        W82106  15.861  18.544   1.664
17122W        W82107   9.870   8.114   4.123
17123W        W82108  39.444  11.735   4.642
17124W        W82109   5.556  35.358   1.345
17125W        W82110  10.679   2.423  13.005
17126W        W82111  13.113  22.514  13.909
17127W        W82112  27.178  24.363  11.082
17128W        W82113  13.038  10.262   4.584
17129W        W82114  11.672  20.632   2.785
17130W        W82115  41.077  43.563  11.058
17131W        W82116  22.553  10.772  11.993
17132W        W82117   3.125  40.590   0.425
17133W        W82118  17.986  38.781   4.648
17134W        W82119  10.395  17.003   3.135
17135W        W82120  17.699  22.239  14.517
17136W        W82121   2.420  41.681  13.114
17137W        W82122   6.161  27.241  13.435
17138W        W82123  16.307  17.832   2.884
17139W        W82124   3.711  11.565  12.652
17140W        W82125   0.256  20.040   4.200
17141W        W82126  33.835   3.640   2.252
17142W        W82127  12.347  12.031   1.854
17143W        W82128   5.490  23.596   0.898
17144W        W82129  29.808  24.024  14.966
17145W        W82130   6.136  28.656  13.335
17146W        W82131  24.286   7.168   2.764
17147W        W82132  11.611  38.823   5.063
17148W        W82133  23.044  22.022  13.857
17149W        W82134  30.035  42.183  14.968
17150W        W82135  24.113  16.399  13.426
17151W        W82136  31.387  19.740  11.518
17152W        W82137  29.616  20.952  11.016
17153W        W82138  16.038  39.942  13.802
17154W        W82139   8.236  23.279   0.776
17155W        W82140   9.455  25.754   3.393
17156W        W82141  26.439  33.983  10.660
17157W        W82142  19.219  25.111  10.434
17158W        W82143  16.776  32.226  11.604
17159W        W82144   5.874  35.031   4.597
17160W        W82145   8.518   6.596  12.471
17161W        W82146   1.834   5.019   1.423
17162W        W82147   4.207  44.981  11.452
17163W        W82148  39.170   5.639   2.910
17164W        W82149   3.223  44.458   3.677
17165W        W82150  10.230  20.996   4.550
17166W        W82151   6.066   2.559   3.210
17167W        W82152  43.915  36.946  13.167
17168W        W82153   5.392  43.572  14.918
17169W        W82154  36.988  35.828  12.245
17170W        W82155  38.255  31.529  13.896
17171W        W82156  11.281   4.757  11.449
17172W        W82157   4.689  37.762   0.798
17173W        W82158   9.626  36.471   1.261
17174W        W82159  29.821  20.337  13.962
17175W        W82160  15.795  14.802   3.517
17176W        W82161  33.121  12.363  13.057
17177W        W82162  21.284  42.023  10.796
17178W        W82163  19.515  34.527  11.581
17179W        W82164   5.450  17.103   0.828
17180W        W82165  26.515  22.763   4.017
17181W        W82166   5.086   7.860   1.263
17182W        W82167  20.678   6.301  10.708
17183W        W82168   3.865  11.402  14.435
17184W        W82169   0.542  39.367   4.871
17185W        W82170  40.106   5.178   1.443
17186W        W82171  38.051   6.959   0.584
17187W        W82172   3.812  43.024   2.191
17188W        W82173  40.652  36.880  12.593
17189W        W82174  34.375   3.131  13.905
17190W        W82175   0.536   0.231   4.586
17191W        W82176  44.285   3.926  14.911
17192W        W82177  12.805   3.663   1.298
17193W        W82178  37.585  23.789  12.043
17194W        W82179  16.315   2.952   4.951
17195W        W82180   6.377  24.681   1.736
17196W        W82181  17.538   2.265   0.962
17197W        W82182  27.044   6.610  12.413
17198W        W82183  26.213  27.240   3.640
17199W        W82184  21.033  11.039  10.325
17200W        W82185  42.243   1.458  14.891
17201W        W82186  14.927  34.928   4.263
17202W        W82187  40.517   4.842   1.341
17203W        W82188  15.241  33.665  10.510
17204W        W82189  25.429   8.693  12.493
17205W        W82190   7.136   2.183  14.936
17206W        W82191  18.093  41.030   2.971
17207W        W82192  36.034   9.395  14.466
17208W        W82193   9.915  14.879   0.258
17209W        W82194  31.683  29.223  10.665
17210W        W82195   5.452  10.354  12.962
17211W        W82196  12.535  10.203  12.141
17212W        W82197  20.039  36.933   4.484
17213W        W82198  11.119  42.476  11.989
17214W        W82199  26.038  39.815   3.466
17215W        W82200   8.640  16.601   2.267
17216W        W82201  14.054  40.892   4.598
17217W        W82202   5.209  36.804   0.120
17218W        W82203  26.657  12.321  12.999
17219W        W82204   6.483   2.007  10.103
17220W        W82205  12.737  30.033   3.644
17221W        W82206  36.296   9.604   0.401
17222W        W82207  33.609  33.143   4.631
17223W        W82208   1.240  32.445  13.006
17224W        W82209   5.724  39.012   2.700
17225W        W82210   8.153  38.106  12.387
17226W        W82211  31.536  34.807   4.594
17227W        W82212  44.443   0.917   2.183
17228W        W82213  34.547  10.639   2.812
17229W        W82214   8.288  32.388   1.393
17230W        W82215  25.554   5.396   0.824
17231W        W82216   8.807  10.802   2.526
17232W        W82217  18.111  34.483   2.733
17233W        W82218  42.118  33.938   5.032
17234W        W82219   3.900  18.826  13.669
17235W        W82220  22.216  29.709  11.014
17236W        W82221  28.392  26.148   4.426
17237W        W82222  41.221  13.220  11.255
17238W        W82223  29.666  35.933  12.068
17239W        W82224  14.190  36.823  14.795
17240W        W82225  22.675  38.067  14.680
17241W        W82226  37.068  36.298  11.883
17242W        W82227   2.213  31.387  12.952
17243W        W82228  37.418  39.349   2.345
17244W        W82229   9.405  14.286  12.128
17245W        W82230  28.918  25.537  10.758
17246W        W82231  21.341  34.962  12.569
17247W        W82232  12.314  31.566  13.287
17248W        W82233   1.389  16.746  11.151
17249W        W82234   1.006   8.461  12.926
17250W        W82235  34.482   3.362   3.089
17251W        W82236  10.155  14.138  12.680
17252W        W82237  40.945   2.560  13.051
17253W        W82238  11.761  28.965  14.800
17254W        W82239  22.577   9.516   2.087
17255W        W82240  28.636   2.778   0.728
17256W        W82241  15.357  16.682   3.227
17257W        W82242  11.776   2.792   1.724
17258W        W82243   9.725   6.477  12.090
17259W        W82244   2.854  37.881   4.707
17260W        W82245  38.744  15.316   2.144
17261W        W82246   5.862  11.035  13.504
17262W        W82247  11.246  10.534  13.549
17263W        W82248   1.029  35.194  14.771
17264W        W82249  42.997  26.254  10.170
17265W        W82250   2.031  11.692   3.709
17266W        W82251  22.822   6.011   4.284
17267W        W82252  34.966   4.934  13.018
17268W        W82253   8.068  23.935   2.737
17269W        W82254   3.522  11.723   2.885
17270W        W82255  29.116  41.930   3.353
17271W        W82256  12.289   9.099  12.364
17272W        W82257  37.554   3.858  12.500
17273W        W82258  14.820  34.091  13.581
17274W        W82259  18.704   9.898  13.940
17275W        W82260  33.160  42.019   2.692
17276W        W82261  39.717  16.398   9.812
17277W        W82262  39.333  13.842  11.539
17278W        W82263  37.931  38.142   0.769
17279W        W82264  12.580  44.904   1.221
17280W        W82265   4.238   3.221  12.015
17281W        W82266  35.975  42.036   3.596
17282W        W82267  29.251  24.042   0.821
17283W        W82268  10.844  20.017  12.998
17284W        W82269  22.529  20.564  11.178
17285W        W82270  35.614  11.270  13.921
17286W        W82271  40.792  29.911   3.768
17287W        W82272  32.784  12.765   0.030
17288W        W82273  31.381  34.586  11.538
17289W        W82274  26.447  16.671  14.785
17290W        W82275  24.642  42.314   3.796
17291W        W82276  27.774  17.144   4.940
17292W        W82277  18.310  35.144   3.623
17293W        W82278  24.040  26.710   1.981
17294W        W82279  10.861  22.282  10.633
17295W        W82280  37.475  24.487   1.724
17296W        W82281  20.511  20.781  14.151
17297W        W82282  19.525  43.990  12.601
17298W        W82283   6.118  36.903   2.264
17299W        W82284  26.335  40.984   1.246
17300W        W82285   6.905  32.924  10.691
17301W        W82286  31.896  27.972   4.630
17302W        W82287   6.800  20.779   1.417
17303W        W82288  14.238  40.467   0.967
17304W        W82289  13.501  19.985   1.849
17305W        W82290  33.174  36.901  10.999
17306W        W82291  24.118  24.477   0.379
17307W        W82292  22.292  41.416  13.514
17308W        W82293  13.655  29.168   1.860
17309W        W82294  20.804  37.176   3.752
17310W        W82295   2.502  38.326   0.819
17311W        W82296  21.185   2.373   1.788
17312W        W82297  17.029  43.873   1.428
17313W        W82298  33.491  38.415  14.314
17314W        W82299  24.784  15.812  13.652
17315W        W82300   1.832   5.113   4.078
17316W        W82301  15.042  17.599  10.628
17317W        W82302   9.469   0.917   4.590
17318W        W82303  21.599  33.178  10.366
17319W        W82304  23.686  36.504  12.464
17320W        W82305  42.076  18.686  11.928
17321W        W82306  31.498  36.689  11.182
17322W        W82307  17.587  43.519  13.166
17323W        W82308  24.980  19.508   2.825
17324W        W82309  35.607   7.148  11.250
17325W        W82310  38.810   2.281   4.090
17326W        W82311  29.703  16.925   4.233
17327W        W82312  19.729  24.002   1.015
17328W        W82313  27.971   6.091  11.561
17329W        W82314  18.290  25.900  14.506
17330W        W82315  28.554  38.016   3.865
17331W        W82316   8.616  13.224  11.643
17332W        W82317  28.059   9.325   3.835
17333W        W82318  40.199  28.822  13.519
17334W        W82319   4.686   1.135   4.201
17335W        W82320  15.715  38.441  10.644
17336W        W82321   5.402  13.873   1.189
17337W        W82322   7.320   2.830   1.273
17338W        W82323  27.239  25.066  12.169
17339W        W82324  19.558  40.359   0.799
17340W        W82325  22.621  20.822   3.571
17341W        W82326  42.147   1.698   3.843
17342W        W82327  36.108  18.681  11.315
17343W        W82328  33.059  22.699   0.776
17344W        W82329  19.818  28.730   1.395
17345W        W82330  22.593  43.554   4.131
17346W        W82331   4.768  42.811  14.784
17347W        W82332   2.900  21.122   0.933
17348W        W82333  30.166  10.069   2.241
17349W        W82334  10.677  24.114  14.853
17350W        W82335  20.728  41.777  13.045
17351W        W82336   6.608  14.693  13.426
17352W        W82337  44.040  34.973  10.107
17353W        W82338  20.287  15.324  11.230
17354W        W82339   5.127  40.750  11.920
17355W        W82340   2.164  12.851   5.002
17356W        W82341  27.533  19.302  10.778
17357W        W82342  33.386  28.598   2.757
17358W        W82343  37.993  32.346   4.312
17359W        W82344   3.257  27.414   2.342
17360W        W82345  27.099  44.325  12.854
17361W        W82346  12.272  17.110   4.617
17362W        W82347  44.017  38.444  14.842
17363W        W82348  16.198  28.132   0.673
17364W        W82349  33.999  40.349   2.832
17365W        W82350  24.989  21.183   4.607
17366W        W82351  20.472   5.323  12.035
17367W        W82352   9.521  34.216  14.345
17368W        W82353   0.804  32.064   1.477
17369W        W82354  35.836  32.094   2.640
17370W        W82355  26.354  13.624  12.462
17371W        W82356  30.705  11.301   0.361
17372W        W82357  42.541   0.956   4.188
17373W        W82358   4.236  27.941   3.608
17374W        W82359  34.940  24.648  12.982
17375W        W82360  44.607  21.685  14.961
17376W        W82361  43.486  44.407   4.594
17377W        W82362  25.388  39.996  12.021
17378W        W82363  34.375  39.547   4.666
17379W        W82364   2.260  17.024   4.566
17380W        W82365  13.396  29.756  12.097
17381W        W82366   7.547  23.429  14.312
17382W        W82367  26.173  28.946  13.978
17383W        W82368  22.506  26.168   3.212
17384W        W82369  38.775  41.875   3.182
17385W        W82370  44.667  40.852  11.947
17386W        W82371  35.671  33.843  12.964
17387W        W82372  27.511  43.302   2.595
17388W        W82373  19.233  36.550   2.922
17389W        W82374  42.071  32.073   0.836
17390W        W82375  12.213   7.845   1.676
17391W        W82376  30.078  16.239  11.654
17392W        W82377  12.032  14.227   3.217
17393W        W82378  44.745  10.748  12.546
17394W        W82379  26.770  22.025   3.872
17395W        W82380  27.129  43.209  12.900
17396W        W82381   9.941  14.097  11.623
17397W        W82382  33.530  29.963   0.835
17398W        W82383  42.445  14.805  14.445
17399W        W82384  42.867  31.175   2.834
17400W        W82385  29.503  19.971   2.793
17401W        W82386  20.757  22.147  13.617
17402W        W82387  32.115  14.104  12.194
17403W        W82388  35.497  28.621   3.210
17404W        W82389  21.254   7.283   2.229
17405W        W82390  35.359  35.151   2.294
17406W        W82391  29.939  11.270  10.498
17407W        W82392  29.597  24.044   0.440
17408W        W82393  20.662  44.052  10.141
17409W        W82394  27.518   0.317  10.749
17410W        W82395  21.179   9.257  14.386
17411W        W82396  30.606  31.092  13.393
17412W        W82397   2.449  22.454   4.579
17413W        W82398  23.642  36.268   2.674
17414W        W82399  18.846  32.083   2.663
17415W        W82400   4.349  26.184   4.898
17416W        W82401   5.175  22.690   0.808
17417W        W82402  27.874  38.737   0.274
17418W        W82403  42.602  38.334  13.873
17419W        W82404   4.392   9.456   4.053
17420W        W82405  30.204  21.759   0.148
17421W        W82406  14.578  37.355   0.069
17422W        W82407  15.341  17.847   4.530
17423W        W82408   9.610   3.547   2.769
17424W        W82409  28.132   9.819  10.563
17425W        W82410  11.080  34.715   3.809
17426W        W82411  42.000  34.812   1.191
17427W        W82412  14.083  11.892   4.679
17428W        W82413  37.338  18.963  10.923
17429W        W82414  32.815   7.348   0.415
17430W        W82415  31.140  35.888  10.712
17431W        W82416   3.037  15.911   3.452
17432W        W82417  19.400  13.374   3.396
17433W        W82418  14.733  19.956  13.511
17434W        W82419  16.476   4.595   4.483
17435W        W82420  28.744  39.287   2.203
17436W        W82421  11.622  25.849  14.292
17437W        W82422  22.920  27.311  14.261
17438W        W82423   3.896  14.194  13.395
17439W        W82424  25.308  30.099   0.541
17440W        W82425   4.767  44.766   4.338
17441W        W82426  44.502  16.592  11.289
17442W        W82427  36.419  22.062  14.964
17443W        W82428  37.808  35.781   4.824
17444W        W82429  13.855  18.015  11.559
17445W        W82430  23.061  25.199  13.463
17446W        W82431   0.534  37.871   4.018
17447W        W82432  35.165  32.663  10.586
17448W        W82433  23.565  25.159  13.340
17449W        W82434   3.244  31.032  12.870
17450W        W82435  16.835   9.660   1.699
17451W        W82436  30.906  26.572  14.065
17452W        W82437  23.485  32.698   0.054
17453W        W82438  34.396  25.097  13.833
17454W        W82439  28.020   5.161   4.072
17455W        W82440  35.358  21.120  12.402
17456W        W82441  29.084  35.028   4.819
17457W        W82442  38.839   2.215  13.751
17458W        W82443  22.623  30.146  10.376
17459W        W82444  18.903  16.843   9.715
17460W        W82445  28.783  41.792   0.063
17461W        W82446  32.487  27.999   0.573
17462W        W82447  15.793  21.485  11.787
17463W        W82448  11.758  40.359  10.777
17464W        W82449  38.957  28.165  12.579
17465W        W82450   1.940  17.266  12.334
17466W        W82451  25.197   5.826  12.379
17467W        W82452  29.549   1.786  12.713
17468W        W82453  30.716  13.728   3.281
17469W        W82454  41.357  26.035   1.563
17470W        W82455   0.917   8.933  13.143
17471W        W82456  34.083   6.051   0.771
17472W        W82457  36.270  38.790   3.660
17473W        W82458  20.171  18.274   2.784
17474W        W82459  35.480  32.115  13.509
17475W        W82460  35.127  17.872  13.961
17476W        W82461  35.271  11.157   5.569
17477W        W82462   7.947  22.736   2.293
17478W        W82463  33.825   7.761   3.207
17479W        W82464  40.493  29.466  12.952
17480W        W82465  11.317  17.883  10.841
17481W        W82466   0.757  24.186  13.383
17482W        W82467  26.944  19.164   2.342
17483W        W82468  11.804  44.465   2.643
17484W        W82469   5.129   0.267   2.314
17485W        W82470  21.419  36.374  14.789
17486W        W82471  24.527  43.332   4.312
17487W        W82472   9.183   6.742  12.918
17488W        W82473  28.563  27.192  14.816
17489W        W82474  25.670  39.525   3.272
17490W        W82475   9.311  37.447  11.111
17491W        W82476  33.366  29.452  14.648
17492W        W82477  13.436  34.274   4.674
17493W        W82478   8.918   6.005   0.366
17494W        W82479  26.120  33.492  10.235
17495W        W82480  42.958  23.032  11.143
17496W        W82481  26.029   0.943  14.996
17497W        W82482  12.232  13.801   2.533
17498W        W82483  23.812   2.478  10.709
17499W        W82484   2.678  30.446   2.385
17500W        W82485  24.550   3.860   3.843
17501W        W82486  33.152  22.125  11.530
17502W        W82487  42.768  12.071   1.841
17503W        W82488  42.803  38.790   3.146
17504W        W82489   2.806  15.933   0.816
17505W        W82490  29.164  38.540   0.256
17506W        W82491  10.931  15.500  11.031
17507W        W82492   0.833  36.926  12.459
17508W        W82493  17.269  40.537   4.556
17509W        W82494  31.062  31.112  11.992
17510W        W82495  14.344  13.267  14.280
17511W        W82496  13.854  25.661   3.496
17512W        W82497  21.545  34.221   4.860
17513W        W82498  27.407  29.074  12.965
17514W        W82499   2.447   5.378  11.439
17515W        W82500  33.435  39.791  13.033
17516W        W82501  23.273   5.269   1.649
17517W        W82502   0.581  30.891  12.574
17518W        W82503  30.498  18.622   5.046
17519W        W82504  43.847  30.180  13.509
17520W        W82505   7.125   9.917   2.203
17521W        W82506  39.977   8.087   2.647
17522W        W82507   3.259  34.499   4.780
17523W        W82508  37.347   8.749   0.489
17524W        W82509  22.642   4.521  13.935
17525W        W82510  40.312  23.177   0.283
17526W        W82511  21.255  21.835  13.009
17527W        W82512   0.826  31.731   1.068
17528W        W82513  43.636  34.605  13.209
17529W        W82514   1.895   7.463   3.156
17530W        W82515  24.244  28.195   2.316
17531W        W82516  13.086  40.361   2.320
17532W        W82517  32.174   3.884  11.290
17533W        W82518  10.122  17.343   2.212
17534W        W82519   2.273   0.740   4.850
17535W        W82520   4.776   3.134   3.838
17536W        W82521  44.746  24.701   1.735
17537W        W82522  21.990  44.267   1.366
17538W        W82523   0.247   4.045   1.297
17539W        W82524  17.084  41.496  10.758
17540W        W82525  29.156  37.316   0.473
17541W        W82526  38.083  44.033   1.343
17542W        W82527  19.058  23.895  13.675
17543W        W82528  16.141   1.831  14.355
17544W        W82529  44.849  36.155  14.287
17545W        W82530  37.392  40.374  14.038
17546W        W82531   7.098  27.197   3.142
17547W        W82532  16.830  39.025  12.000
17548W        W82533  27.167  11.726   2.261
17549W        W82534  38.003  19.177  10.549
17550W        W82535   6.130  25.234   2.671
17551W        W82536  11.600   5.168   3.277
17552W        W82537  16.780  20.066   1.918
17553W        W82538  10.146  30.690  14.971
17554W        W82539  36.820  17.032  11.316
17555W        W82540  15.312  11.259  12.847
17556W        W82541  20.811  32.448  11.547
17557W        W82542  20.491   5.870   2.507
17558W        W82543  13.991  26.420  13.576
17559W        W82544  42.914  23.579  11.055
17560W        W82545  10.036  21.548  13.453
17561W        W82546  23.014   0.537   1.776
17562W        W82547  39.174  28.861   4.604
17563W        W82548  35.141  35.623  11.177
17564W        W82549  15.875  29.492  12.348
17565W        W82550  39.129  20.733  13.041
17566W        W82551   8.279  35.348   3.758
17567W        W82552  10.221  23.131   4.564
17568W        W82553  21.741  31.218  12.963
17569W        W82554   9.850  41.964   1.322
17570W        W82555  36.829  28.195   1.306
17571W        W82556  38.055  22.006   2.267
17572W        W82557   4.470  11.813   0.786
17573W        W82558  43.539  30.063  10.828
17574W        W82559  31.419  37.973   1.779
17575W        W82560  23.240  27.546  10.469
17576W        W82561   6.829  43.009   1.358
17577W        W82562  26.968   4.241   1.233
17578W        W82563  44.919  14.708  14.897
17579W        W82564  21.697  43.980  11.761
17580W        W82565  17.862   1.871  11.926
17581W        W82566  18.106  37.785  10.712
17582W        W82567  32.673  14.168  12.110
17583W        W82568  41.264  22.757   1.735
17584W        W82569  32.844  43.834   2.666
17585W        W82570   8.533  32.622  12.311
17586W        W82571  40.617  37.186   2.265
17587W        W82572  35.984  35.647   4.141
17588W        W82573  15.322  31.521  11.138
17589W        W82574  20.731  35.916  14.927
17590W        W82575   5.220  43.487   2.797
17591W        W82576  19.112   2.239  14.432
17592W        W82577   4.734  41.053  12.182
17593W        W82578   9.670  42.262   2.325
17594W        W82579  30.186  21.048   2.799
17595W        W82580  19.287   5.710  14.882
17596W        W82581  17.155   5.110   2.395
17597W        W82582  15.535  40.976  11.619
17598W        W82583  12.361  15.503   0.686
17599W        W82584  39.757  26.282  14.418
17600W        W82585  19.504  27.931   2.912
17601W        W82586  44.978  16.582  14.020
17602W        W82587  22.608  27.376  12.403
17603W        W82588   0.786  42.231   2.338
17604W        W82589  20.648  27.078  13.093
17605W        W82590  28.384  28.250  12.817
17606W        W82591  17.007  33.631   3.257
17607W        W82592  43.372  43.766  14.449
17608W        W82593  31.945  31.312   2.312
17609W        W82594  20.034   7.639  13.862
17610W        W82595  27.958  18.308  11.558
17611W        W82596  33.543  19.243   0.040
17612W        W82597  36.528  12.784   3.698
17613W        W82598  38.192  13.774  14.483
17614W        W82599  21.564   1.322  13.320
17615W        W82600  38.579   7.874   2.533
17616W        W82601  35.161  11.909  11.952
17617W        W82602  32.835  16.144  11.433
17618W        W82603  10.468  40.115  13.247
17619W        W82604  11.014   0.339  12.460
17620W        W82605  28.444  19.773   1.814
17621W        W82606  16.609  29.913  10.686
17622W        W82607  28.859  32.825   4.529
17623W        W82608   2.172   7.007  12.476
17624W        W82609  27.051  16.311   1.908
17625W        W82610   3.621  15.678   4.675
17626W        W82611  10.390  12.796   3.109
17627W        W82612  23.538  33.457  14.412
17628W        W82613  35.914  10.933  12.983
17629W        W82614   7.580  38.364  11.499
17630W        W82615  43.951  26.082  13.253
17631W        W82616  40.538   5.891   3.126
17632W        W82617  40.426   1.921   4.901
17633W        W82618  18.759  26.229  12.042
17634W        W82619  27.250  28.186  12.272
17635W        W82620  37.363   5.750  13.144
17636W        W82621  25.909   6.856   4.393
17637W        W82622  30.316   4.724  14.805
17638W        W82623  37.958   0.838  13.383
17639W        W82624  37.610  19.143   1.332
17640W        W82625  27.722  33.991   0.898
17641W        W82626   8.390  40.926   0.064
17642W        W82627   7.928  29.090  11.064
17643W        W82628  21.637  19.057  13.129
17644W        W82629  20.097  24.588  12.156
17645W        W82630  22.974  26.319   4.113
17646W        W82631  20.063   8.078   4.188
17647W        W82632  33.986  24.635  14.856
17648W        W82633  27.276  35.302  11.107
17649W        W82634  42.419   2.886   0.145
17650W        W82635   5.300  18.091   1.869
17651W        W82636  41.873   2.824  11.648
17652W        W82637  14.395  31.220   3.296
17653W        W82638   6.251  11.179   0.750
17654W        W82639  30.551  35.086   2.801
17655W        W82640  32.128  28.786  11.270
17656W        W82641  41.613  19.520  13.749
17657W        W82642  12.099  15.148   1.148
17658W        W82643  21.440  15.939  14.245
17659W        W82644  28.914  25.240  13.116
17660W        W82645   6.835  24.115   1.202
17661W        W82646  11.712  28.010   0.373
17662W        W82647  13.360  43.847  14.306
17663W        W82648  21.583  35.104   3.911
17664W        W82649   6.802  31.744   4.189
17665W        W82650   1.203  16.860   0.868
17666W        W82651  39.301  17.026   3.330
17667W        W82652  42.318  16.780  12.788
17668W        W82653  13.349  38.930  10.700
17669W        W82654  30.811  36.939  12.486
17670W        W82655  29.682  44.783   4.115
17671W        W82656   7.756  10.289   2.805
17672W        W82657   4.849  15.091  10.945
17673W        W82658  27.150  22.709  13.918
17674W        W82659  31.889  22.806  14.283
17675W        W82660  21.710  25.028   4.570
17676W        W82661   6.344  22.711  11.535
17677W        W82662  29.316  16.721  11.147
17678W        W82663  18.691  23.545   2.930
17679W        W82664  44.292  32.149  14.433
17680W        W82665   8.811   4.603  12.494
17681W        W82666  18.228   5.452  13.428
17682W        W82667   3.982  21.671  14.517
17683W        W82668  11.537  18.849   1.874
17684W        W82669  37.509  17.937   3.718
17685W        W82670   9.138   8.748   1.283
17686W        W82671  17.289  27.191  14.746
17687W        W82672  24.261  10.614  10.700
17688W        W82673  30.206   1.368  11.487
17689W        W82674   1.021  41.850   0.962
17690W        W82675  44.472  35.370   4.365
17691W        W82676   9.420   5.679  11.792
17692W        W82677  41.598  31.519   0.274
17693W        W82678  18.794  25.092  14.342
17694W        W82679  43.666   2.011   4.708
17695W        W82680  32.222  44.458   2.597
17696W        W82681   0.892  37.493   1.126
17697W        W82682  37.097  11.813   4.548
17698W        W82683   8.004  10.632  10.604
17699W        W82684  13.283  37.042   4.114
17700W        W82685  42.729  44.993   3.116
17701W        W82686  37.870  14.511  11.482
17702W        W82687  27.549   8.801   2.356
17703W        W82688  37.485   0.779   0.453
17704W        W82689  24.118   4.945   1.178
17705W        W82690   4.780  32.834  12.074
17706W        W82691  44.315  28.487   3.835
17707W        W82692  12.794  19.871   2.858
17708W        W82693  39.488   5.356  11.385
17709W        W82694  10.679  19.151   3.748
17710W        W82695  15.689  21.133   0.959
17711W        W82696   7.848  13.058  14.857
17712W        W82697  11.585  14.470  12.553
17713W        W82698  31.028  11.858  11.961
17714W        W82699  34.342   8.366   3.646
17715W        W82700   5.793   1.782   0.811
17716W        W82701  36.589  16.115   1.760
17717W        W82702  27.770  40.300  14.844
17718W        W82703  38.106   5.069  10.141
17719W        W82704  30.193  31.021  14.802
17720W        W82705   9.748   9.904  10.806
17721W        W82706  30.162  11.271   2.841
17722W        W82707  36.177  13.207   1.364
17723W        W82708  41.829  10.250  13.480
17724W        W82709  17.008  17.245   0.776
17725W        W82710  29.685  26.390   1.787
17726W        W82711  43.431  44.685  11.402
17727W        W82712  39.901  11.897   4.851
17728W        W82713  14.359   9.123  13.346
17729W        W82714   5.832   6.965   0.931
17730W        W82715  14.316  32.469  11.626
17731W        W82716  36.515  17.197   2.754
17732W        W82717  21.611  22.637   1.319
17733W        W82718  38.470   1.517  13.302
17734W        W82719  21.211  27.033   1.715
17735W        W82720  32.360  31.966   1.289
17736W        W82721  12.745   7.315   3.237
17737W        W82722   1.728  20.145  14.486
17738W        W82723  37.520  12.086   4.743
17739W        W82724  11.210  34.162   0.176
17740W        W82725  43.257  13.635  11.589
17741W        W82726  23.836  34.428   2.200
17742W        W82727  33.989  22.791   4.407
17743W        W82728  21.534  33.922   1.349
17744W        W82729   2.450  33.795   1.400
17745W        W82730   4.157  10.297  10.661
17746W        W82731  33.610  25.986   0.289
17747W        W82732  14.836  24.481   3.711
17748W        W82733   6.448  25.651  10.718
17749W        W82734   3.297   4.163   4.488
17750W        W82735  32.431  13.911   0.474
17751W        W82736  13.994   5.940  12.954
17752W        W82737  33.318  38.309   1.242
17753W        W82738  38.964  41.428   4.461
17754W        W82739  31.088  10.121  12.440
17755W        W82740  19.504  10.678   0.551
17756W        W82741  33.054  43.210  13.139
17757W        W82742  23.032  13.596  14.422
17758W        W82743   2.017  29.859   2.734
17759W        W82744  31.369  27.521  10.741
17760W        W82745  13.364  29.069  14.974
17761W        W82746  43.512  36.960   4.075
17762W        W82747  42.095  30.568  12.096
17763W        W82748   8.581  14.898  14.961
17764W        W82749  35.497  40.819   2.821
17765W        W82750   6.124  28.431   3.202
17766W        W82751  12.199  24.989   3.645
17767W        W82752  19.130  33.070   4.184
17768W        W82753  18.001  27.601  14.607
17769W        W82754   2.745  28.081  10.769
17770W        W82755  25.421  29.688   4.969
17771W        W82756  36.010  37.772  11.067
17772W        W82757  21.270  23.489  10.630
17773W        W82758  20.025  18.203   4.488
17774W        W82759   7.778  30.283  14.314
17775W        W82760   5.719  24.087  13.351
17776W        W82761  32.042  42.791   4.766
17777W        W82762   5.802  15.859  11.976
17778W        W82763  27.963  21.670  14.341
17779W        W82764  25.222  44.912   2.403
17780W        W82765  32.682  33.817   0.227
17781W        W82766   8.378  21.009   1.480
17782W        W82767  22.952  15.727  14.324
17783W        W82768  14.354  16.654   4.670
17784W        W82769  16.744  31.396   0.790
17785W        W82770  36.246  13.669  13.974
17786W        W82771  12.385  41.779  11.625
17787W        W82772  11.215  21.466   1.396
17788W        W82773  42.730   5.305   0.978
17789W        W82774  10.484  36.066   3.844
17790W        W82775  33.487   2.843  12.843
17791W        W82776   0.541  41.835   0.769
17792W        W82777   8.920  19.591   3.149
17793W        W82778   8.367  42.256  12.021
17794W        W82779  20.294  20.278  13.901
17795W        W82780  15.535  33.598  14.459
17796W        W82781  33.940   4.286   0.334
17797W        W82782  13.323  31.419  13.362
17798W        W82783  31.969  29.531   0.794
17799W        W82784  18.330  38.911  12.661
17800W        W82785  10.422  16.041  11.626
17801W        W82786   7.813   3.205  14.731
17802W        W82787  17.349  37.319  13.162
17803W        W82788  13.340  15.201   3.308
17804W        W82789  32.124  12.515  13.090
17805W        W82790  23.229  24.003  11.526
17806W        W82791  19.254  29.464   3.647
17807W        W82792  41.321  28.549   1.542
17808W        W82793  10.280  24.181   3.112
17809W        W82794  30.530  17.179  12.420
17810W        W82795  20.276   4.259   0.897
17811W        W82796  28.957  44.033  12.237
17812W        W82797  17.028   0.346  13.964
17813W        W82798  19.815  27.507   2.851
17814W        W82799  32.450  21.653  11.860
17815W        W82800  26.994  36.079  14.271
17816W        W82801  42.560  10.813  13.386
17817W        W82802   9.651   5.342   0.821
17818W        W82803  44.885  11.421   2.445
17819W        W82804  30.148  38.517   4.072
17820W        W82805  35.353  38.441   2.840
17821W        W82806   0.771  17.076  10.735
17822W        W82807  35.578  27.687   2.567
17823W        W82808  22.077  39.489   1.826
17824W        W82809  35.938  29.855  13.815
17825W        W82810  30.381  29.637   1.819
17826W        W82811  43.307   6.768   0.312
17827W        W82812  24.036  42.979   0.646
17828W        W82813  38.307  16.726  14.758
17829W        W82814  11.839   3.994  14.980
17830W        W82815   4.242  33.387   2.326
17831W        W82816  31.438  40.822   2.128
17832W        W82817   4.835   5.221   3.264
17833W        W82818  19.612  23.004   1.610
17834W        W82819   2.252  38.168  12.050
17835W        W82820  40.010  36.482   0.860
17836W        W82821   8.708  44.821  10.619
17837W        W82822  19.950  21.798  11.120
17838W        W82823  39.529  27.077  14.860
17839W        W82824  28.418  28.931  14.930
17840W        W82825  39.338  10.773   0.997
17841W        W82826  26.397  18.604   2.647
17842W        W82827  15.936  12.549  10.782
17843W        W82828  35.934  27.742   0.429
17844W        W82829  24.194  29.446   2.625
17845W        W82830  41.407  27.540   2.317
17846W        W82831   2.434  44.303  14.897
17847W        W82832  10.165  41.938  13.891
17848W        W82833  18.827  31.638   0.076
17849W        W82834   4.714  15.166  14.240
17850W        W82835  25.537  26.423   4.201
17851W        W82836   1.423   9.425  14.101
17852W        W82837  20.942   0.828  13.548
17853W        W82838  34.000  18.751  12.480
17854W        W82839  37.340  25.104   2.479
17855W        W82840  33.053  41.980  14.973
17856W        W82841  26.732  40.025   2.739
17857W        W82842  40.011  44.755   3.647
17858W        W82843   4.886  39.384  14.426
17859W        W82844  39.812  12.878  12.066
17860W        W82845  12.208  36.372  13.142
17861W        W82846  22.757  27.766  11.564
17862W        W82847  24.736   3.301   3.712
17863W        W82848  16.913  12.646  14.944
17864W        W82849   7.935  29.677   4.441
17865W        W82850  18.066  28.072  12.799
17866W        W82851   3.355  12.852   3.163
17867W        W82852  26.796  14.413  12.878
17868W        W82853   1.998  29.090  13.813
17869W        W82854  23.078   0.488  11.953
17870W        W82855   1.882  36.522  12.650
17871W        W82856  19.971  33.335   1.299
17872W        W82857  16.068  10.766  10.948
17873W        W82858  22.930  28.149  10.711
17874W        W82859  10.956  10.721  14.780
17875W        W82860  44.187  12.783   3.204
17876W        W82861  25.233   5.232  13.777
17877W        W82862  44.705  41.412   3.846
17878W        W82863  28.697  37.050  13.953
17879W        W82864  43.342  38.232   1.764
17880W        W82865  40.299  35.943   0.918
17881W        W82866  36.119  18.727   3.693
17882W        W82867   4.678  17.434  10.220
17883W        W82868  26.615  17.771   2.625
17884W        W82869  24.669  22.232   2.576
17885W        W82870  42.282  24.823   2.227
17886W        W82871   1.434   7.919  11.171
17887W        W82872  42.812  15.297  13.873
17888W        W82873  32.106  27.989  14.766
17889W        W82874  40.480  23.177  14.789
17890W        W82875  17.537  30.337   3.239
17891W        W82876   8.651  35.044   1.988
17892W        W82877  39.753   6.007   1.451
17893W        W82878  19.065  13.843   2.674
17894W        W82879  32.173   0.002  12.218
17895W        W82880  30.830  13.325  14.323
17896W        W82881  28.379  31.873  14.306
17897W        W82882  31.558  12.440  12.505
17898W        W82883   4.509   5.256  13.734
17899W        W82884  14.163  38.757  10.910
17900W        W82885  18.821  43.520  12.536
17901W        W82886   0.513  37.971   1.682
17902W        W82887  39.454   7.784   0.928
17903W        W82888  24.827   1.940  13.463
17904W        W82889  23.236  32.148  11.696
17905W        W82890  32.534   5.631  10.993
17906W        W82891  31.115  24.693   0.358
17907W        W82892   3.821  26.437  14.707
17908W        W82893   6.774  30.984  13.732
17909W        W82894   4.387  44.359   4.502
17910W        W82895   8.231  43.272   4.031
17911W        W82896  21.062  21.800   4.045
17912W        W82897  21.511  22.125   1.454
17913W        W82898  38.797   7.324   3.822
17914W        W82899  24.664  24.494  14.975
17915W        W82900   6.851  21.111   3.597
17916W        W82901  37.408  17.081   2.335
17917W        W82902  27.559  27.108  13.033
17918W        W82903  32.150  25.460  11.214
17919W        W82904  11.893  24.732  14.842
17920W        W82905  17.605  32.851  13.066
17921W        W82906  14.124  33.957  14.567
17922W        W82907  23.569   3.440  11.989
17923W        W82908  24.616   5.375  10.747
17924W        W82909   9.816   1.480  12.008
17925W        W82910   6.622  13.740  12.430
17926W        W82911  29.125   5.436  10.493
17927W        W82912  35.622  25.606   2.208
17928W        W82913  41.268   2.902  11.583
17929W        W82914   9.293   3.851   4.404
17930W        W82915  30.687  24.970   1.285
17931W        W82916  19.254   8.216  10.644
17932W        W82917  37.559  37.062   3.687
17933W        W82918  13.639  13.903   2.007
17934W        W82919  37.127  35.393  11.931
17935W        W82920   0.963   5.790  10.806
17936W        W82921   7.050  40.870  14.864
17937W        W82922  27.143  37.308   4.062
17938W        W82923  26.141  10.594  13.104
17939W        W82924  35.677   4.833  13.659
17940W        W82925  18.699  17.568  12.477
17941W        W82926  24.111  30.444   1.572
17942W        W82927  21.233  35.434   0.320
17943W        W82928  16.300  44.216   1.860
17944W        W82929  19.187  39.340   4.534
17945W        W82930   1.045   2.324   4.515
17946W        W82931  42.651  12.383  10.777
17947W        W82932  43.942  22.657   4.565
17948W        W82933  32.579  24.049   0.752
17949W        W82934   6.412   3.873  13.373
17950W        W82935  18.791   4.008   1.771
17951W        W82936  44.064  19.063  10.958
17952W        W82937   7.154  24.539   2.759
17953W        W82938  38.325   0.933   2.603
17954W        W82939  29.920  39.866  11.557
17955W        W82940  31.510  11.231   2.814
17956W        W82941   5.678   2.877  12.057
17957W        W82942  32.134  41.341  11.705
17958W        W82943  41.394  42.357  11.131
17959W        W82944  27.010   3.792   0.767
17960W        W82945  19.782   6.237   0.479
17961W        W82946  40.770  44.416   3.778
17962W        W82947  35.372   5.227  12.904
17963W        W82948   3.896  12.656   0.894
17964W        W82949  21.087  37.883   1.949
17965W        W82950   0.229   0.888  11.079
17966W        W82951  36.286  31.115   3.687
17967W        W82952  27.483  24.282  13.166
17968W        W82953  28.183  40.080  12.580
17969W        W82954  23.281   1.949   0.526
17970W        W82955  32.483  39.532   2.932
17971W        W82956  36.109  26.463  14.075
17972W        W82957  39.906  28.199  14.496
17973W        W82958  18.590   0.964   1.341
17974W        W82959  10.071  27.445   3.625
17975W        W82960  12.322  32.983  14.515
17976W        W82961  22.557  32.089  10.634
17977W        W82962  17.091  16.308   4.613
17978W        W82963   4.305  26.540   2.132
17979W        W82964  27.163   2.600  10.613
17980W        W82965   1.383  35.122   1.598
17981W        W82966  37.469  16.023   2.198
17982W        W82967  37.759  35.112   3.771
17983W        W82968  27.318  27.646  10.830
17984W        W82969  39.243  12.773   1.951
17985W        W82970   6.883  18.262   2.209
17986W        W82971  38.507  40.958   3.014
17987W        W82972  44.615  28.168   3.559
17988W        W82973   0.480  16.373   1.422
17989W        W82974  42.945   1.765  13.842
17990W        W82975   8.744  23.500  12.628
17991W        W82976  30.722  35.118  11.177
17992W        W82977  34.092  15.266  10.647
17993W        W82978  18.931  10.786   2.630
17994W        W82979  20.807  31.088   1.703
17995W        W82980  42.728  17.847  14.617
17996W        W82981  30.961   7.287  10.254
17997W        W82982  11.355  11.376  13.860
17998W        W82983  21.903   1.769  13.267
17999W        W82984  19.571  18.179  13.379
18000W        W82985  37.447  17.574   1.421
18001W        W82986  27.488  42.067   4.553
18002W        W82987  18.084  26.493  12.700
18003W        W82988   4.844  11.300  10.653
18004W        W82989  31.462  25.052  11.363
18005W        W82990   5.509  43.778   4.632
18006W        W82991  30.769   1.054  14.323
18007W        W82992  10.086  24.207   1.744
18008W        W82993  14.826   0.023  12.633
18009W        W82994   5.148  21.046  11.160
18010W        W82995  37.824  40.540   2.837
18011W        W82996  27.723  25.753  12.338
18012W        W82997  12.271  26.864  13.367
18013W        W82998   2.166  26.716   2.665
18014W        W82999   6.603   9.288   3.809
18015W        W83000  36.047  19.190   3.924
18016W        W83001  19.500   4.459  14.302
18017W        W83002  16.689  32.609  11.264
18018W        W83003  26.198   3.803   3.545
18019W        W83004  14.824  44.964  13.898
18020W        W83005  17.578  36.717  12.647
18021W        W83006  26.035  36.126  13.502
18022W        W83007   7.336  30.608  10.755
18023W        W83008  37.057   7.879   1.415
18024W        W83009  34.004   8.230   3.033
18025W        W83010  18.357  30.165  11.122
18026W        W83011  36.085  19.595   3.627
18027W        W83012   3.617  28.985   4.961
18028W        W83013   4.550  17.812  13.028
18029W        W83014   6.748   2.470  13.096
18030W        W83015  35.325  20.599  11.571
18031W        W83016   1.193  33.156   1.363
18032W        W83017  28.322  11.644  14.681
18033W        W83018   0.627  34.161   2.676
18034W        W83019  25.526  41.783   4.271
18035W        W83020   2.275   7.925  10.791
18036W        W83021  36.227  16.488   2.371
18037W        W83022   0.842  18.809   4.585
18038W        W83023   4.241  35.375   1.676
18039W        W83024  18.239  10.652  14.103
18040W        W83025  27.380  20.270  10.589
18041W        W83026  40.035   7.060   1.226
18042W        W83027  25.399   7.640   2.273
18043W        W83028  11.156  19.149   3.945
18044W        W83029  24.251  26.509  10.768
18045W        W83030  20.794  27.026  13.594
18046W        W83031  25.843  28.887  11.902
18047W        W83032  35.575  23.079   3.653
18048W        W83033  18.287   2.616  13.964
18049W        W83034  13.895  43.939  13.696
18050W        W83035  18.243   8.851  11.817
18051W        W83036  17.300   9.317   4.129
18052W        W83037  20.385  21.836   4.614
18053W        W83038  44.125  18.636  11.865
18054W        W83039   9.930  12.482   3.063
18055W        W83040   8.942  29.033  14.337
18056W        W83041   2.871  11.176   0.296
18057W        W83042  36.822  24.897   3.236
18058W        W83043  21.082   7.477  14.711
18059W        W83044  36.839  11.680  11.484
18060W        W83045  18.833  19.499  12.464
18061W        W83046  32.189   6.350   3.540
18062W        W83047  39.542  16.827  10.568
18063W        W83048  22.408   1.882  13.388
18064W        W83049   4.281  40.853  12.026
18065W        W83050   4.201  11.871  14.253
18066W        W83051  11.215   6.458   3.822
18067W        W83052  25.612  11.653   3.462
18068W        W83053  41.955  18.667   0.971
18069W        W83054  29.276  37.086   2.426
18070W        W83055  33.022  41.216   1.315
18071W        W83056  30.839   8.461   5.466
18072W        W83057  28.731  36.021   1.809
18073W        W83058  31.673  18.578   2.833
18074W        W83059  21.291   2.780   0.161
18075W        W83060   4.320  21.604  11.686
18076W        W83061   8.356  33.291   3.691
18077W        W83062   6.364  25.516  14.322
18078W        W83063  17.599  35.569   4.671
18079W        W83064  37.319  20.484  11.488
18080W        W83065  41.270  33.414   2.778
18081W        W83066   9.218  22.827   2.186
18082W        W83067  26.679  14.938  12.839
18083W        W83068  38.058  34.898   4.171
18084W        W83069  24.163   9.379   2.952
18085W        W83070  12.273  16.307  12.902
18086W        W83071  19.575  43.764   1.902
18087W        W83072  44.719  21.041  11.682
18088W        W83073  27.086  11.448  12.357
18089W        W83074  27.972  34.495  13.908
18090W        W83075  43.908  42.958  13.016
18091W        W83076  27.557  32.945  12.598
18092W        W83077  27.228   0.743   1.372
18093W        W83078  35.349  19.574  14.376
18094W        W83079  23.157   1.792  11.651
18095W        W83080  18.786  27.476   3.132
18096W        W83081  19.487  40.494  12.875
18097W        W83082  44.054  37.537  11.182
18098W        W83083  40.828   4.404   1.044
18099W        W83084   2.507  18.116  14.989
18100W        W83085  41.289  15.776  11.477
18101W        W83086  42.253  40.078   0.965
18102W        W83087  33.832  32.140   2.852
18103W        W83088  21.773  33.382  13.697
18104W        W83089  34.629  24.013   0.233
18105W        W83090   7.357  43.853   2.215
18106W        W83091  40.054  41.388  11.109
18107W        W83092  39.268  28.540  13.400
18108W        W83093  11.120  12.216  13.788
18109W        W83094  19.045  41.037   0.983
18110W        W83095  34.063   8.105   2.545
18111W        W83096  43.954   8.394   2.859
18112W        W83097  23.908  10.857   3.625
18113W        W83098   3.527   6.165  13.859
18114W        W83099  41.195   1.937  14.473
18115W        W83100   4.816  24.473   1.729
18116W        W83101  30.995  41.511  14.026
18117W        W83102   2.787  41.368  10.593
18118W        W83103  33.451   5.356   0.491
18119W        W83104  37.578  22.252   1.379
18120W        W83105   2.201  21.286  11.653
18121W        W83106   4.973  32.591   2.929
18122W        W83107  41.197  10.384  12.059
18123W        W83108  19.809  43.905   0.522
18124W        W83109  17.820  22.733  14.720
18125W        W83110  30.660  32.952  10.710
18126W        W83111  20.542  17.039  13.403
18127W        W83112  12.473  16.115  13.335
18128W        W83113   2.148   3.022  13.862
18129W        W83114   7.449  15.178  13.412
18130W        W83115   3.234  26.209  14.354
18131W        W83116  38.334  38.036  12.045
18132W        W83117  26.963   5.677   2.160
18133W        W83118  39.341   9.656   1.881
18134W        W83119   0.431  29.163  11.197
18135W        W83120  22.468  11.727  13.426
18136W        W83121   8.020  36.516  12.113
18137W        W83122  28.710   2.452   3.719
18138W        W83123  23.265  27.433  12.987
18139W        W83124  33.027  38.761  11.352
18140W        W83125  23.700  19.680  12.882
18141W        W83126  21.164  28.417   0.241
18142W        W83127  17.149  34.415  12.889
18143W        W83128   2.790  44.938  12.506
18144W        W83129   3.173   4.774   3.766
18145W        W83130  11.603  44.335  14.026
18146W        W83131   0.384  24.472  11.609
18147W        W83132  22.224  29.435   1.798
18148W        W83133  36.118  33.521   0.492
18149W        W83134  13.405  18.088  13.028
18150W        W83135   4.122  33.960  13.578
18151W        W83136  10.238   2.231  10.946
18152W        W83137  31.075  32.197   4.812
18153W        W83138   5.379  22.709  13.172
18154W        W83139  38.801  22.174  14.327
18155W        W83140  12.239   4.001   1.837
18156W        W83141  19.099  25.210   0.525
18157W        W83142  28.034  27.262  10.326
18158W        W83143  11.734  35.600   1.409
18159W        W83144  35.902  38.748  13.992
18160W        W83145  21.126  35.916  10.289
18161W        W83146  21.764  16.544   0.789
18162W        W83147   1.496  34.911  13.092
18163W        W83148  16.619  27.099   3.158
18164W        W83149  26.401  26.426   3.952
18165W        W83150  28.888  31.679   4.963
18166W        W83151   1.381  22.999  12.476
18167W        W83152  17.011  13.157   0.622
18168W        W83153   6.618  38.368  14.720
18169W        W83154  28.198  21.030   0.437
18170W        W83155  25.643  37.580   3.722
18171W        W83156  42.027   3.265   3.702
18172W        W83157  18.699  13.769  14.841
18173W        W83158  21.698  17.556  11.576
18174W        W83159   4.557   6.535   3.212
18175W        W83160  31.237   8.757  12.550
18176W        W83161  12.795  20.294  14.201
18177W        W83162   3.684  13.253   1.062
18178W        W83163  25.995   7.688   1.432
18179W        W83164   9.909  23.543  10.181
18180W        W83165   7.831   9.075  13.524
18181W        W83166  36.937  33.590   1.386
18182W        W83167  42.882  25.671   1.457
18183W        W83168  13.898  16.755  10.974
18184W        W83169  26.271  15.588  13.337
18185W        W83170  44.965   8.167  13.777
18186W        W83171  24.935  34.831  14.432
18187W        W83172  28.444  37.520  14.053
18188W        W83173  37.315  16.264   3.621
18189W        W83174  20.513   4.722   0.934
18190W        W83175  27.668  43.556  11.070
18191W        W83176  38.370  37.504   3.525
18192W        W83177  40.602  27.859  14.058
18193W        W83178  24.931   1.215   1.123
18194W        W83179  12.376  32.724   2.754
18195W        W83180  43.796  31.237  12.589
18196W        W83181  40.052  28.974  10.640
18197W        W83182  42.583   8.641  11.284
18198W        W83183   2.305  29.004  10.713
18199W        W83184  31.735  38.701  11.797
18200W        W83185   7.075   1.590   1.670
18201W        W83186  27.177  37.536  14.360
18202W        W83187  37.920  15.250   2.237
18203W        W83188   7.803  34.019   2.638
18204W        W83189  15.107  19.766   3.074
18205W        W83190   7.589  18.610   2.082
18206W        W83191   2.893  24.637   1.776
18207W        W83192   5.767  24.991   3.901
18208W        W83193  24.150  29.117   0.021
18209W        W83194   0.002   5.929  14.503
18210W        W83195   9.185  30.145  10.953
18211W        W83196  30.391  41.448   2.748
18212W        W83197  16.269  17.495   3.743
18213W        W83198  14.733  28.399   3.119
18214W        W83199  18.225  42.658   1.317
18215W        W83200   7.871   7.915  12.386
18216W        W83201  23.520   3.923   4.578
18217W        W83202  27.796  26.239  12.484
18218W        W83203   7.387  14.590  11.061
18219W        W83204  24.508  34.100  14.859
18220W        W83205  41.937  21.869   5.016
18221W        W83206   5.996  17.084   2.853
18222W        W83207  32.904  20.806   0.677
18223W        W83208  12.714  42.829  10.671
18224W        W83209  19.654  12.973  14.792
18225W        W83210   9.951  11.893   0.403
18226W        W83211   3.220  31.875  14.825
18227W        W83212  14.168   7.597  13.574
18228W        W83213  22.241  36.473   2.684
18229W        W83214  27.618  15.291  13.550
18230W        W83215  37.031  44.772  12.655
18231W        W83216  12.227  13.036  10.394
18232W        W83217  35.228  36.812  11.080
18233W        W83218  29.852   8.141  12.439
18234W        W83219  20.739   1.711  12.403
18235W        W83220  10.378  28.986   3.065
18236W        W83221   4.108  35.452  11.969
18237W        W83222  28.550  15.783  14.866
18238W        W83223  38.466   3.416   3.896
18239W        W83224  30.273  12.947  12.683
18240W        W83225   3.286  38.670   3.082
18241W        W83226  32.146  15.139  13.601
18242W        W83227  16.238  35.546  10.809
18243W        W83228  44.646  20.238  10.078
18244W        W83229   7.938  40.696  11.626
18245W        W83230  18.852   9.813   1.705
18246W        W83231  31.937  23.343   2.610
18247W        W83232  37.070  27.867  12.388
18248W        W83233  23.714  39.150  13.763
18249W        W83234  37.499  30.595   4.567
18250W        W83235   8.422   5.234   2.649
18251W        W83236  29.651  12.555   0.481
18252W        W83237  12.753  22.547  12.221
18253W        W83238  31.629   0.262  13.028
18254W        W83239   4.869   7.389   3.649
18255W        W83240  43.023  22.591   2.883
18256W        W83241  11.124  15.454   2.345
18257W        W83242  40.460  13.347  11.683
18258W        W83243  12.663  16.361   3.685
18259W        W83244  18.355  14.186   4.344
18260W        W83245  44.831  33.126  12.930
18261W        W83246   1.304   7.838   4.705
18262W        W83247  31.573  39.738   4.562
18263W        W83248  36.400  43.356   4.016
18264W        W83249  18.184  35.845  13.129
18265W        W83250  34.330  43.292   0.147
18266W        W83251  22.965  44.269  14.962
18267W        W83252  34.615  40.489   2.262
18268W        W83253  23.293   8.619  11.586
18269W        W83254  34.375  28.216   0.936
18270W        W83255  21.023  13.680   2.698
18271W        W83256  44.815  42.815  12.921
18272W        W83257   5.236  29.042   4.726
18273W        W83258  35.119  39.105   0.819
18274W        W83259   7.164  13.935   2.655
18275W        W83260  41.774   9.681  14.454
18276W        W83261  34.098   5.512   2.044
18277W        W83262   6.324   2.227  12.990
18278W        W83263   0.945  23.690   2.628
18279W        W83264  22.712   2.797   4.904
18280W        W83265  14.638  12.870   0.391
18281W        W83266  11.423  26.087  11.588
18282W        W83267   6.504  31.354  11.253
18283W        W83268  12.668  30.445  10.761
18284W        W83269  40.805  30.707   4.183
18285W        W83270  33.463  28.211   2.091
18286W        W83271  23.508  15.240   3.195
18287W        W83272   0.273  31.182  12.856
18288W        W83273  20.672  32.930  10.734
18289W        W83274  40.815  41.996   3.369
18290W        W83275  25.443  30.892   2.654
18291W        W83276  34.434  28.741   0.929
18292W        W83277   4.810  29.446  10.637
18293W        W83278  18.028  36.356   3.373
18294W        W83279  30.904   7.158  13.516
18295W        W83280   4.808  44.943   2.054
18296W        W83281  41.290  22.031  12.017
18297W        W83282  40.300  33.330  11.306
18298W        W83283   7.638  22.148   3.364
18299W        W83284  37.873   9.243   3.231
18300W        W83285  37.809  44.816   3.648
18301W        W83286  21.738   9.978  12.951
18302W        W83287  39.416  22.555   4.381
18303W        W83288  18.676   2.224  10.779
18304W        W83289  20.568  41.326  13.947
18305W        W83290  33.652   9.513  13.123
18306W        W83291   5.662  24.130   1.993
18307W        W83292   6.431  22.216   2.654
18308W        W83293  35.277   1.890   2.450
18309W        W83294  24.328  18.608  12.311
18310W        W83295  42.118  10.459  10.194
18311W        W83296  28.455  42.792  14.284
18312W        W83297  19.639   0.025  10.449
18313W        W83298   8.671  39.424  12.947
18314W        W83299  16.923   7.218   1.852
18315W        W83300  13.099  14.772   4.816
18316W        W83301  34.663  22.699  11.158
18317W        W83302  28.334  15.537  12.578
18318W        W83303  33.350   4.094   1.168
18319W        W83304  23.679  19.340  11.892
18320W        W83305  33.398  31.678  14.044
18321W        W83306  35.703  13.808  12.558
18322W        W83307  22.087  40.927  13.356
18323W        W83308  11.315  44.581   0.755
18324W        W83309  24.530   8.188  14.890
18325W        W83310  43.080   0.814   5.155
18326W        W83311  33.127  22.641   1.299
18327W        W83312  43.145  29.913   1.031
18328W        W83313   3.815  17.262  10.688
18329W        W83314  12.598  20.254  14.784
18330W        W83315  43.001  26.289  12.206
18331W        W83316  11.610   9.338  14.854
18332W        W83317  20.865  28.135   2.155
18333W        W83318   3.043  40.976   2.826
18334W        W83319  27.120  34.626   9.554
18335W        W83320  28.311  17.447   1.344
18336W        W83321  11.767  21.333   2.195
18337W        W83322  44.938  38.867   0.714
18338W        W83323  14.681  22.198  14.432
18339W        W83324  24.271  42.986  12.753
18340W        W83325  42.524  11.221   3.816
18341W        W83326  13.749  35.573   2.125
18342W        W83327  17.097  25.370  11.205
18343W        W83328  27.232  23.857  12.982
18344W        W83329  26.532  35.664  11.439
18345W        W83330   2.689   1.960  13.980
18346W        W83331  13.354  19.444  12.444
18347W        W83332  10.264   0.686   0.946
18348W        W83333   6.197  15.159   1.286
18349W        W83334  30.353  17.298   0.813
18350W        W83335  23.561   5.289  11.780
18351W        W83336  32.958  11.269   2.414
18352W        W83337  15.536  43.261  11.938
18353W        W83338  24.594  36.814  13.542
18354W        W83339  36.221   9.775  10.262
18355W        W83340  17.709  16.054  10.978
18356W        W83341  16.572  13.657   1.657
18357W        W83342  26.797  37.231  10.167
18358W        W83343  42.819   0.846   4.647
18359W        W83344  18.709  11.188   2.407
18360W        W83345  12.464  42.780   2.275
18361W        W83346  33.434  41.811   4.503
18362W        W83347   9.398  40.623   5.172
18363W        W83348  11.271  32.596  12.082
18364W        W83349   1.603  29.197   3.286
18365W        W83350  30.585  10.641   1.585
18366W        W83351  33.369  24.170   2.327
18367W        W83352  15.093   1.235   2.399
18368W        W83353  31.360  11.117   4.498
18369W        W83354  17.293   7.202   1.445
18370W        W83355  42.902  12.915   4.391
18371W        W83356   6.500  44.889  12.991
18372W        W83357   0.407  16.708  14.341
18373W        W83358  15.544  39.476  12.447
18374W        W83359  35.133  41.834   3.135
18375W        W83360  37.368  35.387   0.818
18376W        W83361  30.506   9.411   3.278
18377W        W83362  24.531  25.003   2.923
18378W        W83363  39.789  44.867   1.497
18379W        W83364  39.801  38.844   1.952
18380W        W83365  31.681   2.935   3.332
18381W        W83366  43.992   9.884   1.464
18382W        W83367  17.587  27.871   2.764
18383W        W83368  23.437  40.760  11.095
18384W        W83369  34.142   9.718  14.600
18385W        W83370  25.061  42.015   3.701
18386W        W83371  17.021  42.118  12.561
18387W        W83372  14.578  39.249  14.919
18388W        W83373  11.362   1.481  14.028
18389W        W83374  32.461  14.201  14.852
18390W        W83375  12.185  25.766  11.999
18391W        W83376  28.964  15.366   2.851
18392W        W83377  42.364  28.504  13.791
18393W        W83378  38.925  44.006   0.789
18394W        W83379  22.069  33.046  13.213
18395W        W83380  33.949   7.003  14.904
18396W        W83381  38.056   7.839   3.663
18397W        W83382  25.470  28.011   1.815
18398W        W83383  38.002  31.592  12.160
18399W        W83384  33.576   5.919   4.209
18400W        W83385  37.058  31.657  13.324
18401W        W83386  12.803  13.229   4.584
18402W        W83387  16.827  39.745  10.855
18403W        W83388  14.202  16.384   4.233
18404W        W83389  40.874  37.060  11.613
18405W        W83390  43.837   3.725   0.113
18406W        W83391  28.519  31.215  12.905
18407W        W83392  38.764  18.458   3.658
18408W        W83393   3.901  34.309   2.177
18409W        W83394  33.388  14.767   2.814
18410W        W83395   4.498  30.834  14.499
18411W        W83396  43.320  31.465   3.698
18412W        W83397  14.548  23.627   4.793
18413W        W83398  32.867  28.556   0.775
18414W        W83399   3.829  16.840  12.454
18415W        W83400   0.071  10.174   3.173
18416W        W83401  17.263   9.694  10.539
18417W        W83402  30.467  12.891   4.262
18418W        W83403  39.555  40.422   4.898
18419W        W83404  34.735   8.358   3.277
18420W        W83405  21.814  39.849   2.707
18421W        W83406  17.934  11.675   2.433
18422W        W83407   9.729  19.658  12.405
18423W        W83408  33.551  37.465  12.957
18424W        W83409  40.447  31.899  12.162
18425W        W83410  10.326  26.000   3.076
18426W        W83411  17.437   6.564  10.768
18427W        W83412  32.775  21.214   0.370
18428W        W83413  14.565  24.584   4.810
18429W        W83414  43.842  25.230   2.893
18430W        W83415  18.323  12.214  13.522
18431W        W83416   2.639  17.537   1.799
18432W        W83417  40.955   7.840  13.780
18433W        W83418  43.898   8.929  14.820
18434W        W83419  43.934  24.983  10.622
18435W        W83420   8.218   9.604  14.418
18436W        W83421  15.701  10.297   4.527
18437W        W83422  18.742   2.932  12.822
18438W        W83423  35.882  11.700   0.259
18439W        W83424  10.169  38.132   1.296
18440W        W83425  32.468  21.844   4.177
18441W        W83426  44.527  38.536  10.141
18442W        W83427  30.245  34.100  11.416
18443W        W83428  12.154  24.556  14.401
18444W        W83429   5.677   2.384  14.062
18445W        W83430  35.613  10.737   2.823
18446W        W83431  41.758  41.985  11.860
18447W        W83432  37.539  32.338  13.966
18448W        W83433   1.546  23.707   3.808
18449W        W83434   5.189  12.927   4.249
18450W        W83435   8.776  12.933  14.702
18451W        W83436   1.574   6.552   0.192
18452W        W83437   9.603  28.564   0.147
18453W        W83438  37.268   6.717  14.509
18454W        W83439  36.528  42.500   2.262
18455W        W83440  33.085  32.952  13.005
18456W        W83441   2.673   6.924  12.602
18457W        W83442   7.094   8.114   9.811
18458W        W83443  37.751  36.057   3.824
18459W        W83444   4.845  41.863  12.620
18460W        W83445  14.170  37.862  12.792
18461W        W83446  19.544   4.150   1.293
18462W        W83447   0.563  40.091  14.327
18463W        W83448  12.582  11.078  11.625
18464W        W83449  28.417  19.555  12.865
18465W        W83450  25.927  23.083   2.378
18466W        W83451  41.274  28.674   2.040
18467W        W83452  36.050  29.418   1.813
18468W        W83453  21.850  44.380   0.759
18469W        W83454  20.122   4.362  12.120
18470W        W83455   9.688   1.725   2.660
18471W        W83456  34.510   9.952   5.427
18472W        W83457  34.158   3.840   3.639
18473W        W83458  15.321  18.732  13.332
18474W        W83459  34.406  32.059  10.813
18475W        W83460  10.936   4.327   3.520
18476W        W83461   7.627  42.992  14.149
18477W        W83462  31.550  35.363   4.633
18478W        W83463  42.973  22.579   0.016
18479W        W83464  19.168  24.603  11.755
18480W        W83465  35.020  10.376  14.727
18481W        W83466  44.392  29.388  11.575
18482W        W83467  33.833  44.442  10.607
18483W        W83468   1.754  39.569   1.813
18484W        W83469  21.935  33.652   0.428
18485W        W83470   0.964  39.987  10.758
18486W        W83471  44.207  11.212  14.387
18487W        W83472  43.413  30.699  13.923
18488W        W83473   1.690   1.608  11.507
18489W        W83474  39.409  15.282  10.288
18490W        W83475  23.093  39.523   4.419
18491W        W83476  40.243   4.194  11.612
18492W        W83477   0.990   2.759  12.451
18493W        W83478  11.281  36.509   3.675
18494W        W83479  21.592  17.654   3.283
18495W        W83480   0.002  11.895  14.356
18496W        W83481  33.477  24.629  10.589
18497W        W83482  29.442   5.358   0.489
18498W        W83483  32.388  20.909  11.201
18499W        W83484  30.158   1.282  13.966
18500W        W83485  16.150  39.764  13.323
18501W        W83486   6.103  30.613  13.451
18502W        W83487  28.195  12.875  14.070
18503W        W83488  23.705  29.802  14.461
18504W        W83489  40.784  33.771   4.092
18505W        W83490   8.337   9.048   3.804
18506W        W83491  15.205   4.906  11.779
18507W        W83492  35.121  10.101   2.214
18508W        W83493  22.571  16.800  11.814
18509W        W83494  16.243   8.651   4.149
18510W        W83495  11.980  11.165  14.944
18511W        W83496  24.635  19.325  14.235
18512W        W83497   9.595  21.730  14.465
18513W        W83498  28.102  23.190  12.410
18514W        W83499  39.023  30.384   2.734
18515W        W83500  12.208  29.141   0.747
18516W        W83501   7.432  12.757   2.232
18517W        W83502  31.091  22.604   4.995
18518W        W83503  41.869  29.290   1.404
18519W        W83504  23.301  28.873  13.369
18520W        W83505  43.251   1.499  13.017
18521W        W83506  21.994  27.597   4.087
18522W        W83507  25.279  27.819   1.375
18523W        W83508  39.752  26.389   3.197
18524W        W83509  27.671  32.178   1.929
18525W        W83510   9.903  29.426  13.867
18526W        W83511  19.788  44.167   1.627
18527W        W83512  18.303   1.755  12.621
18528W        W83513  31.349  14.313  12.449
18529W        W83514  40.959  24.339   0.862
18530W        W83515  26.545  22.077   3.055
18531W        W83516  22.113  34.334  11.118
18532W        W83517   6.614   4.449  14.737
18533W        W83518   8.399  41.987   1.432
18534W        W83519  32.318  37.426   3.570
18535W        W83520  31.043   1.986   4.564
18536W        W83521   1.707  42.400   1.562
18537W        W83522  13.676  14.355   1.449
18538W        W83523  14.275  22.645  11.139
18539W        W83524  18.225   1.813  11.554
18540W        W83525  26.398   4.133  11.112
18541W        W83526  19.527  18.099  11.330
18542W        W83527  22.505   3.422   1.725
18543W        W83528  29.617  28.030   5.413
18544W        W83529  15.586  41.508   1.460
18545W        W83530  19.928   2.419  13.502
18546W        W83531   8.181   0.319  14.535
18547W        W83532  36.464  23.171   1.361
18548W        W83533  24.510  17.525  12.995
18549W        W83534  20.492  14.628   3.607
18550W        W83535  22.790  42.780   0.829
18551W        W83536  20.888  16.559  12.564
18552W        W83537  25.455  27.678   3.149
18553W        W83538  42.353   2.235  11.283
18554W        W83539  40.993  41.510   1.805
18555W        W83540  11.146  23.258  11.665
18556W        W83541  18.274  28.645   0.418
18557W        W83542  23.806  22.054   3.545
18558W        W83543   4.162  15.153   4.678
18559W        W83544  16.503  27.542  14.900
18560W        W83545  14.587  18.065   1.871
18561W        W83546  37.267  22.814  14.493
18562W        W83547  43.036  20.263  11.582
18563W        W83548  21.623   7.931  11.530
18564W        W83549  37.959  34.966   9.940
18565W        W83550  22.482   8.614   2.704
18566W        W83551  18.631   8.152  12.002
18567W        W83552   3.237  18.381   4.396
18568W        W83553  22.957  12.163  14.430
18569W        W83554   4.879  43.619  14.552
18570W        W83555  36.956  35.112  10.959
18571W        W83556  19.083  27.606   2.742
18572W        W83557  33.737  37.320  10.597
18573W        W83558  43.494  30.198  11.834
18574W        W83559  28.127   7.389  14.736
18575W        W83560  19.890  26.875   0.050
18576W        W83561  30.609  31.538  11.371
18577W        W83562   6.598  29.608   2.318
18578W        W83563  37.840   3.714   2.331
18579W        W83564  31.584  19.447   0.795
18580W        W83565  40.236  22.733  11.660
18581W        W83566   1.567  41.952   4.618
18582W        W83567  39.489   3.963   4.055
18583W        W83568  18.689  30.534  13.213
18584W        W83569   2.842  21.961   0.268
18585W        W83570  39.613  39.875  11.576
18586W        W83571  38.578  34.840  10.533
18587W        W83572  13.272  30.553   4.971
18588W        W83573  32.978   5.457  11.204
18589W        W83574  14.014   9.340   4.577
18590W        W83575  42.284  22.707  10.686
18591W        W83576   2.363   4.536  13.990
18592W        W83577   5.298  18.218   0.179
18593W        W83578  39.420   1.826  12.934
18594W        W83579  15.477  23.149  14.787
18595W        W83580   8.460   6.187   2.716
18596W        W83581  14.618  31.906  11.381
18597W        W83582   2.215  34.504  11.913
18598W        W83583  13.693   2.683   1.010
18599W        W83584  23.213  37.041  10.732
18600W        W83585   3.864  32.814   0.453
18601W        W83586  33.610   6.636   3.084
18602W        W83587  18.036  22.703  13.914
18603W        W83588  28.980  11.106  14.049
18604W        W83589   0.394  25.580  13.486
18605W        W83590  10.931  39.383   2.224
18606W        W83591  10.372  22.246   1.822
18607W        W83592  35.974  18.757   2.621
18608W        W83593  14.574  32.069  14.041
18609W        W83594  43.912  20.113  13.956
18610W        W83595  41.927   0.183  13.502
18611W        W83596  32.028  29.203   4.809
18612W        W83597  29.901  38.830  11.558
18613W        W83598  10.679  43.889   3.101
18614W        W83599   6.656  22.249   4.653
18615W        W83600   7.907  11.917   3.657
18616W        W83601  18.115  16.317  13.361
18617W        W83602  20.079  40.902   1.313
18618W        W83603  40.764  39.364   3.259
18619W        W83604   2.967  23.698   4.153
18620W        W83605   1.758  36.636   4.090
18621W        W83606   8.263  40.406   4.256
18622W        W83607  39.492  27.457  12.539
18623W        W83608   9.834  12.994   3.144
18624W        W83609  24.731   4.663   0.347
18625W        W83610  25.342   8.890  12.976
18626W        W83611  13.189  20.746   4.385
18627W        W83612  25.625   4.497  14.950
18628W        W83613  41.014  43.596  11.940
18629W        W83614  37.824  35.541  13.042
18630W        W83615  19.281  38.143   3.649
18631W        W83616   2.779  28.161   0.488
18632W        W83617  26.541  25.681   2.835
18633W        W83618  35.609  23.619  13.437
18634W        W83619   8.542  34.082  14.839
18635W        W83620  28.037  28.081   1.868
18636W        W83621  28.113  24.635   2.903
18637W        W83622  10.397  12.157   0.454
18638W        W83623   2.704   0.129  13.438
18639W        W83624   6.941  26.649  11.933
18640W        W83625   1.420  15.241   4.827
18641W        W83626   1.405   4.154   4.319
18642W        W83627  32.415  16.012  13.985
18643W        W83628  35.639   7.455   5.352
18644W        W83629  40.275   0.608   0.334
18645W        W83630  21.137   0.718  14.018
18646W        W83631  37.491   8.899  14.494
18647W        W83632  10.764  14.574  14.986
18648W        W83633  41.929  44.834   0.815
18649W        W83634   7.170  14.388   1.179
18650W        W83635   4.714  43.017   4.170
18651W        W83636   5.751  29.692   2.765
18652W        W83637  37.335   4.342  10.965
18653W        W83638  14.075  14.996  12.369
18654W        W83639  32.944   1.281   4.285
18655W        W83640   7.034  29.122  14.359
18656W        W83641  13.571  30.583  11.133
18657W        W83642  42.612  40.517   0.534
18658W        W83643  43.907  31.990  13.916
18659W        W83644  25.168  39.837   4.623
18660W        W83645   5.838  13.862   0.328
18661W        W83646   9.316  29.899  14.437
18662W        W83647  12.190  36.992   1.663
18663W        W83648  13.161  34.657   4.441
18664W        W83649  13.014  14.536  12.969
18665W        W83650   3.328  39.178   3.783
18666W        W83651  13.693   3.697  10.671
18667W        W83652  31.711   9.836   4.128
18668W        W83653  32.822   7.234  10.698
18669W        W83654  28.979  25.063   2.625
18670W        W83655   4.371  33.192  14.820
18671W        W83656   0.226  25.552   0.772
18672W        W83657  20.110   4.578  10.121
18673W        W83658  21.541  17.856  12.390
18674W        W83659   9.430  13.735  12.444
18675W        W83660  25.672  12.075  14.994
18676W        W83661  14.741   0.465  13.822
18677W        W83662  30.037  39.622  13.500
18678W        W83663  36.823  40.748   2.153
18679W        W83664  31.986  40.038   4.840
18680W        W83665  30.192  41.504   1.864
18681W        W83666  13.121  41.596  12.113
18682W        W83667  28.293  43.346  12.104
18683W        W83668  16.268  21.013   2.699
18684W        W83669  42.999  27.315  11.194
18685W        W83670  17.828  37.073  12.985
18686W        W83671  19.549  39.372  14.497
18687W        W83672   1.997  28.428  12.620
18688W        W83673  25.672  34.823  13.527
18689W        W83674  23.949  29.537   3.625
18690W        W83675  39.860  34.347  13.828
18691W        W83676  11.538  14.408   3.336
18692W        W83677  41.979  43.281  12.870
18693W        W83678   0.409  24.288   2.231
18694W        W83679  23.290  28.976   2.767
18695W        W83680  30.594  32.764   4.770
18696W        W83681   5.212   5.925   1.270
18697W        W83682   2.923   8.902  14.888
18698W        W83683  16.067  19.705  10.674
18699W        W83684  16.577  20.127   2.891
18700W        W83685   5.692   6.409  14.464
18701W        W83686  42.541  17.182   0.147
18702W        W83687   2.820  28.462   4.359
18703W        W83688  12.297   7.904   2.609
18704W        W83689  36.225   4.556  12.116
18705W        W83690  40.984  24.277  13.461
18706W        W83691  15.522   8.920   4.406
18707W        W83692  42.961  19.108   0.855
18708W        W83693  20.490   1.074  13.487
18709W        W83694  17.823   4.347  13.154
18710W        W83695   2.358  32.172   4.142
18711W        W83696  16.644  22.744   4.659
18712W        W83697  30.058   8.730   3.537
18713W        W83698  44.060  19.835  12.176
18714W        W83699  23.718  39.093   3.634
18715W        W83700  23.934  26.047   1.446
18716W        W83701  38.748  37.558   3.174
18717W        W83702  13.171  35.868  10.398
18718W        W83703  40.310  29.168   1.693
18719W        W83704  26.616  27.602  14.809
18720W        W83705  22.128  17.916   0.203
18721W        W83706  37.806  30.468   4.177
18722W        W83707  19.170  36.850   4.127
18723W        W83708  19.517  29.907  13.969
18724W        W83709   3.086  20.138   4.140
18725W        W83710  26.539   5.675   1.131
18726W        W83711   7.872   4.377   2.620
18727W        W83712   5.777   8.241  13.790
18728W        W83713  30.344  37.894  11.574
18729W        W83714  40.093  39.611  14.780
18730W        W83715  17.414  23.570  14.443
18731W        W83716  23.120   9.680   1.401
18732W        W83717  10.636   2.184   1.252
18733W        W83718  10.322   3.736   1.465
18734W        W83719  38.454  10.826   2.949
18735W        W83720   7.130  28.856  13.914
18736W        W83721  25.648   2.660   0.720
18737W        W83722  17.851   3.211   2.413
18738W        W83723  14.605  33.427  11.548
18739W        W83724  23.188  32.495   0.470
18740W        W83725  18.273  40.401   1.866
18741W        W83726  35.242  22.786   3.235
18742W        W83727  31.044  25.435  12.516
18743W        W83728  44.326  38.946  10.965
18744W        W83729   4.950  24.384  14.466
18745W        W83730  29.532  16.181  13.463
18746W        W83731  21.170   1.567  14.963
18747W        W83732  38.540   8.199  14.762
18748W        W83733  36.997  34.917  12.164
18749W        W83734  12.838  17.019  11.656
18750W        W83735  20.229   8.858  13.519
18751W        W83736  28.270  24.394  14.924
18752W        W83737  12.848  42.151   2.843
18753W        W83738  12.863   4.778   0.195
18754W        W83739  37.496  11.239  11.517
18755W        W83740  18.141   6.754   0.882
18756W        W83741  16.785  37.912   2.237
18757W        W83742  33.268  27.526  14.243
18758W        W83743  14.026   8.748  12.095
18759W        W83744  20.110  20.685   1.159
18760W        W83745  11.265  27.291  12.358
18761W        W83746   7.868  15.338  10.616
18762W        W83747   2.806   2.483   3.790
18763W        W83748  27.480  36.343   0.387
18764W        W83749   3.908   2.732  13.474
18765W        W83750  20.054  38.612  12.067
18766W        W83751   2.757  12.161   0.440
18767W        W83752  29.038  42.329   1.864
18768W        W83753  17.136   7.243   0.966
18769W        W83754  28.045   4.946   2.733
18770W        W83755   7.653  41.013   4.674
18771W        W83756  35.270   9.534   9.686
18772W        W83757  39.476  44.338  12.414
18773W        W83758  19.373   6.528   0.402
18774W        W83759   0.679  10.868  13.936
18775W        W83760  29.632  26.018  13.194
18776W        W83761   3.343  11.232   1.601
18777W        W83762  37.113  36.663  13.365
18778W        W83763  33.718  17.058   0.766
18779W        W83764   7.189  11.286  12.469
18780W        W83765   2.266  17.584   3.705
18781W        W83766  39.548   9.064  12.431
18782W        W83767  14.059  29.586  13.839
18783W        W83768  39.978  23.150  12.445
18784W        W83769  11.873  26.952   2.357
18785W        W83770  11.630  40.758   4.139
18786W        W83771  26.522  21.221  10.229
18787W        W83772  44.621  16.256  11.671
18788W        W83773  34.618  27.977   1.357
18789W        W83774  14.797   6.328   1.049
18790W        W83775  30.235  29.464   4.618
18791W        W83776  16.643  26.219  12.754
18792W        W83777  15.112  19.637  11.546
18793W        W83778  43.388  23.367  11.124
18794W        W83779  21.093  14.217   3.640
18795W        W83780  33.476   1.974  11.521
18796W        W83781  37.342  17.548   3.437
18797W        W83782   1.755  33.457  10.675
18798W        W83783  39.370  11.728   3.231
18799W        W83784  30.656   6.108   3.742
18800W        W83785   4.248   0.220  12.431
18801W        W83786  11.733  37.140  14.028
18802W        W83787  19.377   6.651   4.985
18803W        W83788  34.621   9.565  12.845
18804W        W83789  31.019  25.187   3.679
18805W        W83790  36.654   1.262  11.919
18806W        W83791   1.514   3.265   4.510
18807W        W83792  28.912  32.523   0.974
18808W        W83793  29.932  32.146   3.210
18809W        W83794  13.791   7.375   2.229
18810W        W83795  11.946  26.267  14.247
18811W        W83796  39.380  16.583  13.774
18812W        W83797   2.441  19.341   4.973
18813W        W83798  40.140   5.758   2.301
18814W        W83799  16.028   3.705   3.619
18815W        W83800  28.088  25.041   3.248
18816W        W83801  44.579  35.952   3.156
18817W        W83802  12.891  43.905   3.392
18818W        W83803  34.391  17.693   2.879
18819W        W83804  21.601   5.916   2.323
18820W        W83805  33.863   2.074   4.084
18821W        W83806  26.678  11.124  14.912
18822W        W83807  22.537  18.548  14.423
18823W        W83808  20.803  28.122   4.888
18824W        W83809  35.350   4.645  11.702
18825W        W83810  44.163  22.716   5.038
18826W        W83811  31.767  27.228   1.365
18827W        W83812  20.064  25.535  10.762
18828W        W83813  35.089   5.361   2.874
18829W        W83814  22.443   1.219  12.957
18830W        W83815  29.924  18.417   2.201
18831W        W83816  43.473  36.104  11.969
18832W        W83817  26.215  11.398   3.225
18833W        W83818  12.045  27.994  13.973
18834W        W83819  23.964   7.153  13.964
18835W        W83820  41.556  18.277  13.364
18836W        W83821   3.202   5.786  10.498
18837W        W83822  27.935  39.239  11.613
18838W        W83823  12.036  23.958   2.749
18839W        W83824  16.722   2.838  10.781
18840W        W83825  26.390   2.288   2.593
18841W        W83826  29.581  36.986  13.739
18842W        W83827  11.408  27.514   2.732
18843W        W83828  11.819  18.048  14.973
18844W        W83829  31.515  13.174  11.918
18845W        W83830  34.748  43.117  11.371
18846W        W83831  26.764   9.726   2.915
18847W        W83832  32.366  23.931  13.722
18848W        W83833  41.891   5.952   2.367
18849W        W83834   7.690  24.851   4.661
18850W        W83835  40.621  37.456  14.303
18851W        W83836  39.247   8.213  11.110
18852W        W83837  41.547   6.914   0.826
18853W        W83838  42.957   6.756   1.822
18854W        W83839  34.187  14.342   0.683
18855W        W83840  12.913   5.661   2.410
18856W        W83841   2.497  44.365  13.886
18857W        W83842  11.268  21.134   2.205
18858W        W83843  30.655  37.495  11.646
18859W        W83844  34.690  27.636  11.277
18860W        W83845   1.053  43.902  12.105
18861W        W83846  22.963  10.224   1.362
18862W        W83847  13.321  25.149   4.822
18863W        W83848   9.725  43.837  12.975
18864W        W83849  20.964  31.974  11.543
18865W        W83850   4.114  15.913   1.913
18866W        W83851  26.998  43.511   3.247
18867W        W83852  27.010  40.094  13.120
18868W        W83853  18.960  29.029   4.377
18869W        W83854  29.203  38.883  13.773
18870W        W83855  20.561  43.974   2.830
18871W        W83856  13.064   7.642  14.876
18872W        W83857  21.708  42.790  11.951
18873W        W83858  30.603  22.056   0.513
18874W        W83859  37.384  34.529   1.433
18875W        W83860  22.099  42.211   4.088
18876W        W83861  35.903  24.095  11.988
18877W        W83862   5.723  34.960   2.212
18878W        W83863  27.688  16.011  14.656
18879W        W83864  39.048  22.368  12.966
18880W        W83865   3.799  17.030   0.437
18881W        W83866  34.356  42.022   2.376
18882W        W83867  24.163   7.640  11.525
18883W        W83868   2.255  26.161  10.799
18884W        W83869  33.794  29.985  13.880
18885W        W83870  26.223  33.529   2.340
18886W        W83871  18.754  11.534   1.294
18887W        W83872  26.657   8.871   0.765
18888W        W83873  20.527  24.825   4.171
18889W        W83874  35.868  30.135  12.957
18890W        W83875  19.763   0.703  12.711
18891W        W83876  35.329  23.103   0.881
18892W        W83877   0.443   3.222   0.841
18893W        W83878  30.555  23.920   2.211
18894W        W83879  39.453   7.399   2.379
18895W        W83880  27.221  18.613  13.236
18896W        W83881  27.830  37.817  11.538
18897W        W83882  44.308   1.007   3.374
18898W        W83883  35.498   2.892   1.903
18899W        W83884   6.766  28.967  12.911
18900W        W83885  15.757  42.193  12.052
18901W        W83886   7.215  28.117   3.678
18902W        W83887  39.854  23.115   1.813
18903W        W83888  43.014  32.640   0.690
18904W        W83889   3.311  25.901  10.743
18905W        W83890  17.649   0.114  14.281
18906W        W83891   3.636  10.118   3.326
18907W        W83892  11.427   0.195   0.388
18908W        W83893  16.142  16.902   2.836
18909W        W83894  28.216   6.470   4.995
18910W        W83895  42.105   9.796  13.466
18911W        W83896   2.658  14.100  12.804
18912W        W83897  40.564  28.478  12.024
18913W        W83898  22.505  28.837   0.521
18914W        W83899   1.273  19.337   2.525
18915W        W83900  30.207  40.466   2.210
18916W        W83901  34.986  35.636   4.242
18917W        W83902  44.351  32.656   2.255
18918W        W83903  24.148  10.232  11.085
18919W        W83904  38.925  20.762   1.250
18920W        W83905   3.528  37.460  14.433
18921W        W83906  13.702  44.173   0.895
18922W        W83907  42.235  20.212   4.642
18923W        W83908  42.612  19.476  12.898
18924W        W83909  31.134  26.474   0.470
18925W        W83910  44.690   6.651   0.434
18926W        W83911  20.907  43.863  14.295
18927W        W83912  43.937   4.318  12.902
18928W        W83913   5.921  12.567   2.434
18929W        W83914  17.633  14.923  13.435
18930W        W83915  34.062  33.192   3.129
18931W        W83916   6.436  19.616  10.990
18932W        W83917  23.092  34.081   0.920
18933W        W83918  33.379   2.931   2.569
18934W        W83919  39.321  14.145   1.192
18935W        W83920  28.687  41.056  10.688
18936W        W83921  35.707  27.094  12.976
18937W        W83922  39.527  32.606  14.417
18938W        W83923  43.916  44.245  10.360
18939W        W83924  17.091  27.280   3.473
18940W        W83925   5.133  25.572   3.551
18941W        W83926  30.168  29.112  12.198
18942W        W83927  24.878  35.396   3.761
18943W        W83928  29.901  26.763   0.087
18944W        W83929  44.009  34.505  12.851
18945W        W83930  24.263  15.151  12.051
18946W        W83931  32.874   2.755   0.936
18947W        W83932  40.981  35.337  11.616
18948W        W83933  19.587  37.098  12.032
18949W        W83934  31.432  17.046  14.897
18950W        W83935  16.192   5.774  14.751
18951W        W83936  30.048  32.371   3.664
18952W        W83937  27.892  26.130   4.253
18953W        W83938  19.801  44.460  11.041
18954W        W83939  44.845  36.587   5.032
18955W        W83940  34.351   4.776   2.881
18956W        W83941  28.096  41.330  11.746
18957W        W83942  34.861  43.500  11.707
18958W        W83943  11.179  44.467   1.826
18959W        W83944  13.058  25.573   4.621
18960W        W83945  42.982  30.443  11.905
18961W        W83946  32.885   3.013   2.367
18962W        W83947  24.965  29.013  11.802
18963W        W83948  33.750  25.074  14.964
18964W        W83949  32.050  43.715  14.481
18965W        W83950  36.335  42.800   3.387
18966W        W83951   5.225  19.187  10.711
18967W        W83952   1.404  34.914   1.119
18968W        W83953   7.452  42.579   3.301
18969W        W83954  24.257  18.633  11.806
18970W        W83955  44.252  30.862  12.009
18971W        W83956  43.883  21.165   4.792
18972W        W83957  20.164  42.421   3.732
18973W        W83958  15.701  21.380   3.191
18974W        W83959  44.016   6.401   3.704
18975W        W83960   4.235   0.218   1.070
18976W        W83961  31.994  17.269   4.121
18977W        W83962  33.415  35.071  14.347
18978W        W83963  30.834  12.731   1.488
18979W        W83964  19.990   7.853   1.377
18980W        W83965  42.718  38.304   0.523
18981W        W83966  23.261  39.892  13.932
18982W        W83967  26.613  35.392   1.283
18983W        W83968  39.703   1.514   4.061
18984W        W83969  15.712  41.000  13.892
18985W        W83970  27.166  26.704   0.201
18986W        W83971   7.925   7.087   5.362
18987W        W83972  37.355  19.268   0.878
18988W        W83973  29.653  44.184   3.395
18989W        W83974  17.619   6.965   0.276
18990W        W83975  43.317   9.126   3.129
18991W        W83976   9.620  39.587  10.784
18992W        W83977  16.810  24.009   1.730
18993W        W83978   7.396  42.510  10.672
18994W        W83979  31.356  10.803  14.864
18995W        W83980  25.380  37.620   4.157
18996W        W83981   6.176   3.490   3.270
18997W        W83982   6.276  24.186  10.436
18998W        W83983  25.643   1.213   1.394
18999W        W83984  17.251  14.358  10.739
19000W        W83985  26.343  37.181   1.167
19001W        W83986  36.077  39.253  12.923
19002W        W83987  13.730  30.802   5.070
19003W        W83988  22.975   6.102  10.433
19004W        W83989  23.204  11.288  12.576
19005W        W83990   3.475  12.728   1.713
19006W        W83991  36.810  31.719  13.900
19007W        W83992  30.511  28.256   1.965
19008W        W83993   9.196  28.964   2.591
19009W        W83994   5.785  26.931   3.292
19010W        W83995  34.611  21.017   0.237
19011W        W83996  30.489  17.173  10.696
19012W        W83997  18.396  35.406  12.918
19013W        W83998  26.930  14.073   0.378
19014W        W83999  32.174  43.117  14.640
19015W        W84000  40.025   1.598   3.179
19016W        W84001  39.584   2.540  14.846
19017W        W84002  27.880  20.182  10.648
19018W        W84003  18.595  39.573  14.885
19019W        W84004  28.557  17.221   0.050
19020W        W84005  16.371   3.415  14.847
19021W        W84006  10.929  25.898  11.496
19022W        W84007  22.732   5.831  14.563
19023W        W84008   0.408  31.111   0.365
19024W        W84009  18.556  26.402  13.937
19025W        W84010   6.389  24.372   1.306
19026W        W84011  35.425  30.137   1.937
19027W        W84012  43.003  42.286  12.160
19028W        W84013  26.450  33.286  11.748
19029W        W84014  16.346  38.387  13.454
19030W        W84015  16.282  41.242  13.459
19031W        W84016  35.536  26.650   2.675
19032W        W84017   3.179  27.226   4.071
19033W        W84018  29.899  17.527  14.864
19034W        W84019  26.378  15.130   2.113
19035W        W84020  24.596  23.759   2.230
19036W        W84021  22.800  36.610   4.883
19037W        W84022  21.266  17.991  14.753
19038W        W84023  23.550  19.295   4.394
19039W        W84024  31.127  25.584   4.918
19040W        W84025  39.609  14.373   2.812
19041W        W84026  34.860   5.447  10.814
19042W        W84027  16.229  20.618   3.522
19043W        W84028  24.643   8.201   3.708
19044W        W84029  37.243  13.573  10.870
19045W        W84030  30.878  19.487  12.378
19046W        W84031   6.814  39.561   2.716
19047W        W84032   4.340  40.174   1.708
19048W        W84033   5.648  42.630   1.925
19049W        W84034  18.037  22.639  10.199
19050W        W84035  15.944  31.355   2.331
19051W        W84036  16.052  37.858  13.503
19052W        W84037  17.857  17.234  13.602
19053W        W84038  23.742  14.354  10.582
19054W        W84039  34.566   7.238  13.494
19055W        W84040  42.996  24.920   0.740
19056W        W84041  27.200  32.461  12.583
19057W        W84042  39.915  40.918   3.167
19058W        W84043  34.621  20.368  14.492
19059W        W84044  29.993  23.637  10.700
19060W        W84045  34.678  26.453   1.416
19061W        W84046  13.149  26.167  11.055
19062W        W84047  35.294  40.960  12.546
19063W        W84048  26.332  30.712  10.651
19064W        W84049  40.811  28.517  12.487
19065W        W84050  14.728  34.532   0.354
19066W        W84051   9.765   0.337  11.642
19067W        W84052  29.580  26.654  14.255
19068W        W84053  44.997  16.607   0.482
19069W        W84054  35.382  24.933   1.850
19070W        W84055  39.919  25.214  13.438
19071W        W84056  18.121   5.240   1.447
19072W        W84057  44.299  28.240   0.720
19073W        W84058   2.935  28.869   3.761
19074W        W84059   8.778   6.894  10.778
19075W        W84060  24.234  36.966  13.886
19076W        W84061  19.497  28.587   3.634
19077W        W84062  35.571  30.840  14.007
19078W        W84063  36.498  25.233   4.464
19079W        W84064  20.556  13.511  11.973
19080W        W84065   8.585  37.186   5.119
19081W        W84066  24.227  37.029  10.738
19082W        W84067   3.386  13.669   3.766
19083W        W84068  40.468  10.715   0.025
19084W        W84069  28.413   3.407  12.993
19085W        W84070  21.641  40.090  12.404
19086W        W84071   2.699  43.283   4.611
19087W        W84072  17.972   5.690   2.790
19088W        W84073  32.236  11.609   0.464
19089W        W84074  35.067  42.828  14.933
19090W        W84075  37.097  18.758  11.537
19091W        W84076   2.586  31.791  12.905
19092W        W84077  22.056  10.543   1.219
19093W        W84078  36.544  16.800  12.530
19094W        W84079  12.619   3.378  13.941
19095W        W84080   6.884  13.208   3.573
19096W        W84081  16.766  23.044   0.598
19097W        W84082  22.763   6.185  13.474
19098W        W84083  40.020  29.743  11.057
19099W        W84084  27.060  10.243   0.275
19100W        W84085  41.464   3.042  14.776
19101W        W84086  39.893  18.081  11.509
19102W        W84087  18.474  23.249   1.340
19103W        W84088  11.150  42.541   2.656
19104W        W84089  18.126  23.283   2.260
19105W        W84090  19.383  23.044   0.715
19106W        W84091  19.252  35.567   1.930
19107W        W84092   2.823   6.691  13.507
19108W        W84093   0.155  22.170  13.104
19109W        W84094   8.227  42.480   4.708
19110W        W84095  12.096  10.741  11.106
19111W        W84096  32.740  25.360   5.106
19112W        W84097  26.267  34.053  14.211
19113W        W84098  16.827  18.830   9.845
19114W        W84099   9.573  33.892  10.924
19115W        W84100  19.734  14.922  11.874
19116W        W84101  36.683  27.923   1.752
19117W        W84102  35.115  16.078   0.179
19118W        W84103   7.487  21.181   5.033
19119W        W84104  40.498  33.613  10.375
19120W        W84105  13.218  32.626  10.657
19121W        W84106  10.072  43.101  14.357
19122W        W84107  36.532  40.504   1.745
19123W        W84108  25.161  44.796  11.245
19124W        W84109  27.996  23.115  14.317
19125W        W84110  11.812  39.078  10.384
19126W        W84111   7.436  25.538   2.738
19127W        W84112  13.210  18.905  11.073
19128W        W84113  17.643   4.116  13.576
19129W        W84114   7.648  15.672  13.503
19130W        W84115  38.375  13.756  10.551
19131W        W84116  25.470  30.391   1.862
19132W        W84117  14.109  44.327  13.399
19133W        W84118  40.076  16.737  11.708
19134W        W84119   1.608   7.906   2.734
19135W        W84120  34.418  40.800  14.346
19136W        W84121  17.563  41.283   0.332
19137W        W84122   6.009  18.583  14.384
19138W        W84123   5.372  12.325  14.810
19139W        W84124   6.829  16.114  11.537
19140W        W84125   4.228   7.934  12.585
19141W        W84126  41.820  32.674   1.987
19142W        W84127   3.482  19.590  14.424
19143W        W84128  15.368  20.832   4.042
19144W        W84129  44.063  40.603  14.291
19145W        W84130  15.289   7.360   3.694
19146W        W84131  44.471  39.612   0.733
19147W        W84132  15.164  30.186   2.767
19148W        W84133  19.567  43.003   4.088
19149W        W84134  32.595  28.219  14.091
19150W        W84135  34.793  20.208  12.957
19151W        W84136  26.969  13.554   2.831
19152W        W84137  14.544   2.826   1.428
19153W        W84138  41.921  31.033  10.697
19154W        W84139   6.126  43.114  13.852
19155W        W84140   3.481  29.563  13.770
19156W        W84141  18.262  27.130  11.139
19157W        W84142   8.364  38.967   4.772
19158W        W84143   3.231  43.799  12.025
19159W        W84144  44.884  14.193   5.020
19160W        W84145  35.426   7.496  10.345
19161W        W84146  34.728  25.958   4.759
19162W        W84147  20.347  34.229  11.474
19163W        W84148  41.148  42.374   3.291
19164W        W84149  39.314  28.475  10.999
19165W        W84150  23.991  19.566   4.756
19166W        W84151  41.465  10.480   1.862
19167W        W84152  33.503   2.947   0.329
19168W        W84153  30.404   8.402   3.349
19169W        W84154   0.882   8.491   0.542
19170W        W84155  24.752  15.902  13.131
19171W        W84156  25.029  34.714  11.959
19172W        W84157  18.067   8.280  14.655
19173W        W84158  25.255  43.912  10.728
19174W        W84159  28.745   2.595   5.396
19175W        W84160   6.218  24.202   4.025
19176W        W84161  35.064  42.744  11.567
19177W        W84162  10.099  40.852   2.851
19178W        W84163  44.324  26.413  10.281
19179W        W84164  16.628  11.576   3.002
19180W        W84165  11.634   2.794  13.083
19181W        W84166  21.568  31.000  13.932
19182W        W84167  27.521   8.942   4.284
19183W        W84168  19.131  43.574   0.705
19184W        W84169  31.389  11.457   3.284
19185W        W84170  36.801  41.527  11.682
19186W        W84171  18.674  25.442   0.730
19187W        W84172  23.685  26.445   1.678
19188W        W84173  36.765  15.109   1.658
19189W        W84174  44.623  25.645  12.789
19190W        W84175  31.971  27.443   2.903
19191W        W84176  17.080   9.560   0.499
19192W        W84177  39.823  32.067  11.448
19193W        W84178  18.998   3.394   0.758
19194W        W84179  23.189  20.234   4.750
19195W        W84180   1.821   9.880   2.403
19196W        W84181  28.987  29.143  13.759
19197W        W84182  40.561   1.809  12.979
19198W        W84183  31.800  33.103  12.880
19199W        W84184  36.695  39.982   1.140
19200W        W84185  15.511  41.931  12.439
19201W        W84186   9.653  40.707   3.944
19202W        W84187   7.739   7.159   4.435
19203W        W84188   4.704   3.711  12.886
19204W        W84189  33.399  34.522  13.043
19205W        W84190  41.154   7.870  12.920
19206W        W84191  21.957   8.204  14.945
19207W        W84192  27.985  11.357   3.741
19208W        W84193   9.137  29.561  12.111
19209W        W84194  10.375   0.461   0.477
19210W        W84195  27.235  14.533  13.485
19211W        W84196  21.072  24.224  11.159
19212W        W84197  10.613  30.585   4.915
19213W        W84198  43.404  38.490  13.282
19214W        W84199  10.403  24.606   1.835
19215W        W84200   9.186   3.527  14.613
19216W        W84201  32.049  21.664   2.899
19217W        W84202  29.464  24.288  14.033
19218W        W84203  34.255   3.214   0.847
19219W        W84204  12.856   1.284  14.819
19220W        W84205  17.115  15.888   4.953
19221W        W84206  17.066  14.080  14.028
19222W        W84207   9.612  32.412   0.870
19223W        W84208  23.539   6.248   1.838
19224W        W84209  31.990  43.403  11.025
19225W        W84210   6.948   8.754  13.385
19226W        W84211  41.354  40.762  13.382
19227W        W84212  25.775  12.902   3.680
19228W        W84213   6.317  21.514   0.017
19229W        W84214  10.887  13.705   1.346
19230W        W84215  23.511  43.445  12.943
19231W        W84216  42.703   1.925   3.253
19232W        W84217  36.375  26.004  13.984
19233W        W84218  38.394  12.879   1.175
19234W        W84219  13.851  30.680   4.138
19235W        W84220  14.682  21.769   0.309
19236W        W84221  37.673   2.496   4.575
19237W        W84222   1.895  32.235  10.605
19238W        W84223  28.965  16.701  12.398
19239W        W84224  11.850  39.047   3.130
19240W        W84225  12.109   7.657  12.508
19241W        W84226  17.510  22.300   5.072
19242W        W84227  42.291   9.097  12.504
19243W        W84228  27.221  18.373   4.440
19244W        W84229  29.449  35.827  14.795
19245W        W84230   8.009   0.202  14.047
19246W        W84231  31.400  18.260  11.475
19247W        W84232   9.594   5.590   2.670
19248W        W84233   4.750   9.220   2.264
19249W        W84234   6.335  36.444   2.409
19250W        W84235  19.474   5.156   1.235
19251W        W84236   4.345  28.858   1.792
19252W        W84237   8.790   3.755   3.688
19253W        W84238   1.517   1.285  13.508
19254W        W84239  15.778  22.116   0.476
19255W        W84240  10.647  17.804  12.907
19256W        W84241  40.997   6.001   2.847
19257W        W84242   7.552  43.206   2.622
19258W        W84243   3.310   6.896  14.344
19259W        W84244   9.349  25.254   3.384
19260W        W84245  32.631  23.494   0.538
19261W        W84246  26.539  29.519   0.856
19262W        W84247  38.902  34.444   3.422
19263W        W84248  31.751   8.326   4.503
19264W        W84249   4.953  44.532  11.038
19265W        W84250  39.363  20.444   1.347
19266W        W84251   9.194   6.554   4.690
19267W        W84252  24.610   3.430  14.002
19268W        W84253  20.148   1.303   2.142
19269W        W84254  38.025  40.995  10.424
19270W        W84255  21.025  11.857  12.309
19271W        W84256   0.401  10.708  14.357
19272W        W84257  28.535  11.305   0.340
19273W        W84258  33.436  28.132   4.018
19274W        W84259   9.474  28.017   0.983
19275W        W84260  19.594  34.849   4.785
19276W        W84261  14.770   3.299   2.853
19277W        W84262  27.143  21.188   0.769
19278W        W84263  27.296  36.917   0.436
19279W        W84264  31.628  41.317   4.235
19280W        W84265  29.076  27.449  14.166
19281W        W84266  23.619  40.410   0.072
19282W        W84267   0.467  18.507   0.882
19283W        W84268   1.889  21.850  13.751
19284W        W84269  32.832  31.695   0.781
19285W        W84270  10.394  27.463  11.428
19286W        W84271   8.947  25.295  13.166
19287W        W84272  10.251  33.479  10.454
19288W        W84273  42.771  19.811  11.090
19289W        W84274  16.754  42.435   2.768
19290W        W84275  21.348  37.598   0.311
19291W        W84276  43.062   4.124   1.940
19292W        W84277  19.576  16.327  14.550
19293W        W84278  44.951   1.944   4.985
19294W        W84279  44.783   3.125  14.271
19295W        W84280   7.375  22.817   1.152
19296W        W84281  22.721   4.326   3.387
19297W        W84282   1.626  25.609  14.711
19298W        W84283  14.783   4.900  13.116
19299W        W84284   8.797  24.745  14.016
19300W        W84285  19.260  25.231  10.951
19301W        W84286   5.012  27.556   1.016
19302W        W84287  13.536  10.072  11.235
19303W        W84288  39.819  25.981   1.056
19304W        W84289   9.738  20.702   2.907
19305W        W84290   2.586  43.963   1.422
19306W        W84291  37.892  16.645  11.785
19307W        W84292  14.073  14.070  13.580
19308W        W84293  18.339  12.739   1.589
19309W        W84294   6.300  16.782  12.567
19310W        W84295   9.270   4.172  10.748
19311W        W84296   3.914  17.658   3.249
19312W        W84297  35.097  21.343  11.197
19313W        W84298  38.430  39.176  13.429
19314W        W84299   1.565   5.882  11.984
19315W        W84300  22.502  17.971   1.308
19316W        W84301   3.910  38.010   4.190
19317W        W84302  15.752   3.294  13.473
19318W        W84303  33.991  36.641  12.502
19319W        W84304  13.093  19.345   0.502
19320W        W84305  32.832  35.428  13.985
19321W        W84306   4.153  25.048   2.612
19322W        W84307  24.089  27.740  11.022
19323W        W84308  25.802  20.530  12.638
19324W        W84309   4.926  32.047   0.274
19325W        W84310   5.716  20.248   2.764
19326W        W84311  34.053  44.373  12.830
19327W        W84312   9.824  37.350   1.240
19328W        W84313  13.785  12.291  12.941
19329W        W84314   7.871  11.126   0.833
19330W        W84315  37.228   8.827   2.403
19331W        W84316  30.102  35.503  11.527
19332W        W84317  19.641  13.356  10.463
19333W        W84318   3.275  39.242   0.841
19334W        W84319  19.958  27.705  12.520
19335W        W84320   7.573  27.905  12.843
19336W        W84321  38.276  42.679   2.176
19337W        W84322  15.561  19.661   4.392
19338W        W84323   6.740  25.929  11.462
19339W        W84324  36.894  41.742   1.764
19340W        W84325  26.025  44.308   3.888
19341W        W84326  37.941   6.293   2.913
19342W        W84327  25.438  20.017  13.310
19343W        W84328  23.536  42.050   2.518
19344W        W84329  25.023  19.351  12.103
19345W        W84330  18.275   7.507  14.204
19346W        W84331  19.996  14.144  13.803
19347W        W84332  31.860  27.116  14.324
19348W        W84333   3.471   8.521   0.689
19349W        W84334  10.672  36.646  13.960
19350W        W84335  41.212  20.409   1.948
19351W        W84336  19.008  16.759   2.727
19352W        W84337  33.493  33.088  13.782
19353W        W84338  39.387  22.421   3.398
19354W        W84339  16.743  31.969   4.635
19355W        W84340  28.153  44.714   3.209
19356W        W84341  34.785  24.382  12.567
19357W        W84342  18.331  31.624  10.755
19358W        W84343  24.162  38.308   4.556
19359W        W84344  41.495   2.675   3.358
19360W        W84345  40.246  16.131   2.228
19361W        W84346   2.894  39.267  11.576
19362W        W84347  36.880  11.842  10.069
19363W        W84348  29.328  12.575   1.361
19364W        W84349  29.119  41.888   2.822
19365W        W84350  30.981   9.588  14.707
19366W        W84351   0.455   3.738   0.805
19367W        W84352  38.566  44.337   0.468
19368W        W84353   0.674  24.158  10.696
19369W        W84354  35.092  41.433   1.872
19370W        W84355   8.626  40.923  14.140
19371W        W84356  21.166  32.345   3.170
19372W        W84357   9.330   2.272  11.703
19373W        W84358   6.804  20.055   3.718
19374W        W84359  24.998   4.810   3.177
19375W        W84360  10.251  43.185  12.173
19376W        W84361  20.066  40.067   0.242
19377W        W84362  38.488  37.812  11.603
19378W        W84363  33.011  19.138  12.465
19379W        W84364  22.158  13.257  14.579
19380W        W84365  35.581  39.886  14.796
19381W        W84366  12.423  18.261  11.602
19382W        W84367  11.227  35.422  10.934
19383W        W84368  22.149  16.517  13.514
19384W        W84369  41.639  28.469  12.058
19385W        W84370  17.573  10.762  13.036
19386W        W84371  25.435  23.737   0.602
19387W        W84372  42.297  37.278  11.661
19388W        W84373  41.714  26.294  10.779
19389W        W84374   0.964  15.310   3.745
19390W        W84375  23.244  11.595   4.149
19391W        W84376   8.116  21.444  13.001
19392W        W84377  15.537  13.198  11.474
19393W        W84378  36.686  36.527  14.869
19394W        W84379   6.001  34.952  11.556
19395W        W84380  39.940  28.993  11.517
19396W        W84381  37.579  30.003   2.268
19397W        W84382  15.632  21.046  14.492
19398W        W84383  30.506  29.366   0.953
19399W        W84384  21.485  29.931   1.703
19400W        W84385  23.830  40.404   1.003
19401W        W84386  40.743  10.212   5.059
19402W        W84387   5.853  27.570   0.700
19403W        W84388  32.475  27.501  12.353
19404W        W84389  35.182  37.916  12.783
19405W        W84390  16.751  36.770   1.194
19406W        W84391  22.722  44.834  10.737
19407W        W84392  15.103  38.206  14.155
19408W        W84393  44.705   3.480  10.540
19409W        W84394  29.042  25.568  14.855
19410W        W84395  18.353  42.827  11.932
19411W        W84396  30.299  18.207   1.917
19412W        W84397  14.400  22.611  14.345
19413W        W84398  20.068  23.488  14.697
19414W        W84399   1.974  25.655  12.220
19415W        W84400   3.900  28.538   0.341
19416W        W84401  17.601  38.816  13.881
19417W        W84402  31.172  24.327  14.514
19418W        W84403   4.863  14.666  14.038
19419W        W84404  39.083   2.043   2.157
19420W        W84405  20.008  29.118  10.128
19421W        W84406  24.968  43.503   4.573
19422W        W84407  40.019  23.009  11.132
19423W        W84408  35.482  35.505   3.611
19424W        W84409  15.840  42.240   0.060
19425W        W84410   9.329  23.578  10.824
19426W        W84411  18.147  15.565   0.333
19427W        W84412   8.684  28.265   1.933
19428W        W84413  26.596  34.570   0.293
19429W        W84414  23.201   3.435   3.726
19430W        W84415  23.031  34.383  14.817
19431W        W84416  12.320  36.398   2.275
19432W        W84417   6.723  28.691   0.804
19433W        W84418  42.110   8.774  11.330
19434W        W84419   1.899  16.635   4.564
19435W        W84420  15.626  11.121  10.729
19436W        W84421  17.266   2.689   0.745
19437W        W84422   1.601  32.071  13.031
19438W        W84423  17.254  34.661  11.454
19439W        W84424  35.402  44.775  13.429
19440W        W84425  28.326  31.928   0.492
19441W        W84426  34.509  43.013   1.524
19442W        W84427  32.055  39.840  11.211
19443W        W84428  21.127  25.922   4.840
19444W        W84429  32.031  44.145   3.654
19445W        W84430  12.668  20.941   5.011
19446W        W84431  37.926  27.451  11.036
19447W        W84432   4.260   2.290   3.371
19448W        W84433  27.952  26.866   5.020
19449W        W84434  12.619  38.835   2.690
19450W        W84435  42.271  26.494   1.703
19451W        W84436  20.864  40.245  11.933
19452W        W84437  24.249   4.210  14.427
19453W        W84438  23.494  41.296   3.315
19454W        W84439   3.480  21.340  13.503
19455W        W84440  43.843  42.863   3.086
19456W        W84441  37.467  24.274   1.253
19457W        W84442  33.370  38.955   4.980
19458W        W84443  17.855  17.221   0.509
19459W        W84444  13.614  30.098   4.594
19460W        W84445   0.264  30.275  13.366
19461W        W84446   9.258  18.364   2.187
19462W        W84447  27.108  26.225   0.512
19463W        W84448  10.085  21.048  11.505
19464W        W84449  29.400  28.800  13.925
19465W        W84450  44.533  12.304  13.984
19466W        W84451  40.509  25.696  12.519
19467W        W84452  36.702  23.194   0.882
19468W        W84453  43.606  21.479   5.048
19469W        W84454  23.138  39.801  10.514
19470W        W84455   6.873  30.587  14.507
19471W        W84456  44.745   3.192  12.392
19472W        W84457  14.830  39.479  14.483
19473W        W84458  10.474  40.055   3.905
19474W        W84459  26.772  14.014  10.363
19475W        W84460   3.167  32.449  11.058
19476W        W84461  23.062  23.740   0.858
19477W        W84462  11.890  19.485   3.464
19478W        W84463  36.966  17.516  11.123
19479W        W84464  14.785  38.910   0.877
19480W        W84465  27.517  20.458  11.056
19481W        W84466  41.885  29.491   0.918
19482W        W84467   8.497  17.085   3.365
19483W        W84468  40.828  34.619   3.820
19484W        W84469  22.587  44.214  11.886
19485W        W84470  15.155  19.557   1.302
19486W        W84471  10.928   9.801   0.042
19487W        W84472  44.610  42.222  11.195
19488W        W84473  14.403  21.112  14.868
19489W        W84474   0.725  13.596  14.152
19490W        W84475  39.886   4.825   4.074
19491W        W84476  29.376  38.978   5.030
19492W        W84477   9.671   5.687  14.344
19493W        W84478  14.596   5.917   0.804
19494W        W84479  41.450  21.716   5.134
19495W        W84480  41.445  44.461   2.482
19496W        W84481  43.999  42.507  11.974
19497W        W84482  24.130  17.271  10.492
19498W        W84483  16.634  24.915  10.767
19499W        W84484  30.619   5.265  11.701
19500W        W84485   3.190  32.356  14.025
19501W        W84486   5.458   1.350   1.262
19502W        W84487  25.487   6.259  12.428
19503W        W84488  40.997   7.994   4.775
19504W        W84489  37.998  14.141  12.628
19505W        W84490  32.975  41.688   1.113
19506W        W84491  15.232  29.397  11.543
19507W        W84492  36.258  27.617  13.371
19508W        W84493  43.938   2.473   3.233
19509W        W84494  17.551   8.413   4.511
19510W        W84495  43.999   2.432  13.432
19511W        W84496  38.773  20.935   2.286
19512W        W84497  30.077  42.422   2.658
19513W        W84498   4.504  41.494  12.583
19514W        W84499  25.077   3.252   4.193
19515W        W84500  20.983  15.164   2.656
19516W        W84501  19.210  22.809   1.893
19517W        W84502  30.417  40.027  11.430
19518W        W84503  42.415  14.631   5.583
19519W        W84504  26.183  42.413  11.449
19520W        W84505  19.652  30.899  12.247
19521W        W84506   2.118  25.230  13.283
19522W        W84507  41.808  43.317  14.355
19523W        W84508   3.458  36.607   1.225
19524W        W84509  31.434   2.426  11.888
19525W        W84510   3.000  28.031  12.102
19526W        W84511   6.054  29.214  12.171
19527W        W84512   8.861  39.832  11.224
19528W        W84513  44.930   9.763   4.275
19529W        W84514  21.484   3.487  11.584
19530W        W84515  44.302  29.222   4.528
19531W        W84516  10.142  27.674   5.225
19532W        W84517  18.182  25.782   4.260
19533W        W84518  43.487  20.025   3.933
19534W        W84519   4.826  29.651   1.843
19535W        W84520   5.982  20.578  11.422
19536W        W84521  10.880  12.740   2.274
19537W        W84522  40.845  29.703  10.545
19538W        W84523  11.569  30.656   3.680
19539W        W84524   9.703  25.308  10.766
19540W        W84525  18.489  10.217   3.415
19541W        W84526  28.974  17.018   1.833
19542W        W84527  28.942  38.423  12.958
19543W        W84528  24.801  15.743  14.164
19544W        W84529  13.835  17.312  11.612
19545W        W84530  22.597  14.572   2.654
19546W        W84531   0.312  39.497   0.650
19547W        W84532   0.807  29.108  14.881
19548W        W84533  36.406  15.574  10.649
19549W        W84534  17.730  32.521   0.986
19550W        W84535  39.103  16.642   3.645
19551W        W84536  17.310  32.450  14.644
19552W        W84537  24.533  28.598   4.308
19553W        W84538  37.970  32.787   4.564
19554W        W84539  39.314  15.733  13.212
19555W        W84540  15.184  33.175   4.619
19556W        W84541  21.476  19.353  12.722
19557W        W84542  29.166  35.131   2.643
19558W        W84543   7.432   1.353  10.840
19559W        W84544   9.856   6.815  10.757
19560W        W84545  40.861  41.048  12.505
19561W        W84546  22.613   4.478   0.233
19562W        W84547  30.597  29.213   0.440
19563W        W84548  22.631  38.930  11.872
19564W        W84549  30.467   4.961   2.641
19565W        W84550  17.143  42.127   4.625
19566W        W84551  21.082  11.062  14.755
19567W        W84552  42.974  32.141  14.916
19568W        W84553  23.916  35.393  13.857
19569W        W84554  22.739   0.533  13.747
19570W        W84555  36.328   4.882   0.786
19571W        W84556  22.664  40.971   0.828
19572W        W84557  37.167   5.770   0.894
19573W        W84558   0.489  21.694   0.499
19574W        W84559   9.813  24.173   3.335
19575W        W84560  43.943  16.745  11.930
19576W        W84561  29.996  43.937   1.573
19577W        W84562   4.961  28.116  12.883
19578W        W84563   5.922   6.328   1.735
19579W        W84564  17.107   0.301   2.847
19580W        W84565  39.419   3.756  14.499
19581W        W84566  40.573  41.498  12.528
19582W        W84567   7.804   3.808  11.130
19583W        W84568  18.266  37.016   2.366
19584W        W84569   4.336   8.641   3.799
19585W        W84570  43.890   7.462  11.927
19586W        W84571   8.505  24.454   4.506
19587W        W84572  38.846  20.742  11.013
19588W        W84573  34.221   5.846   1.682
19589W        W84574  32.615  28.957   3.120
19590W        W84575  14.565  24.015   3.638
19591W        W84576  44.561  31.667   1.746
19592W        W84577  31.998  22.693   4.873
19593W        W84578  19.492   5.273   0.290
19594W        W84579   0.826  38.787  13.021
19595W        W84580  16.610  34.514  14.821
19596W        W84581  28.012  30.617  11.850
19597W        W84582  10.334  32.373  12.134
19598W        W84583   2.978  40.206   2.341
19599W        W84584  30.394   1.174  12.380
19600W        W84585  41.462  28.544  13.283
19601W        W84586  21.037  32.841  11.282
19602W        W84587  31.062  32.332  11.123
19603W        W84588  31.075   0.198   3.890
19604W        W84589  13.161  26.624  10.601
19605W        W84590  30.865  15.667   4.903
19606W        W84591  28.865  31.043  14.348
19607W        W84592  35.607  33.352   4.020
19608W        W84593  28.789   2.955   4.650
19609W        W84594  26.018  41.970  13.452
19610W        W84595  44.980  44.013   0.414
19611W        W84596  30.154  17.075   2.121
19612W        W84597  13.287  26.472   3.613
19613W        W84598  18.226  11.824  14.556
19614W        W84599  27.665  20.649   4.705
19615W        W84600  22.201   5.319  14.965
19616W        W84601  34.021  13.449  11.089
19617W        W84602  30.712   2.719   1.594
19618W        W84603   5.360  22.485  11.661
19619W        W84604   6.439  44.507  10.240
19620W        W84605  40.646  31.483  12.433
19621W        W84606  23.447  16.191  11.535
19622W        W84607  12.130  33.763  14.634
19623W        W84608  33.503  37.808  10.645
19624W        W84609  24.068  31.728   1.217
19625W        W84610  14.292  41.816   1.354
19626W        W84611  33.256  11.322  13.325
19627W        W84612  27.319  23.442   2.769
19628W        W84613   0.796  24.431  14.492
19629W        W84614  28.033  24.328  11.451
19630W        W84615   2.001  20.575   2.856
19631W        W84616  19.004  36.364   0.874
19632W        W84617  22.972  12.871  10.667
19633W        W84618   2.019  28.560  10.658
19634W        W84619  32.378  10.684  12.502
19635W        W84620   9.623  37.466  11.541
19636W        W84621  29.434  17.462  11.922
19637W        W84622  24.485  44.068  14.431
19638W        W84623  21.952  11.771  13.539
19639W        W84624  33.459   6.346  10.880
19640W        W84625  32.879  11.897   2.706
19641W        W84626  11.059  41.952   1.810
19642W        W84627   8.894  14.420  10.384
19643W        W84628  26.395  38.364  13.582
19644W        W84629  29.153  26.188  13.118
19645W        W84630  42.968  30.880  11.586
19646W        W84631  37.438  36.055   5.042
19647W        W84632  42.290   4.224  13.470
19648W        W84633   8.876  38.173  10.918
19649W        W84634  27.174  42.516  13.404
19650W        W84635  40.845   9.429  13.471
19651W        W84636  29.434  13.727   1.908
19652W        W84637  21.179   9.758   2.298
19653W        W84638   6.718  40.063   2.677
19654W        W84639  23.758  23.274  12.449
19655W        W84640   9.270  27.020  12.018
19656W        W84641   1.846  20.578   0.734
19657W        W84642  34.200   3.930  11.408
19658W        W84643  31.069  37.601   4.897
19659W        W84644  17.058  33.411   3.742
19660W        W84645  29.006  35.804   4.130
19661W        W84646  30.418  21.621   0.671
19662W        W84647  32.423   5.430  12.436
19663W        W84648  28.258   6.028  11.060
19664W        W84649   8.728  11.307   3.393
19665W        W84650  35.360  20.167   3.248
19666W        W84651  30.588  36.867  14.979
19667W        W84652  24.144  30.469   3.124
19668W        W84653  33.348  37.438   2.682
19669W        W84654  30.940  27.757  10.573
19670W        W84655  21.704  25.072   3.569
19671W        W84656  38.455  32.008   2.863
19672W        W84657   5.760  30.993  13.362
19673W        W84658  27.651   2.062   2.748
19674W        W84659  14.789  11.233  10.516
19675W        W84660  32.050   1.020   2.077
19676W        W84661  10.151   5.243  11.454
19677W        W84662  31.355  23.077   4.300
19678W        W84663  12.203  15.611  14.298
19679W        W84664  14.631   0.240   2.756
19680W        W84665   3.347   2.397   3.611
19681W        W84666   0.833  16.237  12.713
19682W        W84667   5.495  29.461   0.796
19683W        W84668  13.631  21.744  12.954
19684W        W84669  17.017  20.920  10.647
19685W        W84670  35.489  10.598   3.799
19686W        W84671  16.471  26.040   1.397
19687W        W84672  27.271  21.079  11.612
19688W        W84673  35.146  28.072   2.013
19689W        W84674  19.692  27.440  12.173
19690W        W84675  20.070  30.663   2.144
19691W        W84676  17.087   6.860  13.821
19692W        W84677  37.871  16.829   2.299
19693W        W84678  26.083  38.313  12.795
19694W        W84679  36.911  36.606  13.826
19695W        W84680   7.752  32.016   0.889
19696W        W84681  25.671  36.549  12.269
19697W        W84682  41.550  15.041   3.322
19698W        W84683   8.671  11.302  12.556
19699W        W84684  18.298  41.227   2.335
19700W        W84685  13.214  40.601  10.178
19701W        W84686  39.589  34.925   1.812
19702W        W84687  33.068  39.344  13.093
19703W        W84688  18.574  38.890   0.437
19704W        W84689  35.093  19.214  11.487
19705W        W84690   9.104   3.248  12.331
19706W        W84691  18.026  20.406   4.201
19707W        W84692   8.194  32.611  12.687
19708W        W84693   7.144  33.404   1.263
19709W        W84694  39.581   0.679  12.494
19710W        W84695  11.766   8.370   4.152
19711W        W84696   4.879  15.066  12.844
19712W        W84697   1.269   9.645   3.634
19713W        W84698  33.370   5.596  11.502
19714W        W84699  21.239   9.998   1.802
19715W        W84700   0.716   4.708   2.009
19716W        W84701  27.578  18.391  11.103
19717W        W84702  37.561   9.636  10.234
19718W        W84703   8.662  33.330   4.110
19719W        W84704  15.723  36.907  12.404
19720W        W84705  43.925  32.901   0.757
19721W        W84706  30.754  26.606   4.109
19722W        W84707   2.808  25.934  11.618
19723W        W84708  10.872  34.019   2.903
19724W        W84709   9.867  20.979   2.126
19725W        W84710  20.693   4.877  10.537
19726W        W84711   9.064   9.418   2.381
19727W        W84712  25.723  35.115  10.323
19728W        W84713  33.630  34.522  12.566
19729W        W84714   7.483  31.873   9.971
19730W        W84715  11.849  32.023   2.706
19731W        W84716  12.815  36.807  11.597
19732W        W84717  36.605  40.900  12.414
19733W        W84718  27.057  28.371   4.638
19734W        W84719  20.364  39.367   0.513
19735W        W84720  38.134   0.739  12.129
19736W        W84721  19.888  29.091  12.492
19737W        W84722  13.535  24.390   2.725
19738W        W84723  17.800   0.560   0.135
19739W        W84724  44.814  37.092   1.250
19740W        W84725  12.310  19.037   2.630
19741W        W84726  14.315   7.709   0.953
19742W        W84727  43.949  34.179   3.651
19743W        W84728  40.487   2.460  10.877
19744W        W84729  27.160  17.637  11.593
19745W        W84730  27.859  22.644  14.405
19746W        W84731   5.341  34.942   3.502
19747W        W84732  23.696  15.474  10.442
19748W        W84733  16.657  13.704  13.962
19749W        W84734   8.751  29.836  13.917
19750W        W84735  10.312  43.456   2.020
19751W        W84736  17.200  25.651  13.894
19752W        W84737   7.329   4.782  11.910
19753W        W84738  40.848  27.935   3.573
19754W        W84739   1.503  42.553   3.234
19755W        W84740  20.621  19.667  11.234
19756W        W84741  12.727  25.179   1.254
19757W        W84742   5.269  34.841   2.487
19758W        W84743   1.795  23.273   2.808
19759W        W84744   9.950  40.257   3.739
19760W        W84745  33.886  13.740   3.347
19761W        W84746  18.795  29.136  11.558
19762W        W84747  11.348  40.482  14.853
19763W        W84748   1.448  39.058   4.225
19764W        W84749  34.330  11.113   0.550
19765W        W84750  21.687   3.970   2.506
19766W        W84751   9.817  42.047   3.741
19767W        W84752  27.559  11.978   1.364
19768W        W84753   6.509  14.008  13.000
19769W        W84754  37.373  11.377   4.063
19770W        W84755  25.650  10.082  13.474
19771W        W84756  28.774  33.388   3.625
19772W        W84757  16.224  29.520  13.176
19773W        W84758  34.195  22.542  14.498
19774W        W84759  16.135  30.079   4.023
19775W        W84760  44.560  34.953   4.066
19776W        W84761  41.252  18.197  13.808
19777W        W84762  14.352  21.603   5.040
19778W        W84763  31.786  19.685  12.447
19779W        W84764   0.993  30.076   2.767
19780W        W84765  23.801  28.640  11.167
19781W        W84766  27.240  35.616  14.225
19782W        W84767  24.708   1.771   2.340
19783W        W84768   2.023   6.914  14.728
19784W        W84769  43.091  34.121  14.323
19785W        W84770  34.868  11.277  14.756
19786W        W84771   4.626  14.055  11.017
19787W        W84772  27.347   4.882   2.421
19788W        W84773  29.197  28.746  14.874
19789W        W84774  22.564  22.589   0.463
19790W        W84775  18.736   9.573   4.447
19791W        W84776  38.367  27.455   1.173
19792W        W84777   7.379  33.003   1.031
19793W        W84778  43.171  34.502   0.636
19794W        W84779   8.416   4.773   0.763
19795W        W84780  23.656   1.737   0.248
19796W        W84781  41.502   5.901  14.365
19797W        W84782   7.241  29.579  12.531
19798W        W84783   1.273  34.502   3.213
19799W        W84784  40.813   8.441   2.239
19800W        W84785  35.193  42.322   1.757
19801W        W84786   5.039  14.899  13.304
19802W        W84787  25.620  40.341  13.960
19803W        W84788  11.686   9.389   3.893
19804W        W84789  26.057   5.830  11.807
19805W        W84790   2.902  12.062  13.988
19806W        W84791   1.410   2.411  14.302
19807W        W84792  39.343  29.002  13.109
19808W        W84793  38.792  22.167  12.497
19809W        W84794  44.285  35.862   2.342
19810W        W84795  38.588   9.504   0.308
19811W        W84796  21.670  10.518   2.381
19812W        W84797  30.883  41.366   1.328
19813W        W84798  30.898  16.417  12.089
19814W        W84799  35.429  40.386  13.919
19815W        W84800  16.823  42.859   3.064
19816W        W84801  14.840   1.557  14.896
19817W        W84802  37.636   5.366  14.773
19818W        W84803  41.241   9.923  14.414
19819W        W84804  37.498  12.608  14.818
19820W        W84805  25.284  19.309   3.576
19821W        W84806  30.625  10.576   4.637
19822W        W84807  42.025  33.883   4.527
19823W        W84808   7.789   8.893  10.495
19824W        W84809  37.975   7.144  10.223
19825W        W84810  41.937  17.539  12.349
19826W        W84811   2.859  12.918   1.875
19827W        W84812  30.066   2.774  13.724
19828W        W84813  27.211  20.753  10.673
19829W        W84814  11.016   3.436   2.942
19830W        W84815  29.405  33.476   2.357
19831W        W84816   0.160   3.765   4.511
19832W        W84817  36.025  40.082   1.822
19833W        W84818  30.240  39.546  14.285
19834W        W84819  37.611  43.922   3.155
19835W        W84820  18.677  42.139   2.401
19836W        W84821  16.702   4.963  14.367
19837W        W84822  28.134  42.889   0.723
19838W        W84823  22.672  14.317   4.600
19839W        W84824  22.628  31.957  10.104
19840W        W84825   2.773  33.619   1.758
19841W        W84826  23.904  21.793   1.375
19842W        W84827  22.516  41.060  12.146
19843W        W84828  19.887  37.604  12.564
19844W        W84829   0.401  34.586  12.432
19845W        W84830  39.919  19.796   2.605
19846W        W84831  43.800  42.238  14.527
19847W        W84832  18.118  27.212  13.947
19848W        W84833  11.616  17.704   1.349
19849W        W84834  31.582   0.834   0.331
19850W        W84835  10.315   6.790  12.877
19851W        W84836  11.817  20.838   3.645
19852W        W84837  21.053   2.853   1.650
19853W        W84838  13.841  33.522   4.227
19854W        W84839   1.252  38.407   4.975
19855W        W84840  12.765  11.306   3.258
19856W        W84841  17.327  39.333   3.217
19857W        W84842  34.657  14.297   0.909
19858W        W84843  21.618  22.301  13.830
19859W        W84844  33.643  10.576  11.636
19860W        W84845  22.311  13.720   3.241
19861W        W84846  20.759  41.920  11.540
19862W        W84847  38.472  26.955   1.190
19863W        W84848  14.650  19.497  14.463
19864W        W84849  39.608  14.366   0.270
19865W        W84850   8.923  10.796  11.978
19866W        W84851  34.589   9.921   1.466
19867W        W84852  15.793  17.237  10.732
19868W        W84853  15.729   8.283   1.712
19869W        W84854  42.265  22.589   1.685
19870W        W84855  34.822  19.436   0.432
19871W        W84856  43.356  44.215  10.016
19872W        W84857  37.319  21.965  12.434
19873W        W84858  28.578  38.802  14.863
19874W        W84859  29.768  16.148   2.267
19875W        W84860  35.505  18.508  11.147
19876W        W84861   0.800  44.935   0.479
19877W        W84862  18.868  11.647  12.051
19878W        W84863  19.907  38.461   1.464
19879W        W84864  36.843  32.916   2.769
19880W        W84865   1.917  13.544  13.896
19881W        W84866  14.655  10.256  13.988
19882W        W84867  11.546   2.297  11.226
19883W        W84868  34.216  28.959   0.502
19884W        W84869  10.416  22.035  10.556
19885W        W84870  19.261  38.743  10.939
19886W        W84871  22.049  22.429  13.560
19887W        W84872  15.998  29.565   3.177
19888W        W84873  24.120  36.330   3.597
19889W        W84874  11.364  42.318   1.657
19890W        W84875   8.609  19.647   1.763
19891W        W84876  21.703  26.045  12.976
19892W        W84877  31.102   7.907   0.818
19893W        W84878  14.294   9.913  10.612
19894W        W84879  26.649  28.229   1.896
19895W        W84880  35.437  25.198   0.788
19896W        W84881  17.544  32.970   4.155
19897W        W84882   5.924  16.756  12.154
19898W        W84883  15.299  19.297  11.951
19899W        W84884  30.456   1.331   5.135
19900W        W84885  20.347  20.707   2.183
19901W        W84886   3.924  33.919  11.100
19902W        W84887  18.618  44.414  14.140
19903W        W84888  15.791  14.339  11.601
19904W        W84889   6.433  18.541  12.925
19905W        W84890  38.605  16.286   1.006
19906W        W84891  35.457  33.511   4.488
19907W        W84892  26.129   0.918  12.507
19908W        W84893  20.603  26.642   1.688
19909W        W84894  43.317   1.587   4.618
19910W        W84895  43.922  19.827   0.796
19911W        W84896  23.217   3.835   4.108
19912W        W84897  29.446  12.846  12.870
19913W        W84898  31.596   6.684  14.808
19914W        W84899  23.098  32.847  14.717
19915W        W84900  13.143  40.771   2.659
19916W        W84901  37.685  39.285   4.474
19917W        W84902  31.693  44.425   5.101
19918W        W84903  15.849  11.807   1.334
19919W        W84904  32.383  39.309  14.420
19920W        W84905  37.932  35.079  11.055
19921W        W84906  16.526  33.829   3.219
19922W        W84907  23.650   1.993  11.592
19923W        W84908   5.304   9.334   2.353
19924W        W84909  42.464  25.557   0.434
19925W        W84910  10.362  38.379  13.080
19926W        W84911  18.343  13.335  10.984
19927W        W84912   8.811  37.995   0.663
19928W        W84913   3.867   5.154   4.990
19929W        W84914  24.812  11.680  13.153
19930W        W84915  38.407   6.179  14.031
19931W        W84916   4.449  26.284  10.772
19932W        W84917  40.754  24.027   2.352
19933W        W84918  36.501  17.283  12.741
19934W        W84919  34.194  36.296   2.645
19935W        W84920  28.232  19.031  12.050
19936W        W84921  44.104  23.306   0.730
19937W        W84922  17.502  27.703   3.626
19938W        W84923  36.471   3.829  11.124
19939W        W84924   7.398  44.358   3.586
19940W        W84925  13.318   3.540  11.630
19941W        W84926  28.475  17.226  11.557
19942W        W84927  21.025  30.519  14.474
19943W        W84928  15.543  35.550  13.788
19944W        W84929  25.355  39.417  10.909
19945W        W84930   3.341  19.677   1.817
19946W        W84931  35.615  39.897   4.494
19947W        W84932   0.478  14.105  13.392
19948W        W84933  44.850  44.110  11.558
19949W        W84934  35.861  40.290  11.036
19950W        W84935  30.139  34.187   2.561
19951W        W84936  35.056  15.598   0.978
19952W        W84937  23.999   2.836  14.406
19953W        W84938  30.925   1.730  13.951
19954W        W84939  27.590   4.032  10.107
19955W        W84940   0.693  18.031  11.068
19956W        W84941   7.585  31.539   3.585
19957W        W84942   9.228  15.570  14.986
19958W        W84943  30.702  27.425   0.566
19959W        W84944  33.712  36.116  14.451
19960W        W84945  16.991  24.628   5.555
19961W        W84946  27.418  29.496   4.099
19962W        W84947  15.118   3.341   2.453
19963W        W84948  16.237  35.786   2.810
19964W        W84949   5.229   9.136  13.508
19965W        W84950  44.717  35.487   1.473
19966W        W84951  19.384  33.600  13.068
19967W        W84952  31.581  36.437  11.632
19968W        W84953  37.396  38.327   2.427
19969W        W84954  40.852  42.331   1.162
19970W        W84955  12.985  26.809  14.859
19971W        W84956  42.785  20.674   4.199
19972W        W84957  19.167  23.134   4.173
19973W        W84958   7.026  35.026   4.576
19974W        W84959  39.860  30.160   3.337
19975W        W84960  18.537  11.222  10.701
19976W        W84961  37.505  23.668  13.430
19977W        W84962   8.300   1.938   3.097
19978W        W84963  24.010  23.082  14.756
19979W        W84964   7.767  42.527  11.385
19980W        W84965   3.513  25.284   4.105
19981W        W84966  35.624   9.624  12.325
19982W        W84967  35.479  19.106   1.631
19983W        W84968  23.108  17.647   3.067
19984W        W84969   6.295  18.651  11.463
19985W        W84970  18.042  30.139   3.309
19986W        W84971  42.454  27.933   1.664
19987W        W84972  19.218   3.264  12.740
19988W        W84973  24.715  37.261   2.835
19989W        W84974  43.692   4.006  12.048
19990W        W84975  32.360  14.692   2.497
19991W        W84976  18.282  21.457  14.046
19992W        W84977  20.710   5.398   4.772
19993W        W84978  13.302  27.639   2.616
19994W        W84979  25.803  32.623   2.197
19995W        W84980  38.332  41.011   0.669
19996W        W84981  43.175  19.058  14.266
19997W        W84982  42.665  18.682   3.260
19998W        W84983  28.982   2.937   1.375
19999W        W84984  14.050  25.596   3.004
20000W        W84985   4.133   3.857  14.291
20001W        W84986  43.361  42.326   1.463
20002W        W84987  10.681  13.054   2.636
20003W        W84988  36.062  17.838  14.130
20004W        W84989  16.030  29.761   0.956
20005W        W84990   6.959  37.486   0.325
20006W        W84991  38.600  31.535  11.457
20007W        W84992  38.914   7.381   3.328
20008W        W84993  30.373  36.914   2.013
20009W        W84994  33.629  31.651   2.814
20010W        W84995  16.502  37.423  13.416
20011W        W84996  37.557  41.447   0.690
20012W        W84997  43.931  32.135  10.914
20013W        W84998  19.808  14.126   1.860
20014W        W84999  44.868  28.087   4.489
20015W        W85000  31.195  17.726  10.774
20016W        W85001  30.399  22.089   4.674
20017W        W85002  24.242  41.545   4.634
20018W        W85003  41.810   0.476   0.268
20019W        W85004  15.634  35.397   0.307
20020W        W85005   8.998  30.615  11.114
20021W        W85006  38.758   2.704  12.088
20022W        W85007  13.053   6.642  14.044
20023W        W85008   7.668  10.831  12.956
20024W        W85009  18.077   3.337   0.717
20025W        W85010  15.354   9.208   0.761
20026W        W85011  31.909  13.693   3.997
20027W        W85012  15.046  18.264  14.379
20028W        W85013  15.577  28.739  13.590
20029W        W85014  14.015  22.876   4.228
20030W        W85015  41.223   9.788   2.117
20031W        W85016  33.817   1.720  13.559
20032W        W85017   8.698  10.155  10.640
20033W        W85018  19.641   5.665   1.805
20034W        W85019  25.974  29.829   9.793
20035W        W85020  13.334  37.252   5.012
20036W        W85021   8.189  36.501  11.108
20037W        W85022  18.294   7.990   2.734
20038W        W85023  33.891  39.634   1.456
20039W        W85024  14.524  27.704  12.567
20040W        W85025   4.828   5.384   4.972
20041W        W85026  24.025  33.610  12.639
20042W        W85027  31.561  38.675   4.975
20043W        W85028   8.751  34.587  11.939
20044W        W85029  19.570   3.654  12.489
20045W        W85030  35.851   2.201  11.127
20046W        W85031  21.215  34.161   0.225
20047W        W85032  12.283   2.111  11.563
20048W        W85033  25.199  23.849  10.332
20049W        W85034   7.774   1.695  11.004
20050W        W85035   2.721  15.328   0.370
20051W        W85036  42.746  25.932  14.160
20052W        W85037  32.614  15.644   2.141
20053W        W85038  27.487  31.150   0.034
20054W        W85039  20.787  16.490   2.706
20055W        W85040   9.905  29.763   1.362
20056W        W85041  22.067  14.039  12.370
20057W        W85042  33.098  24.054   3.210
20058W        W85043  37.722  15.698   0.234
20059W        W85044  15.484  25.014   5.194
20060W        W85045  23.078  29.929   2.514
20061W        W85046  10.875   4.651   3.115
20062W        W85047  14.586  24.158  10.461
20063W        W85048  16.176   6.457   0.930
20064W        W85049  32.204  26.131   3.279
20065W        W85050  17.323  32.486   4.142
20066W        W85051  14.762  25.889   3.258
20067W        W85052   1.868  12.229  13.300
20068W        W85053  14.776  24.455  13.674
20069W        W85054  36.153  37.945  13.893
20070W        W85055  21.005  23.853  10.306
20071W        W85056  27.598  10.106  12.912
20072W        W85057   1.455  20.670   5.069
20073W        W85058  30.259  11.302  12.318
20074W        W85059   3.210  20.851   1.712
20075W        W85060  19.416  43.120   0.764
20076W        W85061  10.365  17.123  12.965
20077W        W85062  43.436  37.155   0.796
20078W        W85063  27.897  19.522  13.866
20079W        W85064  23.023  11.903   0.265
20080W        W85065  14.940  14.869   2.297
20081W        W85066  42.268  41.765  14.905
20082W        W85067   2.456   1.964   1.258
20083W        W85068  17.812  24.064   0.483
20084W        W85069  22.554  25.029   1.353
20085W        W85070  18.102   9.698  12.399
20086W        W85071   8.788  39.956  13.864
20087W        W85072   7.136  24.770   0.293
20088W        W85073  25.974  40.960   4.405
20089W        W85074   4.285  36.295   0.727
20090W        W85075  35.417  25.616  12.138
20091W        W85076   9.786   2.562  11.532
20092W        W85077  36.369  23.508  11.374
20093W        W85078  15.409   2.983   4.980
20094W        W85079  19.444  10.928  12.073
20095W        W85080  19.217  13.231   4.222
20096W        W85081   1.005  40.899  11.669
20097W        W85082  18.005  13.655  10.778
20098W        W85083  32.491  16.628   4.609
20099W        W85084  20.774  26.135   3.696
20100W        W85085   3.781  33.991   4.047
20101W        W85086  31.106   5.203   1.356
20102W        W85087   3.503  29.634   3.312
20103W        W85088   2.414   5.800   3.163
20104W        W85089  17.716  35.886  12.894
20105W        W85090  36.356   3.603  14.336
20106W        W85091  13.772  25.572  10.762
20107W        W85092  12.669  20.165   0.705
20108W        W85093  36.870  36.118   0.100
20109W        W85094  17.315  18.005   3.258
20110W        W85095   6.930  41.728  14.593
20111W        W85096   0.667  30.471   1.707
20112W        W85097  14.237   8.296   4.318
20113W        W85098  27.809  21.109  10.351
20114W        W85099  29.026   7.715  13.948
20115W        W85100  35.411  25.905  14.480
20116W        W85101  18.447  31.126   4.588
20117W        W85102  14.350  13.281  12.942
20118W        W85103  22.873  16.410  12.017
20119W        W85104   0.001  11.016  11.193
20120W        W85105  19.294  21.538   3.072
20121W        W85106  14.068  19.165   3.119
20122W        W85107  20.716  12.142  11.984
20123W        W85108  26.665   6.639   1.529
20124W        W85109  34.774  26.151   3.191
20125W        W85110   1.452  20.678  11.574
20126W        W85111  16.196  10.296  11.234
20127W        W85112   3.990  37.271   0.545
20128W        W85113  16.082  10.339   1.863
20129W        W85114  30.401  42.730  12.118
20130W        W85115  40.889  41.821  12.901
20131W        W85116  38.815  12.959  14.801
20132W        W85117  30.479   3.809   1.888
20133W        W85118  34.604  32.921   2.248
20134W        W85119  38.607  18.108  13.479
20135W        W85120  40.813   1.845   3.503
20136W        W85121  43.300  37.635  13.530
20137W        W85122  30.545  33.414   0.481
20138W        W85123  40.057  22.400  12.005
20139W        W85124  42.083  21.617  14.343
20140W        W85125  34.366   1.956  11.952
20141W        W85126   1.802  18.193   2.829
20142W        W85127  32.678  24.799  13.441
20143W        W85128   7.961  13.420  11.199
20144W        W85129  13.260   2.794   4.527
20145W        W85130   2.492  11.966   0.005
20146W        W85131  11.132  16.930  13.034
20147W        W85132  42.095   4.125  11.122
20148W        W85133  17.125  23.548   4.629
20149W        W85134  37.027  27.067  10.390
20150W        W85135  44.877  39.811  12.932
20151W        W85136  24.808   7.730   3.784
20152W        W85137  18.716  20.748  14.401
20153W        W85138  19.826  11.418   4.147
20154W        W85139  10.532  28.634   4.723
20155W        W85140  14.117  30.961   2.348
20156W        W85141  17.908  24.207  11.570
20157W        W85142  33.176  28.035  11.806
20158W        W85143   6.455  33.487  11.837
20159W        W85144  29.412  40.571   0.234
20160W        W85145  27.919   3.512  12.855
20161W        W85146  11.263  23.655  10.962
20162W        W85147  37.282   6.378  13.440
20163W        W85148   3.325   2.804   0.745
20164W        W85149   8.656   6.872   1.633
20165W        W85150   6.923  23.722   4.493
20166W        W85151  21.253  37.766   5.038
20167W        W85152   4.860   4.260  14.385
20168W        W85153  31.532  40.330   2.317
20169W        W85154   3.903  13.058   4.183
20170W        W85155  44.944  21.680   2.066
20171W        W85156  36.355  41.349   4.123
20172W        W85157  32.611  15.583  14.226
20173W        W85158   9.458   0.229  12.043
20174W        W85159  32.118  41.993   4.057
20175W        W85160  40.713  28.959  13.565
20176W        W85161   5.099  36.124   5.087
20177W        W85162  38.913   1.809  10.100
20178W        W85163  11.288  29.677   0.997
20179W        W85164   2.379  42.014  14.123
20180W        W85165  30.789  16.186   0.478
20181W        W85166   0.836  42.854  12.990
20182W        W85167  15.295  41.436  11.571
20183W        W85168  43.148  36.831  13.755
20184W        W85169   3.868  14.588  13.857
20185W        W85170  22.407  13.500  11.731
20186W        W85171  43.509  15.665  14.700
20187W        W85172  41.932  24.231   2.773
20188W        W85173   1.152  28.013   3.658
20189W        W85174  12.272   4.889   1.480
20190W        W85175   1.891  34.904  12.002
20191W        W85176   8.541  31.584  14.901
20192W        W85177  33.506  39.324   2.358
20193W        W85178   3.903  13.326   4.627
20194W        W85179  13.489   1.422  11.046
20195W        W85180  34.670  30.207  11.153
20196W        W85181  11.191  38.837   4.174
20197W        W85182  28.210  15.848  14.405
20198W        W85183  23.842  27.042  12.851
20199W        W85184  14.624   7.384  12.433
20200W        W85185  29.925   3.684   9.989
20201W        W85186  40.055  40.790  13.061
20202W        W85187  34.983  42.568  12.055
20203W        W85188  36.285   2.548  12.645
20204W        W85189  19.724  22.509  13.003
20205W        W85190  44.375  32.634   0.797
20206W        W85191   6.067  27.245   0.260
20207W        W85192  20.512  14.961   2.731
20208W        W85193  33.030  33.151  14.466
20209W        W85194  39.364  30.734  14.248
20210W        W85195   0.051  44.004  11.071
20211W        W85196   8.281  19.721  10.526
20212W        W85197  15.426  32.835   1.585
20213W        W85198  40.441  42.626  14.864
20214W        W85199  39.569  20.571  12.798
20215W        W85200  24.985   0.995  12.116
20216W        W85201  41.404  11.718  12.567
20217W        W85202  22.537  40.697  14.381
20218W        W85203   2.988   2.506  12.580
20219W        W85204   9.010   4.947  13.367
20220W        W85205  21.604  20.757  13.599
20221W        W85206  44.248  32.215  11.864
20222W        W85207  23.008  38.851  14.765
20223W        W85208  19.356   7.674   4.551
20224W        W85209  27.788  39.748  12.446
20225W        W85210  33.014  43.953   0.801
20226W        W85211  31.520  33.144   0.369
20227W        W85212  11.677  34.592  14.820
20228W        W85213  23.157  36.414  12.454
20229W        W85214  39.736  31.295  12.842
20230W        W85215  18.471   8.003  12.499
20231W        W85216  37.877  42.477   2.468
20232W        W85217  36.390  34.971  13.159
20233W        W85218  10.169  32.755  10.282
20234W        W85219  30.614  21.224   3.114
20235W        W85220  16.807  28.415  13.971
20236W        W85221   4.026  10.703   0.984
20237W        W85222  25.728   9.427   4.061
20238W        W85223   7.372  27.085   3.607
20239W        W85224  32.913  24.294   3.966
20240W        W85225  37.473  43.787  13.361
20241W        W85226  22.689  10.239  14.337
20242W        W85227  12.325  25.794   1.741
20243W        W85228  37.178  32.609  12.037
20244W        W85229  41.486  37.623  12.174
20245W        W85230  29.645   4.320   0.269
20246W        W85231   9.257  13.954  11.089
20247W        W85232  38.366  34.968  11.844
20248W        W85233   8.961  30.595  13.573
20249W        W85234   7.698  36.834   0.275
20250W        W85235   8.150  34.406  11.185
20251W        W85236  27.447  27.621   3.428
20252W        W85237  35.214  39.599   2.872
20253W        W85238  32.353  35.791  11.600
20254W        W85239  43.813   1.411  13.424
20255W        W85240  15.846  41.386   2.744
20256W        W85241  31.663   5.776  10.848
20257W        W85242  23.681  11.134  11.512
20258W        W85243  43.206   8.467  11.642
20259W        W85244  23.072  16.986  13.718
20260W        W85245   5.777  41.426  12.796
20261W        W85246  15.571  43.232   2.015
20262W        W85247  22.230  29.873  11.543
20263W        W85248   5.321   5.991   3.003
20264W        W85249   0.937  29.038   0.394
20265W        W85250  35.122   6.718  14.065
20266W        W85251   6.180  36.143  11.270
20267W        W85252   6.740  11.673  13.814
20268W        W85253  22.065   4.624  11.178
20269W        W85254  27.412  12.013  13.639
20270W        W85255  36.492  23.055  12.557
20271W        W85256   1.999  29.629   1.901
20272W        W85257  19.919  12.461   3.332
20273W        W85258  12.437  25.970  12.418
20274W        W85259  32.837  27.752   3.235
20275W        W85260  24.092   8.918  13.094
20276W        W85261  29.768  29.759  13.881
20277W        W85262  17.141  28.604  13.570
20278W        W85263  44.089  19.042  14.270
20279W        W85264  35.828  13.124  10.608
20280W        W85265  22.236   9.837  12.206
20281W        W85266  33.109  26.489   4.636
20282W        W85267  37.828   9.375   1.243
20283W        W85268  16.494  11.796   2.180
20284W        W85269  10.881   1.522   0.509
20285W        W85270  11.947  26.376   3.244
20286W        W85271  40.128  11.329  14.868
20287W        W85272  18.076  36.045   3.811
20288W        W85273  42.932  21.314   2.835
20289W        W85274  29.674   3.330   3.671
20290W        W85275  10.391  43.821  13.802
20291W        W85276  39.027   8.312   4.906
20292W        W85277  17.223  15.245  13.401
20293W        W85278  21.286   1.207  11.513
20294W        W85279  35.100  29.400  13.894
20295W        W85280  43.141  30.489  10.215
20296W        W85281  29.915  27.498   1.165
20297W        W85282   1.212  38.976  14.492
20298W        W85283  24.233  20.828   2.331
20299W        W85284  15.402  27.678  13.600
20300W        W85285  12.544  28.341   4.556
20301W        W85286  24.101  37.059  14.388
20302W        W85287   7.590  40.345   4.096
20303W        W85288  11.285  22.752  14.802
20304W        W85289  27.147  19.658  11.468
20305W        W85290  34.400   9.963  14.235
20306W        W85291  27.544  17.271   3.516
20307W        W85292   8.431   2.209  11.522
20308W        W85293   3.040  31.653   1.411
20309W        W85294  43.518  20.019  14.409
20310W        W85295   1.724  39.580  12.013
20311W        W85296   8.650  32.324  11.501
20312W        W85297  32.796  19.321  12.033
20313W        W85298  39.218  17.628   4.889
20314W        W85299  28.953  39.167   1.525
20315W        W85300  28.487   8.104  11.690
20316W        W85301   2.336  43.698  12.477
20317W        W85302  10.571   1.645  13.355
20318W        W85303  40.455  23.246  12.579
20319W        W85304  25.423  34.408  11.862
20320W        W85305   0.668  40.984  12.093
20321W        W85306  27.164  14.800  10.618
20322W        W85307  27.580   8.772  13.350
20323W        W85308   9.159   0.486   3.646
20324W        W85309   4.211   2.390  11.478
20325W        W85310   0.314   6.813  14.106
20326W        W85311  17.726  10.368   1.434
20327W        W85312  30.181   5.258   3.336
20328W        W85313  24.158   0.816  11.083
20329W        W85314   7.214   5.901  13.914
20330W        W85315  38.786  38.752   1.917
20331W        W85316  10.134   1.448   2.779
20332W        W85317  25.904  33.630   2.753
20333W        W85318  38.255  11.851   1.202
20334W        W85319  38.907   1.914   2.636
20335W        W85320  30.955  33.129   4.399
20336W        W85321  43.431  37.097  10.722
20337W        W85322   4.485  21.108  12.530
20338W        W85323  33.249  37.371  10.783
20339W        W85324  21.670  24.010   1.256
20340W        W85325   2.077   6.834   2.275
20341W        W85326  14.083   0.373  11.921
20342W        W85327   8.394  20.342  11.970
20343W        W85328   0.321  44.731   4.623
20344W        W85329  27.124  26.057   2.430
20345W        W85330   8.403   6.473   3.142
20346W        W85331   1.482  34.558  14.000
20347W        W85332  32.877  40.843  13.485
20348W        W85333  34.946  26.654   3.870
20349W        W85334  34.337  40.931   0.274
20350W        W85335  35.844  33.387  11.007
20351W        W85336  39.164  43.262  13.640
20352W        W85337  23.068  12.612   4.850
20353W        W85338   4.867   2.392  13.466
20354W        W85339   8.330  42.120   2.841
20355W        W85340  30.967  35.551   4.731
20356W        W85341  24.793  39.303  11.061
20357W        W85342  20.035  34.998   1.239
20358W        W85343  22.969  21.189  14.387
20359W        W85344  12.082  28.467   4.717
20360W        W85345   7.234  32.515  10.459
20361W        W85346  30.668  32.053  13.506
20362W        W85347  39.713  42.435  14.958
20363W        W85348  38.450  10.233   1.022
20364W        W85349   2.418  35.567  12.331
20365W        W85350  40.780  10.263  12.457
20366W        W85351  43.048  29.714  11.527
20367W        W85352  14.199  38.364   2.445
20368W        W85353  38.150   4.728  13.540
20369W        W85354   3.275  36.321  13.072
20370W        W85355   8.565  43.362   2.712
20371W        W85356   5.789  41.897  13.563
20372W        W85357   0.081  41.442  14.515
20373W        W85358   6.653  31.564   0.553
20374W        W85359  11.503  15.312  12.588
20375W        W85360  31.368  44.014  14.920
20376W        W85361  11.607  14.293  10.824
20377W        W85362  11.673  15.335   0.941
20378W        W85363  39.065   7.737  13.371
20379W        W85364  19.525   0.308   0.772
20380W        W85365   6.668   1.449   4.285
20381W        W85366  32.128  17.676   0.858
20382W        W85367  10.154  27.504   1.270
20383W        W85368   0.759  33.452  14.349
20384W        W85369   5.437  34.613  12.786
20385W        W85370  18.560  33.533  14.295
20386W        W85371  27.180  15.641   1.205
20387W        W85372  25.099  22.650   1.515
20388W        W85373  42.091  36.117  14.046
20389W        W85374  35.154  34.783  11.352
20390W        W85375  16.639  33.560  13.464
20391W        W85376   6.216   9.825   4.573
20392W        W85377  41.796  23.693  12.615
20393W        W85378   4.129  27.719  14.896
20394W        W85379  36.109   0.843   0.325
20395W        W85380  10.056  22.202  10.200
20396W        W85381   3.526  24.624  12.417
20397W        W85382  34.546  32.441  14.861
20398W        W85383  38.373   2.069   1.397
20399W        W85384  30.995   8.870   1.737
20400W        W85385  34.896  20.220  14.063
20401W        W85386  14.259  21.746   0.805
20402W        W85387  19.732  42.441  14.565
20403W        W85388  15.391  42.606   3.088
20404W        W85389  43.067  42.508  13.164
20405W        W85390  19.337  44.232  11.006
20406W        W85391  25.231   6.318   2.460
20407W        W85392  41.816  37.620  14.914
20408W        W85393  21.642   1.470   1.980
20409W        W85394  13.673   4.430   1.902
20410W        W85395  27.173  31.531  11.170
20411W        W85396  22.690  36.639   3.417
20412W        W85397  31.614  26.690  11.850
20413W        W85398  11.817  25.114   4.539
20414W        W85399  19.562  29.158   1.261
20415W        W85400  30.136   4.068  10.282
20416W        W85401  43.500  26.033  12.939
20417W        W85402  26.014   4.862   3.156
20418W        W85403  44.377  19.123  13.380
20419W        W85404  19.082   1.958  14.870
20420W        W85405  28.092  27.163  11.358
20421W        W85406   9.162  38.860  11.943
20422W        W85407  22.048   8.984   4.943
20423W        W85408  16.763  29.808   1.760
20424W        W85409  21.736   0.017   4.138
20425W        W85410  25.315  28.235  12.462
20426W        W85411  32.191  27.167  11.156
20427W        W85412  12.792   4.700  11.970
20428W        W85413  39.589  16.799   3.694
20429W        W85414  21.641  10.980   3.266
20430W        W85415  29.819   4.145  13.644
20431W        W85416  19.466  43.808  14.582
20432W        W85417   1.962   4.451   3.688
20433W        W85418  27.773  18.808  12.032
20434W        W85419  16.067  22.804   0.838
20435W        W85420  29.080  40.635   1.103
20436W        W85421  41.997   7.836  12.337
20437W        W85422  43.322  17.938  12.888
20438W        W85423  42.797  20.560   1.342
20439W        W85424  12.557  43.231   5.039
20440W        W85425  24.115  24.022   2.205
20441W        W85426  42.549  30.660  14.132
20442W        W85427   9.240  21.246   4.561
20443W        W85428  42.221   3.859  14.788
20444W        W85429  25.155   5.461  11.013
20445W        W85430  43.218   7.183  14.471
20446W        W85431  25.201   9.893   3.656
20447W        W85432  27.934  32.877   1.372
20448W        W85433  38.854  37.335  13.510
20449W        W85434  33.105   5.879  10.256
20450W        W85435  38.385  14.565   4.243
20451W        W85436   7.155  38.058  11.485
20452W        W85437  27.069   2.277  11.004
20453W        W85438  33.630  23.557   0.464
20454W        W85439   6.682  22.603  14.949
20455W        W85440  33.892   0.363  10.617
20456W        W85441  38.314  26.186   0.804
20457W        W85442  25.252  41.015  12.892
20458W        W85443  37.983  30.474   3.144
20459W        W85444  26.196   5.926  14.957
20460W        W85445  43.713   7.087   0.352
20461W        W85446   2.677  19.100   0.406
20462W        W85447  38.630   3.341   1.446
20463W        W85448  27.646  38.389  13.583
20464W        W85449  39.765  44.253  14.857
20465W        W85450  23.850  36.729   2.824
20466W        W85451  41.251  20.465  10.029
20467W        W85452  16.167  30.508  10.150
20468W        W85453  29.068  40.920  14.983
20469W        W85454  18.192  22.936  10.619
20470W        W85455  14.260   4.344  14.009
20471W        W85456  20.248  42.547  14.425
20472W        W85457  35.287  12.742  11.041
20473W        W85458  43.201  14.603  13.009
20474W        W85459  41.340   0.697  11.721
20475W        W85460   3.146   4.215   0.813
20476W        W85461  32.915  33.861  13.021
20477W        W85462  30.022  17.555  13.940
20478W        W85463   9.260  16.071  11.169
20479W        W85464  30.559  14.068   0.703
20480W        W85465   5.167  36.505  14.099
20481W        W85466  12.682   6.817   4.013
20482W        W85467   6.530  15.201  11.874
20483W        W85468  31.496  32.493   4.834
20484W        W85469  35.515   9.879   5.132
20485W        W85470  33.356  12.088   2.551
20486W        W85471  42.317   1.580   3.378
20487W        W85472  18.816  17.622  11.059
20488W        W85473  15.289   9.907  13.296
20489W        W85474   4.816  40.129   1.376
20490W        W85475  25.572  24.430  11.653
20491W        W85476  24.074  39.143  11.197
20492W        W85477  19.611   9.562  13.370
20493W        W85478   2.911  42.810   0.687
20494W        W85479  16.600  17.572   1.631
20495W        W85480  27.185  40.982  10.683
20496W        W85481  37.273  41.492  13.405
20497W        W85482  33.913  27.071   4.659
20498W        W85483  15.851  29.703  11.111
20499W        W85484  32.249  20.201   5.173
20500W        W85485  39.750   4.584  14.873
20501W        W85486  22.350  22.951  14.250
20502W        W85487  41.474  31.721   3.615
20503W        W85488   3.697   4.743   3.693
20504W        W85489   8.373  10.823  13.708
20505W        W85490  41.270   4.763   4.172
20506W        W85491  44.482  17.327  10.419
20507W        W85492  14.004  22.961  12.829
20508W        W85493  20.301  41.917   3.116
20509W        W85494  30.519  40.932   2.791
20510W        W85495  24.355  29.994   1.445
20511W        W85496   4.806   8.296  13.487
20512W        W85497   4.740  31.431  11.450
20513W        W85498  13.219  34.163  13.587
20514W        W85499   3.796  38.449  10.810
20515W        W85500   8.785   0.693  11.596
20516W        W85501  29.180  12.624  13.898
20517W        W85502  28.875   8.774   4.001
20518W        W85503   6.875  23.194  14.483
20519W        W85504  44.196   6.407  14.452
20520W        W85505  27.513  13.256  10.729
20521W        W85506  21.296  23.067   2.192
20522W        W85507   2.648   5.466   1.327
20523W        W85508  43.942   1.944   1.984
20524W        W85509  28.539  30.524   0.935
20525W        W85510  44.246  28.951   4.093
20526W        W85511   6.894  34.473   0.524
20527W        W85512  16.136  23.252  14.793
20528W        W85513  13.637   0.971   4.322
20529W        W85514  34.386  22.941  12.266
20530W        W85515  26.858   8.871   2.679
20531W        W85516  14.320   0.348  11.475
20532W        W85517  42.729  20.937   2.184
20533W        W85518  36.306  39.871   0.830
20534W        W85519  24.308  30.979  13.053
20535W        W85520   2.647  25.862   1.886
20536W        W85521  37.521  31.862   2.795
20537W        W85522  40.703  17.767   2.703
20538W        W85523  16.613  34.153   4.267
20539W        W85524  38.501  23.257   2.428
20540W        W85525   1.304  16.166   4.808
20541W        W85526   0.046  24.013   9.865
20542W        W85527   4.271  31.322  10.548
20543W        W85528   4.924   2.797   1.184
20544W        W85529   6.868  20.693   2.417
20545W        W85530  27.568   8.929   0.393
20546W        W85531   2.806  32.380  10.694
20547W        W85532  29.025  29.603  14.728
20548W        W85533  11.905  36.844   4.862
20549W        W85534  25.275  28.209  14.903
20550W        W85535  29.677  11.635  10.749
20551W        W85536  23.634   9.253  10.501
20552W        W85537  27.182  19.171   2.796
20553W        W85538   4.151  32.962  13.507
20554W        W85539  37.335  29.077  12.769
20555W        W85540   9.186  19.581  13.288
20556W        W85541  12.377  10.916   0.228
20557W        W85542  30.056  28.621  10.733
20558W        W85543  12.578  14.247   3.198
20559W        W85544   7.380  28.405  13.972
20560W        W85545   8.806  38.471  11.893
20561W        W85546  25.491   8.455  11.615
20562W        W85547  11.407  13.660   2.233
20563W        W85548   5.872  40.494  13.155
20564W        W85549  26.090  22.415  14.514
20565W        W85550  38.829  23.955   4.055
20566W        W85551  32.129  16.421  10.840
20567W        W85552   2.381  42.248  13.165
20568W        W85553  43.042   0.261  14.035
20569W        W85554  22.592  13.422  12.386
20570W        W85555   9.092  16.320   2.957
20571W        W85556  38.827  33.471   4.633
20572W        W85557  43.792  15.443  11.521
20573W        W85558  44.329  38.196   3.686
20574W        W85559  41.492  34.494  12.591
20575W        W85560  36.526  16.149  11.773
20576W        W85561   9.558  21.082  11.444
20577W        W85562  13.877   9.341  14.904
20578W        W85563  35.145  43.703  14.054
20579W        W85564   6.828  10.113  11.013
20580W        W85565  13.013  25.544   3.169
20581W        W85566  23.287  33.470   3.041
20582W        W85567  39.930   4.356  11.995
20583W        W85568  11.054  28.991   0.466
20584W        W85569  30.093  23.021   4.157
20585W        W85570   4.468  19.527   0.837
20586W        W85571   3.239   9.354  12.073
20587W        W85572  32.961  40.545   2.520
20588W        W85573  13.058  17.233   0.082
20589W        W85574  10.620  23.648   3.766
20590W        W85575  12.038  28.606  13.114
20591W        W85576  33.022  36.272  12.073
20592W        W85577   0.545  35.086  10.699
20593W        W85578   6.136  25.935   0.627
20594W        W85579  15.750  13.317  11.018
20595W        W85580  27.539  37.287   2.373
20596W        W85581  20.659  31.807  14.866
20597W        W85582  10.315  14.635  14.288
20598W        W85583   0.306  11.596   4.170
20599W        W85584  11.862  24.020  13.945
20600W        W85585  40.309  20.987  10.564
20601W        W85586  42.599  36.134  13.983
20602W        W85587  37.956  22.134  10.338
20603W        W85588  37.068   2.191   2.834
20604W        W85589  41.471  17.206   3.934
20605W        W85590  23.493  28.037   0.802
20606W        W85591  25.133   3.827  14.546
20607W        W85592  32.180  43.488   2.869
20608W        W85593   4.268  38.889   4.057
20609W        W85594   3.181  15.186   3.878
20610W        W85595   7.655  34.547  11.146
20611W        W85596  19.624  21.180   3.741
20612W        W85597   6.234  16.799  13.528
20613W        W85598  19.258  13.062  13.863
20614W        W85599  17.748  35.608   1.762
20615W        W85600  16.507  29.570  11.690
20616W        W85601  26.533  32.021  14.445
20617W        W85602  14.197  22.525   9.934
20618W        W85603  20.688  21.748   0.906
20619W        W85604  13.185  10.222  13.912
20620W        W85605  25.151  31.967   1.831
20621W        W85606  21.607  27.103   1.324
20622W        W85607  20.604  19.559  12.119
20623W        W85608  17.971  22.509   1.202
20624W        W85609  42.760  35.536  13.981
20625W        W85610  44.447  12.609   0.323
20626W        W85611  44.712  22.083   0.299
20627W        W85612  10.367  10.957   3.743
20628W        W85613   2.210   3.679   3.971
20629W        W85614  44.058  22.528  14.062
20630W        W85615  14.574  10.295  12.439
20631W        W85616  24.711   7.204   1.507
20632W        W85617  34.379  14.860  11.704
20633W        W85618  38.431  42.288   0.999
20634W        W85619  29.042   2.949   0.432
20635W        W85620  30.534   6.943  14.347
20636W        W85621  27.657  25.636  13.280
20637W        W85622   1.195  43.491  10.698
20638W        W85623  38.520  36.222  10.765
20639W        W85624  22.056  24.673   3.533
20640W        W85625  25.442  21.232   2.369
20641W        W85626   2.767  25.148   0.726
20642W        W85627  22.149  30.397   9.583
20643W        W85628  41.817  12.780   4.796
20644W        W85629  30.947  32.943   3.661
20645W        W85630   2.384  17.452  14.417
20646W        W85631  31.527  39.073  14.003
20647W        W85632  10.206  29.648  14.996
20648W        W85633  26.790  24.022  11.002
20649W        W85634  21.833  25.534  13.257
20650W        W85635  14.713  10.828   4.066
20651W        W85636  11.857  26.636  11.094
20652W        W85637   5.243  12.245   2.670
20653W        W85638  21.747  29.488  12.112
20654W        W85639  44.343  15.411   2.797
20655W        W85640  11.650  14.752   2.968
20656W        W85641  40.137   5.514   3.803
20657W        W85642  14.260   0.923  14.394
20658W        W85643  40.388   0.954  14.487
20659W        W85644   0.120  35.656  13.798
20660W        W85645  21.717  36.379  14.367
20661W        W85646  39.525  19.676   2.274
20662W        W85647   7.381  25.270  11.234
20663W        W85648  42.421  34.362   2.792
20664W        W85649   5.767  44.966  10.851
20665W        W85650  27.240   6.888   2.714
20666W        W85651  43.808  21.532  11.828
20667W        W85652  38.476  21.253  14.213
20668W        W85653  42.812  19.109   0.353
20669W        W85654  11.438  37.017   0.768
20670W        W85655  24.101  39.774  14.478
20671W        W85656  10.585  42.752  12.436
20672W        W85657  31.898  21.265   2.241
20673W        W85658   9.408   1.527   1.441
20674W        W85659  31.842  38.569  12.914
20675W        W85660  32.426  18.907  14.810
20676W        W85661  20.672  27.551  12.871
20677W        W85662  41.296   3.210  13.441
20678W        W85663   0.248  44.357  13.244
20679W        W85664  10.680  22.706   1.558
20680W        W85665  35.400  30.848  10.648
20681W        W85666  36.924  17.535   2.765
20682W        W85667   2.993  39.707  12.513
20683W        W85668  39.082  11.042   4.556
20684W        W85669  33.869   4.258  11.141
20685W        W85670  29.557  35.455   2.462
20686W        W85671  32.197  37.535  10.784
20687W        W85672  38.975  19.548  11.615
20688W        W85673  40.067  32.775  12.385
20689W        W85674  39.903  29.922   1.760
20690W        W85675  31.847  31.509   3.793
20691W        W85676  28.509  25.606  14.105
20692W        W85677   6.881  41.993  12.516
20693W        W85678   6.484  23.661   1.725
20694W        W85679  30.838  27.038  14.341
20695W        W85680  33.621  28.687  13.054
20696W        W85681   1.829  11.925   0.909
20697W        W85682  17.593  37.636   1.884
20698W        W85683   1.167  20.446  13.052
20699W        W85684  20.526  32.301   2.169
20700W        W85685   8.386   7.901  11.203
20701W        W85686  44.469   7.357  14.698
20702W        W85687  39.206   4.436  12.835
20703W        W85688  42.303   8.402  14.755
20704W        W85689  38.797  36.684   0.279
20705W        W85690  27.496  28.475  13.579
20706W        W85691  27.652  22.101  14.313
20707W        W85692  11.887  43.281   4.066
20708W        W85693   2.466  21.600   1.414
20709W        W85694  35.844  31.141   0.092
20710W        W85695   4.327  38.861  11.404
20711W        W85696   3.384  32.386   2.109
20712W        W85697  15.958  20.723   1.731
20713W        W85698   0.321  14.831   3.230
20714W        W85699  32.349   1.191  12.544
20715W        W85700  31.851  22.517  11.533
20716W        W85701  41.873  32.717   2.531
20717W        W85702   4.400  12.763   0.756
20718W        W85703  12.839  25.240   4.016
20719W        W85704  39.662  32.890   4.559
20720W        W85705  39.079   1.560   1.938
20721W        W85706  11.949  42.966   4.478
20722W        W85707  30.706  29.482   1.435
20723W        W85708  11.031  32.119  10.891
20724W        W85709   9.883   4.344   2.189
20725W        W85710  33.012  30.373   0.364
20726W        W85711  20.374  29.024   3.135
20727W        W85712  42.308  30.398   4.672
20728W        W85713   4.279  28.467   3.785
20729W        W85714  35.036  28.910   0.290
20730W        W85715   9.635  27.173   0.568
20731W        W85716  10.325  41.782  11.235
20732W        W85717   3.204  42.497  10.599
20733W        W85718  23.030  21.812   2.361
20734W        W85719  33.915  40.618   1.481
20735W        W85720  35.410   7.815  11.764
20736W        W85721  36.393  35.850   1.764
20737W        W85722   5.698   7.762   0.432
20738W        W85723   8.635  37.920   0.184
20739W        W85724  28.534  30.459   2.490
20740W        W85725   1.885  18.934   2.449
20741W        W85726  38.852  31.064  12.386
20742W        W85727  44.352  11.103  11.683
20743W        W85728   8.307  44.975  12.388
20744W        W85729  18.287  43.910   3.336
20745W        W85730  10.186  17.295   5.012
20746W        W85731   4.636  30.098  10.947
20747W        W85732  10.383  24.634   3.700
20748W        W85733  38.614   4.735   2.241
20749W        W85734   1.556  22.118   2.845
20750W        W85735  10.315   7.683  10.725
20751W        W85736  23.044  15.252  11.602
20752W        W85737  41.118  19.015   4.461
20753W        W85738  10.870  28.118   0.965
20754W        W85739  13.067  19.706   1.935
20755W        W85740  23.654  43.237   4.721
20756W        W85741   8.334  11.058   1.113
20757W        W85742  11.833   2.821   0.253
20758W        W85743  26.611   5.912  12.481
20759W        W85744   1.623  18.169  11.013
20760W        W85745  43.408  27.909  10.663
20761W        W85746  40.919   4.404   2.586
20762W        W85747  19.264  43.062  14.317
20763W        W85748  11.622  40.499   1.666
20764W        W85749  16.136   1.818  12.966
20765W        W85750  29.761  15.758  14.330
20766W        W85751  36.378   9.109  13.599
20767W        W85752   5.524  36.210   3.338
20768W        W85753  40.916  20.818  14.082
20769W        W85754   2.321  15.876   1.095
20770W        W85755  12.344  16.791  11.577
20771W        W85756  10.608  23.154   1.307
20772W        W85757  20.044  44.790   2.685
20773W        W85758  33.442  21.499   4.472
20774W        W85759  32.350  18.610  13.003
20775W        W85760   2.404  12.244  13.296
20776W        W85761  42.848  30.789   0.588
20777W        W85762  37.948   5.238   1.862
20778W        W85763  40.245  10.839   2.704
20779W        W85764   0.044  17.103   0.213
20780W        W85765   4.305  19.647  12.633
20781W        W85766  22.258  33.709   4.261
20782W        W85767  41.504   3.856   2.680
20783W        W85768  28.076  35.993  14.344
20784W        W85769   7.997  34.526   0.472
20785W        W85770  32.048  28.037  12.425
20786W        W85771  33.425  32.359   4.159
20787W        W85772  23.246  20.852  11.405
20788W        W85773  10.339  15.110   0.475
20789W        W85774  10.338  24.575  14.200
20790W        W85775  16.347   2.721  12.644
20791W        W85776  27.930   4.276   1.256
20792W        W85777  19.298   5.232   5.604
20793W        W85778   9.728  27.519  11.691
20794W        W85779  44.444  27.725   0.964
20795W        W85780  29.536  19.106  11.917
20796W        W85781   0.425  18.663  13.270
20797W        W85782  32.665  18.821   2.589
20798W        W85783  30.036  15.552  12.959
20799W        W85784  12.919  43.956   1.720
20800W        W85785  23.226  17.764   1.204
20801W        W85786  42.925  36.353  13.612
20802W        W85787   2.036  10.821   0.322
20803W        W85788  17.759  22.066  10.772
20804W        W85789  40.076  27.851   3.373
20805W        W85790  17.057  28.612  12.628
20806W        W85791  12.243  15.631   3.899
20807W        W85792  24.071   9.630  14.788
20808W        W85793  27.666  12.663  12.919
20809W        W85794   8.604  26.202  11.169
20810W        W85795  26.471   2.489  12.049
20811W        W85796  15.676  31.805   5.082
20812W        W85797  36.783  42.400  14.652
20813W        W85798  19.711  40.803   4.668
20814W        W85799   5.362  29.903   4.132
20815W        W85800  27.582   8.491  12.115
20816W        W85801   0.156  32.014  14.669
20817W        W85802  20.708  35.978  11.605
20818W        W85803  37.006   6.651  12.900
20819W        W85804   1.929  31.637  13.931
20820W        W85805  24.350  17.325   9.995
20821W        W85806  33.166   1.727   2.691
20822W        W85807   1.399  24.235  12.903
20823W        W85808  38.855  32.796   4.161
20824W        W85809  30.884   2.032  12.245
20825W        W85810   8.440  31.584  12.475
20826W        W85811   0.202  43.941   0.893
20827W        W85812  44.541  17.747  13.385
20828W        W85813  26.757  37.927  10.962
20829W        W85814  22.021  37.558  12.839
20830W        W85815  12.829   3.512   4.171
20831W        W85816  24.383  32.846  14.341
20832W        W85817  21.120  32.377  12.841
20833W        W85818  42.516   6.485   1.713
20834W        W85819  11.817  43.012  12.195
20835W        W85820  31.820  17.686   2.161
20836W        W85821  33.188  11.780   0.805
20837W        W85822  37.082  21.208  13.545
20838W        W85823  27.032  16.730   0.749
20839W        W85824  30.494  27.747   1.864
20840W        W85825   1.478  12.589   1.376
20841W        W85826  13.069   8.293   9.750
20842W        W85827  10.769   6.899  10.549
20843W        W85828  23.931  21.549  13.013
20844W        W85829  23.712  31.543  11.946
20845W        W85830  42.684  15.109  13.425
20846W        W85831  34.361   8.440  12.151
20847W        W85832  14.383  24.689   2.810
20848W        W85833  20.650  22.769   1.016
20849W        W85834  22.486  39.732  12.500
20850W        W85835  11.157  22.037   2.235
20851W        W85836  26.214  29.944   1.037
20852W        W85837  34.033  30.955  13.026
20853W        W85838   8.231  23.511   1.273
20854W        W85839  38.965   0.076   2.879
20855W        W85840  32.354  13.421   3.947
20856W        W85841  37.931  10.867   2.106
20857W        W85842   6.721  36.092   3.767
20858W        W85843  28.472  27.414   2.740
20859W        W85844  19.347  33.177   1.979
20860W        W85845  18.716   6.315   1.501
20861W        W85846  17.478  10.715  11.005
20862W        W85847  38.097   2.362  14.429
20863W        W85848  29.023  34.150   1.722
20864W        W85849  26.701  37.507   1.309
20865W        W85850  37.478  20.104  12.391
20866W        W85851  36.190   2.233   3.561
20867W        W85852   0.049   4.489  12.568
20868W        W85853   9.295  42.844  11.007
20869W        W85854  41.495  20.163  12.960
20870W        W85855  26.045  38.476  14.766
20871W        W85856   9.879   9.639  14.236
20872W        W85857   5.942   7.682   2.914
20873W        W85858  24.925  25.095   1.713
20874W        W85859   4.901  12.693   1.457
20875W        W85860  33.783  44.904  13.701
20876W        W85861  39.103  31.592  11.480
20877W        W85862   0.258  39.888  14.703
20878W        W85863  40.782  30.997  14.300
20879W        W85864  15.052  21.117   3.732
20880W        W85865  23.603  41.505  14.565
20881W        W85866  12.700   5.984  13.249
20882W        W85867  22.109  32.300   2.984
20883W        W85868  11.654  19.488  13.920
20884W        W85869  34.021  42.775   1.549
20885W        W85870  31.427  12.231   1.865
20886W        W85871  38.515  33.137  11.588
20887W        W85872   2.211  20.737   2.233
20888W        W85873  13.804  16.642   3.115
20889W        W85874  36.255  16.046   2.695
20890W        W85875  43.665  12.236   0.164
20891W        W85876  41.830  30.485   4.499
20892W        W85877  37.359  22.567   4.131
20893W        W85878  12.692  28.994   2.855
20894W        W85879  16.271   0.412  14.889
20895W        W85880  39.551  42.217   2.359
20896W        W85881   0.783  18.986  12.832
20897W        W85882  31.962  32.009   3.630
20898W        W85883  17.771  12.764  13.957
20899W        W85884  16.988  41.318   4.003
20900W        W85885  19.841  37.919  13.600
20901W        W85886  36.134  24.413  12.323
20902W        W85887  30.709  31.035  14.836
20903W        W85888  36.291   8.517   1.643
20904W        W85889  16.208  21.097   5.454
20905W        W85890  20.752  13.210  12.859
20906W        W85891  26.234   4.945  10.586
20907W        W85892  18.695  29.671  12.421
20908W        W85893  17.124  23.010   0.202
20909W        W85894  24.758  44.488   0.369
20910W        W85895   1.821  37.567   4.615
20911W        W85896  11.203  24.967  13.247
20912W        W85897   8.316  29.712   1.485
20913W        W85898   3.038  34.098   1.837
20914W        W85899  40.794  11.750   1.711
20915W        W85900  41.465   3.632  10.856
20916W        W85901  27.217  27.211   1.039
20917W        W85902  29.502  25.464   0.564
20918W        W85903  22.001  26.972   4.242
20919W        W85904  23.024  41.544  11.167
20920W        W85905  29.062  21.989  13.583
20921W        W85906  37.362  43.584  12.901
20922W        W85907  24.427  22.633   2.930
20923W        W85908  16.271  16.088  13.801
20924W        W85909  13.723  15.536  11.576
20925W        W85910   2.067  34.796  11.523
20926W        W85911   4.256   8.563  14.085
20927W        W85912  19.605   6.995   0.493
20928W        W85913  20.022  18.585  14.432
20929W        W85914  44.473  16.508  14.767
20930W        W85915   7.000  44.281   4.602
20931W        W85916   9.719  13.791   2.814
20932W        W85917  22.772   5.689   0.564
20933W        W85918   8.413  26.174   1.408
20934W        W85919  23.470  42.956  14.457
20935W        W85920  25.020  18.828  12.057
20936W        W85921  30.888  28.482   3.715
20937W        W85922  44.002  40.039   2.777
20938W        W85923  17.720  37.292   4.214
20939W        W85924  34.641   2.506   3.655
20940W        W85925  15.324  35.608  10.722
20941W        W85926  34.037   8.864   1.909
20942W        W85927  11.629  20.080   4.752
20943W        W85928  15.241  25.020   4.184
20944W        W85929   3.800  10.210  14.345
20945W        W85930   6.250  11.956  10.279
20946W        W85931  27.623  43.056   3.603
20947W        W85932  30.058   7.043  11.425
20948W        W85933  14.980  24.037  14.874
20949W        W85934  41.601  28.626  14.453
20950W        W85935   4.511  23.712   3.971
20951W        W85936  21.246  20.237  10.952
20952W        W85937   1.335  21.098  11.234
20953W        W85938  35.997  24.612  14.349
20954W        W85939  17.266  17.364   3.814
20955W        W85940  39.994  40.500   2.838
20956W        W85941  22.172  44.538   3.643
20957W        W85942   9.124  25.118  11.197
20958W        W85943   1.229  23.044  14.373
20959W        W85944  26.025  12.376   0.510
20960W        W85945   1.517  27.082  13.032
20961W        W85946  32.186  12.699  11.997
20962W        W85947  23.592  33.944  11.676
20963W        W85948  10.087  14.829  12.052
20964W        W85949  18.726  28.521  14.273
20965W        W85950  29.569  20.619   3.471
20966W        W85951  20.201  15.212  14.825
20967W        W85952  20.050   4.113  14.112
20968W        W85953   5.726  34.472   0.433
20969W        W85954   3.503  30.546   3.367
20970W        W85955  10.444  42.036   2.198
20971W        W85956  44.013  27.286  11.811
20972W        W85957   2.782  35.365  14.429
20973W        W85958  35.100  22.601   5.010
20974W        W85959  42.528  18.450  12.897
20975W        W85960   2.887  11.291   1.199
20976W        W85961  33.373  44.533  12.995
20977W        W85962  33.550  22.600   2.206
20978W        W85963   6.257  40.934  13.795
20979W        W85964  31.142  24.003  12.627
20980W        W85965  18.499  18.000  11.227
20981W        W85966  27.934  33.414   4.178
20982W        W85967  32.287  44.491  12.900
20983W        W85968  17.049  32.625  13.804
20984W        W85969  13.860  14.212  11.524
20985W        W85970   0.884   9.372  10.997
20986W        W85971  39.045  25.290  12.134
20987W        W85972  28.706   4.814   4.315
20988W        W85973  14.334   9.183  14.659
20989W        W85974  29.071  12.836   2.606
20990W        W85975  17.218  16.607  12.366
20991W        W85976  33.878  32.528  11.011
20992W        W85977  22.596  38.333  12.120
20993W        W85978  16.808  11.479  11.016
20994W        W85979  32.253  17.622  14.820
20995W        W85980  28.986  26.617   0.347
20996W        W85981  40.270  33.947   4.394
20997W        W85982  38.489  15.796   1.197
20998W        W85983  44.977  37.361   0.821
20999W        W85984  28.632  24.041   1.606
21000W        W85985   1.471  13.271  14.865
21001W        W85986  10.105  19.703   4.088
21002W        W85987  28.033   2.499  12.108
21003W        W85988   1.540  11.219   3.087
21004W        W85989  14.342  41.471   0.819
21005W        W85990  42.603  10.786  11.525
21006W        W85991  15.594  44.216  12.369
21007W        W85992   8.725  37.517   0.840
21008W        W85993  34.246  25.258  11.988
21009W        W85994  44.682   1.550  14.947
21010W        W85995  40.928  24.392   5.368
21011W        W85996  39.623  31.871  14.866
21012W        W85997  12.788  16.812   3.871
21013W        W85998  29.702  43.401  11.180
21014W        W85999   3.293  40.072   0.215
21015W        W86000   4.713  36.040   4.595
21016W        W86001   4.863  20.637  12.966
21017W        W86002  21.657  32.742  14.972
21018W        W86003  15.591   5.829   0.922
21019W        W86004  35.026  41.810   1.133
21020W        W86005  21.323   9.706  12.551
21021W        W86006   4.857   5.935  12.296
21022W        W86007   8.839   6.183  14.013
21023W        W86008  28.634  32.172  10.975
21024W        W86009  11.222   3.149  11.119
21025W        W86010  29.285   2.781   4.544
21026W        W86011  18.129  26.731  14.883
21027W        W86012  26.711  25.013  12.001
21028W        W86013  29.954   7.171   3.384
21029W        W86014   3.251  15.236   1.398
21030W        W86015   6.121  20.756   4.278
21031W        W86016  16.677  41.951  10.687
21032W        W86017  32.536  39.542   1.233
21033W        W86018  34.161  16.706  14.329
21034W        W86019  19.846  39.192   2.690
21035W        W86020   2.484  25.105   2.893
21036W        W86021  17.747  31.973  13.609
21037W        W86022   3.298  15.863   2.237
21038W        W86023  16.197  19.687  14.355
21039W        W86024  39.497  29.550   4.304
21040W        W86025  17.604  17.567   3.067
21041W        W86026  34.215  18.375   4.297
21042W        W86027  28.530   7.789   4.173
21043W        W86028  28.520   1.190   0.835
21044W        W86029  11.050  40.909  14.266
21045W        W86030  20.633  34.119   3.952
21046W        W86031  33.311  33.923  12.234
21047W        W86032  24.717  18.654  10.606
21048W        W86033  35.185  19.272  14.917
21049W        W86034  21.180   1.608   4.119
21050W        W86035   6.011  30.641   4.785
21051W        W86036  20.585  28.648   4.032
21052W        W86037   8.123  15.052   4.738
21053W        W86038  20.207  24.613  14.028
21054W        W86039  20.087  44.811   4.603
21055W        W86040  34.471  16.282   1.464
21056W        W86041  28.177  15.641   1.554
21057W        W86042   5.365  12.618   3.765
21058W        W86043  14.340  13.777   3.235
21059W        W86044  31.707  30.008  11.242
21060W        W86045  26.604   8.847   2.219
21061W        W86046   9.013  22.570   4.983
21062W        W86047  12.360  42.495  11.204
21063W        W86048   7.182  19.683   1.100
21064W        W86049   1.519  41.875  13.589
21065W        W86050   0.553  43.493   3.306
21066W        W86051  17.699  33.191  14.414
21067W        W86052  43.962  42.387   2.148
21068W        W86053  32.989   6.442  14.901
21069W        W86054  31.370  20.315  14.838
21070W        W86055  40.003  14.054  13.468
21071W        W86056   5.179   0.902  10.823
21072W        W86057  34.181  10.212  12.950
21073W        W86058  44.205  34.582   4.131
21074W        W86059  34.258  15.170   3.445
21075W        W86060   0.365  30.869   1.592
21076W        W86061  31.459  23.206  13.409
21077W        W86062   9.862  16.801  14.011
21078W        W86063  38.772  10.442   1.427
21079W        W86064  35.450  28.256   0.633
21080W        W86065  36.317  17.051  13.169
21081W        W86066  42.322  27.614   3.137
21082W        W86067  43.439  23.062   3.175
21083W        W86068  31.024  11.419   1.236
21084W        W86069  34.650  31.569  11.651
21085W        W86070  20.661  33.425  10.580
21086W        W86071  27.891  18.175  12.404
21087W        W86072  11.724   8.088   1.358
21088W        W86073  14.808  14.678  12.526
21089W        W86074  34.956  38.376  12.035
21090W        W86075  38.406   0.926   3.114
21091W        W86076   4.020  44.225  13.605
21092W        W86077   9.355  43.790   3.363
21093W        W86078  34.013  19.949   2.831
21094W        W86079  43.480  27.026   2.921
21095W        W86080   7.699  41.007   3.806
21096W        W86081  16.595   3.334  13.964
21097W        W86082   9.849  31.686  13.453
21098W        W86083   8.424  38.333   0.408
21099W        W86084  15.203   2.206   3.372
21100W        W86085  15.556   5.332   2.768
21101W        W86086  43.440  35.454   3.877
21102W        W86087  35.601  16.194  14.938
21103W        W86088  44.442  38.126  14.887
21104W        W86089  32.293  33.788  11.614
21105W        W86090   1.067  35.806   4.537
21106W        W86091  35.796  12.009   9.960
21107W        W86092  26.031  16.341  10.690
21108W        W86093  44.778  43.297  12.341
21109W        W86094  32.692  32.653   2.250
21110W        W86095  27.605  16.762   3.567
21111W        W86096  31.104  44.313   1.821
21112W        W86097  25.495  29.140   0.117
21113W        W86098  15.816   1.954  10.657
21114W        W86099  15.104  41.592   0.388
21115W        W86100  17.222  37.149   4.178
21116W        W86101  36.330  19.471   1.664
21117W        W86102   4.420  15.281   1.728
21118W        W86103  14.778  35.486  12.919
21119W        W86104  14.341  28.109   2.329
21120W        W86105   4.790  24.535  13.038
21121W        W86106  29.168  33.543   0.138
21122W        W86107   7.926   0.712  11.169
21123W        W86108  29.392   4.701   1.787
21124W        W86109  12.517  42.476  12.062
21125W        W86110  30.925  22.813  14.335
21126W        W86111  22.179  41.371   3.756
21127W        W86112  20.455  27.168  10.608
21128W        W86113  14.309  39.471  14.503
21129W        W86114  14.372  42.982   2.014
21130W        W86115   8.252  35.883   1.699
21131W        W86116  30.617  31.175  12.364
21132W        W86117  22.554   3.174   3.162
21133W        W86118  40.743   2.241  10.486
21134W        W86119  16.701  33.601   1.227
21135W        W86120   7.684  24.708   1.446
21136W        W86121  22.328  11.226  13.590
21137W        W86122  44.004  44.173  11.981
21138W        W86123  12.089  38.276   0.858
21139W        W86124   3.822   5.870   2.081
21140W        W86125  21.167  27.891  11.662
21141W        W86126   1.355  36.883  12.439
21142W        W86127  23.608  43.059   2.678
21143W        W86128  40.268  28.752  11.187
21144W        W86129  16.798   8.329  12.561
21145W        W86130   3.775  38.391  11.777
21146W        W86131  44.299   4.724  14.581
21147W        W86132   6.442  38.362  13.649
21148W        W86133   4.843   4.889   0.967
21149W        W86134  19.632  31.676   0.406
21150W        W86135  33.669  18.615   0.691
21151W        W86136  26.547   2.253  14.812
21152W        W86137  14.759  44.415   2.903
21153W        W86138   4.749   4.434   4.870
21154W        W86139  26.418  26.898   4.108
21155W        W86140  24.821   8.910   3.931
21156W        W86141  21.140  23.448  14.910
21157W        W86142   6.216  11.631   1.435
21158W        W86143  34.936  41.669   0.639
21159W        W86144   2.785   9.397  14.833
21160W        W86145  35.114  32.238  10.291
21161W        W86146  38.433  18.562  13.280
21162W        W86147  24.669  37.059   4.579
21163W        W86148  33.927   4.529  14.862
21164W        W86149  18.070  29.220   2.834
21165W        W86150  19.778   7.623   0.740
21166W        W86151   4.167  35.321  14.460
21167W        W86152  22.441  25.926  11.147
21168W        W86153   5.000  40.459  14.963
21169W        W86154  35.971  12.147   0.538
21170W        W86155  30.522  23.073  14.551
21171W        W86156  21.789  19.627  14.410
21172W        W86157  31.988  18.872  13.775
21173W        W86158  41.788  17.337   0.250
21174W        W86159  22.461   8.176  14.833
21175W        W86160  31.547  29.896   4.641
21176W        W86161  38.341  19.552  12.516
21177W        W86162  35.073  43.005  10.242
21178W        W86163  20.103  21.993  14.381
21179W        W86164   1.341  33.514   4.610
21180W        W86165  27.953  30.808   1.705
21181W        W86166  40.806  13.488   2.953
21182W        W86167  43.675  12.845   3.180
21183W        W86168  25.980  13.294  12.593
21184W        W86169   9.710  44.320  11.598
21185W        W86170  28.678  11.371  14.394
21186W        W86171  25.658  32.961  12.115
21187W        W86172  26.070  40.120   1.377
21188W        W86173  21.298  42.046   2.862
21189W        W86174  20.293   5.620   5.067
21190W        W86175  18.291  10.643   1.317
21191W        W86176  40.369  32.375   9.905
21192W        W86177   9.357   9.150   3.616
21193W        W86178  32.667   8.804   2.171
21194W        W86179  43.243  16.314   2.838
21195W        W86180  22.572  27.199  11.913
21196W        W86181  16.516  34.033   0.772
21197W        W86182  30.129  33.605  11.459
21198W        W86183  31.558   4.402   0.559
21199W        W86184   9.267   2.823  12.942
21200W        W86185   5.266  44.528   2.703
21201W        W86186  24.754   3.379   2.631
21202W        W86187  44.510  42.628  10.882
21203W        W86188  36.917  20.580  13.475
21204W        W86189  32.359  34.680  10.685
21205W        W86190  22.321  17.605  10.685
21206W        W86191  13.210  27.034   1.240
21207W        W86192   2.915  43.860   2.822
21208W        W86193  28.604  12.568   2.777
21209W        W86194  31.080  42.836  11.238
21210W        W86195  28.548  40.334  11.927
21211W        W86196   3.563  13.711   1.372
21212W        W86197  21.619  43.782   1.962
21213W        W86198   7.463  17.202  12.226
21214W        W86199  36.552  40.961   4.929
21215W        W86200  33.815  28.087   1.728
21216W        W86201  21.604  28.654  10.478
21217W        W86202   4.353  38.577  14.506
21218W        W86203   8.409  42.611  14.726
21219W        W86204   6.198  13.664   1.769
21220W        W86205  27.445   0.593  11.188
21221W        W86206  26.046  14.891   1.770
21222W        W86207   1.724  36.519   0.567
21223W        W86208   9.425  26.212  13.623
21224W        W86209  17.137  44.927  14.863
21225W        W86210  33.016   4.268  12.007
21226W        W86211  36.276  13.084  13.052
21227W        W86212  24.812  29.981  13.805
21228W        W86213  41.256  25.007   2.146
21229W        W86214  25.109  15.596  11.495
21230W        W86215   6.112  25.489   0.334
21231W        W86216  19.632  12.730  13.151
21232W        W86217  40.001   8.243   3.997
21233W        W86218  44.603   1.192   3.757
21234W        W86219  43.989  39.419  12.977
21235W        W86220   9.587   1.660   3.622
21236W        W86221  17.086  15.856  11.008
21237W        W86222   3.190  28.678   2.076
21238W        W86223  19.570  35.082   0.002
21239W        W86224   7.357   0.800   1.383
21240W        W86225  42.344  34.247  12.093
21241W        W86226  33.950  20.036  13.077
21242W        W86227  38.203   3.298  11.086
21243W        W86228   2.341   8.303  12.869
21244W        W86229  18.006  15.189  12.873
21245W        W86230  14.435  25.664  12.551
21246W        W86231  31.343  34.483  10.650
21247W        W86232  29.000  25.281  12.618
21248W        W86233   9.845   1.715   0.276
21249W        W86234  15.780  26.464  13.506
21250W        W86235  37.330  19.040   1.811
21251W        W86236  10.367   5.833  13.878
21252W        W86237   2.983  41.468  13.886
21253W        W86238  29.637  13.493   0.320
21254W        W86239  22.627  40.588  12.916
21255W        W86240  15.337  36.845   1.341
21256W        W86241  30.610  15.536  10.622
21257W        W86242   4.032  37.308  14.369
21258W        W86243  36.594  18.047   5.116
21259W        W86244  30.233   3.137  11.144
21260W        W86245  28.554  35.507  10.705
21261W        W86246  15.557  10.101   3.077
21262W        W86247  25.953   2.725   2.388
21263W        W86248  24.250  14.215   0.934
21264W        W86249  11.145   0.343   4.566
21265W        W86250  14.851  12.771  13.458
21266W        W86251  33.532   7.603  14.736
21267W        W86252  38.292  42.278  14.964
21268W        W86253  33.975  43.258   3.309
21269W        W86254   5.774  35.003  12.748
21270W        W86255  25.759   6.337  11.982
21271W        W86256  11.601  26.145   0.715
21272W        W86257  40.953   5.642  12.025
21273W        W86258  19.507  40.794   0.519
21274W        W86259  19.353  14.265   2.782
21275W        W86260  19.698  42.756   3.623
21276W        W86261  25.736  13.379   0.388
21277W        W86262   0.243  40.489   3.845
21278W        W86263  40.448   9.335   3.842
21279W        W86264  15.112  24.721   2.303
21280W        W86265  14.915   7.697  12.054
21281W        W86266  43.594   2.925   0.760
21282W        W86267  14.206  27.421  13.410
21283W        W86268  44.584  36.854  13.327
21284W        W86269  29.280  43.649  12.191
21285W        W86270  22.739  35.302   5.082
21286W        W86271  30.901  39.396  12.994
21287W        W86272   3.383  19.685  10.548
21288W        W86273   1.386  40.872  12.563
21289W        W86274   8.996  32.135   2.315
21290W        W86275   0.955  10.921   3.888
21291W        W86276  33.857  24.592   4.196
21292W        W86277   1.996   2.807  13.419
21293W        W86278  26.239   6.154   2.446
21294W        W86279   0.432  23.872  11.530
21295W        W86280  44.259  31.401   4.105
21296W        W86281  14.830  44.243  14.619
21297W        W86282   4.670  14.269  14.762
21298W        W86283  40.406  22.493  13.552
21299W        W86284   1.519  29.259  11.230
21300W        W86285   7.165   8.255   3.201
21301W        W86286  12.838   0.508  12.928
21302W        W86287  37.063   7.873  14.910
21303W        W86288  14.916   4.272   0.286
21304W        W86289  12.635  17.140  14.800
21305W        W86290  26.431  31.670  13.473
21306W        W86291  14.160   2.385  10.680
21307W        W86292  35.182  38.812  11.894
21308W        W86293  26.309  37.004   2.153
21309W        W86294  29.921   4.694   1.783
21310W        W86295   8.944  23.041  11.887
21311W        W86296   5.824   8.217   0.221
21312W        W86297  19.528  22.296  11.828
21313W        W86298  40.068  28.519  13.083
21314W        W86299  14.786  28.638  13.968
21315W        W86300   7.745  35.843   3.232
21316W        W86301  44.772   4.369  10.541
21317W        W86302  15.791   7.021   2.520
21318W        W86303  15.266  43.457   2.702
21319W        W86304  18.547  42.935  12.972
21320W        W86305   1.658  23.789   2.866
21321W        W86306  29.445  33.153   3.756
21322W        W86307  29.030   6.319  10.616
21323W        W86308  40.576   0.952  10.310
21324W        W86309  23.654  19.692   3.182
21325W        W86310  25.613  42.552   0.973
21326W        W86311  34.810   5.918  14.516
21327W        W86312   2.484  43.037   2.486
21328W        W86313   8.237   8.842  10.736
21329W        W86314  40.545  19.750  13.763
21330W        W86315  25.614  31.577  13.228
21331W        W86316   7.734  10.325  11.672
21332W        W86317   2.784  22.224  11.194
21333W        W86318  42.387  27.540   1.305
21334W        W86319  29.437  11.173  13.515
21335W        W86320  31.351   8.356   5.425
21336W        W86321   6.708  10.907  11.115
21337W        W86322   2.682  17.842   0.824
21338W        W86323  27.336  33.989   1.776
21339W        W86324  44.920  13.094   1.733
21340W        W86325  18.349  16.181  13.823
21341W        W86326  19.039   4.278  11.896
21342W        W86327  10.156  11.816  13.364
21343W        W86328  19.338   7.750  13.415
21344W        W86329  23.699   3.307  12.484
21345W        W86330  42.442  14.286  14.102
21346W        W86331  38.258  22.760   3.568
21347W        W86332  37.041  16.628  13.706
21348W        W86333   9.076   6.804   2.375
21349W        W86334  26.429  40.498   1.431
21350W        W86335  38.814  17.978  14.359
21351W        W86336  42.571  42.394  11.914
21352W        W86337  35.111  12.351  13.623
21353W        W86338   6.728  31.895  10.723
21354W        W86339   1.973   7.381   1.132
21355W        W86340  10.295  32.441  10.679
21356W        W86341  31.210  20.124  11.055
21357W        W86342  31.674  17.153  14.426
21358W        W86343  32.394  25.762  12.395
21359W        W86344   1.857  11.273  13.157
21360W        W86345  34.380  27.109  10.567
21361W        W86346  23.988  42.222   4.040
21362W        W86347  14.209   9.902   1.800
21363W        W86348   1.682   4.252   1.917
21364W        W86349  41.679   5.825  13.468
21365W        W86350  14.100  29.013  14.487
21366W        W86351  21.389   0.593   4.148
21367W        W86352  38.925  27.532  10.895
21368W        W86353   4.527  11.922   3.067
21369W        W86354   4.353  18.035  14.806
21370W        W86355  41.118  38.383  14.370
21371W        W86356   0.796  40.076  11.229
21372W        W86357  15.795  39.363  12.012
21373W        W86358  24.202  26.974   2.594
21374W        W86359  28.171  32.043   0.992
21375W        W86360  25.721  26.722  14.315
21376W        W86361  14.071  28.954   4.866
21377W        W86362  25.319  34.528  13.258
21378W        W86363  36.360  38.446  13.981
21379W        W86364  42.262   2.379  10.806
21380W        W86365  14.678   2.974   3.681
21381W        W86366  25.057  38.397   0.138
21382W        W86367   3.725  39.394  10.400
21383W        W86368  42.359  13.439  14.694
21384W        W86369  44.908   1.278  10.661
21385W        W86370  24.978  43.810  14.946
21386W        W86371   7.463  17.598  11.892
21387W        W86372  33.428  28.525   1.650
21388W        W86373  29.155   0.202   2.856
21389W        W86374   3.442   5.658  13.954
21390W        W86375  12.537   1.524  11.153
21391W        W86376  42.768  43.263   2.590
21392W        W86377  40.699  12.613  12.181
21393W        W86378  17.805  28.877   0.241
21394W        W86379  16.586   9.152  14.321
21395W        W86380  32.549  15.560  14.752
21396W        W86381  22.778  18.215   4.332
21397W        W86382  21.811  29.073   1.747
21398W        W86383   7.086  32.032   3.198
21399W        W86384  34.518   7.044   3.076
21400W        W86385  35.553  19.235  11.670
21401W        W86386  15.027   5.212   1.861
21402W        W86387  15.560   2.400  14.271
21403W        W86388  10.129  42.511   3.762
21404W        W86389  31.803   2.794  14.554
21405W        W86390  27.065  40.375  14.502
21406W        W86391  20.448   7.721   0.255
21407W        W86392  14.293  32.767  13.561
21408W        W86393  18.335  16.611   0.114
21409W        W86394  23.163  17.894  11.950
21410W        W86395  11.651  10.281   0.459
21411W        W86396  25.423  12.299  14.174
21412W        W86397  27.024   2.646  12.920
21413W        W86398  32.202   5.329  11.907
21414W        W86399  31.408  32.323  11.989
21415W        W86400  26.466  33.104   1.743
21416W        W86401  34.048  13.810   0.694
21417W        W86402   1.879  36.939  12.350
21418W        W86403  15.182   2.009   1.798
21419W        W86404   6.626  21.099  10.736
21420W        W86405  27.775  34.159   3.674
21421W        W86406   8.603  38.383  12.505
21422W        W86407  18.404  22.201   3.827
21423W        W86408  25.592  39.187  14.039
21424W        W86409  20.981  44.903   2.785
21425W        W86410  42.510   9.693   2.221
21426W        W86411  36.883  37.493   3.137
21427W        W86412  43.957   1.771  14.739
21428W        W86413  34.086   7.702  12.077
21429W        W86414   2.237   9.965  12.439
21430W        W86415   4.919   8.178  14.526
21431W        W86416  15.804  37.473  11.684
21432W        W86417  29.430  44.779   2.699
21433W        W86418  22.502   7.200  10.766
21434W        W86419  13.102  43.086  10.432
21435W        W86420  41.841   9.836  10.764
21436W        W86421  21.483  31.693  12.749
21437W        W86422  30.700   5.249  13.229
21438W        W86423  32.092   9.647   3.233
21439W        W86424   5.085  42.896   5.123
21440W        W86425  34.368  13.927  13.831
21441W        W86426   1.894  22.561  14.729
21442W        W86427  26.104  14.358   0.263
21443W        W86428  24.069  38.366   4.040
21444W        W86429  27.969  23.913  11.152
21445W        W86430  15.649  10.265  14.280
21446W        W86431  38.087  23.279   1.838
21447W        W86432   6.210  39.618   3.858
21448W        W86433  25.887  35.756  12.194
21449W        W86434  15.776  33.847  10.944
21450W        W86435   1.473  42.322  11.287
21451W        W86436  37.814  11.748   5.025
21452W        W86437  29.822  10.210  11.899
21453W        W86438  27.736  19.900   0.967
21454W        W86439  11.864  31.177  13.612
21455W        W86440   4.592  11.039   5.078
21456W        W86441   4.983  42.412   3.428
21457W        W86442  29.279  44.262  11.659
21458W        W86443  43.380  12.854   2.751
21459W        W86444  42.453  40.065   3.301
21460W        W86445   8.860  32.040   3.725
21461W        W86446  13.470  34.077   1.619
21462W        W86447  41.459  10.683   3.626
21463W        W86448   1.027  25.686   4.201
21464W        W86449  41.895  12.716  12.917
21465W        W86450  44.438   1.858  13.959
21466W        W86451  12.324  37.954  12.684
21467W        W86452  24.704  13.073   0.297
21468W        W86453  30.081  14.774   4.748
21469W        W86454  22.977  13.773  10.845
21470W        W86455  41.112  37.124  12.467
21471W        W86456  13.898  36.620   3.477
21472W        W86457  24.112   2.227  11.079
21473W        W86458   5.285  14.614   4.488
21474W        W86459   4.436   8.939  11.565
21475W        W86460   2.380   8.896   2.144
21476W        W86461   1.440  15.631  13.351
21477W        W86462   0.217  13.919  11.327
21478W        W86463   9.663  37.783   2.047
21479W        W86464  26.544  13.383   4.147
21480W        W86465   1.446   5.705   3.547
21481W        W86466  23.473  24.413   0.403
21482W        W86467  41.781   6.350   0.970
21483W        W86468  30.494  38.353   2.255
21484W        W86469   1.168  35.166   0.746
21485W        W86470   1.498  17.850   2.592
21486W        W86471  29.583  42.850  12.948
21487W        W86472  19.167   3.071  14.061
21488W        W86473  36.364   0.871  14.524
21489W        W86474  16.653  43.444   3.675
21490W        W86475   1.775  28.599  13.481
21491W        W86476   2.785  15.642   2.239
21492W        W86477  35.451  21.744   4.168
21493W        W86478  44.960  17.832   4.532
21494W        W86479   4.753  34.340   3.298
21495W        W86480  10.822  19.795   2.795
21496W        W86481  28.448   6.774   4.633
21497W        W86482   7.180  27.293  11.284
21498W        W86483  43.464  43.059  13.919
21499W        W86484  10.308   8.778   4.527
21500W        W86485  40.297  14.851  12.634
21501W        W86486  21.989  13.810  12.936
21502W        W86487  13.147  18.372  11.030
21503W        W86488  18.990   8.725   0.349
21504W        W86489  31.701   6.181  13.093
21505W        W86490  25.888  26.691  13.382
21506W        W86491   7.834  22.239  10.629
21507W        W86492  27.978  16.501   0.473
21508W        W86493  23.688  19.175  11.391
21509W        W86494   0.612  15.151  11.465
21510W        W86495  31.855  14.370   0.918
21511W        W86496  23.931  42.025  12.037
21512W        W86497   4.190  20.416  11.978
21513W        W86498  28.517  28.927   2.843
21514W        W86499  22.260  14.796   3.756
21515W        W86500  29.144  31.283   5.325
21516W        W86501  15.734  18.783   3.628
21517W        W86502   3.400  14.192   2.921
21518W        W86503  31.509  15.725  14.884
21519W        W86504  44.305  24.106   0.640
21520W        W86505   5.650  12.216  13.011
21521W        W86506  10.339  13.391   1.792
21522W        W86507  20.756  21.607   4.877
21523W        W86508  41.272  42.468  12.530
21524W        W86509  17.305  36.078   1.456
21525W        W86510  16.088  17.979   3.871
21526W        W86511  17.302  20.215   4.121
21527W        W86512  13.936  37.973  14.822
21528W        W86513  30.474   1.212  14.744
21529W        W86514  44.369  35.977  14.133
21530W        W86515   1.658  37.110   4.337
21531W        W86516   2.518  40.987  11.873
21532W        W86517  41.273  14.900   1.999
21533W        W86518  20.798  20.001   2.847
21534W        W86519  43.091  26.663   2.773
21535W        W86520  41.155  32.997  12.590
21536W        W86521  29.413  32.466   3.202
21537W        W86522  24.415  35.117   3.683
21538W        W86523   6.716  12.308  14.915
21539W        W86524  23.735  20.697   4.626
21540W        W86525  11.656  39.798   2.738
21541W        W86526   4.419  19.328  14.490
21542W        W86527  35.966  35.261   0.301
21543W        W86528   5.250   1.907   3.085
21544W        W86529  35.435   6.059   4.542
21545W        W86530  32.009  39.940  12.086
21546W        W86531  28.282  40.531   3.850
21547W        W86532   7.352  42.291  12.590
21548W        W86533   9.590   8.974  11.487
21549W        W86534  11.687  24.289  14.383
21550W        W86535   6.716   5.455  14.405
21551W        W86536  38.745  35.683   2.355
21552W        W86537  23.972  18.964  10.620
21553W        W86538  13.916   1.872   2.949
21554W        W86539  30.623   1.219  10.711
21555W        W86540  17.191  29.480   1.778
21556W        W86541  41.829  21.318  13.341
21557W        W86542  26.650  19.971  12.619
21558W        W86543  29.447  26.875   0.407
21559W        W86544   3.760  32.909   3.482
21560W        W86545  28.472   7.799  11.230
21561W        W86546  12.713  19.676  12.154
21562W        W86547  38.526  29.151   1.910
21563W        W86548  16.918  25.831  11.046
21564W        W86549   6.142  15.335   3.733
21565W        W86550  39.122  18.699   1.929
21566W        W86551  11.345  25.054  10.592
21567W        W86552  37.454  42.034   1.026
21568W        W86553  33.462  24.059   2.830
21569W        W86554  17.546  31.960   4.247
21570W        W86555  21.237  30.596   2.736
21571W        W86556   3.786  23.287  11.981
21572W        W86557  38.552  35.009   4.166
21573W        W86558  10.584  21.651  12.120
21574W        W86559   6.416  29.376  12.974
21575W        W86560   0.876   1.254  15.000
21576W        W86561  33.417  44.567  13.513
21577W        W86562   8.255  16.975  13.994
21578W        W86563  43.761  14.053  14.361
21579W        W86564  10.552   3.323   1.220
21580W        W86565   1.005  19.107   4.170
21581W        W86566  36.855  25.704  11.563
21582W        W86567  22.993   1.810  10.752
21583W        W86568  13.102   5.489   3.227
21584W        W86569  27.978  26.752   3.209
21585W        W86570  15.533  36.111   2.311
21586W        W86571  24.035   7.162  11.431
21587W        W86572  12.676   0.424   1.896
21588W        W86573   0.045  42.293   1.903
21589W        W86574   4.597  10.785   4.024
21590W        W86575   5.720  34.444  13.471
21591W        W86576  36.795  21.356   4.048
21592W        W86577   5.359  33.514  11.378
21593W        W86578  19.638  17.317  13.637
21594W        W86579  37.396   4.941   0.027
21595W        W86580   3.683  24.466   1.390
21596W        W86581  37.465  17.533  10.370
21597W        W86582  20.299  14.273   1.816
21598W        W86583  19.364  40.631  14.394
21599W        W86584  43.467  33.959  12.538
21600W        W86585  19.283   1.686   3.535
21601W        W86586  38.882  25.534   3.650
21602W        W86587  18.012   2.643  12.373
21603W        W86588  19.020  13.660   3.619
21604W        W86589  27.124   5.850   3.142
21605W        W86590  35.300   0.414   3.796
21606W        W86591  29.616  18.762   1.894
21607W        W86592  40.066  41.095  14.034
21608W        W86593   3.573  10.167  11.483
21609W        W86594  25.746  30.006   0.818
21610W        W86595   8.788  31.435  11.460
21611W        W86596  12.196  18.016   2.748
21612W        W86597  17.368   2.008  11.889
21613W        W86598  21.072  39.310   3.062
21614W        W86599  42.770  43.529   0.429
21615W        W86600   6.710  30.981   1.843
21616W        W86601  12.852   3.285   3.302
21617W        W86602  25.542  16.554  12.973
21618W        W86603  38.050  20.467  12.991
21619W        W86604  39.694  15.976   4.092
21620W        W86605  34.792  23.748   4.975
21621W        W86606  22.913  15.334   0.253
21622W        W86607  29.751  18.271   1.695
21623W        W86608  39.457  43.082  12.157
21624W        W86609   1.728  24.958   3.161
21625W        W86610  25.201  42.105  13.101
21626W        W86611  44.010  27.968  14.414
21627W        W86612   3.263  44.242  12.861
21628W        W86613  42.842   2.654   3.756
21629W        W86614  12.726  30.006  13.820
21630W        W86615  25.963  15.254   1.368
21631W        W86616  13.615  25.145   1.960
21632W        W86617  44.251   9.785  14.478
21633W        W86618   2.281  30.864  14.708
21634W        W86619  33.155  21.577   0.415
21635W        W86620  32.626   7.641   1.659
21636W        W86621  13.519  15.088   0.697
21637W        W86622   0.736  43.361  10.922
21638W        W86623  20.772  26.211  10.429
21639W        W86624  39.958  39.236   3.740
21640W        W86625  23.948  43.494  13.897
21641W        W86626  38.550  14.202   3.886
21642W        W86627  11.593   7.442  13.924
21643W        W86628  17.313  21.765   2.245
21644W        W86629   0.944  19.624   3.321
21645W        W86630  44.854   2.895  11.129
21646W        W86631  33.679   1.256  14.524
21647W        W86632  41.013  20.158  12.185
21648W        W86633  42.125  13.621   4.187
21649W        W86634  36.682  33.141   0.672
21650W        W86635  16.305  17.245   1.881
21651W        W86636  13.052   6.189   2.444
21652W        W86637  21.667  37.891   1.711
21653W        W86638   6.923   7.211  10.738
21654W        W86639  36.116  17.512  10.633
21655W        W86640  26.637  30.218   0.863
21656W        W86641   2.407  12.949  11.729
21657W        W86642   6.655  43.767  13.440
21658W        W86643  32.505  41.464   4.767
21659W        W86644   4.791  42.275   4.620
21660W        W86645  15.848  30.178  11.270
21661W        W86646  28.435  44.853   2.321
21662W        W86647  33.724  33.621  13.049
21663W        W86648  20.032   5.391  14.510
21664W        W86649  14.028  37.335  11.632
21665W        W86650  35.162  36.507  11.482
21666W        W86651   8.943  24.744  10.477
21667W        W86652  42.201  29.602  14.923
21668W        W86653  38.452  12.559  14.858
21669W        W86654   3.464   0.269   1.752
21670W        W86655  25.439  20.396  12.970
21671W        W86656  32.068  20.849  10.546
21672W        W86657   2.220   5.353   3.341
21673W        W86658  32.689  18.020   2.236
21674W        W86659  20.430   3.844   0.175
21675W        W86660  22.410  44.268   5.040
21676W        W86661  34.507   6.904   3.624
21677W        W86662   4.258   0.349   0.028
21678W        W86663  22.444  10.352   3.057
21679W        W86664  28.637  25.221   0.705
21680W        W86665  15.829  18.551   0.752
21681W        W86666  36.537  37.151   2.400
21682W        W86667  37.920   9.554   5.045
21683W        W86668  24.746  13.687   2.323
21684W        W86669  32.619   9.545  10.674
21685W        W86670   7.899  16.805   0.347
21686W        W86671  38.438  26.838  13.351
21687W        W86672  37.718  28.178  13.036
21688W        W86673   7.623  24.708   2.871
21689W        W86674  20.974  24.702   1.185
21690W        W86675  41.710  37.769  12.914
21691W        W86676  20.034   6.870  10.695
21692W        W86677  20.841  26.381  14.331
21693W        W86678   7.817  35.603   3.685
21694W        W86679  34.086  11.933   2.809
21695W        W86680  22.305  30.248   4.598
21696W        W86681   5.886   9.632   3.586
21697W        W86682  10.927   8.667   1.262
21698W        W86683  40.273  19.005   0.361
21699W        W86684  44.461  23.692  14.015
21700W        W86685  41.381  44.187  11.275
21701W        W86686   3.710  30.004  12.034
21702W        W86687  12.186  28.093   2.872
21703W        W86688  23.064  22.435   1.263
21704W        W86689  21.027  32.541  13.696
21705W        W86690  14.617  36.596   2.354
21706W        W86691  35.126  22.236  12.432
21707W        W86692  42.461  19.603  14.251
21708W        W86693  18.032  37.063   4.735
21709W        W86694  36.943  35.031  12.668
21710W        W86695  22.563  12.841  14.897
21711W        W86696  42.441  37.876   0.479
21712W        W86697  39.938  33.983   1.000
21713W        W86698  28.520  24.796  14.694
21714W        W86699  17.604  31.129   3.994
21715W        W86700  28.571  19.519   0.375
21716W        W86701  19.514  28.910   1.776
21717W        W86702  16.694  18.281   4.547
21718W        W86703  23.535  17.283   4.243
21719W        W86704   5.866  43.491   2.281
21720W        W86705  34.573  18.441  11.056
21721W        W86706  44.819  43.280   1.851
21722W        W86707   9.253  14.311   4.523
21723W        W86708  27.483  28.410   3.455
21724W        W86709   2.257  23.516   2.697
21725W        W86710  14.200  10.642  12.571
21726W        W86711  24.729  29.559   3.975
21727W        W86712   8.699  31.854   3.160
21728W        W86713  39.468  34.838   9.698
21729W        W86714  28.203  29.602   0.261
21730W        W86715  27.532   2.366   1.747
21731W        W86716  14.160  20.548  13.022
21732W        W86717  44.459   7.872  10.584
21733W        W86718  21.525  10.852  14.532
21734W        W86719  22.450   7.378  12.408
21735W        W86720   4.243  35.525   3.324
21736W        W86721  25.206   1.317  12.628
21737W        W86722  43.537   6.762   1.323
21738W        W86723   4.967  20.529   1.269
21739W        W86724  37.026  39.414  10.496
21740W        W86725  22.034  14.820  14.340
21741W        W86726  10.175   3.027   2.821
21742W        W86727  22.772  20.676  12.614
21743W        W86728  15.785  11.080   2.310
21744W        W86729   5.751   1.327  12.549
21745W        W86730  24.066  21.934  10.648
21746W        W86731   2.569   7.176  11.403
21747W        W86732  13.846  19.600  14.943
21748W        W86733  17.670   4.982   1.352
21749W        W86734  43.389  24.868   3.754
21750W        W86735  13.106  31.905   4.542
21751W        W86736  25.970  24.971  12.461
21752W        W86737  26.963   7.677   4.674
21753W        W86738  39.897  11.705   0.164
21754W        W86739  44.244  41.501  14.942
21755W        W86740   4.543   7.135   4.632
21756W        W86741  36.947   7.227   4.458
21757W        W86742  36.511  28.944  14.456
21758W        W86743  24.660  29.458  10.555
21759W        W86744  33.946   2.414   2.196
21760W        W86745   3.173  36.413   0.225
21761W        W86746  38.093  34.892   2.305
21762W        W86747   7.212  30.426  12.910
21763W        W86748   1.040   0.788   4.162
21764W        W86749   6.143  16.047   4.311
21765W        W86750   4.721  34.541   0.211
21766W        W86751  39.245  18.481   1.188
21767W        W86752  42.813   6.697  13.101
21768W        W86753  43.529  42.596   2.415
21769W        W86754   0.168  40.432  11.692
21770W        W86755  38.857  30.532  11.301
21771W        W86756  44.091  34.521   3.264
21772W        W86757  31.903  26.156   0.935
21773W        W86758   0.960   1.172   3.837
21774W        W86759  39.826  24.145   1.670
21775W        W86760   0.966  31.498   2.810
21776W        W86761  44.952  12.226  11.554
21777W        W86762  20.792  28.048   2.711
21778W        W86763  27.199  21.534   1.165
21779W        W86764  41.681   0.255  12.468
21780W        W86765   6.569  35.914  10.728
21781W        W86766   7.687   4.950   0.306
21782W        W86767  39.436  44.450   1.589
21783W        W86768   7.294  34.007  14.446
21784W        W86769   0.839  13.831   4.552
21785W        W86770  28.892  41.414  13.329
21786W        W86771  35.583  30.834  11.571
21787W        W86772  27.933  39.748   4.124
21788W        W86773  19.150   3.085  11.684
21789W        W86774  39.064  20.689   3.356
21790W        W86775  22.115   0.088   2.992
21791W        W86776  35.141  20.989   0.276
21792W        W86777  41.889  12.197  12.929
21793W        W86778  34.249  15.274  12.518
21794W        W86779  31.452  31.145  14.348
21795W        W86780  29.534  15.188   1.373
21796W        W86781   7.172  35.818  13.867
21797W        W86782  22.449  12.098   4.587
21798W        W86783   2.646  23.676   0.973
21799W        W86784  25.011  11.766  10.700
21800W        W86785   4.719  19.559  13.221
21801W        W86786  26.102  24.994  13.809
21802W        W86787  40.455  42.038  11.671
21803W        W86788  11.815   4.252  14.084
21804W        W86789  42.708  12.150  13.486
21805W        W86790  31.575  42.883   3.542
21806W        W86791  21.848  41.948   2.691
21807W        W86792  42.551  37.046   4.253
21808W        W86793  44.467   5.926  14.460
21809W        W86794   1.221  39.909   2.370
21810W        W86795  38.422   3.342   1.919
21811W        W86796   6.027  29.476  14.299
21812W        W86797   8.786   3.453  11.727
21813W        W86798  19.334  14.265   1.869
21814W        W86799  21.712   5.171  14.977
21815W        W86800   3.190  33.623  14.529
21816W        W86801  41.873  31.073   3.498
21817W        W86802  34.097  15.842   3.190
21818W        W86803  23.758   9.318  11.514
21819W        W86804  39.393  12.733   4.639
21820W        W86805   6.654  22.506  11.110
21821W        W86806   2.697  11.486  14.902
21822W        W86807  14.218  32.326   3.794
21823W        W86808  33.406  38.330  10.738
21824W        W86809  34.003  12.756  12.009
21825W        W86810   6.830  26.194  13.370
21826W        W86811  41.295  44.798   3.147
21827W        W86812  23.518  36.183   1.810
21828W        W86813  36.000   7.019   2.102
21829W        W86814  14.466  16.088  11.531
21830W        W86815   7.416   6.411   1.890
21831W        W86816  41.401   2.311   2.365
21832W        W86817   0.777  14.364  12.590
21833W        W86818  23.479   4.797  11.046
21834W        W86819  37.371   9.658   1.359
21835W        W86820   0.241  15.801   0.314
21836W        W86821  19.532  14.639  11.419
21837W        W86822  33.955  41.792   4.535
21838W        W86823  36.634  39.306  11.644
21839W        W86824  18.276  36.836  13.153
21840W        W86825   1.856   4.806  13.090
21841W        W86826   6.669   9.654   2.252
21842W        W86827  20.241  15.705   2.852
21843W        W86828  35.395  43.051  12.407
21844W        W86829  19.902   7.134   5.409
21845W        W86830  21.786  30.137   1.327
21846W        W86831  11.294  32.912  14.479
21847W        W86832   7.263  44.707  10.814
21848W        W86833  31.098  44.512   1.321
21849W        W86834  12.976  37.323  11.520
21850W        W86835  31.042  42.924   0.244
21851W        W86836  40.923  33.016   1.390
21852W        W86837  36.100  30.846   2.154
21853W        W86838  35.953   2.680   1.132
21854W        W86839  39.271   2.599   0.321
21855W        W86840  18.517  27.104   4.264
21856W        W86841  44.552  24.731  12.780
21857W        W86842  11.180   4.454  14.683
21858W        W86843   2.921  24.814  10.629
21859W        W86844  10.184   3.257   4.605
21860W        W86845  33.030  21.139  12.882
21861W        W86846  15.552  34.462   4.622
21862W        W86847  32.584   1.098   3.737
21863W        W86848  37.552   6.360   3.271
21864W        W86849  14.765   0.489   3.713
21865W        W86850   0.015  22.980   3.883
21866W        W86851  29.764  30.214   4.432
21867W        W86852   6.480   3.213   0.229
21868W        W86853  37.341   5.656  14.066
21869W        W86854  28.252  12.991   4.584
21870W        W86855  37.689  44.629  11.348
21871W        W86856   0.987   0.925   1.191
21872W        W86857  37.466  35.288  10.703
21873W        W86858  40.916  12.256   3.862
21874W        W86859  11.395  27.974  14.757
21875W        W86860  22.141  17.156  11.935
21876W        W86861  31.601  27.918   0.743
21877W        W86862   8.185  28.723  10.819
21878W        W86863  10.212  19.338  12.007
21879W        W86864  11.885   3.773  13.877
21880W        W86865   4.194  44.720  12.523
21881W        W86866  17.420  15.744  10.118
21882W        W86867  35.969   4.349   4.597
21883W        W86868  12.727  43.755   4.419
21884W        W86869  17.913   3.941   3.968
21885W        W86870  39.634  24.127  12.407
21886W        W86871   7.965  34.366  13.580
21887W        W86872   5.489  44.108   4.130
21888W        W86873  25.989  41.047   2.697
21889W        W86874  21.643   6.475   4.700
21890W        W86875  12.333  43.565   4.106
21891W        W86876  43.610  19.239  14.030
21892W        W86877  40.958  17.283  11.996
21893W        W86878  15.870  42.924  13.128
21894W        W86879   1.754   1.825  10.978
21895W        W86880   8.871   0.586   2.191
21896W        W86881  24.467  30.526   2.691
21897W        W86882  36.190  22.687   2.352
21898W        W86883  31.615  13.117   2.281
21899W        W86884  25.252   3.615  12.931
21900W        W86885  13.270  22.490  11.975
21901W        W86886  28.200  43.238   5.124
21902W        W86887  16.661  11.002  12.970
21903W        W86888  28.583  17.142  14.495
21904W        W86889  38.574  28.288   0.889
21905W        W86890   4.503  19.486  11.190
21906W        W86891   6.960  29.224   2.235
21907W        W86892   3.956  31.431   0.699
21908W        W86893   1.411  40.984  13.457
21909W        W86894  11.686   5.426  11.356
21910W        W86895  10.941   5.812  11.536
21911W        W86896  42.976  36.489  12.560
21912W        W86897  23.501  32.990   4.346
21913W        W86898  14.205   0.922   1.034
21914W        W86899  38.419  32.551   4.053
21915W        W86900  40.545  14.704   4.126
21916W        W86901  12.975  17.532  11.612
21917W        W86902  30.560  30.467  10.749
21918W        W86903   4.230   1.649  14.911
21919W        W86904  11.605   8.562   0.357
21920W        W86905  33.605  27.657   4.161
21921W        W86906  15.348  24.397  10.705
21922W        W86907  29.599   0.291   2.586
21923W        W86908   9.647  15.815   9.897
21924W        W86909  32.126  17.764   2.815
21925W        W86910   6.762  19.217   0.960
21926W        W86911  25.305   7.163   2.710
21927W        W86912   3.640  10.165  10.632
21928W        W86913  41.363  36.369   1.196
21929W        W86914  41.512   0.275   2.976
21930W        W86915  32.401  27.244  14.393
21931W        W86916  13.773  21.060   0.923
21932W        W86917   5.776  31.425  10.710
21933W        W86918  41.622  32.101  10.587
21934W        W86919  34.441   5.569   1.251
21935W        W86920   8.398  39.610   1.339
21936W        W86921  43.996  16.677   3.436
21937W        W86922   2.346  26.213  11.654
21938W        W86923  21.713  17.713   0.445
21939W        W86924  18.148  20.011  14.249
21940W        W86925  19.057   7.716  13.936
21941W        W86926  38.442  14.635   0.514
21942W        W86927  25.002   5.856  13.988
21943W        W86928  10.480   0.883  10.976
21944W        W86929  43.745  16.318  14.121
21945W        W86930  14.167   4.657   1.912
21946W        W86931  39.216  16.547  14.263
21947W        W86932  12.430  10.169   0.722
21948W        W86933  38.828  30.069   0.725
21949W        W86934  41.514  16.745  14.501
21950W        W86935  42.081   7.811   3.383
21951W        W86936  16.486  20.470   0.163
21952W        W86937  35.410  26.553   5.059
21953W        W86938  17.363  12.617  10.703
21954W        W86939  40.889  13.097   0.465
21955W        W86940  11.113   6.296   1.595
21956W        W86941  21.400  23.761  12.035
21957W        W86942  18.765  17.439   3.537
21958W        W86943   8.232   0.191   0.829
21959W        W86944  15.397  21.854   1.577
21960W        W86945  18.106  38.924   0.197
21961W        W86946  33.848  14.982  12.469
21962W        W86947  16.834   1.033   2.696
21963W        W86948  38.740  19.459   3.211
21964W        W86949  39.514   9.310   1.297
21965W        W86950  44.433  35.080  12.897
21966W        W86951  26.257  28.763   0.515
21967W        W86952  11.730  18.169   0.890
21968W        W86953   5.641  33.965  11.619
21969W        W86954  41.236  41.752   3.518
21970W        W86955  32.085  24.159  11.532
21971W        W86956   2.791   1.186  11.161
21972W        W86957  20.939  12.553  13.324
21973W        W86958  21.176   0.873   1.459
21974W        W86959  24.597   4.374   3.673
21975W        W86960  41.458  18.830  14.235
21976W        W86961   2.386  34.340  10.955
21977W        W86962   9.386   9.178   1.383
21978W        W86963  30.136   9.169  11.649
21979W        W86964  28.481  15.622  14.008
21980W        W86965  23.093  40.348  13.755
21981W        W86966   3.842  26.431  12.514
21982W        W86967  27.079  36.948  14.945
21983W        W86968   4.564  44.100  13.694
21984W        W86969  19.118  16.232   4.109
21985W        W86970  43.571  44.486  11.879
21986W        W86971  36.400  40.505   4.694
21987W        W86972  31.193  26.069   3.628
21988W        W86973  40.462  28.653  13.925
21989W        W86974   7.705  41.004   2.876
21990W        W86975  39.805  34.673   5.362
21991W        W86976  44.107  27.109  14.780
21992W        W86977  24.029  17.175   4.579
21993W        W86978  16.242  16.155  12.953
21994W        W86979  39.377  23.323   2.316
21995W        W86980  25.567  32.427   2.635
21996W        W86981   8.896   0.280   4.480
21997W        W86982  25.734   6.187   2.454
21998W        W86983  26.550  19.827  10.748
21999W        W86984  11.896  21.006   1.771
22000W        W86985   2.312   5.451  11.926
22001W        W86986  28.369  44.054   0.129
22002W        W86987  40.568  37.379   0.398
22003W        W86988  29.642  41.821  12.950
22004W        W86989  44.901   1.030  11.555
22005W        W86990  22.736   2.320  12.536
22006W        W86991   7.841  23.318  13.516
22007W        W86992  20.712  17.296   4.551
22008W        W86993   2.384  41.995  12.714
22009W        W86994  37.692  25.700  10.532
22010W        W86995  25.321  15.224  12.895
22011W        W86996  16.125  37.383  13.780
22012W        W86997  13.874  41.197   3.205
22013W        W86998  28.310   5.894  11.905
22014W        W86999  19.762  38.883   0.338
22015W        W87000  31.644  38.434  10.887
22016W        W87001  37.146  39.889  13.851
22017W        W87002   4.855  20.672  13.895
22018W        W87003   4.374  19.552  14.949
22019W        W87004  17.822  33.891   1.766
22020W        W87005  40.716  31.410   2.061
22021W        W87006  16.807   8.837   3.574
22022W        W87007  25.436   9.629   0.977
22023W        W87008  27.197   6.165   0.784
22024W        W87009  24.919   5.686   0.602
22025W        W87010   9.718   7.144  13.870
22026W        W87011  14.309  40.424   5.345
22027W        W87012  37.960  34.558  13.094
22028W        W87013  41.578  32.715   3.422
22029W        W87014   4.079  27.822  13.586
22030W        W87015   9.337  44.835  14.879
22031W        W87016  21.186   3.788  14.985
22032W        W87017  21.175  18.643   9.692
22033W        W87018  25.076  44.044   1.756
22034W        W87019  12.519  34.538   2.676
22035W        W87020  36.452  28.675  13.525
22036W        W87021  12.308  36.021  12.409
22037W        W87022  37.920  43.910  11.950
22038W        W87023  35.085  36.680  14.328
22039W        W87024   2.427  12.881  14.975
22040W        W87025   7.204  28.460   0.701
22041W        W87026  35.308  15.744   2.784
22042W        W87027  11.663  24.087   0.837
22043W        W87028   0.300  24.854  14.367
22044W        W87029  37.458  29.166   3.760
22045W        W87030  25.462  38.048  11.247
22046W        W87031  32.437   8.121   0.973
22047W        W87032  41.464  16.418   0.327
22048W        W87033  35.515  32.910  14.783
22049W        W87034   4.210  20.659  12.446
22050W        W87035  14.233   2.185   3.233
22051W        W87036  41.366  24.055  12.790
22052W        W87037  30.019  38.907   3.272
22053W        W87038   6.405  16.570  10.115
22054W        W87039  27.532   9.149   3.817
22055W        W87040  24.548  29.971   0.942
22056W        W87041  28.008  16.750   3.878
22057W        W87042  30.388  36.459  14.569
22058W        W87043  40.457   1.476   4.618
22059W        W87044  26.982  19.952  10.502
22060W        W87045   0.901  21.129  11.568
22061W        W87046   5.111  42.491  11.044
22062W        W87047  38.386  23.775  11.111
22063W        W87048  32.634   9.850  14.810
22064W        W87049  20.725  41.895  14.411
22065W        W87050   5.132  33.992   3.399
22066W        W87051  17.375  42.181   1.705
22067W        W87052   1.436   2.762   2.835
22068W        W87053  34.591  30.917   0.879
22069W        W87054  40.471  19.355  11.556
22070W        W87055  26.098  44.480  13.605
22071W        W87056  18.015  20.263  11.040
22072W        W87057  11.643  25.622   0.523
22073W        W87058  36.030  29.624   3.833
22074W        W87059  18.796  11.493   0.353
22075W        W87060   1.835  25.502   0.351
22076W        W87061  18.642  44.536   3.673
22077W        W87062  42.104   1.997   1.977
22078W        W87063  19.871  33.869  12.951
22079W        W87064   4.804  41.536  13.027
22080W        W87065  36.357  21.645   4.092
22081W        W87066  14.314   8.709  14.439
22082W        W87067  28.513  42.951   4.784
22083W        W87068   2.181  16.905  10.671
22084W        W87069  43.261  35.510  14.083
22085W        W87070   1.375  12.131  10.707
22086W        W87071  34.357  32.354  11.929
22087W        W87072  33.525  38.427   2.645
22088W        W87073  17.525  13.689  13.183
22089W        W87074  40.293  43.390   3.825
22090W        W87075  40.401   0.993  15.000
22091W        W87076  21.052  38.711   4.490
22092W        W87077  31.244  42.888  14.771
22093W        W87078  30.330  23.236  10.739
22094W        W87079  39.535   2.332   4.624
22095W        W87080  24.733  18.773  11.103
22096W        W87081  29.886  38.133   1.671
22097W        W87082  31.141  36.559   3.875
22098W        W87083  40.497   1.291  11.181
22099W        W87084  23.473   0.862  14.290
22100W        W87085  33.871  18.108   4.009
22101W        W87086  15.519  10.260   1.675
22102W        W87087  20.275  40.458   1.151
22103W        W87088   4.730  23.483  10.812
22104W        W87089   0.362  27.681   2.965
22105W        W87090  23.804  23.175   1.199
22106W        W87091   7.674  14.124  13.411
22107W        W87092  21.040  44.605   0.347
22108W        W87093   6.359  25.069   4.618
22109W        W87094  14.613  18.994   5.149
22110W        W87095  23.671  31.494   3.916
22111W        W87096  23.414   3.843   0.422
22112W        W87097   3.443  41.309   1.655
22113W        W87098  34.465  35.062  14.315
22114W        W87099   0.532  20.380   3.896
22115W        W87100  37.515  40.778  14.466
22116W        W87101   3.779  28.491   4.776
22117W        W87102  18.590  29.504   1.755
22118W        W87103  44.406   3.870  12.789
22119W        W87104  26.058  43.579  12.586
22120W        W87105   3.508  34.914   0.111
22121W        W87106  38.832  23.983   0.747
22122W        W87107   2.325  30.651   1.204
22123W        W87108  30.206  24.265  12.490
22124W        W87109  23.785  25.267   3.720
22125W        W87110  35.523   7.622  13.427
22126W        W87111  38.269  42.511   2.824
22127W        W87112  24.055  31.928   0.053
22128W        W87113  12.901  19.239  12.370
22129W        W87114  35.429  37.449   2.864
22130W        W87115  16.520   2.786  13.453
22131W        W87116   3.628   1.759  13.432
22132W        W87117  37.786  28.085   3.279
22133W        W87118  24.475  33.486   3.632
22134W        W87119  14.976   3.188   3.315
22135W        W87120  19.201  27.329  12.781
22136W        W87121  25.387  10.359  11.112
22137W        W87122  31.381  18.195   2.643
22138W        W87123  18.098   3.861  14.306
22139W        W87124  36.668  25.688  12.371
22140W        W87125  13.070  19.148  11.539
22141W        W87126   3.958  40.502  14.851
22142W        W87127   4.272  31.596   4.390
22143W        W87128   7.705   8.807  12.782
22144W        W87129  21.169  25.672  12.494
22145W        W87130  20.480   5.844  12.032
22146W        W87131  23.749   2.944  10.455
22147W        W87132   7.951   9.590   0.734
22148W        W87133   8.842  33.330   3.186
22149W        W87134  12.280  34.462  13.109
22150W        W87135   2.466   7.452  10.695
22151W        W87136  36.940   5.916   1.346
22152W        W87137  34.198  26.385  10.753
22153W        W87138  33.656  36.401  11.585
22154W        W87139   9.501  40.002   1.749
22155W        W87140   7.336  42.788   0.469
22156W        W87141   2.400  40.864  11.379
22157W        W87142   0.880   8.251   1.440
22158W        W87143  17.593  37.896  13.307
22159W        W87144  35.161  37.515  14.808
22160W        W87145  39.213  15.568  14.084
22161W        W87146  15.642  33.896  11.424
22162W        W87147  12.171  40.072   4.385
22163W        W87148   4.011  30.930   3.537
22164W        W87149  30.949  23.902  14.276
22165W        W87150   3.184  28.961  10.996
22166W        W87151  28.182  34.175  12.463
22167W        W87152  40.840  23.780  13.385
22168W        W87153  30.074  40.110  12.062
22169W        W87154  37.085  31.507   1.843
22170W        W87155  31.202  31.276   0.361
22171W        W87156   1.096  37.839   3.016
22172W        W87157  11.941  16.289   0.367
22173W        W87158  37.500   8.355   1.396
22174W        W87159  23.760   8.899  11.784
22175W        W87160  39.575   5.735  12.514
22176W        W87161  27.709  21.131   3.355
22177W        W87162  25.294  25.607  12.052
22178W        W87163  31.980  38.467  14.271
22179W        W87164  35.947  31.979  12.098
22180W        W87165  15.593  43.665   2.315
22181W        W87166   5.492   1.944  12.582
22182W        W87167   2.618  43.762  11.605
22183W        W87168   7.914  15.088   3.178
22184W        W87169  11.483  27.954  11.413
22185W        W87170  44.807   4.453  14.440
22186W        W87171  19.428   2.383  13.600
22187W        W87172  18.716  37.824   2.281
22188W        W87173  42.248   3.710  12.591
22189W        W87174  10.694  29.022  10.927
22190W        W87175  31.108   7.801  10.656
22191W        W87176  44.534  44.257  10.282
22192W        W87177   4.860  18.298   3.756
22193W        W87178  36.760   8.852  12.468
22194W        W87179   2.562  16.744   4.218
22195W        W87180  42.032  15.106   3.131
22196W        W87181  40.318   3.981   3.271
22197W        W87182  33.024  17.615   1.332
22198W        W87183  15.788  44.130   4.640
22199W        W87184   1.454  33.466  12.000
22200W        W87185   1.151  17.557   2.288
22201W        W87186  23.364  22.811  14.430
22202W        W87187  35.897  43.993  13.813
22203W        W87188  17.351  22.061   4.629
22204W        W87189  10.244  42.573  10.856
22205W        W87190  13.430  17.669   3.396
22206W        W87191  28.129  42.324   3.598
22207W        W87192  38.866  36.583   2.200
22208W        W87193  25.541  43.886   4.460
22209W        W87194  42.025   0.739  14.863
22210W        W87195  34.102   9.704  12.905
22211W        W87196  34.961   3.394   3.836
22212W        W87197   3.273  44.795   1.886
22213W        W87198   7.435  13.429   0.009
22214W        W87199  21.955  44.049  11.148
22215W        W87200  33.914  29.131   0.910
22216W        W87201  34.630  22.029   3.298
22217W        W87202   2.168  26.113   1.298
22218W        W87203   5.785  22.234   0.275
22219W        W87204  33.128  18.663   1.068
22220W        W87205  18.128   0.780   1.134
22221W        W87206  13.742  44.936  10.541
22222W        W87207  23.273  10.807   0.909
22223W        W87208   8.737  38.602   1.828
22224W        W87209  24.414  41.783  12.035
22225W        W87210  15.696  40.176   0.893
22226W        W87211  10.863  25.762  10.681
22227W        W87212  16.706   5.376   1.287
22228W        W87213  38.434  41.328  11.598
22229W        W87214  37.504  43.452   3.736
22230W        W87215  21.636  14.122   2.369
22231W        W87216  40.588   7.796   3.811
22232W        W87217   9.882  15.423  13.118
22233W        W87218  29.039   6.329   3.076
22234W        W87219  43.915   6.258   1.925
22235W        W87220  32.042   5.599   4.859
22236W        W87221  30.860   0.487  10.575
22237W        W87222  44.279  38.548  12.692
22238W        W87223  35.094   3.093   2.125
22239W        W87224   5.186  25.196  11.480
22240W        W87225   2.753  30.035   3.259
22241W        W87226  39.094  26.718  13.127
22242W        W87227  26.722  27.121  10.305
22243W        W87228   6.389  32.373  13.806
22244W        W87229  27.090  19.109  14.492
22245W        W87230  36.160  18.639  14.755
22246W        W87231  36.845  23.217   4.586
22247W        W87232  32.963  44.992   2.435
22248W        W87233  29.530   5.152   0.037
22249W        W87234  21.607  31.375  14.337
22250W        W87235  16.744  13.768   3.659
22251W        W87236  32.602  35.854  12.930
22252W        W87237  27.658  42.153  12.789
22253W        W87238  35.473  42.095  13.527
22254W        W87239   1.743  44.196   0.273
22255W        W87240  26.905   9.175  12.560
22256W        W87241   3.677  26.475  13.438
22257W        W87242  11.185  40.386  14.354
22258W        W87243   4.345   0.500   3.330
22259W        W87244   2.523  13.806  11.654
22260W        W87245  10.526  33.650  14.888
22261W        W87246  41.936  10.217   1.748
22262W        W87247   7.433  35.623   4.071
22263W        W87248  15.597  19.475  11.597
22264W        W87249  35.217  12.747  10.094
22265W        W87250  24.339  36.171   4.201
22266W        W87251   6.213  11.125  13.927
22267W        W87252  17.916   4.334   0.784
22268W        W87253   5.481  32.191   0.838
22269W        W87254  43.996  24.054  11.539
22270W        W87255  11.336   5.896   0.894
22271W        W87256  40.893  14.643  13.331
22272W        W87257   9.237  31.462   0.331
22273W        W87258  29.520  18.851   4.329
22274W        W87259  28.849  42.861  14.633
22275W        W87260  22.290  41.748   2.489
22276W        W87261   1.926   2.603  11.405
22277W        W87262  30.896   2.036  14.399
22278W        W87263  15.859  29.121  14.886
22279W        W87264  25.679  37.807  14.154
22280W        W87265  30.716  31.096   4.154
22281W        W87266  36.418  11.327  11.379
22282W        W87267   9.157  30.236  10.448
22283W        W87268  13.576  36.924  13.824
22284W        W87269   1.193  32.884   0.896
22285W        W87270  44.792  15.779   2.351
22286W        W87271   4.410   8.296   3.428
22287W        W87272  37.957   0.543  10.988
22288W        W87273  23.834  15.545  14.028
22289W        W87274  11.250  19.220   1.617
22290W        W87275  13.399  43.247  13.448
22291W        W87276  36.946  38.570  12.600
22292W        W87277  17.646   0.308   4.298
22293W        W87278  13.151  29.858   4.429
22294W        W87279   2.952  38.621   0.712
22295W        W87280  34.868   2.972   0.332
22296W        W87281   9.398  37.885  12.119
22297W        W87282  17.035  41.289   0.313
22298W        W87283   3.440   6.924   4.061
22299W        W87284  39.109  12.161   3.328
22300W        W87285  20.118   4.366   4.473
22301W        W87286  26.846   1.889   4.002
22302W        W87287   7.022  44.966  12.877
22303W        W87288  27.398  41.356  14.290
22304W        W87289  17.746  34.971  12.328
22305W        W87290  11.835  35.073   4.524
22306W        W87291  22.178  12.665   3.688
22307W        W87292  22.126  27.728  14.802
22308W        W87293  15.823  31.359   0.448
22309W        W87294  35.125  25.530  11.449
22310W        W87295  24.727  11.314   3.197
22311W        W87296  31.240  39.325   0.359
22312W        W87297   4.898   9.249  12.327
22313W        W87298   5.540  33.160   2.919
22314W        W87299   6.783   1.901   2.268
22315W        W87300  15.750   0.918  11.141
22316W        W87301   1.813  31.963   1.880
22317W        W87302  42.464  39.451   9.547
22318W        W87303  17.968  17.847  12.721
22319W        W87304  31.431   0.422   3.619
22320W        W87305  29.566  16.873   1.696
22321W        W87306  44.492  21.480   3.191
22322W        W87307  26.198  22.497   0.978
22323W        W87308  22.587  14.021   2.491
22324W        W87309  15.796   8.417  12.656
22325W        W87310  36.372  18.542   2.836
22326W        W87311  26.286  27.895  12.511
22327W        W87312  15.511   7.705  12.775
22328W        W87313   5.215  14.472   4.971
22329W        W87314   8.011   7.653  13.479
22330W        W87315  15.294  33.502  13.095
22331W        W87316   3.951  34.674   1.757
22332W        W87317  21.715  10.581  10.766
22333W        W87318  13.567  19.011  11.603
22334W        W87319  30.207  15.647   9.950
22335W        W87320  20.017  31.606  13.667
22336W        W87321  35.356   7.822  12.993
22337W        W87322  30.478  21.054  13.498
22338W        W87323  22.566  42.422   4.099
22339W        W87324  30.476  21.516  12.410
22340W        W87325  38.271   4.741  11.852
22341W        W87326  35.062  24.519   1.733
22342W        W87327  41.337  31.079  13.093
22343W        W87328   7.342   3.160  11.573
22344W        W87329  29.573   2.501  10.146
22345W        W87330  41.556  21.936  11.518
22346W        W87331  32.508  26.988  12.124
22347W        W87332  32.371  11.864  14.022
22348W        W87333   5.804  25.627  12.531
22349W        W87334  34.137  41.183   2.937
22350W        W87335  42.310  30.010   3.002
22351W        W87336  33.110  31.644  13.447
22352W        W87337  19.612   4.257  13.351
22353W        W87338   4.755   4.901   5.111
22354W        W87339  44.795  25.188   0.955
22355W        W87340  17.747  30.618   1.848
22356W        W87341  37.568   1.425  12.217
22357W        W87342   7.617  30.964   1.875
22358W        W87343  36.913  18.555   0.451
22359W        W87344  42.555  31.205   0.482
22360W        W87345   2.735  31.456  11.620
22361W        W87346  10.757  32.711   4.581
22362W        W87347   9.238  29.604  14.839
22363W        W87348   9.714   5.403   2.186
22364W        W87349  24.237  23.270  13.450
22365W        W87350   4.851  37.073  13.052
22366W        W87351  31.218  15.279  14.483
22367W        W87352   5.944  17.339  14.956
22368W        W87353  38.835  35.478   0.156
22369W        W87354  39.157  13.841  11.011
22370W        W87355  30.498  43.392  14.521
22371W        W87356   0.952  35.306  14.038
22372W        W87357   4.416  40.026   3.290
22373W        W87358  20.793   5.702  13.202
22374W        W87359  21.050  21.988  14.430
22375W        W87360  12.283  19.977  12.119
22376W        W87361   5.376  16.142  13.178
22377W        W87362   5.905  21.018   4.702
22378W        W87363  19.128   2.771  14.488
22379W        W87364  12.261  17.311  10.756
22380W        W87365  15.829  30.068   0.005
22381W        W87366  17.083  20.776  13.059
22382W        W87367  32.550   3.698  11.013
22383W        W87368  40.026  14.072  11.671
22384W        W87369   3.425   4.841   1.247
22385W        W87370  39.086  19.031  11.477
22386W        W87371  16.842  44.873   3.780
22387W        W87372  18.865  36.128   3.136
22388W        W87373  22.633  30.176   2.468
22389W        W87374   8.335   8.880  13.633
22390W        W87375   5.966   7.725  13.887
22391W        W87376  34.704   3.433   2.120
22392W        W87377  42.979  25.490  14.282
22393W        W87378  24.154   8.228   3.821
22394W        W87379  22.601  34.199   0.989
22395W        W87380   4.880  30.677   1.644
22396W        W87381  41.348   8.832  13.087
22397W        W87382  17.134  22.246   0.085
22398W        W87383  30.103  30.591  14.541
22399W        W87384  18.122   4.395   3.988
22400W        W87385  37.399  29.116   0.538
22401W        W87386  17.580  34.946   3.195
22402W        W87387  22.436  30.976  14.293
22403W        W87388  17.574  42.690  13.938
22404W        W87389  13.443  41.574   5.154
22405W        W87390  22.385  10.311  13.508
22406W        W87391   3.764  22.304   4.482
22407W        W87392  17.554  25.652  13.460
22408W        W87393   0.756  35.956  12.399
22409W        W87394  39.238  40.805   4.729
22410W        W87395  34.400  22.481  14.016
22411W        W87396  44.863   2.405   0.894
22412W        W87397   6.803   3.697   2.873
22413W        W87398   9.372   4.054   1.427
22414W        W87399  19.474   9.894  11.239
22415W        W87400  43.297  36.764   2.125
22416W        W87401  36.961   5.933  14.335
22417W        W87402  36.037  44.398  11.982
22418W        W87403  42.542   3.916  14.386
22419W        W87404  12.652   0.973  11.147
22420W        W87405  35.485  31.806  13.943
22421W        W87406  30.951  28.138   4.133
22422W        W87407  44.242   4.916  12.571
22423W        W87408  30.129  22.410  12.410
22424W        W87409  11.803   2.232   0.048
22425W        W87410  43.967   4.381  11.617
22426W        W87411  22.133  19.653   1.673
22427W        W87412  44.873  34.171  10.914
22428W        W87413   9.054  21.727   4.494
22429W        W87414  33.514  36.110   4.640
22430W        W87415  31.473   9.075  13.037
22431W        W87416   3.134  40.487   4.498
22432W        W87417  28.891  41.341   3.264
22433W        W87418  25.709  26.041   4.607
22434W        W87419  32.668  27.032   3.203
22435W        W87420   6.564  19.578  12.113
22436W        W87421   9.972  36.636   4.273
22437W        W87422   1.397  26.623   1.426
22438W        W87423   4.811  25.821   2.498
22439W        W87424  20.172   1.528   1.648
22440W        W87425  40.924  42.822  10.119
22441W        W87426  27.629  14.810  13.715
22442W        W87427  12.657   8.429   0.419
22443W        W87428   3.214   9.879   3.538
22444W        W87429  29.837  17.223  11.660
22445W        W87430  38.478  20.155   0.013
22446W        W87431  22.582   3.695   4.941
22447W        W87432  16.378   1.988   4.654
22448W        W87433  33.008  24.232   2.698
22449W        W87434   9.608  16.734  14.460
22450W        W87435  27.230  22.496  12.957
22451W        W87436   9.171  23.432  11.663
22452W        W87437  34.069   6.830   3.060
22453W        W87438  41.328  41.421  10.741
22454W        W87439  13.793  33.503  11.981
22455W        W87440  39.187  36.153   3.538
22456W        W87441  12.829  25.102   4.553
22457W        W87442  31.876  32.219  13.083
22458W        W87443  33.302  19.064   1.362
22459W        W87444   4.817  39.671   3.265
22460W        W87445  38.101  38.339  14.550
22461W        W87446  40.732   5.248  13.402
22462W        W87447   1.761  35.139   0.818
22463W        W87448  35.621  13.915   3.292
22464W        W87449  27.985   3.391  12.083
22465W        W87450   8.425  14.318   4.317
22466W        W87451   3.244  33.326  14.990
22467W        W87452  22.437  36.101  13.522
22468W        W87453  17.184  10.275   0.316
22469W        W87454  11.369  10.203   0.916
22470W        W87455  31.117  19.525   4.136
22471W        W87456  30.951   1.048   2.918
22472W        W87457  28.053  28.360   2.383
22473W        W87458  21.659   6.761   4.276
22474W        W87459   2.794  21.441   4.172
22475W        W87460  14.206  14.394  11.003
22476W        W87461  18.094  25.509  11.413
22477W        W87462  36.544   7.723   2.258
22478W        W87463  22.417  30.582   3.736
22479W        W87464  16.581  44.404  10.609
22480W        W87465  28.955   0.873   2.106
22481W        W87466  33.669  10.717   0.040
22482W        W87467  19.655   0.530  13.648
22483W        W87468  13.614   4.414  11.137
22484W        W87469  27.760   0.461  13.344
22485W        W87470  39.421  29.866  14.593
22486W        W87471  42.238   9.658  14.679
22487W        W87472  15.675  21.656  10.937
22488W        W87473  33.734  28.066   4.852
22489W        W87474  23.136  22.500  14.072
22490W        W87475  30.987   6.675  14.426
22491W        W87476  40.836  10.261   3.253
22492W        W87477  10.329  20.069   1.195
22493W        W87478   3.649  38.396   2.719
22494W        W87479  18.803  11.648  10.586
22495W        W87480  40.132  29.102  14.084
22496W        W87481  21.990  25.229   0.392
22497W        W87482   8.844   9.721   4.786
22498W        W87483  32.909  27.011  11.683
22499W        W87484   6.187   9.212  14.974
22500W        W87485  44.318  39.411   2.283
22501W        W87486  12.609   0.843  11.646
22502W        W87487  26.278  14.249  14.399
22503W        W87488  20.110  15.961   4.199
22504W        W87489   3.538  38.491   4.838
22505W        W87490   8.127  40.917   0.590
22506W        W87491  20.861   9.810  14.949
22507W        W87492  36.993  22.803   0.370
22508W        W87493  35.617   7.188   3.261
22509W        W87494  25.526  16.847  11.174
22510W        W87495  19.075  37.292   0.818
22511W        W87496   7.861  30.339  10.599
22512W        W87497  15.638  36.394  12.473
22513W        W87498   7.348  35.399  10.718
22514W        W87499  38.291  35.428   9.892
22515W        W87500  19.218  35.889  11.693
22516W        W87501  13.619  30.609  13.556
22517W        W87502  37.543   3.513  11.582
22518W        W87503  19.316  20.272   0.116
22519W        W87504  42.685   9.834  12.729
22520W        W87505  14.383  19.026  14.894
22521W        W87506  13.375   3.991  10.957
22522W        W87507  30.259  16.030   2.309
22523W        W87508   9.030  25.956   3.184
22524W        W87509   0.407  34.542  10.841
22525W        W87510  37.609   7.392   5.155
22526W        W87511  19.137   8.830   4.042
22527W        W87512  10.105  13.612   2.551
22528W        W87513  26.995   8.576  11.679
22529W        W87514  33.000  27.107  14.376
22530W        W87515  19.010  35.121  13.527
22531W        W87516  31.806   6.702   4.185
22532W        W87517  15.156   8.918   1.216
22533W        W87518  41.858   5.731   4.642
22534W        W87519  23.053   3.090  11.318
22535W        W87520  13.925  28.222   3.658
22536W        W87521  27.739  29.294  11.147
22537W        W87522  40.082  34.567   2.637
22538W        W87523   3.036  29.590  11.580
22539W        W87524   8.631  42.259   2.211
22540W        W87525  40.306  28.711   3.564
22541W        W87526  25.273  19.242  13.435
22542W        W87527  17.691  15.279  11.543
22543W        W87528  10.213  18.612   4.088
22544W        W87529  40.277  31.352   1.401
22545W        W87530   9.686  35.111  11.695
22546W        W87531  29.047  29.683  13.816
22547W        W87532  39.349   3.182  14.042
22548W        W87533  26.132   5.329   0.238
22549W        W87534  25.005  27.452  14.305
22550W        W87535  26.412   4.848  12.042
22551W        W87536  21.987   6.937   0.403
22552W        W87537   5.103  30.965   4.356
22553W        W87538   9.802  12.157   2.077
22554W        W87539   7.606  28.997  14.063
22555W        W87540   9.603   3.539   1.515
22556W        W87541  29.509  41.161   4.288
22557W        W87542   5.197  41.426  14.631
22558W        W87543  29.716   5.953   1.298
22559W        W87544  44.772  28.039  13.985
22560W        W87545  19.130  39.052  14.383
22561W        W87546   5.248   0.729   1.882
22562W        W87547  39.777  19.207  10.760
22563W        W87548   3.134  12.699  10.402
22564W        W87549  24.721  43.009  10.713
22565W        W87550   9.681  20.156   3.577
22566W        W87551  25.011   9.079  11.082
22567W        W87552  24.520  18.704   3.091
22568W        W87553  43.008  38.579  14.559
22569W        W87554  25.529   2.352  10.194
22570W        W87555  21.319  20.975   3.741
22571W        W87556  22.122  34.789  14.555
22572W        W87557  24.232  39.074   3.763
22573W        W87558  30.615  27.344   3.240
22574W        W87559  43.379  26.431   1.716
22575W        W87560  35.012   5.851   3.109
22576W        W87561  41.706  30.649   0.473
22577W        W87562  21.968  23.114  13.430
22578W        W87563  25.636  34.666   3.316
22579W        W87564  15.524  14.258   3.352
22580W        W87565  41.298  28.061   3.775
22581W        W87566   3.251  27.163  10.808
22582W        W87567  13.339  26.444  14.959
22583W        W87568  34.102   7.203   4.263
22584W        W87569  35.084   8.790   1.743
22585W        W87570  43.718  12.954   4.041
22586W        W87571  41.519  24.985  13.837
22587W        W87572   0.758  22.528  10.574
22588W        W87573  19.573  36.035   1.383
22589W        W87574  33.941  29.628   0.835
22590W        W87575   5.703  23.076  10.635
22591W        W87576  19.452   5.757  11.095
22592W        W87577  18.330  13.356  12.155
22593W        W87578   3.594   3.959  12.001
22594W        W87579  15.165  36.200  12.569
22595W        W87580  19.954  31.967  11.573
22596W        W87581   7.783  24.797   2.375
22597W        W87582  39.579  16.163   4.635
22598W        W87583  41.799  27.703   4.055
22599W        W87584   5.668  32.566   4.549
22600W        W87585  15.745  28.681   2.206
22601W        W87586  37.955  32.169   2.737
22602W        W87587  16.607  21.989   0.762
22603W        W87588  14.627   9.337  13.776
22604W        W87589  21.205   4.877  14.876
22605W        W87590  10.727   9.220  11.671
22606W        W87591  22.484   9.310  14.859
22607W        W87592  35.239  21.758  10.459
22608W        W87593  16.647  40.767   1.758
22609W        W87594  38.996  26.476   0.812
22610W        W87595   8.189  13.603  12.903
22611W        W87596   1.430  34.446  10.768
22612W        W87597  27.190  21.743   0.674
22613W        W87598  31.543   4.319   2.306
22614W        W87599  25.525  21.108   0.896
22615W        W87600   0.854  37.602   3.660
22616W        W87601  37.441  18.792   3.245
22617W        W87602  23.144  42.838  10.661
22618W        W87603  32.162  26.995   3.210
22619W        W87604   2.248  33.537   1.838
22620W        W87605  12.296  15.381  14.766
22621W        W87606  25.266  38.005   0.885
22622W        W87607  26.585   8.873   1.279
22623W        W87608   1.411  35.121  11.222
22624W        W87609  12.607   3.948  14.540
22625W        W87610   6.333  22.647   4.697
22626W        W87611  19.148  44.352   3.655
22627W        W87612   2.891  35.859  12.684
22628W        W87613   8.838  13.277   0.474
22629W        W87614  43.854   0.102  14.024
22630W        W87615   3.108  21.132   0.332
22631W        W87616  40.432  30.900   0.544
22632W        W87617  31.671   7.989   1.900
22633W        W87618   8.129  31.345  12.116
22634W        W87619  10.157  11.281   2.276
22635W        W87620  26.656  36.537  11.182
22636W        W87621  40.040  43.903   3.561
22637W        W87622  17.546  25.098  10.786
22638W        W87623  26.910   2.751  11.607
22639W        W87624  41.254  29.469   2.441
22640W        W87625  11.919  38.883  12.345
22641W        W87626   6.096  17.583   0.411
22642W        W87627   2.493  25.967  11.212
22643W        W87628   6.703  10.038  11.534
22644W        W87629  44.971  25.836  14.356
22645W        W87630  11.165  33.342   1.900
22646W        W87631  18.834   4.792  10.720
22647W        W87632  17.722  37.372  10.896
22648W        W87633   5.889   9.375  12.021
22649W        W87634  44.828  31.641  13.393
22650W        W87635  22.045   7.686  12.372
22651W        W87636   8.551  35.101  12.095
22652W        W87637  28.470  24.095  13.924
22653W        W87638  41.988  21.573   4.600
22654W        W87639   3.787  34.768  11.802
22655W        W87640   9.853  22.205  14.423
22656W        W87641  17.072  22.454  13.752
22657W        W87642  28.476  28.977  11.568
22658W        W87643  17.323  28.983   0.040
22659W        W87644  19.196  39.210  11.124
22660W        W87645  35.995   9.693   4.978
22661W        W87646   5.601   7.400  14.556
22662W        W87647   7.180  43.714   0.728
22663W        W87648   9.121  28.385  13.261
22664W        W87649  29.013  37.093   1.828
22665W        W87650  33.565  34.576   0.402
22666W        W87651  28.944   2.865  11.179
22667W        W87652  12.580   2.761  13.106
22668W        W87653   1.064   9.226   3.157
22669W        W87654  24.601  25.653   0.807
22670W        W87655  19.759  13.685  13.877
22671W        W87656  39.297  28.516  14.779
22672W        W87657  28.923  44.656   4.518
22673W        W87658  26.652  33.960  12.223
22674W        W87659   3.443  12.103  12.058
22675W        W87660   7.170  30.619  13.409
22676W        W87661  12.837  15.155  12.408
22677W        W87662  32.325  30.616   2.763
22678W        W87663   7.732  35.066  12.402
22679W        W87664  14.907   2.308   4.701
22680W        W87665  40.894  40.671  10.921
22681W        W87666   5.733  40.559  11.718
22682W        W87667   2.814  43.985   1.892
22683W        W87668  18.175   6.698  10.266
22684W        W87669  34.859  18.248   3.814
22685W        W87670  28.210  21.073   2.487
22686W        W87671   6.694  12.571  13.643
22687W        W87672  35.170  16.946   0.397
22688W        W87673  42.510  16.882   1.832
22689W        W87674  14.539   0.220  14.802
22690W        W87675  20.004  30.953  13.999
22691W        W87676   2.053  10.481  12.562
22692W        W87677  18.228  16.099  10.755
22693W        W87678   4.446  11.122   1.702
22694W        W87679  32.854  35.993  13.385
22695W        W87680   5.221  34.188   4.563
22696W        W87681  41.243   0.455  10.838
22697W        W87682  36.519  30.685   5.022
22698W        W87683  40.947  22.845   3.242
22699W        W87684  34.884  32.335   0.852
22700W        W87685  15.619  35.118  11.917
22701W        W87686  42.528  23.788  14.337
22702W        W87687  43.293  24.510   3.337
22703W        W87688  15.825   2.657   2.724
22704W        W87689  40.964  32.912   1.917
22705W        W87690  43.707  18.460   4.275
22706W        W87691  42.534  30.380   3.949
22707W        W87692  41.187   7.767  14.242
22708W        W87693  25.061  14.739  12.143
22709W        W87694  15.118   1.382  13.561
22710W        W87695  10.762  27.385  13.599
22711W        W87696  15.285  10.514   2.259
22712W        W87697  42.412  29.704  13.543
22713W        W87698   5.906  24.903  11.003
22714W        W87699  28.451  31.953   1.480
22715W        W87700  10.621  38.130  11.608
22716W        W87701  41.829  22.713   3.743
22717W        W87702  33.834  39.938  12.244
22718W        W87703  43.037  17.705   1.430
22719W        W87704  29.602  42.584  12.472
22720W        W87705  24.267   0.032   3.209
22721W        W87706  13.664  30.152  14.767
22722W        W87707  20.799  17.532   2.634
22723W        W87708  27.541  24.198  13.690
22724W        W87709  33.345   7.559   3.165
22725W        W87710   9.502  23.336   3.899
22726W        W87711  38.568  42.040  13.341
22727W        W87712  24.606   7.368   0.596
22728W        W87713  29.577   8.874  12.316
22729W        W87714  25.378  41.568   1.725
22730W        W87715  19.587  35.050   3.777
22731W        W87716   1.318  11.030  12.572
22732W        W87717  24.269   9.005   2.139
22733W        W87718  37.134  40.681  13.195
22734W        W87719  28.383  43.337  12.623
22735W        W87720  19.791   6.728  11.136
22736W        W87721  33.010  29.110  13.371
22737W        W87722  43.887  40.963   3.636
22738W        W87723  43.459  38.601   0.792
22739W        W87724  19.651  44.237   3.127
22740W        W87725   6.333   6.705   1.119
22741W        W87726   5.864  28.026   3.373
22742W        W87727   3.853  38.887  11.611
22743W        W87728  29.963  38.936   4.336
22744W        W87729  42.282   2.396   0.361
22745W        W87730   8.257  36.107   2.729
22746W        W87731  20.849  35.661  10.679
22747W        W87732  10.923  18.637  13.109
22748W        W87733  27.061  17.578  13.422
22749W        W87734  21.716  36.779  14.932
22750W        W87735  25.125  36.198  12.105
22751W        W87736  43.451   5.641  10.477
22752W        W87737  44.051  20.863   0.910
22753W        W87738  36.181   9.450   1.729
22754W        W87739  16.668   8.244  13.522
22755W        W87740  40.168  17.723   3.584
22756W        W87741  10.920  37.369   1.821
22757W        W87742   0.769  31.430   4.512
22758W        W87743  19.243   1.136   2.207
22759W        W87744   4.432  28.406  14.370
22760W        W87745   8.042  15.462  14.392
22761W        W87746  19.205   5.877  11.555
22762W        W87747  16.071  13.334   1.404
22763W        W87748  28.252  29.136  13.392
22764W        W87749  16.577  18.283   2.232
22765W        W87750   3.370  36.013   0.575
22766W        W87751  26.609  18.696  11.962
22767W        W87752   6.869  18.216   0.235
22768W        W87753  37.354  39.394   4.070
22769W        W87754  32.012  24.524   4.098
22770W        W87755  35.947  42.496   3.860
22771W        W87756  21.806  10.562  13.764
22772W        W87757  33.544  44.437   4.054
22773W        W87758   9.381   5.607   0.315
22774W        W87759  43.921  13.872  13.065
22775W        W87760  32.850  11.755  13.867
22776W        W87761  21.727   6.245   2.723
22777W        W87762  18.912   5.383   4.582
22778W        W87763  40.476  12.878  10.977
22779W        W87764  31.406   7.229  13.505
22780W        W87765  13.616  17.495  14.471
22781W        W87766  42.509  44.847   2.322
22782W        W87767  30.523  32.048  12.085
22783W        W87768  21.189  37.551   3.804
22784W        W87769   8.128  29.933   2.803
22785W        W87770  10.168  33.024   3.247
22786W        W87771  11.497   3.505  13.647
22787W        W87772  26.974  31.025  11.375
22788W        W87773   2.879  41.020  11.142
22789W        W87774   4.682  40.302   0.360
22790W        W87775  26.265  28.524   0.043
22791W        W87776  34.122  28.947  12.115
22792W        W87777  10.081  41.065  10.757
22793W        W87778  21.599  22.766   0.796
22794W        W87779  33.376   2.916  11.793
22795W        W87780  35.160  17.468  12.006
22796W        W87781  39.825  16.469   3.995
22797W        W87782  15.099  44.729  12.975
22798W        W87783   2.980  44.465  12.235
22799W        W87784  40.670  33.275  11.681
22800W        W87785   9.727  34.981   4.192
22801W        W87786   5.423  31.625  11.560
22802W        W87787   9.082  15.330   1.372
22803W        W87788  14.278  40.554  11.218
22804W        W87789  30.458  13.421   1.848
22805W        W87790  30.760  13.141   0.239
22806W        W87791  18.051  30.970  11.281
22807W        W87792  21.675  14.392   1.620
22808W        W87793  34.536  37.394   1.777
22809W        W87794   0.348  37.577   2.422
22810W        W87795  12.210   0.075   0.858
22811W        W87796  29.890  21.706  14.037
22812W        W87797  41.501  41.470   4.762
22813W        W87798  25.964  43.231   5.041
22814W        W87799  34.250  13.707   4.561
22815W        W87800  18.519  32.797  11.166
22816W        W87801  19.192  11.172  12.990
22817W        W87802  29.857  40.319   4.416
22818W        W87803  38.501  21.751   2.156
22819W        W87804  11.906   0.958   2.748
22820W        W87805  20.830  20.048   1.989
22821W        W87806  15.449  37.647   5.199
22822W        W87807   4.335  11.780   4.234
22823W        W87808  26.529  28.372   3.289
22824W        W87809  10.413  33.490   3.228
22825W        W87810   5.139  21.180   0.887
22826W        W87811  43.374  35.289   3.223
22827W        W87812  42.971  23.574   0.386
22828W        W87813  18.691  25.949  10.663
22829W        W87814   5.405   2.896  13.433
22830W        W87815   8.260  40.819  12.865
22831W        W87816  18.463  37.538   2.656
22832W        W87817   1.545  37.369  11.177
22833W        W87818  36.091  28.704  11.550
22834W        W87819  40.199  33.300   3.616
22835W        W87820  38.375   0.955  14.884
22836W        W87821  13.614  32.504  13.817
22837W        W87822   2.373  12.408   4.097
22838W        W87823  29.830  29.535  14.907
22839W        W87824  33.063  27.558   3.679
22840W        W87825  22.629  33.116   4.117
22841W        W87826  21.660  16.512   2.635
22842W        W87827  18.666  11.611  14.301
22843W        W87828  35.890  44.378  14.213
22844W        W87829  17.561   7.627  12.847
22845W        W87830  13.790  39.445  14.486
22846W        W87831  32.867   7.197   1.762
22847W        W87832  19.745   3.865   1.912
22848W        W87833  39.841  36.432   5.117
22849W        W87834  34.379  39.533   0.222
22850W        W87835  12.752  37.631  11.016
22851W        W87836  33.896  37.015   3.296
22852W        W87837  32.692   7.549  14.756
22853W        W87838  13.018  42.896  14.590
22854W        W87839   2.706  27.723  12.781
22855W        W87840  33.284  17.179   4.618
22856W        W87841  13.727   9.578   1.794
22857W        W87842  23.405  43.637   3.235
22858W        W87843  25.089  43.320  14.574
22859W        W87844   2.382   9.350  14.458
22860W        W87845  15.486  35.392   3.803
22861W        W87846  10.366  38.855   4.924
22862W        W87847  24.407  23.522  14.918
22863W        W87848  43.921  27.206  12.335
22864W        W87849  14.138  13.827   1.853
22865W        W87850   0.151  41.027  12.015
22866W        W87851  30.400  17.213  13.952
22867W        W87852  15.556  37.811   2.337
22868W        W87853  38.879  21.056   5.054
22869W        W87854  11.679  42.518   1.324
22870W        W87855  26.782  32.296   2.319
22871W        W87856  37.021  39.864   1.517
22872W        W87857  26.199  44.407   0.934
22873W        W87858  39.029  26.702   0.344
22874W        W87859  17.125  37.598  14.120
22875W        W87860  24.189  21.575  11.214
22876W        W87861   8.222  39.788   0.850
22877W        W87862  28.645  17.628   0.964
22878W        W87863  31.937  15.350   4.556
22879W        W87864  29.235  41.847  14.720
22880W        W87865  21.180  40.819   3.784
22881W        W87866  32.391   7.122   3.968
22882W        W87867  29.477  37.434  14.038
22883W        W87868  26.634  13.703   0.737
22884W        W87869   5.903  33.113   1.977
22885W        W87870  44.071  22.255  11.236
22886W        W87871  38.749  17.336  11.853
22887W        W87872  16.802  29.412  12.699
22888W        W87873   8.761  27.379   1.304
22889W        W87874   7.784  35.794  12.998
22890W        W87875  15.202  33.153   4.089
22891W        W87876   2.921  41.730  14.311
22892W        W87877  27.974  32.544  14.373
22893W        W87878  40.932   2.472  11.124
22894W        W87879  15.791  35.059   1.077
22895W        W87880  36.528  44.994   2.258
22896W        W87881  11.813   9.914   1.685
22897W        W87882  32.068  11.149  13.044
22898W        W87883  27.772  22.192   3.741
22899W        W87884   8.613  27.903   2.760
22900W        W87885  35.361  30.646   4.367
22901W        W87886  35.546  22.034  14.560
22902W        W87887  10.394  42.899   2.401
22903W        W87888  32.047   6.448  14.865
22904W        W87889  43.387   3.951  12.975
22905W        W87890  15.605  24.943  14.356
22906W        W87891   3.242   1.386  13.496
22907W        W87892  31.105  24.087  11.302
22908W        W87893  18.281   6.208   2.763
22909W        W87894   5.406  30.588   2.966
22910W        W87895  11.507  30.917  13.051
22911W        W87896  39.847   8.022   1.326
22912W        W87897  28.318  39.446   0.784
22913W        W87898  13.413   2.012  11.436
22914W        W87899  10.153  16.704  14.464
22915W        W87900   6.760  13.936  10.765
22916W        W87901  26.144  34.983   3.462
22917W        W87902   1.170  15.399  11.942
22918W        W87903   8.622  41.369   4.338
22919W        W87904  15.347  23.791  11.079
22920W        W87905   9.669  18.928  14.106
22921W        W87906   2.976  25.420  14.638
22922W        W87907  42.307   9.860   1.311
22923W        W87908  35.400   2.763   2.398
22924W        W87909   4.831  26.042  10.488
22925W        W87910  20.094  16.592   0.298
22926W        W87911  30.852  13.806  13.037
22927W        W87912  27.978  19.798  10.301
22928W        W87913   1.191   6.430  11.639
22929W        W87914  36.873  35.585   0.751
22930W        W87915  34.385  26.650   1.803
22931W        W87916  40.521  44.382  11.026
22932W        W87917  20.937  23.043  11.849
22933W        W87918  38.922  32.884  11.374
22934W        W87919  34.135  24.649  13.799
22935W        W87920  42.198  29.214   2.404
22936W        W87921  16.060   7.484  13.472
22937W        W87922  24.210  42.438  12.897
22938W        W87923  18.594   8.290   3.645
22939W        W87924  18.548  31.280   2.319
22940W        W87925  28.689  36.008   0.944
22941W        W87926  43.793  39.899  13.047
22942W        W87927  40.929  44.893   0.931
22943W        W87928  13.565  15.523   4.165
22944W        W87929  13.229  44.808   1.558
22945W        W87930   2.705  27.187  10.679
22946W        W87931  10.093   0.593   3.861
22947W        W87932  30.022   9.184   3.261
22948W        W87933   8.246   8.869  11.235
22949W        W87934  19.179  17.064   1.279
22950W        W87935  24.825  15.294  13.044
22951W        W87936   8.094  31.399   3.725
22952W        W87937  17.346  13.750   3.232
22953W        W87938  28.227  15.592   3.334
22954W        W87939  23.032  26.071   4.575
22955W        W87940  25.047   9.149   4.788
22956W        W87941   0.364  30.101  11.422
22957W        W87942  29.436   8.218   2.324
22958W        W87943  36.976  27.234   0.192
22959W        W87944  10.610  36.024   3.346
22960W        W87945  33.072  10.339  13.973
22961W        W87946  31.879  25.259  11.584
22962W        W87947  20.396   8.480   0.726
22963W        W87948   3.150  34.027  10.723
22964W        W87949  32.976  15.477  13.529
22965W        W87950   3.801  16.516   1.236
22966W        W87951  20.790  34.903   2.348
22967W        W87952  32.284  17.692  11.602
22968W        W87953   1.086  33.860  14.464
22969W        W87954  27.025  37.116   1.246
22970W        W87955  38.360  11.127   3.611
22971W        W87956   2.416  39.919   3.599
22972W        W87957  36.502  12.747   4.592
22973W        W87958  23.145  27.475  11.387
22974W        W87959  34.583  15.142   4.323
22975W        W87960  18.802  17.631   5.036
22976W        W87961  16.544   6.225   2.634
22977W        W87962  14.293  21.730  11.619
22978W        W87963  38.399  11.878  13.377
22979W        W87964  42.678  13.833  13.928
22980W        W87965  11.120  37.904   2.285
22981W        W87966  25.479  43.438   3.330
22982W        W87967   4.370  38.984  12.419
22983W        W87968  18.849   7.788   4.496
22984W        W87969   4.179  35.956   2.769
22985W        W87970  34.850  15.611   3.652
22986W        W87971  20.501  23.565   0.392
22987W        W87972  15.128  16.520   4.092
22988W        W87973   2.212  18.191   4.564
22989W        W87974  20.728  14.035   2.388
22990W        W87975   3.293  26.733  13.159
22991W        W87976  34.471  18.017   1.842
22992W        W87977  34.041   1.864  11.029
22993W        W87978  25.276  21.562  12.074
22994W        W87979  30.933  43.753   1.665
22995W        W87980  26.882  21.150  12.965
22996W        W87981  21.106  16.753   1.257
22997W        W87982  15.280  42.139   3.247
22998W        W87983   5.507  43.913   3.647
22999W        W87984  21.713   1.565  11.599
23000W        W87985  31.426  12.632   4.857
23001W        W87986   6.909  41.989   2.187
23002W        W87987  29.568  42.126  10.680
23003W        W87988  13.075  39.380  13.974
23004W        W87989   2.999  42.505  13.917
23005W        W87990  24.433  21.366  14.261
23006W        W87991  38.083  36.013   0.494
23007W        W87992   7.288  31.485   4.869
23008W        W87993   8.273  27.179   1.321
23009W        W87994  35.549   0.925   2.306
23010W        W87995  18.612   3.323  14.977
23011W        W87996   2.545  44.951  14.648
23012W        W87997  40.458  39.304  10.673
23013W        W87998  38.995  19.549  12.903
23014W        W87999  42.516  25.972  14.808
23015W        W88000  11.425  16.183   0.256
23016W        W88001  16.234  18.543  12.486
23017W        W88002  22.470  26.465   0.958
23018W        W88003  27.637  10.304  10.270
23019W        W88004  26.451   0.370   1.260
23020W        W88005  18.352  15.787   1.269
23021W        W88006  38.002  15.203  10.430
23022W        W88007   4.714  40.864  14.787
23023W        W88008  15.370  18.521  12.404
23024W        W88009  22.162   2.413  11.647
23025W        W88010  14.039   6.410   2.414
23026W        W88011  16.744  34.864  13.730
23027W        W88012  19.146  16.717  10.197
23028W        W88013  12.108  15.697   2.202
23029W        W88014  37.800   5.768   1.845
23030W        W88015  29.515  17.180   4.653
23031W        W88016  27.413  33.875  13.770
23032W        W88017  12.831  10.252   3.635
23033W        W88018  25.041   5.342  12.458
23034W        W88019  23.541  44.514   2.702
23035W        W88020  21.794   5.779   4.147
23036W        W88021  27.927  38.988   4.546
23037W        W88022   2.322  41.494   0.881
23038W        W88023  17.548  16.810  13.773
23039W        W88024   1.949  17.745  14.510
23040W        W88025  41.979   5.933   1.273
23041W        W88026   0.520  26.514   4.552
23042W        W88027  15.811  27.078  12.415
23043W        W88028  42.572  28.107   2.565
23044W        W88029   6.450  15.375   2.359
23045W        W88030  20.108  40.516  11.626
23046W        W88031  44.814  42.296   3.751
23047W        W88032  39.100  19.970   2.290
23048W        W88033  40.518  18.074  13.382
23049W        W88034   4.844  35.650   3.387
23050W        W88035  13.763  34.597   2.172
23051W        W88036   8.317   5.667   0.937
23052W        W88037  40.433   4.397  12.060
23053W        W88038  20.104  20.698   0.628
23054W        W88039  18.593  12.041   4.538
23055W        W88040  25.198   4.659   1.704
23056W        W88041   7.939   2.116   2.377
23057W        W88042  18.273  35.369  13.977
23058W        W88043  40.273  11.129  12.406
23059W        W88044  43.024  33.611  10.814
23060W        W88045   2.001  44.910   3.024
23061W        W88046  27.973  33.469   2.850
23062W        W88047  44.819  17.191   0.659
23063W        W88048   8.834  36.633   0.807
23064W        W88049  27.553  19.133   4.147
23065W        W88050   0.372  25.998   4.739
23066W        W88051  30.922   9.774  10.983
23067W        W88052  13.886   6.634  13.831
23068W        W88053  28.458  34.973  10.706
23069W        W88054  21.693  32.404   5.537
23070W        W88055  26.634  21.838   0.471
23071W        W88056  18.006  31.240  12.199
23072W        W88057  41.787  25.737   1.886
23073W        W88058   5.674  29.117  13.504
23074W        W88059   5.890   4.616  13.798
23075W        W88060  34.532  33.875   3.887
23076W        W88061  16.754   7.826   2.283
23077W        W88062   3.384  14.413   4.186
23078W        W88063  41.565  18.633  12.082
23079W        W88064  28.553  22.470  11.330
23080W        W88065  44.770  38.972  14.419
23081W        W88066  24.481  35.599   3.518
23082W        W88067  40.322   7.918   4.232
23083W        W88068  32.845   3.717   4.744
23084W        W88069  13.098  32.883  11.090
23085W        W88070   5.431  14.330   3.250
23086W        W88071  43.800  12.508   2.742
23087W        W88072  38.953  18.546  12.903
23088W        W88073  21.497  29.467  13.440
23089W        W88074  22.039  36.058  11.034
23090W        W88075  32.048   1.674   4.115
23091W        W88076  44.274  23.915   4.100
23092W        W88077  14.901  32.208  14.814
23093W        W88078   1.638  19.950  11.505
23094W        W88079   0.899  41.301  14.119
23095W        W88080  28.602  43.065   3.745
23096W        W88081  34.296   5.932  11.413
23097W        W88082  38.327   0.253  12.165
23098W        W88083   9.868   4.330  11.405
23099W        W88084  40.849   3.500   3.773
23100W        W88085  17.209  27.213  13.861
23101W        W88086  28.954  22.671   4.859
23102W        W88087  35.086  20.690  13.995
23103W        W88088  33.989  15.112   4.822
23104W        W88089   0.666  31.580   3.708
23105W        W88090   6.333  31.693  14.328
23106W        W88091  31.158  34.344  11.112
23107W        W88092  13.278  28.906  11.055
23108W        W88093   3.215  37.001   0.950
23109W        W88094  37.862   4.335  13.361
23110W        W88095   4.270  30.395   1.780
23111W        W88096  28.143  26.428   2.300
23112W        W88097  32.236   7.099  12.933
23113W        W88098   3.864  16.621   0.749
23114W        W88099  34.089  10.226  11.086
23115W        W88100   5.121   5.915   9.960
23116W        W88101   6.874  28.636  10.682
23117W        W88102  22.167  26.603   3.182
23118W        W88103  35.587   8.768   1.423
23119W        W88104  36.911  35.509  13.700
23120W        W88105  22.255   0.968   3.311
23121W        W88106  24.770  15.863   1.870
23122W        W88107  42.491  31.967   0.011
23123W        W88108  15.343   3.704   0.726
23124W        W88109  28.728   0.786  11.241
23125W        W88110   0.614  15.493  11.859
23126W        W88111  24.706  38.611  12.684
23127W        W88112  44.716  28.119  13.165
23128W        W88113  14.101  26.055  14.445
23129W        W88114   0.988  15.709   5.008
23130W        W88115  42.899  14.078   1.843
23131W        W88116  11.433   2.297   3.929
23132W        W88117   2.637  43.795   2.353
23133W        W88118  19.024  12.055  14.126
23134W        W88119  20.067  39.573  13.979
23135W        W88120   7.428  19.325   0.329
23136W        W88121   9.292  24.122   3.404
23137W        W88122   7.929  12.719  12.320
23138W        W88123  33.657  12.389   3.768
23139W        W88124  28.900  38.984  11.183
23140W        W88125  15.075  44.779   3.234
23141W        W88126  40.042  27.941  11.572
23142W        W88127  18.781  21.573   0.283
23143W        W88128  43.367  40.417  13.701
23144W        W88129  11.156   6.105  13.478
23145W        W88130  43.877  33.641   2.943
23146W        W88131  21.275  10.107  14.966
23147W        W88132  36.553  30.128   2.389
23148W        W88133  38.536  16.010   3.303
23149W        W88134  31.806  14.342  11.537
23150W        W88135  38.387  31.430  10.975
23151W        W88136  42.285  37.428   1.780
23152W        W88137   2.379  22.762   0.275
23153W        W88138  18.323   4.701  10.712
23154W        W88139  29.897  39.794   3.246
23155W        W88140   7.514  38.920   9.924
23156W        W88141  29.066  12.286  12.626
23157W        W88142  15.686  34.320   1.919
23158W        W88143  41.021   0.117  13.938
23159W        W88144  24.850  36.483  13.263
23160W        W88145  42.843  31.818  14.546
23161W        W88146  14.091  36.814  10.810
23162W        W88147   9.718   7.748  13.788
23163W        W88148  26.498  15.186   0.592
23164W        W88149   4.162   9.881  14.100
23165W        W88150  37.820  39.460  10.987
23166W        W88151   9.785   3.330  14.512
23167W        W88152  39.368  44.718   2.830
23168W        W88153  19.985  41.766   4.562
23169W        W88154  40.516  39.055  13.755
23170W        W88155  17.650  10.481   0.370
23171W        W88156  23.772   5.355   1.921
23172W        W88157  26.826  26.574   4.235
23173W        W88158  30.353   3.473  10.758
23174W        W88159   9.413  18.119  13.474
23175W        W88160  27.644  23.175  12.151
23176W        W88161  16.982  22.313  11.171
23177W        W88162  15.566  12.846   2.171
23178W        W88163  25.025   8.663  10.701
23179W        W88164   9.911  19.463   0.455
23180W        W88165  32.661  13.817  14.556
23181W        W88166  14.289  31.511  11.501
23182W        W88167  28.080  14.796   1.273
23183W        W88168  13.050  44.302   3.862
23184W        W88169  11.852   6.187   3.214
23185W        W88170  24.055  21.800   3.184
23186W        W88171  25.776   7.898   4.068
23187W        W88172  37.129  11.676  12.917
23188W        W88173  44.369  15.533   0.209
23189W        W88174   3.811  36.335  11.996
23190W        W88175  12.196   2.885  13.450
23191W        W88176   3.942  18.853   1.748
23192W        W88177   8.211  17.210  10.703
23193W        W88178  32.460   3.184   0.527
23194W        W88179  17.340   9.869   3.064
23195W        W88180   6.029  15.758   2.208
23196W        W88181   4.651  32.126   1.678
23197W        W88182  13.335  38.789   0.772
23198W        W88183   6.318  19.503   4.082
23199W        W88184   8.674  30.500  13.143
23200W        W88185   5.941  35.892   3.329
23201W        W88186   5.908   1.281   2.127
23202W        W88187   8.419  22.477  14.692
23203W        W88188  12.564   7.678  11.079
23204W        W88189  37.501  32.952  13.100
23205W        W88190  32.797  30.225  11.995
23206W        W88191  38.933  42.879  12.366
23207W        W88192  27.091   8.051   2.360
23208W        W88193  15.680  33.425  10.671
23209W        W88194  23.704  35.522  12.589
23210W        W88195  32.982  33.979   4.017
23211W        W88196  26.364  28.038  13.410
23212W        W88197  27.079  38.539  12.385
23213W        W88198   4.664  26.342   2.568
23214W        W88199  42.813  33.925   4.205
23215W        W88200  34.948  10.908  12.966
23216W        W88201  36.575  31.257  14.101
23217W        W88202   3.205  36.971   1.501
23218W        W88203   8.439  24.678   0.771
23219W        W88204   6.939   4.771  11.595
23220W        W88205  30.080  18.424  12.918
23221W        W88206   9.814  30.721   3.141
23222W        W88207   8.416  30.012   2.357
23223W        W88208  20.580  26.689  10.458
23224W        W88209   7.103   1.024   2.807
23225W        W88210   3.254   6.819   0.205
23226W        W88211   3.229  41.011  13.896
23227W        W88212  43.420  34.782   0.267
23228W        W88213  35.432   2.754   3.910
23229W        W88214   7.970  38.843  10.159
23230W        W88215  29.606  35.879   0.703
23231W        W88216  12.757  23.617   3.780
23232W        W88217   3.960  13.863  12.985
23233W        W88218   7.351  35.879   3.628
23234W        W88219   2.759  35.467   0.379
23235W        W88220  37.497  34.159  11.467
23236W        W88221  14.236   3.756   3.989
23237W        W88222  18.209  13.222   1.479
23238W        W88223   6.465  34.602   3.183
23239W        W88224   2.353  20.074   3.370
23240W        W88225  24.072  11.750  11.730
23241W        W88226  21.600   9.457   3.248
23242W        W88227  38.395  25.084   5.055
23243W        W88228   6.931  15.586   2.502
23244W        W88229   6.700  41.900  13.008
23245W        W88230  21.220  31.380  13.821
23246W        W88231   3.720  11.608  13.966
23247W        W88232  21.285  41.008  10.775
23248W        W88233  12.106  22.201  14.807
23249W        W88234  26.519  24.649   3.781
23250W        W88235  43.944  23.018  14.025
23251W        W88236  29.648  30.550  14.287
23252W        W88237  37.837   6.499   4.952
23253W        W88238   3.827  31.218  11.537
23254W        W88239  25.023  10.099  13.850
23255W        W88240  19.589  24.194   3.661
23256W        W88241  37.655  24.939   2.856
23257W        W88242  33.641  19.278  10.816
23258W        W88243  33.054  42.989   0.017
23259W        W88244  22.628  37.587  14.875
23260W        W88245  40.048  39.977  12.541
23261W        W88246  31.394  39.769  10.856
23262W        W88247   8.963  11.640  14.579
23263W        W88248  22.838  19.695  11.566
23264W        W88249  31.983  11.346   0.843
23265W        W88250  33.082  25.875   3.771
23266W        W88251  39.961  19.038   3.187
23267W        W88252  22.841  16.862   2.243
23268W        W88253   8.120   8.087   0.938
23269W        W88254  37.492  39.000   1.201
23270W        W88255   1.961   4.277   2.816
23271W        W88256  34.370  24.306  11.162
23272W        W88257   6.611  24.267   2.224
23273W        W88258  39.802  32.308  11.978
23274W        W88259  22.773  10.735   0.676
23275W        W88260   2.340  14.109   0.366
23276W        W88261  39.300  36.452  12.569
23277W        W88262  11.199  31.989   4.846
23278W        W88263  22.097  40.068   4.713
23279W        W88264  30.378  15.133  10.425
23280W        W88265   0.216  19.824  12.450
23281W        W88266   0.451   9.685   2.366
23282W        W88267  23.820  37.897   3.789
23283W        W88268  17.299  28.623   1.329
23284W        W88269  11.336  40.883   3.281
23285W        W88270  13.151  28.697   1.195
23286W        W88271   3.792  26.164   3.022
23287W        W88272  38.944  12.986   9.877
23288W        W88273   5.141  27.673   2.386
23289W        W88274  17.213  14.676   2.423
23290W        W88275  22.619  38.857   3.769
23291W        W88276  41.753  27.497   1.386
23292W        W88277  36.540  33.582  11.560
23293W        W88278  37.991  15.846  14.397
23294W        W88279  28.114  42.467   2.010
23295W        W88280  42.038  27.244   2.258
23296W        W88281   5.320  12.085   3.706
23297W        W88282   0.922  41.372  11.901
23298W        W88283  11.762  35.307  13.457
23299W        W88284  44.760  12.498  11.940
23300W        W88285  26.903   8.303  12.558
23301W        W88286  32.758  26.763   1.671
23302W        W88287  12.090  12.798  11.082
23303W        W88288  26.449  33.568  10.957
23304W        W88289  40.803   5.322  12.474
23305W        W88290  37.561  36.374  10.649
23306W        W88291   8.801   8.920   2.465
23307W        W88292  16.821  18.759   0.455
23308W        W88293  13.862   6.712   2.798
23309W        W88294   3.933  37.806  11.982
23310W        W88295  41.607  17.322  14.768
23311W        W88296  38.428  33.451  14.370
23312W        W88297   3.709  43.828  13.497
23313W        W88298  38.362  21.035  11.580
23314W        W88299  28.983   1.708   4.942
23315W        W88300  20.210  34.751  13.437
23316W        W88301  26.002  15.130  13.418
23317W        W88302  43.010  27.215  11.951
23318W        W88303  10.659  44.357  14.494
23319W        W88304  10.681  36.262   4.722
23320W        W88305  29.973  38.907   3.797
23321W        W88306  12.029   6.834   2.361
23322W        W88307   4.128  18.216  10.765
23323W        W88308  34.033  44.759   3.129
23324W        W88309  28.655  20.356   2.710
23325W        W88310  42.933  41.003  12.907
23326W        W88311   7.775  17.280  10.994
23327W        W88312  36.446  32.497  14.295
23328W        W88313  35.893  33.039   3.690
23329W        W88314  34.571   3.216  12.926
23330W        W88315  16.382  16.612   3.193
23331W        W88316   4.967  20.631   3.363
23332W        W88317   2.361  12.143   3.658
23333W        W88318  17.606  37.501  10.418
23334W        W88319   1.177  12.389  11.954
23335W        W88320   8.782   9.430  14.402
23336W        W88321  33.655  37.363   1.222
23337W        W88322  23.709  43.191   3.320
23338W        W88323  37.728  25.683   9.998
23339W        W88324   0.922  43.493   4.612
23340W        W88325  19.719  18.878   0.786
23341W        W88326  24.479  40.950  11.706
23342W        W88327  41.768  30.722   3.142
23343W        W88328   4.205  21.246  11.029
23344W        W88329  31.817  13.157   2.791
23345W        W88330  22.320  30.614  11.512
23346W        W88331  27.607   3.686  14.818
23347W        W88332  37.867  42.465  13.749
23348W        W88333  34.029   4.764  11.410
23349W        W88334   5.023  26.500   2.912
23350W        W88335  18.768  29.978  14.418
23351W        W88336  32.000  13.666   2.771
23352W        W88337  44.437  12.658  10.592
23353W        W88338   8.303  33.299  11.671
23354W        W88339  33.483   8.677  14.737
23355W        W88340  15.795  13.314   3.823
23356W        W88341  36.006  25.236  11.253
23357W        W88342  38.860  21.619   1.691
23358W        W88343   9.703  15.824   0.823
23359W        W88344  29.496   4.498   2.638
23360W        W88345  34.620   6.588   2.589
23361W        W88346  32.300  33.684   2.398
23362W        W88347   6.756  11.326  14.591
23363W        W88348  14.731  26.419   4.090
23364W        W88349  44.779  28.928  13.459
23365W        W88350  24.596   6.951   2.371
23366W        W88351  38.395  24.997  13.589
23367W        W88352  39.356   4.698  14.040
23368W        W88353  33.816   0.712  14.930
23369W        W88354  24.035  18.132   3.249
23370W        W88355  44.840  40.947  13.347
23371W        W88356  39.286  39.079   0.162
23372W        W88357  15.807  13.560  12.119
23373W        W88358   0.318  24.237  10.319
23374W        W88359  40.923   4.382  13.511
23375W        W88360  35.592   4.766  10.919
23376W        W88361  15.972   7.344  11.650
23377W        W88362  12.678   9.693   1.821
23378W        W88363  25.981   1.894   0.411
23379W        W88364   9.658  13.538   0.020
23380W        W88365  38.931   8.271  12.432
23381W        W88366   4.179  17.659   3.702
23382W        W88367  35.834  16.072  12.366
23383W        W88368  37.077  43.067  12.773
23384W        W88369  30.046  14.082  12.874
23385W        W88370  31.714   4.912  11.148
23386W        W88371   5.819   5.825   2.947
23387W        W88372  35.610  39.019   2.068
23388W        W88373  40.729   4.249  10.726
23389W        W88374  10.173  18.466   2.775
23390W        W88375  37.171  13.597   4.450
23391W        W88376   4.877   3.526  10.343
23392W        W88377  44.254  26.934  11.531
23393W        W88378  27.170   6.040   2.666
23394W        W88379   2.262   7.178   4.106
23395W        W88380  40.897  13.761  14.522
23396W        W88381  25.015  43.747  10.274
23397W        W88382  41.253  39.737   2.742
23398W        W88383   0.679  38.133   2.810
23399W        W88384   5.188  15.818   2.765
23400W        W88385   7.027  31.526  14.929
23401W        W88386  32.910   0.342  13.306
23402W        W88387  33.902  17.556   2.567
23403W        W88388  28.667   2.480  14.045
23404W        W88389   1.214  13.821   2.811
23405W        W88390   0.461   5.964   3.324
23406W        W88391  19.293  18.511  12.366
23407W        W88392   3.969  30.055   2.205
23408W        W88393  17.899  34.543   0.971
23409W        W88394  44.929  15.315  13.110
23410W        W88395   6.950  34.567   3.898
23411W        W88396   6.946  36.464   2.185
23412W        W88397  14.934   7.621   2.807
23413W        W88398  36.080  28.643  14.284
23414W        W88399  14.537  44.854   3.111
23415W        W88400  26.520  18.963  14.804
23416W        W88401  20.282  29.493  13.885
23417W        W88402   8.901  18.348  14.318
23418W        W88403   5.330  27.031  10.709
23419W        W88404  31.448  25.495  14.819
23420W        W88405  42.019  32.857   4.594
23421W        W88406   5.990  25.073  11.888
23422W        W88407   3.406  24.570  13.378
23423W        W88408   6.417  19.783  11.474
23424W        W88409  15.415  11.007  13.534
23425W        W88410  22.731  29.179   2.724
23426W        W88411  11.722   3.950  12.423
23427W        W88412  30.771   3.234  13.638
23428W        W88413  10.931  36.440  13.391
23429W        W88414  29.025  19.454  13.501
23430W        W88415   5.839  40.952  14.099
23431W        W88416  27.515   2.264   0.928
23432W        W88417  43.246   5.938   3.573
23433W        W88418  15.541  17.149   2.450
23434W        W88419   7.724  14.074  12.242
23435W        W88420  30.328  22.544   4.135
23436W        W88421   6.479  32.849  13.047
23437W        W88422   0.906   3.940  12.521
23438W        W88423  26.720   5.905   0.009
23439W        W88424   5.696  27.615  10.883
23440W        W88425  22.770   0.561   4.142
23441W        W88426  26.606  42.214   2.318
23442W        W88427  21.548  35.370  11.833
23443W        W88428  39.901  40.339  12.173
23444W        W88429  22.672  34.060   1.502
23445W        W88430  24.013  29.683   4.577
23446W        W88431   3.994   5.881  13.916
23447W        W88432   3.462  26.716  11.541
23448W        W88433  37.626  11.812  12.955
23449W        W88434   3.820   0.567   0.213
23450W        W88435   0.827  21.164  12.539
23451W        W88436  42.466  15.648   4.596
23452W        W88437  11.730  38.017   0.108
23453W        W88438  11.263   5.331   0.038
23454W        W88439  12.316  28.057  11.583
23455W        W88440  17.902  16.070  12.951
23456W        W88441  31.734   6.775   1.153
23457W        W88442  33.957  20.017   3.779
23458W        W88443  35.420  16.102  13.731
23459W        W88444  16.143  19.893   1.541
23460W        W88445  30.066   3.024   0.847
23461W        W88446  19.968  27.860  11.258
23462W        W88447  17.872  38.677   3.180
23463W        W88448  14.788   4.388  14.791
23464W        W88449   9.787  17.667  13.406
23465W        W88450   5.415  17.315  12.902
23466W        W88451  31.100  14.031  14.804
23467W        W88452  23.892   8.144  13.972
23468W        W88453  22.607  18.343   3.307
23469W        W88454   0.916  11.712  10.519
23470W        W88455  27.769   3.920   1.592
23471W        W88456  24.154   6.677   2.777
23472W        W88457  39.020  24.426   3.853
23473W        W88458   3.678  15.191   4.520
23474W        W88459  30.071  42.567   4.917
23475W        W88460   0.924  31.096  14.786
23476W        W88461   8.276  26.667  11.846
23477W        W88462  21.146  14.522   0.839
23478W        W88463   0.628  31.470  10.921
23479W        W88464  42.395  30.124  12.889
23480W        W88465  38.425  16.123  14.491
23481W        W88466  37.373  33.040   1.839
23482W        W88467  36.352   3.684   1.243
23483W        W88468  15.125  41.264   3.446
23484W        W88469   9.139  14.579   0.845
23485W        W88470  34.930  34.485   0.273
23486W        W88471   0.020   3.148  13.798
23487W        W88472   8.711  44.892   1.754
23488W        W88473   6.458   7.887  14.743
23489W        W88474  35.564  28.217   1.126
23490W        W88475   5.824  35.056  10.561
23491W        W88476  38.351  11.125  10.437
23492W        W88477  17.600   8.922   4.332
23493W        W88478  28.640  22.322  13.420
23494W        W88479  20.772  10.299  13.767
23495W        W88480  26.724  32.509   3.626
23496W        W88481  12.219   3.826   3.968
23497W        W88482  10.412   8.346  12.139
23498W        W88483  27.796  16.010  11.170
23499W        W88484  41.925  17.061   4.128
23500W        W88485  30.336  22.515  12.868
23501W        W88486  25.470   6.521  13.719
23502W        W88487   4.427  14.356   1.256
23503W        W88488   0.528  10.648  11.106
23504W        W88489  21.026  41.583   0.701
23505W        W88490   2.184  29.190  11.216
23506W        W88491  27.580  41.599  11.122
23507W        W88492  29.028  16.327  13.348
23508W        W88493  33.150  10.093   2.421
23509W        W88494  29.977   5.282   1.305
23510W        W88495  35.013   5.283   2.387
23511W        W88496   6.659  38.035  11.581
23512W        W88497  23.742  18.166   4.696
23513W        W88498   4.237   6.405  14.362
23514W        W88499  26.183  28.479   1.953
23515W        W88500  19.081   5.667  13.994
23516W        W88501  22.857  30.058   1.367
23517W        W88502   6.889   9.160   1.926
23518W        W88503   2.870  10.153   2.275
23519W        W88504   0.906  35.628  14.989
23520W        W88505  44.692   7.346   4.652
23521W        W88506  43.963  23.288   3.234
23522W        W88507  38.621  34.416   1.040
23523W        W88508  34.920  37.379   2.154
23524W        W88509  22.201  12.489  14.787
23525W        W88510  32.544   5.424   2.612
23526W        W88511  16.326  12.131   3.615
23527W        W88512   5.199  20.702   1.710
23528W        W88513  12.086  26.584  13.759
23529W        W88514  11.167  12.279   0.014
23530W        W88515  44.424  11.784   3.116
23531W        W88516  43.688  10.677   3.243
23532W        W88517  10.785  21.648  10.621
23533W        W88518  30.207  32.882   1.831
23534W        W88519  20.009  41.008  11.234
23535W        W88520  16.107  23.481   1.465
23536W        W88521  41.589  17.779  12.058
23537W        W88522  22.988  44.291  11.508
23538W        W88523  28.948  27.424   0.943
23539W        W88524  10.796  14.735   2.163
23540W        W88525  11.727  10.579   0.926
23541W        W88526   6.930  21.137  14.739
23542W        W88527   6.235   5.843  12.115
23543W        W88528  24.511  39.134   4.667
23544W        W88529  19.684   1.976  13.344
23545W        W88530  15.217  10.808  13.058
23546W        W88531  39.879  40.734  11.647
23547W        W88532  27.553  39.971   2.329
23548W        W88533  18.017  25.435  13.419
23549W        W88534  43.411  28.105  14.249
23550W        W88535  18.506   6.258   0.725
23551W        W88536  34.373  20.637  14.894
23552W        W88537  40.851   4.906   3.861
23553W        W88538  21.732  18.004  12.866
23554W        W88539  29.082   7.840   0.558
23555W        W88540  15.109   0.887   0.383
23556W        W88541   9.691  24.344   4.665
23557W        W88542  27.590  27.962   0.179
23558W        W88543  30.229  18.976   1.344
23559W        W88544  15.642  17.869   4.114
23560W        W88545  23.908   3.290  11.604
23561W        W88546   1.550  29.728   4.125
23562W        W88547  40.020  27.073  11.980
23563W        W88548  12.130  13.790  10.694
23564W        W88549   3.774  42.962   2.883
23565W        W88550  11.366  42.295  14.824
23566W        W88551  40.034  41.423   2.763
23567W        W88552  43.564  20.638  12.191
23568W        W88553  13.311   6.000   3.294
23569W        W88554  33.226  14.128   3.095
23570W        W88555  24.663  10.780   4.799
23571W        W88556  19.592  17.288   4.470
23572W        W88557  24.003  29.426   1.602
23573W        W88558  32.113   3.114   4.770
23574W        W88559  41.434  28.432   5.197
23575W        W88560   9.786  39.242  13.965
23576W        W88561   7.717  24.579   0.200
23577W        W88562  16.211  25.208   3.181
23578W        W88563  17.672  31.654  11.233
23579W        W88564   6.150  41.155  14.772
23580W        W88565  29.005  16.582  13.893
23581W        W88566  23.782  11.502   1.368
23582W        W88567  28.452  35.580   4.605
23583W        W88568   6.347  36.316  12.548
23584W        W88569   0.030  26.644  10.670
23585W        W88570   8.683  28.191  11.171
23586W        W88571  10.064  21.677  12.067
23587W        W88572  29.522  13.295   2.764
23588W        W88573  32.008  36.787   2.778
23589W        W88574  16.354  26.538   0.805
23590W        W88575  10.078  36.377  12.564
23591W        W88576   1.825  12.264   2.313
23592W        W88577  40.748  43.266   2.366
23593W        W88578  17.184  20.797   3.290
23594W        W88579  22.763   0.972  11.635
23595W        W88580   1.346  25.002  11.584
23596W        W88581  11.222  28.064  10.554
23597W        W88582  20.993   8.604   0.384
23598W        W88583  13.333  12.021   1.704
23599W        W88584  29.412  18.688   0.004
23600W        W88585  35.565  33.870   3.928
23601W        W88586  42.910  11.450   1.055
23602W        W88587  21.123  31.159   2.244
23603W        W88588   7.006  13.756  14.932
23604W        W88589  42.177  33.414   3.725
23605W        W88590  25.172   9.095   4.256
23606W        W88591  19.402  10.665  11.616
23607W        W88592  27.994   2.421   0.797
23608W        W88593  39.067  28.444   2.565
23609W        W88594  10.823  17.586  14.961
23610W        W88595  36.075  13.093  11.656
23611W        W88596  29.073  20.788  14.447
23612W        W88597   4.534  19.301  13.976
23613W        W88598  44.476  23.551   1.410
23614W        W88599   1.391  21.515  14.438
23615W        W88600   9.067  22.788  13.392
23616W        W88601   7.169   9.276  11.059
23617W        W88602   6.814  26.102   1.336
23618W        W88603   5.634  16.513  11.304
23619W        W88604  18.052  40.873  14.427
23620W        W88605  26.491   3.980   1.277
23621W        W88606  17.259  28.301  11.655
23622W        W88607  27.164  22.727  11.108
23623W        W88608  42.530   2.495   3.177
23624W        W88609  44.708  36.157   9.765
23625W        W88610  29.373   1.959   2.434
23626W        W88611  34.508  35.841   4.572
23627W        W88612  14.518   4.491  13.366
23628W        W88613  13.720  32.858  10.601
23629W        W88614   1.415  21.251  14.903
23630W        W88615   6.250  11.127   4.169
23631W        W88616  12.388  13.563  14.069
23632W        W88617  43.881  14.522  12.433
23633W        W88618  36.938  31.958  11.003
23634W        W88619   3.931   5.459   0.258
23635W        W88620   0.851  32.563  14.361
23636W        W88621   2.426  28.911   2.506
23637W        W88622  16.218  12.812   4.411
23638W        W88623   4.295   5.213   4.132
23639W        W88624  20.548  43.241  12.933
23640W        W88625  28.124  19.730   1.385
23641W        W88626  44.631   6.299  10.385
23642W        W88627  27.997  11.771  12.152
23643W        W88628  29.068  15.393  14.671
23644W        W88629  13.514  44.164   2.770
23645W        W88630  32.099  15.563  13.994
23646W        W88631   0.432  18.505  14.977
23647W        W88632  15.186  31.165  11.925
23648W        W88633  19.472  16.679   3.616
23649W        W88634  37.296  43.947  10.365
23650W        W88635   8.326  16.060  13.815
23651W        W88636   4.283  26.158   3.873
23652W        W88637  17.314  20.783  13.532
23653W        W88638  38.591  23.709   3.676
23654W        W88639  29.263   6.175   4.401
23655W        W88640  34.728  35.885  13.056
23656W        W88641  32.833  30.092   0.753
23657W        W88642  43.284  12.381  14.461
23658W        W88643  41.862   2.221  11.142
23659W        W88644   0.437  14.246  10.994
23660W        W88645  16.124  26.432   4.514
23661W        W88646  22.508   0.744   4.638
23662W        W88647  23.708   4.398   0.798
23663W        W88648   7.431  34.422  11.604
23664W        W88649   8.913  40.307  12.508
23665W        W88650  39.747  10.838  14.041
23666W        W88651  41.515  13.634   3.339
23667W        W88652  10.187  34.822  10.788
23668W        W88653  34.018  23.111  13.352
23669W        W88654  27.642  40.512  12.005
23670W        W88655  25.758  10.185   5.101
23671W        W88656  21.224  12.267  13.684
23672W        W88657  43.514  11.897  12.490
23673W        W88658  17.641  36.579   0.711
23674W        W88659   8.451   3.852  12.420
23675W        W88660  22.046  32.144   0.269
23676W        W88661  44.075   3.574   1.874
23677W        W88662  44.997   5.288  14.751
23678W        W88663  31.485  14.490   4.336
23679W        W88664  26.103  32.770  11.258
23680W        W88665  37.031  32.376  14.446
23681W        W88666   4.960  24.522  13.545
23682W        W88667  37.833  30.704   1.775
23683W        W88668   8.338  23.533   3.626
23684W        W88669   7.872   8.433  12.423
23685W        W88670  35.009   3.907  13.143
23686W        W88671  27.458  36.923  13.373
23687W        W88672  36.092  44.904   4.472
23688W        W88673  32.077  44.816   2.228
23689W        W88674  29.930   9.719   1.876
23690W        W88675  25.511  13.324  11.818
23691W        W88676  16.524   6.457   2.178
23692W        W88677  23.452  28.415  11.504
23693W        W88678  29.508  16.145  14.590
23694W        W88679  10.962  32.508  14.536
23695W        W88680  42.803  39.953   4.939
23696W        W88681  44.321  29.968  14.305
23697W        W88682  17.024  20.173   0.830
23698W        W88683  21.369  36.750   3.377
23699W        W88684  36.858  25.569   3.804
23700W        W88685   6.450   2.541  14.486
23701W        W88686  21.217   3.310   1.485
23702W        W88687  16.853  38.844   3.292
23703W        W88688  44.272   8.842  13.484
23704W        W88689  36.485   9.869   1.730
23705W        W88690  31.825  15.108   4.079
23706W        W88691   4.491  33.491   4.546
23707W        W88692  27.724  29.340   0.805
23708W        W88693  19.472   9.292  14.844
23709W        W88694  37.573  17.747   0.465
23710W        W88695  28.137  34.945  11.129
23711W        W88696  22.561  21.875  13.913
23712W        W88697  27.172  37.789  13.895
23713W        W88698   2.401  10.167   5.016
23714W        W88699  30.930   7.409  12.629
23715W        W88700  30.189   8.711   1.249
23716W        W88701  30.903  40.292  11.453
23717W        W88702  17.751  10.807  12.527
23718W        W88703  15.341  25.935   0.285
23719W        W88704  12.951  14.066  11.431
23720W        W88705  31.007  36.449  14.024
23721W        W88706  38.044  10.832   4.517
23722W        W88707  37.306   2.386  14.049
23723W        W88708  15.725  36.899   0.973
23724W        W88709  21.254   3.889   1.774
23725W        W88710  30.675  33.537   1.504
23726W        W88711  29.397  11.211  10.681
23727W        W88712  23.478  27.902  12.787
23728W        W88713  11.476  15.809   4.526
23729W        W88714  36.553  16.327   3.052
23730W        W88715  17.218  42.447   0.822
23731W        W88716   0.677  29.075  14.372
23732W        W88717  30.539   0.953  13.396
23733W        W88718   3.024  32.842  10.723
23734W        W88719  12.960  15.562   4.989
23735W        W88720   8.615   5.331  14.888
23736W        W88721   9.715  31.082   1.808
23737W        W88722   2.973  27.435   4.544
23738W        W88723  41.524  34.962   2.856
23739W        W88724  38.981  23.232  13.087
23740W        W88725  15.306  38.885   0.811
23741W        W88726  37.892  41.629  14.425
23742W        W88727  42.171  14.175  11.105
23743W        W88728  33.470   7.967  13.862
23744W        W88729   3.442  20.047  13.508
23745W        W88730  20.995   0.232  12.687
23746W        W88731   0.633  34.068  13.603
23747W        W88732   7.897  40.598  12.512
23748W        W88733  40.249  10.233   4.466
23749W        W88734  26.728  14.097   3.422
23750W        W88735  18.309  24.006   1.764
23751W        W88736  32.903   8.404  13.884
23752W        W88737   5.207  39.072   2.694
23753W        W88738  16.675  37.835   3.109
23754W        W88739  20.006  39.866   1.569
23755W        W88740  23.016  14.364  11.549
23756W        W88741  20.415  38.447   1.634
23757W        W88742  23.427   1.401   4.067
23758W        W88743  10.728  32.531  13.873
23759W        W88744  22.185  14.530  13.235
23760W        W88745  11.164   3.497   3.750
23761W        W88746  20.061   0.315  12.893
23762W        W88747   8.828  29.511  11.539
23763W        W88748  20.320   0.254   2.224
23764W        W88749  16.445  11.023   1.358
23765W        W88750  24.958   0.457   2.184
23766W        W88751   2.253  20.263  12.616
23767W        W88752  12.587   2.275  10.646
23768W        W88753  32.892  42.577   0.295
23769W        W88754   8.634   4.695   5.547
23770W        W88755   2.196  42.163  12.107
23771W        W88756  39.836   1.885  11.331
23772W        W88757  22.279  14.110   1.764
23773W        W88758  22.772  42.041   2.357
23774W        W88759  13.099   2.920   3.666
23775W        W88760   9.683  42.426   1.478
23776W        W88761  23.999   0.890   3.625
23777W        W88762  36.960   7.492  14.282
23778W        W88763  37.617  31.417  12.468
23779W        W88764  25.223  17.010   3.898
23780W        W88765  36.044   5.288   4.615
23781W        W88766   5.918  26.451   1.765
23782W        W88767  13.388  37.753   0.902
23783W        W88768  20.674  24.781  11.528
23784W        W88769  16.576   3.605   3.664
23785W        W88770   5.709  23.772   3.357
23786W        W88771   9.813  16.219   0.459
23787W        W88772  31.861  17.533  13.011
23788W        W88773  24.165  42.552   4.441
23789W        W88774  33.947   2.887   1.940
23790W        W88775  44.907  26.159   2.747
23791W        W88776   4.703  31.444   4.919
23792W        W88777  14.764   0.975  12.890
23793W        W88778  13.873  36.449  12.943
23794W        W88779  18.843  24.561  13.066
23795W        W88780  20.768  32.117   3.799
23796W        W88781  24.035   0.179  14.825
23797W        W88782  24.580  25.498  14.904
23798W        W88783  30.061   4.913   3.765
23799W        W88784   8.131  38.584  12.620
23800W        W88785   8.906   6.650  14.632
23801W        W88786   0.703  41.995   3.201
23802W        W88787  44.376  21.263   0.806
23803W        W88788  37.527  15.074   1.298
23804W        W88789  11.544  10.345   1.800
23805W        W88790  34.097   5.827   4.202
23806W        W88791   9.891  29.589   3.492
23807W        W88792  13.743  13.888   0.954
23808W        W88793  12.798  25.136  11.634
23809W        W88794  34.366  26.196  13.394
23810W        W88795  26.404  21.548   3.108
23811W        W88796  42.359  12.021  12.898
23812W        W88797  31.711   5.678   0.769
23813W        W88798  13.547  16.755   4.666
23814W        W88799  40.594  13.442   4.288
23815W        W88800  24.921   2.803   3.633
23816W        W88801  26.720  40.955  13.151
23817W        W88802  12.098   6.233   1.853
23818W        W88803  35.453   7.158   0.534
23819W        W88804   2.020  42.952  11.531
23820W        W88805   2.253  16.284  13.318
23821W        W88806   9.970  30.444  11.383
23822W        W88807  41.550  30.328   0.899
23823W        W88808  21.998  23.559  14.971
23824W        W88809  11.127  34.157   4.654
23825W        W88810  12.811  11.296  10.743
23826W        W88811  20.024  28.327   2.289
23827W        W88812  28.515   5.946  13.099
23828W        W88813  18.207  37.925  12.925
23829W        W88814  23.629  20.611   3.265
23830W        W88815  37.115   5.288   4.789
23831W        W88816  27.468  36.405  13.559
23832W        W88817  31.226  31.115  14.809
23833W        W88818  39.067  12.165   1.991
23834W        W88819  15.094  29.262  11.019
23835W        W88820  17.513  32.287   1.973
23836W        W88821  11.148  34.040  13.007
23837W        W88822  12.881   5.322  13.849
23838W        W88823  29.227  12.783   4.548
23839W        W88824  33.181   9.682   1.043
23840W        W88825  10.338  29.145  14.086
23841W        W88826  43.124   1.774   3.509
23842W        W88827  36.026  33.164   9.970
23843W        W88828  41.764  11.077   1.004
23844W        W88829  13.320  26.061   2.397
23845W        W88830  36.611  23.017  13.385
23846W        W88831  41.925  15.479  12.081
23847W        W88832  25.290  32.607   2.226
23848W        W88833  27.034   6.172  12.705
23849W        W88834   9.369  23.159  14.228
23850W        W88835  33.187  24.647  14.426
23851W        W88836  42.145  34.065  11.633
23852W        W88837  34.131   0.282  11.085
23853W        W88838  20.672  29.964  11.109
23854W        W88839  18.939  41.735   2.147
23855W        W88840  34.543  26.603  13.091
23856W        W88841  19.320   6.443  13.570
23857W        W88842  20.252  27.005   1.262
23858W        W88843  20.445   7.926  11.552
23859W        W88844  39.582  39.319  12.999
23860W        W88845  24.701  14.349  12.115
23861W        W88846   5.304  44.790   2.223
23862W        W88847   1.718  18.633  12.105
23863W        W88848  15.530  18.140   1.729
23864W        W88849  16.542  35.624   2.107
23865W        W88850  10.727  32.321  12.891
23866W        W88851  33.070  30.903  14.512
23867W        W88852   9.932   4.850  10.606
23868W        W88853  20.286  14.136  12.577
23869W        W88854   4.809  10.816   0.463
23870W        W88855  36.049  18.705   2.098
23871W        W88856  19.840  13.218   5.352
23872W        W88857   1.838  38.458   4.215
23873W        W88858  21.310  19.785   2.112
23874W        W88859  22.784  35.916  11.739
23875W        W88860  26.482  44.566  11.276
23876W        W88861  42.044  18.036  12.495
23877W        W88862   5.086   7.899  11.997
23878W        W88863  18.591  36.204  14.803
23879W        W88864  24.485  36.018   0.555
23880W        W88865  20.653  14.816  14.280
23881W        W88866  29.207  38.425  13.454
23882W        W88867   3.844  15.538   3.215
23883W        W88868  38.421  25.874   0.391
23884W        W88869   8.708  25.419   0.402
23885W        W88870  14.092  17.295  12.060
23886W        W88871  11.439   5.901  11.498
23887W        W88872  13.270   0.784  12.062
23888W        W88873  34.526  23.588   0.954
23889W        W88874  43.305  32.486   2.695
23890W        W88875  23.786  22.331  13.592
23891W        W88876   8.093  16.691  11.565
23892W        W88877  36.041   2.220  12.003
23893W        W88878  34.465  18.190   0.210
23894W        W88879   6.406  44.991   0.412
23895W        W88880  38.594   7.710  14.982
23896W        W88881   7.864   6.147   3.076
23897W        W88882  23.023   3.723  10.178
23898W        W88883  33.923  21.478   4.697
23899W        W88884  18.696  29.703   1.230
23900W        W88885  24.707  33.127  13.922
23901W        W88886  30.609  44.789  11.931
23902W        W88887  33.836  24.945   4.574
23903W        W88888  19.657  11.670  11.629
23904W        W88889  18.545  12.314   0.821
23905W        W88890  37.257  35.092   2.221
23906W        W88891   9.986  36.183   3.972
23907W        W88892  29.414  44.926  13.630
23908W        W88893  13.235  31.543  10.833
23909W        W88894  14.718  35.018   0.179
23910W        W88895   2.685  11.215  12.010
23911W        W88896  10.107  23.082   0.013
23912W        W88897  19.217   1.996  10.813
23913W        W88898   1.369  18.548  13.370
23914W        W88899  31.332   1.059  14.434
23915W        W88900  19.560  32.968  11.136
23916W        W88901   8.637  34.035   1.987
23917W        W88902  30.471  10.947  10.670
23918W        W88903  26.606   0.487  13.071
23919W        W88904  17.377  33.943  14.074
23920W        W88905   6.385   0.704  14.778
23921W        W88906  21.274  11.167   2.379
23922W        W88907  37.243  12.627  12.424
23923W        W88908   4.275  22.461   4.604
23924W        W88909  10.806  13.852  14.492
23925W        W88910  25.252  39.042  10.543
23926W        W88911  16.107  34.625   1.899
23927W        W88912  38.978  17.625   3.862
23928W        W88913  20.071  21.295  11.054
23929W        W88914  28.913  25.319   4.450
23930W        W88915  21.561  18.087  14.340
23931W        W88916  39.086  13.178   4.636
23932W        W88917  20.562  30.884   0.250
23933W        W88918  18.089  19.266  13.049
23934W        W88919  42.979  15.680   4.649
23935W        W88920  31.486   4.316  13.248
23936W        W88921  34.041  36.864  13.479
23937W        W88922  15.589  28.333   2.551
23938W        W88923  30.881  23.464  11.712
23939W        W88924   5.432   7.529   2.796
23940W        W88925  29.089   0.487   2.436
23941W        W88926   4.632   7.844   2.934
23942W        W88927  28.443   7.206   1.424
23943W        W88928  15.768  29.971  14.107
23944W        W88929   5.261  10.265  14.535
23945W        W88930  11.702  11.278   2.448
23946W        W88931  18.215  33.481   2.998
23947W        W88932   8.746  43.010  13.150
23948W        W88933  34.157  19.571   0.773
23949W        W88934   0.244  23.712   4.908
23950W        W88935  40.381  41.860  12.145
23951W        W88936  19.297   4.676   2.423
23952W        W88937  24.588  17.158   2.780
23953W        W88938  16.259  21.731   1.965
23954W        W88939  36.432   8.602   0.411
23955W        W88940  15.211   7.645   0.576
23956W        W88941  41.850  27.048  13.779
23957W        W88942  37.957  37.445   0.300
23958W        W88943  11.968  21.565   1.020
23959W        W88944   5.939  38.088  12.873
23960W        W88945  17.964  19.717  12.810
23961W        W88946  26.422  10.886  13.612
23962W        W88947   5.761  16.781   1.864
23963W        W88948  18.972   4.283  14.350
23964W        W88949  40.946  12.445   4.701
23965W        W88950  33.051  29.139   0.794
23966W        W88951  42.538  28.016   3.896
23967W        W88952  36.536  13.608  13.005
23968W        W88953   6.940  30.625   1.361
23969W        W88954   4.979  38.970  10.612
23970W        W88955  35.003  27.474   3.269
23971W        W88956  24.086  30.233   1.069
23972W        W88957  23.164  12.294   0.570
23973W        W88958   5.673  40.781   1.907
23974W        W88959  21.062  40.978  13.413
23975W        W88960  26.005  43.817   2.599
23976W        W88961  27.148  12.263   2.204
23977W        W88962  38.380  31.539   1.425
23978W        W88963  31.057  10.889  13.139
23979W        W88964  22.152   4.951   2.928
23980W        W88965  19.957  22.013  14.881
23981W        W88966  28.395   5.454   0.353
23982W        W88967  16.418   6.682   4.470
23983W        W88968  39.462   8.019   2.768
23984W        W88969  25.621   3.845   3.107
23985W        W88970  32.375  35.573   3.546
23986W        W88971  13.600  17.889   0.346
23987W        W88972  11.157   3.809  12.925
23988W        W88973   9.799  16.385  12.897
23989W        W88974  23.557  19.287   2.860
23990W        W88975   1.519  38.292  11.111
23991W        W88976   2.303  44.187   0.852
23992W        W88977  20.165  34.216  13.282
23993W        W88978  26.603  13.170   2.820
23994W        W88979  27.228  12.814   0.917
23995W        W88980  36.889  15.014   4.509
23996W        W88981   4.497  43.883   3.977
23997W        W88982  25.633  10.334  14.428
23998W        W88983  34.575  44.964  11.154
23999W        W88984  18.947  18.170  12.552
24000W        W88985  36.191   9.150   5.040
24001W        W88986  26.224  36.838   1.677
24002W        W88987  17.279  21.178  11.040
24003W        W88988  29.959   7.106   1.772
24004W        W88989  36.010  32.681  14.771
24005W        W88990  30.055  28.011   0.092
24006W        W88991  12.340   5.651  13.073
24007W        W88992   7.878  28.562  13.906
24008W        W88993  19.158   6.053   0.464
24009W        W88994  23.587  39.763  12.588
24010W        W88995  35.343   3.668  14.515
24011W        W88996  17.723  29.083   4.928
24012W        W88997  11.448  20.847   0.773
24013W        W88998  36.884   3.705   1.421
24014W        W88999  39.551   8.675  11.142
24015W        W89000  21.091  27.620   0.796
24016W        W89001  40.340  28.963  13.026
24017W        W89002  29.608  22.209   1.459
24018W        W89003  43.226  13.302  11.153
24019W        W89004  12.242  32.419   2.351
24020W        W89005   4.392  33.952  12.080
24021W        W89006  16.604  31.069   4.067
24022W        W89007  14.705  16.796   3.720
24023W        W89008  15.940  11.678  11.761
24024W        W89009  37.313  43.503   0.630
24025W        W89010  13.403  13.917   4.700
24026W        W89011  15.263   2.873   0.692
24027W        W89012  26.488  21.039   2.942
24028W        W89013  15.270  34.194   4.970
24029W        W89014  14.200  19.743  12.027
24030W        W89015  36.844  11.069  12.144
24031W        W89016  29.354  36.316  14.938
24032W        W89017  20.486  14.429  10.781
24033W        W89018  20.751  43.562   2.168
24034W        W89019  29.482  15.190  11.677
24035W        W89020  28.944  30.149  11.667
24036W        W89021  44.490   0.154  11.723
24037W        W89022  12.347  11.654   0.819
24038W        W89023  16.729   2.794   4.674
24039W        W89024  43.283   8.275  14.863
24040W        W89025   8.324  34.181   0.298
24041W        W89026   2.369  24.221  12.986
24042W        W89027  41.851  32.117  10.108
24043W        W89028  14.648  35.700  12.019
24044W        W89029  41.406   4.792   0.530
24045W        W89030  29.041  34.453  12.815
24046W        W89031   1.203  24.565   3.784
24047W        W89032  28.222  39.331   4.290
24048W        W89033  20.170  29.812  10.894
24049W        W89034  24.962   1.121  11.221
24050W        W89035  36.035  37.088   1.476
24051W        W89036   3.144   8.281   2.241
24052W        W89037  36.179  21.995  11.023
24053W        W89038  15.627  38.136   4.192
24054W        W89039  28.197  37.955  13.866
24055W        W89040   8.778   8.669   0.883
24056W        W89041  44.804  35.932   0.730
24057W        W89042  31.441  21.638   0.047
24058W        W89043  28.660   8.241   3.160
24059W        W89044  13.801   4.489   0.600
24060W        W89045  10.449  37.552   0.458
24061W        W89046  33.509  33.100  10.961
24062W        W89047  29.884  13.602  12.823
24063W        W89048  12.613  22.648  13.049
24064W        W89049  29.781  37.069   2.309
24065W        W89050  20.636  30.960  14.722
24066W        W89051  12.369  42.321  13.376
24067W        W89052  20.144  25.329   3.550
24068W        W89053   0.049   4.781  10.335
24069W        W89054  39.472  43.183   2.744
24070W        W89055  10.019  34.080  14.382
24071W        W89056  31.143  38.429   4.154
24072W        W89057  25.232  32.638  13.928
24073W        W89058  12.289   4.070  11.739
24074W        W89059   4.613  28.063   4.587
24075W        W89060  36.578  42.845   0.408
24076W        W89061   7.262  13.831  13.616
24077W        W89062  20.111  11.628   2.879
24078W        W89063  23.994  42.104   0.413
24079W        W89064  23.565   4.881   1.843
24080W        W89065  41.856  11.636   2.241
24081W        W89066  13.585  15.990  14.336
24082W        W89067  44.541  20.725   0.030
24083W        W89068   8.836  42.114   2.656
24084W        W89069   5.446  19.099   0.940
24085W        W89070  38.121   9.147   0.860
24086W        W89071  35.749  14.675   4.001
24087W        W89072   6.163  18.148  10.702
24088W        W89073  43.035  31.414   3.249
24089W        W89074   0.775  19.307  13.507
24090W        W89075   9.398  23.115  12.926
24091W        W89076  18.818  26.434   1.465
24092W        W89077  31.571  36.446  12.606
24093W        W89078  14.789  20.490   4.701
24094W        W89079   6.683  41.095  11.095
24095W        W89080  31.150  13.236  13.633
24096W        W89081  29.648  26.693   5.020
24097W        W89082  27.497   3.560   4.592
24098W        W89083  10.879  43.259  12.554
24099W        W89084  35.609  21.236   0.257
24100W        W89085  42.485   0.013  12.627
24101W        W89086  24.657  17.651   2.092
24102W        W89087  25.665   8.908   4.156
24103W        W89088  22.569  12.836   1.721
24104W        W89089  30.083  20.738   1.844
24105W        W89090  10.799  24.617  11.086
24106W        W89091  44.073  34.041  14.784
24107W        W89092  33.088  32.237  14.904
24108W        W89093  31.057   3.810  10.486
24109W        W89094   9.963  36.056   1.274
24110W        W89095   8.729  10.131   3.162
24111W        W89096   0.891  12.726   5.142
24112W        W89097  42.533  43.934   0.716
24113W        W89098  20.233  33.106  10.969
24114W        W89099  43.052  40.807   0.330
24115W        W89100  43.751   0.388  14.869
24116W        W89101  19.159   4.188   4.220
24117W        W89102  41.448  16.219  11.171
24118W        W89103  26.069  30.358   0.117
24119W        W89104  40.098  11.807  14.679
24120W        W89105  35.436  25.200   3.602
24121W        W89106   6.172  23.900  14.466
24122W        W89107   5.270  35.753   1.586
24123W        W89108  15.758  30.002  10.726
24124W        W89109  12.942  15.170  11.893
24125W        W89110  32.644   3.453   2.646
24126W        W89111  21.855  43.794   2.819
24127W        W89112  39.475  11.192  11.968
24128W        W89113  10.298  41.454  13.766
24129W        W89114  28.768   6.153   2.209
24130W        W89115  40.036  19.684  13.644
24131W        W89116  44.542  18.265  10.249
24132W        W89117   3.740  39.264   0.243
24133W        W89118   7.697  13.301   2.764
24134W        W89119   6.501   8.568   1.247
24135W        W89120  15.204  13.802  13.976
24136W        W89121  35.929   6.439  12.615
24137W        W89122  39.101  41.310   1.183
24138W        W89123  15.198  24.569   1.358
24139W        W89124   8.225  19.546  12.531
24140W        W89125   9.418  27.528  14.759
24141W        W89126  22.908  11.364  14.869
24142W        W89127  36.349  35.577  14.956
24143W        W89128   7.920  40.841   3.330
24144W        W89129   4.723  32.497   2.027
24145W        W89130  38.090  43.898  11.433
24146W        W89131  30.404  34.247  11.881
24147W        W89132  36.621   1.422  13.310
24148W        W89133  26.614  20.998   4.098
24149W        W89134  36.035  39.215   4.626
24150W        W89135   7.440  31.123   3.919
24151W        W89136  29.456  14.963  12.164
24152W        W89137  42.283  27.117   4.325
24153W        W89138  21.263  17.678   2.450
24154W        W89139  30.441  14.236  12.565
24155W        W89140  11.657  11.427   2.927
24156W        W89141  35.483  36.259   0.791
24157W        W89142  33.843  42.815  11.000
24158W        W89143  40.557  24.036  10.270
24159W        W89144  11.106  23.526   3.602
24160W        W89145  32.875  40.492  14.728
24161W        W89146  22.059  27.172   3.730
24162W        W89147  17.499  14.252   3.268
24163W        W89148  22.438  14.191  14.937
24164W        W89149  10.398  28.143  12.035
24165W        W89150  12.625  43.333   1.777
24166W        W89151   5.843  44.743   4.380
24167W        W89152  28.146   4.300   2.111
24168W        W89153  26.532  39.001   4.529
24169W        W89154  21.112  44.402  12.841
24170W        W89155  34.748  15.258  12.582
24171W        W89156  17.653  37.791   4.245
24172W        W89157   5.930   2.120   1.199
24173W        W89158  15.116  28.440   2.725
24174W        W89159  43.374  44.179  11.455
24175W        W89160  18.757  24.977   4.510
24176W        W89161  40.917   5.657  10.562
24177W        W89162  20.933   6.744  14.414
24178W        W89163  39.916  14.041   4.211
24179W        W89164   9.054  27.086   1.983
24180W        W89165  41.820  42.045  14.994
24181W        W89166  17.311  16.692  10.601
24182W        W89167  36.179   1.202  12.103
24183W        W89168   3.819  18.997   4.412
24184W        W89169  33.592  23.971   0.893
24185W        W89170  39.013  39.537   4.486
24186W        W89171  36.137   6.662  14.905
24187W        W89172  37.225   0.291  10.685
24188W        W89173  41.125  42.892  14.008
24189W        W89174  36.347  44.084  11.097
24190W        W89175  17.224   7.649   1.758
24191W        W89176   9.706  34.104  11.736
24192W        W89177  20.185  17.752   3.978
24193W        W89178   1.197   3.405   0.352
24194W        W89179  33.499   0.377   4.103
24195W        W89180   1.976  13.067   4.519
24196W        W89181  32.127  35.162  14.704
24197W        W89182  16.271  38.013  12.896
24198W        W89183  35.623  21.547  14.407
24199W        W89184  30.047  31.671   1.296
24200W        W89185  40.822  29.346   1.669
24201W        W89186  19.305  20.725   4.598
24202W        W89187  20.114   8.320  11.673
24203W        W89188  36.459  30.646   2.466
24204W        W89189   0.301  33.090   0.931
24205W        W89190  41.509  27.243   5.454
24206W        W89191   5.702  36.976   0.302
24207W        W89192  25.208  14.091  14.350
24208W        W89193  35.629   6.288   2.485
24209W        W89194   7.387  10.205   4.603
24210W        W89195   1.933  21.526   4.682
24211W        W89196  36.579  34.527  11.178
24212W        W89197  20.558  43.816   1.074
24213W        W89198  25.071   8.711   1.202
24214W        W89199  29.416  24.061  11.658
24215W        W89200  13.347  32.064   2.780
24216W        W89201  30.279  39.922   0.940
24217W        W89202  20.735   2.804   3.254
24218W        W89203  39.987   9.837  12.548
24219W        W89204  28.252   0.792   9.900
24220W        W89205  12.653  17.666  13.089
24221W        W89206  12.186  38.699   4.155
24222W        W89207  10.736   9.376  10.729
24223W        W89208  12.132  44.037  12.508
24224W        W89209  39.600  28.578  11.426
24225W        W89210  32.395  38.485   1.755
24226W        W89211  37.116  21.353  14.978
24227W        W89212   3.828  34.586   3.309
24228W        W89213  23.507  39.977  14.814
24229W        W89214  28.376   7.995  10.730
24230W        W89215  34.380  41.858   0.103
24231W        W89216  38.111   5.442   0.922
24232W        W89217  13.949  15.316   1.021
24233W        W89218  12.042  23.111  11.484
24234W        W89219  24.104   8.499   1.579
24235W        W89220   2.205   4.228   1.835
24236W        W89221  29.239  43.520   2.202
24237W        W89222  31.040  26.023  11.222
24238W        W89223  40.671  15.609  14.458
24239W        W89224  22.033  40.067  13.812
24240W        W89225  13.663  18.512   1.882
24241W        W89226  27.216   3.806  13.279
24242W        W89227  14.550  40.612   1.752
24243W        W89228  38.900   4.869   3.370
24244W        W89229  13.618   8.762   1.400
24245W        W89230   9.851  26.966   2.365
24246W        W89231   8.355  32.456   0.465
24247W        W89232  19.354  19.772  14.438
24248W        W89233  33.118  22.791  12.854
24249W        W89234   0.356   6.434   2.431
24250W        W89235  13.383  30.928  11.464
24251W        W89236  15.935  29.489   5.046
24252W        W89237  38.415  11.308   1.314
24253W        W89238  10.458  39.148   2.260
24254W        W89239   8.406  44.439   0.014
24255W        W89240   8.616  38.294  13.418
24256W        W89241  16.300  32.568  14.413
24257W        W89242  31.442  35.549  14.716
24258W        W89243   5.223  24.649   2.088
24259W        W89244  29.233  31.949   4.656
24260W        W89245  30.510   9.923  11.288
24261W        W89246  28.742  25.983  10.941
24262W        W89247  12.723  31.437   3.318
24263W        W89248  19.702   8.284   1.467
24264W        W89249   5.279  42.010  14.914
24265W        W89250   6.268  27.885  12.068
24266W        W89251   2.452  37.848  11.093
24267W        W89252  34.995  12.569   0.979
24268W        W89253  21.593  30.843   4.567
24269W        W89254  25.503  18.633  14.365
24270W        W89255  14.838  17.702  12.899
24271W        W89256  30.087  33.641  13.573
24272W        W89257  36.963  29.641  14.474
24273W        W89258   3.268  20.258   4.624
24274W        W89259  20.029  19.326   0.366
24275W        W89260  28.470  26.289   0.325
24276W        W89261  17.201  16.340  14.483
24277W        W89262   8.769  44.389   1.851
24278W        W89263  11.043  25.805  12.615
24279W        W89264  33.103  12.829   4.917
24280W        W89265  26.043  26.520  13.839
24281W        W89266  10.088  40.372   1.299
24282W        W89267  36.449  12.217   3.589
24283W        W89268  11.236  39.776   3.264
24284W        W89269   9.420  14.252  13.529
24285W        W89270  22.188  14.310  11.942
24286W        W89271  14.174  38.483   1.496
24287W        W89272  17.843   5.986   1.186
24288W        W89273   1.705   2.720  13.951
24289W        W89274  11.025  42.778   4.509
24290W        W89275  32.575  44.363   1.679
24291W        W89276   4.843  16.773   0.449
24292W        W89277  13.808   6.398   4.449
24293W        W89278  20.598  12.659  14.604
24294W        W89279  41.802   3.953  11.966
24295W        W89280  13.427  17.262   1.355
24296W        W89281  25.181  28.446   0.932
24297W        W89282  38.934  40.766  10.852
24298W        W89283  29.859   5.343  11.410
24299W        W89284  37.513  27.041   0.707
24300W        W89285  33.950   5.136  10.593
24301W        W89286   2.411  17.086  12.255
24302W        W89287  37.907   1.879   3.258
24303W        W89288  28.420  26.555  13.558
24304W        W89289  40.845  23.525   5.432
24305W        W89290  23.031  30.976   1.610
24306W        W89291  37.047  19.056   0.464
24307W        W89292  34.671  27.070   1.738
24308W        W89293   9.424  42.967  13.817
24309W        W89294  15.114  41.329  12.066
24310W        W89295  35.144  30.612   1.231
24311W        W89296   0.605   3.235   4.861
24312W        W89297  37.309  34.259   0.432
24313W        W89298  43.881  39.611  14.382
24314W        W89299  32.089  23.803   2.741
24315W        W89300  19.036  43.829  14.964
24316W        W89301   2.153  12.647  13.483
24317W        W89302  20.003  29.183  14.254
24318W        W89303  10.248  19.678  13.922
24319W        W89304  42.610  22.527   0.440
24320W        W89305   8.112  26.013   1.830
24321W        W89306  23.534  25.069  11.455
24322W        W89307  31.180  16.692  11.079
24323W        W89308   4.820   2.368  11.246
24324W        W89309   3.997   3.209  12.780
24325W        W89310  31.952   1.549  12.118
24326W        W89311   9.018  32.745  12.455
24327W        W89312  28.133  17.095  14.714
24328W        W89313  12.570  37.043  14.008
24329W        W89314  16.808  11.878   0.655
24330W        W89315  32.164  22.442  11.139
24331W        W89316  20.354  23.981  10.707
24332W        W89317  20.783   7.513  13.468
24333W        W89318  21.258   6.692   3.446
24334W        W89319  20.936  22.967  12.365
24335W        W89320   5.325  14.248  13.933
24336W        W89321  43.704  10.765  14.810
24337W        W89322  17.180  16.125   1.584
24338W        W89323   3.432   8.660  14.892
24339W        W89324  13.619  24.670  11.968
24340W        W89325  21.763  15.724  11.221
24341W        W89326  23.419   9.677  14.232
24342W        W89327  30.090  11.816  10.496
24343W        W89328  25.021  40.649  13.431
24344W        W89329   0.500  44.899  14.218
24345W        W89330   3.884  13.672   3.629
24346W        W89331  31.465  34.402  14.909
24347W        W89332  24.552  16.708   3.103
24348W        W89333  13.203  31.152   3.195
24349W        W89334   3.396  15.943   3.862
24350W        W89335   4.416  31.032  12.372
24351W        W89336  38.433  22.936   1.454
24352W        W89337  38.086   0.311  13.088
24353W        W89338  27.078  44.332   2.217
24354W        W89339  36.523  31.387   0.850
24355W        W89340  37.774  27.248   2.712
24356W        W89341  33.423  18.466  12.875
24357W        W89342  43.086  37.805  11.585
24358W        W89343   0.736  30.973   0.775
24359W        W89344  12.003  29.510  14.028
24360W        W89345  15.837  41.117   0.783
24361W        W89346  29.484   5.731   4.544
24362W        W89347  15.329  28.251   2.093
24363W        W89348  32.769  30.377   3.708
24364W        W89349   4.374   5.877  11.136
24365W        W89350  22.307  16.481  14.937
24366W        W89351  19.497  28.476  13.878
24367W        W89352  24.232  10.556   4.577
24368W        W89353  29.932  23.735   2.860
24369W        W89354  25.019   2.883  11.026
24370W        W89355  28.789   9.534   4.195
24371W        W89356  24.725   1.131   4.577
24372W        W89357  18.040   6.742  12.623
24373W        W89358  29.474  39.274  11.159
24374W        W89359  27.427  14.295   1.846
24375W        W89360  38.804   2.023   1.723
24376W        W89361  30.448   7.944  14.367
24377W        W89362  10.314  36.590   1.521
24378W        W89363  33.965  44.182  10.173
24379W        W89364  24.627  40.948   3.035
24380W        W89365  36.650   5.775   0.946
24381W        W89366  30.625  43.320  10.708
24382W        W89367  19.145  42.264  11.085
24383W        W89368  21.628  31.934   4.797
24384W        W89369   4.936  35.858   0.205
24385W        W89370   4.461  42.882   2.833
24386W        W89371  29.926  12.269   1.839
24387W        W89372  24.317  40.999  14.696
24388W        W89373   2.134  28.329   4.848
24389W        W89374  25.438  28.465   4.167
24390W        W89375  14.334   8.174  11.946
24391W        W89376  25.980  20.793   3.702
24392W        W89377  30.703   1.581  11.531
24393W        W89378  36.227  22.636   4.139
24394W        W89379  38.332  13.158  14.852
24395W        W89380  41.779  37.480   1.785
24396W        W89381   9.642   4.233  13.981
24397W        W89382   1.396  43.054  14.921
24398W        W89383   7.446  20.537  13.943
24399W        W89384  35.122   1.728   1.964
24400W        W89385  10.142  30.962  10.678
24401W        W89386  21.612  15.788   1.415
24402W        W89387  17.354  29.160   0.914
24403W        W89388  20.247  27.269   4.098
24404W        W89389   4.287  25.690   4.644
24405W        W89390  42.247  17.126  12.409
24406W        W89391   4.355  13.593  12.195
24407W        W89392   3.788  10.234  13.326
24408W        W89393  37.960  18.129  14.264
24409W        W89394  20.569  34.567   1.941
24410W        W89395  24.093  44.408  13.836
24411W        W89396  28.912  41.853   4.817
24412W        W89397  33.513  11.705   3.564
24413W        W89398  30.253  16.431   0.510
24414W        W89399  13.580  25.072  12.479
24415W        W89400  33.049  14.391  10.434
24416W        W89401  17.562  10.108  11.942
24417W        W89402  21.436  11.842  13.473
24418W        W89403  39.334   7.908  12.951
24419W        W89404  16.217  39.947   2.939
24420W        W89405   3.719  24.614  12.959
24421W        W89406  14.887  13.849   3.237
24422W        W89407  26.086  27.935  12.987
24423W        W89408  16.631   4.295  10.773
24424W        W89409  34.810  33.228   5.037
24425W        W89410  42.522  44.508   0.040
24426W        W89411  18.316   1.169  12.413
24427W        W89412  11.857   1.459   1.478
24428W        W89413   2.894   4.470   4.626
24429W        W89414  39.010  33.954   4.585
24430W        W89415  28.977  35.903   2.264
24431W        W89416  10.161  15.221  14.912
24432W        W89417   2.723  44.532   3.600
24433W        W89418  38.521   3.922  11.579
24434W        W89419  41.739  19.871  11.150
24435W        W89420  39.705  36.196  11.306
24436W        W89421  39.774  33.028   1.420
24437W        W89422   3.394   5.676   1.521
24438W        W89423   9.796   7.801   2.872
24439W        W89424  42.341  28.332   1.282
24440W        W89425  28.333   7.297  12.092
24441W        W89426  28.007   8.925  11.582
24442W        W89427  33.954  44.293   3.331
24443W        W89428  11.757  42.527   3.563
24444W        W89429  14.223  31.449   0.945
24445W        W89430  32.607  37.008  14.976
24446W        W89431   7.323  24.544  10.514
24447W        W89432  27.636  22.624  10.922
24448W        W89433   3.713  25.059   0.718
24449W        W89434   4.132  12.656  11.150
24450W        W89435   8.114  20.656  13.293
24451W        W89436  12.148   5.175   0.468
24452W        W89437  37.759   8.703   2.325
24453W        W89438  43.895  40.258   0.050
24454W        W89439  42.762   8.917   1.859
24455W        W89440  28.062   5.421   3.605
24456W        W89441  39.459  30.879  14.747
24457W        W89442  41.039   5.554   1.831
24458W        W89443  20.843  24.624   4.894
24459W        W89444  14.638  14.132   2.513
24460W        W89445  21.639  31.811   4.296
24461W        W89446  24.036  10.144  11.937
24462W        W89447  21.093   7.321   4.727
24463W        W89448  24.866  36.253  14.372
24464W        W89449  20.137   4.872   9.683
24465W        W89450  22.768   4.620   4.599
24466W        W89451  25.968   0.494   0.259
24467W        W89452   4.393  12.696   4.746
24468W        W89453  34.080  10.906   2.808
24469W        W89454  38.889  14.081  10.577
24470W        W89455  39.387  21.595  12.843
24471W        W89456  27.633   5.874  10.683
24472W        W89457  23.194  41.242   1.340
24473W        W89458  41.315  21.457  14.018
24474W        W89459  42.210   2.716  12.525
24475W        W89460  26.916   3.939   4.098
24476W        W89461  24.163   0.300   3.695
24477W        W89462  14.101  29.153   4.112
24478W        W89463  41.812  28.267   2.250
24479W        W89464  37.606  36.536   3.682
24480W        W89465  16.592   0.715  10.627
24481W        W89466  16.751  17.532   4.674
24482W        W89467  35.945  33.878   3.193
24483W        W89468  13.570  19.014   4.073
24484W        W89469   8.898  41.902   1.308
24485W        W89470  16.279  27.641   1.841
24486W        W89471   7.445  24.647   4.261
24487W        W89472  36.321  24.826   0.345
24488W        W89473   5.368  16.324  12.694
24489W        W89474  39.813  16.376   2.453
24490W        W89475  18.174  32.456  14.190
24491W        W89476  20.946  13.856  11.983
24492W        W89477  27.933  33.985  12.892
24493W        W89478  14.076  36.286  10.753
24494W        W89479  26.790  28.936  10.351
24495W        W89480  39.940   7.219   2.320
24496W        W89481  34.719  11.122   4.920
24497W        W89482  12.731  31.942  12.343
24498W        W89483  42.570  27.602   3.588
24499W        W89484   3.782  35.026   3.583
24500W        W89485  20.558  34.559   3.187
24501W        W89486  38.922  15.076  12.256
24502W        W89487   1.532  34.474   4.612
24503W        W89488  32.577  13.287   4.555
24504W        W89489  43.482   0.394  13.796
24505W        W89490  25.022  18.911   3.915
24506W        W89491  26.564  26.995   4.617
24507W        W89492  11.609  19.960  14.818
24508W        W89493   0.365   8.198   1.275
24509W        W89494  22.281   7.657  12.855
24510W        W89495  22.524  19.963  11.119
24511W        W89496   5.651   3.450  10.847
24512W        W89497  26.729  28.046   1.325
24513W        W89498  38.586  22.937   2.883
24514W        W89499  22.979  40.594  10.929
24515W        W89500   5.928   6.111  14.947
24516W        W89501  13.745  39.980  14.379
24517W        W89502  24.503  19.836  14.268
24518W        W89503  28.734  10.241  13.119
24519W        W89504  27.885  21.904  14.795
24520W        W89505  41.524  32.369   2.373
24521W        W89506  20.998  18.108  13.390
24522W        W89507  33.063  42.814  10.867
24523W        W89508  34.054  11.721  13.550
24524W        W89509  10.165  27.931   2.160
24525W        W89510   0.276  20.802   3.730
24526W        W89511   3.710  27.893   0.251
24527W        W89512  40.098  32.855   9.828
24528W        W89513  22.346  28.464   1.125
24529W        W89514  22.587  31.258   1.262
24530W        W89515   7.803  13.207   1.715
24531W        W89516  20.974  39.021  14.978
24532W        W89517  20.539  11.635  14.201
24533W        W89518  32.380  33.255  14.276
24534W        W89519  19.665  39.433  11.126
24535W        W89520  41.444   4.775   2.796
24536W        W89521  32.442  14.370  13.166
24537W        W89522  40.878  15.175   4.012
24538W        W89523  27.663  30.056  13.316
24539W        W89524  21.548  17.202  13.451
24540W        W89525  21.798  19.833   2.344
24541W        W89526  11.318  28.149  13.473
24542W        W89527  43.388  15.832  12.389
24543W        W89528   4.496  20.851  12.055
24544W        W89529  12.431  20.215  11.158
24545W        W89530  40.932  14.653   3.778
24546W        W89531  24.086  12.254   4.128
24547W        W89532  20.225  29.512  11.900
24548W        W89533  20.768  12.329  13.928
24549W        W89534  39.479  29.564  13.870
24550W        W89535  21.584  44.202  12.706
24551W        W89536  35.870  31.154   2.915
24552W        W89537  29.207  39.372   4.748
24553W        W89538   9.283  37.502   1.741
24554W        W89539  33.058  36.161  14.942
24555W        W89540  40.494   3.167   3.569
24556W        W89541  16.867  32.000  12.478
24557W        W89542  41.521   4.781  12.958
24558W        W89543  36.726   9.117   5.004
24559W        W89544   6.392  18.180  12.088
24560W        W89545  10.979  26.148   1.890
24561W        W89546  17.571  12.143   4.776
24562W        W89547   7.347  32.453   2.719
24563W        W89548   5.794  32.482  11.578
24564W        W89549  16.514  40.795  13.528
24565W        W89550  39.503  30.316   3.868
24566W        W89551  35.044  33.487   1.259
24567W        W89552   0.426  12.288   2.482
24568W        W89553  29.949   5.237  14.060
24569W        W89554  20.052  36.041   3.294
24570W        W89555  11.662  44.260   1.685
24571W        W89556  11.642  35.526   4.339
24572W        W89557   1.707   3.680   0.215
24573W        W89558  24.804  30.036  14.786
24574W        W89559   7.383  11.009   0.172
24575W        W89560  35.318  23.678   4.156
24576W        W89561  16.991  35.645   3.576
24577W        W89562  12.364  34.667  10.756
24578W        W89563  11.877  29.896   2.155
24579W        W89564   1.816  37.669   1.399
24580W        W89565  35.492   4.444  14.950
24581W        W89566   6.839  27.592  13.057
24582W        W89567  19.724   1.678   2.766
24583W        W89568   4.179  30.124   0.342
24584W        W89569  29.977  19.190  11.686
24585W        W89570  43.502  14.918  12.606
24586W        W89571  34.348  24.513   4.331
24587W        W89572  16.160   3.747   1.643
24588W        W89573  39.496  37.641  13.350
24589W        W89574  38.920  21.896  10.655
24590W        W89575  13.638   8.132  11.758
24591W        W89576  25.195  26.873  10.744
24592W        W89577  16.339  39.439   2.171
24593W        W89578   3.946  20.898  10.725
24594W        W89579  13.167  17.502  10.802
24595W        W89580  33.203  18.244  14.231
24596W        W89581  40.363  43.606   2.323
24597W        W89582  36.662  29.892   2.846
24598W        W89583  34.423  35.880  11.661
24599W        W89584  34.590  10.147  10.974
24600W        W89585  37.575  21.723   1.378
24601W        W89586  36.085  10.237  14.158
24602W        W89587  44.476  12.412  11.282
24603W        W89588  40.971  39.493  10.779
24604W        W89589  42.981   2.499  12.279
24605W        W89590  22.421  43.190   3.284
24606W        W89591  27.511  38.526   3.867
24607W        W89592  21.026  25.444  12.937
24608W        W89593   0.848  16.143  10.719
24609W        W89594  25.030  17.097  14.842
24610W        W89595  24.245   9.736   0.699
24611W        W89596  32.873  29.493   2.350
24612W        W89597   1.661   6.278   2.788
24613W        W89598   2.215  31.946  11.257
24614W        W89599  17.356  30.578  12.986
24615W        W89600  13.501  30.484  14.023
24616W        W89601  12.571  39.973   3.515
24617W        W89602   7.323  41.936   3.909
24618W        W89603  22.536  34.595   2.195
24619W        W89604   4.267  21.230  14.734
24620W        W89605  16.023  15.708  13.010
24621W        W89606  36.936   9.332  10.623
24622W        W89607   6.477  43.550   3.363
24623W        W89608   4.265   3.239   0.930
24624W        W89609  12.809  30.715  13.130
24625W        W89610  43.464  31.469  11.043
24626W        W89611  21.999   6.564   1.813
24627W        W89612  40.257   3.872   2.329
24628W        W89613   4.818   0.755  13.341
24629W        W89614  27.306  30.783  13.024
24630W        W89615   3.799   1.426  11.162
24631W        W89616  11.449   0.962   3.599
24632W        W89617  14.352  14.301   1.679
24633W        W89618   9.177  43.515   3.776
24634W        W89619   1.251   2.907   0.361
24635W        W89620  13.757  43.366   4.514
24636W        W89621  37.528  19.392  10.693
24637W        W89622  30.626   2.668   2.100
24638W        W89623   0.332  37.810  13.901
24639W        W89624   6.931  16.076   2.631
24640W        W89625  12.701  42.961   3.824
24641W        W89626  40.280   2.955   3.114
24642W        W89627   4.254   5.348  14.314
24643W        W89628  44.783  33.478   4.085
24644W        W89629  23.977  40.500   2.815
24645W        W89630   6.471  14.921   3.702
24646W        W89631  15.869  31.033  13.840
24647W        W89632   6.728  14.576  12.591
24648W        W89633  41.904   6.753   4.205
24649W        W89634  33.425  13.283  14.377
24650W        W89635  25.685  43.346   3.794
24651W        W89636  10.216  25.003  14.490
24652W        W89637   2.800  23.894  14.733
24653W        W89638  44.822   1.451   1.686
24654W        W89639   6.782  25.604   1.142
24655W        W89640  22.428  25.768   4.547
24656W        W89641  31.128   3.355  12.577
24657W        W89642   9.227  23.983  12.928
24658W        W89643   0.831  11.395  13.499
24659W        W89644  26.286  11.179  12.017
24660W        W89645  29.461  27.490  13.583
24661W        W89646   0.643  26.557   2.708
24662W        W89647   4.224  39.196   1.895
24663W        W89648  40.685  38.337   3.311
24664W        W89649  27.515  37.467  13.436
24665W        W89650  26.097  24.454   3.593
24666W        W89651  25.255  38.080  10.790
24667W        W89652   3.356  16.689  14.527
24668W        W89653   1.014  43.379  12.302
24669W        W89654  30.572  21.345  11.943
24670W        W89655  14.870  20.489  11.527
24671W        W89656   0.531  44.551   2.736
24672W        W89657  38.919  17.982   0.319
24673W        W89658  26.414  33.671  11.441
24674W        W89659   0.250  15.193  13.510
24675W        W89660   4.482  38.103   0.469
24676W        W89661  38.374  17.517   4.866
24677W        W89662  15.883  43.273   2.457
24678W        W89663  42.974  33.801   1.910
24679W        W89664  44.957   2.742  12.499
24680W        W89665   0.400   8.655  12.012
24681W        W89666  33.816  18.085  13.643
24682W        W89667   1.742  34.376   3.090
24683W        W89668   3.972  41.983  14.775
24684W        W89669   8.206  14.330  13.540
24685W        W89670  16.101   5.070  10.979
24686W        W89671  24.211  23.492   4.624
24687W        W89672  26.575  12.665  11.215
24688W        W89673  28.812  33.375  14.773
24689W        W89674  12.196  26.669   1.957
24690W        W89675  21.484   8.757   0.414
24691W        W89676  27.953  17.538   2.674
24692W        W89677  29.380  12.639  13.416
24693W        W89678  39.744   9.384   2.749
24694W        W89679   8.022  27.694  12.054
24695W        W89680  42.257   5.627   3.791
24696W        W89681  25.052   6.171   0.769
24697W        W89682  43.587  40.578  14.134
24698W        W89683  11.629   1.508  12.384
24699W        W89684  35.613  36.378  12.793
24700W        W89685   4.754   2.437  12.131
24701W        W89686  13.580  28.618   3.644
24702W        W89687  41.095  13.162   2.676
24703W        W89688   4.302  42.351   4.788
24704W        W89689  32.401  16.338  14.392
24705W        W89690  33.358  10.602  13.643
24706W        W89691   9.290  32.176  12.437
24707W        W89692  12.925  36.228  11.176
24708W        W89693  38.116  15.941   4.111
24709W        W89694  17.111  30.632   3.363
24710W        W89695   3.262  10.184  10.986
24711W        W89696   3.240  19.814   3.363
24712W        W89697   3.682   7.116   3.477
24713W        W89698  32.628   0.537  14.309
24714W        W89699  12.482   7.773  10.556
24715W        W89700  12.581  21.713  10.568
24716W        W89701  35.867  19.640   2.671
24717W        W89702  42.199  21.171  11.225
24718W        W89703  19.083  11.171   3.637
24719W        W89704  39.134  27.745   0.322
24720W        W89705  18.717   1.920  14.345
24721W        W89706  44.372  27.449   0.265
24722W        W89707  17.309  35.505   4.257
24723W        W89708  25.079  42.792   2.285
24724W        W89709  23.782  11.107   1.797
24725W        W89710  13.831  13.533   3.367
24726W        W89711  34.301  15.619   2.755
24727W        W89712  21.716  33.118  14.597
24728W        W89713  24.456  40.489  11.452
24729W        W89714   5.152  31.991   1.647
24730W        W89715  22.071  11.290  11.185
24731W        W89716  21.169  42.351   4.701
24732W        W89717  23.426  21.496  13.102
24733W        W89718  37.885  29.738   0.403
24734W        W89719   5.253  13.832  12.599
24735W        W89720  22.052  34.159   4.102
24736W        W89721   9.776  35.967   3.116
24737W        W89722   9.650  13.131  11.622
24738W        W89723  41.048  28.943  10.697
24739W        W89724  37.118  40.116  11.070
24740W        W89725  40.081  27.946  14.064
24741W        W89726  23.586  40.202   2.600
24742W        W89727  29.089   8.132   1.031
24743W        W89728  37.169  14.012  11.119
24744W        W89729  36.540  30.502  14.534
24745W        W89730  42.271  29.754   2.519
24746W        W89731  16.292  36.960  12.208
24747W        W89732  41.432  16.843   2.718
24748W        W89733  15.147  21.771   0.552
24749W        W89734   6.222  27.663  11.589
24750W        W89735   6.718  40.339   3.342
24751W        W89736  41.811  22.533   4.702
24752W        W89737  42.089  37.965   4.088
24753W        W89738   6.501  23.565  13.473
24754W        W89739  18.126  15.399  14.358
24755W        W89740  10.318   7.723   1.807
24756W        W89741  15.753   0.957   3.334
24757W        W89742  29.053  16.752  12.995
24758W        W89743  11.729   5.391   0.275
24759W        W89744  31.928  39.390   2.695
24760W        W89745   0.396  32.601   1.387
24761W        W89746  37.412  26.306   1.575
24762W        W89747  35.574  22.242  13.629
24763W        W89748  34.179  29.564  14.354
24764W        W89749   8.626  18.438  14.743
24765W        W89750  20.227   2.164   4.113
24766W        W89751  38.293   4.618  10.994
24767W        W89752  23.292  12.567  14.190
24768W        W89753  41.988  22.956  10.085
24769W        W89754   1.230  38.543   2.138
24770W        W89755   3.442  35.985   1.964
24771W        W89756   6.741  21.984   2.292
24772W        W89757  36.791  14.247   3.490
24773W        W89758   6.269  35.772   2.577
24774W        W89759  24.618  26.870   2.901
24775W        W89760  31.120   6.548   1.822
24776W        W89761  20.252  10.398   2.396
24777W        W89762   4.425  23.505  12.544
24778W        W89763  29.167  10.831  11.258
24779W        W89764  42.423  21.606  13.161
24780W        W89765  28.018   0.786  12.416
24781W        W89766  20.033  16.037   3.208
24782W        W89767  33.222  28.065   4.980
24783W        W89768  29.131   4.188   1.735
24784W        W89769  21.131  33.547   2.363
24785W        W89770  30.717  14.853   1.950
24786W        W89771  32.419  36.390   1.786
24787W        W89772  33.899   9.005  14.802
24788W        W89773  16.780   8.774  12.293
24789W        W89774  22.669   2.916  13.393
24790W        W89775  29.704  22.264  11.061
24791W        W89776   8.622   8.174   0.829
24792W        W89777  32.124  21.289  12.088
24793W        W89778  25.259  29.916   1.862
24794W        W89779  35.957  36.129   1.790
24795W        W89780   0.971  38.157   1.793
24796W        W89781   6.152   2.757  12.769
24797W        W89782  13.035  11.526   1.919
24798W        W89783   9.362  44.509   1.192
24799W        W89784   9.176  42.125  12.890
24800W        W89785  28.894   3.778   0.883
24801W        W89786  19.206   6.980   1.890
24802W        W89787  42.186  36.314  12.001
24803W        W89788  17.998  35.590  11.970
24804W        W89789   3.180   8.762   2.769
24805W        W89790  43.624  39.678   2.807
24806W        W89791   8.121  39.285   3.621
24807W        W89792  44.678  26.888   1.439
24808W        W89793   3.890  13.874   4.566
24809W        W89794  11.149  13.082  11.633
24810W        W89795  21.794  21.609  14.427
24811W        W89796  42.959  36.742  14.551
24812W        W89797  30.927  32.475   1.309
24813W        W89798  12.674   9.824  11.186
24814W        W89799  39.013  19.617  14.828
24815W        W89800  20.582   5.860   0.460
24816W        W89801  38.527  42.832   1.737
24817W        W89802  30.968  30.126  12.048
24818W        W89803  22.645  22.952  12.820
24819W        W89804  34.933  25.682  14.426
24820W        W89805  35.449  42.047   1.357
24821W        W89806  22.349  38.595  10.081
24822W        W89807  29.483  27.011   2.427
24823W        W89808   2.723  41.346  11.519
24824W        W89809  24.226  39.913  12.093
24825W        W89810  26.175  19.224  14.488
24826W        W89811  18.016  10.721   2.369
24827W        W89812   5.336  33.638  13.775
24828W        W89813  16.638  39.539   4.397
24829W        W89814  43.865   5.008  14.270
24830W        W89815  41.242  39.841   1.785
24831W        W89816   5.367  18.195   4.524
24832W        W89817   0.517   8.690  12.896
24833W        W89818   0.540   4.300  12.483
24834W        W89819  30.990  11.848  12.839
24835W        W89820   2.431  33.676   3.161
24836W        W89821  18.806  30.651   3.507
24837W        W89822   5.837  18.774  11.267
24838W        W89823   5.525  28.090   0.723
24839W        W89824  27.406  10.833   4.199
24840W        W89825  26.912   5.186   2.365
24841W        W89826  29.861   0.211  14.471
24842W        W89827   2.301  21.297  12.540
24843W        W89828  24.895  11.129  11.124
24844W        W89829   9.728   2.425  14.106
24845W        W89830  31.662  15.582  11.948
24846W        W89831  12.918  29.626   0.411
24847W        W89832   3.922   5.461  12.351
24848W        W89833  28.976  14.735  14.551
24849W        W89834  18.250  12.332   1.259
24850W        W89835   9.187   1.398   3.335
24851W        W89836  18.805   0.704  13.059
24852W        W89837   4.174  24.273   1.701
24853W        W89838  35.826  43.532   3.155
24854W        W89839  40.883  20.625   3.364
24855W        W89840  40.093  26.651   1.755
24856W        W89841  31.099   7.296  10.745
24857W        W89842  42.993  31.325  14.855
24858W        W89843  12.703  41.052  11.078
24859W        W89844  29.298  19.149  14.792
24860W        W89845  16.258  43.356  10.725
24861W        W89846  34.927   7.230   3.705
24862W        W89847  28.980  30.923   3.977
24863W        W89848   4.278  34.023   4.805
24864W        W89849  20.615  22.072   4.186
24865W        W89850  44.906  14.266   1.248
24866W        W89851   5.658  38.120   3.344
24867W        W89852  41.013  10.875  14.834
24868W        W89853  29.125  38.793   4.120
24869W        W89854  32.319  38.568   2.636
24870W        W89855  42.463   9.250  14.356
24871W        W89856   3.262   1.338  14.890
24872W        W89857  29.965   3.532   0.745
24873W        W89858  13.482  13.563  13.148
24874W        W89859  25.467   9.352  12.022
24875W        W89860  26.589   5.269   0.803
24876W        W89861   2.158  24.543  11.263
24877W        W89862  20.270  34.184   1.705
24878W        W89863  37.796   8.664  12.580
24879W        W89864  16.226   4.494  12.590
24880W        W89865  36.285  41.988  13.961
24881W        W89866  22.338  17.652  13.563
24882W        W89867   4.012  32.676  11.634
24883W        W89868  35.126  27.475   2.745
24884W        W89869  26.972  39.327  13.028
24885W        W89870  22.802  41.336  13.438
24886W        W89871  44.718  34.540   1.755
24887W        W89872  24.659  13.810  13.067
24888W        W89873   2.291  28.200   0.792
24889W        W89874  31.989  33.317   1.708
24890W        W89875  31.690  30.044   0.438
24891W        W89876   1.767   3.926   0.672
24892W        W89877  29.249  16.123   3.890
24893W        W89878  37.485   2.934   2.332
24894W        W89879  28.105  21.757   1.242
24895W        W89880  24.665  39.316  11.546
24896W        W89881  40.929  33.069  12.106
24897W        W89882   3.505  33.932  13.836
24898W        W89883   9.181   5.202   0.566
24899W        W89884  11.341  38.643  11.092
24900W        W89885   5.017  43.944  14.955
24901W        W89886  31.623   6.858  12.421
24902W        W89887  20.976  12.202   3.305
24903W        W89888   6.084  20.677  11.908
24904W        W89889  17.762  17.502   2.591
24905W        W89890  16.820   1.026   0.997
24906W        W89891  27.978   4.175  12.501
24907W        W89892  19.354  32.409  12.507
24908W        W89893  23.224  21.005  13.991
24909W        W89894   7.253  23.014  11.429
24910W        W89895  26.816   1.281  10.779
24911W        W89896   4.369  30.578  11.918
24912W        W89897  18.511  24.609  10.691
24913W        W89898  36.448  10.415  11.477
24914W        W89899   9.955  13.837   0.364
24915W        W89900  44.799  36.390  10.751
24916W        W89901   1.192  19.043  14.465
24917W        W89902  22.522  26.854  12.336
24918W        W89903  22.922  38.518   1.445
24919W        W89904  13.074   8.361   1.983
24920W        W89905   8.381  20.808  11.481
24921W        W89906  42.016  30.556   0.881
24922W        W89907  25.438  28.358   3.629
24923W        W89908   4.234   7.477   2.838
24924W        W89909  13.328  25.474   1.655
24925W        W89910  15.086   0.163   3.997
24926W        W89911   0.738  25.586   4.636
24927W        W89912   4.803  35.796  13.410
24928W        W89913   2.173  14.474   4.856
24929W        W89914  30.136  21.142   3.320
24930W        W89915  41.556   4.161  11.113
24931W        W89916  22.376   5.722  10.503
24932W        W89917   6.158  33.796   1.970
24933W        W89918  13.622  16.535  11.407
24934W        W89919  42.644  41.442   3.531
24935W        W89920  19.222  19.589   2.235
24936W        W89921   8.381  33.831   3.697
24937W        W89922  38.363  17.099   3.835
24938W        W89923  28.759   7.600   2.353
24939W        W89924  27.178  18.809  12.716
24940W        W89925  15.720  36.902   2.883
24941W        W89926   2.658  16.320  10.617
24942W        W89927  41.434   4.224  14.295
24943W        W89928  38.752   6.596   2.779
24944W        W89929  26.702  33.825  14.063
24945W        W89930  20.071  24.352   3.774
24946W        W89931  26.407   4.218  11.595
24947W        W89932  18.238  43.753  11.114
24948W        W89933   5.475  13.044   0.180
24949W        W89934  28.467   5.164   3.742
24950W        W89935  31.365  42.436   0.171
24951W        W89936  22.941  20.566   0.015
24952W        W89937  11.190  37.541  14.736
24953W        W89938  34.502  12.684  11.933
24954W        W89939  17.188  34.020  10.711
24955W        W89940   2.025  24.763  13.486
24956W        W89941  23.762  27.588   0.766
24957W        W89942   2.865  22.911   2.711
24958W        W89943  22.996  14.302  12.361
24959W        W89944  40.344  16.026  14.453
24960W        W89945  12.678  14.137   2.278
24961W        W89946  25.886  36.450  10.737
24962W        W89947   1.444  27.100   3.284
24963W        W89948  23.880  31.006   2.234
24964W        W89949  15.658  38.767  13.098
24965W        W89950  38.949  30.875   0.316
24966W        W89951  44.942  22.177   1.328
24967W        W89952  27.307  28.979  14.356
24968W        W89953  13.672  44.719   0.906
24969W        W89954  37.758  25.496  13.422
24970W        W89955  31.096  42.486  12.186
24971W        W89956  38.104  22.966  10.901
24972W        W89957  13.310  23.037   3.820
24973W        W89958  42.019  38.455   1.122
24974W        W89959  26.181  20.789   1.949
24975W        W89960  25.949   1.774  14.426
24976W        W89961   4.364  27.503   3.156
24977W        W89962  24.732  23.172   0.244
24978W        W89963  12.809   5.433  14.348
24979W        W89964   5.831  41.849  14.070
24980W        W89965  28.154  25.045   4.177
24981W        W89966  24.172  30.671  12.317
24982W        W89967  28.181  35.204   1.871
24983W        W89968  21.459  32.843   1.313
24984W        W89969   1.290  44.929   0.293
24985W        W89970  19.685  28.947  13.926
24986W        W89971  11.722   2.677   3.685
24987W        W89972  12.232   0.802  10.818
24988W        W89973  23.555   1.437   3.236
24989W        W89974  23.342  29.051  10.514
24990W        W89975  44.183  12.825  11.015
24991W        W89976  34.526  18.843   1.356
24992W        W89977  42.513  10.278  12.923
24993W        W89978  39.281  21.084   2.233
24994W        W89979   3.852  30.896   0.779
24995W        W89980  10.887   4.950  11.165
24996W        W89981  30.116  32.368   2.773
24997W        W89982  23.494  10.736   4.315
24998W        W89983  36.902   6.811   4.776
24999W        W89984  29.968  29.754   4.253
25000W        W89985   4.767   3.296  14.477
25001W        W89986  26.169  30.214  11.730
25002W        W89987   3.597  21.679  14.163
25003W        W89988  27.346  16.934   3.154
25004W        W89989  26.952  23.171   2.243
25005W        W89990  24.996  14.074  11.463
25006W        W89991  31.721   6.189   0.811
25007W        W89992   7.445  37.447  13.520
25008W        W89993  12.836   7.825  14.028
25009W        W89994  26.150  26.491  12.925
25010W        W89995  40.450  40.411  10.857
25011W        W89996  35.894  29.667  11.536
25012W        W89997  31.830   0.037   1.798
25013W        W89998  10.691  14.555   2.655
25014W        W89999  41.853  31.977  12.978
25015W        W90000  29.336  32.475   4.573
25016W        W90001  16.414  20.448   9.817
25017W        W90002  36.065  41.227   0.754
25018W        W90003  38.435   2.663  12.880
25019W        W90004  28.392  17.655  10.437
25020W        W90005   2.146  42.906   2.859
25021W        W90006   5.215  17.826   1.412
25022W        W90007  10.800  34.453   3.201
25023W        W90008  26.819  29.000  13.253
25024W        W90009  27.520  24.534  10.715
25025W        W90010  28.056   9.242   1.752
25026W        W90011  38.492   8.695   0.713
25027W        W90012   6.521   5.973   1.058
25028W        W90013   6.970  19.773  13.697
25029W        W90014  34.945   4.269  13.536
25030W        W90015   1.732  23.793  13.769
25031W        W90016  20.217  33.862   4.097
25032W        W90017  33.147  15.988  13.458
25033W        W90018  25.322   3.878   2.705
25034W        W90019  14.415  44.461   1.722
25035W        W90020  31.074  21.412   3.810
25036W        W90021  27.010  10.676  13.303
25037W        W90022  33.664  36.209   3.741
25038W        W90023  23.444  26.392   2.175
25039W        W90024  38.074  39.918   2.809
25040W        W90025   6.125  15.238  14.282
25041W        W90026  31.016   4.894   3.047
25042W        W90027   1.316  26.095  12.864
25043W        W90028  29.999  18.713   4.512
25044W        W90029   0.869  32.294   2.275
25045W        W90030   6.883  21.655   1.489
25046W        W90031  42.550  20.423  11.556
25047W        W90032  28.194  40.023  13.269
25048W        W90033  14.573  39.038  14.374
25049W        W90034  42.893   7.008  10.612
25050W        W90035  12.560  18.811   4.199
25051W        W90036   7.885   2.619   1.184
25052W        W90037  41.998  37.042   4.220
25053W        W90038  41.406  28.394   1.065
25054W        W90039  21.235   1.964  13.184
25055W        W90040  24.234   8.338   2.070
25056W        W90041   4.040  11.837   1.641
25057W        W90042   6.884  43.989   4.176
25058W        W90043   8.926  23.049  12.799
25059W        W90044  20.646  23.949   5.439
25060W        W90045  26.930   4.870  12.059
25061W        W90046  42.522   5.336  11.536
25062W        W90047  35.950   2.595  13.504
25063W        W90048  15.687  17.986   9.982
25064W        W90049  39.628  38.749   2.898
25065W        W90050  38.041   7.754  13.422
25066W        W90051  10.732  16.673   1.790
25067W        W90052  15.583   3.776  12.184
25068W        W90053  14.159  16.968  14.924
25069W        W90054   0.036  27.044   1.808
25070W        W90055   9.854  35.877  12.114
25071W        W90056   3.205  35.506   3.303
25072W        W90057  42.458   9.369   1.400
25073W        W90058  17.585  36.874  11.280
25074W        W90059  41.480  40.014   2.337
25075W        W90060   5.912  32.526   0.265
25076W        W90061  12.949  24.909  13.069
25077W        W90062  33.544  32.445  13.295
25078W        W90063  27.019  24.176  12.154
25079W        W90064  20.862   0.805   2.991
25080W        W90065  28.750   2.513  12.050
25081W        W90066  21.649  12.523  10.980
25082W        W90067  28.547   3.018   3.030
25083W        W90068   5.893   2.990   4.569
25084W        W90069   5.299  21.969  13.868
25085W        W90070   3.879  35.402   4.661
25086W        W90071  23.169   1.778   0.041
25087W        W90072  25.617   3.407  12.499
25088W        W90073   1.373   6.325   2.385
25089W        W90074  44.859   0.268   0.800
25090W        W90075   3.960   6.896   4.094
25091W        W90076  18.714  23.158  10.540
25092W        W90077   1.227  32.650   4.893
25093W        W90078  28.382   9.548   0.705
25094W        W90079   1.865  34.194  14.919
25095W        W90080   0.002  25.032  12.840
25096W        W90081   3.301  16.954  12.645
25097W        W90082  10.735  35.596  10.767
25098W        W90083  29.030  14.395  13.365
25099W        W90084  39.045   4.247  12.389
25100W        W90085  33.681  17.492  13.878
25101W        W90086  39.717  33.097  14.323
25102W        W90087  30.581   4.829  13.500
25103W        W90088  14.426  34.113   3.128
25104W        W90089   9.749  12.218  10.944
25105W        W90090   9.962   9.880   2.931
25106W        W90091   6.973  42.510   1.401
25107W        W90092  25.089  16.090   0.802
25108W        W90093  16.705  42.276  13.769
25109W        W90094  22.570  10.952  14.862
25110W        W90095  22.926  30.570   0.844
25111W        W90096  16.752  16.550  12.139
25112W        W90097  33.890   3.857   4.066
25113W        W90098  14.645  12.974  11.216
25114W        W90099   6.747  43.836   2.145
25115W        W90100  40.003  44.695  14.216
25116W        W90101  27.185  35.401   4.003
25117W        W90102   9.495  18.450   5.023
25118W        W90103  42.649   6.307  13.514
25119W        W90104  32.982  43.956  12.055
25120W        W90105   5.934   9.452   0.363
25121W        W90106   5.763   1.176  13.513
25122W        W90107  27.091   9.057   2.219
25123W        W90108  41.755  33.646   2.766
25124W        W90109  44.853   2.576  12.991
25125W        W90110  32.136  19.194  10.710
25126W        W90111  10.199  15.261  13.495
25127W        W90112  25.057  35.812  14.551
25128W        W90113  18.982  25.488   1.160
25129W        W90114  34.449  30.967   1.378
25130W        W90115   9.862  43.415   1.683
25131W        W90116  20.190  29.845  12.921
25132W        W90117  33.400  14.659  10.988
25133W        W90118  30.381  31.087  11.494
25134W        W90119  16.625  31.055  11.603
25135W        W90120  17.959   4.865   0.707
25136W        W90121  37.674  25.863   3.259
25137W        W90122   0.103  43.341  14.631
25138W        W90123  34.266  22.455   4.707
25139W        W90124   7.996  24.016  13.040
25140W        W90125  19.246   8.706  11.532
25141W        W90126  35.882  43.487  13.954
25142W        W90127  18.096  21.033   1.884
25143W        W90128  35.095  25.116  11.146
25144W        W90129  27.573  15.915   2.923
25145W        W90130  31.440  13.616   2.816
25146W        W90131  24.497  31.220   3.319
25147W        W90132  29.140  28.893   1.780
25148W        W90133  10.685  10.167   3.387
25149W        W90134  39.023  19.052  12.832
25150W        W90135  29.080   9.874   2.367
25151W        W90136  42.563  30.332   2.664
25152W        W90137  12.244  23.042   2.269
25153W        W90138  19.004   0.522   4.494
25154W        W90139   3.446   4.849  10.189
25155W        W90140  23.908   5.279   2.849
25156W        W90141  10.189   0.368   9.880
25157W        W90142  43.467   4.472   3.703
25158W        W90143  34.984  14.110  13.605
25159W        W90144  24.460  37.982  14.425
25160W        W90145  38.633  14.350  13.495
25161W        W90146  32.542   2.685   3.139
25162W        W90147  37.657  29.445   0.841
25163W        W90148  22.001  22.814   4.579
25164W        W90149  11.474   8.399  11.134
25165W        W90150  31.678  35.417   2.296
25166W        W90151  21.322   6.960  10.988
25167W        W90152  10.635  41.363  11.162
25168W        W90153  44.006  29.865   2.788
25169W        W90154  40.354  39.863   2.810
25170W        W90155  13.806  22.371   2.896
25171W        W90156  10.738   2.790   1.271
25172W        W90157  21.238   2.373  12.335
25173W        W90158  38.811  17.438   5.184
25174W        W90159  31.038  22.896  13.341
25175W        W90160  30.101  33.184  11.170
25176W        W90161  44.028  12.315  13.961
25177W        W90162  18.682   3.244  13.594
25178W        W90163   0.488  26.220   0.058
25179W        W90164  32.642  32.124  10.514
25180W        W90165  17.304  34.066   4.549
25181W        W90166  23.383   2.440  14.757
25182W        W90167  17.680  10.240  10.949
25183W        W90168  21.114  28.237  13.900
25184W        W90169   4.921  40.139   2.392
25185W        W90170  34.068   3.985   1.194
25186W        W90171   4.123  20.555  13.511
25187W        W90172  13.300  15.618  13.112
25188W        W90173  31.291  13.759   1.447
25189W        W90174  12.757  16.269  14.144
25190W        W90175  16.585  35.039   4.069
25191W        W90176  34.640  35.071   2.492
25192W        W90177  40.905  12.272   2.428
25193W        W90178   0.379  15.916   1.210
25194W        W90179   1.287  42.465   0.796
25195W        W90180  15.830  11.740  11.270
25196W        W90181  21.185  41.432   2.170
25197W        W90182  21.737  17.204  13.938
25198W        W90183  35.393  20.493   3.652
25199W        W90184   4.010  40.457  14.001
25200W        W90185  28.161   6.396   3.867
25201W        W90186  15.781  21.154  10.820
25202W        W90187   3.838  36.826  12.102
25203W        W90188  14.763  23.853   2.334
25204W        W90189   8.643  12.568   3.813
25205W        W90190  10.705   2.103  10.749
25206W        W90191  30.962   2.345  12.645
25207W        W90192  41.839  26.724   1.528
25208W        W90193  43.673  44.661  12.826
25209W        W90194  18.605  12.930   4.795
25210W        W90195  10.228  41.569  13.216
25211W        W90196  23.471  22.520   2.657
25212W        W90197  35.508  35.911   4.502
25213W        W90198  31.862  11.262   3.205
25214W        W90199   7.964   3.827  12.614
25215W        W90200  26.987   7.636   0.339
25216W        W90201  33.669  17.607   0.782
25217W        W90202  21.069  18.251   3.692
25218W        W90203  17.955  41.411  13.749
25219W        W90204  16.590  14.890  11.682
25220W        W90205  14.652  29.810   0.552
25221W        W90206  39.523  12.342   1.860
25222W        W90207  26.228   4.996   1.872
25223W        W90208  21.257  43.672  13.957
25224W        W90209  27.638  42.900   4.077
25225W        W90210  40.011  11.698  11.275
25226W        W90211  13.040   1.246   1.089
25227W        W90212   7.415  35.392   0.778
25228W        W90213   6.694  38.564   2.853
25229W        W90214  23.382  33.457   2.115
25230W        W90215  10.832  43.732   0.780
25231W        W90216  25.725   3.175   2.892
25232W        W90217  33.146  24.154   4.453
25233W        W90218  18.278   6.252   1.199
25234W        W90219  36.510  24.230  12.036
25235W        W90220  24.737  12.221  11.999
25236W        W90221  38.530  15.164  13.139
25237W        W90222  43.116   6.419  12.655
25238W        W90223  41.066  25.042   1.661
25239W        W90224  39.430   9.188   0.783
25240W        W90225  11.762  43.264  14.841
25241W        W90226  24.137  16.838  14.268
25242W        W90227  35.354  29.755  10.885
25243W        W90228  21.183  17.482  11.368
25244W        W90229  16.273   5.519  12.616
25245W        W90230  24.623  19.834  10.578
25246W        W90231  42.798  37.146  11.823
25247W        W90232   0.471  10.211  12.148
25248W        W90233   1.359  32.943  12.047
25249W        W90234  43.000  37.548  12.046
25250W        W90235  37.499  19.264  12.931
25251W        W90236  41.846  13.678  11.402
25252W        W90237   5.729  23.686  14.044
25253W        W90238  33.804  31.093  12.581
25254W        W90239  11.658  25.494  10.504
25255W        W90240  16.407  35.087   1.941
25256W        W90241  16.233   9.864  11.641
25257W        W90242  23.721  37.935  10.773
25258W        W90243  27.163  14.258  10.607
25259W        W90244  29.665   2.833  10.603
25260W        W90245  26.189   5.355  14.301
25261W        W90246  43.768  12.776  14.016
25262W        W90247   2.408   8.630   1.701
25263W        W90248  40.774  24.117   1.835
25264W        W90249  44.011  27.085   1.571
25265W        W90250   1.971  17.554   4.561
25266W        W90251  11.520   9.139   1.990
25267W        W90252  38.060   2.326   2.390
25268W        W90253  12.750  40.298  14.296
25269W        W90254  34.577  39.847   0.581
25270W        W90255  19.744  18.675  11.110
25271W        W90256  16.061   2.976  12.140
25272W        W90257  30.464   7.852   4.591
25273W        W90258  38.097  29.476  13.928
25274W        W90259  31.899   6.083  11.550
25275W        W90260  29.004  36.425   2.311
25276W        W90261  14.568  42.183   4.150
25277W        W90262  20.174  26.904   2.272
25278W        W90263  12.713  42.439   1.306
25279W        W90264   2.181  17.247   0.768
25280W        W90265  10.139   5.695  13.422
25281W        W90266  43.760   8.874  13.425
25282W        W90267   9.559  10.150  11.994
25283W        W90268  13.813  28.655   2.015
25284W        W90269  16.015  40.754  13.533
25285W        W90270  32.012  42.312  14.331
25286W        W90271  15.660  13.360   4.851
25287W        W90272  27.154  36.249   2.733
25288W        W90273  29.517   5.674   1.748
25289W        W90274  18.504  29.899   3.181
25290W        W90275  14.801  12.200  12.997
25291W        W90276  28.379   1.151  11.131
25292W        W90277  24.348   3.500  13.115
25293W        W90278  21.825  40.913  12.889
25294W        W90279   8.386  23.744   3.150
25295W        W90280  30.588  41.804  12.074
25296W        W90281  20.975  29.923   0.954
25297W        W90282  44.265  38.859  10.469
25298W        W90283  13.730  23.433   1.847
25299W        W90284  33.529  34.351   3.273
25300W        W90285  22.135  33.955   1.713
25301W        W90286   2.929  35.427   2.847
25302W        W90287  27.062   2.105   5.016
25303W        W90288  20.173   2.505  11.107
25304W        W90289   1.134   9.921  14.092
25305W        W90290  26.256  22.992  13.370
25306W        W90291  20.692  18.055   0.203
25307W        W90292  24.842  39.057   1.346
25308W        W90293  38.013  31.177   3.587
25309W        W90294  21.885  41.791   1.263
25310W        W90295  39.184  32.948  14.244
25311W        W90296  18.636  30.226  11.541
25312W        W90297   7.916  31.609  14.392
25313W        W90298  28.631  34.129  14.250
25314W        W90299   8.664  29.306   0.778
25315W        W90300  10.154  17.603  13.027
25316W        W90301  17.003  22.767   0.984
25317W        W90302  15.639  24.691  13.891
25318W        W90303  25.122  43.515   1.773
25319W        W90304  20.645  40.053   4.069
25320W        W90305  24.116   9.859  12.348
25321W        W90306   3.182  11.174  12.007
25322W        W90307  18.489  18.649   3.240
25323W        W90308  17.240  19.040   4.719
25324W        W90309   5.727  42.125   2.021
25325W        W90310  26.698  40.507   4.666
25326W        W90311  28.225   3.433   4.121
25327W        W90312   0.080  27.617  10.066
25328W        W90313   7.729  13.186   2.236
25329W        W90314  41.707   8.010  14.743
25330W        W90315  27.626  12.028   2.338
25331W        W90316   2.217  24.504   0.986
25332W        W90317  37.317  35.764  13.922
25333W        W90318  39.480   3.699  13.987
25334W        W90319  25.075   8.038  10.540
25335W        W90320  37.951  39.756  14.782
25336W        W90321  40.287   8.710  13.429
25337W        W90322  30.592   2.712   4.791
25338W        W90323  42.850  21.486   1.424
25339W        W90324  43.432  39.312  14.281
25340W        W90325   5.327  36.511   1.004
25341W        W90326  19.531   8.737   0.397
25342W        W90327  33.983   0.821   4.587
25343W        W90328  12.883   6.382  10.595
25344W        W90329  24.258   5.341  13.945
25345W        W90330   3.193   2.327   4.093
25346W        W90331   2.521  40.104   2.595
25347W        W90332   1.931  13.374   4.064
25348W        W90333  11.363  42.878   3.678
25349W        W90334  40.931  25.084  11.260
25350W        W90335  42.968  14.339  12.277
25351W        W90336  24.650  14.907  11.064
25352W        W90337   2.969  40.520  11.007
25353W        W90338  43.576  18.026   2.775
25354W        W90339  31.900   8.259  10.437
25355W        W90340  11.377  25.053  10.064
25356W        W90341  14.699  20.958   2.932
25357W        W90342  10.284  37.418  12.835
25358W        W90343  35.499  16.530  13.475
25359W        W90344  32.401  16.994  12.510
25360W        W90345  11.906  33.956   1.740
25361W        W90346   4.735  44.250  11.915
25362W        W90347  23.971  37.492  10.643
25363W        W90348   1.706  35.955  12.044
25364W        W90349  39.517  34.533   4.021
25365W        W90350  24.912  26.720   2.131
25366W        W90351  30.405  17.316   1.687
25367W        W90352  28.654  20.750  13.638
25368W        W90353  34.588  26.338   3.639
25369W        W90354  30.111  27.637  11.162
25370W        W90355  10.535  31.924  11.890
25371W        W90356  39.803  30.559  12.604
25372W        W90357   0.222   8.971  14.940
25373W        W90358  35.409   7.272  14.127
25374W        W90359  14.645   3.565  10.618
25375W        W90360  17.134  13.220   1.337
25376W        W90361  43.272  17.191   2.422
25377W        W90362  21.393  10.120  14.466
25378W        W90363  32.044   8.741  14.372
25379W        W90364  17.614   3.330   1.923
25380W        W90365  12.634  34.448  13.998
25381W        W90366  42.920  36.015   1.680
25382W        W90367  30.410  19.592  10.579
25383W        W90368   2.176  23.256   4.159
25384W        W90369  32.959  12.402   3.156
25385W        W90370   4.822  26.476   1.908
25386W        W90371  44.300  21.401   4.965
25387W        W90372   8.215   6.951   4.477
25388W        W90373  34.839  14.551  11.085
25389W        W90374  36.027  36.654   1.866
25390W        W90375   5.132  24.433   0.764
25391W        W90376  34.048   7.726   5.407
25392W        W90377  29.388  43.022   1.260
25393W        W90378  14.611  10.555  14.447
25394W        W90379  20.667  25.754  12.413
25395W        W90380  15.157  21.713  13.648
25396W        W90381  37.910  10.575   1.657
25397W        W90382  21.224  27.548   3.253
25398W        W90383  14.305  26.544  14.486
25399W        W90384  40.793  37.595   4.491
25400W        W90385   7.102   5.335  14.748
25401W        W90386  30.918  36.057   2.290
25402W        W90387  44.021  23.560   2.768
25403W        W90388  28.533  15.029  13.213
25404W        W90389   1.901  38.184   2.828
25405W        W90390  31.012  17.555  14.118
25406W        W90391  17.861   3.751  11.532
25407W        W90392  37.129  30.113   3.666
25408W        W90393  43.964  17.533   0.380
25409W        W90394   8.263   3.384   4.219
25410W        W90395  30.555   6.271  10.717
25411W        W90396   3.213  28.018   0.758
25412W        W90397  23.641  34.072   3.210
25413W        W90398  42.956  32.609  14.709
25414W        W90399   8.370  41.695  13.015
25415W        W90400   5.894  24.282  12.909
25416W        W90401  38.598  33.491   1.841
25417W        W90402  38.935  32.939  11.890
25418W        W90403   3.006  11.213  11.522
25419W        W90404   6.690   3.480  13.096
25420W        W90405  11.544  39.101  11.858
25421W        W90406  24.529  41.459  11.606
25422W        W90407  23.967   1.994  12.042
25423W        W90408  24.172  33.873   4.053
25424W        W90409  28.909  38.823  13.364
25425W        W90410  14.078  26.097   1.842
25426W        W90411  26.134  18.369  11.939
25427W        W90412   0.038  21.995   4.181
25428W        W90413   7.697  13.095  13.551
25429W        W90414  43.183   4.434  13.870
25430W        W90415  13.395  23.551  11.127
25431W        W90416  27.860   0.724  14.995
25432W        W90417  32.205  39.957  13.872
25433W        W90418  12.360  21.654   3.524
25434W        W90419  18.655  40.353   1.495
25435W        W90420  36.676  26.688   2.307
25436W        W90421  14.229   1.430  11.482
25437W        W90422  11.061  25.040  11.025
25438W        W90423  21.061  36.641  12.414
25439W        W90424  22.925  25.042  11.138
25440W        W90425  32.531  23.224  11.382
25441W        W90426  30.900  28.599   2.845
25442W        W90427   7.870  10.886   0.350
25443W        W90428  21.056  32.370  14.177
25444W        W90429  42.469  20.251   3.264
25445W        W90430   1.895   9.441  11.025
25446W        W90431   4.000  44.483   0.472
25447W        W90432  39.589  39.472  14.923
25448W        W90433  22.533   9.491  13.944
25449W        W90434  32.372  26.881   0.257
25450W        W90435  23.233  35.790   2.429
25451W        W90436  37.126  44.297  11.972
25452W        W90437  37.922  26.686   0.747
25453W        W90438  34.940   9.390  10.821
25454W        W90439  16.546  19.991  11.071
25455W        W90440  10.198  15.075  11.554
25456W        W90441   9.701  12.477   4.573
25457W        W90442   0.407  32.490  11.124
25458W        W90443  37.733   2.860   3.717
25459W        W90444   3.301  21.564   4.849
25460W        W90445  33.413   1.994  12.851
25461W        W90446  23.735  38.409  14.028
25462W        W90447  43.245  38.989  14.810
25463W        W90448  43.487  42.377  12.022
25464W        W90449   4.343   5.470  10.057
25465W        W90450  18.845   4.223  12.376
25466W        W90451  11.596  17.023  11.593
25467W        W90452  40.346  35.410   2.241
25468W        W90453  23.541  35.875   0.465
25469W        W90454  35.558  14.692  13.482
25470W        W90455  24.094   2.799   3.254
25471W        W90456  26.083  30.154   3.580
25472W        W90457  20.757  43.248  14.882
25473W        W90458  40.234  16.398  12.520
25474W        W90459  24.717  31.431   0.898
25475W        W90460  17.759   2.598  14.415
25476W        W90461  15.260   9.721  10.627
25477W        W90462  37.936  22.832  12.429
25478W        W90463  13.627  13.030  11.090
25479W        W90464  29.529  12.444   4.310
25480W        W90465  44.269  41.910   3.009
25481W        W90466  23.253   8.121   2.749
25482W        W90467  20.579  22.225  14.477
25483W        W90468  18.241  21.798  13.636
25484W        W90469  16.534  13.386   0.250
25485W        W90470  32.363  19.054   1.014
25486W        W90471  37.891  38.742  11.119
25487W        W90472  27.594  10.297   2.580
25488W        W90473   8.867  41.421  10.397
25489W        W90474  38.123  29.567   4.593
25490W        W90475  23.015  14.337  10.282
25491W        W90476  26.851  29.197   1.875
25492W        W90477  21.748  34.002  12.492
25493W        W90478  36.826   5.831   3.646
25494W        W90479  12.185  36.917  12.860
25495W        W90480  18.120  26.542  11.294
25496W        W90481  29.183   0.438  12.931
25497W        W90482  29.637   8.403   0.394
25498W        W90483  25.976  14.665  11.477
25499W        W90484  42.264  28.656   5.433
25500W        W90485  24.052  13.782   0.232
25501W        W90486  38.491   5.228  11.796
25502W        W90487   1.982   9.375   0.823
25503W        W90488  18.749  23.046  12.244
25504W        W90489   5.186   8.244  13.054
25505W        W90490  11.242  34.615   2.878
25506W        W90491  38.452  38.097   4.690
25507W        W90492  26.866  28.856   4.540
25508W        W90493  16.592  12.871   3.214
25509W        W90494   1.697  43.130   2.119
25510W        W90495  16.279  38.633   0.712
25511W        W90496  13.156  19.230   1.547
25512W        W90497  34.558  28.572  11.493
25513W        W90498   3.787  10.438   1.927
25514W        W90499  44.302   7.516  13.801
25515W        W90500  34.708   7.332   2.177
25516W        W90501   6.884  15.850   2.051
25517W        W90502  43.322  41.780   3.361
25518W        W90503  28.015   4.345  10.036
25519W        W90504  15.962  19.810   4.114
25520W        W90505   8.090  12.100  13.986
25521W        W90506  40.860   2.900  13.450
25522W        W90507  44.825  43.999   1.274
25523W        W90508  22.252  20.937  12.019
25524W        W90509  23.507  32.902   0.543
25525W        W90510  31.023  40.550   0.010
25526W        W90511   6.222  26.159   3.103
25527W        W90512  26.179  16.708  14.319
25528W        W90513  41.581  32.885  14.974
25529W        W90514  41.932  12.536  10.595
25530W        W90515  22.197  36.520  14.486
25531W        W90516  36.415   5.280   2.401
25532W        W90517  19.271  33.384   0.671
25533W        W90518   1.273  25.913  14.436
25534W        W90519  28.448   7.816  14.394
25535W        W90520  15.160  41.840   2.217
25536W        W90521  11.338  27.894   1.686
25537W        W90522  43.769  37.172   1.257
25538W        W90523  27.350   8.730   1.861
25539W        W90524  16.090  44.313   2.453
25540W        W90525  20.637  28.507   1.825
25541W        W90526  30.224  10.892   0.255
25542W        W90527  26.632  18.703   1.169
25543W        W90528  43.356  14.270   1.631
25544W        W90529  27.467   5.946  11.511
25545W        W90530  29.129   9.617  12.430
25546W        W90531  35.029  15.391   4.114
25547W        W90532  24.327  18.257   5.122
25548W        W90533  28.542  28.465   2.604
25549W        W90534  42.069  23.405   2.964
25550W        W90535  28.783  16.678  14.364
25551W        W90536  34.014   4.512   1.872
25552W        W90537  24.292   1.348  14.744
25553W        W90538   5.795  39.039  13.282
25554W        W90539  28.577   3.880   3.345
25555W        W90540  13.050  13.586  12.847
25556W        W90541   0.043  10.163  14.174
25557W        W90542  29.468  20.713  14.868
25558W        W90543  18.698  23.677   1.525
25559W        W90544   9.345   0.540  13.292
25560W        W90545  24.049   0.353  11.839
25561W        W90546  25.189  20.577  13.952
25562W        W90547  21.558  34.046   2.930
25563W        W90548   9.018  27.945  13.541
25564W        W90549  38.886  43.802   4.368
25565W        W90550  39.795  26.809  11.606
25566W        W90551   3.763  18.012  11.113
25567W        W90552  19.150   9.211  11.581
25568W        W90553  14.796  13.648   2.343
25569W        W90554  13.658  43.074  13.849
25570W        W90555  29.461  29.334  13.940
25571W        W90556  18.509   0.385   4.244
25572W        W90557  41.577  30.381   2.804
25573W        W90558   7.438  41.919   2.419
25574W        W90559  41.962  42.880   3.136
25575W        W90560  20.268  10.914  14.484
25576W        W90561  16.507   7.473   4.923
25577W        W90562  23.475  22.076   4.441
25578W        W90563   6.181  31.086  12.518
25579W        W90564  40.434   4.921  12.063
25580W        W90565   2.432   9.272  13.943
25581W        W90566  39.623   3.520   1.406
25582W        W90567  34.317  16.352  13.985
25583W        W90568  36.638  10.416   0.870
25584W        W90569  33.081   2.899  13.411
25585W        W90570   4.504  44.931  11.880
25586W        W90571  34.947   3.538   2.817
25587W        W90572  16.718  22.491   4.204
25588W        W90573   6.350  23.645  12.557
25589W        W90574   0.845  11.334   3.615
25590W        W90575  34.055  23.581   2.221
25591W        W90576  31.504  25.411   2.653
25592W        W90577  15.152   4.393  11.943
25593W        W90578  18.212  35.956   1.169
25594W        W90579  37.071   8.750  14.780
25595W        W90580  14.020  30.000  12.520
25596W        W90581  44.408  31.366  14.025
25597W        W90582  15.590  33.516   4.202
25598W        W90583  33.160  43.805  11.528
25599W        W90584  28.202  11.853  11.117
25600W        W90585  27.964  16.644  13.982
25601W        W90586  33.638  14.756   0.335
25602W        W90587  37.123  27.519  10.661
25603W        W90588  26.224  40.723  14.398
25604W        W90589  24.920  20.720   3.773
25605W        W90590  41.045  13.593   2.416
25606W        W90591  43.896  40.689  10.357
25607W        W90592   6.261  10.146  10.764
25608W        W90593   7.443  11.877   0.946
25609W        W90594  20.994  42.408  11.593
25610W        W90595  34.851  31.144  14.559
25611W        W90596   2.754   6.522   0.084
25612W        W90597  36.534  21.019   3.727
25613W        W90598  18.530  41.824  11.555
25614W        W90599  33.599   1.379  10.680
25615W        W90600   5.826  34.002   1.192
25616W        W90601  36.650  16.932   3.576
25617W        W90602  19.629  30.688  10.481
25618W        W90603  37.451  29.616   4.050
25619W        W90604  28.087  26.532   4.613
25620W        W90605  20.276   1.849   3.369
25621W        W90606  33.931  23.718   0.024
25622W        W90607  14.841  18.179  13.071
25623W        W90608  40.293  28.562  12.508
25624W        W90609  29.938   8.753  13.514
25625W        W90610  30.027  25.806   2.573
25626W        W90611  17.762  36.504   3.783
25627W        W90612  27.199  40.031  14.138
25628W        W90613  33.129  10.161  14.459
25629W        W90614  36.903   8.373  10.103
25630W        W90615   9.443  14.671  13.871
25631W        W90616  19.142  23.753  12.170
25632W        W90617  11.674  10.791   3.903
25633W        W90618   9.771  33.217   0.538
25634W        W90619  22.712  24.675  14.277
25635W        W90620  33.590   2.485   4.200
25636W        W90621  29.574   6.882   4.131
25637W        W90622  13.844  26.061   2.302
25638W        W90623  36.475   1.710  14.865
25639W        W90624  44.609  37.291  11.144
25640W        W90625  26.254  43.544   4.716
25641W        W90626  39.224  27.086  14.417
25642W        W90627  16.542   3.260   4.586
25643W        W90628  16.572   8.228  14.550
25644W        W90629  43.364  31.835  14.731
25645W        W90630  15.103  31.481   1.823
25646W        W90631  20.491  22.590  13.414
25647W        W90632  40.816  40.243  14.304
25648W        W90633   0.068  12.286  14.004
25649W        W90634  24.672  37.055  10.485
25650W        W90635  34.206   5.116   1.170
25651W        W90636  14.362  18.159   0.763
25652W        W90637  14.103  19.938  13.919
25653W        W90638  14.183  19.441  14.005
25654W        W90639  13.861   9.597  11.188
25655W        W90640  34.523  39.051   4.569
25656W        W90641  43.317  33.414   1.219
25657W        W90642   2.973  41.584   1.595
25658W        W90643   7.366  33.064   0.080
25659W        W90644  42.834  26.538  13.017
25660W        W90645  16.278   9.908  13.543
25661W        W90646  26.761  33.947   2.977
25662W        W90647  17.180   6.557  10.304
25663W        W90648   1.222  17.724  12.788
25664W        W90649  44.565  18.586   0.080
25665W        W90650  28.618   3.477   1.292
25666W        W90651  26.545  29.116  14.334
25667W        W90652  17.580  21.160   3.863
25668W        W90653  16.018  35.510  13.539
25669W        W90654  44.915  38.922  13.902
25670W        W90655  37.016  21.988   0.533
25671W        W90656   4.374  39.014  13.455
25672W        W90657  32.125  23.699   4.665
25673W        W90658  11.164  14.298  13.320
25674W        W90659   6.861   2.252   4.711
25675W        W90660   0.839  39.138  10.788
25676W        W90661  16.644  10.529  13.182
25677W        W90662  25.650   0.541   0.698
25678W        W90663  40.821   4.432   4.065
25679W        W90664  36.760  33.874   1.778
25680W        W90665   8.978   9.322   0.517
25681W        W90666  39.386   3.361  12.407
25682W        W90667  20.130  41.063  14.418
25683W        W90668  39.988  20.256   4.873
25684W        W90669  19.028  21.789  11.103
25685W        W90670  26.387  18.392   3.176
25686W        W90671  37.670  12.253   0.537
25687W        W90672  19.123  37.124   2.069
25688W        W90673   4.946  11.318   1.466
25689W        W90674  42.604  33.158   3.512
25690W        W90675  15.976   2.784  14.557
25691W        W90676  37.198  33.297   0.813
25692W        W90677  37.477  35.711   4.073
25693W        W90678  20.202  36.545  13.297
25694W        W90679  39.652   6.301  11.594
25695W        W90680  27.348  24.462   3.893
25696W        W90681   6.053  35.297  14.454
25697W        W90682  14.817  18.279   2.392
25698W        W90683   9.424   9.088   0.369
25699W        W90684  44.983  15.021  13.927
25700W        W90685  37.393  29.672   5.059
25701W        W90686  27.845   3.730   4.937
25702W        W90687  38.045  25.633   2.287
25703W        W90688  35.878  10.121   3.257
25704W        W90689  14.256  41.457   2.925
25705W        W90690  25.629  12.602  12.906
25706W        W90691  27.518  19.927  12.192
25707W        W90692   3.477  28.088  12.978
25708W        W90693   6.265  31.612  10.869
25709W        W90694  34.842  30.891  10.543
25710W        W90695  26.089  40.601   4.037
25711W        W90696  24.663   9.398  11.547
25712W        W90697  42.447  43.774   1.197
25713W        W90698  14.017   4.883   0.900
25714W        W90699   0.125  17.461  13.786
25715W        W90700  24.279  44.401   0.191
25716W        W90701  16.705  43.336  11.008
25717W        W90702  29.524   7.920  12.098
25718W        W90703   1.355  10.740  12.151
25719W        W90704   9.507  16.626   1.497
25720W        W90705  25.917  27.242   0.304
25721W        W90706  41.072  26.981   3.101
25722W        W90707  12.923  31.044  11.248
25723W        W90708  31.526  28.124   2.338
25724W        W90709   0.077  36.092  12.897
25725W        W90710  27.216  25.637  11.547
25726W        W90711  11.358  22.571  13.435
25727W        W90712  17.266  35.036  12.122
25728W        W90713  29.681  22.622  10.669
25729W        W90714   2.122   8.426  10.778
25730W        W90715  16.599  20.128  13.569
25731W        W90716  41.140  37.096   2.205
25732W        W90717  11.236  31.190   0.796
25733W        W90718  43.313  27.180   0.808
25734W        W90719  10.508  15.606  13.746
25735W        W90720  16.616  18.863   3.189
25736W        W90721  40.418  14.835   1.900
25737W        W90722  11.806  26.867   3.342
25738W        W90723  10.357  42.127  11.623
25739W        W90724  11.884  20.318  13.388
25740W        W90725  30.327   1.424   0.194
25741W        W90726  10.897  12.294   0.478
25742W        W90727  18.993  16.720   4.150
25743W        W90728  17.312   0.074   0.867
25744W        W90729   5.428  25.606   1.681
25745W        W90730  24.950  38.858  11.500
25746W        W90731   5.443  15.867   4.376
25747W        W90732   9.303  38.410   0.635
25748W        W90733  17.480  28.761   5.258
25749W        W90734  20.061   4.068   3.362
25750W        W90735  42.775  26.264   0.865
25751W        W90736  41.388  11.243   1.293
25752W        W90737  35.854  40.261   3.428
25753W        W90738  18.251   0.285   1.361
25754W        W90739   9.161  28.037  11.136
25755W        W90740  29.704  37.666   1.769
25756W        W90741  42.971  11.961  10.823
25757W        W90742  10.645  11.929   1.399
25758W        W90743   2.230  16.604   1.759
25759W        W90744  14.621  44.410  11.549
25760W        W90745  33.144  44.784   0.561
25761W        W90746  13.836  14.406   2.854
25762W        W90747  15.559   2.961  13.088
25763W        W90748   3.439   5.069  11.670
25764W        W90749   7.964  32.854   4.996
25765W        W90750  20.074  12.779  12.826
25766W        W90751  22.530  29.946   1.807
25767W        W90752  18.230  12.128  12.514
25768W        W90753  32.541  22.405  10.732
25769W        W90754   9.665  31.904  14.392
25770W        W90755  14.357   7.344   3.895
25771W        W90756  44.055   7.629  14.729
25772W        W90757   3.384  38.614  13.518
25773W        W90758   4.857  42.802  10.203
25774W        W90759  36.011  39.327   2.290
25775W        W90760  35.368  15.261   0.713
25776W        W90761  19.398  10.864   2.376
25777W        W90762  24.713   5.798  13.489
25778W        W90763  27.080   0.688  11.564
25779W        W90764  11.076  29.832   1.449
25780W        W90765  36.170  24.508  11.807
25781W        W90766   9.728  41.426  12.383
25782W        W90767  23.472   0.871   4.478
25783W        W90768  22.010  21.214  14.770
25784W        W90769  36.065  21.744   1.694
25785W        W90770  31.074  16.631   3.389
25786W        W90771  41.519   6.279   2.209
25787W        W90772  11.249  13.026  14.401
25788W        W90773  43.487   9.234   1.557
25789W        W90774  23.510  44.040  12.088
25790W        W90775   4.691  30.858   3.284
25791W        W90776   6.310  33.886  12.157
25792W        W90777  17.761  25.873   3.959
25793W        W90778  20.186  11.701  12.038
25794W        W90779  30.009   9.890  11.049
25795W        W90780  21.707   3.433  14.472
25796W        W90781   2.363   2.831   4.390
25797W        W90782   2.644  21.038   0.487
25798W        W90783  37.795  20.213  13.946
25799W        W90784  35.887  18.671   1.129
25800W        W90785   0.711  29.875  10.425
25801W        W90786   0.604   6.426  13.888
25802W        W90787  16.610   0.037  13.807
25803W        W90788  11.732  28.906   0.833
25804W        W90789  10.552   6.925  11.027
25805W        W90790  44.329  18.521   4.469
25806W        W90791  26.465  24.688   3.258
25807W        W90792  31.049  34.371  12.496
25808W        W90793  13.512  11.337  11.669
25809W        W90794   6.233  11.076  12.558
25810W        W90795  40.828   3.413  13.543
25811W        W90796  31.916  20.063   2.697
25812W        W90797  15.824  12.720  13.534
25813W        W90798  34.084   1.782   2.814
25814W        W90799  37.488   0.500   2.195
25815W        W90800  39.389  14.997   3.209
25816W        W90801  44.939  15.737  14.506
25817W        W90802  44.234  40.458  14.746
25818W        W90803  28.122  42.457  11.120
25819W        W90804  31.133  24.527  12.607
25820W        W90805  23.879  36.395   1.111
25821W        W90806  12.906  22.716   0.515
25822W        W90807  26.643  35.549   4.343
25823W        W90808  24.147  26.026   3.036
25824W        W90809  44.126  26.174   1.418
25825W        W90810  18.754  44.876  12.875
25826W        W90811   9.276  29.845   1.885
25827W        W90812  33.030  22.005   2.527
25828W        W90813  17.028  30.753   2.871
25829W        W90814  40.414  39.007   1.540
25830W        W90815  31.128  42.536   2.299
25831W        W90816  32.941  21.505   2.641
25832W        W90817   7.871  26.880   0.289
25833W        W90818   4.779  40.479   1.768
25834W        W90819  38.750  27.126  11.234
25835W        W90820   4.954   3.661   1.419
25836W        W90821  39.471  27.999  12.619
25837W        W90822   3.665   7.827   5.059
25838W        W90823  33.529   7.860  12.945
25839W        W90824  42.023   6.480  14.815
25840W        W90825  22.707  39.388   0.010
25841W        W90826  38.860  25.696  14.690
25842W        W90827  25.455  37.360  14.816
25843W        W90828   0.503   9.374   1.003
25844W        W90829  37.627   9.373   0.311
25845W        W90830  39.125  13.902   0.779
25846W        W90831   6.428   2.455  13.497
25847W        W90832   2.682  41.347   1.231
25848W        W90833  15.602   5.491   3.262
25849W        W90834  16.826  19.167  12.587
25850W        W90835  22.582  28.000  13.060
25851W        W90836  25.504  19.322   1.271
25852W        W90837  33.081  28.412   2.402
25853W        W90838  20.600   1.925  13.843
25854W        W90839  43.912  41.982  12.809
25855W        W90840  26.076  20.498   0.019
25856W        W90841  38.229  33.002  14.577
25857W        W90842  10.373  37.770   4.589
25858W        W90843  44.765  30.833  11.990
25859W        W90844  42.607   1.872   0.542
25860W        W90845  29.933  39.953  14.369
25861W        W90846  21.197  36.586   0.266
25862W        W90847  26.642  15.806   2.810
25863W        W90848   9.759  31.064  12.437
25864W        W90849  36.595  38.440  10.688
25865W        W90850   7.262   8.513   2.769
25866W        W90851  21.475  41.505   4.416
25867W        W90852   5.315  38.449   1.881
25868W        W90853   4.148  27.980   1.648
25869W        W90854  41.829  44.273   2.811
25870W        W90855  33.341  44.337   1.012
25871W        W90856  32.340  36.006  10.401
25872W        W90857  37.185  33.968  14.116
25873W        W90858  41.728  20.468   0.498
25874W        W90859  42.888  29.181  11.557
25875W        W90860   4.683  29.026   0.514
25876W        W90861  15.492  23.306   3.269
25877W        W90862   1.436  43.852  14.350
25878W        W90863  12.985  30.056  14.265
25879W        W90864  12.823  31.916   2.666
25880W        W90865  42.336  31.420   0.907
25881W        W90866  32.552   9.956   1.307
25882W        W90867  13.324  20.288  14.307
25883W        W90868  44.773  31.225  11.059
25884W        W90869   2.700   4.383   1.851
25885W        W90870  17.668  14.371   3.755
25886W        W90871   1.953   7.996  11.204
25887W        W90872  42.987  34.712  12.304
25888W        W90873  15.067   5.188   2.864
25889W        W90874  42.292  36.572   3.212
25890W        W90875  31.908  30.765  13.109
25891W        W90876   2.053  16.796  13.486
25892W        W90877  42.448  14.244   1.635
25893W        W90878  22.476  34.173   2.499
25894W        W90879  32.030  41.860   1.699
25895W        W90880  15.839  33.959  13.195
25896W        W90881  19.786   4.180  10.435
25897W        W90882  17.381  30.882  12.358
25898W        W90883  24.743  36.512   0.705
25899W        W90884  33.796  10.419  13.244
25900W        W90885   8.407  40.198   1.082
25901W        W90886  23.665  41.775   1.766
25902W        W90887  30.373  12.373  13.089
25903W        W90888  31.024  23.281   0.778
25904W        W90889  32.464  44.982  11.538
25905W        W90890   6.253  38.238  12.471
25906W        W90891  32.948  40.719   0.710
25907W        W90892  22.244  12.962   1.080
25908W        W90893  24.289  34.160  12.182
25909W        W90894  27.716  16.783  11.541
25910W        W90895  28.468  37.530  13.085
25911W        W90896  38.014   7.451  12.982
25912W        W90897  24.674  13.213   4.411
25913W        W90898  16.622  18.246   0.343
25914W        W90899  33.870   2.976  12.085
25915W        W90900  27.649  41.383  13.838
25916W        W90901  18.163  31.571   4.473
25917W        W90902  14.585  19.243   3.180
25918W        W90903  26.771  41.051   0.227
25919W        W90904  44.524  35.171  10.052
25920W        W90905  34.471   6.854   2.145
25921W        W90906  30.104  31.138   1.199
25922W        W90907  28.953   8.373   0.072
25923W        W90908  10.130   1.208   0.893
25924W        W90909  23.991  43.771   0.084
25925W        W90910  32.642  33.471   4.809
25926W        W90911  30.087  41.001  13.988
25927W        W90912  42.040  23.617   1.240
25928W        W90913  39.851   7.956  13.637
25929W        W90914  39.126  33.496   1.897
25930W        W90915  31.993  27.018   1.809
25931W        W90916  32.069   5.030   4.732
25932W        W90917   6.662  43.848   0.770
25933W        W90918  15.713  34.314  10.764
25934W        W90919   7.331  27.134  14.368
25935W        W90920  28.161   0.588   0.393
25936W        W90921   1.602  25.388   2.395
25937W        W90922  22.619  42.356  12.581
25938W        W90923  39.218   2.714  11.237
25939W        W90924   3.254  32.894  13.187
25940W        W90925  24.954  11.288  14.928
25941W        W90926  11.340  43.227  14.520
25942W        W90927  24.744  35.499  14.854
25943W        W90928   8.078  30.126  11.677
25944W        W90929   1.325  36.886   1.241
25945W        W90930   2.015   3.165  11.516
25946W        W90931  29.238  24.892  12.357
25947W        W90932  19.392  43.338   1.660
25948W        W90933  11.205  18.125   4.155
25949W        W90934  29.465   3.036  14.715
25950W        W90935  11.124  13.552  13.069
25951W        W90936  14.224   5.500   2.376
25952W        W90937  33.527  30.932   0.857
25953W        W90938  16.627  41.412   4.382
25954W        W90939   9.267  35.934   3.267
25955W        W90940  42.496  19.833   0.796
25956W        W90941   5.492  39.378   4.409
25957W        W90942   7.927  14.676   1.315
25958W        W90943  25.566  35.051   2.032
25959W        W90944   5.359  11.234   0.293
25960W        W90945  34.046  10.927   3.723
25961W        W90946  32.048  22.925  14.851
25962W        W90947  12.872  12.697   2.766
25963W        W90948  16.060  30.530  12.976
25964W        W90949  15.589  41.871  13.302
25965W        W90950   4.352   0.886   3.735
25966W        W90951  38.769  43.421  12.824
25967W        W90952  14.950   0.180   1.997
25968W        W90953  22.279   4.310   0.592
25969W        W90954   6.120  31.031   4.251
25970W        W90955   5.525  40.272   1.697
25971W        W90956   1.174   6.459   4.163
25972W        W90957  39.911   8.800   1.992
25973W        W90958  18.123  31.931   2.123
25974W        W90959  10.750  29.329   3.185
25975W        W90960  25.574  20.682   2.283
25976W        W90961  17.058  37.856  13.360
25977W        W90962  37.621  34.098   1.348
25978W        W90963  44.769   7.401   2.126
25979W        W90964  31.165  43.591   2.812
25980W        W90965  31.609  42.802   0.945
25981W        W90966   0.329  44.193   4.622
25982W        W90967  34.440  10.967   4.073
25983W        W90968  18.296  11.418   3.317
25984W        W90969  19.573  41.469   3.309
25985W        W90970  10.268  35.374   0.763
25986W        W90971   7.862  19.858  13.381
25987W        W90972   9.007  29.391  13.938
25988W        W90973  29.045   1.241  12.360
25989W        W90974  21.374  40.897  13.829
25990W        W90975  33.437  43.513   0.005
25991W        W90976  23.715  38.120   3.335
25992W        W90977  24.646  19.879   4.917
25993W        W90978  18.282  38.369   3.178
25994W        W90979   5.209   2.276  12.299
25995W        W90980   0.384   9.689   1.407
25996W        W90981  13.401  33.140   4.997
25997W        W90982   1.692  27.091   1.401
25998W        W90983  42.266   4.116  12.172
25999W        W90984   5.356  34.384   2.256
26000W        W90985   8.371  33.060   4.728
26001W        W90986  26.168   3.704   2.315
26002W        W90987  11.435  24.588   1.915
26003W        W90988   9.982  22.097   3.562
26004W        W90989  16.069  17.141  12.108
26005W        W90990   9.431  36.667   4.197
26006W        W90991  41.826  23.761  13.500
26007W        W90992  19.078  40.417  10.672
26008W        W90993   4.669  14.196   1.668
26009W        W90994  20.766  22.308   2.694
26010W        W90995   5.943  35.019  12.252
26011W        W90996  24.685   0.400   4.093
26012W        W90997  18.436  31.549  13.242
26013W        W90998  18.264  34.424   1.329
26014W        W90999  20.305   4.347  14.928
26015W        W91000  32.530  28.482  11.429
26016W        W91001   8.741   3.456  14.362
26017W        W91002  18.289   2.880   0.841
26018W        W91003  25.911  26.452  10.192
26019W        W91004  36.531  27.580  13.957
26020W        W91005  24.667  11.432   3.727
26021W        W91006  10.287  12.320   2.262
26022W        W91007   5.452   5.507  13.561
26023W        W91008  27.595  44.704  13.529
26024W        W91009  23.842  22.468  11.567
26025W        W91010  32.646   2.439  11.053
26026W        W91011  19.054  16.784  11.956
26027W        W91012  29.729  40.278   2.133
26028W        W91013  41.982  29.129   1.917
26029W        W91014  18.114  23.235   0.484
26030W        W91015  32.900   4.740  12.941
26031W        W91016  38.304   4.566  14.850
26032W        W91017  15.404   1.895   4.174
26033W        W91018  21.708  40.436   4.671
26034W        W91019   5.925  26.720   1.274
26035W        W91020  42.046  25.932   0.388
26036W        W91021  30.111  39.600  11.946
26037W        W91022   1.227  39.543  10.727
26038W        W91023   1.469  20.129  12.775
26039W        W91024  11.065  27.252  10.911
26040W        W91025   6.929   6.328  13.795
26041W        W91026   6.921  15.198  13.390
26042W        W91027  31.952  12.340   2.448
26043W        W91028  14.215  44.530   9.753
26044W        W91029  10.460  32.374  11.649
26045W        W91030  41.218   5.132  11.161
26046W        W91031  21.403  14.039  11.553
26047W        W91032  31.863  17.087  11.213
26048W        W91033  26.473  32.495  11.979
26049W        W91034  34.391  37.898   1.692
26050W        W91035  38.064   2.482   3.800
26051W        W91036  30.486  10.882  14.800
26052W        W91037  37.892  24.530  14.922
26053W        W91038   1.454   0.206   2.426
26054W        W91039  17.552  14.778  10.688
26055W        W91040  18.742  33.155  10.392
26056W        W91041  41.148  37.890   2.840
26057W        W91042  36.806  17.832   1.695
26058W        W91043  44.260   2.248  12.605
26059W        W91044  18.758  28.146   0.011
26060W        W91045  30.843  18.495  10.926
26061W        W91046  36.918  12.655   4.282
26062W        W91047   5.340   0.741   0.887
26063W        W91048  32.992  34.187  13.525
26064W        W91049  20.250  21.146   0.942
26065W        W91050   5.278  13.829   4.146
26066W        W91051  11.750  10.927  12.016
26067W        W91052  44.865  32.243  11.067
26068W        W91053   3.705  24.979  13.486
26069W        W91054  22.829   9.801  12.481
26070W        W91055  40.887  14.765  14.207
26071W        W91056  15.828  37.983   0.865
26072W        W91057  25.005   2.932   0.320
26073W        W91058  16.336  34.807  11.168
26074W        W91059  38.248   2.851  12.104
26075W        W91060  28.127  34.606  13.413
26076W        W91061   8.780  43.836   2.695
26077W        W91062  41.553  30.209  12.909
26078W        W91063  24.217   3.803   1.921
26079W        W91064  37.754  24.193  13.707
26080W        W91065  39.511  42.554   4.296
26081W        W91066   5.656   4.703  11.335
26082W        W91067  30.630  38.889  12.619
26083W        W91068   2.958   4.278   1.402
26084W        W91069  25.614  34.117   4.333
26085W        W91070  22.501  12.268   3.235
26086W        W91071  31.155  11.085   4.023
26087W        W91072  14.841  19.738   0.465
26088W        W91073  16.269  25.236  10.021
26089W        W91074  43.458  21.130   4.095
26090W        W91075  24.029  30.619   0.713
26091W        W91076   1.995  13.035  13.138
26092W        W91077   9.248   0.230   4.087
26093W        W91078  26.207  32.164  10.668
26094W        W91079   3.245   5.716   3.637
26095W        W91080  43.438  32.361  14.792
26096W        W91081  29.691  10.191  13.387
26097W        W91082  31.397  26.494   3.358
26098W        W91083  39.556  19.972  10.332
26099W        W91084   8.311  18.771   0.011
26100W        W91085  26.134  42.487  13.378
26101W        W91086   6.725  24.670   2.531
26102W        W91087   3.194   7.355   4.266
26103W        W91088   2.794  17.825  12.425
26104W        W91089   4.836  22.524  10.967
26105W        W91090  11.094  30.429   3.628
26106W        W91091  30.937  42.861   3.593
26107W        W91092   4.318  44.613   3.606
26108W        W91093  41.910  28.530   2.783
26109W        W91094  36.262  39.146  10.304
26110W        W91095  35.064  31.167   0.010
26111W        W91096   5.543  29.698  14.468
26112W        W91097  38.505   4.986  12.250
26113W        W91098   9.217  18.248   1.224
26114W        W91099  19.119  13.817  12.184
26115W        W91100  14.128   8.900  11.578
26116W        W91101  16.554  10.856   4.008
26117W        W91102  36.618  11.097   2.146
26118W        W91103  38.140   4.675   2.416
26119W        W91104  20.753  41.445   0.288
26120W        W91105  40.357  26.135   1.055
26121W        W91106  37.414  24.660   0.031
26122W        W91107   2.030  33.362   3.201
26123W        W91108  22.515  17.627  14.496
26124W        W91109   9.546  35.058  13.807
26125W        W91110  44.924  28.925  11.009
26126W        W91111  25.129  27.391  12.056
26127W        W91112  43.135   0.587   9.837
26128W        W91113  23.947  22.542   2.330
26129W        W91114  36.519  10.257   2.663
26130W        W91115   0.323  34.618   3.540
26131W        W91116  24.033  23.989  10.759
26132W        W91117  33.625  18.535  11.065
26133W        W91118   6.196  40.323   3.292
26134W        W91119  30.009  29.494   3.313
26135W        W91120  18.104  36.430  11.016
26136W        W91121  21.239  29.844  13.219
26137W        W91122  36.936  34.647  13.013
26138W        W91123  40.541  42.911  12.566
26139W        W91124   5.949  19.641  11.153
26140W        W91125   6.655  31.638   1.476
26141W        W91126  12.595  25.526   2.835
26142W        W91127  34.198  14.606  14.354
26143W        W91128  11.779  34.029  10.819
26144W        W91129  33.875   7.618  11.595
26145W        W91130   0.546  17.001  12.892
26146W        W91131  16.159  14.114   2.403
26147W        W91132   5.154  12.665   4.745
26148W        W91133  22.552  29.845   3.976
26149W        W91134  10.766   1.455  13.805
26150W        W91135  33.456  32.851  11.418
26151W        W91136  40.316  21.650   2.705
26152W        W91137  30.966  39.204   3.285
26153W        W91138  19.844   0.880   4.599
26154W        W91139  26.667  28.425   0.559
26155W        W91140  23.501  20.176   3.018
26156W        W91141  10.705   9.849  10.493
26157W        W91142  35.456  30.542  12.473
26158W        W91143  33.954  16.579  12.033
26159W        W91144   3.494  22.069  12.493
26160W        W91145  29.582  18.568   2.883
26161W        W91146  18.238   9.619  13.959
26162W        W91147  40.416   6.692   2.331
26163W        W91148  28.926  39.614   3.690
26164W        W91149  21.186  23.516   0.949
26165W        W91150  21.829  32.392   4.631
26166W        W91151  24.246  35.494   3.038
26167W        W91152  36.253  32.289   3.340
26168W        W91153   6.810  31.475   4.644
26169W        W91154  27.757  40.972  14.329
26170W        W91155   7.646   7.688   2.628
26171W        W91156  25.130   9.085   0.378
26172W        W91157   5.689  37.236   3.521
26173W        W91158  39.268  31.595   3.882
26174W        W91159   1.771  32.167  13.816
26175W        W91160   6.240  31.278  10.494
26176W        W91161  33.899   1.714   1.461
26177W        W91162   2.816  30.120  12.375
26178W        W91163   8.162  42.260  11.228
26179W        W91164  35.325  40.710   3.768
26180W        W91165   7.868  20.690  10.742
26181W        W91166  19.255  30.312  14.759
26182W        W91167  41.792  24.947  14.303
26183W        W91168  28.182  14.639   1.763
26184W        W91169  33.432  24.666  14.871
26185W        W91170  35.566  37.529  11.008
26186W        W91171  37.319   0.627  12.361
26187W        W91172  15.118   7.359  11.698
26188W        W91173  28.064  34.949   2.312
26189W        W91174  44.790  34.481  11.603
26190W        W91175   6.670  40.927   2.841
26191W        W91176  22.180  29.090  12.625
26192W        W91177  38.112  15.746  12.619
26193W        W91178  33.488  38.580  13.461
26194W        W91179  31.530  42.480  12.473
26195W        W91180  26.500   7.835  12.787
26196W        W91181   7.194   9.676   1.317
26197W        W91182  12.798  23.632   0.299
26198W        W91183   1.080  13.434  12.921
26199W        W91184   0.010   9.432  11.156
26200W        W91185   9.048  33.627   4.260
26201W        W91186  28.977  41.050   3.689
26202W        W91187   7.807  32.169   2.717
26203W        W91188   1.118  26.082  13.948
26204W        W91189  25.856  33.638  11.700
26205W        W91190  20.686  17.403  10.790
26206W        W91191  31.916  11.884   0.793
26207W        W91192   8.817   7.689   4.023
26208W        W91193  22.210  41.689  10.523
26209W        W91194  41.059   3.169   0.918
26210W        W91195  20.193  36.549   0.417
26211W        W91196  18.664  42.948   3.741
26212W        W91197  30.796  23.809   0.738
26213W        W91198   8.278   2.976   1.298
26214W        W91199  44.548  34.900   5.172
26215W        W91200   0.523   7.450   3.269
26216W        W91201  37.229  21.656   3.851
26217W        W91202   7.455  36.318   0.733
26218W        W91203   5.426  17.029   3.541
26219W        W91204  36.007  20.715  13.928
26220W        W91205   7.954  36.463   0.521
26221W        W91206  21.518   2.485   2.776
26222W        W91207  23.564  34.797  13.061
26223W        W91208   8.029  20.458  11.600
26224W        W91209   3.063  42.442   4.792
26225W        W91210  41.090  12.551   1.596
26226W        W91211  24.851  36.266   4.127
26227W        W91212   2.598   1.534   0.909
26228W        W91213  39.533   1.441  14.728
26229W        W91214  38.311   5.947   2.723
26230W        W91215   3.407  27.591   4.814
26231W        W91216   6.756  38.053   2.905
26232W        W91217   2.372  19.528  13.981
26233W        W91218  11.718  30.475   5.140
26234W        W91219  15.866   2.260   2.312
26235W        W91220  20.250   7.419  14.779
26236W        W91221  17.749  38.734  12.482
26237W        W91222  28.550  22.340   3.301
26238W        W91223  36.019  17.202   1.922
26239W        W91224  13.657  27.038  10.362
26240W        W91225  20.317  22.015   2.642
26241W        W91226  13.727  28.418  11.527
26242W        W91227   6.702  41.748   1.334
26243W        W91228  14.055   1.816   0.074
26244W        W91229  39.455  17.235   5.650
26245W        W91230   5.486  19.600  10.935
26246W        W91231   4.146   7.939   3.129
26247W        W91232   2.972  30.904   1.758
26248W        W91233  30.903  33.591  13.746
26249W        W91234   4.381  27.261  10.744
26250W        W91235  34.121  20.807   4.186
26251W        W91236  17.533  14.203  13.025
26252W        W91237  35.458  21.167   2.257
26253W        W91238  30.379   2.306   0.457
26254W        W91239   5.893  34.421  11.533
26255W        W91240  41.783  40.488   9.987
26256W        W91241  42.460  39.641  11.405
26257W        W91242  20.711   5.714  12.472
26258W        W91243   3.871  41.602  13.049
26259W        W91244  16.171  22.497   0.320
26260W        W91245   3.590   5.510  11.950
26261W        W91246  13.889  28.546  14.416
26262W        W91247  32.058  12.273  13.940
26263W        W91248  44.713  31.936   3.633
26264W        W91249  10.810   5.466  11.184
26265W        W91250  22.795  42.505  11.568
26266W        W91251  39.478  40.840   2.398
26267W        W91252  20.473  10.283   0.880
26268W        W91253  18.188  29.985  11.608
26269W        W91254  28.096   8.765  13.425
26270W        W91255  25.619  41.105   1.697
26271W        W91256   8.271  31.975  14.626
26272W        W91257  40.965  35.013   2.764
26273W        W91258  30.709  20.242  11.135
26274W        W91259  22.245   7.700  14.899
26275W        W91260  42.026  30.020   0.909
26276W        W91261  12.217  37.707   5.163
26277W        W91262   6.901  13.295  12.381
26278W        W91263  40.633   6.945   3.836
26279W        W91264  34.402  23.143  11.216
26280W        W91265  14.554  43.510  11.952
26281W        W91266  37.317   7.051   1.784
26282W        W91267  26.362  27.121  11.146
26283W        W91268  11.347  43.970  10.743
26284W        W91269  28.048  44.852   2.714
26285W        W91270  15.997   2.895   3.185
26286W        W91271  27.791   8.235  11.725
26287W        W91272  36.947   4.520  12.180
26288W        W91273  38.412  40.460   3.696
26289W        W91274  18.533  26.062  11.561
26290W        W91275  10.151  28.198   4.192
26291W        W91276  14.911   2.746   4.984
26292W        W91277  39.084  16.350   4.635
26293W        W91278  25.946  25.192   2.693
26294W        W91279  42.379  17.774  10.371
26295W        W91280  41.971  16.534   0.146
26296W        W91281  18.219   6.512  14.403
26297W        W91282  25.769  19.165   0.856
26298W        W91283  32.031  27.637  13.428
26299W        W91284  32.082   0.675  11.078
26300W        W91285  28.460  32.998  12.655
26301W        W91286  27.261  29.016  11.158
26302W        W91287  42.319  14.081   4.122
26303W        W91288  43.353   7.091   1.662
26304W        W91289  17.172  19.402  11.928
26305W        W91290   1.961   0.920  10.523
26306W        W91291  40.893  36.392  11.847
26307W        W91292  16.693  14.594  13.786
26308W        W91293   1.807  41.380   4.582
26309W        W91294   4.398  25.227  11.038
26310W        W91295   0.283   9.374  10.707
26311W        W91296  29.945   6.600   1.653
26312W        W91297   4.250  40.764  13.010
26313W        W91298  32.919  28.147  13.382
26314W        W91299  33.605  19.114  11.642
26315W        W91300  20.642  21.491   0.461
26316W        W91301  10.375  27.416   3.167
26317W        W91302   7.840  41.415  11.608
26318W        W91303  37.863  19.345   0.810
26319W        W91304   4.384  11.602   1.951
26320W        W91305  35.386   4.933   2.781
26321W        W91306  31.201   1.915  13.538
26322W        W91307  11.764  23.640  10.998
26323W        W91308  20.169  15.282   2.096
26324W        W91309  25.816  42.547  14.354
26325W        W91310   0.561  18.626   4.989
26326W        W91311  40.354   1.286  12.158
26327W        W91312  12.365  42.538   1.680
26328W        W91313  12.864  28.007   0.759
26329W        W91314  13.323  23.731  13.566
26330W        W91315   7.568  35.322   0.294
26331W        W91316  35.619  17.056   1.144
26332W        W91317  28.697  43.010  12.835
26333W        W91318  43.349  21.353   1.302
26334W        W91319  21.729  25.240   1.128
26335W        W91320  20.546  37.471   0.816
26336W        W91321  21.856  27.374   0.955
26337W        W91322  33.877  24.203   2.125
26338W        W91323  32.943   8.323  12.052
26339W        W91324  11.726   3.548   2.295
26340W        W91325  27.888  13.559  11.531
26341W        W91326  18.508  37.053  12.392
26342W        W91327  35.704  12.063   9.439
26343W        W91328  40.488  20.739   2.404
26344W        W91329  22.324  38.036   2.287
26345W        W91330  14.513  15.816  11.110
26346W        W91331  33.421   0.964  11.672
26347W        W91332   4.821  41.959   0.750
26348W        W91333   4.664  29.043   3.383
26349W        W91334  35.009   8.951   0.738
26350W        W91335  16.324  43.177  12.872
26351W        W91336  41.618   4.345   4.591
26352W        W91337  30.045  13.397   3.627
26353W        W91338  28.772  23.320  11.060
26354W        W91339   4.251   8.654  10.227
26355W        W91340   1.721  22.678  11.516
26356W        W91341  20.035  22.276  11.010
26357W        W91342  40.879   0.200  14.422
26358W        W91343  40.019  17.906   1.334
26359W        W91344  34.636   1.494  13.412
26360W        W91345  21.480  30.516   3.602
26361W        W91346  18.171   8.532   1.432
26362W        W91347  36.044  18.184   2.958
26363W        W91348   8.922  39.016   0.037
26364W        W91349  25.643   3.629  11.614
26365W        W91350  38.815  40.557  14.276
26366W        W91351  41.204   1.323  14.833
26367W        W91352  41.780   7.850   1.271
26368W        W91353  40.230  31.309   2.838
26369W        W91354  14.774  39.993  10.705
26370W        W91355  44.774  43.536   3.017
26371W        W91356  25.096  35.947  13.997
26372W        W91357   2.352  44.227   1.887
26373W        W91358   2.484  22.155  13.512
26374W        W91359  44.924  33.908  13.393
26375W        W91360  31.996  14.876   3.645
26376W        W91361   1.370  28.213  12.879
26377W        W91362  27.159  42.071   1.222
26378W        W91363  22.099  24.910  10.688
26379W        W91364  17.270  41.152   2.934
26380W        W91365  38.339  38.817   1.704
26381W        W91366   1.372   9.411   0.007
26382W        W91367  18.580   3.647   1.464
26383W        W91368  36.238  13.827   4.507
26384W        W91369   3.395  28.091  14.752
26385W        W91370  39.574  27.765  14.034
26386W        W91371   8.328  29.128  10.552
26387W        W91372   1.743  24.164   3.995
26388W        W91373  16.596   0.049   1.869
26389W        W91374  34.478  27.550  13.238
26390W        W91375  13.643  40.442  13.855
26391W        W91376  26.425  28.110  14.281
26392W        W91377  17.587  18.075   1.024
26393W        W91378   3.785  15.774  12.468
26394W        W91379   3.358  33.155  14.512
26395W        W91380  27.666   3.264   5.541
26396W        W91381   4.264  27.482  13.224
26397W        W91382  20.617  42.866  10.736
26398W        W91383   5.861  22.452  11.562
26399W        W91384  27.629   9.739  10.644
26400W        W91385  37.291   6.305   1.311
26401W        W91386  42.505  24.078   2.842
26402W        W91387   9.307  28.034  14.935
26403W        W91388  11.829  26.413  11.547
26404W        W91389   9.857   6.896   1.746
26405W        W91390  43.219  23.562   1.792
26406W        W91391  12.379  25.998  10.746
26407W        W91392  28.567  38.270   1.242
26408W        W91393  37.609  28.685   3.613
26409W        W91394  37.972  32.792   4.038
26410W        W91395  16.598  39.589  13.033
26411W        W91396  34.857  34.845   3.793
26412W        W91397  32.894   1.801   3.141
26413W        W91398  38.564  25.390   2.940
26414W        W91399   8.297  16.357   0.919
26415W        W91400  16.706  15.280  12.472
26416W        W91401  36.786  20.095   3.803
26417W        W91402  17.357  33.687  12.307
26418W        W91403  34.158  42.917  11.391
26419W        W91404   9.815  42.784   2.347
26420W        W91405   2.937   1.475  12.484
26421W        W91406  35.354  33.176   2.844
26422W        W91407  31.776  38.902   2.594
26423W        W91408  14.632  26.386   3.232
26424W        W91409  11.235  15.690  12.373
26425W        W91410  13.170   6.711  10.211
26426W        W91411  38.464  17.922   3.500
26427W        W91412  13.266   9.938   0.771
26428W        W91413  34.985  15.316  10.475
26429W        W91414  32.461  30.388  12.447
26430W        W91415  39.988   4.252  11.148
26431W        W91416  40.322  38.417  12.480
26432W        W91417  23.157   2.844  14.973
26433W        W91418  11.164  36.253   1.475
26434W        W91419  21.187  21.979   3.578
26435W        W91420   9.914  21.182   1.185
26436W        W91421  11.677  23.226  14.391
26437W        W91422  30.089  28.992   2.753
26438W        W91423  18.579  41.271   0.924
26439W        W91424  41.741  15.550   3.285
26440W        W91425  11.160  38.738   3.292
26441W        W91426  31.922  27.173   0.804
26442W        W91427  22.120  26.693   4.658
26443W        W91428  32.827  17.125   0.440
26444W        W91429   1.703  15.140   4.393
26445W        W91430  14.257  35.961  12.609
26446W        W91431  19.662  33.106   4.236
26447W        W91432  11.214  28.606  10.672
26448W        W91433   1.905  15.359  13.369
26449W        W91434  26.554  35.904   1.185
26450W        W91435  24.710  12.082   1.467
26451W        W91436  41.042  32.957  10.670
26452W        W91437  31.387  43.317   3.256
26453W        W91438  33.643   3.754   1.419
26454W        W91439  22.929   7.722  12.168
26455W        W91440  35.129  23.801   0.406
26456W        W91441  23.455  44.422  12.960
26457W        W91442  12.942  12.331   2.398
26458W        W91443  24.468  16.598   3.588
26459W        W91444  29.978   4.208   3.813
26460W        W91445  44.502   4.415  11.607
26461W        W91446  19.499  18.708  13.065
26462W        W91447  21.482  15.265   2.753
26463W        W91448  16.338  31.568  14.476
26464W        W91449  24.611  28.203  10.815
26465W        W91450  15.835   4.286  11.406
26466W        W91451   8.712  32.979   2.178
26467W        W91452  10.739  10.810  14.305
26468W        W91453  16.336  18.762  13.367
26469W        W91454  34.643  37.427   3.635
26470W        W91455   0.395   4.436  10.516
26471W        W91456   1.662  33.089   4.882
26472W        W91457   4.408   9.012   1.193
26473W        W91458  37.505  16.073  14.417
26474W        W91459  36.415  35.071  10.959
26475W        W91460  17.032  15.609   0.887
26476W        W91461  30.241  29.815  14.773
26477W        W91462  16.896  42.115   1.537
26478W        W91463  37.410  35.155  11.201
26479W        W91464  39.355  33.105   4.100
26480W        W91465  18.160  21.929  14.356
26481W        W91466   2.656  26.969  12.447
26482W        W91467  42.873  22.687  14.104
26483W        W91468  20.555  21.145   5.085
26484W        W91469  32.870  14.064  13.363
26485W        W91470  27.566  17.816   4.381
26486W        W91471  37.612   0.945  13.970
26487W        W91472  16.282  36.208   1.956
26488W        W91473  34.286   2.538  11.711
26489W        W91474   1.432   6.622  11.236
26490W        W91475  21.659   5.408  13.825
26491W        W91476  42.750  22.958   1.428
26492W        W91477  11.737  27.548  11.196
26493W        W91478  28.023  31.708   2.162
26494W        W91479   0.274  19.574  13.702
26495W        W91480  23.605  13.937  11.774
26496W        W91481  28.997  20.049   2.453
26497W        W91482  41.136  18.654   3.588
26498W        W91483  24.743  21.916  14.940
26499W        W91484  44.428  21.143  10.433
26500W        W91485  23.226  38.384   2.272
26501W        W91486  10.472  35.286   3.343
26502W        W91487  12.176  24.894   0.742
26503W        W91488  32.239   1.728   0.363
26504W        W91489  38.145   1.393   3.120
26505W        W91490  34.030  33.969   3.697
26506W        W91491  13.699  38.448  14.370
26507W        W91492   3.673  35.091  14.534
26508W        W91493  23.584  39.950   3.329
26509W        W91494  12.179  32.349  13.964
26510W        W91495   2.152   3.488   1.364
26511W        W91496   1.701  43.552  11.575
26512W        W91497  29.633  21.011   1.765
26513W        W91498  10.899  30.472  14.055
26514W        W91499   0.479  29.649  14.098
26515W        W91500  44.847  38.754   4.883
26516W        W91501  33.454  11.348   2.266
26517W        W91502   3.291  25.505  11.091
26518W        W91503  19.992   6.695   0.297
26519W        W91504   4.476  20.200   4.056
26520W        W91505   2.168  26.966  11.162
26521W        W91506  15.040  29.902   0.883
26522W        W91507  18.666  17.190   1.416
26523W        W91508   0.005  21.371  14.824
26524W        W91509  22.188  39.491   2.818
26525W        W91510  43.564  13.298  14.468
26526W        W91511  24.974  20.183  14.212
26527W        W91512   6.787  44.836   2.987
26528W        W91513  24.096   2.943  12.484
26529W        W91514   1.816  39.280   2.254
26530W        W91515  38.050  22.688  13.808
26531W        W91516   1.687  34.646  11.190
26532W        W91517  13.616  39.965  11.220
26533W        W91518  40.459  37.081   2.764
26534W        W91519  33.596  11.837  11.100
26535W        W91520  16.278  16.862  14.494
26536W        W91521   5.716  18.228  13.832
26537W        W91522  26.781  43.441  14.990
26538W        W91523  16.652  36.574   4.502
26539W        W91524  28.167   1.563   1.398
26540W        W91525  44.121  23.787   9.871
26541W        W91526  19.797  20.150   1.771
26542W        W91527   0.377   3.208   1.729
26543W        W91528  38.051  34.368  14.950
26544W        W91529  12.229   4.899   4.342
26545W        W91530  20.697  19.664  13.537
26546W        W91531  32.454  38.858  10.057
26547W        W91532  31.122  42.910   0.758
26548W        W91533  10.645  15.983   1.155
26549W        W91534  39.108   9.262  12.604
26550W        W91535  27.545  19.950  10.970
26551W        W91536  24.987  43.210   4.136
26552W        W91537  35.124  11.190   0.777
26553W        W91538   8.777  42.883  10.795
26554W        W91539   3.277  41.538   3.603
26555W        W91540   1.429  40.074   3.148
26556W        W91541  27.123  15.135  12.638
26557W        W91542  30.450  43.912   1.818
26558W        W91543   4.996   3.268  12.583
26559W        W91544  40.085  17.681  14.920
26560W        W91545  28.440  38.775  11.021
26561W        W91546   7.442  41.724   1.862
26562W        W91547  13.136  36.824   3.645
26563W        W91548  24.817  21.955   2.122
26564W        W91549  12.116  22.486  13.025
26565W        W91550   3.733  27.821   3.599
26566W        W91551  33.224  21.288   1.380
26567W        W91552  29.814  39.433  12.381
26568W        W91553   5.978  29.461  13.749
26569W        W91554   9.750  33.978   3.584
26570W        W91555  22.073  28.170  12.211
26571W        W91556  21.332  25.626   1.484
26572W        W91557  25.725  12.745   0.701
26573W        W91558  22.800  18.126   4.834
26574W        W91559  25.557  20.148  10.774
26575W        W91560  27.938   5.982   2.698
26576W        W91561  40.546  14.294   2.780
26577W        W91562  40.033  11.176  11.965
26578W        W91563  31.076   8.106  14.019
26579W        W91564  33.457  16.238   3.255
26580W        W91565  35.789   3.317  10.768
26581W        W91566  44.909  16.296  11.207
26582W        W91567  40.794  38.786   2.384
26583W        W91568  12.828  13.533   1.448
26584W        W91569  29.427  30.120   4.042
26585W        W91570  35.927  38.187   4.640
26586W        W91571   2.790  14.016   4.874
26587W        W91572  14.356  26.094  12.198
26588W        W91573  28.312  21.550  13.992
26589W        W91574  25.593   1.536   0.519
26590W        W91575  32.423  16.224  12.951
26591W        W91576   8.919  23.002   3.232
26592W        W91577   1.730  38.817   4.570
26593W        W91578  16.574   1.293  11.174
26594W        W91579  20.206  21.641   0.751
26595W        W91580  11.161  43.952   2.927
26596W        W91581   3.450  28.652  10.682
26597W        W91582  36.481  22.924  14.606
26598W        W91583  29.688  31.159   4.664
26599W        W91584   2.259  38.918  13.766
26600W        W91585  39.098  26.152   1.739
26601W        W91586   5.219  39.747  11.149
26602W        W91587  18.244  37.738  13.421
26603W        W91588  31.184   7.830  12.412
26604W        W91589  34.934   2.933  10.451
26605W        W91590  41.631   4.316   0.625
26606W        W91591  17.878  34.992   4.539
26607W        W91592  24.867  25.888  12.046
26608W        W91593   0.373  36.137  13.310
26609W        W91594  16.778  16.626   3.587
26610W        W91595  34.495   8.288   4.132
26611W        W91596  29.992   0.826  10.664
26612W        W91597  21.230  26.711  14.919
26613W        W91598  43.291  17.216   1.913
26614W        W91599  32.820  35.478  12.570
26615W        W91600   1.247  39.269  11.150
26616W        W91601  11.673   0.413  13.301
26617W        W91602  35.055  29.089   2.768
26618W        W91603   5.312  12.753  12.338
26619W        W91604  33.532  44.573   4.542
26620W        W91605  44.777  37.378  13.332
26621W        W91606   0.831  26.576  14.751
26622W        W91607  35.046   0.827   2.841
26623W        W91608  37.445  38.368   0.581
26624W        W91609   4.288  23.812  11.212
26625W        W91610  41.373  13.664   4.634
26626W        W91611  39.675  41.392   3.284
26627W        W91612  20.544  16.251   1.375
26628W        W91613  19.924  21.995   4.859
26629W        W91614  38.897  17.230   4.176
26630W        W91615   5.291  42.308  13.514
26631W        W91616   6.876   0.399  10.862
26632W        W91617  28.742  11.858  13.576
26633W        W91618  31.611  15.382   3.216
26634W        W91619   5.355  19.822  14.680
26635W        W91620  14.786   3.485   4.184
26636W        W91621  32.446  16.542  13.891
26637W        W91622  24.583  38.360  13.519
26638W        W91623  31.056  12.488  13.796
26639W        W91624  41.878  30.222   3.232
26640W        W91625  22.888  42.241  14.281
26641W        W91626  24.246  42.224  14.480
26642W        W91627   8.173  12.571   2.635
26643W        W91628  10.370  29.911  12.473
26644W        W91629  32.061  44.039  11.924
26645W        W91630  22.489  39.830   1.932
26646W        W91631  43.533   3.459  12.927
26647W        W91632  40.886  14.841   1.668
26648W        W91633  40.755  24.119  10.737
26649W        W91634  22.714   5.475  14.968
26650W        W91635   8.821  35.878   1.473
26651W        W91636  17.362   6.767  14.259
26652W        W91637  35.397  39.460   4.735
26653W        W91638  19.263   1.222  12.822
26654W        W91639   4.198   9.734   1.615
26655W        W91640  33.832  25.171  11.117
26656W        W91641  11.686   0.525   2.109
26657W        W91642   7.210  31.929   5.126
26658W        W91643  44.916   8.384   5.222
26659W        W91644  27.450  40.749  11.527
26660W        W91645  44.481  19.385  13.960
26661W        W91646  23.806  35.835  11.462
26662W        W91647  34.195  44.767  11.437
26663W        W91648  27.639  34.248   0.385
26664W        W91649  41.357   1.417   1.747
26665W        W91650  32.362  44.471   3.094
26666W        W91651  23.675   0.935  11.249
26667W        W91652  44.947   8.339   0.238
26668W        W91653  38.586   8.980   0.274
26669W        W91654  13.571   7.724  11.442
26670W        W91655  19.586  23.829   4.567
26671W        W91656  41.086   0.131   0.505
26672W        W91657   1.714  40.468   1.266
26673W        W91658  37.072   3.938   2.735
26674W        W91659  32.556   3.294   0.025
26675W        W91660  27.503  25.979   2.786
26676W        W91661  11.890  12.271   1.364
26677W        W91662   4.182  42.034   3.712
26678W        W91663  12.378  20.758   0.783
26679W        W91664   7.792  34.996   1.787
26680W        W91665   0.477  25.713  14.346
26681W        W91666  10.444   2.086  12.036
26682W        W91667  39.418  12.542  12.980
26683W        W91668   8.861   4.791  13.826
26684W        W91669   8.567   1.835  13.801
26685W        W91670   1.928   4.396  12.768
26686W        W91671  21.277   5.987   4.142
26687W        W91672  28.736   8.421   2.683
26688W        W91673   6.172  36.941  11.700
26689W        W91674  21.698  27.388  13.783
26690W        W91675  20.715  34.077   1.942
26691W        W91676  36.448  19.015   2.688
26692W        W91677  10.018   4.779  11.616
26693W        W91678  16.536  19.570  12.867
26694W        W91679  41.491  26.532   2.323
26695W        W91680  44.092  22.389  14.739
26696W        W91681   8.701  17.566   1.265
26697W        W91682  32.208  10.895   1.027
26698W        W91683  25.705   6.824   0.021
26699W        W91684  36.904  27.211  11.380
26700W        W91685  41.980  13.714  11.894
26701W        W91686  14.713   2.506  12.587
26702W        W91687  14.221   3.704   1.687
26703W        W91688  44.218  34.417   1.907
26704W        W91689  43.922   5.727   1.756
26705W        W91690   2.829  26.545   4.496
26706W        W91691  19.228  11.784   1.975
26707W        W91692   0.602  38.716  12.090
26708W        W91693   5.947  10.771   0.771
26709W        W91694   6.002  42.510  12.270
26710W        W91695  29.528  37.406  11.555
26711W        W91696  14.198   6.250   3.860
26712W        W91697  44.285   4.621  11.196
26713W        W91698  30.535   3.532  11.335
26714W        W91699  31.620  18.817  12.632
26715W        W91700  27.043  20.188   3.910
26716W        W91701  19.623  32.322   2.163
26717W        W91702  19.977  21.162  10.558
26718W        W91703  26.125   8.640  13.335
26719W        W91704  24.550   8.657   1.821
26720W        W91705   1.914  17.228  13.726
26721W        W91706  14.381  36.999  13.478
26722W        W91707  29.335  43.709  10.977
26723W        W91708   0.682  31.785   3.217
26724W        W91709  21.878  34.952  12.496
26725W        W91710  28.759   4.405  14.624
26726W        W91711   5.648  24.533   2.348
26727W        W91712  39.161  41.585   1.658
26728W        W91713  39.164  21.652   3.908
26729W        W91714  31.197  25.151   4.176
26730W        W91715  12.705   0.040  14.172
26731W        W91716  37.364   8.469  13.474
26732W        W91717  36.454  18.573   0.193
26733W        W91718  37.611  43.940   0.599
26734W        W91719  18.177  29.411  11.639
26735W        W91720  22.176  30.201  10.095
26736W        W91721  31.706   7.910  14.847
26737W        W91722  22.750  32.927  13.011
26738W        W91723  25.234  29.084   2.750
26739W        W91724   9.368  31.527  10.784
26740W        W91725  26.919  19.997   1.480
26741W        W91726   9.787   4.457   0.422
26742W        W91727  37.083  26.213  11.001
26743W        W91728  24.681  32.452   0.023
26744W        W91729  43.009   4.098  11.361
26745W        W91730  11.011  40.955   3.664
26746W        W91731   6.874  33.101  14.860
26747W        W91732  25.792   5.820  13.596
26748W        W91733   4.813   1.001   1.756
26749W        W91734   3.248  44.925  11.651
26750W        W91735  33.803  10.415  12.671
26751W        W91736   6.547  23.073   4.493
26752W        W91737  24.244  27.256  12.013
26753W        W91738  24.903  13.352  13.875
26754W        W91739  36.793  22.037   4.527
26755W        W91740  13.342  39.068   2.350
26756W        W91741  37.679   9.710  10.739
26757W        W91742  10.582  21.105   0.563
26758W        W91743   2.175  18.118   3.685
26759W        W91744  39.452   5.338   4.483
26760W        W91745  32.435  38.247   3.962
26761W        W91746  42.802  32.972   1.518
26762W        W91747  21.096  38.310  10.602
26763W        W91748  37.042  21.483   0.465
26764W        W91749  21.538  14.610   2.255
26765W        W91750  36.387   1.301   2.723
26766W        W91751  27.129  23.005  12.844
26767W        W91752  33.605  20.265   2.810
26768W        W91753  27.383  24.555   0.936
26769W        W91754   9.258   2.875   4.350
26770W        W91755  21.226   1.016   3.313
26771W        W91756  37.005  17.638  12.028
26772W        W91757  28.035  20.004  11.996
26773W        W91758  29.007   7.897  12.016
26774W        W91759  41.693   7.130  11.675
26775W        W91760  34.423  29.254   0.942
26776W        W91761   0.778  42.849  10.846
26777W        W91762  42.459  36.099  14.890
26778W        W91763  33.433   4.786   0.761
26779W        W91764   0.675  30.271   3.138
26780W        W91765  23.694  32.337  11.555
26781W        W91766  25.127  33.318   3.449
26782W        W91767  31.529  21.667  12.092
26783W        W91768  10.980   7.717   3.096
26784W        W91769  17.494  12.462   2.187
26785W        W91770  17.188  43.108   0.787
26786W        W91771  20.117  20.935   4.479
26787W        W91772   7.087  22.926  14.853
26788W        W91773  33.991  10.187  11.604
26789W        W91774  36.621  10.299   4.022
26790W        W91775  17.282   6.444   2.804
26791W        W91776  44.750  21.540  11.088
26792W        W91777   7.990  20.040   1.318
26793W        W91778  33.771   4.782   3.729
26794W        W91779  28.621  21.783   2.717
26795W        W91780  34.505  28.953  11.140
26796W        W91781  33.140  31.195  14.930
26797W        W91782   5.719  42.758   1.409
26798W        W91783  41.332  32.003  12.937
26799W        W91784  25.424  19.191   4.080
26800W        W91785  37.783  18.897  14.983
26801W        W91786  16.663  44.343   4.617
26802W        W91787  29.290  24.127   4.924
26803W        W91788  33.960  32.772   3.832
26804W        W91789  11.914  33.545  12.603
26805W        W91790  13.104  14.807   2.393
26806W        W91791  23.582  41.063  12.073
26807W        W91792  17.260   3.928  14.725
26808W        W91793   5.040   9.654   2.908
26809W        W91794  19.996  18.152  11.524
26810W        W91795  11.431  26.141   2.215
26811W        W91796   0.529  42.000  13.455
26812W        W91797  19.679  31.092   2.625
26813W        W91798   4.369  43.976  11.667
26814W        W91799   3.000  27.635  10.691
26815W        W91800  30.616  39.775  12.748
26816W        W91801   8.400   2.702   3.647
26817W        W91802  23.342   8.426   1.638
26818W        W91803  22.680   6.737  10.938
26819W        W91804  23.507  30.608   4.269
26820W        W91805  17.538  35.097  14.817
26821W        W91806   1.757  32.178  11.136
26822W        W91807  41.708  41.652   3.798
26823W        W91808  26.009  39.836   1.937
26824W        W91809  23.240  12.866   3.305
26825W        W91810  43.010  18.307  14.430
26826W        W91811  21.526   6.980  12.059
26827W        W91812  10.807   2.017   4.209
26828W        W91813  29.397  31.450  13.236
26829W        W91814  26.496   4.510  13.253
26830W        W91815  25.534   9.860  13.926
26831W        W91816   7.151  40.974   4.692
26832W        W91817   1.482  36.215  14.235
26833W        W91818  31.818  40.052   3.306
26834W        W91819  38.053  42.530   4.583
26835W        W91820  37.902  12.000  14.407
26836W        W91821  34.446  27.183   0.259
26837W        W91822  28.669  29.910  12.576
26838W        W91823  33.515  14.065  13.540
26839W        W91824  25.964   7.705   0.514
26840W        W91825  17.662  16.829   2.601
26841W        W91826   6.257  42.972  14.335
26842W        W91827  21.936   2.455   1.297
26843W        W91828  23.729  23.876  11.626
26844W        W91829  41.575  31.420  10.706
26845W        W91830  20.220  15.187   3.086
26846W        W91831  18.199  34.295  13.946
26847W        W91832  42.691   8.749   4.163
26848W        W91833  32.265   0.449   3.284
26849W        W91834   0.932  29.430  12.916
26850W        W91835   9.348  22.727  11.125
26851W        W91836  42.338  19.048   5.002
26852W        W91837  17.581   8.236  14.506
26853W        W91838  10.895   3.370  12.928
26854W        W91839  44.675  40.470  11.586
26855W        W91840  19.711  21.683  14.530
26856W        W91841  37.932  43.009   2.381
26857W        W91842  20.711   8.880  12.865
26858W        W91843  28.521  27.095  10.566
26859W        W91844  33.456  31.181  14.167
26860W        W91845  42.897   1.552  10.731
26861W        W91846   4.080  42.747   2.527
26862W        W91847  36.001   1.409   1.575
26863W        W91848  24.280  22.686   1.945
26864W        W91849  32.391  36.842  10.638
26865W        W91850  12.789  26.462   0.207
26866W        W91851  10.332  26.618   1.806
26867W        W91852  34.998  22.453  12.919
26868W        W91853  23.267  32.618  11.428
26869W        W91854  13.118   3.321  13.408
26870W        W91855   1.344  15.716   3.728
26871W        W91856  29.129  31.613   0.012
26872W        W91857  42.324  11.219  11.505
26873W        W91858  40.436  34.014  13.125
26874W        W91859   1.188  38.051  10.761
26875W        W91860   2.469  38.051  14.779
26876W        W91861  37.226  43.322  14.281
26877W        W91862  23.719  31.960   3.674
26878W        W91863  21.871  24.715   1.797
26879W        W91864  26.209  22.307   4.700
26880W        W91865  15.120  29.194   2.455
26881W        W91866   9.358  44.190  12.007
26882W        W91867   5.122  29.536   1.148
26883W        W91868   7.891  19.250   4.096
26884W        W91869   0.741  11.306   4.177
26885W        W91870   4.152  35.053   1.275
26886W        W91871  26.578  40.334  11.977
26887W        W91872  29.883  25.148  12.921
26888W        W91873  11.564  26.399  10.741
26889W        W91874  36.318  39.865   2.217
26890W        W91875   4.224  38.025  11.368
26891W        W91876  35.119  43.442  12.242
26892W        W91877  22.555  30.595   2.766
26893W        W91878   7.230  35.114  14.472
26894W        W91879  44.502  27.476  12.586
26895W        W91880   1.868   2.251   3.397
26896W        W91881   7.186  10.552  14.826
26897W        W91882  40.872  21.135   3.217
26898W        W91883  19.274  38.755  13.303
26899W        W91884  15.778  25.047   2.882
26900W        W91885  19.750  27.018  13.626
26901W        W91886  39.604  43.744  12.933
26902W        W91887  10.868  19.027  14.860
26903W        W91888  43.230  10.679   1.300
26904W        W91889  24.940  18.832   2.834
26905W        W91890   4.666  40.589   3.667
26906W        W91891   2.478  34.575   2.761
26907W        W91892  26.687  26.009   1.392
26908W        W91893  36.090  21.003  13.116
26909W        W91894  28.577   5.800   4.373
26910W        W91895  17.620  37.977  10.677
26911W        W91896   8.796  26.976   3.897
26912W        W91897  41.082  36.049   0.454
26913W        W91898  37.805  34.249  12.197
26914W        W91899  40.518   2.801   4.378
26915W        W91900  23.379  14.853  14.417
26916W        W91901  33.409  29.721  12.866
26917W        W91902  27.076   0.160   3.597
26918W        W91903  22.283  14.790  12.752
26919W        W91904  17.854  11.279  14.930
26920W        W91905  27.427  23.069   4.277
26921W        W91906  10.311  29.617   3.141
26922W        W91907  23.384  16.526  11.953
26923W        W91908  18.357  43.319  12.630
26924W        W91909  23.969  32.807   4.156
26925W        W91910  14.828  11.653  13.812
26926W        W91911  16.195  15.034  10.988
26927W        W91912  31.715  31.787  10.733
26928W        W91913  43.089   5.996  13.417
26929W        W91914  29.504   2.984   0.214
26930W        W91915  25.037  18.388   3.198
26931W        W91916  27.476   5.425   0.428
26932W        W91917   4.427  22.139   2.436
26933W        W91918  23.437  31.917  13.143
26934W        W91919  11.714  32.373  10.954
26935W        W91920  35.571   0.764   4.600
26936W        W91921  32.937  38.634  10.803
26937W        W91922  40.017  19.222  11.230
26938W        W91923  12.162  21.402   0.383
26939W        W91924  23.303  30.921   5.758
26940W        W91925  14.158   9.164  11.129
26941W        W91926  25.194  42.206   0.900
26942W        W91927   7.491   6.510   4.915
26943W        W91928  30.381  36.017  12.610
26944W        W91929  18.182  40.074   4.480
26945W        W91930   5.326  28.252  14.470
26946W        W91931  20.062   0.232  13.414
26947W        W91932  34.817  32.375  13.548
26948W        W91933  32.450  25.402   2.790
26949W        W91934   0.026  28.694   2.866
26950W        W91935  31.463  43.839   2.441
26951W        W91936   1.367   9.937  14.981
26952W        W91937  36.774  13.116  12.916
26953W        W91938  20.566  32.889  11.635
26954W        W91939   7.771  21.116   2.781
26955W        W91940  26.808  43.295   4.072
26956W        W91941  16.162   7.144  11.197
26957W        W91942  26.188   9.247   1.348
26958W        W91943   4.771  21.623   4.460
26959W        W91944   8.808  38.947   3.790
26960W        W91945   0.718   3.897  12.984
26961W        W91946   4.748  17.280  13.453
26962W        W91947  33.952   9.929  13.360
26963W        W91948  16.656  18.522   3.608
26964W        W91949   5.963  36.273   1.647
26965W        W91950  43.591  11.308   0.273
26966W        W91951  40.441   4.681   0.420
26967W        W91952  10.790  16.997   1.367
26968W        W91953  27.582  23.568  11.120
26969W        W91954  14.191  42.087  11.194
26970W        W91955   6.135  28.573   2.429
26971W        W91956  33.527  43.853   1.719
26972W        W91957  21.758  14.802  11.200
26973W        W91958  43.671   3.462   3.071
26974W        W91959  14.833  17.056  14.242
26975W        W91960  29.194  30.611  11.127
26976W        W91961  34.509   2.645  14.828
26977W        W91962  28.258  44.362  12.998
26978W        W91963  35.592  41.093   1.383
26979W        W91964  44.281  38.362   4.667
26980W        W91965  42.374  14.737   2.941
26981W        W91966   5.893  36.122  10.416
26982W        W91967  19.196  16.839   0.270
26983W        W91968  44.530  27.087  11.128
26984W        W91969  36.284  23.601  11.868
26985W        W91970   0.955  25.234   2.340
26986W        W91971  37.787  28.628  14.946
26987W        W91972  20.086  11.107  13.831
26988W        W91973  38.204  10.609   0.762
26989W        W91974   1.866   0.879  11.032
26990W        W91975  18.524  28.996  14.232
26991W        W91976   7.825  41.991  11.493
26992W        W91977  42.259  14.367   0.601
26993W        W91978  39.680  22.222   2.566
26994W        W91979   2.985  38.467  13.089
26995W        W91980   7.142  42.731  14.068
26996W        W91981  22.495  26.451  12.664
26997W        W91982  20.000  22.166  11.970
26998W        W91983  40.963   8.271   2.935
26999W        W91984  37.840  22.579  10.673
27000W        W91985  11.742   0.796  12.066
27001W        W91986   9.279  43.744   2.869
27002W        W91987  17.473  43.815   2.725
27003W        W91988  23.004  18.224  13.394
27004W        W91989  25.437   8.578   5.073
27005W        W91990  39.418   9.976   0.432
27006W        W91991  26.083  24.648  10.989
27007W        W91992  21.071  35.391   2.320
27008W        W91993  35.537  17.325   3.223
27009W        W91994  28.191  30.153   0.413
27010W        W91995  21.884  31.473  12.519
27011W        W91996  37.939  40.000   0.311
27012W        W91997  19.190   9.638   3.302
27013W        W91998   6.900   8.873   1.087
27014W        W91999  10.871   8.327   4.293
27015W        W92000  32.394   6.382   0.242
27016W        W92001  14.794  20.002  11.327
27017W        W92002  13.562  42.780  11.474
27018W        W92003   6.242  20.770  10.586
27019W        W92004   4.428  25.754  12.655
27020W        W92005  11.489  34.533  11.676
27021W        W92006  22.253  28.078  14.434
27022W        W92007  37.071  23.325  13.400
27023W        W92008  25.469  40.755  13.693
27024W        W92009  39.078  36.916  12.460
27025W        W92010  40.484  33.134   1.780
27026W        W92011   9.011   0.325  14.017
27027W        W92012   6.094  32.765   3.680
27028W        W92013   2.759  34.175   0.035
27029W        W92014   3.479   4.802  12.153
27030W        W92015  28.879  19.762  12.091
27031W        W92016   2.343  38.374   3.353
27032W        W92017  28.459   0.011  14.295
27033W        W92018  14.012   1.243  11.920
27034W        W92019  33.281  34.607   1.867
27035W        W92020  15.585  15.690  13.930
27036W        W92021  11.028   7.975   0.036
27037W        W92022  14.036  11.244   1.771
27038W        W92023  10.201  15.616  12.722
27039W        W92024  42.805   8.933  12.528
27040W        W92025   3.245  17.982  11.157
27041W        W92026  23.046  22.859   2.230
27042W        W92027   8.798  22.543   2.231
27043W        W92028  30.026  42.372  10.741
27044W        W92029   9.862   1.210   0.410
27045W        W92030  31.436  32.424   0.862
27046W        W92031  21.241   4.770   2.245
27047W        W92032  26.712   0.906   1.270
27048W        W92033  29.601  35.390  10.651
27049W        W92034  26.359   9.780   0.723
27050W        W92035  22.786  22.800   3.282
27051W        W92036  21.033  38.337  11.123
27052W        W92037  31.321   6.643   4.316
27053W        W92038   5.143  10.210  12.569
27054W        W92039  37.780  37.813   4.746
27055W        W92040  44.734  34.456  13.402
27056W        W92041  38.297   8.599  12.560
27057W        W92042   5.794  12.594   3.426
27058W        W92043  30.038   7.607   0.419
27059W        W92044  34.464  22.561   1.301
27060W        W92045  33.141   9.082   0.487
27061W        W92046   9.962  18.514   0.338
27062W        W92047  37.234  15.482  11.649
27063W        W92048  21.289  18.556  14.035
27064W        W92049  35.134  42.850   4.054
27065W        W92050  40.530  15.138   1.433
27066W        W92051  11.466  18.838   3.690
27067W        W92052  24.529  14.813  13.900
27068W        W92053   4.161  22.743   3.744
27069W        W92054  42.729  38.716  10.079
27070W        W92055   9.696  39.442  12.586
27071W        W92056  42.546  13.956  14.837
27072W        W92057  31.174  14.349   0.393
27073W        W92058  44.816  41.767  10.736
27074W        W92059  35.127  33.342  11.652
27075W        W92060  41.703  38.888  14.962
27076W        W92061  16.343  28.175   1.205
27077W        W92062  42.120  41.538   3.474
27078W        W92063  22.644  33.136  14.840
27079W        W92064  18.586   5.682  14.272
27080W        W92065  29.105  15.305  10.991
27081W        W92066  33.383  12.726   3.201
27082W        W92067  38.100  38.493  12.012
27083W        W92068  31.636  25.001   2.910
27084W        W92069  35.434  29.815  13.885
27085W        W92070  20.535  39.883  11.579
27086W        W92071  30.858  42.504   0.484
27087W        W92072  43.368  32.519   1.064
27088W        W92073  19.704  11.937  11.161
27089W        W92074  19.270   0.862  13.755
27090W        W92075  23.243  24.754   0.795
27091W        W92076  15.356  28.959   3.418
27092W        W92077  17.432  36.565  13.982
27093W        W92078  37.945  40.562  14.301
27094W        W92079  26.664  16.659  13.397
27095W        W92080  20.512   0.354  12.398
27096W        W92081  12.600  17.264   2.553
27097W        W92082  30.695  22.154  13.971
27098W        W92083  19.045  44.508  13.367
27099W        W92084  15.263  44.043  11.994
27100W        W92085   6.410  43.550   4.634
27101W        W92086   2.679  18.007   3.641
27102W        W92087  10.708  34.852  14.185
27103W        W92088  33.174  44.485  14.923
27104W        W92089  13.082   1.771   3.646
27105W        W92090  40.362  24.619  12.164
27106W        W92091  44.366  37.044  14.567
27107W        W92092  25.598  17.922  11.063
27108W        W92093  40.534  21.639   2.206
27109W        W92094  27.956  12.577   3.135
27110W        W92095  26.925  28.545  13.516
27111W        W92096  30.002  16.553  14.039
27112W        W92097  26.409  43.443   5.216
27113W        W92098  15.320  40.866   3.218
27114W        W92099  18.192  44.268   1.323
27115W        W92100  36.800   5.686   2.777
27116W        W92101  19.356  36.411  13.518
27117W        W92102  19.881  17.369   0.848
27118W        W92103  36.304  31.651  13.818
27119W        W92104  36.029  38.760  11.858
27120W        W92105   6.322  43.322  11.119
27121W        W92106  42.573  29.956   4.982
27122W        W92107  24.905  40.035   2.871
27123W        W92108  20.239  26.677   3.716
27124W        W92109  39.318  13.952   3.314
27125W        W92110  18.281  44.872   1.703
27126W        W92111  37.237   2.822   3.593
27127W        W92112  24.547  39.178   2.902
27128W        W92113  11.076  13.609   4.906
27129W        W92114  44.257  19.309   0.229
27130W        W92115  22.001  43.065   3.647
27131W        W92116  38.779  21.228   0.871
27132W        W92117   6.373  18.347   0.198
27133W        W92118  37.995  31.612   2.682
27134W        W92119   7.856  37.440   3.207
27135W        W92120  21.183  19.749  11.146
27136W        W92121   0.814  10.246  10.744
27137W        W92122  26.159  39.328   3.215
27138W        W92123  16.650  14.289   3.635
27139W        W92124   6.024  25.850   2.338
27140W        W92125  18.298  14.770  14.953
27141W        W92126  13.440  43.867  12.947
27142W        W92127  38.249  40.798   2.082
27143W        W92128  16.237   9.331  11.924
27144W        W92129  15.301  19.199   4.318
27145W        W92130  31.221  33.922  11.715
27146W        W92131   3.879   9.929   1.958
27147W        W92132  22.048  22.356   3.206
27148W        W92133  22.251   3.111   2.103
27149W        W92134  38.025  31.627  13.454
27150W        W92135   6.780  19.541   1.389
27151W        W92136  29.371  20.070  12.926
27152W        W92137  15.031  12.197   2.920
27153W        W92138  43.426  25.625   2.755
27154W        W92139  36.066   8.857  13.264
27155W        W92140  31.928  37.788   1.829
27156W        W92141  17.614   8.917   3.175
27157W        W92142  20.180   4.910   0.358
27158W        W92143  42.773   7.105   2.773
27159W        W92144  39.982  33.841  12.903
27160W        W92145  35.016  41.305   4.284
27161W        W92146  11.250  17.027  11.159
27162W        W92147   6.889  44.621  11.152
27163W        W92148  42.910  11.322   3.217
27164W        W92149  35.867  38.515   2.738
27165W        W92150  21.318  25.628  13.331
27166W        W92151  21.719  42.397  12.349
27167W        W92152  26.991  36.473   0.392
27168W        W92153  16.490   1.877  13.353
27169W        W92154  10.718  44.459   0.001
27170W        W92155  19.065  16.184  14.493
27171W        W92156  11.187  10.266  14.891
27172W        W92157  29.451  14.215   5.097
27173W        W92158  35.640  13.388  11.650
27174W        W92159  37.321  33.363   3.649
27175W        W92160  25.940  11.885   0.401
27176W        W92161  12.201  24.117   4.778
27177W        W92162  11.411  42.245  14.303
27178W        W92163  38.961  20.030   4.459
27179W        W92164  26.741  18.250   2.813
27180W        W92165  10.568  41.911  14.909
27181W        W92166  26.230   1.279  11.522
27182W        W92167   6.404  41.614   3.667
27183W        W92168  17.191  30.594  13.486
27184W        W92169  14.902  21.337   3.265
27185W        W92170  38.262  21.196   0.914
27186W        W92171  35.179  30.196  11.119
27187W        W92172   4.140  30.446  12.843
27188W        W92173   4.388  12.551   1.221
27189W        W92174   8.179  14.625  11.705
27190W        W92175  26.024  39.913   0.083
27191W        W92176  15.461  31.095   4.826
27192W        W92177  23.971   4.485  13.394
27193W        W92178  14.046  27.872  12.418
27194W        W92179  39.896  42.909   3.872
27195W        W92180  41.001  13.713  10.806
27196W        W92181  41.093  35.871  14.951
27197W        W92182  33.050   3.460   3.301
27198W        W92183  18.712   3.545  10.370
27199W        W92184  11.950   1.819  11.997
27200W        W92185   3.790  24.032   1.946
27201W        W92186  36.251  40.752  14.762
27202W        W92187  44.809  15.560   0.505
27203W        W92188  18.656  21.074  11.099
27204W        W92189  39.081  43.561   2.738
27205W        W92190  22.166   3.809   4.642
27206W        W92191  14.578  16.984  13.220
27207W        W92192   4.985  20.021   4.232
27208W        W92193  39.229  32.109  13.061
27209W        W92194  37.624  40.666  14.969
27210W        W92195  38.186   4.196  10.724
27211W        W92196  40.306   2.572  10.414
27212W        W92197  38.666  11.734  12.967
27213W        W92198   4.562  33.834   0.319
27214W        W92199   8.259  15.055  10.848
27215W        W92200  15.581  41.138  12.103
27216W        W92201  15.799   9.801   1.864
27217W        W92202  26.709  43.754  14.286
27218W        W92203  33.916   3.940  13.985
27219W        W92204   7.369   0.234  10.729
27220W        W92205  44.585  34.006  14.816
27221W        W92206  38.748  17.619   2.981
27222W        W92207   1.175  34.680  11.147
27223W        W92208  13.038  10.402  12.127
27224W        W92209  31.170  26.934   5.084
27225W        W92210  42.858   2.449   2.621
27226W        W92211  35.861   1.715   1.184
27227W        W92212  31.415  43.069  14.318
27228W        W92213   5.161  23.593  14.455
27229W        W92214  36.559  27.973   0.934
27230W        W92215  20.721  42.759   2.710
27231W        W92216   5.249   0.231   0.988
27232W        W92217  36.327   2.298  13.702
27233W        W92218  35.860   1.726   4.430
27234W        W92219  39.495   4.753   2.743
27235W        W92220  20.792  22.137   1.814
27236W        W92221  32.898   0.835   2.132
27237W        W92222  22.726  43.465  14.511
27238W        W92223   9.863  10.326  11.062
27239W        W92224  32.326  11.856   4.208
27240W        W92225  27.847  33.788  12.432
27241W        W92226  44.324  43.782  12.098
27242W        W92227  39.365  25.586  11.872
27243W        W92228  38.777   3.041   4.647
27244W        W92229  36.980   7.348   1.340
27245W        W92230   1.299  24.000  11.403
27246W        W92231  25.791  21.905  11.968
27247W        W92232  43.251  32.033  12.638
27248W        W92233  31.460   1.188   3.195
27249W        W92234  15.836  32.934  12.489
27250W        W92235  30.203  15.349  13.411
27251W        W92236  33.021  44.564  12.116
27252W        W92237  26.108  29.403   5.429
27253W        W92238   8.903  15.746  11.058
27254W        W92239  10.891  22.084   4.599
27255W        W92240  32.277  31.480   5.055
27256W        W92241  35.753   3.483  13.825
27257W        W92242   4.898  22.806   3.181
27258W        W92243  12.527  37.627   1.170
27259W        W92244   0.971  20.211  13.514
27260W        W92245  44.897   1.526   4.027
27261W        W92246   0.591  35.620   2.100
27262W        W92247  27.551  40.307  13.846
27263W        W92248  22.186  32.930   3.797
27264W        W92249  40.005  24.850   0.349
27265W        W92250  41.850  40.928   2.689
27266W        W92251   4.965  38.770   3.409
27267W        W92252  38.696  13.884   4.918
27268W        W92253  29.109  40.494   1.605
27269W        W92254  43.775  29.667  11.039
27270W        W92255  29.100  16.245  14.288
27271W        W92256  33.119  40.239  12.993
27272W        W92257  36.735  20.081  12.114
27273W        W92258  39.355  15.200  10.793
27274W        W92259  13.805  20.811  13.795
27275W        W92260  26.945  16.725  13.835
27276W        W92261  25.741   6.323  11.118
27277W        W92262  13.253  33.625   1.639
27278W        W92263  10.694  26.903  10.906
27279W        W92264  16.213  12.633   2.267
27280W        W92265  42.711  29.897  10.736
27281W        W92266   0.766  38.286  12.982
27282W        W92267  21.787  25.462  11.507
27283W        W92268   8.853  35.958  12.110
27284W        W92269  14.597  41.763  14.896
27285W        W92270  28.303  16.054  11.281
27286W        W92271   9.853  41.966  13.062
27287W        W92272  19.807  40.312  11.989
27288W        W92273  27.495   5.434  12.819
27289W        W92274  19.708  17.994   2.688
27290W        W92275  21.215  40.175   1.890
27291W        W92276  44.313  34.755  14.305
27292W        W92277  42.336  19.083   3.305
27293W        W92278  13.842   3.941  14.888
27294W        W92279  16.224  36.783   2.811
27295W        W92280  19.147   7.483   2.802
27296W        W92281  24.006  18.667  14.384
27297W        W92282  22.723  32.325   3.662
27298W        W92283  35.241   9.159  14.864
27299W        W92284  29.127  27.434   4.331
27300W        W92285  39.073   9.839  14.687
27301W        W92286   3.969  14.638   3.357
27302W        W92287  37.801   0.828   0.851
27303W        W92288   6.293  18.236   3.826
27304W        W92289  30.913  33.164   0.773
27305W        W92290  15.877  33.239  14.269
27306W        W92291  18.070  23.607   4.608
27307W        W92292  37.889  38.396  14.087
27308W        W92293  36.406  25.898  10.728
27309W        W92294   4.964  43.508   2.333
27310W        W92295  30.254  29.590   0.268
27311W        W92296  17.746  22.285  12.570
27312W        W92297  26.173  43.840  14.258
27313W        W92298   3.104  27.590   1.031
27314W        W92299  24.655  24.499  12.939
27315W        W92300  10.175  16.151  14.411
27316W        W92301  39.364  40.434   4.382
27317W        W92302  34.361  42.818   1.973
27318W        W92303   5.800  38.853   0.772
27319W        W92304  44.325  24.423   2.981
27320W        W92305  25.340  32.054   1.357
27321W        W92306  31.667  43.443   2.834
27322W        W92307  40.770  13.222  13.778
27323W        W92308   4.379  43.291  13.258
27324W        W92309  24.065  24.048   1.295
27325W        W92310   9.525  43.622   4.157
27326W        W92311  21.187  30.055  12.749
27327W        W92312  16.739  33.692   2.147
27328W        W92313  42.349  12.877   1.628
27329W        W92314  34.995  21.556   1.859
27330W        W92315  15.822  44.031  14.722
27331W        W92316   3.848  37.050   1.418
27332W        W92317  31.492  40.024  14.410
27333W        W92318   0.217  38.873   1.529
27334W        W92319  44.444  38.188  11.567
27335W        W92320  16.280  41.896   0.116
27336W        W92321   8.530  37.083  14.127
27337W        W92322   8.234  21.298  11.454
27338W        W92323   8.805  29.781   1.691
27339W        W92324   1.465  30.348  14.985
27340W        W92325  38.853  14.794  14.033
27341W        W92326  20.072  14.007   1.166
27342W        W92327   0.732  27.712  12.521
27343W        W92328   2.443   0.835   3.309
27344W        W92329   0.062  31.460  14.526
27345W        W92330  40.630  27.577   0.334
27346W        W92331  16.131  19.240   2.362
27347W        W92332  37.164  29.965  11.178
27348W        W92333  14.372  19.210   4.739
27349W        W92334  29.531  34.008   2.295
27350W        W92335  28.921   5.680  12.788
27351W        W92336   4.641   2.373   4.266
27352W        W92337  25.544  38.019   3.444
27353W        W92338   0.926  14.611   0.118
27354W        W92339  27.679  18.484  14.040
27355W        W92340   9.464  24.514   4.141
27356W        W92341  16.301  39.546   1.231
27357W        W92342  40.540  20.282   3.194
27358W        W92343  16.260  21.061  12.468
27359W        W92344  32.378  29.302   0.533
27360W        W92345  42.709  25.182   1.678
27361W        W92346  32.248  38.650   3.533
27362W        W92347  14.429  18.424  12.824
27363W        W92348  21.598  17.044  11.607
27364W        W92349   0.915  23.670  11.600
27365W        W92350   9.273  15.278   4.437
27366W        W92351  23.788  25.109   2.428
27367W        W92352  34.351  43.300  11.714
27368W        W92353  22.240   4.397  13.079
27369W        W92354  40.439  12.555   4.645
27370W        W92355   3.471  12.347  12.515
27371W        W92356  16.525  42.305   1.855
27372W        W92357  29.631   7.325  14.689
27373W        W92358  37.027  10.328  13.141
27374W        W92359  20.816  37.453   1.978
27375W        W92360  43.846  19.405   1.808
27376W        W92361  13.226  39.578   4.586
27377W        W92362  35.270  40.607  12.112
27378W        W92363  33.775  11.337  13.341
27379W        W92364  22.833  19.966   1.002
27380W        W92365  38.341  34.447  12.050
27381W        W92366  22.178  11.847  12.982
27382W        W92367  13.813  22.972   3.752
27383W        W92368  33.864  38.006  14.481
27384W        W92369   8.449  32.632   1.832
27385W        W92370  33.324  21.375  10.622
27386W        W92371  22.234  18.096   4.617
27387W        W92372  20.629  21.290  12.193
27388W        W92373  39.025  27.640  13.347
27389W        W92374   6.637  20.193   1.767
27390W        W92375  42.929  43.063  11.913
27391W        W92376  39.459  14.767  10.532
27392W        W92377  16.669  33.119   1.477
27393W        W92378  37.089   3.192  10.513
27394W        W92379  44.978  12.809   4.523
27395W        W92380  17.425  32.962  14.798
27396W        W92381  33.313  19.295  12.051
27397W        W92382  39.315   0.297   4.649
27398W        W92383  35.953  13.217  13.474
27399W        W92384  26.287  23.681   4.482
27400W        W92385  33.995   4.387   2.903
27401W        W92386  34.626  18.750   2.773
27402W        W92387  22.654  37.588  13.581
27403W        W92388  23.731   6.784  14.883
27404W        W92389  10.729  12.820  14.028
27405W        W92390   8.094   2.923   0.821
27406W        W92391  12.778  16.101   3.219
27407W        W92392  32.671   7.644  11.098
27408W        W92393  14.077   5.279   4.992
27409W        W92394  42.679  14.161  11.049
27410W        W92395  17.870  41.634  12.854
27411W        W92396  42.003  16.039  14.132
27412W        W92397  32.636  34.572  13.486
27413W        W92398  32.737  39.543   1.707
27414W        W92399  15.676   8.162  12.229
27415W        W92400   9.996   3.760  13.262
27416W        W92401  17.724  19.117  13.514
27417W        W92402   6.022  22.422  10.318
27418W        W92403  39.294   1.238   0.140
27419W        W92404  29.956  16.617  12.849
27420W        W92405  36.409  24.366   0.069
27421W        W92406  27.689  31.310   2.247
27422W        W92407  36.121  14.762   0.871
27423W        W92408  24.132  25.197  14.051
27424W        W92409  39.838   1.779  14.481
27425W        W92410  19.709  38.736  11.691
27426W        W92411  21.773  24.086  13.391
27427W        W92412  39.765  16.866   2.210
27428W        W92413  13.395   3.002   4.996
27429W        W92414  41.920   3.860   1.857
27430W        W92415   4.352  39.739   2.843
27431W        W92416   9.133  15.064  12.813
27432W        W92417  32.226  18.654   2.816
27433W        W92418   2.704  42.491  10.785
27434W        W92419   4.966  23.035  11.054
27435W        W92420  28.204  12.183   0.283
27436W        W92421  19.166  36.908   1.596
27437W        W92422   6.847  11.055  13.025
27438W        W92423  24.208   0.740   0.792
27439W        W92424  28.151  13.792   1.454
27440W        W92425  19.223  41.318  11.110
27441W        W92426  26.984  15.184   3.405
27442W        W92427   3.748  40.003   3.891
27443W        W92428  32.954  17.073  13.288
27444W        W92429   5.661   4.060  10.778
27445W        W92430  24.681  33.345   1.887
27446W        W92431  23.984  17.629  11.914
27447W        W92432   5.438  15.655  11.447
27448W        W92433  10.184  33.684  11.912
27449W        W92434   9.249  40.344  14.449
27450W        W92435  12.909  32.992   1.465
27451W        W92436   8.843  19.057   4.200
27452W        W92437  40.345  11.838  11.644
27453W        W92438  26.751  20.738   3.269
27454W        W92439   4.899   6.029  11.776
27455W        W92440   7.313  30.239   4.163
27456W        W92441  10.208   9.684  10.689
27457W        W92442  25.582   1.236   3.133
27458W        W92443   7.726   9.858   0.336
27459W        W92444  37.789  18.134   2.850
27460W        W92445  36.879   2.795   1.240
27461W        W92446  32.563  15.224  13.298
27462W        W92447  14.299  44.885  13.484
27463W        W92448   3.238   3.713  12.900
27464W        W92449  44.973  10.701   3.116
27465W        W92450  29.228  27.978   1.650
27466W        W92451  21.797  21.072   2.466
27467W        W92452   2.919  35.808   0.787
27468W        W92453  35.275   3.165  10.772
27469W        W92454  39.526  35.574   0.777
27470W        W92455  44.272  25.427  13.559
27471W        W92456  15.681  30.725  10.253
27472W        W92457  44.242  14.673  13.192
27473W        W92458  37.331  39.801   3.235
27474W        W92459  27.574   9.844   3.335
27475W        W92460   6.216   1.645   3.545
27476W        W92461  35.801  42.391   2.764
27477W        W92462  35.120  41.576  11.114
27478W        W92463  44.730  40.578   3.788
27479W        W92464  12.036  15.109   0.631
27480W        W92465   3.301  42.918   1.466
27481W        W92466   7.824  43.506   2.285
27482W        W92467  26.095  11.602  13.725
27483W        W92468  10.677   9.662  11.944
27484W        W92469   0.332   5.019   0.341
27485W        W92470  26.246   9.355  11.616
27486W        W92471  35.285   5.357  10.531
27487W        W92472   9.296  20.100  13.972
27488W        W92473  17.396  36.934  13.593
27489W        W92474   3.464  14.850  11.634
27490W        W92475  15.524   7.502  13.764
27491W        W92476   1.669  42.081   2.529
27492W        W92477   1.389  31.129  14.476
27493W        W92478  37.070  44.332  13.478
27494W        W92479  24.349  37.386   1.188
27495W        W92480  42.353   3.205   1.398
27496W        W92481  10.974  11.285  10.718
27497W        W92482  39.736  44.087  13.371
27498W        W92483  30.137  41.472  13.777
27499W        W92484  21.767  41.854  14.050
27500W        W92485  23.686  24.646   2.200
27501W        W92486  10.080  15.784  13.474
27502W        W92487   0.496  30.959   4.600
27503W        W92488  34.368  28.671   4.402
27504W        W92489   4.921  20.951   2.109
27505W        W92490  42.262  42.319   4.658
27506W        W92491  31.015  16.902  12.027
27507W        W92492  42.424  18.818   0.747
27508W        W92493   3.645   0.813  11.930
27509W        W92494  25.712  16.692   3.116
27510W        W92495   3.892  30.181  14.412
27511W        W92496   1.423  34.987  13.718
27512W        W92497   4.470  26.636   4.578
27513W        W92498  41.144   4.931  12.577
27514W        W92499  16.111  20.863  14.338
27515W        W92500  44.403  17.236  13.493
27516W        W92501   7.143  42.387   2.436
27517W        W92502  38.590  42.057  11.061
27518W        W92503  19.692  39.961   4.143
27519W        W92504   2.446  27.129   0.867
27520W        W92505  19.125  37.880  13.891
27521W        W92506  18.456   8.793   0.267
27522W        W92507  39.236  18.634  11.095
27523W        W92508  26.605  19.662   4.906
27524W        W92509  24.680  13.550  12.598
27525W        W92510  35.447  29.857  14.896
27526W        W92511  35.607  25.244  12.968
27527W        W92512  27.672   6.156   3.126
27528W        W92513   1.045  33.184  12.386
27529W        W92514  19.512  41.385  13.067
27530W        W92515  19.709   4.352   1.745
27531W        W92516  25.484   8.087  12.464
27532W        W92517  44.975  23.228   4.907
27533W        W92518   5.869  10.330  12.063
27534W        W92519   4.332  25.708   4.120
27535W        W92520  34.661  13.212   2.463
27536W        W92521   5.414  32.680   0.437
27537W        W92522  20.253  14.740  11.968
27538W        W92523  11.565  10.460  10.613
27539W        W92524  43.208  25.050   1.650
27540W        W92525  30.531  26.645  11.302
27541W        W92526  36.961  36.515   0.896
27542W        W92527  40.139  24.776  13.243
27543W        W92528  14.241  43.327  13.248
27544W        W92529  30.329   0.099   9.865
27545W        W92530  27.170  37.595   1.010
27546W        W92531  39.387  24.957  14.760
27547W        W92532  12.476  19.487   0.321
27548W        W92533   9.755   3.923  11.068
27549W        W92534   4.715  21.530   0.259
27550W        W92535  35.588  22.140  12.180
27551W        W92536   1.179   8.952  11.408
27552W        W92537   3.841  39.317  10.913
27553W        W92538   9.243  40.478   2.441
27554W        W92539  26.214  10.184  11.685
27555W        W92540   7.773  16.068   3.176
27556W        W92541  10.904  29.494   4.709
27557W        W92542  43.719  17.270  13.999
27558W        W92543  34.073  11.024   9.628
27559W        W92544  33.863  12.874   3.041
27560W        W92545  26.095  16.053  12.470
27561W        W92546  11.834  20.223  14.399
27562W        W92547  24.604  37.893  11.631
27563W        W92548  10.039   4.679   9.686
27564W        W92549  13.184  17.799  14.444
27565W        W92550  43.516  32.462   3.181
27566W        W92551  35.595  34.168  10.810
27567W        W92552  37.096  14.679   1.701
27568W        W92553  30.062  43.053  12.428
27569W        W92554   9.697  12.105  14.879
27570W        W92555   3.629   2.498   4.347
27571W        W92556  44.319  16.715  12.280
27572W        W92557  12.242  24.544  13.531
27573W        W92558  12.957  37.350  12.327
27574W        W92559  20.470  38.746  13.895
27575W        W92560  39.304  16.796   9.857
27576W        W92561  22.435   7.860   0.383
27577W        W92562   0.887   9.297   3.641
27578W        W92563  14.502  40.422  14.521
27579W        W92564   7.813  10.901  14.427
27580W        W92565  23.521  38.288  12.108
27581W        W92566   0.060  17.264   3.250
27582W        W92567  13.535  22.593   4.337
27583W        W92568  13.195  40.885  11.010
27584W        W92569  19.121   9.755   2.799
27585W        W92570  19.058  39.698  12.334
27586W        W92571  30.696  31.436   0.462
27587W        W92572  23.970  12.819   0.575
27588W        W92573  19.190  35.197  11.211
27589W        W92574  32.615  35.902   1.658
27590W        W92575  21.564  30.342   0.327
27591W        W92576  18.730  16.418  14.825
27592W        W92577  41.465   2.482  14.876
27593W        W92578  24.270   7.436   3.264
27594W        W92579  21.612  21.615   1.337
27595W        W92580  25.995  12.125  11.678
27596W        W92581   5.478   6.660  11.533
27597W        W92582  15.056  25.006  12.484
27598W        W92583   8.822   2.107   1.905
27599W        W92584  26.709  42.371   3.534
27600W        W92585  15.444  34.375  11.199
27601W        W92586  28.952  36.956  11.898
27602W        W92587  13.433   7.151   4.199
27603W        W92588  39.355   2.951   3.140
27604W        W92589  15.932  15.249   1.369
27605W        W92590   4.275  17.673  11.945
27606W        W92591   3.699  41.433   0.270
27607W        W92592   9.126  37.514  14.439
27608W        W92593   6.200  36.409  10.809
27609W        W92594   4.240  33.424   0.408
27610W        W92595  42.473  31.116  11.539
27611W        W92596  17.603  16.364   2.821
27612W        W92597   2.367  36.597   1.771
27613W        W92598  23.281  32.903  13.847
27614W        W92599  40.027  33.302  12.105
27615W        W92600  43.383  20.641  11.148
27616W        W92601  42.832  42.230  13.523
27617W        W92602  16.621  39.829   0.026
27618W        W92603  21.945   1.939  13.975
27619W        W92604  41.169  43.809  14.823
27620W        W92605  25.493   6.766  11.128
27621W        W92606  44.006  13.372  10.695
27622W        W92607  23.980  34.976  11.127
27623W        W92608  29.695  12.218   1.380
27624W        W92609  22.104  26.858   2.719
27625W        W92610  13.359   5.242  10.725
27626W        W92611   9.169  35.468  11.084
27627W        W92612  16.091  19.854  12.909
27628W        W92613  36.121  23.948   3.742
27629W        W92614  26.017   7.717  12.956
27630W        W92615  29.177   3.912   1.289
27631W        W92616  32.399  30.178  12.918
27632W        W92617   2.565  22.776  13.018
27633W        W92618   3.777  33.353   3.212
27634W        W92619  24.543  38.302  14.983
27635W        W92620  24.681  27.008   4.950
27636W        W92621  19.219  14.083   4.572
27637W        W92622  36.903   6.251   4.536
27638W        W92623  39.861  15.713  14.065
27639W        W92624  40.829  25.927   0.292
27640W        W92625  40.844  42.651  13.290
27641W        W92626  25.945  11.778   2.640
27642W        W92627  36.510  40.923   1.419
27643W        W92628  40.386  11.820   0.857
27644W        W92629  36.315  19.761   9.599
27645W        W92630  29.975  36.015  11.461
27646W        W92631  30.787  24.651   2.618
27647W        W92632   9.662   2.926  14.827
27648W        W92633  37.546  43.758  14.267
27649W        W92634   2.667  35.882  14.447
27650W        W92635  24.116  35.643  14.266
27651W        W92636  12.613  38.471  13.518
27652W        W92637  21.956  28.792   4.959
27653W        W92638   2.786  26.125   0.409
27654W        W92639  27.991  13.100   4.154
27655W        W92640  30.629  41.971  13.355
27656W        W92641  14.788  42.069  11.787
27657W        W92642  43.807  42.760  12.381
27658W        W92643  42.259   0.792   1.920
27659W        W92644  41.554   8.744   3.284
27660W        W92645  22.663   3.312  11.580
27661W        W92646   9.206  38.875   4.285
27662W        W92647  37.344  26.127  12.413
27663W        W92648   4.758  13.666  12.511
27664W        W92649  36.852  23.327   0.401
27665W        W92650  35.412  43.171   0.900
27666W        W92651  28.056  42.436  13.057
27667W        W92652   7.619  41.578  13.585
27668W        W92653  36.254  40.007  10.788
27669W        W92654  43.852   4.606   4.891
27670W        W92655  39.128  13.728   4.650
27671W        W92656  34.622   9.270  10.429
27672W        W92657   0.838  24.207  11.575
27673W        W92658  41.451  43.966   4.129
27674W        W92659  19.802  42.484   2.711
27675W        W92660   5.836   0.780   0.666
27676W        W92661  24.455  13.187   3.289
27677W        W92662  43.388  10.146   2.131
27678W        W92663  27.525  20.972   4.207
27679W        W92664  27.088  14.182  11.973
27680W        W92665  31.476  23.970  14.300
27681W        W92666  12.546  42.537   4.119
27682W        W92667  23.674  10.084  14.059
27683W        W92668  11.280  10.056  14.432
27684W        W92669  31.595  20.143   3.633
27685W        W92670  24.221  41.752  10.708
27686W        W92671  42.065  38.579   1.626
27687W        W92672  42.112  28.620  11.957
27688W        W92673  10.240  44.301  11.402
27689W        W92674  40.392  30.755   0.044
27690W        W92675  24.098  34.266  11.703
27691W        W92676  22.301  44.230  13.795
27692W        W92677  42.557  13.811   3.283
27693W        W92678  30.217   6.975   1.327
27694W        W92679   5.741  30.740   2.119
27695W        W92680   0.326  32.670   2.331
27696W        W92681  33.867  34.802   4.583
27697W        W92682  23.164  41.017   3.701
27698W        W92683  39.481  23.160   0.956
27699W        W92684  44.440  11.673   0.259
27700W        W92685   0.360   2.685  11.223
27701W        W92686  27.479  42.986  12.056
27702W        W92687   9.877   6.385   1.871
27703W        W92688  40.832  30.177   4.199
27704W        W92689  38.615  12.489   2.546
27705W        W92690  40.365  44.275  11.875
27706W        W92691   3.316   6.962  13.491
27707W        W92692  20.075  33.737  13.452
27708W        W92693  41.282   0.995   5.070
27709W        W92694  12.214  40.476  13.976
27710W        W92695  44.494  41.723  14.504
27711W        W92696  18.751  35.005  11.434
27712W        W92697  26.232  22.172   1.404
27713W        W92698  15.682   7.781  14.911
27714W        W92699   6.848  10.379  14.332
27715W        W92700   8.330   0.314  13.330
27716W        W92701  44.348  39.393  10.409
27717W        W92702   9.913   1.551  13.380
27718W        W92703   9.769   7.246  14.463
27719W        W92704  16.616   9.582  13.280
27720W        W92705  39.266  17.757  12.595
27721W        W92706  13.876  44.537  10.899
27722W        W92707  11.684  44.975   2.250
27723W        W92708  22.217  33.542  13.359
27724W        W92709  22.250  39.339   4.990
27725W        W92710  18.252   2.794   1.379
27726W        W92711  17.372   9.950   4.814
27727W        W92712   5.775   8.990   4.727
27728W        W92713  33.449  43.091  11.173
27729W        W92714  25.637   5.853  12.100
27730W        W92715  18.578   5.172  11.616
27731W        W92716   5.327  22.478   3.192
27732W        W92717  34.023  37.605   0.443
27733W        W92718  37.499  26.707  14.261
27734W        W92719   1.674  23.704  12.023
27735W        W92720   1.412   8.035  13.372
27736W        W92721  12.841  24.543   3.692
27737W        W92722  31.619  14.602   0.193
27738W        W92723  39.360   3.541  14.975
27739W        W92724  30.107  10.568   2.163
27740W        W92725  32.069  35.631  10.668
27741W        W92726  26.933   2.740  12.434
27742W        W92727  30.215  10.252   4.628
27743W        W92728   6.481  41.066  11.585
27744W        W92729  17.987  10.729   0.895
27745W        W92730   7.166  44.039   1.737
27746W        W92731  43.208  11.382   0.626
27747W        W92732  10.632   7.899  14.701
27748W        W92733  15.047  30.517  14.763
27749W        W92734  10.677  36.147  13.804
27750W        W92735  27.785   8.148  10.669
27751W        W92736  22.962  15.146  13.540
27752W        W92737  14.699  26.700   3.650
27753W        W92738  33.831   0.147   1.275
27754W        W92739   8.519  24.950   3.770
27755W        W92740  20.249   9.559  11.268
27756W        W92741  37.280  24.000  13.794
27757W        W92742  17.094  19.224   9.642
27758W        W92743  22.937  40.039  13.001
27759W        W92744  24.793  43.956  13.085
27760W        W92745  21.654  33.426  12.140
27761W        W92746   0.162  13.596   2.731
27762W        W92747  26.361  24.082  12.248
27763W        W92748   4.755   8.608   4.996
27764W        W92749  19.128  23.555   2.676
27765W        W92750  37.946   5.461  14.016
27766W        W92751  38.036  40.747  11.392
27767W        W92752  19.902  37.356   4.753
27768W        W92753  30.525   6.102  12.598
27769W        W92754   0.147   1.492   1.252
27770W        W92755   0.474   6.831   3.742
27771W        W92756  31.094  33.498   1.193
27772W        W92757  19.133  12.560  14.029
27773W        W92758  12.350  16.309  13.789
27774W        W92759  11.596  10.024   4.957
27775W        W92760  41.955  15.071  12.884
27776W        W92761  29.963  30.697   0.386
27777W        W92762  14.627   1.376   1.218
27778W        W92763   7.634  13.023  10.316
27779W        W92764  15.203  13.378   4.411
27780W        W92765  27.403  37.133   0.899
27781W        W92766  31.927  14.691  13.733
27782W        W92767   0.271  34.103  12.716
27783W        W92768  30.484  15.171   3.834
27784W        W92769  37.090  28.504   3.627
27785W        W92770   4.145  42.289  11.186
27786W        W92771  25.202  14.580   2.223
27787W        W92772  35.928   9.998  12.588
27788W        W92773  38.326  43.941  10.956
27789W        W92774  18.226   7.701   1.738
27790W        W92775  43.035  42.344  14.949
27791W        W92776  37.335  22.578  10.791
27792W        W92777   1.410   2.489   2.103
27793W        W92778  10.494  27.188   0.761
27794W        W92779  31.988  13.348   0.017
27795W        W92780  19.727  14.260   3.869
27796W        W92781  38.595  25.734  10.006
27797W        W92782  17.721  43.728   4.169
27798W        W92783  26.888  34.963  10.783
27799W        W92784  35.701  16.099   1.340
27800W        W92785  38.876  14.046   4.286
27801W        W92786  26.007  21.316   1.860
27802W        W92787   7.395  25.404  14.387
27803W        W92788  27.955  44.418   1.492
27804W        W92789  11.831  36.842  12.485
27805W        W92790  11.073   6.306  14.856
27806W        W92791   2.167  32.575   4.407
27807W        W92792  35.752  20.757  13.454
27808W        W92793  33.350  18.308  11.948
27809W        W92794  13.760   0.487  13.412
27810W        W92795   8.919  18.247  12.583
27811W        W92796  30.408   4.840   4.568
27812W        W92797  14.069  40.483  12.678
27813W        W92798  17.329   0.937  12.897
27814W        W92799  31.401  41.974  11.001
27815W        W92800  41.261  35.343  12.118
27816W        W92801  24.277  14.132   3.693
27817W        W92802  10.045  24.148  12.367
27818W        W92803   5.404  44.770  11.130
27819W        W92804   3.257  19.539  13.970
27820W        W92805  20.651   4.832   2.761
27821W        W92806  18.011  29.921  12.121
27822W        W92807  31.338  16.846  10.618
27823W        W92808   5.235   8.633  12.371
27824W        W92809  22.037  43.150  11.708
27825W        W92810  32.391   7.133  14.680
27826W        W92811  35.119  21.422   4.445
27827W        W92812  44.081  11.393  12.995
27828W        W92813  31.585  19.269   1.309
27829W        W92814  32.012  24.051   4.301
27830W        W92815  42.222   6.094  12.182
27831W        W92816  21.310  44.879   1.322
27832W        W92817  13.107  37.994  14.165
27833W        W92818   6.869   2.879  13.387
27834W        W92819  26.699  17.935   0.020
27835W        W92820  26.719  35.071   4.557
27836W        W92821  17.088   3.405   1.619
27837W        W92822  32.514  39.247   3.888
27838W        W92823  10.391  30.405  12.720
27839W        W92824  27.612   1.946   0.298
27840W        W92825  42.433  39.243  12.905
27841W        W92826  38.408   7.026   2.757
27842W        W92827  28.921  40.435   0.186
27843W        W92828  38.248  34.181  12.515
27844W        W92829  16.936  25.555  14.350
27845W        W92830  18.044  28.920  14.058
27846W        W92831   7.794  36.140   3.658
27847W        W92832  25.458  30.692   0.050
27848W        W92833  36.111   3.657   3.728
27849W        W92834  43.614   7.507  14.481
27850W        W92835  30.617  18.540   0.721
27851W        W92836  10.724  32.592  10.446
27852W        W92837  33.097  36.977  13.457
27853W        W92838  41.128  18.597   2.362
27854W        W92839  20.690  28.078  10.931
27855W        W92840  43.218   3.651  13.377
27856W        W92841  14.248  43.772   2.313
27857W        W92842  31.566   8.132   0.759
27858W        W92843  21.774  41.318   0.394
27859W        W92844  17.045   9.974  14.581
27860W        W92845  10.417  17.499  12.552
27861W        W92846  13.144  35.056  11.061
27862W        W92847  38.685  25.423   0.482
27863W        W92848  42.500  40.772  13.100
27864W        W92849  24.922   2.853  10.499
27865W        W92850   3.108   5.676   2.795
27866W        W92851  34.633  42.069   0.929
27867W        W92852  42.944  17.602   2.462
27868W        W92853   1.324  14.086   3.820
27869W        W92854  33.021  27.152  10.778
27870W        W92855   9.138  13.558   1.691
27871W        W92856  17.793  34.230  14.300
27872W        W92857  43.769  17.194   1.686
27873W        W92858  23.970  26.217   4.628
27874W        W92859  27.046  35.810   1.849
27875W        W92860   2.541  41.047   4.980
27876W        W92861   5.204   0.089  12.427
27877W        W92862  44.901  35.870  13.334
27878W        W92863   5.759  34.527   1.962
27879W        W92864  34.333  26.176  12.475
27880W        W92865  13.243  12.413   0.254
27881W        W92866   7.298   7.107  11.490
27882W        W92867   3.931  43.193   3.362
27883W        W92868   1.544  31.320   4.933
27884W        W92869  18.188  39.924   0.327
27885W        W92870  43.774  16.137   0.985
27886W        W92871  29.103  20.691   4.841
27887W        W92872  26.472  26.642  11.983
27888W        W92873  10.031  11.326  13.455
27889W        W92874   1.229  22.109   2.418
27890W        W92875  13.855  36.062   1.806
27891W        W92876   7.092  42.046   1.187
27892W        W92877  16.999  19.193   1.187
27893W        W92878  40.936   4.850   0.299
27894W        W92879  27.060  23.437   4.122
27895W        W92880  29.909  36.662  13.335
27896W        W92881  32.936  23.762  13.236
27897W        W92882  40.856  39.177  11.564
27898W        W92883  18.130  31.862   0.532
27899W        W92884   7.196   3.394   3.183
27900W        W92885  30.178  42.144   1.233
27901W        W92886   7.450  21.967  12.046
27902W        W92887  31.951  10.361   1.863
27903W        W92888  39.697  27.563   1.455
27904W        W92889  43.935   7.720   2.416
27905W        W92890   8.659  29.949   4.600
27906W        W92891   0.699   0.377  14.354
27907W        W92892  35.633  17.666   3.636
27908W        W92893  17.285  15.732   2.345
27909W        W92894  30.644  34.212  11.102
27910W        W92895  39.275  37.319   2.190
27911W        W92896  38.578  23.376  12.811
27912W        W92897  16.519  20.627   4.403
27913W        W92898  38.436  31.599   4.408
27914W        W92899  24.038   8.494  11.153
27915W        W92900  28.599  30.481   0.377
27916W        W92901  29.374  11.647   2.048
27917W        W92902  34.258  39.018   4.121
27918W        W92903  32.047  10.959   1.901
27919W        W92904  39.150   9.911  10.415
27920W        W92905  41.781   6.846   2.214
27921W        W92906  15.659  42.691  14.898
27922W        W92907  33.324  43.469  12.179
27923W        W92908  19.945  22.548  13.503
27924W        W92909  31.718  15.708  14.383
27925W        W92910  11.189  37.491  10.689
27926W        W92911   5.823  28.290  14.232
27927W        W92912  24.622  34.132   0.704
27928W        W92913  42.791   1.213  12.959
27929W        W92914  24.021  15.139   2.719
27930W        W92915  37.931  35.890   4.286
27931W        W92916   8.868   8.457  11.545
27932W        W92917  11.395   7.919  14.038
27933W        W92918  37.399  29.542  11.035
27934W        W92919  39.026   3.467   0.453
27935W        W92920  25.636   7.594   3.645
27936W        W92921  34.998  25.275   4.202
27937W        W92922  28.724   0.690   4.186
27938W        W92923  23.182  28.316  14.028
27939W        W92924  31.591   9.330   2.173
27940W        W92925  17.534  38.568  11.930
27941W        W92926  27.070  12.663  14.038
27942W        W92927  27.127   6.625  10.493
27943W        W92928   7.274  44.242  12.899
27944W        W92929  43.927  33.937  12.772
27945W        W92930  10.261   8.052  14.354
27946W        W92931  29.080  32.439  11.210
27947W        W92932  16.810   2.229  14.975
27948W        W92933  36.431  34.270  12.487
27949W        W92934  37.614   4.457   0.958
27950W        W92935  21.164  22.888   4.086
27951W        W92936  38.384  18.174  11.985
27952W        W92937  19.476  44.363   4.098
27953W        W92938   7.945   3.572   2.599
27954W        W92939   0.999  32.967   2.754
27955W        W92940  36.870  23.253   1.713
27956W        W92941   8.424   5.828   0.454
27957W        W92942  10.846   3.547   0.824
27958W        W92943  28.986  38.406  13.934
27959W        W92944  17.151  38.393  14.821
27960W        W92945  29.470  29.620   4.213
27961W        W92946   6.520  13.717  14.792
27962W        W92947   4.263  39.091  14.382
27963W        W92948  25.234  37.412   1.855
27964W        W92949  19.265  30.437   3.650
27965W        W92950  29.502  15.633   3.739
27966W        W92951  10.398   4.700   1.417
27967W        W92952  29.132  11.332   3.761
27968W        W92953  23.153  28.152   4.343
27969W        W92954  41.426  11.311   3.056
27970W        W92955   4.558  40.426  14.002
27971W        W92956  22.951  11.997   3.212
27972W        W92957  44.691  37.709  12.432
27973W        W92958  34.576  33.679   2.098
27974W        W92959  18.145  43.995  13.545
27975W        W92960   4.953  20.671  11.521
27976W        W92961  25.486  38.638   1.860
27977W        W92962  24.906   7.590  11.235
27978W        W92963  26.525  15.573  10.615
27979W        W92964  29.155  17.655   1.100
27980W        W92965  37.154  30.085  14.290
27981W        W92966  31.272  12.898   1.262
27982W        W92967  21.509   7.215  14.762
27983W        W92968  10.929   1.103  10.673
27984W        W92969   7.961  13.356   1.252
27985W        W92970  20.124  11.894   2.347
27986W        W92971  33.350  12.151  12.283
27987W        W92972   4.840  13.287   2.149
27988W        W92973  44.309  21.065   2.255
27989W        W92974  26.091   3.329   1.214
27990W        W92975  17.594  18.628  14.976
27991W        W92976  14.483  37.442  12.690
27992W        W92977  29.325  18.358   3.869
27993W        W92978   8.959  43.666   0.195
27994W        W92979  18.234  15.042   2.702
27995W        W92980   9.708  32.711   0.455
27996W        W92981   2.408   8.632   4.092
27997W        W92982  29.940  13.577  14.903
27998W        W92983  36.186   9.643   2.252
27999W        W92984   7.397  25.152   0.554
28000W        W92985   4.482  24.094  12.092
28001W        W92986  40.549  10.620   2.321
28002W        W92987  12.831  39.408   4.281
28003W        W92988  39.949  21.599   4.904
28004W        W92989  18.701   2.874  11.822
28005W        W92990  42.783  12.180  11.812
28006W        W92991  22.180  14.282  12.800
28007W        W92992   9.732  32.177  13.422
28008W        W92993  30.434   9.679   2.026
28009W        W92994   5.082  33.476   1.182
28010W        W92995   4.210   8.004  14.444
28011W        W92996   6.103  11.895  14.457
28012W        W92997  18.004   1.912   1.846
28013W        W92998   5.326   6.143   0.793
28014W        W92999   7.505  30.985   2.387
28015W        W93000  21.709  31.618   1.906
28016W        W93001  44.944   6.195   3.226
28017W        W93002   1.128   6.485  13.936
28018W        W93003  34.187  26.688   0.825
28019W        W93004  19.124  32.586   1.386
28020W        W93005   3.710   0.079   4.302
28021W        W93006   1.036   0.233  12.536
28022W        W93007  15.575  44.931   3.307
28023W        W93008  40.338   1.290   2.764
28024W        W93009  25.208  18.544   1.251
28025W        W93010  35.974   2.162  14.123
28026W        W93011  30.708   2.277  10.784
28027W        W93012  23.642  26.152   4.195
28028W        W93013  32.949  40.830   1.667
28029W        W93014  40.065   9.872   4.783
28030W        W93015  15.370  20.101  11.475
28031W        W93016   3.131  28.432   2.571
28032W        W93017  17.847  23.979   0.986
28033W        W93018  34.497   2.906   3.341
28034W        W93019  43.289  42.370   2.804
28035W        W93020  24.690  32.981  11.635
28036W        W93021  25.410   5.949   4.592
28037W        W93022   5.394   8.139  12.555
28038W        W93023  40.072  24.127  12.729
28039W        W93024  40.097  17.767   4.945
28040W        W93025  11.656  18.538  10.187
28041W        W93026  15.099  26.424  11.532
28042W        W93027  37.619  44.739   0.689
28043W        W93028  22.850  34.186   3.772
28044W        W93029  24.611  12.227   4.906
28045W        W93030   3.468  38.677   3.629
28046W        W93031  16.280  37.320  11.467
28047W        W93032  15.526  43.318  12.454
28048W        W93033  40.614  10.372   4.102
28049W        W93034   0.018   0.867  14.691
28050W        W93035  33.558  13.486   0.650
28051W        W93036  19.284  20.529   3.323
28052W        W93037  13.442  33.886  11.136
28053W        W93038  32.907   6.483  11.634
28054W        W93039  20.401  20.278  11.422
28055W        W93040  12.648  37.892   1.910
28056W        W93041  39.497   0.504   4.146
28057W        W93042  43.363  20.597  13.074
28058W        W93043  24.406   1.777   4.967
28059W        W93044  13.077   0.482   2.273
28060W        W93045  25.961  36.928   0.750
28061W        W93046   2.641  32.984  11.536
28062W        W93047  14.514  31.091   5.223
28063W        W93048  20.054  27.256  11.843
28064W        W93049  34.172  31.485   2.383
28065W        W93050  42.123  22.769  14.838
28066W        W93051  11.097  22.984   1.285
28067W        W93052  35.471  31.035   1.310
28068W        W93053  27.627  27.155   3.280
28069W        W93054  18.030  43.813   1.174
28070W        W93055   8.145  27.097  10.963
28071W        W93056  11.673   1.028   2.244
28072W        W93057  32.624   4.363  14.057
28073W        W93058  37.455  23.286  10.386
28074W        W93059  28.056  42.258   1.518
28075W        W93060  15.311  30.553   2.085
28076W        W93061   0.014  41.814   3.703
28077W        W93062  41.983  34.541   2.407
28078W        W93063  36.273  26.555   5.301
28079W        W93064  35.908  42.351  14.040
28080W        W93065  10.824   6.606   4.126
28081W        W93066  13.767  19.645   0.923
28082W        W93067  12.857  41.094  13.365
28083W        W93068  42.061  31.942  11.962
28084W        W93069  12.758   2.865  14.401
28085W        W93070  29.711  23.438  12.018
28086W        W93071   5.097  43.200   1.940
28087W        W93072  32.905  29.228   1.271
28088W        W93073   5.285  10.589   0.391
28089W        W93074  29.992  29.998  10.359
28090W        W93075   8.216  34.811  12.454
28091W        W93076  35.757  28.503   2.759
28092W        W93077   2.685  41.547   0.246
28093W        W93078  15.053  34.298   1.223
28094W        W93079   5.275  15.727   3.878
28095W        W93080  40.053  26.680   1.192
28096W        W93081  27.348  43.848   3.433
28097W        W93082  26.987  35.444   5.316
28098W        W93083  31.035   0.746  14.773
28099W        W93084  12.234   3.487   2.152
28100W        W93085   2.507  44.535  12.030
28101W        W93086  35.106  34.602  12.314
28102W        W93087  39.137  37.656   0.344
28103W        W93088   0.039   7.005   0.282
28104W        W93089  22.652   2.354  14.306
28105W        W93090  17.497   7.801  13.787
28106W        W93091  31.761  37.363  13.495
28107W        W93092  36.186  32.273   4.138
28108W        W93093  15.134  21.831   2.548
28109W        W93094   8.213  31.436   4.250
28110W        W93095  31.698  20.245   2.263
28111W        W93096  24.172  44.908  11.084
28112W        W93097  28.499   0.948   3.025
28113W        W93098  18.780  24.929   4.008
28114W        W93099  42.680  27.635   0.340
28115W        W93100  41.221   2.268   1.346
28116W        W93101  21.817   2.977  12.705
28117W        W93102  32.023  34.016  13.162
28118W        W93103  38.443  14.436  12.652
28119W        W93104  38.608  12.169   4.685
28120W        W93105  10.632  35.384   2.201
28121W        W93106  29.415  11.397  14.000
28122W        W93107   1.928  20.209   3.646
28123W        W93108  12.945  25.987  12.481
28124W        W93109   5.166  40.565   1.401
28125W        W93110  21.185  24.729  13.037
28126W        W93111  41.832  40.904  13.525
28127W        W93112  28.514   4.214  12.713
28128W        W93113  30.900  16.092  14.918
28129W        W93114   4.244  28.313  13.475
28130W        W93115  10.058  40.936   4.801
28131W        W93116   7.293  18.261   4.145
28132W        W93117  39.279  15.767   3.655
28133W        W93118  18.577  28.705  12.373
28134W        W93119   9.586  10.327   2.212
28135W        W93120   5.692   9.077  14.989
28136W        W93121  28.117  29.032   0.994
28137W        W93122  29.863   4.834  11.567
28138W        W93123  13.165  23.719   5.061
28139W        W93124  11.413  15.767   0.845
28140W        W93125  37.838  24.564  14.060
28141W        W93126  14.560  20.404  11.098
28142W        W93127  30.133  25.379  13.354
28143W        W93128  41.387   0.021  14.310
28144W        W93129  15.546  10.753   2.648
28145W        W93130  35.589  28.719   1.413
28146W        W93131  14.731  25.582  11.485
28147W        W93132  19.245  35.921   4.083
28148W        W93133  25.168  39.725   3.258
28149W        W93134   6.126  26.583  10.131
28150W        W93135   9.638  31.729   3.415
28151W        W93136  13.705  43.205   4.053
28152W        W93137  20.187  22.738  12.967
28153W        W93138   1.989  10.663  14.363
28154W        W93139   1.313  25.964   4.562
28155W        W93140   4.873   0.315  13.037
28156W        W93141  44.600  44.731   4.788
28157W        W93142  38.153  39.524   4.515
28158W        W93143  17.037  32.046   4.228
28159W        W93144  26.799  44.562   1.786
28160W        W93145  44.963   9.393  13.452
28161W        W93146  40.314  21.488  13.321
28162W        W93147  36.933  42.822  11.192
28163W        W93148  41.109  25.545   0.499
28164W        W93149  15.595  11.089  14.743
28165W        W93150  15.687   6.529  14.290
28166W        W93151  19.682  34.985   3.169
28167W        W93152  15.087   5.664   2.119
28168W        W93153   3.330  19.039   1.215
28169W        W93154   7.710  23.017  11.649
28170W        W93155  40.468   8.670   4.567
28171W        W93156  27.051  44.415   5.884
28172W        W93157  29.016  34.526   3.899
28173W        W93158   4.430  18.534   3.590
28174W        W93159  14.891   6.626   2.633
28175W        W93160  32.308  22.757  11.538
28176W        W93161   1.540  21.523   1.358
28177W        W93162  26.143   4.782   1.413
28178W        W93163  17.713  34.227   0.291
28179W        W93164  23.544  22.995   2.444
28180W        W93165  25.253  36.423  14.046
28181W        W93166  14.618   1.401   2.589
28182W        W93167  11.977   7.072   4.573
28183W        W93168  29.004   8.286   4.890
28184W        W93169  34.021  32.377  13.541
28185W        W93170   2.631   7.303   3.687
28186W        W93171   6.793  10.854   0.501
28187W        W93172  12.966  25.211  10.349
28188W        W93173  16.748  38.567   3.718
28189W        W93174  11.817  32.873  14.459
28190W        W93175  13.867  34.603  13.404
28191W        W93176  17.586  42.031   0.061
28192W        W93177  24.054  28.466  12.593
28193W        W93178  34.220  36.429   2.157
28194W        W93179  27.959  32.062  14.542
28195W        W93180  21.556  23.980   3.682
28196W        W93181  12.788  35.389  12.085
28197W        W93182   3.989  11.692  10.857
28198W        W93183  11.649  32.406   4.128
28199W        W93184   6.053  32.906   4.656
28200W        W93185  26.621  31.162  10.622
28201W        W93186  28.647  37.979  12.846
28202W        W93187  40.590  29.688   3.352
28203W        W93188  23.857  22.734   0.949
28204W        W93189   9.084  33.521  11.188
28205W        W93190   6.828   7.766   3.191
28206W        W93191  19.795   5.737  14.846
28207W        W93192   4.906  12.902  11.558
28208W        W93193   6.858   1.391   2.171
28209W        W93194  44.038  29.194   0.070
28210W        W93195  18.814   9.149   1.771
28211W        W93196  18.092  13.849   0.853
28212W        W93197   5.844  36.017   0.265
28213W        W93198  11.160  34.493  10.757
28214W        W93199  15.616   4.088   2.399
28215W        W93200  43.828  37.894   2.614
28216W        W93201  43.563  36.462   4.012
28217W        W93202  24.498  24.174  11.551
28218W        W93203  27.637  29.870  11.809
28219W        W93204  34.538  30.710  13.879
28220W        W93205   2.949  12.306  14.476
28221W        W93206   3.182   0.359  10.611
28222W        W93207   0.313   6.648  12.027
28223W        W93208  10.364   1.846  14.293
28224W        W93209  40.267  15.475  12.205
28225W        W93210  17.905  20.506  14.865
28226W        W93211   3.402  39.552   1.684
28227W        W93212  28.025  28.364   3.742
28228W        W93213  12.147  26.087  14.691
28229W        W93214  29.849  14.869  12.493
28230W        W93215  18.241  22.436   3.322
28231W        W93216   6.311  18.571  10.975
28232W        W93217  12.029  20.277  12.452
28233W        W93218  40.605  27.258   5.256
28234W        W93219  15.857  27.010  13.799
28235W        W93220   8.242   6.127  13.287
28236W        W93221  28.419   2.627  12.425
28237W        W93222   4.693  23.599  12.119
28238W        W93223  44.617  10.347  12.017
28239W        W93224  38.417  43.208   3.096
28240W        W93225   8.124   0.876  13.324
28241W        W93226  12.336  31.533   4.554
28242W        W93227  10.867   1.249  14.269
28243W        W93228  31.074   2.462   3.649
28244W        W93229   2.213  41.258   1.402
28245W        W93230  30.070  39.068  11.123
28246W        W93231  21.467  21.568   3.781
28247W        W93232  19.574  34.550   2.829
28248W        W93233  29.378  32.026  14.424
28249W        W93234   9.350  18.493  11.147
28250W        W93235  20.199  24.908   3.232
28251W        W93236  37.805  33.551   3.814
28252W        W93237  37.481  21.209   1.335
28253W        W93238  36.870  16.129   4.366
28254W        W93239  23.457  27.746  12.140
28255W        W93240  35.261  15.907  13.024
28256W        W93241   4.422   7.043   1.406
28257W        W93242   2.741  10.800   2.761
28258W        W93243  35.813  29.424   2.274
28259W        W93244  16.598  34.268   0.287
28260W        W93245  11.790   4.322  13.059
28261W        W93246   2.436  25.642  14.088
28262W        W93247  41.963  43.436  11.396
28263W        W93248  41.302   6.177  13.973
28264W        W93249  41.909  12.843  14.813
28265W        W93250  15.073  25.896   5.465
28266W        W93251  34.558  39.839  11.040
28267W        W93252  30.940  23.308   4.472
28268W        W93253   9.787  12.412  12.409
28269W        W93254   5.651  28.121  13.408
28270W        W93255   6.424  36.101  12.093
28271W        W93256   2.258  19.255   0.993
28272W        W93257   8.204  14.528   1.793
28273W        W93258   5.625  39.441   3.392
28274W        W93259   9.172  26.581   2.660
28275W        W93260  24.016  12.367  12.368
28276W        W93261  24.639  40.353  11.010
28277W        W93262  24.732  15.349  12.232
28278W        W93263  15.194  20.542  14.320
28279W        W93264  32.788  44.684  14.129
28280W        W93265   4.869  15.777  10.644
28281W        W93266  43.197  28.918   2.652
28282W        W93267  24.710  18.682   1.281
28283W        W93268  18.535  35.034  14.277
28284W        W93269  39.320  33.925   0.779
28285W        W93270  22.429  26.151   2.325
28286W        W93271  22.966  32.670   5.003
28287W        W93272  44.333   4.726   4.601
28288W        W93273   8.342   8.275  14.823
28289W        W93274   8.919  13.776   0.337
28290W        W93275  25.872  31.105  11.660
28291W        W93276  42.580  25.805   2.392
28292W        W93277  38.884  15.175   2.603
28293W        W93278  35.942  41.803  10.612
28294W        W93279  36.356  19.143  11.192
28295W        W93280  13.778  11.914   0.998
28296W        W93281  29.191  43.809  12.669
28297W        W93282   6.298  11.312   2.195
28298W        W93283  34.470  20.636  11.164
28299W        W93284  38.294  19.625   2.290
28300W        W93285  33.520  21.052   2.272
28301W        W93286  22.677   7.063  14.251
28302W        W93287  38.401  20.264  14.488
28303W        W93288  40.335  28.877   3.062
28304W        W93289  20.564  18.113   0.708
28305W        W93290  18.346  29.115  13.582
28306W        W93291   1.146   2.656  13.944
28307W        W93292  31.857  21.255   4.140
28308W        W93293  37.840  24.520  13.168
28309W        W93294  32.480  11.980  11.562
28310W        W93295  34.504  10.119   2.780
28311W        W93296  34.880   1.944   1.148
28312W        W93297  11.210  17.610  12.007
28313W        W93298  14.366   0.504   0.769
28314W        W93299   2.153   6.318  12.899
28315W        W93300  31.994   0.041  11.745
28316W        W93301   2.229  10.322  12.068
28317W        W93302  10.356   5.205  10.509
28318W        W93303  40.957   2.060  13.972
28319W        W93304  24.031  25.552  12.558
28320W        W93305   3.645  25.916  11.212
28321W        W93306  30.439  21.621   4.410
28322W        W93307  20.699   3.709  12.579
28323W        W93308  23.849  33.105  10.639
28324W        W93309  19.590  30.658   0.637
28325W        W93310  15.090   5.762  13.035
28326W        W93311  29.673  44.887   0.454
28327W        W93312  21.870  24.266   3.236
28328W        W93313  19.263  41.048   2.906
28329W        W93314   9.377   6.362   3.163
28330W        W93315  10.598  44.631  11.242
28331W        W93316  38.588  34.809   2.665
28332W        W93317  20.571  41.842   2.524
28333W        W93318  27.226  27.742  13.171
28334W        W93319  16.200  44.034  12.539
28335W        W93320  11.692  35.129   4.031
28336W        W93321   0.419  28.701   1.737
28337W        W93322  27.042  21.678   3.615
28338W        W93323  14.698  41.225  11.208
28339W        W93324  15.666   7.293   0.767
28340W        W93325  31.349  39.360  12.410
28341W        W93326  16.727  38.876   4.139
28342W        W93327   6.384  30.741  14.492
28343W        W93328   7.404   6.464  12.563
28344W        W93329  11.784  21.217  12.357
28345W        W93330  13.377  10.992   0.648
28346W        W93331  10.357   0.322   1.889
28347W        W93332  24.062   1.550   9.773
28348W        W93333  12.661  12.903   2.318
28349W        W93334  11.461   2.734  11.510
28350W        W93335  35.235  27.190  14.261
28351W        W93336  29.931   6.291   3.557
28352W        W93337  42.958  17.888  13.507
28353W        W93338  35.219  28.219   3.669
28354W        W93339   3.768  37.399  11.231
28355W        W93340  21.221  11.520   4.375
28356W        W93341  28.987  28.935   4.558
28357W        W93342   3.601  44.448  10.911
28358W        W93343  16.569  36.170  13.930
28359W        W93344   4.311  15.901  13.037
28360W        W93345  14.286  14.396   0.865
28361W        W93346  16.203  19.814  13.417
28362W        W93347  30.912   0.239  14.569
28363W        W93348  32.176   8.847  12.369
28364W        W93349  26.522  34.471   0.779
28365W        W93350   8.823  29.925   2.683
28366W        W93351  23.988  23.468  10.757
28367W        W93352  43.849  27.566   1.685
28368W        W93353  37.541  13.062  14.269
28369W        W93354  37.283  19.535   0.426
28370W        W93355  35.818  16.840   2.267
28371W        W93356   0.506  26.271   1.937
28372W        W93357  19.313  39.002  12.850
28373W        W93358  16.863  38.912  11.482
28374W        W93359  19.559   2.254   1.901
28375W        W93360  32.452  24.548   0.742
28376W        W93361   5.933  17.780   0.877
28377W        W93362  42.922  24.097  11.208
28378W        W93363  10.890  17.259  14.220
28379W        W93364  34.679  22.011  12.301
28380W        W93365  39.503  37.567  13.863
28381W        W93366  26.420  29.640   4.258
28382W        W93367  37.540  43.074   0.406
28383W        W93368  43.006  25.949   0.495
28384W        W93369  28.417  12.792  10.605
28385W        W93370  10.742  11.785  11.394
28386W        W93371  17.099  25.393  13.442
28387W        W93372  21.778  25.910   3.679
28388W        W93373  30.532  26.939  12.251
28389W        W93374  12.346  33.478   0.016
28390W        W93375  18.333  24.998  13.388
28391W        W93376  16.393  39.478   3.057
28392W        W93377  15.634  11.011   0.992
28393W        W93378  27.603  37.415  10.591
28394W        W93379   7.271   1.462  12.680
28395W        W93380  22.633   2.790  11.096
28396W        W93381   6.552  23.568  14.397
28397W        W93382  11.212  23.945   3.300
28398W        W93383  31.536   4.397  14.546
28399W        W93384  15.834  17.345   4.992
28400W        W93385   3.524  37.393   0.756
28401W        W93386  12.060  19.460   2.447
28402W        W93387  19.524  18.333   4.469
28403W        W93388  17.606  44.281   2.057
28404W        W93389  32.546  20.489  13.904
28405W        W93390   0.886   2.403  14.928
28406W        W93391  19.733  28.874   2.685
28407W        W93392  15.811  35.979  13.619
28408W        W93393  41.826  40.404   2.737
28409W        W93394  36.596   5.868  13.068
28410W        W93395  15.403  43.907   3.092
28411W        W93396  39.932   6.264   3.337
28412W        W93397  17.722  37.005  13.975
28413W        W93398   8.345  42.458   1.195
28414W        W93399  39.808  31.801   0.554
28415W        W93400  42.690   9.703   1.710
28416W        W93401  13.296  43.545  12.541
28417W        W93402  38.519   1.455  14.721
28418W        W93403  36.395  40.789  13.289
28419W        W93404   1.189  18.016   4.415
28420W        W93405  14.848   9.240   0.913
28421W        W93406  44.730   5.211  11.991
28422W        W93407  36.025  14.022  12.159
28423W        W93408  37.401  43.875  11.883
28424W        W93409  12.836  12.855   0.925
28425W        W93410  40.538  33.117  10.582
28426W        W93411  13.713  19.933   4.596
28427W        W93412  30.538   5.270  10.622
28428W        W93413  40.768  15.726   3.306
28429W        W93414  25.198   2.025  14.892
28430W        W93415   1.125  42.376   1.885
28431W        W93416  27.979  38.182   3.622
28432W        W93417   2.572  25.311   5.062
28433W        W93418  21.971  12.897   2.846
28434W        W93419  25.041  13.111  12.555
28435W        W93420  40.983  23.064  10.926
28436W        W93421   0.760   9.729   2.777
28437W        W93422  25.007  25.905  12.892
28438W        W93423   3.931  28.217   3.257
28439W        W93424  30.865  33.511  10.635
28440W        W93425  44.846  14.570  12.412
28441W        W93426  19.455  28.572   5.047
28442W        W93427  44.367   1.491   4.153
28443W        W93428   1.346   6.663  12.570
28444W        W93429  29.164  23.061   3.732
28445W        W93430  15.714  42.113  14.535
28446W        W93431  24.286   8.879   0.690
28447W        W93432  32.642  36.053   4.617
28448W        W93433  20.307   3.111   1.047
28449W        W93434  20.167  23.691   4.642
28450W        W93435  13.873   2.159  11.662
28451W        W93436  32.957  42.467   2.864
28452W        W93437  34.629  25.459   0.887
28453W        W93438  37.407  22.319  14.388
28454W        W93439  18.659   2.520   1.490
28455W        W93440  20.824   8.993   5.348
28456W        W93441  25.144  38.925  11.032
28457W        W93442  10.682  29.143  13.365
28458W        W93443  35.537  31.475   2.114
28459W        W93444  41.822   5.130   2.727
28460W        W93445  42.108  14.634   5.160
28461W        W93446  44.595  17.551  13.864
28462W        W93447  30.879  27.072   4.675
28463W        W93448   2.775  29.514  14.394
28464W        W93449  20.250  19.561   3.151
28465W        W93450  16.724  33.140  13.118
28466W        W93451  16.791   3.213  13.468
28467W        W93452  30.710  44.785  14.740
28468W        W93453  34.610  15.063  10.780
28469W        W93454  14.738   8.147   1.435
28470W        W93455  27.212  21.960  13.373
28471W        W93456  25.104  39.034   2.694
28472W        W93457  32.359  25.162   4.758
28473W        W93458  27.404  11.843   4.270
28474W        W93459  11.097  27.445   3.662
28475W        W93460  21.706  41.729  11.097
28476W        W93461  26.032  29.694   2.667
28477W        W93462  25.484  41.692  10.710
28478W        W93463  21.189  37.109   0.304
28479W        W93464  23.485   4.246   2.860
28480W        W93465   8.747  33.957  13.935
28481W        W93466  19.597  14.271   0.361
28482W        W93467  29.232  14.800   1.696
28483W        W93468   2.037  11.132   3.091
28484W        W93469   0.055  32.952   2.716
28485W        W93470  36.007  27.514   3.353
28486W        W93471  17.599   9.435  10.261
28487W        W93472  21.927  40.395   2.331
28488W        W93473  13.857  16.581   2.542
28489W        W93474  40.072   2.667  12.187
28490W        W93475  14.192  33.878   0.968
28491W        W93476   7.130  43.096  12.459
28492W        W93477  36.920  17.135  12.445
28493W        W93478  35.730  32.508   3.437
28494W        W93479  30.456  30.980   3.718
28495W        W93480  23.732  25.461  10.706
28496W        W93481  30.478   4.896   4.075
28497W        W93482  30.580  19.313   3.184
28498W        W93483   1.790   5.110  13.558
28499W        W93484  39.764  30.768  11.055
28500W        W93485  36.598   2.347   1.239
28501W        W93486  10.751  13.111   4.064
28502W        W93487   5.653  24.455  11.188
28503W        W93488  32.194   7.796  11.175
28504W        W93489  33.844  20.650  13.428
28505W        W93490  43.240   2.579  11.041
28506W        W93491  12.883  18.625   1.236
28507W        W93492  24.716  28.596  13.935
28508W        W93493  25.509   6.186  11.566
28509W        W93494  30.952   9.870   0.708
28510W        W93495   1.742  40.524  11.552
28511W        W93496  14.469  27.867   1.873
28512W        W93497   2.749  22.746   4.138
28513W        W93498   9.515  27.941  11.950
28514W        W93499  40.387  34.138   0.037
28515W        W93500  16.689  19.191   0.735
28516W        W93501  20.165   3.532   9.964
28517W        W93502   5.356  20.751  12.442
28518W        W93503   4.736  38.161  11.528
28519W        W93504  16.333   9.786   3.271
28520W        W93505  34.645  12.304   3.519
28521W        W93506  19.069   0.782   1.191
28522W        W93507   4.868   9.388  11.828
28523W        W93508   5.246   4.921   4.196
28524W        W93509   5.412  25.624   4.597
28525W        W93510  14.686  39.593  13.491
28526W        W93511  24.296  24.930  11.225
28527W        W93512  19.389   9.124  12.531
28528W        W93513  22.996   3.070  14.528
28529W        W93514  26.091  29.865  13.471
28530W        W93515  43.435  14.373   1.123
28531W        W93516  31.001  10.518  14.083
28532W        W93517  14.857  18.254   1.458
28533W        W93518  19.665   8.775   4.721
28534W        W93519   7.645   8.895   1.517
28535W        W93520  36.940   8.906   3.675
28536W        W93521  18.353   1.960   3.244
28537W        W93522  24.118   4.021  11.863
28538W        W93523  31.831  29.382  13.754
28539W        W93524  22.558  26.002   4.105
28540W        W93525   1.358  17.867   0.769
28541W        W93526  25.956  22.013   4.352
28542W        W93527   1.306   5.151  14.220
28543W        W93528  18.761  18.043   4.381
28544W        W93529   6.915   5.682   0.835
28545W        W93530  11.705  24.453   3.126
28546W        W93531  32.078   6.207  13.952
28547W        W93532  41.015   2.058  13.011
28548W        W93533  39.489  23.916  11.064
28549W        W93534  41.797  24.976   2.087
28550W        W93535   1.210  15.146  14.446
28551W        W93536   5.166  20.667   0.793
28552W        W93537   6.640  17.635   4.581
28553W        W93538  39.089  15.890  14.997
28554W        W93539  16.545   2.139  12.781
28555W        W93540  30.943  35.478  14.561
28556W        W93541  19.336   6.964  11.252
28557W        W93542  30.496  11.653   2.826
28558W        W93543  11.649  43.998   1.194
28559W        W93544   1.037  11.075  13.045
28560W        W93545   9.423   8.818   4.193
28561W        W93546  20.141  34.095  11.019
28562W        W93547  28.409   9.334   2.102
28563W        W93548  42.739  34.051   2.332
28564W        W93549  29.799  11.125  12.408
28565W        W93550   1.036   0.399   0.337
28566W        W93551  23.967  27.483   4.509
28567W        W93552  33.599  44.140   3.642
28568W        W93553  43.166  13.651  13.913
28569W        W93554  13.422  42.425  14.798
28570W        W93555  36.163   1.712   3.625
28571W        W93556  25.570  42.979   0.049
28572W        W93557   7.113   6.702   2.189
28573W        W93558  43.583  26.722   0.748
28574W        W93559   6.699  39.076   2.808
28575W        W93560  29.160  18.240  14.809
28576W        W93561   2.692  11.834  14.428
28577W        W93562  15.617  27.827  14.981
28578W        W93563  43.149  27.428  10.708
28579W        W93564  33.101  28.617  13.377
28580W        W93565  37.533  34.245  14.978
28581W        W93566   2.496  29.567   3.165
28582W        W93567   0.989  24.420  12.064
28583W        W93568  32.062  33.850   1.756
28584W        W93569   2.213  44.843   0.018
28585W        W93570  26.123  21.173  12.420
28586W        W93571  27.125   6.296  11.237
28587W        W93572  18.286  26.412   4.784
28588W        W93573  21.399  10.218   2.728
28589W        W93574  10.790  40.917   2.703
28590W        W93575  29.147  39.554   1.833
28591W        W93576  32.794   3.878   2.399
28592W        W93577  17.788  41.748  14.102
28593W        W93578  24.704  23.047  10.815
28594W        W93579  23.017   0.814  10.767
28595W        W93580  10.471  21.970   3.651
28596W        W93581  11.574  31.380  13.241
28597W        W93582   8.371  22.523   1.417
28598W        W93583  14.686  42.943   0.363
28599W        W93584  34.473  30.137   2.949
28600W        W93585   9.503   7.836  13.322
28601W        W93586  16.945  29.904  14.864
28602W        W93587   5.737  38.542   2.171
28603W        W93588   9.924   7.376  10.970
28604W        W93589  34.609  17.078  10.681
28605W        W93590  14.662  12.348   0.249
28606W        W93591  38.450  35.314   1.629
28607W        W93592   6.686  16.634   0.897
28608W        W93593  34.923  33.659   0.793
28609W        W93594   1.078   4.861  12.774
28610W        W93595   4.233  44.274   2.762
28611W        W93596  19.527  13.012   2.673
28612W        W93597  37.008  12.302   4.710
28613W        W93598  23.801   2.285  13.278
28614W        W93599  22.224   1.986   4.964
28615W        W93600  28.335  40.460   3.338
28616W        W93601  24.001  32.517   1.770
28617W        W93602  30.467  38.838  14.621
28618W        W93603   1.872  10.264   0.561
28619W        W93604   2.206  17.971  11.801
28620W        W93605  32.971  16.335  13.848
28621W        W93606  18.988  22.390  13.358
28622W        W93607  19.560  44.955  10.951
28623W        W93608   9.339   0.734  14.763
28624W        W93609  43.560  41.876  11.959
28625W        W93610  16.713  41.009   4.755
28626W        W93611  24.583  37.008   2.023
28627W        W93612   3.857  44.492  14.923
28628W        W93613  25.768   6.914   1.789
28629W        W93614  41.202  12.862   0.836
28630W        W93615   7.209  31.013   1.578
28631W        W93616   2.639  15.966   4.264
28632W        W93617  33.128  15.029   0.301
28633W        W93618  42.673  14.627  12.937
28634W        W93619  20.252  12.292   1.902
28635W        W93620  38.941  40.809   2.733
28636W        W93621  30.097   4.465   4.707
28637W        W93622  23.142  36.249   4.736
28638W        W93623  36.127  13.238   2.390
28639W        W93624  40.635  35.793   2.415
28640W        W93625   6.395  34.294  12.485
28641W        W93626  22.201  24.606  10.273
28642W        W93627  21.714  32.048  12.457
28643W        W93628  21.299  18.990  14.905
28644W        W93629  30.096  15.338  10.844
28645W        W93630   2.462  34.198   3.268
28646W        W93631  26.347   0.623   5.106
28647W        W93632  15.600  17.527  13.913
28648W        W93633  17.852  33.846   3.135
28649W        W93634  34.342   8.524   2.759
28650W        W93635  34.692  11.686  11.997
28651W        W93636  40.034  37.063  14.373
28652W        W93637  24.591   9.668  14.809
28653W        W93638  18.674  42.373   1.433
28654W        W93639  28.532   9.176  14.440
28655W        W93640   8.722  30.137   0.362
28656W        W93641  14.237   5.667   1.714
28657W        W93642  38.895   3.693  10.362
28658W        W93643   5.361  15.111  11.989
28659W        W93644   1.329   4.071   0.955
28660W        W93645   6.589   9.894  12.027
28661W        W93646   2.227  38.792  14.278
28662W        W93647  15.233  25.188  13.325
28663W        W93648   6.493  17.642   1.847
28664W        W93649   2.811   1.667  13.554
28665W        W93650  30.612  24.672  13.463
28666W        W93651   2.227  35.960  12.029
28667W        W93652  35.693  22.689  13.367
28668W        W93653   9.355  31.146   4.492
28669W        W93654  27.652  25.173  14.593
28670W        W93655  31.853  25.598  13.580
28671W        W93656  11.335   2.390   3.439
28672W        W93657  34.890   8.073  12.992
28673W        W93658  24.250  25.950  12.307
28674W        W93659  40.510  18.266   0.982
28675W        W93660   5.434  41.374   0.679
28676W        W93661   4.700  24.732   0.905
28677W        W93662  34.044   3.388   4.357
28678W        W93663  11.303  40.062   3.721
28679W        W93664  11.673  10.793  12.819
28680W        W93665  28.841  21.381  12.524
28681W        W93666  13.378   8.920  14.269
28682W        W93667  26.217   0.759  11.494
28683W        W93668  17.033  37.031  12.806
28684W        W93669  32.457  25.487  10.494
28685W        W93670  10.183  26.933  14.461
28686W        W93671   9.337  22.360  13.373
28687W        W93672  40.913  35.024  12.824
28688W        W93673  29.557  25.506   0.058
28689W        W93674  44.934   6.329  11.862
28690W        W93675  19.792  34.491  11.104
28691W        W93676   1.783  20.179   3.152
28692W        W93677   7.384  43.253   0.748
28693W        W93678  20.233  37.843   3.839
28694W        W93679  28.607  10.522  10.565
28695W        W93680  17.903  39.048  12.926
28696W        W93681  25.743  30.951  13.960
28697W        W93682  39.515  44.746   4.615
28698W        W93683   0.400   3.785  12.572
28699W        W93684  29.190  11.684  10.432
28700W        W93685  36.871   4.695   3.606
28701W        W93686  40.394  24.479  10.835
28702W        W93687   4.199  19.587  11.616
28703W        W93688  20.657  39.700   2.776
28704W        W93689  15.295  19.628   0.228
28705W        W93690  41.627  32.612   5.227
28706W        W93691   8.406  12.368  14.343
28707W        W93692  36.456  25.657  11.899
28708W        W93693  31.603  26.893  14.759
28709W        W93694  12.741   9.926   3.204
28710W        W93695   0.657  29.845   0.961
28711W        W93696  28.542  38.477   2.675
28712W        W93697  39.376  30.018  14.110
28713W        W93698  12.681  34.044  10.838
28714W        W93699  36.972  20.529  14.347
28715W        W93700   1.084  16.762   4.235
28716W        W93701  23.512  37.846  14.531
28717W        W93702  19.918  29.791   3.159
28718W        W93703   8.240  23.224   1.728
28719W        W93704  34.701   6.954   1.709
28720W        W93705  18.145   5.975  14.398
28721W        W93706  38.366  15.782  11.860
28722W        W93707   2.843  19.799  14.086
28723W        W93708  13.740   6.246  11.051
28724W        W93709  24.447  11.728   3.352
28725W        W93710  32.861  40.998   4.092
28726W        W93711  25.162  14.525  11.694
28727W        W93712   8.790   8.379  11.047
28728W        W93713  37.235  34.628  14.800
28729W        W93714  27.514  24.564  11.688
28730W        W93715  17.797  40.311   0.291
28731W        W93716  36.771  12.632  14.459
28732W        W93717  33.532  18.477   4.098
28733W        W93718   9.820   5.947  13.077
28734W        W93719  27.553  21.691   4.689
28735W        W93720  30.702  18.519  14.425
28736W        W93721  15.783  34.499  14.457
28737W        W93722  16.505  21.943   9.299
28738W        W93723  18.118  40.151  12.643
28739W        W93724  29.515  24.678  10.684
28740W        W93725  22.664  16.352   2.261
28741W        W93726  13.380  18.180  11.607
28742W        W93727  44.997  20.939  13.549
28743W        W93728   5.414  21.325   1.280
28744W        W93729  15.501   4.300  12.344
28745W        W93730  24.151  43.330   3.555
28746W        W93731  36.458  35.151   2.877
28747W        W93732  15.306  33.933  13.382
28748W        W93733  21.212   6.176   2.764
28749W        W93734  37.465  37.523  14.403
28750W        W93735  33.153  29.752  11.686
28751W        W93736   7.932   1.281   0.537
28752W        W93737  42.865  10.254  10.686
28753W        W93738   3.310  10.381   2.114
28754W        W93739  44.299   7.351   3.032
28755W        W93740   6.641  35.427   4.438
28756W        W93741  37.814   8.426   2.817
28757W        W93742  28.604  16.755   3.047
28758W        W93743  10.812  12.759  14.544
28759W        W93744   5.826  10.573   2.433
28760W        W93745  36.897   8.811   0.258
28761W        W93746  42.470  24.877   3.321
28762W        W93747  42.964   7.688  11.983
28763W        W93748  12.281  22.002  11.935
28764W        W93749  22.947   6.789  13.871
28765W        W93750  39.754  17.110  11.939
28766W        W93751   2.407  33.961  14.058
28767W        W93752  24.813  43.350  14.100
28768W        W93753  44.132   2.020   4.959
28769W        W93754  36.544  21.275   0.393
28770W        W93755  27.075   4.340   3.787
28771W        W93756  28.323  10.384  13.434
28772W        W93757   2.235  14.821  10.681
28773W        W93758  27.502  42.504  11.828
28774W        W93759  36.395  26.771   9.841
28775W        W93760  43.370  39.240   2.731
28776W        W93761   4.372  29.670  12.992
28777W        W93762   4.738  21.157  13.051
28778W        W93763  34.061  12.183  10.829
28779W        W93764  18.748  18.712   0.969
28780W        W93765   2.237  29.769   1.472
28781W        W93766  20.677  40.479   3.280
28782W        W93767  44.656  24.648   2.645
28783W        W93768   3.761  14.507  11.088
28784W        W93769  19.321  23.905  10.245
28785W        W93770  16.181   9.410  13.557
28786W        W93771  34.153   5.602  14.893
28787W        W93772  33.507   3.452  13.885
28788W        W93773   2.517  42.821  11.596
28789W        W93774  36.375   0.296   4.674
28790W        W93775  13.801   4.905  12.061
28791W        W93776  39.819  14.827  13.963
28792W        W93777  14.204  23.078   0.386
28793W        W93778  32.994  16.202   3.034
28794W        W93779  29.980   8.220  13.422
28795W        W93780  18.456  28.700   5.057
28796W        W93781  27.751  44.889   1.394
28797W        W93782  10.619  24.287   0.834
28798W        W93783   0.653  17.282   2.276
28799W        W93784  42.483   2.341   0.845
28800W        W93785  19.625  42.598  10.790
28801W        W93786  43.864   0.684   0.270
28802W        W93787  31.594   7.005   4.588
28803W        W93788  38.063  10.182  13.258
28804W        W93789  22.697  27.595  13.891
28805W        W93790  28.728  22.590  13.923
28806W        W93791  17.131  33.392  13.340
28807W        W93792  27.927  30.055  14.450
28808W        W93793  36.091   1.070  11.181
28809W        W93794  17.156  41.485  12.072
28810W        W93795  13.620  41.756   1.979
28811W        W93796  10.347  26.065   0.418
28812W        W93797  37.379  31.567   1.391
28813W        W93798   7.692   0.267  14.932
28814W        W93799  39.946   0.472  13.315
28815W        W93800  33.071  14.021   1.256
28816W        W93801  44.041  13.247   1.363
28817W        W93802  10.835  21.719   3.347
28818W        W93803  38.290  38.480  13.791
28819W        W93804  43.942  39.997   1.476
28820W        W93805  28.645  26.195  13.266
28821W        W93806  35.517  27.006   0.409
28822W        W93807  10.170  24.572   2.293
28823W        W93808  23.086  28.839  11.470
28824W        W93809  43.943   4.814   1.446
28825W        W93810   2.534  12.370  13.764
28826W        W93811   2.438  31.711   4.428
28827W        W93812   3.717  26.373   0.833
28828W        W93813  31.372  41.582   4.609
28829W        W93814  28.494  13.784   4.485
28830W        W93815  33.474  36.419  14.807
28831W        W93816  26.951  38.423  12.848
28832W        W93817  26.023  16.304   1.652
28833W        W93818  44.368  18.178   1.818
28834W        W93819   8.743   9.788  12.570
28835W        W93820  37.809  22.660   3.267
28836W        W93821  20.330  14.449   4.425
28837W        W93822  43.433  27.665   0.046
28838W        W93823  32.189  15.396  12.471
28839W        W93824  36.033  15.241  12.888
28840W        W93825  15.267   6.765  12.367
28841W        W93826  40.384   6.480  12.107
28842W        W93827  44.841  24.246   0.472
28843W        W93828  27.779  18.310   2.855
28844W        W93829   1.177  18.524   0.188
28845W        W93830  37.332  36.538   3.242
28846W        W93831  30.659   4.809  12.511
28847W        W93832  16.310  34.603   4.125
28848W        W93833  39.529  39.770   2.814
28849W        W93834  30.912  44.110   4.448
28850W        W93835  42.385   8.726   2.148
28851W        W93836  35.143  44.022   1.021
28852W        W93837  33.138  36.444  11.613
28853W        W93838  29.375  44.426   4.348
28854W        W93839  29.792  16.763  13.569
28855W        W93840   5.813  36.169   2.914
28856W        W93841  17.076  32.460   4.604
28857W        W93842   3.827  27.380  14.365
28858W        W93843  32.086   7.733  13.913
28859W        W93844  32.422  12.608  14.088
28860W        W93845  13.141  43.821   1.267
28861W        W93846  26.911  33.227  11.509
28862W        W93847   1.778  11.794   3.279
28863W        W93848  44.570  20.524   2.361
28864W        W93849   9.437  10.358  13.979
28865W        W93850  18.765  23.514  12.440
28866W        W93851   6.624  15.644  13.489
28867W        W93852  25.678  22.008  13.374
28868W        W93853  43.343  20.300   1.375
28869W        W93854  23.684  41.058   2.211
28870W        W93855  37.579  34.639   3.362
28871W        W93856  29.124   7.418  14.732
28872W        W93857  17.397  21.696  10.928
28873W        W93858  37.853  22.765   2.719
28874W        W93859  14.793  13.206  14.513
28875W        W93860  38.743  11.246  11.235
28876W        W93861   7.091   9.812  11.985
28877W        W93862  44.341   7.207  11.794
28878W        W93863  22.742  33.738  11.521
28879W        W93864  24.462  26.455  11.238
28880W        W93865  21.190  36.064   0.156
28881W        W93866   6.551  32.709  14.789
28882W        W93867  12.161  27.196   2.730
28883W        W93868  24.707  13.167  14.369
28884W        W93869  29.024  19.021  12.581
28885W        W93870  11.547   1.415   2.858
28886W        W93871   7.131  39.028   4.007
28887W        W93872  33.060  24.132  13.577
28888W        W93873  25.040  13.066  11.197
28889W        W93874  35.365  32.580   4.395
28890W        W93875  42.607   5.941   1.762
28891W        W93876   8.667   7.616  14.985
28892W        W93877  16.906  20.655   4.769
28893W        W93878  16.241  37.521   3.707
28894W        W93879  37.284  43.470  11.538
28895W        W93880   6.174   0.276   0.042
28896W        W93881  19.666  40.677   2.772
28897W        W93882  34.166  19.128   4.572
28898W        W93883  11.898  43.969  12.981
28899W        W93884  37.370   8.686   2.862
28900W        W93885  39.100  17.964   1.232
28901W        W93886  44.318   9.617  11.585
28902W        W93887  29.575  34.906  13.365
28903W        W93888  36.893   4.428  13.493
28904W        W93889  23.787  11.328  14.327
28905W        W93890  20.334  39.283  11.166
28906W        W93891  32.385   1.653  14.776
28907W        W93892  24.654  15.334   0.992
28908W        W93893  28.125   3.810   1.973
28909W        W93894  14.312  41.939   0.355
28910W        W93895  10.590  27.532   3.633
28911W        W93896  22.495  21.756   3.703
28912W        W93897  20.051   2.117   0.760
28913W        W93898  38.589   8.691  12.166
28914W        W93899  24.173   3.024  11.976
28915W        W93900  16.428  20.829   4.893
28916W        W93901   2.041  41.886   4.810
28917W        W93902  38.804   6.942  12.108
28918W        W93903  44.498  15.260   3.675
28919W        W93904  39.148  14.111   1.694
28920W        W93905  29.891   7.276  13.359
28921W        W93906  40.950  24.095   1.337
28922W        W93907  15.125  23.946  12.094
28923W        W93908  41.445  35.984   0.842
28924W        W93909  23.101  44.675  14.657
28925W        W93910   5.633  28.615  13.312
28926W        W93911  38.502  10.241  14.006
28927W        W93912  33.620  22.134  12.855
28928W        W93913  11.417  23.123   4.345
28929W        W93914   8.627   5.278  13.557
28930W        W93915  34.681  21.598   1.417
28931W        W93916  40.667  29.068  11.287
28932W        W93917  26.422  18.542  14.381
28933W        W93918  36.545  19.400  12.330
28934W        W93919   5.271  31.469   1.672
28935W        W93920  23.122   7.261   2.384
28936W        W93921   8.915  38.998  14.086
28937W        W93922  21.625  14.784   4.143
28938W        W93923  37.949  17.055   0.021
28939W        W93924  34.126   0.876  12.011
28940W        W93925   1.376  26.709   2.948
28941W        W93926  22.032  30.056  13.043
28942W        W93927  31.002  44.321   3.483
28943W        W93928  14.077   7.794  13.075
28944W        W93929  18.996   1.749  12.041
28945W        W93930  20.551  37.621   4.185
28946W        W93931  39.158  19.739  11.144
28947W        W93932   3.241   0.513  14.599
28948W        W93933  34.070  30.424  13.862
28949W        W93934  35.231  30.900   4.843
28950W        W93935  28.520  15.064   4.110
28951W        W93936   0.298  42.301   1.458
28952W        W93937  10.637  25.624   3.748
28953W        W93938  10.751  31.031   4.593
28954W        W93939  32.088  18.543   1.864
28955W        W93940  12.562  16.727  13.999
28956W        W93941   9.622  29.459  11.903
28957W        W93942  20.350  25.876   1.844
28958W        W93943  31.051   9.400   0.865
28959W        W93944  38.293  35.938  11.727
28960W        W93945   2.786  11.382   1.706
28961W        W93946  40.557  43.572   0.995
28962W        W93947   7.424  39.073  11.844
28963W        W93948  16.803  41.798  13.916
28964W        W93949   3.663  12.816   2.170
28965W        W93950  13.648  21.250  13.620
28966W        W93951  11.254  29.693  13.546
28967W        W93952  17.083  36.606  12.487
28968W        W93953  21.672  20.856  14.911
28969W        W93954  41.482  41.238   1.874
28970W        W93955   9.129   8.783  11.211
28971W        W93956  35.298  35.408   4.586
28972W        W93957  14.182   5.993   2.115
28973W        W93958  44.756  30.221   3.232
28974W        W93959   5.929  11.165  11.692
28975W        W93960   8.622  25.780   0.009
28976W        W93961  13.787  33.652  13.438
28977W        W93962   2.231  20.113   4.719
28978W        W93963   1.549   8.653  14.443
28979W        W93964  23.575  38.081  14.983
28980W        W93965  21.624  18.923   9.680
28981W        W93966   3.112  14.212  10.691
28982W        W93967  27.474  43.620   1.669
28983W        W93968  19.330  13.793   2.208
28984W        W93969  11.888  40.811   1.313
28985W        W93970  41.277  19.081  12.141
28986W        W93971  11.639  13.765  12.981
28987W        W93972  33.724  26.087   4.782
28988W        W93973  19.520   1.848  11.211
28989W        W93974   1.980  14.633   0.314
28990W        W93975  44.357   3.010  14.759
28991W        W93976  33.167  13.458  12.526
28992W        W93977  36.622   3.247   1.238
28993W        W93978  21.601  28.124  14.104
28994W        W93979  25.739  20.928   4.478
28995W        W93980  31.102  11.097   3.527
28996W        W93981  16.920   4.896   1.755
28997W        W93982  15.679  11.917  12.914
28998W        W93983  16.273  10.833  14.344
28999W        W93984  30.913  17.682   4.358
29000W        W93985   2.139  43.876   2.297
29001W        W93986   1.898  29.817  12.527
29002W        W93987  43.301  14.359  13.487
29003W        W93988  10.089   8.039   4.965
29004W        W93989  10.258   2.741   4.580
29005W        W93990  21.626  33.955  13.915
29006W        W93991  14.279  10.658   0.970
29007W        W93992   7.342  19.537   3.130
29008W        W93993  26.610  19.124   0.729
29009W        W93994  25.598  16.044  13.074
29010W        W93995  29.323   9.043   2.335
29011W        W93996   2.920   0.205  14.337
29012W        W93997   7.075  40.403   3.890
29013W        W93998   0.761   9.222  11.499
29014W        W93999  15.069  13.058   2.693
29015W        W94000  18.128  27.891   2.013
29016W        W94001  29.689  12.170   3.426
29017W        W94002   8.798  16.194  13.149
29018W        W94003  40.174  17.428   9.570
29019W        W94004   0.855  39.612   1.378
29020W        W94005  29.147  17.770   3.038
29021W        W94006  34.789   1.975  14.274
29022W        W94007   2.364  27.874   0.398
29023W        W94008  39.393  30.438  13.804
29024W        W94009  41.737  31.028   0.103
29025W        W94010  39.835  13.835  12.994
29026W        W94011   4.584   0.055   3.500
29027W        W94012  15.879  16.688   3.230
29028W        W94013   7.307   3.339   0.805
29029W        W94014  23.002  42.049  11.061
29030W        W94015  11.207  38.980  12.769
29031W        W94016  29.071  33.815   2.133
29032W        W94017  40.609  16.155  11.076
29033W        W94018  41.927  13.635   1.886
29034W        W94019  30.049  26.497   0.936
29035W        W94020   8.905  24.495  14.574
29036W        W94021  41.454  12.591  14.913
29037W        W94022  36.541  20.924   2.726
29038W        W94023   0.128   6.315  10.594
29039W        W94024   2.230  14.413  12.038
29040W        W94025  22.561  22.759  10.939
29041W        W94026  40.279  27.973   0.440
29042W        W94027  21.742  29.363   2.778
29043W        W94028   6.400  12.958  12.089
29044W        W94029   4.161  19.114   4.016
29045W        W94030  39.179  31.556   0.785
29046W        W94031   3.328  34.906  12.004
29047W        W94032  27.963  21.031   4.445
29048W        W94033  24.944  44.597   1.197
29049W        W94034  35.630  29.117   0.975
29050W        W94035   6.367  10.594  12.781
29051W        W94036  25.384  10.893  11.994
29052W        W94037  16.023  42.516   3.936
29053W        W94038  36.220   0.004   3.120
29054W        W94039  28.465  15.801   0.745
29055W        W94040  43.976  24.046  12.922
29056W        W94041   6.169  30.440   2.261
29057W        W94042  15.257  34.549  10.714
29058W        W94043  13.551  43.845   4.615
29059W        W94044  24.625   9.891   4.356
29060W        W94045  12.803  21.277   4.121
29061W        W94046  44.664  27.615  14.264
29062W        W94047  26.966  39.321   3.809
29063W        W94048  25.181  29.813  12.446
29064W        W94049   1.092  10.609  12.837
29065W        W94050  18.332  41.226   1.453
29066W        W94051   4.372   6.511   2.720
29067W        W94052  42.905  37.553   2.753
29068W        W94053  10.753  23.029  14.899
29069W        W94054  11.638  20.798  13.547
29070W        W94055   5.894  32.561   1.791
29071W        W94056   6.132  43.785  13.511
29072W        W94057  37.819  12.551  14.408
29073W        W94058  36.486  37.894  13.092
29074W        W94059  31.486  32.519  13.325
29075W        W94060  38.084  20.363   4.176
29076W        W94061  30.218  39.777  13.052
29077W        W94062  21.593  15.200  12.088
29078W        W94063  29.075  30.701   0.286
29079W        W94064  38.944  18.047  13.020
29080W        W94065  33.665  19.267   3.406
29081W        W94066  20.625   6.206  12.630
29082W        W94067  35.267  38.335  14.968
29083W        W94068  42.464  40.818  12.161
29084W        W94069  23.640  14.686   2.233
29085W        W94070   6.090   5.218   3.106
29086W        W94071  24.560  10.105   9.982
29087W        W94072  10.256  22.116   0.890
29088W        W94073  32.468  38.464  13.475
29089W        W94074   3.763   3.668  12.843
29090W        W94075   3.979   0.441  12.053
29091W        W94076  20.713  20.560  13.105
29092W        W94077  32.411   6.839  11.584
29093W        W94078  34.568  16.551  10.748
29094W        W94079  19.160  19.955  12.591
29095W        W94080  44.498  36.707   0.330
29096W        W94081  15.246   9.958   0.368
29097W        W94082   8.723  17.894  14.481
29098W        W94083   8.313   4.304   4.097
29099W        W94084   8.727   0.228  12.522
29100W        W94085   9.661  22.580  11.940
29101W        W94086  40.265  36.717   0.360
29102W        W94087  44.346  26.705  12.983
29103W        W94088  43.563   5.326   1.671
29104W        W94089  42.073  12.782  12.222
29105W        W94090   0.826  10.829   2.819
29106W        W94091  37.492   2.197  13.615
29107W        W94092  27.247  38.006  12.384
29108W        W94093   6.142  12.786  10.377
29109W        W94094  10.065   4.179   3.423
29110W        W94095   6.354  35.288  12.492
29111W        W94096  17.322  44.571  11.714
29112W        W94097   6.346  12.173   4.062
29113W        W94098  30.473   0.362  12.624
29114W        W94099  42.198  22.602  14.334
29115W        W94100  14.736   6.781   1.273
29116W        W94101  24.312  10.079   4.732
29117W        W94102   8.234  22.986  13.333
29118W        W94103  37.986   2.278  12.206
29119W        W94104  23.705  23.925   2.500
29120W        W94105   2.390  23.463  13.505
29121W        W94106  40.060  16.161  12.960
29122W        W94107  17.046  14.196   2.322
29123W        W94108  26.342  14.111  13.489
29124W        W94109  17.537  12.857   3.601
29125W        W94110  41.548  39.375   0.870
29126W        W94111  44.028  25.250  11.073
29127W        W94112  11.380  23.232  13.017
29128W        W94113  38.406  20.463   1.317
29129W        W94114  11.064  33.061  12.045
29130W        W94115  15.719  44.885  13.912
29131W        W94116  12.895  11.201  14.791
29132W        W94117  42.456  19.592  13.714
29133W        W94118  35.617  35.047  14.908
29134W        W94119  20.578  39.004   2.221
29135W        W94120  20.696  16.500   4.763
29136W        W94121  18.166   0.834   3.646
29137W        W94122  36.689  21.229  13.866
29138W        W94123  19.392  19.297   2.643
29139W        W94124  26.485  16.309  10.952
29140W        W94125   0.369   6.147  12.066
29141W        W94126   1.977  24.246   4.491
29142W        W94127  35.880  22.998  12.925
29143W        W94128  42.375   3.677   1.091
29144W        W94129   2.437  24.373   1.805
29145W        W94130   6.953  43.216  14.013
29146W        W94131  14.867  25.397   3.254
29147W        W94132  11.641  32.374   3.105
29148W        W94133  37.525  41.844   2.421
29149W        W94134  24.737   9.414   4.092
29150W        W94135   5.896   8.027  14.752
29151W        W94136  13.037  12.832  14.311
29152W        W94137  24.215  36.975  11.239
29153W        W94138   8.092   8.451  12.904
29154W        W94139  17.010  15.046  12.108
29155W        W94140   8.380  41.953   3.874
29156W        W94141  43.158  18.660   4.969
29157W        W94142  30.662  37.964   2.862
29158W        W94143  34.993  38.096   0.891
29159W        W94144  19.149  30.271   1.838
29160W        W94145  29.185   1.336   4.610
29161W        W94146  34.339  32.378  12.901
29162W        W94147   8.584  37.788  13.889
29163W        W94148  14.664  33.190  14.933
29164W        W94149  35.099   1.802   3.750
29165W        W94150  19.655  10.927  11.231
29166W        W94151  29.435   6.196   3.412
29167W        W94152  43.957   7.882  13.481
29168W        W94153  35.109   6.944  11.331
29169W        W94154   7.925  24.795  10.792
29170W        W94155  33.201  14.116   0.322
29171W        W94156  34.775  12.732  11.064
29172W        W94157  36.321   9.277  10.233
29173W        W94158  23.247  29.871  11.651
29174W        W94159  14.050  17.123  12.557
29175W        W94160  36.950   7.575   3.203
29176W        W94161  27.209  31.091   3.615
29177W        W94162  32.977  30.377   4.586
29178W        W94163  28.640  34.088   4.485
29179W        W94164   1.230  23.522   1.555
29180W        W94165  15.832   2.509   1.359
29181W        W94166  43.099   9.211  12.856
29182W        W94167   5.637  12.523  11.260
29183W        W94168  13.616  31.138  12.908
29184W        W94169  13.474  30.133  13.379
29185W        W94170  35.094  13.327   2.201
29186W        W94171   0.784  16.284  13.500
29187W        W94172  20.227   0.583  11.551
29188W        W94173  32.784  39.505  12.423
29189W        W94174  22.036  34.293  13.891
29190W        W94175   5.597  21.994  11.553
29191W        W94176  43.245  35.407  14.910
29192W        W94177  34.428  29.861  11.519
29193W        W94178   5.663  15.704   3.001
29194W        W94179  23.641   9.640  13.760
29195W        W94180  34.568  24.440   0.537
29196W        W94181  23.724  36.836  13.798
29197W        W94182  20.470   3.442  12.960
29198W        W94183   6.773  13.520   4.091
29199W        W94184  21.394  27.567   1.705
29200W        W94185  17.107  13.387   3.556
29201W        W94186  43.208  12.613   3.203
29202W        W94187  34.582  10.888  12.501
29203W        W94188  17.241  33.563   1.227
29204W        W94189  42.002  24.118   1.109
29205W        W94190  21.291  38.784   1.809
29206W        W94191  20.244  28.725   2.727
29207W        W94192   0.591  24.781  14.805
29208W        W94193  14.365  27.792  14.310
29209W        W94194  25.168  24.714   3.829
29210W        W94195  34.542  43.872   0.707
29211W        W94196  14.902  36.147   3.259
29212W        W94197  24.242  35.955   2.348
29213W        W94198  24.626  12.202  12.943
29214W        W94199  33.529  26.509   4.993
29215W        W94200  18.378  12.577   3.753
29216W        W94201   9.472  11.674   4.156
29217W        W94202  19.500   0.922   4.179
29218W        W94203  31.802  29.736  12.958
29219W        W94204  23.107  33.675  12.458
29220W        W94205  29.939  41.229   1.120
29221W        W94206  23.131  33.035   1.837
29222W        W94207   5.327  39.991  10.206
29223W        W94208  12.901  10.592   4.018
29224W        W94209   0.956  41.436  12.843
29225W        W94210  32.002  40.805   2.878
29226W        W94211  36.119  41.942   5.167
29227W        W94212   3.881   8.823   0.814
29228W        W94213   9.752  36.623  12.875
29229W        W94214  41.397  21.244   0.393
29230W        W94215  28.477  35.642   0.176
29231W        W94216  14.649  12.233  10.510
29232W        W94217  34.542  33.590   4.730
29233W        W94218  38.931  35.150   1.445
29234W        W94219  33.021  30.163  10.480
29235W        W94220  38.385  17.585   2.578
29236W        W94221  43.420  39.500  12.347
29237W        W94222   4.205  33.477  11.037
29238W        W94223  31.635  32.139  12.624
29239W        W94224  14.604  41.730   4.452
29240W        W94225  25.347  17.204   0.367
29241W        W94226  36.769  25.221  10.135
29242W        W94227  33.547   5.263   3.669
29243W        W94228   7.180  21.010   3.216
29244W        W94229  42.484  43.355  12.965
29245W        W94230  38.254   7.698   4.145
29246W        W94231   1.567  32.380   1.687
29247W        W94232  20.753  18.115  13.847
29248W        W94233   6.769  39.721  11.960
29249W        W94234  42.880   1.517  13.390
29250W        W94235  26.501   9.805   1.871
29251W        W94236  39.010  19.094  11.994
29252W        W94237   9.806  40.272  13.794
29253W        W94238  18.467  25.410   1.259
29254W        W94239  17.508  33.589   4.650
29255W        W94240  44.851  34.529   4.963
29256W        W94241  21.615  25.209  11.921
29257W        W94242   8.799  16.064   4.730
29258W        W94243  18.239   9.352   4.289
29259W        W94244  34.631  14.274   0.391
29260W        W94245  28.885  27.039  14.443
29261W        W94246  41.912  16.034  14.646
29262W        W94247  42.409  40.290   4.833
29263W        W94248   1.476   1.760  13.386
29264W        W94249  32.111  30.082  14.892
29265W        W94250   0.255  24.570   4.566
29266W        W94251  25.976  41.647  14.296
29267W        W94252   4.178   3.819   4.079
29268W        W94253  10.709  40.037   2.574
29269W        W94254  25.749  34.231   2.379
29270W        W94255  30.017   6.354  13.826
29271W        W94256   5.652  22.035  14.764
29272W        W94257  37.902  41.124  14.280
29273W        W94258  34.419  28.438  13.382
29274W        W94259  34.632  15.015  13.108
29275W        W94260  15.568  21.568  12.310
29276W        W94261   2.836  30.642   1.354
29277W        W94262  15.378  28.127   0.332
29278W        W94263  42.539  19.928  11.520
29279W        W94264  34.555   3.263   2.593
29280W        W94265  21.028  22.672   3.030
29281W        W94266  34.751  40.728  12.042
29282W        W94267   4.337  40.695   0.333
29283W        W94268  25.602  31.060  13.365
29284W        W94269  14.092  25.224   3.623
29285W        W94270   4.359  18.040  13.467
29286W        W94271  38.436  32.491   4.549
29287W        W94272  42.769  19.877  13.341
29288W        W94273   8.574  39.510  10.939
29289W        W94274   2.218   8.198   3.317
29290W        W94275  17.974   6.273   0.748
29291W        W94276  14.010   1.349  10.992
29292W        W94277   0.039   6.190   0.725
29293W        W94278  19.040  21.283  12.982
29294W        W94279  28.032  16.144   2.773
29295W        W94280  20.760   5.237   3.083
29296W        W94281   1.627  13.959  13.851
29297W        W94282  10.565   9.926   1.173
29298W        W94283   4.491  30.023  11.587
29299W        W94284  28.186  42.503   4.566
29300W        W94285  41.005  13.646   1.901
29301W        W94286  23.147   9.506   0.258
29302W        W94287   9.622  40.555   0.230
29303W        W94288  13.093  35.583   3.917
29304W        W94289   2.817  14.088  11.122
29305W        W94290  10.395  40.595  11.552
29306W        W94291  17.064  37.866   3.472
29307W        W94292  30.059  11.784   3.351
29308W        W94293  44.805  38.878   1.196
29309W        W94294  17.086  30.648  10.839
29310W        W94295   6.754  15.769  14.470
29311W        W94296  13.112  32.376  13.800
29312W        W94297  36.557  12.354  14.008
29313W        W94298  41.444  24.504   2.176
29314W        W94299  40.696  31.069  12.128
29315W        W94300  29.842  38.955   4.830
29316W        W94301  44.818  35.070  11.982
29317W        W94302  36.586  35.571  13.278
29318W        W94303  25.231  15.894  13.907
29319W        W94304  10.039  34.116   4.932
29320W        W94305  20.072   3.155  12.789
29321W        W94306  13.423  44.067  13.851
29322W        W94307  26.651  19.171   1.925
29323W        W94308  28.076  41.391   3.590
29324W        W94309  16.774   7.191  12.903
29325W        W94310  31.928  42.125  12.205
29326W        W94311   2.998   1.333   2.188
29327W        W94312  41.862  44.498   2.154
29328W        W94313  44.414  22.680  10.554
29329W        W94314  39.461  18.700  11.553
29330W        W94315  40.455  20.097   2.697
29331W        W94316  36.254  21.136  14.109
29332W        W94317   9.686   9.249   1.792
29333W        W94318  30.570  43.977  12.525
29334W        W94319   6.938  14.107   4.814
29335W        W94320  28.961  10.056   1.911
29336W        W94321   4.310  29.311  10.597
29337W        W94322  15.656  39.345   4.794
29338W        W94323  35.390   8.280  14.532
29339W        W94324   7.463  41.077  10.734
29340W        W94325   0.251  35.956   2.310
29341W        W94326   8.700   2.822  10.674
29342W        W94327  39.637  21.288   4.582
29343W        W94328  25.569  37.547   0.398
29344W        W94329  30.686   5.339   3.255
29345W        W94330  39.761  15.846   0.373
29346W        W94331  36.962  35.096   0.931
29347W        W94332   8.733  15.164  10.679
29348W        W94333  24.700  17.154   2.237
29349W        W94334  10.343  31.328  12.422
29350W        W94335   8.270   4.269   0.525
29351W        W94336  29.488  25.479  13.072
29352W        W94337   4.274  11.214   4.168
29353W        W94338  19.984  21.255  12.872
29354W        W94339  44.502  11.193   2.862
29355W        W94340   7.222  10.805  12.734
29356W        W94341   1.311  23.058   4.023
29357W        W94342  37.362  29.010  14.506
29358W        W94343  28.123  26.892  11.810
29359W        W94344   3.441  19.170  14.719
29360W        W94345   5.213  21.361  10.732
29361W        W94346  12.164  21.504  11.221
29362W        W94347  13.123  42.739   0.091
29363W        W94348  32.577  40.492   1.518
29364W        W94349  38.771  17.832  10.323
29365W        W94350  13.653  32.335  10.656
29366W        W94351  29.173  15.122  14.233
29367W        W94352   9.688  31.675   0.213
29368W        W94353  23.288  32.133  11.211
29369W        W94354   5.143  29.454  14.209
29370W        W94355   4.422  18.531  12.547
29371W        W94356  38.124   3.766   0.493
29372W        W94357  40.767   5.026  12.910
29373W        W94358  42.384   6.320   3.130
29374W        W94359  24.463   6.340  10.582
29375W        W94360  40.173  22.468  13.085
29376W        W94361  13.928  10.240   2.115
29377W        W94362  17.251  41.964   1.188
29378W        W94363  15.312  22.202   0.276
29379W        W94364  33.235   4.908   0.297
29380W        W94365  20.975  36.511   1.771
29381W        W94366   8.693  24.880  12.162
29382W        W94367   4.132  31.760  14.017
29383W        W94368  29.308   8.683   1.715
29384W        W94369  15.755  16.314  10.282
29385W        W94370  28.169  33.422  12.582
29386W        W94371  22.118  16.074  11.256
29387W        W94372   0.058  16.054   0.736
29388W        W94373   7.359  18.850  12.925
29389W        W94374  38.761  43.851  12.524
29390W        W94375  16.368  33.390  12.832
29391W        W94376  36.980  19.071   4.663
29392W        W94377  37.832   4.245   0.517
29393W        W94378  11.169  20.050  14.550
29394W        W94379  22.351  31.943   5.188
29395W        W94380   1.247  40.488  12.881
29396W        W94381  20.996  14.811   1.294
29397W        W94382  34.554  18.683   4.629
29398W        W94383  19.088   2.546  14.002
29399W        W94384   4.987  26.943  11.111
29400W        W94385  24.828  23.760  11.635
29401W        W94386   1.895   5.713   1.893
29402W        W94387   0.279  31.558   4.640
29403W        W94388  35.514  41.248  14.578
29404W        W94389  13.752  44.230   3.253
29405W        W94390   9.432  12.482   2.298
29406W        W94391  29.879  35.012   1.507
29407W        W94392  31.678  40.864  12.975
29408W        W94393  25.144  31.053   3.089
29409W        W94394  42.219  16.430  13.153
29410W        W94395  32.815  42.427  13.180
29411W        W94396   2.258   1.489   0.094
29412W        W94397  40.456  34.413   2.304
29413W        W94398   0.722  40.043   0.419
29414W        W94399  15.700  24.710   1.210
29415W        W94400  25.440  28.582   3.122
29416W        W94401  41.276  28.404   3.370
29417W        W94402   7.756   4.394  13.085
29418W        W94403  41.000  14.109  11.119
29419W        W94404   2.540  22.541  14.347
29420W        W94405  26.631  34.033  11.146
29421W        W94406  10.182  36.473   4.759
29422W        W94407  37.685   5.918   4.138
29423W        W94408  16.069  23.755   1.028
29424W        W94409  19.019  37.491  14.966
29425W        W94410  36.498  26.628  11.452
29426W        W94411  39.729   5.531   1.262
29427W        W94412  17.384  14.218  12.483
29428W        W94413  16.133  43.598   0.694
29429W        W94414  44.819  17.085  13.999
29430W        W94415  12.214  44.542   4.349
29431W        W94416   0.880  41.841  12.337
29432W        W94417  33.772  21.333  12.377
29433W        W94418   7.885   7.259  13.158
29434W        W94419  31.253  26.986   3.575
29435W        W94420  25.783  35.544  14.837
29436W        W94421  15.240   0.490   4.890
29437W        W94422  18.942   7.898   3.647
29438W        W94423   1.716  17.598  14.060
29439W        W94424  27.938  22.746   1.201
29440W        W94425  28.955  34.135  10.140
29441W        W94426  40.059  28.988   1.292
29442W        W94427  31.898   7.636   0.246
29443W        W94428   9.182  42.483   2.860
29444W        W94429   6.221  15.155   2.850
29445W        W94430  41.815  21.516   2.760
29446W        W94431  38.958  11.305  12.083
29447W        W94432  23.954   6.172  10.571
29448W        W94433  25.936  21.067   2.318
29449W        W94434   2.303  30.155  12.389
29450W        W94435  19.785   4.703  10.519
29451W        W94436  25.566  27.181  13.062
29452W        W94437  42.480  11.751  11.565
29453W        W94438  25.380  34.484   3.764
29454W        W94439  17.018  20.040   3.751
29455W        W94440  11.322  40.539  13.840
29456W        W94441  11.819  30.064   4.433
29457W        W94442  10.127   5.748   1.816
29458W        W94443  37.936  33.074   3.616
29459W        W94444  28.818  36.575   1.838
29460W        W94445   1.888  15.565  12.429
29461W        W94446  25.184  20.744  14.870
29462W        W94447  16.045  23.489  10.623
29463W        W94448   8.736  19.564  13.026
29464W        W94449  16.304   6.796   2.774
29465W        W94450  10.677  23.479   3.273
29466W        W94451  10.105   9.923   3.799
29467W        W94452   0.375  23.161  11.101
29468W        W94453  21.156  42.579   9.907
29469W        W94454   3.410   3.044  11.518
29470W        W94455  27.232  18.151   1.819
29471W        W94456   2.529  17.945  14.469
29472W        W94457  23.709   2.272   0.237
29473W        W94458  41.041  21.468  11.145
29474W        W94459  11.454  12.533   1.618
29475W        W94460  18.142  12.868  14.315
29476W        W94461   2.026  16.645   2.833
29477W        W94462  16.753  40.468   4.554
29478W        W94463  14.898  44.129   4.781
29479W        W94464  11.312  44.761  11.663
29480W        W94465  25.607  13.863   1.362
29481W        W94466  25.139  41.396  12.567
29482W        W94467  20.291   0.338   3.724
29483W        W94468  40.021  15.085  13.547
29484W        W94469  31.112  21.259   0.280
29485W        W94470  43.570   9.722  11.168
29486W        W94471  39.390   1.909  11.109
29487W        W94472   9.592  18.048  12.014
29488W        W94473  33.454  22.959  14.981
29489W        W94474  27.687  44.027   3.770
29490W        W94475   4.716  44.132   1.788
29491W        W94476  34.989  15.221   1.936
29492W        W94477  28.440  11.066  12.509
29493W        W94478  14.662  26.568  14.117
29494W        W94479  10.866  22.033  11.921
29495W        W94480  25.125  23.134  11.134
29496W        W94481   2.512  32.160  13.260
29497W        W94482  30.225  26.659  10.480
29498W        W94483  23.931   0.320   0.953
29499W        W94484  13.026  33.444   1.219
29500W        W94485   9.352  17.530  11.132
29501W        W94486  10.115  30.143  14.025
29502W        W94487  26.381  12.376  12.013
29503W        W94488  36.119  30.329  10.867
29504W        W94489  36.669  31.609  11.596
29505W        W94490  17.007  40.940  10.851
29506W        W94491   3.717  27.367   4.010
29507W        W94492   9.777  26.655   0.837
29508W        W94493  41.588  39.761  14.522
29509W        W94494  30.971  29.188   5.028
29510W        W94495  10.399  43.841   1.641
29511W        W94496  42.604  26.182   9.835
29512W        W94497  44.404  18.221  11.128
29513W        W94498  12.193  35.566  14.246
29514W        W94499   2.016  13.321   3.155
29515W        W94500  23.113   1.194   0.924
29516W        W94501  42.939  18.690   0.055
29517W        W94502  15.810  31.188   2.800
29518W        W94503  33.863  30.587  10.820
29519W        W94504   2.221   4.293   3.261
29520W        W94505  21.734   6.788  14.960
29521W        W94506   2.343  37.125  12.538
29522W        W94507  13.713  30.986  13.902
29523W        W94508  42.426  16.723   1.329
29524W        W94509  38.494  14.603   1.058
29525W        W94510  28.372   3.036  13.376
29526W        W94511   2.735  12.069  11.935
29527W        W94512   3.099  34.089  14.671
29528W        W94513  33.388  17.819  13.587
29529W        W94514  16.881  38.864  14.816
29530W        W94515  18.338  33.436   4.276
29531W        W94516  17.787   4.717  11.709
29532W        W94517   3.765  17.515   2.764
29533W        W94518  15.897  16.502   1.377
29534W        W94519  42.889   5.518  13.462
29535W        W94520  22.600  39.905  13.442
29536W        W94521  37.585  31.122   0.343
29537W        W94522  37.448  21.428   1.830
29538W        W94523   2.655  41.022   0.828
29539W        W94524   3.179  35.126  11.105
29540W        W94525  25.949  13.314  14.055
29541W        W94526   5.206  28.315  11.170
29542W        W94527  39.703  42.410  13.986
29543W        W94528  31.733  31.181   4.181
29544W        W94529  15.264  11.036  10.363
29545W        W94530  35.127  16.174  11.546
29546W        W94531   9.219  42.264  10.699
29547W        W94532  18.444   3.813  11.481
29548W        W94533  27.001  40.316  10.238
29549W        W94534  26.520  18.203   2.339
29550W        W94535  39.493  19.666   0.854
29551W        W94536  18.811   5.383  10.006
29552W        W94537  31.379  13.105   3.592
29553W        W94538   7.434  26.080  13.746
29554W        W94539  33.542  12.042   2.062
29555W        W94540  19.247  34.688   2.269
29556W        W94541  36.020  40.599   0.194
29557W        W94542  26.435  38.212   1.850
29558W        W94543  10.823   6.976   1.835
29559W        W94544  41.180   1.009   2.677
29560W        W94545  14.804  33.687  13.944
29561W        W94546  33.907  17.707   3.067
29562W        W94547  21.264  26.678  11.075
29563W        W94548  42.017  36.340   0.055
29564W        W94549  11.607  28.463  14.786
29565W        W94550  36.609  25.278   0.239
29566W        W94551  36.867  37.067   2.813
29567W        W94552  31.195  44.551  12.078
29568W        W94553  44.684  24.378  13.309
29569W        W94554   5.984  41.770   1.765
29570W        W94555  23.313  16.414  12.924
29571W        W94556  35.459  35.363   0.302
29572W        W94557  11.862  32.544   2.671
29573W        W94558  18.455  42.972  10.883
29574W        W94559  12.047  20.130   4.059
29575W        W94560  41.886  11.546   0.809
29576W        W94561  40.581  16.213  13.965
29577W        W94562  17.639  19.660   2.402
29578W        W94563  23.505  27.737   3.138
29579W        W94564  43.919  22.090   1.464
29580W        W94565   6.508  42.438  11.674
29581W        W94566  28.184  18.013   2.632
29582W        W94567  20.710  29.200   2.747
29583W        W94568  42.317  15.811  13.782
29584W        W94569  21.500  11.613  10.753
29585W        W94570   2.717  14.601  11.923
29586W        W94571  22.156  28.626  13.422
29587W        W94572  39.040   0.332  11.641
29588W        W94573  31.467  35.646   4.172
29589W        W94574  15.591   7.641  13.281
29590W        W94575  14.322   6.180  13.283
29591W        W94576  19.971   8.598   4.224
29592W        W94577  11.311  13.567  11.676
29593W        W94578  17.495   1.865   1.744
29594W        W94579  38.084  21.762   4.056
29595W        W94580  14.310   8.903   1.665
29596W        W94581  37.175  26.685   5.078
29597W        W94582  16.840  40.847  11.581
29598W        W94583  31.520  27.455   0.972
29599W        W94584  28.982  37.094   0.916
29600W        W94585  16.267  40.028  11.535
29601W        W94586  32.660  41.342  11.630
29602W        W94587  28.489  43.550  10.667
29603W        W94588  23.640  30.531   2.293
29604W        W94589   8.406  14.226   2.917
29605W        W94590  37.543  26.566  11.550
29606W        W94591  23.573   0.436   4.789
29607W        W94592   7.067  16.073  11.996
29608W        W94593  23.289  39.028   2.263
29609W        W94594  19.111   4.141  13.040
29610W        W94595  42.582  33.627  13.123
29611W        W94596  42.346  12.772  14.055
29612W        W94597   6.167  37.069   1.380
29613W        W94598  41.891   5.614   4.161
29614W        W94599  29.600   7.887   0.491
29615W        W94600  16.023  12.189  13.537
29616W        W94601  13.176  29.942  12.897
29617W        W94602  34.028  34.735   3.097
29618W        W94603  33.414   8.381  12.995
29619W        W94604   5.331  21.844  13.356
29620W        W94605  14.319  43.870   0.376
29621W        W94606   3.319  25.659   1.874
29622W        W94607  35.025  25.709   3.247
29623W        W94608  33.483  42.263   2.322
29624W        W94609  37.106   9.673  14.876
29625W        W94610   4.603  16.100   1.713
29626W        W94611  12.722  26.570   1.900
29627W        W94612  32.957   9.396   5.470
29628W        W94613   5.054  31.418  11.851
29629W        W94614  27.105  44.961  10.220
29630W        W94615  39.972   1.274   1.801
29631W        W94616  30.073  40.049   4.829
29632W        W94617  35.196  40.085  13.379
29633W        W94618  12.367  35.474   0.891
29634W        W94619  23.099  32.875   4.017
29635W        W94620  30.066  25.747   3.076
29636W        W94621   5.422  23.260   2.149
29637W        W94622  31.980  21.961  14.535
29638W        W94623  27.452  13.891   3.586
29639W        W94624  15.740   6.171  13.912
29640W        W94625  16.380  29.052  11.520
29641W        W94626  35.141  38.821  12.926
29642W        W94627   5.778   1.200   0.353
29643W        W94628  13.373   3.897   3.553
29644W        W94629  38.926  20.934  14.058
29645W        W94630  18.126  44.766  12.062
29646W        W94631   4.209  25.137   4.678
29647W        W94632  13.234  40.514   3.224
29648W        W94633  24.646  41.527   4.979
29649W        W94634  37.571  18.860  14.110
29650W        W94635  42.692  26.383   4.994
29651W        W94636   0.216  29.431  12.668
29652W        W94637  17.217  44.224  14.352
29653W        W94638  16.123   9.655  13.109
29654W        W94639  28.724  15.634   3.259
29655W        W94640  16.652  36.970   2.579
29656W        W94641  11.424  38.955  12.323
29657W        W94642   0.887  37.377   3.163
29658W        W94643  15.304  14.923  11.052
29659W        W94644  20.053   9.374  12.578
29660W        W94645  41.595   9.800  13.564
29661W        W94646  12.965  10.668  11.575
29662W        W94647  20.013  11.907  12.515
29663W        W94648  21.670  29.833   0.414
29664W        W94649  32.063  24.093  12.375
29665W        W94650   5.604  33.825  12.865
29666W        W94651  13.278  37.557  11.103
29667W        W94652  43.284  41.857   2.859
29668W        W94653  30.459  33.051   2.245
29669W        W94654  36.290  32.934   2.806
29670W        W94655  24.520  24.316   2.295
29671W        W94656  11.183  41.360  14.710
29672W        W94657  22.123  39.017   4.583
29673W        W94658  17.048   3.196   4.562
29674W        W94659   9.653  10.112  13.567
29675W        W94660  41.501  22.538   0.376
29676W        W94661   4.731  43.755   3.528
29677W        W94662  29.601  23.606  14.715
29678W        W94663  42.990  15.102   3.553
29679W        W94664  33.524  18.605   0.180
29680W        W94665   8.390  24.588  11.855
29681W        W94666  33.850   0.662  11.648
29682W        W94667   8.890   6.510   3.343
29683W        W94668  24.940  19.186  10.835
29684W        W94669  26.204  23.382   2.025
29685W        W94670  39.345  44.191  13.929
29686W        W94671  13.584   8.179   0.440
29687W        W94672  27.172   8.484   1.442
29688W        W94673  30.813   5.799   2.711
29689W        W94674  35.786  32.913   2.959
29690W        W94675  13.150  16.471   1.012
29691W        W94676  28.685  25.559   3.596
29692W        W94677  37.429  11.442  10.800
29693W        W94678   6.959  13.266   0.171
29694W        W94679  23.098  15.590   3.201
29695W        W94680   5.341   2.949  12.928
29696W        W94681  34.564   1.769   3.725
29697W        W94682  19.305   8.574  14.069
29698W        W94683   4.910  16.122   4.565
29699W        W94684  17.515  17.825  14.252
29700W        W94685  34.894  10.907   2.482
29701W        W94686  36.976  12.826   4.802
29702W        W94687   7.379  16.059  12.791
29703W        W94688  28.527   3.892   0.370
29704W        W94689  35.821  31.052  14.572
29705W        W94690  10.188  21.449   0.517
29706W        W94691   6.732   5.954   0.374
29707W        W94692  13.747  15.419   1.486
29708W        W94693  43.926   0.088   1.432
29709W        W94694  25.256  28.594   2.634
29710W        W94695  25.922   5.739   2.192
29711W        W94696  31.961   7.300   2.681
29712W        W94697  43.034   4.046   0.728
29713W        W94698  26.418  26.711   0.779
29714W        W94699   6.701   4.166   1.723
29715W        W94700  31.919  36.880   0.493
29716W        W94701  37.093  15.220  14.874
29717W        W94702  17.785   8.426  12.915
29718W        W94703   0.519  37.502  11.005
29719W        W94704  21.154  24.745  13.551
29720W        W94705   7.340  26.653  11.590
29721W        W94706   0.817   5.482   3.300
29722W        W94707  22.768  43.728   4.621
29723W        W94708  41.543  30.714  12.786
29724W        W94709  34.875   1.704  10.715
29725W        W94710  28.599  20.210   3.213
29726W        W94711  35.361  30.636   2.704
29727W        W94712  33.591  12.045  14.254
29728W        W94713  22.309   5.874   4.207
29729W        W94714  21.057  14.651  14.511
29730W        W94715  41.841  28.009   2.693
29731W        W94716  25.707  23.397   1.993
29732W        W94717  24.465  22.044   0.821
29733W        W94718  41.091  43.313  11.507
29734W        W94719  24.696  19.747   0.949
29735W        W94720   8.895  17.783   4.735
29736W        W94721  33.880  17.613  12.499
29737W        W94722   7.868   2.001  12.122
29738W        W94723  10.774   9.685  11.440
29739W        W94724  42.252  36.051  12.454
29740W        W94725  11.296   5.267  10.968
29741W        W94726  25.731  28.846   2.748
29742W        W94727   1.289  31.613  14.312
29743W        W94728  43.052  11.222  12.040
29744W        W94729  21.316  11.602  13.038
29745W        W94730  29.886  37.960   0.265
29746W        W94731   8.627  33.649   2.771
29747W        W94732  10.337   0.950   1.398
29748W        W94733  29.355  18.155  11.493
29749W        W94734  14.570  31.397  12.177
29750W        W94735  16.216  29.417  14.605
29751W        W94736  38.827  37.946  11.240
29752W        W94737   2.940   5.529   1.747
29753W        W94738   6.919  30.168  13.515
29754W        W94739  23.455  26.239  11.102
29755W        W94740  19.095  33.535   3.798
29756W        W94741  44.729  41.310   2.348
29757W        W94742  15.570   1.438  11.163
29758W        W94743  18.235  20.606  13.133
29759W        W94744  17.312   8.148  10.721
29760W        W94745  27.676  16.126  14.021
29761W        W94746  15.048  35.690  11.661
29762W        W94747  25.930  35.296   1.732
29763W        W94748  28.160  28.976   3.214
29764W        W94749  11.125  38.036   0.961
29765W        W94750  13.217  16.688  11.820
29766W        W94751   8.184  15.084   3.825
29767W        W94752  23.142  26.175  10.683
29768W        W94753  42.998   2.353   3.295
29769W        W94754  25.583  30.711   3.169
29770W        W94755  37.483  17.780  11.407
29771W        W94756   6.395   2.531  11.726
29772W        W94757  15.084  29.349   3.706
29773W        W94758  26.488  43.969  13.855
29774W        W94759  43.507  19.194  11.183
29775W        W94760   3.678   7.462  13.124
29776W        W94761   1.844  43.271  14.838
29777W        W94762  38.103  18.062  10.563
29778W        W94763  26.187  29.574  12.393
29779W        W94764  36.944   3.019  12.531
29780W        W94765  42.884   4.902   4.701
29781W        W94766   5.631  36.042   4.610
29782W        W94767  17.211  19.028   5.221
29783W        W94768   5.777  39.944   2.648
29784W        W94769  30.939  22.914   3.526
29785W        W94770  29.752  34.889   3.301
29786W        W94771  43.780   2.561  10.955
29787W        W94772  44.330  30.997  11.165
29788W        W94773  31.918   9.644  13.450
29789W        W94774  13.285  15.758  11.388
29790W        W94775  19.096  39.455  12.781
29791W        W94776  33.470  44.872  12.213
29792W        W94777   5.376  44.378  14.974
29793W        W94778  36.340  28.954   4.205
29794W        W94779  21.020   6.223   3.260
29795W        W94780  43.444  15.873   3.729
29796W        W94781   5.194   6.070  10.908
29797W        W94782   8.700  29.614   0.333
29798W        W94783  29.935  17.621   3.869
29799W        W94784  20.908  10.309  11.920
29800W        W94785  14.068  24.019  12.957
29801W        W94786  33.897  38.072  11.546
29802W        W94787  27.454  19.214  12.059
29803W        W94788  15.092   2.804  11.944
29804W        W94789  30.395  11.905  14.825
29805W        W94790  17.029  44.709   3.080
29806W        W94791  20.854   8.022   1.611
29807W        W94792   9.421  28.494   2.712
29808W        W94793   0.988   3.266   4.464
29809W        W94794  36.864  22.716   0.920
29810W        W94795  43.516  26.230   4.771
29811W        W94796  20.041   7.410   3.131
29812W        W94797   3.893  28.899  12.839
29813W        W94798  21.135  31.672   2.151
29814W        W94799  35.996  31.724   1.453
29815W        W94800   9.145  26.104   1.826
29816W        W94801   3.503  23.161  13.624
29817W        W94802   6.456  23.125  13.842
29818W        W94803  32.363  28.944   0.099
29819W        W94804  29.075  18.040   2.362
29820W        W94805   8.650   5.842  14.956
29821W        W94806  12.619   8.359   2.304
29822W        W94807  24.816  24.688   3.272
29823W        W94808   0.620  19.997  11.223
29824W        W94809  37.472  42.402   0.650
29825W        W94810  17.170  37.640   0.461
29826W        W94811   6.673  22.617   1.768
29827W        W94812  24.097  28.525   3.076
29828W        W94813  40.754   6.507  11.235
29829W        W94814  27.527  13.476   2.117
29830W        W94815  32.053   3.062   2.400
29831W        W94816  30.762   1.225   4.747
29832W        W94817   0.216  11.645   3.231
29833W        W94818  41.838   8.585  13.147
29834W        W94819  35.488   3.470  11.172
29835W        W94820   0.396  19.213   2.724
29836W        W94821  12.399  36.394  13.621
29837W        W94822  21.172  28.733  14.820
29838W        W94823  20.718  17.201   3.624
29839W        W94824   2.659  32.825   3.176
29840W        W94825  31.186  10.150   2.218
29841W        W94826  15.153  35.811  14.354
29842W        W94827  13.162  21.978  12.074
29843W        W94828  14.608  41.572  13.070
29844W        W94829  20.535  10.335  12.737
29845W        W94830  42.049  20.295  11.250
29846W        W94831  25.978  17.532  13.754
29847W        W94832  34.899  36.144   4.333
29848W        W94833  22.960   4.588  14.837
29849W        W94834  19.269  38.573  14.512
29850W        W94835  38.753  12.360  11.128
29851W        W94836  31.580   8.051  10.773
29852W        W94837  26.438  17.822   3.108
29853W        W94838  16.886   3.190  11.144
29854W        W94839  24.094  29.462   2.119
29855W        W94840  44.342  11.021   4.773
29856W        W94841  27.959  32.820   0.235
29857W        W94842  23.038  34.383   4.196
29858W        W94843  31.274  22.738   9.874
29859W        W94844  29.108  39.138   3.737
29860W        W94845   2.346  16.034   0.088
29861W        W94846  13.787  29.076  12.128
29862W        W94847   4.459  28.212  12.957
29863W        W94848  35.942  14.684  11.641
29864W        W94849  33.781  42.711  14.145
29865W        W94850  13.322  25.234  12.938
29866W        W94851   7.418  27.527  14.796
29867W        W94852  31.913  11.045  14.845
29868W        W94853  22.231  23.659   3.662
29869W        W94854   0.371   3.019   5.296
29870W        W94855  43.285  23.629  13.948
29871W        W94856  26.077  19.923   1.539
29872W        W94857  14.315  27.692   3.633
29873W        W94858  42.851  42.108   0.893
29874W        W94859   3.868  29.064  14.692
29875W        W94860  17.112  15.565  12.980
29876W        W94861  26.436  37.909  13.352
29877W        W94862   5.235  39.347   0.261
29878W        W94863  10.244  34.974  14.380
29879W        W94864  33.943  15.295  14.914
29880W        W94865  32.161  37.346  11.661
29881W        W94866   5.815  32.711  12.048
29882W        W94867  22.286  26.474   1.875
29883W        W94868  33.868  14.375  10.954
29884W        W94869  16.299  38.378   0.241
29885W        W94870  38.869  12.926  11.795
29886W        W94871  15.882   5.494   0.121
29887W        W94872   1.473  22.281  14.755
29888W        W94873  20.241  25.026   1.650
29889W        W94874  15.171  31.995  10.670
29890W        W94875  11.207  38.306  13.547
29891W        W94876   0.272  36.474   2.409
29892W        W94877   5.135  34.894   3.978
29893W        W94878   3.621  34.145  12.428
29894W        W94879  35.116  41.991  13.158
29895W        W94880   6.797  25.573   3.554
29896W        W94881  12.212   0.094   3.513
29897W        W94882  32.676  27.059   2.137
29898W        W94883  27.073   6.853  10.958
29899W        W94884  30.518   6.853  11.529
29900W        W94885  30.453  39.987   1.840
29901W        W94886  22.342  12.752   0.359
29902W        W94887  27.374  44.746  13.040
29903W        W94888  41.841   1.974   1.317
29904W        W94889  11.692  31.454   1.777
29905W        W94890  17.525  24.912  12.024
29906W        W94891  28.941  44.558   3.659
29907W        W94892  28.946  28.641  12.141
29908W        W94893  42.814   5.258   2.840
29909W        W94894  27.030   7.180  12.258
29910W        W94895  33.565  42.941   3.249
29911W        W94896  16.320  15.662  11.623
29912W        W94897  40.798  43.294  14.182
29913W        W94898   7.283  11.647   1.403
29914W        W94899  17.232  24.247   3.288
29915W        W94900  37.871   0.726   2.463
29916W        W94901  29.827  10.376  11.000
29917W        W94902  10.380  43.537  14.289
29918W        W94903  41.907  13.194  10.665
29919W        W94904  29.991  23.540   0.060
29920W        W94905  26.188  30.730   0.451
29921W        W94906   9.615  30.899  11.452
29922W        W94907   9.264   3.740   2.400
29923W        W94908   8.451  44.389   1.456
29924W        W94909  21.606  35.879  12.505
29925W        W94910  43.026  42.558  11.711
29926W        W94911  27.682  13.970   2.175
29927W        W94912   4.454  20.719   4.203
29928W        W94913  19.161   8.689   2.245
29929W        W94914   4.859  25.571   2.960
29930W        W94915  10.130   6.683   0.176
29931W        W94916  12.768  24.993   1.788
29932W        W94917  23.386  42.202  13.583
29933W        W94918  39.310  37.339  10.684
29934W        W94919  10.890  37.563  13.649
29935W        W94920  34.489   4.916  11.594
29936W        W94921  17.760  32.452  10.688
29937W        W94922  28.102  28.766   4.047
29938W        W94923  21.430  17.137   1.408
29939W        W94924  38.286  29.277  14.672
29940W        W94925  39.852  24.460   3.345
29941W        W94926   7.505   4.427   3.768
29942W        W94927  26.814   9.145   3.359
29943W        W94928  29.063   5.668   4.223
29944W        W94929  32.751   0.097  11.131
29945W        W94930  15.405   7.209   0.274
29946W        W94931  22.720  42.004  11.546
29947W        W94932  16.088   4.315   2.338
29948W        W94933  25.900  17.145  14.506
29949W        W94934  11.850  24.251   1.324
29950W        W94935   7.214  31.901  13.736
29951W        W94936  32.494   3.245  11.276
29952W        W94937   4.774  38.964  12.097
29953W        W94938  19.163  20.536  13.582
29954W        W94939  31.463  16.205  14.258
29955W        W94940   7.206   4.246   5.672
29956W        W94941  21.293  18.240  13.016
29957W        W94942  12.197  34.041   1.130
29958W        W94943  41.231  23.109   1.355
29959W        W94944  16.728  23.139  12.312
29960W        W94945  14.599  19.594  11.617
29961W        W94946  10.404  20.578   0.446
29962W        W94947  34.007   6.255  14.521
29963W        W94948  44.253   6.391   0.353
29964W        W94949  20.017  24.684  14.500
29965W        W94950  29.333   7.348   4.059
29966W        W94951  25.872  31.387  14.217
29967W        W94952  32.362  31.917   0.790
29968W        W94953  30.092  39.947   2.769
29969W        W94954  31.093  32.293   1.782
29970W        W94955  34.526  15.713  12.455
29971W        W94956  41.570  33.664   4.477
29972W        W94957  33.828  24.251   4.630
29973W        W94958  41.955   1.820  11.477
29974W        W94959  19.124  28.015   0.412
29975W        W94960  14.881  22.316   3.335
29976W        W94961   8.093  19.202   1.146
29977W        W94962  21.133  10.703  13.143
29978W        W94963  26.766  36.151  11.532
29979W        W94964  26.124  38.814   3.582
29980W        W94965   4.867  40.527  10.729
29981W        W94966   9.388  23.689  12.041
29982W        W94967  22.281  12.125   3.672
29983W        W94968  27.295   8.169  11.569
29984W        W94969   5.980   1.404   3.125
29985W        W94970  41.579   7.703   3.287
29986W        W94971   0.294  12.718  13.814
29987W        W94972  33.091  15.563   1.243
29988W        W94973   5.814   9.510   2.482
29989W        W94974  31.443   3.484  12.959
29990W        W94975   8.651  33.719  10.981
29991W        W94976  17.222  30.870  14.488
29992W        W94977   5.664  38.873   4.101
29993W        W94978  21.160   1.882  12.154
29994W        W94979  16.340  42.898   3.198
29995W        W94980   3.354  29.026  14.781
29996W        W94981  43.322   6.927   2.154
29997W        W94982   6.194  43.383   4.185
29998W        W94983  44.098  36.675  11.769
29999W        W94984  23.740  21.048   2.130
30000W        W94985  10.058  43.286   0.658
30001W        W94986  21.048  28.977   1.081
30002W        W94987  13.173   3.791   5.527
30003W        W94988  22.772  19.773   1.492
30004W        W94989  33.141   3.458   1.314
30005W        W94990   4.800   0.058   0.744
30006W        W94991  43.993  12.310  14.768
30007W        W94992   9.881   4.176  12.603
30008W        W94993  44.294  23.665  12.957
30009W        W94994  26.910  23.833  14.743
30010W        W94995  30.348  16.738  13.721
30011W        W94996   4.734  27.644  12.983
30012W        W94997  19.534  17.289   0.473
30013W        W94998  12.146   8.849  11.875
30014W        W94999  22.643  43.921  14.006
30015W        W95000  10.693   2.139   3.361
30016W        W95001  38.740  38.429   3.400
30017W        W95002  39.592  18.692  14.056
30018W        W95003  21.739  22.235   0.557
30019W        W95004  38.778  20.468  13.315
30020W        W95005  33.086  36.041   2.340
30021W        W95006   2.668  36.926  12.923
30022W        W95007  38.282  32.174   4.936
30023W        W95008   3.627   5.598   2.860
30024W        W95009  34.924  44.395   4.630
30025W        W95010   6.394  13.115   1.391
30026W        W95011  32.602   1.358  10.729
30027W        W95012  21.720  43.594   4.320
30028W        W95013  38.346  36.988   0.909
30029W        W95014   3.768   8.698  14.442
30030W        W95015  12.453  36.580  12.427
30031W        W95016  35.660   0.357  12.358
30032W        W95017  11.238  20.975   1.228
30033W        W95018  29.673  19.129   0.157
30034W        W95019  29.645   2.733   1.672
30035W        W95020  34.870   2.215  10.742
30036W        W95021   2.242  11.195  11.035
30037W        W95022   5.786  37.359   4.026
30038W        W95023  10.173  43.773  14.698
30039W        W95024  17.852  15.216   3.449
30040W        W95025  30.179  21.698   3.462
30041W        W95026  11.126  33.028  11.200
30042W        W95027  21.423  34.931   0.954
30043W        W95028  25.900  23.524  12.619
30044W        W95029  14.088  15.798  12.276
30045W        W95030   5.961  12.182   4.760
30046W        W95031  23.994  39.269  14.543
30047W        W95032  40.446   8.131  12.168
30048W        W95033   8.100  19.736   4.872
30049W        W95034  44.065  37.302   3.279
30050W        W95035  10.354   8.458   9.800
30051W        W95036  38.579   5.366  10.842
30052W        W95037  43.249  12.373  11.653
30053W        W95038  14.244  21.184   2.854
30054W        W95039  24.668  23.673   0.337
30055W        W95040  17.516  21.312  10.584
30056W        W95041  12.875  44.863  13.676
30057W        W95042  43.436   2.223  14.474
30058W        W95043   1.411  21.600   4.559
30059W        W95044  40.785  40.553   1.821
30060W        W95045  17.322   0.719  14.280
30061W        W95046   0.556  30.787   4.112
30062W        W95047  42.573  14.283   2.736
30063W        W95048  11.934   6.199  10.767
30064W        W95049   5.105  39.566  10.376
30065W        W95050  32.640  33.497  12.385
30066W        W95051  11.538  27.291  14.279
30067W        W95052  27.958   6.047   5.081
30068W        W95053  28.190  21.484  13.495
30069W        W95054   0.289  20.021   1.199
30070W        W95055   1.770  13.811   4.698
30071W        W95056  31.618  24.610  13.541
30072W        W95057  42.323  30.919   3.737
30073W        W95058  11.123  41.977   3.260
30074W        W95059  32.872   7.143   2.684
30075W        W95060  23.576  12.398   2.658
30076W        W95061  42.023   2.886   2.489
30077W        W95062   7.837  41.493   2.805
30078W        W95063  23.461  10.053   2.223
30079W        W95064   4.392  36.139   2.337
30080W        W95065  16.832  13.276   5.000
30081W        W95066   4.967  41.481   3.536
30082W        W95067  41.982  34.625  11.905
30083W        W95068  37.743  32.994   1.484
30084W        W95069  42.056  40.069  12.495
30085W        W95070  40.724  37.913   3.817
30086W        W95071  29.856  33.479   2.602
30087W        W95072  18.684  26.019   3.246
30088W        W95073  26.593  13.281  14.873
30089W        W95074   5.518  25.600  11.577
30090W        W95075  15.757   4.180  10.890
30091W        W95076  27.498  19.666   4.906
30092W        W95077   6.971  11.665   0.896
30093W        W95078  15.161  11.760  14.860
30094W        W95079  36.989  24.525   1.925
30095W        W95080   5.248  22.215   1.305
30096W        W95081  19.280  16.889   2.253
30097W        W95082  31.555  43.891   3.740
30098W        W95083  23.595  16.343   3.699
30099W        W95084  20.116  19.807   0.646
30100W        W95085   3.509  43.989   2.295
30101W        W95086  15.312  16.746   2.215
30102W        W95087  25.777  23.627   4.464
30103W        W95088   8.375  18.516  13.930
30104W        W95089  11.731  40.574   3.208
30105W        W95090   3.798  10.823   2.834
30106W        W95091  23.453  43.997   1.043
30107W        W95092   6.968   0.563   0.486
30108W        W95093  18.394  19.143   2.306
30109W        W95094  12.225   2.216   0.895
30110W        W95095   0.739   3.769  11.582
30111W        W95096  39.838  41.808   0.963
30112W        W95097  39.590   5.037   1.368
30113W        W95098   9.374  41.114   4.113
30114W        W95099  40.537  29.797  13.363
30115W        W95100  35.264  17.736   2.336
30116W        W95101  12.762   8.257   3.748
30117W        W95102  37.013  16.253   2.325
30118W        W95103  36.024  43.324  13.490
30119W        W95104  29.706  25.415   1.411
30120W        W95105  42.110  30.906  11.149
30121W        W95106  10.228  25.912   1.242
30122W        W95107   1.245  35.661   0.406
30123W        W95108  41.568  16.322   2.631
30124W        W95109  39.125  33.214  10.686
30125W        W95110  28.202  41.100   4.547
30126W        W95111  44.682  36.592   4.551
30127W        W95112  23.061  33.567  10.158
30128W        W95113  37.534  36.985   1.294
30129W        W95114   9.298   8.299  10.960
30130W        W95115   3.260  35.059  12.478
30131W        W95116  18.978   9.857   3.730
30132W        W95117  34.098  21.099  14.835
30133W        W95118  40.592  41.312   0.992
30134W        W95119  12.669  32.076  11.853
30135W        W95120  28.486   8.320  11.219
30136W        W95121  22.601  43.895  13.475
30137W        W95122   7.432  17.271  13.772
30138W        W95123  41.975  15.630   2.829
30139W        W95124  35.527  13.373   3.258
30140W        W95125  11.879  34.651   4.199
30141W        W95126   8.841  43.574   3.129
30142W        W95127  44.934  25.740  10.373
30143W        W95128  15.522  11.280   2.714
30144W        W95129  19.044  23.033   3.262
30145W        W95130  26.095  33.933   4.118
30146W        W95131  27.821  16.922  10.916
30147W        W95132  36.501  22.492   3.712
30148W        W95133   5.993  35.846  13.811
30149W        W95134  35.509  10.758  13.619
30150W        W95135  44.660   3.833   4.667
30151W        W95136  25.373  40.394  11.683
30152W        W95137  10.924  40.924  14.810
30153W        W95138  15.243   0.671   3.862
30154W        W95139  23.448  30.777   5.098
30155W        W95140  11.971   3.244   5.025
30156W        W95141  20.015  41.329  13.115
30157W        W95142  12.795  16.504  11.588
30158W        W95143  42.550   8.298  14.309
30159W        W95144   0.242  28.718  14.413
30160W        W95145   3.654   8.112   3.163
30161W        W95146  13.204  38.067   0.546
30162W        W95147  40.423  14.614   1.431
30163W        W95148  32.639  43.042   0.362
30164W        W95149  17.505   8.010   2.834
30165W        W95150  17.595  19.529   1.909
30166W        W95151   0.138  25.984   1.490
30167W        W95152   1.306  11.910   4.703
30168W        W95153  38.271  37.059   4.759
30169W        W95154   2.333   8.994  12.045
30170W        W95155  37.003  31.153   4.158
30171W        W95156  34.405  37.409   4.547
30172W        W95157  13.085  41.574  13.902
30173W        W95158  38.862  16.466   4.149
30174W        W95159  42.549  26.745   4.629
30175W        W95160   9.096  24.215   1.833
30176W        W95161  28.767   9.237  13.015
30177W        W95162   2.151  10.209   9.914
30178W        W95163  35.331  41.976  10.783
30179W        W95164   4.520   2.446  13.060
30180W        W95165  20.974  13.222   3.673
30181W        W95166  10.106   4.046   0.521
30182W        W95167  12.772  26.883  13.546
30183W        W95168  30.718  44.448  11.355
30184W        W95169   1.464  29.941  13.401
30185W        W95170  21.571  31.318   4.373
30186W        W95171   4.871  43.111  14.353
30187W        W95172   8.213  34.551   3.380
30188W        W95173  21.319  43.759   4.602
30189W        W95174  36.840  40.562  11.114
30190W        W95175   3.040  11.646  11.220
30191W        W95176  42.641  23.260   3.730
30192W        W95177  39.793  23.008   2.337
30193W        W95178  38.337  24.951  11.683
30194W        W95179  25.980  36.322   2.626
30195W        W95180  16.020  37.946   0.349
30196W        W95181  14.692  10.144   0.450
30197W        W95182  32.197   7.903  10.227
30198W        W95183  28.385  11.702   4.176
30199W        W95184  19.898   8.786  10.695
30200W        W95185  32.831  31.167   0.778
30201W        W95186  32.316   6.327  14.393
30202W        W95187   4.472  43.272   3.268
30203W        W95188  11.422   5.793  13.175
30204W        W95189   8.029  38.297  11.268
30205W        W95190  10.566  42.294  13.890
30206W        W95191   9.832  15.122   3.136
30207W        W95192  10.632  20.259  12.586
30208W        W95193   7.954  42.321   1.822
30209W        W95194  28.418  11.174   3.497
30210W        W95195   0.270  23.968   0.379
30211W        W95196  19.109  36.077  13.183
30212W        W95197  11.874  38.528  13.924
30213W        W95198  29.990  39.109  11.990
30214W        W95199   3.952  21.800   3.761
30215W        W95200  38.950  23.824  11.118
30216W        W95201  44.883  27.066  12.286
30217W        W95202  44.152  43.224   2.850
30218W        W95203  15.140   1.008   0.944
30219W        W95204  33.495  11.120  13.739
30220W        W95205  18.443   0.980   0.770
30221W        W95206  17.280   4.003  11.959
30222W        W95207  28.348  37.332  11.064
30223W        W95208   6.761  34.087   4.205
30224W        W95209  11.275  10.059  13.329
30225W        W95210  32.188   8.692   0.386
30226W        W95211  24.036  18.057  10.150
30227W        W95212   9.285  35.165  14.265
30228W        W95213  11.865  12.652   4.040
30229W        W95214  26.527   8.968  13.475
30230W        W95215  34.675  41.958   3.940
30231W        W95216  15.228  22.633  13.858
30232W        W95217  33.840  38.336  13.180
30233W        W95218  14.807  39.055   4.730
30234W        W95219  28.340  36.015  12.444
30235W        W95220  20.115  27.730  12.044
30236W        W95221  30.376  36.226   4.555
30237W        W95222  44.617  38.836   2.332
30238W        W95223  22.183  24.994   4.377
30239W        W95224   4.180  25.908  14.331
30240W        W95225  16.071   3.348  10.106
30241W        W95226   4.282  42.369   2.815
30242W        W95227  25.974  12.644   1.581
30243W        W95228  26.347  31.146  11.448
30244W        W95229  42.715  15.698   2.361
30245W        W95230  30.094  26.084   0.301
30246W        W95231  42.422  26.178  13.848
30247W        W95232  21.182  26.204  12.488
30248W        W95233  15.456  20.099  14.338
30249W        W95234  36.067  27.513  10.632
30250W        W95235  19.034  41.060   0.449
30251W        W95236  31.134  34.046  13.730
30252W        W95237  20.960   2.494   4.572
30253W        W95238  14.719   0.175  13.381
30254W        W95239  18.101  14.957  11.612
30255W        W95240  11.284   7.614   0.301
30256W        W95241   2.771  27.433  13.787
30257W        W95242   7.566  34.903   2.277
30258W        W95243  11.383  40.570   3.716
30259W        W95244  44.957  10.887  12.082
30260W        W95245  10.508  19.581   5.015
30261W        W95246   6.780  24.952  14.808
30262W        W95247  17.392  16.709   2.163
30263W        W95248  37.725  27.763   1.886
30264W        W95249  16.198  30.012  12.966
30265W        W95250   9.153  19.589  14.913
30266W        W95251  38.952  21.692  12.575
30267W        W95252  11.790  35.429  12.100
30268W        W95253  40.524  38.198  14.793
30269W        W95254  21.633  13.710  12.444
30270W        W95255   4.711  27.436  12.456
30271W        W95256  43.771  15.500  12.522
30272W        W95257  11.186   4.421   0.875
30273W        W95258  13.752  20.005   3.569
30274W        W95259  34.537   8.224   2.378
30275W        W95260  36.495   4.451  10.994
30276W        W95261  44.280   4.420   3.775
30277W        W95262  15.667  30.045   4.216
30278W        W95263   7.357  34.049  13.046
30279W        W95264  28.822  33.469  10.807
30280W        W95265  22.721   9.714  13.017
30281W        W95266  43.495  19.480  12.936
30282W        W95267  14.701  16.563  10.645
30283W        W95268  39.902   0.876   0.549
30284W        W95269  19.737  40.488  13.353
30285W        W95270   1.445  36.334  12.848
30286W        W95271  36.780  44.484  13.030
30287W        W95272  26.884   0.259   2.332
30288W        W95273  35.811  43.822   1.468
30289W        W95274  28.865   1.826  12.044
30290W        W95275   8.490  19.952   4.050
30291W        W95276   5.883  37.441   0.097
30292W        W95277  12.118  18.806  14.737
30293W        W95278   0.560  10.697   4.126
30294W        W95279   4.528  31.893  11.224
30295W        W95280  35.984  30.885   3.342
30296W        W95281   4.777  14.127  13.260
30297W        W95282   3.459   5.936  14.966
30298W        W95283  20.529  27.626   1.492
30299W        W95284  40.330  13.643   2.749
30300W        W95285  23.759  41.411   3.755
30301W        W95286  44.591  15.768   4.555
30302W        W95287  30.863  41.464   3.652
30303W        W95288  32.199  43.537  12.838
30304W        W95289  28.635  25.755   0.635
30305W        W95290  18.824   7.298   1.716
30306W        W95291  40.230   8.241   3.138
30307W        W95292  38.799   4.021  14.148
30308W        W95293  39.717  28.782  13.371
30309W        W95294  34.700  15.021  11.288
30310W        W95295  12.360  41.267  14.369
30311W        W95296   4.431  43.213  11.103
30312W        W95297  37.731   0.281  10.593
30313W        W95298  16.756  40.826   2.751
30314W        W95299  43.999  17.008   1.254
30315W        W95300  44.828  32.565   2.442
30316W        W95301   0.640  37.351  12.688
30317W        W95302  23.102   2.594  14.343
30318W        W95303  22.104  44.524  14.486
30319W        W95304  21.104  28.227  10.272
30320W        W95305   4.447  44.216   2.291
30321W        W95306   5.002   7.785   4.438
30322W        W95307   0.801  16.222   4.968
30323W        W95308  41.409  16.218   0.805
30324W        W95309  20.361  10.789  13.504
30325W        W95310   3.216  36.397   3.133
30326W        W95311  11.707  10.249   1.314
30327W        W95312  21.202  11.453  12.571
30328W        W95313  25.304  13.233   3.681
30329W        W95314  36.996  38.425   2.114
30330W        W95315  19.173  42.428  10.571
30331W        W95316  23.354  23.524  11.646
30332W        W95317  31.322  24.107  13.846
30333W        W95318  35.116  40.907   3.149
30334W        W95319   6.402  25.120  13.060
30335W        W95320   0.328  30.187   0.252
30336W        W95321  26.849  29.060  12.015
30337W        W95322   3.662   9.788  14.006
30338W        W95323  35.011  19.843  11.090
30339W        W95324  29.097   7.651   2.755
30340W        W95325  40.376  12.991  14.474
30341W        W95326  22.603  16.208  14.073
30342W        W95327   8.645   5.427   2.226
30343W        W95328  21.843  20.182   5.135
30344W        W95329  12.853  20.254  11.601
30345W        W95330  21.838  34.037  13.442
30346W        W95331  24.980  30.419   1.761
30347W        W95332  42.108   8.344   0.567
30348W        W95333  41.825   4.785   0.835
30349W        W95334   7.876  17.595   5.253
30350W        W95335  20.241  19.815   3.625
30351W        W95336   3.456  35.956   3.274
30352W        W95337  27.918  29.695   4.972
30353W        W95338   8.820  13.406  14.949
30354W        W95339  37.825  25.188   0.731
30355W        W95340   6.154  22.448  11.981
30356W        W95341  23.016  41.090  10.936
30357W        W95342  16.062  32.379  13.990
30358W        W95343  38.057  43.735   0.914
30359W        W95344  40.001  19.155   3.693
30360W        W95345  10.099  17.087  12.488
30361W        W95346  32.977   2.739   2.810
30362W        W95347  44.863  19.671  11.147
30363W        W95348   8.921  23.920  11.956
30364W        W95349  15.301  35.187  13.505
30365W        W95350  25.758  31.101   2.244
30366W        W95351  30.571  23.569   1.260
30367W        W95352   6.772  42.850  14.443
30368W        W95353  23.758  23.115  14.274
30369W        W95354  21.994  30.111   0.151
30370W        W95355   6.779   7.302  11.545
30371W        W95356   9.171  11.412  13.293
30372W        W95357  18.734  32.684   4.498
30373W        W95358  19.819  33.432  11.193
30374W        W95359   1.329  25.086   1.033
30375W        W95360  41.403  17.724  12.563
30376W        W95361  19.044  15.199  14.478
30377W        W95362  36.698  33.838  13.088
30378W        W95363  12.761  34.317   4.163
30379W        W95364  16.449  22.051  13.402
30380W        W95365  34.906  35.176  11.113
30381W        W95366  18.398   8.754   1.841
30382W        W95367  21.607  13.360  13.833
30383W        W95368  38.446  15.560  14.466
30384W        W95369  36.375  22.437  14.494
30385W        W95370  33.159  42.037  12.998
30386W        W95371  17.370   2.418  14.797
30387W        W95372  28.150  37.525  13.569
30388W        W95373  21.814  32.902   2.169
30389W        W95374   7.348  38.923  14.382
30390W        W95375  18.553  40.086  14.927
30391W        W95376  14.567  39.749   4.014
30392W        W95377  36.623  30.141  13.400
30393W        W95378   1.167  20.773  10.871
30394W        W95379  31.724   1.785  10.098
30395W        W95380  35.554  20.209   5.149
30396W        W95381  11.347  25.485   1.873
30397W        W95382  24.506  16.077   0.449
30398W        W95383   3.938  28.712   3.459
30399W        W95384  31.898  24.759   2.147
30400W        W95385  36.534  12.144  10.971
30401W        W95386  35.398  23.054  14.783
30402W        W95387  10.308  39.344   4.730
30403W        W95388  12.622  44.516  14.097
30404W        W95389  29.270  34.701   2.930
30405W        W95390  19.661   8.087  14.694
30406W        W95391  27.490  41.752  14.595
30407W        W95392  40.110  35.573   2.654
30408W        W95393   5.232   9.029  14.118
30409W        W95394   3.763  32.900   2.951
30410W        W95395  42.611  36.846   0.428
30411W        W95396  41.570  26.334  14.030
30412W        W95397  44.812  28.460  14.270
30413W        W95398   9.856  13.786  10.651
30414W        W95399   4.070  36.038  12.319
30415W        W95400  15.228  40.385   3.098
30416W        W95401  16.515  21.730  11.996
30417W        W95402  36.850  29.405  12.427
30418W        W95403   4.685   5.287   1.676
30419W        W95404  11.211   6.827   3.195
30420W        W95405  13.165   6.121  14.963
30421W        W95406   5.707  13.676  12.382
30422W        W95407  26.428  18.721   4.486
30423W        W95408  37.823  23.478   4.177
30424W        W95409  23.585  41.794  14.991
30425W        W95410  35.032  25.632  10.428
30426W        W95411   8.751   3.725  13.906
30427W        W95412   8.147  34.280  13.107
30428W        W95413  37.776  38.594   0.970
30429W        W95414  38.996  24.302  13.027
30430W        W95415  15.137   4.000  14.834
30431W        W95416  31.410  27.705  13.876
30432W        W95417   3.091  22.033  11.557
30433W        W95418  30.790   8.447   1.931
30434W        W95419  36.396   6.117   1.416
30435W        W95420  21.932  36.119  13.437
30436W        W95421  32.867  37.371   3.620
30437W        W95422   4.227   6.815  12.168
30438W        W95423  24.385  25.745   2.083
30439W        W95424  10.735  36.405   1.792
30440W        W95425   0.979  23.141  13.470
30441W        W95426  29.784  41.228   1.620
30442W        W95427  36.814  13.351  12.082
30443W        W95428   9.868   5.894   0.224
30444W        W95429  23.997  41.155  11.541
30445W        W95430  33.886  19.545  11.671
30446W        W95431  40.460  26.697  13.453
30447W        W95432  44.852  36.796   4.104
30448W        W95433  11.648  38.414  10.745
30449W        W95434   1.927  22.471  10.708
30450W        W95435   0.962  44.260   1.795
30451W        W95436  33.011  31.651  12.538
30452W        W95437   7.664  38.541   0.814
30453W        W95438  20.308  11.425   2.406
30454W        W95439  41.942  28.561   5.033
30455W        W95440  31.889  30.247  12.984
30456W        W95441  34.891  28.960   2.278
30457W        W95442  22.188  44.067  14.264
30458W        W95443  30.568  40.222  14.061
30459W        W95444  38.869  39.010   1.461
30460W        W95445  22.340  21.223   1.725
30461W        W95446  35.875  21.755   3.351
30462W        W95447  35.951  16.786  12.890
30463W        W95448   1.876  11.322  10.666
30464W        W95449  11.117  26.509  12.567
30465W        W95450   1.818   4.221  13.246
30466W        W95451  12.908  31.109  12.055
30467W        W95452  22.732  12.484  14.047
30468W        W95453   1.185  14.928   4.465
30469W        W95454  42.873   0.746   1.114
30470W        W95455   2.876  24.339   3.495
30471W        W95456  10.678   7.885  11.063
30472W        W95457  19.762  13.143   3.097
30473W        W95458  30.450  22.582  14.300
30474W        W95459  26.936  11.272  11.067
30475W        W95460  13.412  22.732  12.577
30476W        W95461   5.331  29.412  14.901
30477W        W95462  24.709   6.835  10.533
30478W        W95463  10.752   7.788   4.432
30479W        W95464  30.865  34.844  13.375
30480W        W95465   2.301   5.235   4.301
30481W        W95466   8.200  16.107   2.859
30482W        W95467   2.317   5.882  13.543
30483W        W95468   3.664  20.599   2.182
30484W        W95469   9.875  36.491   3.218
30485W        W95470  21.136   6.477  13.482
30486W        W95471  34.746  35.951  11.195
30487W        W95472   0.138  42.121  11.164
30488W        W95473  19.580  15.245  13.419
30489W        W95474  13.157  37.400   2.630
30490W        W95475   7.147  41.525   2.268
30491W        W95476  17.915  13.136   4.462
30492W        W95477  28.353  32.648   1.694
30493W        W95478  38.897  30.635   3.186
30494W        W95479  13.187  31.969   2.297
30495W        W95480  26.277  10.746   3.696
30496W        W95481  35.147  37.765   1.252
30497W        W95482  32.671  12.768   4.606
30498W        W95483  39.864  39.846   1.287
30499W        W95484   9.674   6.732  14.202
30500W        W95485  29.494   1.762  11.218
30501W        W95486  44.689   3.346   3.139
30502W        W95487   0.066  28.477   0.251
30503W        W95488  19.741  44.829   4.216
30504W        W95489  21.685  31.585  13.864
30505W        W95490   5.718  10.851   0.324
30506W        W95491  19.102  18.455  13.818
30507W        W95492  23.407  20.208  12.102
30508W        W95493  13.153  36.076   4.066
30509W        W95494   1.264  38.772  12.370
30510W        W95495  18.575  44.451  12.081
30511W        W95496  18.762  31.483   3.258
30512W        W95497  26.454  34.608   3.684
30513W        W95498  22.886   9.760  14.264
30514W        W95499  27.531  31.680   1.897
30515W        W95500   5.467  30.685   0.434
30516W        W95501  19.552  27.279  10.672
30517W        W95502  18.786  41.957  13.836
30518W        W95503  38.723  35.203   4.969
30519W        W95504  31.533  40.753   3.596
30520W        W95505  10.703  28.602  10.657
30521W        W95506  15.356  15.618  10.689
30522W        W95507   2.892   2.191   2.393
30523W        W95508  43.398  34.010  13.454
30524W        W95509  13.723  27.714   0.795
30525W        W95510   1.778   5.313  13.071
30526W        W95511  30.982  24.243   4.094
30527W        W95512  13.263  17.260  13.614
30528W        W95513  24.569  27.771   1.357
30529W        W95514  14.935   1.473   3.599
30530W        W95515   5.968  30.390  11.621
30531W        W95516   6.210  17.708  11.400
30532W        W95517  24.740  27.563  13.880
30533W        W95518  43.550  44.895  12.296
30534W        W95519  29.087  23.975  12.085
30535W        W95520  21.802  40.195  11.183
30536W        W95521  10.016  34.659   4.952
30537W        W95522  37.936  44.344   2.847
30538W        W95523   5.909  40.387   2.874
30539W        W95524  37.494  33.818  11.067
30540W        W95525  29.612  12.548   3.782
30541W        W95526  11.592  30.520   1.528
30542W        W95527  44.585  32.509   3.208
30543W        W95528  19.810  36.060  13.970
30544W        W95529  11.351  15.819  14.833
30545W        W95530   2.997   5.333  13.961
30546W        W95531  24.805  40.846  13.937
30547W        W95532   8.246  44.328   3.588
30548W        W95533  10.177  37.379   0.862
30549W        W95534  13.834  34.032  10.809
30550W        W95535  15.142  44.947   1.562
30551W        W95536  16.172  35.865  11.207
30552W        W95537  34.469  35.590   0.120
30553W        W95538  34.371   5.986   0.336
30554W        W95539  34.922  29.022  12.538
30555W        W95540   3.292  16.304   2.961
30556W        W95541   4.278  35.841   1.918
30557W        W95542  34.927   4.920  11.922
30558W        W95543  13.791  27.072  11.357
30559W        W95544  34.697  34.437  13.360
30560W        W95545   0.699  16.055  13.976
30561W        W95546   6.216  16.245  14.381
30562W        W95547   0.274  17.420   4.558
30563W        W95548  13.989  23.679   3.206
30564W        W95549  14.865   7.887   0.934
30565W        W95550  31.007  10.896   1.308
30566W        W95551  41.414  33.409   4.885
30567W        W95552  11.454  11.656  10.885
30568W        W95553  32.905   5.416   1.181
30569W        W95554  35.463   2.033  13.066
30570W        W95555   6.164   4.358  13.314
30571W        W95556  26.628   7.224   4.612
30572W        W95557   6.256  23.346   0.273
30573W        W95558  16.112  41.844  11.453
30574W        W95559  29.120  34.098   0.798
30575W        W95560  23.228  11.587   2.781
30576W        W95561  44.838   0.077   1.278
30577W        W95562  20.160  35.798   3.841
30578W        W95563   1.514  29.475   1.944
30579W        W95564  28.660  19.006   0.329
30580W        W95565  22.568  31.009  12.683
30581W        W95566  17.200  39.229   2.339
30582W        W95567  10.128   6.839   4.711
30583W        W95568  24.993  44.519   3.077
30584W        W95569   8.629  42.263  13.843
30585W        W95570  17.703  28.852   2.909
30586W        W95571  16.659  12.160   4.309
30587W        W95572  10.666  32.946  14.745
30588W        W95573  18.761  29.889   0.348
30589W        W95574  44.357  39.873  11.123
30590W        W95575  41.618  42.929  14.704
30591W        W95576  27.820  32.881  11.088
30592W        W95577  11.573   5.705   4.569
30593W        W95578   0.958  15.845  12.020
30594W        W95579  26.287   9.502   2.279
30595W        W95580  43.028  18.223   0.778
30596W        W95581   4.965  13.070  11.085
30597W        W95582  44.352  32.088   4.615
30598W        W95583  40.925   0.429  13.045
30599W        W95584  42.454  39.137   2.406
30600W        W95585   9.688   9.646  12.129
30601W        W95586  30.300  27.354  11.598
30602W        W95587  30.195  35.876  13.086
30603W        W95588   8.080  43.611  10.961
30604W        W95589  39.254   7.641   1.919
30605W        W95590   9.147  28.622  12.502
30606W        W95591  30.466  32.169  13.062
30607W        W95592  35.890  28.386  11.879
30608W        W95593   2.845  35.345  12.576
30609W        W95594   4.634   3.554   4.068
30610W        W95595   2.760  37.416   4.490
30611W        W95596  23.460  44.397  14.873
30612W        W95597  13.714  17.484   1.788
30613W        W95598   0.258   2.944   0.436
30614W        W95599  10.246  30.473  13.239
30615W        W95600   1.052   6.908  11.411
30616W        W95601  43.513   0.521   0.947
30617W        W95602  38.880  23.787   1.801
30618W        W95603   6.984  38.975  13.994
30619W        W95604   8.339  20.082   4.533
30620W        W95605  43.585  39.085   0.724
30621W        W95606   9.680  23.766  12.466
30622W        W95607  44.757   4.947  12.621
30623W        W95608  23.026   9.174   2.102
30624W        W95609  26.787  39.512  10.572
30625W        W95610  30.163   7.329  11.874
30626W        W95611  43.899   5.723  10.702
30627W        W95612  18.040  22.591   0.698
30628W        W95613   9.811  44.452   4.612
30629W        W95614  18.073   1.746  14.496
30630W        W95615  35.639  44.755  11.309
30631W        W95616  19.975   5.232   1.978
30632W        W95617   5.278   7.415  14.963
30633W        W95618  11.895  20.627   4.133
30634W        W95619  33.297  42.456   0.590
30635W        W95620  40.332  10.730   4.382
30636W        W95621  29.780  21.245  12.593
30637W        W95622   9.329  18.664   3.146
30638W        W95623   4.765  36.549  14.847
30639W        W95624  15.706  24.886  13.258
30640W        W95625  20.677  27.641  10.653
30641W        W95626   2.734  21.283  12.876
30642W        W95627  44.063  17.676  13.983
30643W        W95628  20.985  26.957  11.700
30644W        W95629  14.692  11.724   2.069
30645W        W95630  28.172  33.839   1.141
30646W        W95631   3.246  28.967  10.310
30647W        W95632   4.083  16.808  14.740
30648W        W95633  37.470  37.038  13.480
30649W        W95634  13.208  42.400  14.332
30650W        W95635  38.630  41.310   1.439
30651W        W95636  21.091  26.963  14.485
30652W        W95637  43.457   4.763  11.035
30653W        W95638   0.011  29.153   2.273
30654W        W95639  23.015   8.985   9.865
30655W        W95640  17.063   8.525   4.528
30656W        W95641  12.646   6.825  13.779
30657W        W95642  11.215  41.001   1.888
30658W        W95643  29.908  33.868  13.991
30659W        W95644  32.412  36.261  12.633
30660W        W95645  10.387  43.406  13.465
30661W        W95646  31.943  44.314   4.633
30662W        W95647  43.374   7.317  12.012
30663W        W95648   8.725   9.724   1.198
30664W        W95649  11.558  41.095   0.453
30665W        W95650  16.788  24.828   2.609
30666W        W95651  37.309  38.553   2.884
30667W        W95652  35.896   3.205   4.654
30668W        W95653  37.481  42.703   1.587
30669W        W95654  26.687   9.352  11.890
30670W        W95655  15.820  29.212  13.593
30671W        W95656  35.149  14.559  12.082
30672W        W95657  42.819  39.249   9.940
30673W        W95658   6.095  16.748  11.231
30674W        W95659   4.511  35.733  12.093
30675W        W95660  14.885  38.055  10.629
30676W        W95661   4.434  27.075   2.862
30677W        W95662   3.768  27.231   1.246
30678W        W95663  34.465  22.613  11.621
30679W        W95664   0.474  27.678   0.494
30680W        W95665   0.001   7.838  13.364
30681W        W95666  31.433  31.179  12.359
30682W        W95667  40.995   2.741   3.210
30683W        W95668  11.644  10.824   2.724
30684W        W95669  17.353  11.567  11.091
30685W        W95670  12.825  34.284   0.382
30686W        W95671  12.723  13.670   2.450
30687W        W95672  12.883  12.759   4.345
30688W        W95673   1.222  37.515  13.866
30689W        W95674  25.932  42.439  14.858
30690W        W95675   4.014  10.492   3.249
30691W        W95676  37.025  43.707  13.984
30692W        W95677   0.012  38.844   0.210
30693W        W95678  32.812  28.547   3.846
30694W        W95679   7.703   9.906  11.375
30695W        W95680  27.132  35.511   4.495
30696W        W95681  31.058  12.833   0.566
30697W        W95682  28.602  41.350  11.103
30698W        W95683  31.150  33.476   3.059
30699W        W95684  25.027  24.468   0.401
30700W        W95685  14.147  34.409   1.125
30701W        W95686  37.855  36.843   2.558
30702W        W95687  20.246  23.180   4.445
30703W        W95688  23.804   3.697  10.597
30704W        W95689  34.365  21.232   2.699
30705W        W95690   9.824  13.254  10.676
30706W        W95691  36.749   0.030  13.153
30707W        W95692  18.553  28.003  12.977
30708W        W95693  22.009   3.498   4.264
30709W        W95694   5.807  33.500  12.496
30710W        W95695  41.448  21.421  14.517
30711W        W95696  39.610   6.886  13.959
30712W        W95697  21.109  25.122   3.299
30713W        W95698  17.960   0.989   0.566
30714W        W95699  32.170   2.354  11.291
30715W        W95700  26.982  41.753  14.440
30716W        W95701  31.771  21.078  14.243
30717W        W95702  16.261  31.441  11.569
30718W        W95703  22.575  20.538   2.642
30719W        W95704   7.374  40.469  14.703
30720W        W95705  23.490   3.788  13.046
30721W        W95706  28.625   5.448   2.898
30722W        W95707  43.467  27.178  14.424
30723W        W95708  30.113  20.937  11.156
30724W        W95709  20.209  36.261   5.145
30725W        W95710  30.641  26.104  12.943
30726W        W95711  11.751  10.629  13.642
30727W        W95712  14.293  33.300   0.893
30728W        W95713  37.088  29.683  13.926
30729W        W95714  12.701  39.580   3.822
30730W        W95715   1.320  22.296  13.933
30731W        W95716  41.144  21.643   4.306
30732W        W95717  10.196  14.422   2.324
30733W        W95718  11.768  41.629   4.590
30734W        W95719  18.334  37.882  14.620
30735W        W95720  34.660  41.353  10.929
30736W        W95721   7.232   9.405   3.214
30737W        W95722  30.910  44.934  11.198
30738W        W95723   0.122   5.749   4.100
30739W        W95724  22.599   1.789   3.609
30740W        W95725  22.780  15.604  14.817
30741W        W95726  12.036  18.227   1.348
30742W        W95727  26.007  18.245  14.270
30743W        W95728  31.548   0.515  14.412
30744W        W95729  20.440   5.396   1.290
30745W        W95730  34.538  13.405  12.594
30746W        W95731   4.986   0.762  13.882
30747W        W95732  39.083   3.803  12.651
30748W        W95733  44.440  42.896  13.865
30749W        W95734  20.805  42.274   2.831
30750W        W95735  23.111  20.674   3.386
30751W        W95736  31.194   3.469  13.462
30752W        W95737  36.446   7.577  10.283
30753W        W95738   8.433   6.538   9.785
30754W        W95739  41.098  42.361   2.411
30755W        W95740  33.982  21.460   0.874
30756W        W95741  13.417  20.795  13.450
30757W        W95742  13.208   0.708  14.567
30758W        W95743  16.794  38.569   0.767
30759W        W95744   4.004  40.852   4.684
30760W        W95745  17.377  25.862   0.254
30761W        W95746  26.509   9.748   4.556
30762W        W95747   4.463  41.873  14.492
30763W        W95748  23.449  33.815  14.001
30764W        W95749   3.377   1.251  13.995
30765W        W95750  26.999  42.509   0.808
30766W        W95751  39.472   6.387   3.532
30767W        W95752   7.189  18.780   1.588
30768W        W95753   1.373  24.503  10.756
30769W        W95754  31.734   1.846   1.848
30770W        W95755  12.781  40.809  13.823
30771W        W95756  35.095  12.889   5.180
30772W        W95757  27.928  36.146  13.389
30773W        W95758  12.625  18.244   3.003
30774W        W95759  12.843  19.742  13.440
30775W        W95760  27.747  28.377  11.366
30776W        W95761  39.540  10.441   0.207
30777W        W95762   0.293  42.265  13.868
30778W        W95763  25.769  39.396   2.214
30779W        W95764  26.251   8.611   0.537
30780W        W95765  33.842  21.708  13.130
30781W        W95766  17.805  25.039  10.349
30782W        W95767  31.766  19.140  11.107
30783W        W95768  27.744  20.580   0.458
30784W        W95769  33.130  44.036   1.403
30785W        W95770  21.952  13.143   4.645
30786W        W95771  17.186  13.665  11.092
30787W        W95772   9.114  33.429  13.438
30788W        W95773  43.301  12.345   2.766
30789W        W95774  10.549   3.963   3.383
30790W        W95775  26.574  33.084   4.156
30791W        W95776  36.367  12.280  11.827
30792W        W95777  24.077  10.305  14.310
30793W        W95778  11.120  36.022  11.647
30794W        W95779  39.695   7.631   0.450
30795W        W95780  38.031  29.221   5.199
30796W        W95781  28.552  23.764  13.509
30797W        W95782  37.352  28.509  13.782
30798W        W95783  44.073  37.005   0.472
30799W        W95784  35.099  12.160  11.524
30800W        W95785  20.710  30.573   0.989
30801W        W95786  16.080  44.984  11.068
30802W        W95787  24.035  43.447  12.924
30803W        W95788  35.363   9.229   1.512
30804W        W95789   5.442  38.260  12.893
30805W        W95790  44.877   4.108  13.986
30806W        W95791   5.426  17.541   3.413
30807W        W95792  14.695  35.911  13.985
30808W        W95793  25.529  33.247  11.668
30809W        W95794   6.220   1.128   1.274
30810W        W95795   5.932  10.193  11.177
30811W        W95796   8.604  37.552  14.371
30812W        W95797  10.236  42.053  10.749
30813W        W95798  23.680  40.787   1.773
30814W        W95799  17.965  30.590   0.289
30815W        W95800   7.464  20.050   1.314
30816W        W95801  44.879  41.759  14.166
30817W        W95802   6.643  14.899   4.664
30818W        W95803  18.666  11.755  11.604
30819W        W95804  28.484  37.047  10.656
30820W        W95805  13.281  20.232  11.299
30821W        W95806   2.172  15.589  13.987
30822W        W95807   8.795   7.690  14.491
30823W        W95808   1.783   3.300  11.999
30824W        W95809  13.851  13.590  13.517
30825W        W95810   8.593  10.339   4.106
30826W        W95811  18.711  12.051   2.212
30827W        W95812  35.339  23.036   4.834
30828W        W95813  30.239   2.448  10.684
30829W        W95814  10.639   7.916  11.981
30830W        W95815   6.230  37.893  14.445
30831W        W95816  34.780  28.633   4.104
30832W        W95817  17.541  37.407   2.915
30833W        W95818  43.532  25.470   1.732
30834W        W95819  40.617   4.779   2.401
30835W        W95820   2.792  13.720   2.242
30836W        W95821  40.071   9.058  13.776
30837W        W95822  18.124  27.619  13.619
30838W        W95823  36.534  24.469   3.272
30839W        W95824  28.364  29.089  14.434
30840W        W95825   2.482   5.870  11.633
30841W        W95826  30.919  24.656   0.839
30842W        W95827  21.415   6.902   2.561
30843W        W95828  26.396   6.909   3.523
30844W        W95829  29.617  14.414   2.551
30845W        W95830  10.355  40.522  14.985
30846W        W95831  20.097  14.248   2.284
30847W        W95832  42.426  21.837  14.012
30848W        W95833  44.295  20.222   1.914
30849W        W95834   5.805  15.967   4.762
30850W        W95835   6.627  30.597  13.424
30851W        W95836  15.216   4.921   0.111
30852W        W95837  12.689  32.025  12.855
30853W        W95838  33.305  31.548   1.883
30854W        W95839  15.572  38.951  10.742
30855W        W95840   3.576  17.210   3.747
30856W        W95841  19.318   6.819   0.928
30857W        W95842  25.073  15.402  13.882
30858W        W95843   7.685   5.340   2.424
30859W        W95844   4.249  19.717   3.704
30860W        W95845  17.713  44.514   3.778
30861W        W95846  31.431  41.277  14.157
30862W        W95847  32.557  43.419  13.886
30863W        W95848   4.956  10.734  11.502
30864W        W95849  13.737  12.780   3.830
30865W        W95850   0.198   7.955  12.440
30866W        W95851  28.493  26.560  12.036
30867W        W95852  27.438  20.294   0.798
30868W        W95853  15.830  28.173   2.100
30869W        W95854  33.161   5.070   5.204
30870W        W95855  15.487  36.861  13.968
30871W        W95856   9.777  29.580   4.534
30872W        W95857   5.284   3.532  11.596
30873W        W95858  35.296  12.068   9.764
30874W        W95859  34.571  26.710   0.425
30875W        W95860  10.793   5.026   0.826
30876W        W95861  26.139  29.707  11.695
30877W        W95862  40.449  20.333   4.104
30878W        W95863  20.092  36.735  13.764
30879W        W95864  28.666  12.784   1.887
30880W        W95865   5.715  17.484   4.782
30881W        W95866  32.931  38.348   4.055
30882W        W95867  24.944  42.971   3.665
30883W        W95868  12.594  11.903  14.827
30884W        W95869  15.964  43.895   1.572
30885W        W95870  35.939  14.396  14.896
30886W        W95871  28.843  40.954  13.559
30887W        W95872  27.948  38.389  14.018
30888W        W95873  37.830  19.543  10.169
30889W        W95874  30.332  25.970  11.424
30890W        W95875  41.181  15.939   4.532
30891W        W95876   9.987  39.320  13.464
30892W        W95877  24.504  13.696   3.920
30893W        W95878   7.933   2.480   3.886
30894W        W95879  33.471  36.685  12.486
30895W        W95880  13.584   7.841  12.484
30896W        W95881  20.338  20.259   1.901
30897W        W95882   4.684  14.609  13.528
30898W        W95883  28.712  36.477   3.729
30899W        W95884  26.704  38.316   3.156
30900W        W95885   5.072  40.237  14.077
30901W        W95886  32.130  35.983   1.731
30902W        W95887  33.505  27.936  11.029
30903W        W95888  39.474  26.282   0.805
30904W        W95889   8.137  22.681  11.978
30905W        W95890  26.194  31.928   1.512
30906W        W95891  28.861  41.820  11.041
30907W        W95892  38.739  24.652  11.512
30908W        W95893  34.938   3.461   3.334
30909W        W95894   0.913  16.196   0.350
30910W        W95895  29.840  13.247  14.330
30911W        W95896   7.848  24.435  12.499
30912W        W95897  21.857  37.613   0.326
30913W        W95898  37.920  11.278   4.828
30914W        W95899   7.694  20.224   0.875
30915W        W95900  11.069   7.485  14.827
30916W        W95901   1.367  20.147   4.952
30917W        W95902  33.185  10.294   1.953
30918W        W95903  24.501  43.138   1.300
30919W        W95904  22.779  35.469  12.397
30920W        W95905  31.951   5.195  10.498
30921W        W95906  17.386  21.297  11.977
30922W        W95907  20.672  36.368  13.482
30923W        W95908  13.329  41.397  11.151
30924W        W95909  15.797  40.461  10.401
30925W        W95910  38.754  28.036  13.043
30926W        W95911  38.606  36.321  11.606
30927W        W95912  15.149   2.444   0.921
30928W        W95913  23.715  16.266   0.727
30929W        W95914  37.153   4.800   3.182
30930W        W95915  42.812   7.859   1.159
30931W        W95916  32.631   2.434  14.808
30932W        W95917  36.181   0.378  14.539
30933W        W95918  42.928  31.147   1.601
30934W        W95919  22.705  19.895  14.099
30935W        W95920  41.457  11.397  12.959
30936W        W95921  15.222  42.827  11.839
30937W        W95922   4.304  41.314  13.025
30938W        W95923  24.961  12.651   2.306
30939W        W95924   6.195   1.279  11.176
30940W        W95925  24.649  26.549  13.840
30941W        W95926  27.148   6.765  11.941
30942W        W95927  28.355  23.155   1.548
30943W        W95928  16.077  23.948   2.703
30944W        W95929  36.697  35.955   3.722
30945W        W95930  18.052  11.081   3.655
30946W        W95931   5.236  20.805  14.917
30947W        W95932  33.062  24.727   1.320
30948W        W95933   6.189  38.633  14.895
30949W        W95934  19.011  10.355  13.345
30950W        W95935  44.087  18.056   2.779
30951W        W95936  23.011  29.494   4.578
30952W        W95937  27.054   7.840  12.993
30953W        W95938  18.390  26.939   9.952
30954W        W95939  23.390  31.343  11.556
30955W        W95940  33.146  11.011   2.827
30956W        W95941  25.720   2.416   3.161
30957W        W95942  20.144  13.684  13.509
30958W        W95943  35.636  34.903  10.690
30959W        W95944  29.193  43.151  12.091
30960W        W95945   1.220   9.898   4.196
30961W        W95946  15.609  21.146  12.613
30962W        W95947  10.366  21.322   2.414
30963W        W95948  26.559  25.504   0.418
30964W        W95949  12.199  35.893  12.928
30965W        W95950  28.454   8.243  13.452
30966W        W95951   0.561   5.964   4.919
30967W        W95952   8.154  15.700  13.464
30968W        W95953   8.169  28.310  11.111
30969W        W95954  28.899  25.067   3.736
30970W        W95955  29.689  29.819   1.329
30971W        W95956  42.788   5.990  14.827
30972W        W95957   2.147  16.370  10.550
30973W        W95958  29.509  20.178  12.442
30974W        W95959   2.426  31.261   4.695
30975W        W95960  11.627  29.708  11.261
30976W        W95961   4.235  21.833   0.382
30977W        W95962  17.975   4.362   2.581
30978W        W95963  19.596  12.739  12.647
30979W        W95964  19.816   8.331  13.881
30980W        W95965   2.103  39.248  12.514
30981W        W95966  41.378  23.803  14.772
30982W        W95967  37.164  40.530  10.722
30983W        W95968  16.760   7.064   5.374
30984W        W95969   3.864   4.770   4.195
30985W        W95970  15.814  24.328   4.146
30986W        W95971   1.225   5.890   2.152
30987W        W95972  16.118  18.754   3.189
30988W        W95973  22.070  14.578   0.924
30989W        W95974  42.523   1.509  10.369
30990W        W95975  39.398  38.843  13.108
30991W        W95976  14.527  36.472   4.243
30992W        W95977  35.975  32.150  14.841
30993W        W95978  36.026  40.963   1.639
30994W        W95979   2.493  12.386   2.692
30995W        W95980  38.405  36.996   3.767
30996W        W95981  37.298   4.344  14.295
30997W        W95982  21.004  42.493   1.882
30998W        W95983  39.407  12.575   3.245
30999W        W95984  15.861   7.274   1.269
31000W        W95985  26.654   0.420   3.698
31001W        W95986  25.114  44.817  13.617
31002W        W95987  28.509  35.488  13.708
31003W        W95988  22.058  42.686  13.717
31004W        W95989  17.107  22.524   1.450
31005W        W95990  44.252  24.622   2.296
31006W        W95991  29.583  11.721   3.065
31007W        W95992   1.757  29.913   2.276
31008W        W95993  21.179   8.694   2.241
31009W        W95994  42.223  40.578   0.905
31010W        W95995  37.283  29.787   0.734
31011W        W95996  32.214  19.804  10.280
31012W        W95997   8.180   8.388   4.569
31013W        W95998  32.118  13.888   2.162
31014W        W95999   5.088   8.317   1.459
31015W        W96000  16.530  31.684  12.982
31016W        W96001  13.583  37.950   3.931
31017W        W96002  26.556  36.549  12.173
31018W        W96003  15.834   3.484   3.156
31019W        W96004  40.826  27.111  14.895
31020W        W96005  42.770  21.049   0.216
31021W        W96006  30.097  43.878  13.408
31022W        W96007  35.668  40.326   2.132
31023W        W96008  17.546  22.176   0.410
31024W        W96009  22.907  22.929   1.227
31025W        W96010   4.500   0.456  12.002
31026W        W96011  25.540   7.126   2.257
31027W        W96012  30.934  32.085   3.302
31028W        W96013  26.276   6.423   3.348
31029W        W96014  41.448  20.328  12.468
31030W        W96015   4.462  22.531   3.287
31031W        W96016  32.936  35.258   2.029
31032W        W96017  15.191  37.574   0.787
31033W        W96018  31.906  34.067  11.337
31034W        W96019  36.534   5.617   1.446
31035W        W96020  26.805  12.788  14.896
31036W        W96021  17.346  25.018  13.713
31037W        W96022   7.138  17.524  11.054
31038W        W96023  33.593  32.358  11.415
31039W        W96024  21.357  33.202  13.415
31040W        W96025  22.201   6.056  11.467
31041W        W96026  40.273  14.361   3.224
31042W        W96027  17.805  30.739  12.086
31043W        W96028  19.887  17.046   4.122
31044W        W96029  11.803  29.147  12.562
31045W        W96030  43.007  25.694  12.310
31046W        W96031   1.031  26.881   0.886
31047W        W96032  41.281   7.386   0.816
31048W        W96033  43.015  28.108   3.750
31049W        W96034  40.459  26.907   4.885
31050W        W96035   7.765  42.473  12.902
31051W        W96036  39.506  12.017  10.704
31052W        W96037  34.736  42.770   2.766
31053W        W96038  41.099   5.273  14.878
31054W        W96039  31.752  20.758   0.452
31055W        W96040  32.624   8.574   3.589
31056W        W96041   4.568  33.636   2.657
31057W        W96042  24.248   8.268  13.623
31058W        W96043  12.622  28.576  14.761
31059W        W96044  41.506  23.089   5.400
31060W        W96045  33.897   1.806  10.521
31061W        W96046  21.555   0.342  14.831
31062W        W96047  12.705  33.274   0.350
31063W        W96048  43.954   2.556  12.330
31064W        W96049   6.614  42.831  13.966
31065W        W96050  14.659   7.306  14.132
31066W        W96051  41.383  27.033  14.039
31067W        W96052   5.677  27.754   2.997
31068W        W96053   8.878  27.539  13.857
31069W        W96054  29.341  20.070   1.760
31070W        W96055   3.534  22.305   2.693
31071W        W96056   5.474  28.065  13.922
31072W        W96057  20.022  31.114  13.494
31073W        W96058   1.738  41.021   3.178
31074W        W96059  15.613  31.110  11.169
31075W        W96060  15.292  18.364   0.867
31076W        W96061  28.377  28.707   3.603
31077W        W96062   8.939  13.083   1.404
31078W        W96063  22.658  11.182  10.248
31079W        W96064  34.611  43.743  14.784
31080W        W96065  21.225  36.242  14.268
31081W        W96066  19.663  25.900   0.906
31082W        W96067  23.972  13.762   4.577
31083W        W96068  29.150  41.415   0.659
31084W        W96069  30.041  38.616  12.191
31085W        W96070   3.834  30.544  10.646
31086W        W96071   6.224   0.075   3.626
31087W        W96072  26.066  12.821  11.105
31088W        W96073  13.424   7.761  10.970
31089W        W96074   0.954   6.733   0.834
31090W        W96075   7.709  29.221   3.186
31091W        W96076  10.179   9.743  12.042
31092W        W96077  14.362  25.625   3.406
31093W        W96078  20.881  37.851  12.461
31094W        W96079  26.910  26.188   0.032
31095W        W96080  31.871   5.277   0.472
31096W        W96081  19.479   8.636  13.591
31097W        W96082  37.531  28.521   3.136
31098W        W96083  39.259  35.875  14.962
31099W        W96084  34.499  25.047   0.219
31100W        W96085   5.413  43.247   2.365
31101W        W96086  16.537  32.493   2.823
31102W        W96087   4.478  16.507   2.420
31103W        W96088   1.323  14.317  10.893
31104W        W96089  20.231  37.788   2.905
31105W        W96090   9.449  22.627   0.924
31106W        W96091  27.389  10.280  13.912
31107W        W96092   8.768  38.340   3.150
31108W        W96093  41.132  13.740   0.997
31109W        W96094  36.036   9.457  10.647
31110W        W96095  40.076  37.596   1.685
31111W        W96096  42.944  38.511   0.921
31112W        W96097  12.301  40.544   0.532
31113W        W96098   7.471  40.037  11.516
31114W        W96099  41.859  17.622   1.882
31115W        W96100  19.167  44.218   4.530
31116W        W96101  14.050  16.616   1.455
31117W        W96102  36.114  30.321   4.626
31118W        W96103  30.919  13.254   2.140
31119W        W96104  44.818  44.766   0.773
31120W        W96105  33.486  24.738  11.502
31121W        W96106  19.705   1.179   0.005
31122W        W96107  43.103  44.510  12.055
31123W        W96108   6.746  16.912   0.434
31124W        W96109  35.495  12.536   2.767
31125W        W96110   8.125   9.997   4.174
31126W        W96111  29.471  19.156  13.411
31127W        W96112  32.520  24.195   4.306
31128W        W96113  44.003  36.970  12.667
31129W        W96114   2.577  26.456   3.583
31130W        W96115   5.021  19.168  14.102
31131W        W96116   4.775   7.872   1.699
31132W        W96117  16.753   3.801  10.748
31133W        W96118   8.237  41.324   2.558
31134W        W96119  41.843  11.698  12.810
31135W        W96120  11.217   5.081   0.504
31136W        W96121   9.852  21.201  11.956
31137W        W96122   0.614  11.250  12.191
31138W        W96123   1.999  33.934   0.385
31139W        W96124  22.523   0.340   0.765
31140W        W96125  16.395  36.575   2.367
31141W        W96126   0.980  30.554  13.870
31142W        W96127  12.834  41.311   3.369
31143W        W96128  28.777  32.361   2.378
31144W        W96129  39.973  35.667  12.490
31145W        W96130   1.945  14.124   0.741
31146W        W96131  38.990   0.540   1.963
31147W        W96132   0.879   1.563   9.846
31148W        W96133  33.501  12.559  14.104
31149W        W96134  42.853  20.533   1.851
31150W        W96135  22.467  31.294   0.274
31151W        W96136  20.867   6.220  11.167
31152W        W96137  44.776   0.539   0.007
31153W        W96138   6.985  27.224   0.384
31154W        W96139   9.153  39.773  13.540
31155W        W96140  43.964  15.141   3.493
31156W        W96141  24.094  41.541   2.898
31157W        W96142   4.686  21.426   2.141
31158W        W96143  32.353  36.148  13.283
31159W        W96144   1.436  14.060   0.981
31160W        W96145  30.332  10.848  14.300
31161W        W96146  24.552   1.518  11.437
31162W        W96147  25.012  15.530  14.853
31163W        W96148  40.762   7.717  11.998
31164W        W96149  34.272  10.920   5.072
31165W        W96150  34.803  32.047   2.766
31166W        W96151  27.012  17.829  13.882
31167W        W96152  18.732  26.409   2.855
31168W        W96153   3.013  44.298   3.208
31169W        W96154  34.685   6.659  12.134
31170W        W96155   6.906  20.225   2.208
31171W        W96156   0.406  38.543  12.693
31172W        W96157   6.656   4.897   2.671
31173W        W96158  14.189  21.104  12.370
31174W        W96159  30.072   0.719  13.437
31175W        W96160   1.855  11.172   4.270
31176W        W96161   2.849  34.466   4.080
31177W        W96162  11.075  41.386  11.446
31178W        W96163  13.214  26.235   0.429
31179W        W96164  17.574   9.420   3.079
31180W        W96165   6.778  18.779   3.333
31181W        W96166  38.819   7.364  14.649
31182W        W96167   3.951  24.163  12.942
31183W        W96168  24.568  27.908  11.236
31184W        W96169  10.887  24.033   1.188
31185W        W96170  27.823  24.480   3.708
31186W        W96171  39.377  40.097  11.166
31187W        W96172  16.096  16.286   2.881
31188W        W96173  11.341   8.346  14.792
31189W        W96174   0.920  33.562   1.186
31190W        W96175  33.556   1.934  12.369
31191W        W96176  33.416  36.845   2.958
31192W        W96177   9.454   5.010   4.590
31193W        W96178  39.301  10.313   4.541
31194W        W96179  40.017   1.950   4.016
31195W        W96180   9.432  41.797   2.216
31196W        W96181  36.044  40.859   1.143
31197W        W96182   9.658  33.558  12.596
31198W        W96183  17.075  18.574  13.799
31199W        W96184  23.986  24.305  11.627
31200W        W96185  19.591  23.583  12.369
31201W        W96186   8.258  39.975   0.311
31202W        W96187  10.444  19.967  14.695
31203W        W96188  44.889  22.506  11.513
31204W        W96189  22.545  29.948   4.955
31205W        W96190   2.519  30.413   4.082
31206W        W96191  24.247  33.887  13.051
31207W        W96192  41.198  10.676  11.625
31208W        W96193  41.827  35.144   0.832
31209W        W96194  19.017   3.019   3.157
31210W        W96195  22.183  22.680   1.162
31211W        W96196   9.317  41.446   0.856
31212W        W96197  35.202  24.706   4.800
31213W        W96198   6.518  29.265  14.459
31214W        W96199  10.500  11.868   4.141
31215W        W96200  12.381  12.839   0.669
31216W        W96201  33.415   1.972  13.368
31217W        W96202  30.703  17.761  11.602
31218W        W96203  44.368  13.083   2.419
31219W        W96204  15.502  30.746  11.526
31220W        W96205  31.872  23.229  10.734
31221W        W96206  40.271  12.304  12.368
31222W        W96207   7.247  37.721   0.732
31223W        W96208  40.311  29.223   4.513
31224W        W96209  17.735  29.474   1.632
31225W        W96210  40.101   7.268   1.720
31226W        W96211   3.623  10.205  12.817
31227W        W96212  44.069  24.435  12.602
31228W        W96213   6.084  14.792  13.321
31229W        W96214  16.375  22.152  10.709
31230W        W96215  21.645  42.990   1.320
31231W        W96216  35.227   2.213  14.836
31232W        W96217  31.586  32.127   0.454
31233W        W96218   4.802  44.808  10.627
31234W        W96219  37.156  34.867  10.540
31235W        W96220  23.029   1.011   2.708
31236W        W96221   1.330  38.430   4.431
31237W        W96222  38.542  38.962  13.875
31238W        W96223   7.581  14.545   0.806
31239W        W96224  40.517  23.247  11.089
31240W        W96225  21.963  32.955   1.347
31241W        W96226   5.308  15.338  11.043
31242W        W96227  36.142  31.599   3.741
31243W        W96228   2.881  24.001   1.477
31244W        W96229   5.759  25.008   4.971
31245W        W96230  15.365  29.193  13.969
31246W        W96231  16.805  32.078   3.766
31247W        W96232   2.849  29.885   3.761
31248W        W96233  19.163   5.353  12.153
31249W        W96234  43.940   6.906   3.749
31250W        W96235  11.210  44.398  12.009
31251W        W96236  29.859   9.437   3.683
31252W        W96237  15.414  44.440  11.145
31253W        W96238  17.773  25.441   4.282
31254W        W96239  25.166  23.000  10.608
31255W        W96240  24.709  14.713   4.162
31256W        W96241  44.362   9.790  13.970
31257W        W96242  22.345  29.819  14.914
31258W        W96243  37.908   9.303  12.000
31259W        W96244  14.887  44.453  11.116
31260W        W96245   8.330  36.155  14.843
31261W        W96246  12.639   6.706   1.167
31262W        W96247  30.398  18.345   2.465
31263W        W96248  28.144  36.836  10.329
31264W        W96249  12.093   2.871  11.222
31265W        W96250  14.099  41.890   3.236
31266W        W96251  20.407  23.055   4.917
31267W        W96252  29.491  15.666  14.781
31268W        W96253   2.514   8.381  14.061
31269W        W96254  11.837  36.931  11.646
31270W        W96255  30.285   2.302  11.221
31271W        W96256  43.633  16.489  10.264
31272W        W96257   0.965   6.667   3.641
31273W        W96258  42.799  28.071  11.835
31274W        W96259   5.834   9.316   4.298
31275W        W96260  34.170  17.524   4.545
31276W        W96261  39.525  26.461   2.488
31277W        W96262  34.880  43.053  11.935
31278W        W96263   4.876  35.158  12.850
31279W        W96264  42.429  33.377  12.161
31280W        W96265  40.792  36.705   2.260
31281W        W96266  33.087  24.846   1.857
31282W        W96267  44.445  26.004   4.177
31283W        W96268  31.650  16.606  12.787
31284W        W96269   7.126  28.662  12.624
31285W        W96270  27.311   8.452   0.514
31286W        W96271  38.628  24.118  13.956
31287W        W96272   5.609  33.181  12.122
31288W        W96273   1.830  21.024   3.040
31289W        W96274  43.103  27.697   3.479
31290W        W96275  36.432  34.848   3.800
31291W        W96276  31.497   0.692  10.981
31292W        W96277  29.142  22.225  14.545
31293W        W96278   0.788   1.462   3.458
31294W        W96279   8.365   0.694  12.889
31295W        W96280  20.330  38.073  13.379
31296W        W96281   5.490  44.684  11.937
31297W        W96282  13.757  43.323  12.569
31298W        W96283  42.489  38.369   1.866
31299W        W96284  15.245   9.835  12.709
31300W        W96285  37.587  18.752  13.018
31301W        W96286   9.655  41.601  11.389
31302W        W96287  44.764  21.237  13.929
31303W        W96288  17.340  11.699   4.585
31304W        W96289  11.735  21.819   2.342
31305W        W96290  29.942  32.179  12.931
31306W        W96291  42.273  23.171   1.426
31307W        W96292  30.920   9.786  10.462
31308W        W96293  14.036  39.047  12.792
31309W        W96294  41.423   4.396  13.306
31310W        W96295  32.339   3.314   1.623
31311W        W96296   8.247  31.985  11.538
31312W        W96297  23.691  15.750  11.730
31313W        W96298  21.295  39.499   4.599
31314W        W96299  23.279   5.728  10.647
31315W        W96300  24.355   4.672   2.136
31316W        W96301  24.946  39.507   0.479
31317W        W96302  27.614  22.688  14.858
31318W        W96303   2.012  24.762  12.090
31319W        W96304   1.218  12.427  12.833
31320W        W96305  38.308  16.302   0.538
31321W        W96306  40.473  31.655   0.983
31322W        W96307  12.080  44.302  11.093
31323W        W96308  24.434   1.529  13.763
31324W        W96309  41.587  14.766  10.634
31325W        W96310  36.155  38.064   1.361
31326W        W96311  11.118  41.155  12.132
31327W        W96312   3.869   8.956  14.891
31328W        W96313   3.696  41.245  14.379
31329W        W96314   1.417  39.346   4.783
31330W        W96315  37.048   5.370   3.766
31331W        W96316  31.334  36.290   4.749
31332W        W96317  34.781  37.568  13.458
31333W        W96318  18.519  33.755   0.191
31334W        W96319  23.687  18.764   3.523
31335W        W96320   0.773  19.490  11.000
31336W        W96321  36.516  23.351   4.208
31337W        W96322  12.070  41.247  10.473
31338W        W96323  44.479  39.133   2.737
31339W        W96324   5.931  42.970  11.143
31340W        W96325   5.246  43.117  13.949
31341W        W96326   3.223   1.228   2.677
31342W        W96327  12.115  40.549   4.166
31343W        W96328   4.164  34.890  11.103
31344W        W96329   2.151  42.637  13.435
31345W        W96330  38.979   1.095   0.565
31346W        W96331  23.794  40.854  12.517
31347W        W96332  12.100  18.158   2.244
31348W        W96333  14.088  19.231  10.698
31349W        W96334   9.113  37.773  13.993
31350W        W96335  20.718  44.400  11.515
31351W        W96336  17.030   7.399   3.607
31352W        W96337  17.081   5.357   1.947
31353W        W96338  18.562   5.990  13.022
31354W        W96339   8.771  35.344   4.179
31355W        W96340  25.218   3.329   1.148
31356W        W96341  32.191  31.435  11.556
31357W        W96342  17.071  11.764   3.195
31358W        W96343  39.909  30.986  13.236
31359W        W96344  37.883  31.081   2.618
31360W        W96345  23.094  12.269  11.817
31361W        W96346   3.811  19.190  14.326
31362W        W96347   9.403  21.645  12.782
31363W        W96348  39.519   9.627  13.520
31364W        W96349  24.590  31.630   2.598
31365W        W96350  23.611  13.382   1.731
31366W        W96351  25.971   8.172   2.745
31367W        W96352  15.257  10.017   2.094
31368W        W96353  16.307   2.829   2.728
31369W        W96354  14.762  25.092   2.828
31370W        W96355   0.380  10.110   4.619
31371W        W96356  22.078  16.001  13.475
31372W        W96357  35.131  19.594   0.857
31373W        W96358  25.977  19.995  13.426
31374W        W96359  39.084  38.567   1.298
31375W        W96360   2.108  25.515   2.378
31376W        W96361  24.645  43.632   1.302
31377W        W96362  36.499  36.545   3.111
31378W        W96363  25.033  30.310  12.412
31379W        W96364  22.729  39.370  11.127
31380W        W96365   2.695  36.495   3.147
31381W        W96366   2.345  11.727   1.901
31382W        W96367  17.596  17.143   3.449
31383W        W96368  24.510  20.343  14.376
31384W        W96369  12.336  18.587   3.731
31385W        W96370  40.818  13.191   3.479
31386W        W96371   2.864  44.002  14.900
31387W        W96372  28.465   5.309  10.829
31388W        W96373  34.899  11.198   2.058
31389W        W96374  24.483  12.427  10.785
31390W        W96375   9.208  17.736   1.327
31391W        W96376  11.186  28.261  14.146
31392W        W96377  22.715   1.855   2.043
31393W        W96378  34.342  14.322  10.716
31394W        W96379   2.319  33.410   0.077
31395W        W96380  21.826   1.678   5.131
31396W        W96381  19.638  17.318  13.074
31397W        W96382  27.166  22.692   0.715
31398W        W96383   2.841   0.419  11.558
31399W        W96384  36.861   4.643   4.476
31400W        W96385   7.822  44.447   3.886
31401W        W96386  34.906  37.044   4.439
31402W        W96387  23.805   0.990   3.157
31403W        W96388  10.323  17.480   0.526
31404W        W96389  44.218  14.908   2.766
31405W        W96390  31.828  16.684   1.324
31406W        W96391  23.166  38.341  11.536
31407W        W96392  24.787  41.414   3.769
31408W        W96393   3.352  22.146  13.896
31409W        W96394  32.753  27.006  13.878
31410W        W96395  15.622   6.803  12.725
31411W        W96396  41.488   3.877   0.352
31412W        W96397  30.466  37.176   3.788
31413W        W96398  19.302  24.029   2.810
31414W        W96399  37.531  22.764  11.225
31415W        W96400  26.186  32.603   4.942
31416W        W96401   5.387  26.086  11.757
31417W        W96402  32.563  36.465   3.227
31418W        W96403  13.845  19.123  12.956
31419W        W96404  41.971   9.703   4.726
31420W        W96405  24.510  34.287   4.055
31421W        W96406  23.557  22.169  11.897
31422W        W96407  21.255  12.425   1.001
31423W        W96408   2.000  30.610  12.092
31424W        W96409  23.149  28.068   4.855
31425W        W96410  21.271  27.395  11.616
31426W        W96411  22.195  15.625   4.169
31427W        W96412  14.767  28.742   2.033
31428W        W96413  38.026  13.396   1.827
31429W        W96414  32.930  24.643   4.360
31430W        W96415  25.155  38.785   4.476
31431W        W96416  32.153  25.564   1.986
31432W        W96417   4.404  30.822   2.493
31433W        W96418  27.341   9.159   3.327
31434W        W96419  30.121  29.148   1.829
31435W        W96420  29.183   5.022  10.209
31436W        W96421  16.873  40.514  11.991
31437W        W96422   7.809  26.724  12.037
31438W        W96423  35.560  44.935   2.768
31439W        W96424  19.555   5.672   1.283
31440W        W96425  17.144  12.871  13.561
31441W        W96426   8.170  26.975   2.710
31442W        W96427  31.043   0.829   4.626
31443W        W96428  40.686   6.131   4.117
31444W        W96429  10.483  33.571   4.492
31445W        W96430  35.498   3.884  14.087
31446W        W96431   4.176  32.098   3.166
31447W        W96432   4.470   4.762  13.538
31448W        W96433  40.468  13.788  13.433
31449W        W96434  40.371  20.241  13.858
31450W        W96435   4.466  24.733   0.387
31451W        W96436  27.246  35.047  15.000
31452W        W96437  26.052   6.711  11.061
31453W        W96438  27.041  17.844  12.966
31454W        W96439  42.969   4.553  14.957
31455W        W96440  14.418  14.608  14.301
31456W        W96441  16.523  21.496   1.002
31457W        W96442  18.829  10.675   4.576
31458W        W96443  22.946   8.672  11.963
31459W        W96444  33.708   6.950   4.011
31460W        W96445  41.796  36.433   3.147
31461W        W96446  35.488  26.482   0.359
31462W        W96447  30.446  29.761   3.246
31463W        W96448   6.208  10.612   4.122
31464W        W96449  33.684  28.802   1.271
31465W        W96450  31.126  26.979   4.196
31466W        W96451  15.431  23.116  14.035
31467W        W96452  21.054  41.323  11.308
31468W        W96453  37.601   0.230  13.305
31469W        W96454  44.328  35.401  14.125
31470W        W96455  13.343   3.021   0.729
31471W        W96456  27.448  42.080  11.417
31472W        W96457   2.708  15.234  14.559
31473W        W96458   6.174  21.517  11.787
31474W        W96459   3.743  43.846  10.750
31475W        W96460  30.664  32.602   1.936
31476W        W96461  41.983  12.872   2.823
31477W        W96462  24.160   4.136   0.797
31478W        W96463  27.448  27.464   0.245
31479W        W96464  31.435  40.360  13.991
31480W        W96465   9.867  28.634   3.280
31481W        W96466   2.479  22.284   4.084
31482W        W96467  44.425  19.533   3.679
31483W        W96468  32.087   5.867  11.122
31484W        W96469  19.752   0.820  11.229
31485W        W96470   5.464  15.523   4.796
31486W        W96471   5.053  18.666  12.894
31487W        W96472  42.298   5.854  10.758
31488W        W96473  44.350   5.874   0.310
31489W        W96474   1.089  44.636   2.666
31490W        W96475  21.228  33.343   9.939
31491W        W96476  29.400  41.454   3.320
31492W        W96477  13.706  18.182   4.152
31493W        W96478   0.499  42.543  11.222
31494W        W96479   8.424   8.363   1.304
31495W        W96480  13.379   7.423   3.760
31496W        W96481  33.406   0.272  14.525
31497W        W96482   6.713  26.508   2.657
31498W        W96483   7.227  40.257  11.107
31499W        W96484  38.480  21.518  12.400
31500W        W96485   2.334   4.434  12.439
31501W        W96486  18.146  32.623  11.524
31502W        W96487  27.183   8.725  12.399
31503W        W96488  13.771  11.644   1.454
31504W        W96489  28.013  32.974  12.364
31505W        W96490  42.866  21.426  13.363
31506W        W96491  35.958  26.568  11.728
31507W        W96492   5.425   2.185   4.568
31508W        W96493   7.739  23.522  11.566
31509W        W96494  11.422  40.988  14.965
31510W        W96495  18.316   7.396   3.074
31511W        W96496  16.549  24.154  14.899
31512W        W96497  17.838  32.533   3.220
31513W        W96498  17.068   8.195  14.461
31514W        W96499  16.350  32.536  12.955
31515W        W96500   2.789   8.134  14.457
31516W        W96501  19.029  43.917  10.744
31517W        W96502   2.488  36.100  12.493
31518W        W96503   4.825  14.772  10.527
31519W        W96504  16.844  27.723   0.284
31520W        W96505  28.100  39.088   1.153
31521W        W96506   1.770   0.896  12.888
31522W        W96507  38.566  30.102   2.600
31523W        W96508   7.697  16.021  12.068
31524W        W96509  14.519  14.578   2.273
31525W        W96510  33.352   3.418  11.563
31526W        W96511  15.703  39.772   0.580
31527W        W96512  29.423  37.372  13.023
31528W        W96513  16.428  23.341  13.858
31529W        W96514   3.345  17.319  12.290
31530W        W96515  15.626  40.236   0.356
31531W        W96516   8.164  10.450  11.964
31532W        W96517  20.177  30.482   4.112
31533W        W96518  42.553  44.131   1.554
31534W        W96519   4.845  42.571  13.421
31535W        W96520  14.297  19.156   0.904
31536W        W96521  42.550   5.838  13.238
31537W        W96522  37.033  12.653  12.899
31538W        W96523  25.221  22.012   0.402
31539W        W96524  24.751  19.224  13.395
31540W        W96525  15.304  39.367  13.395
31541W        W96526  44.676  11.921   2.326
31542W        W96527  34.789  42.979   2.272
31543W        W96528  13.706  11.593  12.072
31544W        W96529   6.213  17.235  14.464
31545W        W96530  39.574  34.561   0.037
31546W        W96531  32.952  21.263   0.907
31547W        W96532   3.526   9.771  12.183
31548W        W96533   3.471  39.605   1.165
31549W        W96534  16.237   4.234  10.085
31550W        W96535  43.365  32.902  14.782
31551W        W96536  23.113  20.750   0.466
31552W        W96537   5.044  34.394   2.855
31553W        W96538  28.545  43.801  13.866
31554W        W96539  34.055  43.210   1.234
31555W        W96540  38.788   4.211   4.512
31556W        W96541  23.581  44.235  10.769
31557W        W96542  34.529  31.614  13.489
31558W        W96543  40.303  33.730  12.505
31559W        W96544   6.335   2.344  10.480
31560W        W96545  44.944  15.896  12.411
31561W        W96546  34.484  11.224   3.638
31562W        W96547  30.653  18.804   1.636
31563W        W96548  21.331  35.858   4.270
31564W        W96549  10.585  27.683   0.992
31565W        W96550  38.579   9.073  14.355
31566W        W96551  16.509  36.627  14.859
31567W        W96552  26.130  19.207   1.997
31568W        W96553  31.470   4.940   0.509
31569W        W96554  17.374  25.232  11.644
31570W        W96555  20.198   4.303   4.985
31571W        W96556  18.319  30.714   2.711
31572W        W96557  19.573  13.304   2.229
31573W        W96558   5.232   6.890   4.858
31574W        W96559  13.320  27.009  11.522
31575W        W96560   6.422  33.146   0.121
31576W        W96561  40.087  26.794  10.782
31577W        W96562  29.625  40.596  10.810
31578W        W96563  25.109  11.053  11.585
31579W        W96564  43.595  40.334   2.938
31580W        W96565  21.673  30.446   3.110
31581W        W96566  25.752  11.715  12.899
31582W        W96567  13.341  34.908   2.059
31583W        W96568  37.613   2.732   0.757
31584W        W96569  24.123  13.582  13.829
31585W        W96570  26.103   2.500  14.895
31586W        W96571  21.005   9.649   1.162
31587W        W96572   0.651  24.708  11.207
31588W        W96573   4.561   0.197   1.507
31589W        W96574   5.341  15.625  11.940
31590W        W96575  21.975   0.305  13.027
31591W        W96576  38.764   2.460   0.392
31592W        W96577  33.490  39.007   1.749
31593W        W96578  19.097   6.305   4.086
31594W        W96579  29.259  11.912  14.330
31595W        W96580  44.809  10.931   1.303
31596W        W96581  21.368  28.571  12.949
31597W        W96582  25.905   0.430   2.641
31598W        W96583   5.308  25.274  14.807
31599W        W96584   8.597  26.571  13.706
31600W        W96585  37.253  40.916   2.420
31601W        W96586  34.435  41.784  13.370
31602W        W96587  30.059   7.118  12.859
31603W        W96588   9.621  39.772   0.881
31604W        W96589  41.445  25.181  11.839
31605W        W96590  24.776  14.269   4.434
31606W        W96591  32.794  31.135  11.093
31607W        W96592  35.601  41.309  13.114
31608W        W96593  29.797  34.703  14.240
31609W        W96594  27.484   3.851  14.301
31610W        W96595  17.125  23.123   2.343
31611W        W96596  12.816  39.456   0.437
31612W        W96597  28.101  22.615   3.221
31613W        W96598  17.103  17.674  11.585
31614W        W96599  25.443   0.334  12.464
31615W        W96600  36.499   4.939  10.848
31616W        W96601  13.791  42.799   0.621
31617W        W96602   5.874  32.142   4.276
31618W        W96603   8.398  36.902  11.444
31619W        W96604  23.527  34.576   4.140
31620W        W96605  33.514   8.297   1.788
31621W        W96606  33.781   7.297  11.174
31622W        W96607  22.113  34.146   3.225
31623W        W96608  13.170  20.152   2.216
31624W        W96609   8.921  43.334  14.781
31625W        W96610  32.001   0.294   2.424
31626W        W96611  24.712   5.642  14.396
31627W        W96612  24.503  34.414  11.403
31628W        W96613  32.980   2.522   2.304
31629W        W96614   6.285  14.883   2.396
31630W        W96615  43.077   4.855  14.542
31631W        W96616   2.655   9.755  13.935
31632W        W96617  34.409  38.788  12.544
31633W        W96618   3.365  29.433  11.153
31634W        W96619   2.401  37.768   0.202
31635W        W96620  19.724   9.361  13.842
31636W        W96621  28.541  19.353  14.474
31637W        W96622  22.873  29.480   3.735
31638W        W96623  37.288  33.865  13.585
31639W        W96624   8.127  33.491   4.561
31640W        W96625  11.319  42.791   0.380
31641W        W96626  38.460  21.768   4.485
31642W        W96627   7.120  42.930   3.462
31643W        W96628   7.574   5.251  12.773
31644W        W96629  10.748   1.017   2.171
31645W        W96630  32.078  33.346   3.130
31646W        W96631  40.733  26.257  10.505
31647W        W96632  14.922   3.196  10.310
31648W        W96633   3.933   4.943  12.461
31649W        W96634  30.271  14.816   4.209
31650W        W96635  10.409   9.230  13.080
31651W        W96636  42.887  16.942   0.638
31652W        W96637  27.485  43.075  11.149
31653W        W96638   3.763  38.565   3.204
31654W        W96639  16.180  17.598   4.241
31655W        W96640  20.104  17.816   1.703
31656W        W96641  44.962   8.372   4.688
31657W        W96642  15.116  37.935   1.633
31658W        W96643  13.947   3.036   5.008
31659W        W96644  18.296   4.761   2.676
31660W        W96645  14.113   3.198   1.535
31661W        W96646  30.207   7.405   4.506
31662W        W96647  28.157   5.158  11.660
31663W        W96648   8.471  25.671  13.569
31664W        W96649   1.145  31.740   0.272
31665W        W96650   7.658  32.537   4.741
31666W        W96651  21.027  15.755  10.526
31667W        W96652  34.037  25.574  13.314
31668W        W96653   0.508   1.830  12.563
31669W        W96654   2.870  22.269  14.781
31670W        W96655  22.230  26.966   0.317
31671W        W96656  18.008   8.377   0.963
31672W        W96657   8.278  24.698   2.217
31673W        W96658  39.264   7.416   0.588
31674W        W96659  18.035  19.292   0.387
31675W        W96660  30.047  12.111   5.164
31676W        W96661  31.649  16.861   0.852
31677W        W96662  19.788   2.916   0.610
31678W        W96663  24.458   8.595  12.845
31679W        W96664  39.278   5.432  14.866
31680W        W96665  33.019  42.800  11.389
31681W        W96666  44.438   8.801  11.004
31682W        W96667   2.585  42.403   1.870
31683W        W96668   7.788  12.203   4.938
31684W        W96669  34.832  44.865   2.960
31685W        W96670  32.567  40.105   2.874
31686W        W96671  30.054   3.931   2.226
31687W        W96672   3.650  15.032   2.648
31688W        W96673  10.524  43.928  10.711
31689W        W96674  23.189  20.352   9.625
31690W        W96675  41.344   6.131   3.533
31691W        W96676  16.625   5.521   3.541
31692W        W96677  26.480  19.555  14.799
31693W        W96678   3.933   8.114   2.275
31694W        W96679  14.845  26.148   1.218
31695W        W96680  27.553  42.792  10.740
31696W        W96681  29.875  31.066  11.588
31697W        W96682  27.450  35.113  14.524
31698W        W96683   8.229  24.999  11.592
31699W        W96684  13.173  36.450  11.648
31700W        W96685   1.450  29.876  14.757
31701W        W96686  28.989  24.806  11.443
31702W        W96687  41.938   2.309  11.651
31703W        W96688  27.500  16.956   0.899
31704W        W96689  23.262  11.860   2.299
31705W        W96690   8.785  20.722  12.114
31706W        W96691   8.826   2.594  13.535
31707W        W96692  27.521   9.249  14.567
31708W        W96693  40.852   9.580  14.377
31709W        W96694  19.255   7.907  12.143
31710W        W96695  41.062  24.681  13.142
31711W        W96696  12.246  10.845   1.858
31712W        W96697  42.975   1.127   0.202
31713W        W96698  35.038  25.889   1.753
31714W        W96699   7.891  31.985   3.562
31715W        W96700  11.898  22.347   3.656
31716W        W96701  11.028  40.130  11.161
31717W        W96702   8.025   1.894  11.411
31718W        W96703  28.126  25.856   4.760
31719W        W96704  31.322  34.067  14.533
31720W        W96705  40.343   2.772   0.315
31721W        W96706  27.905  43.246  12.451
31722W        W96707  23.212  28.544   3.046
31723W        W96708  13.219   8.929   2.825
31724W        W96709   0.870  25.234  12.321
31725W        W96710  25.471  33.595   1.698
31726W        W96711  18.198  15.535   4.969
31727W        W96712  19.500  21.087  12.942
31728W        W96713   1.458   0.171   4.685
31729W        W96714  29.737  24.914  12.486
31730W        W96715  41.488   7.207   3.101
31731W        W96716  30.979  28.163   2.309
31732W        W96717   7.135  31.128  13.391
31733W        W96718  38.418  17.639  10.666
31734W        W96719  12.827  38.934  10.705
31735W        W96720  22.606  26.262  11.587
31736W        W96721   9.445  18.400  10.250
31737W        W96722   4.308  26.617   3.629
31738W        W96723  26.764  31.707  12.556
31739W        W96724  14.894  16.649  12.488
31740W        W96725   1.641  40.711   2.698
31741W        W96726  19.778  31.107   0.898
31742W        W96727  11.307  35.213   0.250
31743W        W96728  27.359  24.435   4.407
31744W        W96729   2.472  13.115   3.226
31745W        W96730  36.987  18.176  11.938
31746W        W96731  24.013  24.808  11.646
31747W        W96732   3.516  31.798  10.940
31748W        W96733  43.142  34.122  10.823
31749W        W96734  44.772  25.552   3.553
31750W        W96735  28.568  11.707   3.250
31751W        W96736  39.988  15.762   0.841
31752W        W96737  19.262  24.335   1.843
31753W        W96738  43.762  15.773   3.335
31754W        W96739  23.248  16.070   0.829
31755W        W96740  38.137   9.463  11.097
31756W        W96741  28.663  39.545  12.367
31757W        W96742   7.647  37.139  10.510
31758W        W96743   7.749  23.515   2.788
31759W        W96744  31.284  40.354   4.161
31760W        W96745  33.005  31.192  11.599
31761W        W96746   3.638  19.133   2.404
31762W        W96747   8.944  39.589   2.254
31763W        W96748  26.197  29.203   2.634
31764W        W96749  36.601  42.280   3.745
31765W        W96750  10.448  15.600  13.178
31766W        W96751  19.177  26.666  10.983
31767W        W96752  37.139   3.951  13.457
31768W        W96753  38.771  30.546  12.366
31769W        W96754  24.967  23.313   4.152
31770W        W96755  23.624  31.393  12.695
31771W        W96756  11.744  37.447   3.174
31772W        W96757  36.822  33.117  11.205
31773W        W96758  13.404  25.487   3.661
31774W        W96759  39.374  20.175   0.893
31775W        W96760  33.228  16.300   2.581
31776W        W96761  32.333   3.230   1.061
31777W        W96762  41.412  33.156  11.926
31778W        W96763  14.528  14.812  13.843
31779W        W96764  37.526   5.207  14.302
31780W        W96765   2.432  14.163   3.226
31781W        W96766  14.273  13.258   3.333
31782W        W96767  11.444  39.601  11.989
31783W        W96768  31.221  31.684  10.545
31784W        W96769   6.603  12.173  13.979
31785W        W96770  41.773  29.822   1.328
31786W        W96771   7.895  10.282  11.108
31787W        W96772  15.213  41.228  12.581
31788W        W96773   7.078  40.501  12.083
31789W        W96774  20.326   2.530  12.640
31790W        W96775  27.942  10.705  13.586
31791W        W96776  13.651  14.065  12.473
31792W        W96777  41.018   1.037  11.162
31793W        W96778  19.936   7.793  11.515
31794W        W96779   2.707  35.861   4.597
31795W        W96780  36.077  36.906   2.334
31796W        W96781   5.222   8.546   2.936
31797W        W96782   8.710   7.738  11.778
31798W        W96783  15.257  44.647  13.846
31799W        W96784  25.908   7.195  12.958
31800W        W96785  14.731  23.154   4.650
31801W        W96786  37.273  33.804   0.678
31802W        W96787   5.628  10.814  10.753
31803W        W96788  21.038  17.229  13.336
31804W        W96789  43.996  29.584   3.219
31805W        W96790  38.046  40.056  14.364
31806W        W96791  27.119  40.423  12.052
31807W        W96792  20.494  24.005   3.658
31808W        W96793   3.787  42.580  11.970
31809W        W96794   3.888  23.538  13.354
31810W        W96795  42.519  10.727   0.876
31811W        W96796  42.912   3.559   0.870
31812W        W96797   0.400  13.507   4.694
31813W        W96798  37.425  21.455  12.389
31814W        W96799  11.932  16.458  12.470
31815W        W96800  28.683  30.542  14.316
31816W        W96801  25.196  15.254   4.563
31817W        W96802  20.178  15.748   1.825
31818W        W96803  44.907  30.419   0.452
31819W        W96804  40.090   3.716   1.267
31820W        W96805  38.010  28.020  14.915
31821W        W96806  40.906  38.997  10.613
31822W        W96807   4.857  23.312   4.072
31823W        W96808   5.820  23.548   2.873
31824W        W96809   6.959   4.384  11.253
31825W        W96810  43.239  31.567   2.298
31826W        W96811  26.913   0.915  13.829
31827W        W96812   7.913  22.757   9.847
31828W        W96813  42.482  40.915   1.202
31829W        W96814  37.444   9.773  12.696
31830W        W96815  23.121   3.943   3.096
31831W        W96816  10.254  34.875   0.930
31832W        W96817   3.571  15.832   1.790
31833W        W96818  20.400  17.452   4.922
31834W        W96819  37.006  32.458  11.595
31835W        W96820  40.574   9.301   1.637
31836W        W96821  36.208  24.460   2.863
31837W        W96822  21.092  18.137  11.916
31838W        W96823  32.628  11.696   3.333
31839W        W96824   9.615  40.974   3.517
31840W        W96825   9.283  32.353   1.544
31841W        W96826  31.209   7.078  13.006
31842W        W96827  29.821  12.686   3.323
31843W        W96828  34.354  27.549  14.881
31844W        W96829  16.223  32.498   3.266
31845W        W96830  13.297   8.103  14.703
31846W        W96831  14.279  12.325   3.475
31847W        W96832  29.699  37.013  14.256
31848W        W96833  40.543   1.764  12.106
31849W        W96834  38.287  28.449  14.896
31850W        W96835  12.622  33.056   1.880
31851W        W96836  44.061  11.325   1.713
31852W        W96837  39.159  18.644  14.915
31853W        W96838   4.486   5.740  12.587
31854W        W96839   9.605  27.133   0.058
31855W        W96840  28.751  44.443   0.192
31856W        W96841  40.915  35.573   1.676
31857W        W96842   8.285  42.861   0.378
31858W        W96843  36.898   8.126  10.676
31859W        W96844   7.163   0.318   0.027
31860W        W96845  36.332  17.572  14.486
31861W        W96846  16.623   9.208   4.736
31862W        W96847   8.534   8.579   3.714
31863W        W96848   5.742   0.828  14.326
31864W        W96849  39.846   1.481   2.673
31865W        W96850  26.458  28.036   0.849
31866W        W96851  33.717  15.315   3.845
31867W        W96852  26.682   7.171   0.411
31868W        W96853  16.110   4.707  10.248
31869W        W96854   3.527  37.994  13.864
31870W        W96855  38.119   7.889  12.014
31871W        W96856  38.379   5.975  13.082
31872W        W96857  38.842  12.926   2.325
31873W        W96858   5.402  35.727   3.191
31874W        W96859  25.416  40.915   4.511
31875W        W96860  40.776   8.670  10.711
31876W        W96861  36.418  36.009  11.086
31877W        W96862  25.249  22.023  12.670
31878W        W96863   2.317  30.841   0.696
31879W        W96864  38.885  21.432   2.182
31880W        W96865   5.601  30.733  13.811
31881W        W96866  16.285   3.268  13.470
31882W        W96867  39.321  43.334  11.633
31883W        W96868  22.761  44.416  11.037
31884W        W96869  13.199  25.176  14.295
31885W        W96870  23.776  14.272  11.083
31886W        W96871  29.211  41.385  12.443
31887W        W96872  22.794  25.005  13.005
31888W        W96873   7.965   9.644  12.212
31889W        W96874  41.915  44.018   2.356
31890W        W96875   2.343  39.862   4.117
31891W        W96876  41.784  11.602   3.698
31892W        W96877  41.049  40.425   4.605
31893W        W96878  28.622  20.569   4.520
31894W        W96879   7.572  17.748  10.876
31895W        W96880  22.186   8.021  10.683
31896W        W96881  33.877  25.060   1.433
31897W        W96882  13.988  27.347   1.411
31898W        W96883  18.982  44.012   0.954
31899W        W96884   6.526   7.399   3.646
31900W        W96885  20.704  17.226  11.283
31901W        W96886   5.204  40.515  11.450
31902W        W96887  16.437   4.555   5.025
31903W        W96888  41.839  15.214  11.613
31904W        W96889  28.863  12.288  14.196
31905W        W96890  41.449  15.165  13.004
31906W        W96891  38.454  44.808   0.278
31907W        W96892  27.125   5.834  13.542
31908W        W96893  32.256  12.169   1.449
31909W        W96894  18.087  38.414   4.298
31910W        W96895  31.803  27.809   3.264
31911W        W96896  35.932  41.526   3.847
31912W        W96897  37.564  28.202  12.225
31913W        W96898  26.097  23.220   2.991
31914W        W96899  35.880   2.949   3.217
31915W        W96900  13.055  24.693   1.233
31916W        W96901  35.865  36.138   4.047
31917W        W96902  19.293   1.371   2.715
31918W        W96903  33.105  44.284  13.967
31919W        W96904  41.341   3.927  11.732
31920W        W96905   9.611  37.455   4.752
31921W        W96906   5.785  38.874  11.083
31922W        W96907  26.826  23.044  10.467
31923W        W96908  14.032  22.496  12.116
31924W        W96909  12.859  17.731  14.859
31925W        W96910  44.374   8.300  10.891
31926W        W96911  30.450  44.374  12.218
31927W        W96912  12.853  23.898   3.284
31928W        W96913  15.266  36.088   2.848
31929W        W96914  15.838  16.614  11.088
31930W        W96915  29.458  15.614  11.194
31931W        W96916  19.143  10.954  12.509
31932W        W96917  20.737  39.532   4.644
31933W        W96918  25.093  38.041   2.609
31934W        W96919  11.889  13.759   1.370
31935W        W96920  42.048  14.336   2.724
31936W        W96921  40.443  24.278   0.943
31937W        W96922   6.826  29.537  10.582
31938W        W96923  14.681  35.048   2.217
31939W        W96924  20.219  40.919   4.870
31940W        W96925  42.065  21.580  10.939
31941W        W96926  19.816  24.012  10.624
31942W        W96927  25.477  14.148  14.827
31943W        W96928  41.282  32.256   2.818
31944W        W96929   5.829  17.978   1.376
31945W        W96930  19.026  18.628   3.255
31946W        W96931  13.245  13.413   0.271
31947W        W96932  18.163   5.696  12.941
31948W        W96933  32.356  18.827   4.220
31949W        W96934  16.159  36.275   2.718
31950W        W96935  27.965  17.434  13.337
31951W        W96936  27.515  20.802   0.869
31952W        W96937  20.845  27.963  14.989
31953W        W96938   1.858  19.570   0.863
31954W        W96939  35.419   6.338   2.943
31955W        W96940  40.013  29.679   4.239
31956W        W96941  38.696  26.219   2.714
31957W        W96942  42.513  23.546  13.474
31958W        W96943  30.136  10.747   4.323
31959W        W96944  22.182  29.121   0.252
31960W        W96945  18.560  43.278  12.136
31961W        W96946  33.509   3.120   4.509
31962W        W96947  24.499  42.110   2.191
31963W        W96948  24.202  17.784  13.344
31964W        W96949   0.325   8.618   0.944
31965W        W96950  12.080  31.350  12.080
31966W        W96951  27.407  42.051   0.359
31967W        W96952  19.564  42.737   4.526
31968W        W96953  21.683  16.489  10.744
31969W        W96954  37.557  40.250  14.539
31970W        W96955   0.518  28.184   1.783
31971W        W96956  38.090  30.093  13.652
31972W        W96957  11.242  32.520  11.175
31973W        W96958  35.422  37.749  12.383
31974W        W96959   1.910  32.237  12.217
31975W        W96960  30.194  21.238   0.063
31976W        W96961  37.475  11.622   2.321
31977W        W96962  33.415   2.835  12.304
31978W        W96963  43.937  37.066   3.729
31979W        W96964   2.294  35.030   0.852
31980W        W96965  35.523  36.052  13.531
31981W        W96966  13.305  22.165   3.920
31982W        W96967  44.807   6.337   1.176
31983W        W96968  27.027  29.142   2.372
31984W        W96969  12.404   3.136  11.549
31985W        W96970  22.781  21.735  11.623
31986W        W96971  37.976   4.771  10.588
31987W        W96972  32.680   2.386   1.898
31988W        W96973  17.578  34.613  12.001
31989W        W96974   3.347  33.249   0.905
31990W        W96975  26.246  12.090  13.900
31991W        W96976  28.000  31.328   1.794
31992W        W96977  20.155   8.150  11.182
31993W        W96978  21.734   9.888  14.841
31994W        W96979   2.338  43.389  14.742
31995W        W96980   9.168   5.391   2.886
31996W        W96981  33.913   7.313   2.699
31997W        W96982  22.681  44.974   2.502
31998W        W96983  44.539  40.565   3.233
31999W        W96984  21.258   3.696  12.853
32000W        W96985  33.367  25.642  11.961
32001W        W96986  41.330  17.258  13.780
32002W        W96987  22.753  13.080   0.331
32003W        W96988  26.099  24.345   2.344
32004W        W96989   6.857  32.556  13.981
32005W        W96990  18.183  31.676  12.558
32006W        W96991  18.557   7.555   1.352
32007W        W96992  26.248   1.828   3.393
32008W        W96993  38.943  15.501   1.317
32009W        W96994   2.183  25.065  14.272
32010W        W96995  41.322  39.505   0.419
32011W        W96996  18.199  12.570   2.833
32012W        W96997  21.092  18.365   0.330
32013W        W96998  26.429  28.584  10.182
32014W        W96999  19.759   1.902   3.245
32015W        W97000   4.755  12.394   2.701
32016W        W97001  36.006  25.131  14.514
32017W        W97002   4.108   9.328  11.569
32018W        W97003  36.118  30.123  13.421
32019W        W97004  25.048  18.611   5.239
32020W        W97005  11.573  44.683  13.580
32021W        W97006  16.625  30.176  10.179
32022W        W97007   3.004  32.917  14.220
32023W        W97008  32.450   7.945  12.918
32024W        W97009  13.100   3.921   3.984
32025W        W97010   6.818   8.204  11.569
32026W        W97011  24.983   3.730   1.460
32027W        W97012  33.343  10.700   0.442
32028W        W97013   6.576  31.808  14.775
32029W        W97014  40.681  26.401   4.919
32030W        W97015  44.854   8.123  10.764
32031W        W97016  25.501  35.804   2.691
32032W        W97017  27.576  12.781   1.864
32033W        W97018  30.160  17.696   2.919
32034W        W97019  34.543  37.945   3.633
32035W        W97020  11.654  41.793  12.455
32036W        W97021  37.849  37.857   9.994
32037W        W97022  39.701   2.292   0.320
32038W        W97023  39.920  10.331  14.834
32039W        W97024  32.538  32.916  10.945
32040W        W97025  35.999  34.045   2.123
32041W        W97026   8.719  40.834  13.615
32042W        W97027  30.055  34.161   0.459
32043W        W97028  20.650  39.005   4.646
32044W        W97029  17.869   8.714   1.833
32045W        W97030  15.273  33.885   3.433
32046W        W97031  29.666  37.442   4.633
32047W        W97032  30.521   6.448  13.060
32048W        W97033  23.537  18.105   2.362
32049W        W97034  18.179  18.048  14.794
32050W        W97035  16.002   3.294  13.015
32051W        W97036  18.169  31.787  12.065
32052W        W97037  42.925  17.234   1.098
32053W        W97038  39.114  20.101  11.594
32054W        W97039   3.556  40.958   2.740
32055W        W97040  21.534  31.878   0.323
32056W        W97041  29.053  18.729   4.607
32057W        W97042  29.551  10.358  12.331
32058W        W97043  39.111   2.430  10.803
32059W        W97044  29.159  33.472   4.037
32060W        W97045  39.086  28.021  14.863
32061W        W97046  36.032  14.162  14.361
32062W        W97047  15.329  12.636   1.170
32063W        W97048  23.529  11.736   0.258
32064W        W97049  19.999  10.789   4.092
32065W        W97050  18.882   5.043  11.183
32066W        W97051  12.731  21.719   4.399
32067W        W97052  44.703  14.648   3.968
32068W        W97053   2.913  16.464   0.826
32069W        W97054  17.265  19.989   2.224
32070W        W97055  13.911   9.724  13.937
32071W        W97056  39.970  28.420   2.653
32072W        W97057  31.713   5.450   3.135
32073W        W97058  18.324  39.800   4.039
32074W        W97059  25.384   7.244   4.553
32075W        W97060  26.409   2.983   1.465
32076W        W97061  32.431  38.422   3.102
32077W        W97062  40.439  27.736   4.514
32078W        W97063   4.792  14.729  14.933
32079W        W97064  38.586  14.880  13.585
32080W        W97065  31.885  41.385  12.960
32081W        W97066  42.830  39.728   3.188
32082W        W97067   2.703  11.571  13.966
32083W        W97068   2.762  20.256   4.837
32084W        W97069  12.617  22.977  14.288
32085W        W97070  37.430  30.534  11.934
32086W        W97071  42.807  10.100   4.717
32087W        W97072  25.034   9.629  12.077
32088W        W97073  40.465  27.483  13.157
32089W        W97074  28.156  31.438   3.709
32090W        W97075   0.395  25.113   0.995
32091W        W97076  24.625   8.385   4.622
32092W        W97077   5.298  41.497   4.572
32093W        W97078  16.326  19.728  11.493
32094W        W97079  13.596  20.720  14.240
32095W        W97080  16.908  26.055   0.297
32096W        W97081  28.485  15.046   0.352
32097W        W97082  21.575  24.714  11.929
32098W        W97083  32.847  17.323   4.430
32099W        W97084  39.821  30.904   2.827
32100W        W97085  24.878  29.879  13.274
32101W        W97086  19.997  24.828  10.295
32102W        W97087   6.671  15.908   4.370
32103W        W97088  22.237   8.707   3.675
32104W        W97089  27.492   3.368   5.070
32105W        W97090  28.156   0.270  13.012
32106W        W97091  43.722  38.428   4.209
32107W        W97092  36.537  31.960   2.445
32108W        W97093   3.445  10.254   3.805
32109W        W97094   1.343  44.803  11.728
32110W        W97095  31.372   2.707   2.968
32111W        W97096  14.584  35.643   1.316
32112W        W97097  14.709  35.461   1.801
32113W        W97098  34.345  39.275  12.648
32114W        W97099  41.028   8.743  11.162
32115W        W97100  30.840  28.090  13.063
32116W        W97101  29.503  38.358  13.888
32117W        W97102  33.520  24.259  14.312
32118W        W97103  14.824  29.733   4.043
32119W        W97104   3.193   7.705   1.295
32120W        W97105  24.102  40.798   2.383
32121W        W97106  43.736   4.698  13.392
32122W        W97107  28.950  13.390   1.884
32123W        W97108  10.467   3.460  12.484
32124W        W97109  25.219   9.758  13.471
32125W        W97110  13.519  39.804  12.653
32126W        W97111  17.083  44.807   1.536
32127W        W97112   9.261   6.690  11.999
32128W        W97113  31.410   1.202   4.632
32129W        W97114  21.199  24.910   2.178
32130W        W97115  41.282  39.820  13.675
32131W        W97116   2.752   9.919  14.841
32132W        W97117   5.760   8.246   3.570
32133W        W97118  38.448  20.263  11.950
32134W        W97119   5.868   5.133  13.783
32135W        W97120   0.926  14.164   4.952
32136W        W97121  33.006   0.210  14.145
32137W        W97122  20.396   5.363   2.264
32138W        W97123  39.754   2.736  11.285
32139W        W97124   2.356  27.886  14.406
32140W        W97125   3.614  17.727  13.000
32141W        W97126  17.009  25.980   1.322
32142W        W97127  43.357  12.799  11.261
32143W        W97128   8.115  43.431   1.824
32144W        W97129  11.091   9.317   0.742
32145W        W97130  26.008  11.115  13.884
32146W        W97131  22.628  12.336  13.070
32147W        W97132  32.390  32.131   4.415
32148W        W97133  20.425  34.813   0.140
32149W        W97134  31.703  37.254  14.357
32150W        W97135   2.125  40.985  14.820
32151W        W97136  14.107   7.883  12.516
32152W        W97137  24.287  28.978   1.376
32153W        W97138  20.572  44.379   2.186
32154W        W97139  10.853  42.356   0.774
32155W        W97140  11.122   0.469  13.892
32156W        W97141  21.205  10.728   3.153
32157W        W97142  15.665  29.388  11.876
32158W        W97143  15.021  16.627  11.546
32159W        W97144   0.063  44.263  10.178
32160W        W97145  42.114  27.983  14.709
32161W        W97146  34.931   7.555  13.095
32162W        W97147  29.172  21.729  11.748
32163W        W97148  40.676   8.025  12.766
32164W        W97149  11.026   0.005   0.684
32165W        W97150   0.928   5.852   1.446
32166W        W97151  11.349  23.410  12.144
32167W        W97152  24.431   3.382   0.715
32168W        W97153  13.038   6.705  11.240
32169W        W97154   9.493  39.392   4.105
32170W        W97155  30.581   2.843  11.946
32171W        W97156  44.604  27.584  10.975
32172W        W97157  42.296  43.783   0.282
32173W        W97158  22.693  30.346   0.405
32174W        W97159   3.782  40.346   1.824
32175W        W97160  36.859   7.203   3.558
32176W        W97161  31.851   4.855  12.756
32177W        W97162  33.055   4.748   2.352
32178W        W97163  34.705  26.493  10.715
32179W        W97164  40.967  36.980   0.934
32180W        W97165  20.291  15.859   4.690
32181W        W97166  11.221  22.404  11.924
32182W        W97167   8.644  43.406  11.489
32183W        W97168  18.867   7.770  14.433
32184W        W97169   6.122  16.518  13.061
32185W        W97170  13.463  19.700   0.492
32186W        W97171  43.345  24.719  11.352
32187W        W97172   4.484   8.180   0.742
32188W        W97173  20.573   4.212  13.358
32189W        W97174  17.811  25.108  12.574
32190W        W97175  24.062  31.013  13.518
32191W        W97176  30.606   5.997   1.460
32192W        W97177   8.654  29.100   0.266
32193W        W97178   2.223  39.692   2.298
32194W        W97179  18.075  24.985   1.354
32195W        W97180  44.053  32.767   2.672
32196W        W97181   5.906  36.507   4.650
32197W        W97182  39.799  19.406   1.198
32198W        W97183  23.820  24.739  11.179
32199W        W97184  41.006   3.574  12.903
32200W        W97185  16.046  28.478   3.693
32201W        W97186  12.122  35.784  14.726
32202W        W97187  25.185  29.589   2.797
32203W        W97188  33.783   5.863   1.157
32204W        W97189  12.081  25.523   4.266
32205W        W97190  15.087  10.731  12.122
32206W        W97191  20.013  30.356  12.944
32207W        W97192  39.441   9.061  10.797
32208W        W97193  44.278  21.731   1.501
32209W        W97194  13.587  33.487   2.730
32210W        W97195   0.814  25.671   2.812
32211W        W97196  27.255  32.422   0.835
32212W        W97197  33.371  43.392   0.514
32213W        W97198   0.433  13.109   3.841
32214W        W97199  15.164   5.666   1.622
32215W        W97200  25.951  15.519  11.067
32216W        W97201   6.892  30.375  11.633
32217W        W97202  31.146  12.133  12.400
32218W        W97203   7.641  29.411   3.665
32219W        W97204  35.558  19.089   2.638
32220W        W97205   7.763  36.815  13.002
32221W        W97206  43.966  44.792   0.547
32222W        W97207   4.216  36.100  13.435
32223W        W97208  12.935  15.084  10.677
32224W        W97209  40.470  31.052   1.789
32225W        W97210   3.010  31.945  10.876
32226W        W97211  37.087  13.798   1.249
32227W        W97212   1.958  37.113   3.913
32228W        W97213  18.326  17.171  13.293
32229W        W97214  24.975  17.243  10.555
32230W        W97215  34.845  27.081   2.245
32231W        W97216  40.946  29.370  12.738
32232W        W97217   7.287  32.759  12.666
32233W        W97218  39.644  26.530   0.366
32234W        W97219  28.554  34.165   2.339
32235W        W97220  13.902  35.404  14.762
32236W        W97221  11.863  16.591  11.624
32237W        W97222  11.934   2.962  11.692
32238W        W97223  25.039  42.425   4.699
32239W        W97224  14.180   0.231   2.274
32240W        W97225  10.422  35.214  13.915
32241W        W97226  27.670  14.179  14.396
32242W        W97227  32.227  19.683   5.181
32243W        W97228   4.942  18.199   0.589
32244W        W97229  29.405  16.623   1.263
32245W        W97230  20.116  44.448   3.096
32246W        W97231  20.582  25.386   1.900
32247W        W97232  26.966   1.833   2.164
32248W        W97233  15.765  11.601   4.102
32249W        W97234  17.692   5.510  12.301
32250W        W97235  31.452  25.453   3.169
32251W        W97236   8.870  21.153   2.335
32252W        W97237   0.298  38.075   0.744
32253W        W97238  38.638  24.647   0.696
32254W        W97239  39.812  11.138  14.483
32255W        W97240   7.911  42.841   3.910
32256W        W97241  10.717   3.955   4.360
32257W        W97242  31.132  27.695  14.851
32258W        W97243   9.374  32.060  14.775
32259W        W97244  31.663  29.470  11.136
32260W        W97245  32.471  38.067  11.525
32261W        W97246  42.210  40.481  14.420
32262W        W97247  22.155  14.200   4.516
32263W        W97248   9.932  36.469  11.454
32264W        W97249  35.439  19.778   4.802
32265W        W97250  10.743  30.419   0.506
32266W        W97251  17.574  24.470  13.224
32267W        W97252  27.940  28.179  13.451
32268W        W97253   7.236  41.791   0.347
32269W        W97254  29.874  16.199  12.125
32270W        W97255  19.090   0.331   1.888
32271W        W97256   3.463  41.360   4.016
32272W        W97257  21.784  11.219  11.605
32273W        W97258   1.348  37.401   2.915
32274W        W97259  16.165  19.059   4.807
32275W        W97260  43.520  29.872   1.934
32276W        W97261  39.491  40.381   2.708
32277W        W97262  39.309  24.403   4.999
32278W        W97263  13.790  28.698  12.458
32279W        W97264  21.432  37.037   2.944
32280W        W97265  16.812   1.791   4.080
32281W        W97266  23.457  20.524  14.863
32282W        W97267  29.607  28.641   2.258
32283W        W97268  26.798  28.482   1.050
32284W        W97269  37.725  18.768   3.668
32285W        W97270  26.702  36.148   2.056
32286W        W97271   9.149  16.754  10.731
32287W        W97272   4.295  40.495  13.557
32288W        W97273   3.018  15.441   0.780
32289W        W97274   9.089  31.934  10.642
32290W        W97275  41.496  12.390   1.875
32291W        W97276  17.117   1.221  12.053
32292W        W97277  32.946  38.458   3.140
32293W        W97278   7.500  33.491  14.508
32294W        W97279  44.897   2.549   3.794
32295W        W97280  11.928  26.146   3.755
32296W        W97281  41.710  19.525  12.555
32297W        W97282  24.014  18.129  10.653
32298W        W97283   7.887  29.003  12.399
32299W        W97284  17.050  32.873  11.508
32300W        W97285   3.519   3.996  11.210
32301W        W97286   8.153  41.995  12.409
32302W        W97287   1.818  32.648  10.901
32303W        W97288  44.306   4.218  14.456
32304W        W97289   0.034  36.912  11.432
32305W        W97290  10.734  27.003   0.323
32306W        W97291  14.187  25.419   0.303
32307W        W97292  41.008   5.050   2.717
32308W        W97293  28.797  43.462  12.090
32309W        W97294  33.561   9.734   1.456
32310W        W97295  32.426  17.080   3.309
32311W        W97296  41.960  18.540   1.975
32312W        W97297  13.082  22.124   1.027
32313W        W97298  14.322  12.386  13.018
32314W        W97299  44.346  43.855   4.632
32315W        W97300  40.255  12.597  14.120
32316W        W97301  28.125  22.164   0.575
32317W        W97302  34.670  10.041  13.008
32318W        W97303   8.992  16.036  14.694
32319W        W97304  31.297  13.120   2.688
32320W        W97305  34.680  40.968  13.910
32321W        W97306  41.107  40.028  12.547
32322W        W97307  36.120  25.584  13.793
32323W        W97308   8.422  29.535   4.303
32324W        W97309  28.155   8.719  14.034
32325W        W97310  42.964   2.660  14.108
32326W        W97311   9.387  29.375  13.099
32327W        W97312  40.000   3.756  12.768
32328W        W97313  35.443   5.396   2.123
32329W        W97314  12.676  13.246  14.549
32330W        W97315   9.775  34.516   2.594
32331W        W97316  40.433  28.459   1.872
32332W        W97317  44.183  29.047   1.790
32333W        W97318  26.266  30.556  12.757
32334W        W97319   5.990  44.411   1.337
32335W        W97320  26.703   4.880   1.713
32336W        W97321   7.966  43.841   1.335
32337W        W97322  18.764  13.045   4.315
32338W        W97323  37.782  33.177   2.874
32339W        W97324  28.030   0.955   0.763
32340W        W97325  41.066  14.067   4.693
32341W        W97326  20.664  39.052  13.486
32342W        W97327  29.930  34.973  11.558
32343W        W97328  10.462   1.940   2.157
32344W        W97329  21.325  20.128  11.560
32345W        W97330  19.989   0.365  12.390
32346W        W97331  43.363  35.881   2.415
32347W        W97332  39.559  33.036   0.737
32348W        W97333  23.433  12.212   1.012
32349W        W97334  10.892  20.717   0.367
32350W        W97335   9.721  10.311   2.725
32351W        W97336  33.982  10.182  14.442
32352W        W97337  22.765  27.533  12.902
32353W        W97338  23.487  17.883  14.025
32354W        W97339  24.400  26.513  12.480
32355W        W97340   3.241   9.866  12.617
32356W        W97341   1.488  19.528   3.830
32357W        W97342  39.418  16.814   1.827
32358W        W97343   5.270  42.457   2.998
32359W        W97344   4.125  13.286  14.084
32360W        W97345  37.087  15.652   4.144
32361W        W97346  41.462  15.650  12.753
32362W        W97347   9.325  20.274  10.858
32363W        W97348  34.358  40.262   0.816
32364W        W97349   9.430  36.670  13.581
32365W        W97350  13.997  12.957  12.046
32366W        W97351  20.205  32.575   0.820
32367W        W97352   0.380  25.515   1.357
32368W        W97353  42.714  38.942  14.864
32369W        W97354  23.483  29.573   4.354
32370W        W97355  35.411   4.552   2.433
32371W        W97356  26.624  38.874   0.998
32372W        W97357  44.403  13.142   2.931
32373W        W97358  19.104  36.023   2.157
32374W        W97359  29.016  25.706   1.773
32375W        W97360  27.084  37.942  12.972
32376W        W97361  41.339  15.687   4.107
32377W        W97362  13.533  28.978  13.619
32378W        W97363   6.559  39.860  12.453
32379W        W97364   5.769  32.622   4.053
32380W        W97365   4.776  14.301   5.190
32381W        W97366   8.931  27.457   4.126
32382W        W97367  39.420  43.500   2.340
32383W        W97368  36.843   4.165   0.220
32384W        W97369  19.223   8.688   0.855
32385W        W97370   1.226  30.963   2.828
32386W        W97371  36.984   8.614  12.961
32387W        W97372  40.613  28.988   1.295
32388W        W97373  18.017  23.368   4.142
32389W        W97374  39.855  17.185  14.746
32390W        W97375  30.746  18.622   0.222
32391W        W97376  16.425   6.493  11.661
32392W        W97377  16.136  30.884   1.074
32393W        W97378  16.171   8.039   1.816
32394W        W97379   2.455  26.978   4.727
32395W        W97380  21.660  28.555  13.376
32396W        W97381  25.835   4.007   2.619
32397W        W97382  20.420  27.641  11.109
32398W        W97383  19.134  14.681  11.733
32399W        W97384  44.529  11.601  11.629
32400W        W97385  12.741  17.143  10.819
32401W        W97386  10.324  39.171   3.515
32402W        W97387  15.663  13.175  12.462
32403W        W97388  23.526   4.245  12.542
32404W        W97389   9.310  29.746  10.652
32405W        W97390   8.886  23.945   3.115
32406W        W97391  17.232  43.438  10.286
32407W        W97392  28.132  26.893  12.800
32408W        W97393   6.473  24.604  11.685
32409W        W97394   9.841  34.918  11.240
32410W        W97395  11.748  10.934   4.881
32411W        W97396  38.312  29.423   0.212
32412W        W97397  20.551  19.286  13.863
32413W        W97398  16.231   1.265   2.159
32414W        W97399  15.587  17.028  13.119
32415W        W97400  43.238  25.858  13.964
32416W        W97401  19.076  24.542  14.047
32417W        W97402  36.293  33.380   3.724
32418W        W97403   8.494  19.189   1.491
32419W        W97404   5.856  26.508   4.318
32420W        W97405  30.092  11.587  13.832
32421W        W97406  31.142  41.546   0.892
32422W        W97407  32.997   3.027   0.482
32423W        W97408  37.121   6.635   0.891
32424W        W97409  25.998  18.083  11.485
32425W        W97410  33.441  13.567  13.911
32426W        W97411  41.042  38.019   4.296
32427W        W97412  42.007  19.754  12.106
32428W        W97413   8.201  31.664   1.891
32429W        W97414  18.163  40.359  10.499
32430W        W97415  25.423  36.329  10.528
32431W        W97416  38.147   8.957   1.361
32432W        W97417  15.690  37.038  10.638
32433W        W97418   2.256   9.780  13.305
32434W        W97419  26.016  31.674   0.050
32435W        W97420  19.983  13.329   3.552
32436W        W97421  20.114  42.547   0.777
32437W        W97422  37.374  27.978  10.743
32438W        W97423   9.381   4.898   0.945
32439W        W97424   7.353  10.423   0.885
32440W        W97425  39.900  28.356   3.622
32441W        W97426   0.437  38.688  14.384
32442W        W97427  27.023  25.242   5.135
32443W        W97428  25.573  35.638   1.855
32444W        W97429   3.758  20.666   0.789
32445W        W97430   3.376   1.187  12.528
32446W        W97431  12.911  31.137  10.200
32447W        W97432   3.828  22.097  14.814
32448W        W97433  28.740  35.920  13.871
32449W        W97434  39.946  31.004   1.771
32450W        W97435  25.883  22.584  12.478
32451W        W97436   4.911  23.981   1.447
32452W        W97437  37.659  36.423  14.895
32453W        W97438  22.042  24.517   4.538
32454W        W97439  14.328  24.407   3.860
32455W        W97440  16.067  31.072  12.958
32456W        W97441   3.253  39.126  14.955
32457W        W97442  32.145  35.072   0.725
32458W        W97443   8.310  25.609  10.867
32459W        W97444  12.276  11.822  13.856
32460W        W97445  18.924  11.168  14.440
32461W        W97446  14.061  28.177  14.110
32462W        W97447  38.268  32.937   1.440
32463W        W97448  29.556  21.238   2.222
32464W        W97449  36.838  30.193   4.101
32465W        W97450  31.874  44.843   2.684
32466W        W97451  17.333  44.545   0.769
32467W        W97452  22.179   2.553  14.494
32468W        W97453  22.166  44.665  14.978
32469W        W97454  31.506  41.552  14.564
32470W        W97455  24.885  26.815   0.338
32471W        W97456   0.517  44.369   4.187
32472W        W97457  11.397   4.297  12.227
32473W        W97458  16.708   3.406   3.206
32474W        W97459  36.073   4.356  13.928
32475W        W97460   9.097  18.698   1.822
32476W        W97461  10.310   6.636   4.163
32477W        W97462  38.088  17.118   1.888
32478W        W97463   6.438  15.155   1.770
32479W        W97464   6.683  32.679   2.127
32480W        W97465  39.547   4.020  14.956
32481W        W97466   6.940  13.543   1.376
32482W        W97467  24.745  42.351  11.138
32483W        W97468   2.296  32.002   0.934
32484W        W97469   6.096   7.203  13.054
32485W        W97470  28.074  20.806   3.476
32486W        W97471  11.475   4.362  11.712
32487W        W97472  25.640  26.675  12.922
32488W        W97473  31.318  29.958   3.232
32489W        W97474   5.432  27.683  13.583
32490W        W97475  43.268  11.589  13.034
32491W        W97476   5.320  25.659  12.073
32492W        W97477   0.238   3.733   3.624
32493W        W97478   0.597  37.870  10.333
32494W        W97479  15.539  11.140   1.855
32495W        W97480  33.648  33.953   2.480
32496W        W97481  19.155  28.031  13.543
32497W        W97482   9.097  23.158   4.369
32498W        W97483  43.129  20.186   5.026
32499W        W97484   3.253  34.537  12.457
32500W        W97485   4.985   9.089   4.262
32501W        W97486  16.236   7.723   2.225
32502W        W97487  42.560  24.070  11.601
32503W        W97488  33.705  18.156   2.312
32504W        W97489  42.221  17.150   3.200
32505W        W97490  40.272  30.407  11.727
32506W        W97491   8.330  27.161   2.254
32507W        W97492  34.792  13.662  13.989
32508W        W97493  32.344  35.753  12.500
32509W        W97494  13.708  21.096  11.150
32510W        W97495  14.558  32.310  13.544
32511W        W97496  15.126  30.139   4.031
32512W        W97497  23.006  12.045   1.882
32513W        W97498   1.503  30.619  12.305
32514W        W97499   4.400  28.013   3.103
32515W        W97500  41.139  21.082   1.413
32516W        W97501  23.352  11.942  11.054
32517W        W97502  13.355  14.031  12.889
32518W        W97503  12.657  40.320  10.624
32519W        W97504  13.368  10.863   3.265
32520W        W97505  14.792  11.733  10.628
32521W        W97506  33.069  38.577  12.576
32522W        W97507  38.914  29.973  13.881
32523W        W97508   0.791  16.671   1.126
32524W        W97509  37.529  12.960   3.866
32525W        W97510  38.915  44.093   1.734
32526W        W97511   1.435  18.495   1.938
32527W        W97512  11.605  24.202   3.556
32528W        W97513  24.220  24.332   0.884
32529W        W97514  13.277  11.929  12.099
32530W        W97515  29.918   1.513  11.063
32531W        W97516  27.640  16.197  10.708
32532W        W97517  17.132   3.172   3.356
32533W        W97518  43.716  24.978   1.793
32534W        W97519   7.780  30.476   4.544
32535W        W97520  35.279   2.230  13.518
32536W        W97521  27.868  11.682   1.652
32537W        W97522  26.052  25.953  14.810
32538W        W97523  34.963  42.805  10.724
32539W        W97524  35.059  26.849   0.187
32540W        W97525   0.672  22.150   2.867
32541W        W97526  29.033  16.563  11.531
32542W        W97527   4.698   9.624  14.833
32543W        W97528  21.185  17.117  11.937
32544W        W97529  18.993  27.231   0.917
32545W        W97530  26.218  17.538  13.307
32546W        W97531  30.174  25.000   1.447
32547W        W97532  35.030   4.279   3.883
32548W        W97533  13.473  20.026   2.687
32549W        W97534  13.290  43.851   3.729
32550W        W97535  31.517  18.690  11.192
32551W        W97536  20.611  23.989  11.140
32552W        W97537  19.033  18.282   0.250
32553W        W97538  29.552  14.021  12.237
32554W        W97539   4.244  14.599   2.185
32555W        W97540   7.753  35.958   4.957
32556W        W97541  31.695  36.884   1.914
32557W        W97542  43.455  22.236   2.755
32558W        W97543  18.653  31.598   4.650
32559W        W97544  43.487  14.102  11.546
32560W        W97545   6.471   1.328  10.726
32561W        W97546  38.167  34.881  14.903
32562W        W97547   3.512  31.466   1.462
32563W        W97548  42.308  11.482  11.061
32564W        W97549  39.913  20.742   0.090
32565W        W97550  38.218  10.693  10.702
32566W        W97551  26.210  17.419   4.272
32567W        W97552   9.886  27.798   3.960
32568W        W97553  33.370  42.691   3.723
32569W        W97554   8.238  31.458   2.377
32570W        W97555  40.471  43.421  12.526
32571W        W97556  11.114  28.515  14.696
32572W        W97557  21.901   9.717  13.385
32573W        W97558  17.597  16.029  14.319
32574W        W97559  20.745  43.977  13.251
32575W        W97560  27.425  40.925  13.899
32576W        W97561   5.407  18.638   0.452
32577W        W97562   5.831  13.269   1.837
32578W        W97563  30.750   0.693   1.278
32579W        W97564  30.075  26.472  14.409
32580W        W97565  29.151  31.675  12.684
32581W        W97566  36.827   4.838   0.722
32582W        W97567  24.773  22.275  12.627
32583W        W97568  26.061   6.350   1.493
32584W        W97569  19.122  39.375  14.809
32585W        W97570  29.404  19.623  13.182
32586W        W97571  23.603   5.092  13.487
32587W        W97572  38.406   7.696   3.280
32588W        W97573  23.193  36.899  14.794
32589W        W97574  10.075  24.643   3.170
32590W        W97575   8.293   0.494   2.260
32591W        W97576   9.350  34.286  10.660
32592W        W97577   9.694   6.991  11.994
32593W        W97578  14.055  32.349   0.515
32594W        W97579  17.562  15.653   3.292
32595W        W97580  35.344  11.821  10.243
32596W        W97581  16.811  34.551  14.316
32597W        W97582  44.921  33.643  12.899
32598W        W97583  15.315  14.690  12.419
32599W        W97584   9.204  38.413   4.580
32600W        W97585  41.938  32.710  10.701
32601W        W97586  17.644   1.888  11.472
32602W        W97587  17.137  11.475  13.031
32603W        W97588  10.880  28.208   4.653
32604W        W97589  30.091  27.084   1.936
32605W        W97590  31.547   7.880  11.769
32606W        W97591  18.789  30.510   2.770
32607W        W97592  22.973   1.300  13.031
32608W        W97593  21.036  16.686   0.739
32609W        W97594  31.739  37.329   0.298
32610W        W97595  18.070   5.949   2.362
32611W        W97596  22.154  38.607   3.160
32612W        W97597  34.420   0.050   0.150
32613W        W97598  34.324  13.223  11.982
32614W        W97599  27.947  44.357  14.024
32615W        W97600  28.653  21.336   2.444
32616W        W97601  15.903  42.143  13.602
32617W        W97602  17.412  26.605  10.782
32618W        W97603  42.130  32.589   4.167
32619W        W97604  29.377  42.036  11.608
32620W        W97605  19.875   3.148   2.988
32621W        W97606  23.343  17.829  13.504
32622W        W97607  19.574  23.909   3.229
32623W        W97608  24.278  24.669  10.765
32624W        W97609  33.974  39.072   1.553
32625W        W97610  15.684  14.654   3.029
32626W        W97611  14.737  12.183   1.551
32627W        W97612  34.406  44.096  13.859
32628W        W97613  12.198  10.389  14.749
32629W        W97614  40.724  31.925   4.653
32630W        W97615   6.884   7.577  14.789
32631W        W97616   7.086  33.540   2.435
32632W        W97617   2.748  41.010   4.156
32633W        W97618  13.072  38.493  10.622
32634W        W97619  23.498  29.444   1.527
32635W        W97620   8.451  44.719  12.823
32636W        W97621   4.149  18.836  14.523
32637W        W97622  39.459  10.821  11.288
32638W        W97623  29.871  28.441   3.572
32639W        W97624   3.879   3.763  13.342
32640W        W97625   3.914  23.017  13.344
32641W        W97626  29.045  16.979   4.663
32642W        W97627   4.262  10.644  12.452
32643W        W97628  27.597   6.812  12.520
32644W        W97629  36.561  43.227   3.553
32645W        W97630  11.790  22.000  11.227
32646W        W97631   5.624  36.859   3.942
32647W        W97632  26.728  26.170   4.714
32648W        W97633   4.755  30.063  12.287
32649W        W97634  13.282   5.225   1.548
32650W        W97635  33.969  27.633   3.733
32651W        W97636  28.582  41.797   4.136
32652W        W97637   3.222  11.890  14.358
32653W        W97638  27.171  23.696  10.794
32654W        W97639  21.128  34.564   5.044
32655W        W97640  33.965  25.735   4.292
32656W        W97641   7.146  30.397  11.175
32657W        W97642  29.648  40.802  13.831
32658W        W97643  36.934   9.487   2.845
32659W        W97644  11.127  33.143   0.316
32660W        W97645  36.594  13.263   2.195
32661W        W97646  13.095   7.158   9.884
32662W        W97647  39.333  33.649  11.879
32663W        W97648  33.647  44.643   5.032
32664W        W97649  41.775  18.058   2.129
32665W        W97650  38.323  17.823   9.658
32666W        W97651  21.180  40.777   4.324
32667W        W97652  19.747  25.111   3.089
32668W        W97653  28.445  15.857   3.718
32669W        W97654  19.573  35.336  14.508
32670W        W97655   1.217  40.104  12.072
32671W        W97656  38.098  32.996  11.888
32672W        W97657   4.310  22.756   1.865
32673W        W97658  20.168  17.776   2.622
32674W        W97659   3.145  20.580  11.990
32675W        W97660   0.307  17.493  14.950
32676W        W97661  35.924   7.384   3.642
32677W        W97662  24.290   8.339  14.452
32678W        W97663  15.580  41.057  14.392
32679W        W97664  23.155  39.954  14.440
32680W        W97665  13.010  38.442  14.902
32681W        W97666  16.233   9.072  13.952
32682W        W97667  42.320   8.663   0.203
32683W        W97668  11.911   4.386  10.076
32684W        W97669   8.250  29.606   0.951
32685W        W97670  22.717  11.105   0.326
32686W        W97671  41.752  17.630   0.953
32687W        W97672  20.539   9.375  12.858
32688W        W97673  18.391  33.787  13.875
32689W        W97674  35.984  22.675   2.832
32690W        W97675  41.117  10.416   4.184
32691W        W97676  39.472  15.850   2.787
32692W        W97677   9.287  17.555   4.429
32693W        W97678  38.394   8.642  10.891
32694W        W97679  13.342   3.417  14.842
32695W        W97680  17.176  28.192  10.700
32696W        W97681  15.769  24.710  10.637
32697W        W97682  42.890   7.818  14.301
32698W        W97683  43.747  44.595  14.177
32699W        W97684  38.241  44.353   2.229
32700W        W97685  16.426  11.779  11.885
32701W        W97686  40.820  22.827   5.008
32702W        W97687  20.045  36.448   4.330
32703W        W97688  16.390   2.181   0.294
32704W        W97689   4.918  23.834   4.818
32705W        W97690  13.175   3.694  14.411
32706W        W97691  36.060  22.262  12.454
32707W        W97692   1.943  15.609   5.044
32708W        W97693  41.223  15.058   4.668
32709W        W97694  23.760  44.503  13.424
32710W        W97695  19.285  34.142   0.273
32711W        W97696   5.092  12.106  13.097
32712W        W97697  19.025  37.451   1.668
32713W        W97698  33.450  40.621   0.807
32714W        W97699  41.813  42.199   1.818
32715W        W97700  37.404  38.887   4.651
32716W        W97701  11.540   6.654   0.323
32717W        W97702  22.573  37.817  12.102
32718W        W97703   3.897  17.684   2.285
32719W        W97704  36.622   9.450   2.043
32720W        W97705  43.807  36.509  12.780
32721W        W97706  11.353  31.980   2.867
32722W        W97707   8.563   6.852  11.995
32723W        W97708  18.818  27.031   3.864
32724W        W97709  23.540  32.519  10.991
32725W        W97710  29.955  21.534   3.003
32726W        W97711  30.494  31.002   1.875
32727W        W97712  27.703   6.199   3.664
32728W        W97713  36.871  24.227   0.574
32729W        W97714  27.907   1.323   1.843
32730W        W97715  17.564   9.398   0.259
32731W        W97716   9.669  10.496  12.991
32732W        W97717  29.161  23.479  11.974
32733W        W97718   6.883   8.860   0.408
32734W        W97719  18.138  42.815  14.885
32735W        W97720  24.151  36.179  11.668
32736W        W97721  31.237  44.448  14.484
32737W        W97722  17.157  36.424  11.990
32738W        W97723   0.573  18.801   2.410
32739W        W97724   4.954  36.482  12.135
32740W        W97725  29.397  31.641   0.893
32741W        W97726   0.214  24.127   1.383
32742W        W97727  29.990  19.369   0.924
32743W        W97728  10.788   8.763  11.413
32744W        W97729   3.592   8.231   4.702
32745W        W97730  13.524  38.422  14.843
32746W        W97731  15.229  15.562   0.406
32747W        W97732  38.306   7.196   4.707
32748W        W97733   5.283  20.352  10.554
32749W        W97734  30.372  16.825   0.202
32750W        W97735   8.641  42.495   2.969
32751W        W97736  19.535  14.018  14.839
32752W        W97737  14.164  17.294   0.842
32753W        W97738  19.235  10.209  14.674
32754W        W97739   4.291  22.609   2.351
32755W        W97740  28.774   8.848   0.205
32756W        W97741   4.674   9.539   1.691
32757W        W97742  12.566  31.090  14.556
32758W        W97743  25.479  35.920  11.261
32759W        W97744  25.483   6.272   2.903
32760W        W97745  31.931  11.204  10.712
32761W        W97746   6.864  35.486  10.917
32762W        W97747  28.078  12.168   4.235
32763W        W97748  23.560  12.606   4.631
32764W        W97749  10.002  17.052   3.475
32765W        W97750  33.516  21.569   3.137
32766W        W97751   1.721  30.687   3.593
32767W        W97752   8.875  19.178   1.859
32768W        W97753  13.405   5.169  13.039
32769W        W97754  31.893  14.172   1.799
32770W        W97755  33.586  30.527  11.723
32771W        W97756  41.421  28.199   9.874
32772W        W97757   9.701  15.201   4.095
32773W        W97758  28.050  25.523  11.060
32774W        W97759  33.091  24.062   0.810
32775W        W97760  30.155  37.391  14.537
32776W        W97761  11.236   0.222   2.142
32777W        W97762  37.794   4.765   4.610
32778W        W97763  38.066   6.434  12.969
32779W        W97764  18.959  19.667  12.981
32780W        W97765   5.179  42.890  10.651
32781W        W97766  39.504  16.169  12.025
32782W        W97767  28.592  17.721   1.671
32783W        W97768  17.798  29.885   0.317
32784W        W97769  24.074  41.463  13.835
32785W        W97770   3.918  18.323   3.737
32786W        W97771  32.436  21.815  14.348
32787W        W97772  33.156  12.524   1.506
32788W        W97773  30.048  40.895  10.716
32789W        W97774   8.347  41.011  11.599
32790W        W97775   9.157   4.366   4.506
32791W        W97776  44.810  35.380   2.884
32792W        W97777  36.526  20.233   3.377
32793W        W97778  13.821  13.875   3.008
32794W        W97779  26.629   6.037   3.280
32795W        W97780   0.171  36.370   4.645
32796W        W97781  18.665   5.414  13.836
32797W        W97782  20.744  31.368   2.509
32798W        W97783  23.015  21.129  12.468
32799W        W97784  44.555  26.163   9.875
32800W        W97785   6.505  33.172   4.542
32801W        W97786   5.628  12.643   0.548
32802W        W97787  38.124  44.074   0.530
32803W        W97788  21.093  27.881  13.491
32804W        W97789   5.230   3.935   1.791
32805W        W97790  34.117  26.245  14.393
32806W        W97791  18.707  22.754  14.488
32807W        W97792  35.092   6.891  10.818
32808W        W97793  11.768  28.034   4.700
32809W        W97794  42.673  22.511   4.214
32810W        W97795  42.467  38.885   4.186
32811W        W97796  37.387  26.538   0.776
32812W        W97797   4.873  19.163  14.741
32813W        W97798  37.588  39.740  10.580
32814W        W97799   1.381  10.285  13.817
32815W        W97800   3.175  38.655   2.590
32816W        W97801  31.694  35.102   0.484
32817W        W97802  34.819  12.353   5.036
32818W        W97803  25.147  40.301   1.800
32819W        W97804  16.238  20.122   3.337
32820W        W97805  21.886  20.608   2.200
32821W        W97806  30.017  43.386  14.291
32822W        W97807  40.877  10.685   0.866
32823W        W97808  19.563  13.756   0.312
32824W        W97809  21.157   6.255   4.575
32825W        W97810  30.823  22.034  10.738
32826W        W97811   6.834  13.128   1.684
32827W        W97812   6.740   1.326   0.858
32828W        W97813   9.332  32.257   3.843
32829W        W97814  30.155   2.547  12.708
32830W        W97815  41.327  30.076   1.302
32831W        W97816  11.278  15.594  11.404
32832W        W97817  38.970  21.092   1.806
32833W        W97818  32.578   4.395   2.360
32834W        W97819  10.151  38.337  10.312
32835W        W97820  22.150  18.819   1.204
32836W        W97821   2.771  13.117  12.888
32837W        W97822   0.413  30.627   0.511
32838W        W97823  22.720  15.008   3.746
32839W        W97824  35.851  37.878  11.560
32840W        W97825   7.871  22.025   0.993
32841W        W97826   9.916  17.368   1.747
32842W        W97827  13.169  33.841   2.565
32843W        W97828  25.777  18.680  13.769
32844W        W97829   4.945  10.857  13.948
32845W        W97830  40.815  21.769   2.739
32846W        W97831  12.587  29.835  10.718
32847W        W97832  11.834  16.367   1.840
32848W        W97833  25.988  13.731  13.398
32849W        W97834  42.886  12.112  14.289
32850W        W97835   5.475   7.798  11.563
32851W        W97836  40.898  37.713   1.596
32852W        W97837  24.256  32.694   2.205
32853W        W97838  32.424  10.995   1.519
32854W        W97839  14.263  27.720  13.007
32855W        W97840   0.886  21.964   0.966
32856W        W97841  33.054  28.425  11.506
32857W        W97842  38.372  21.542  14.907
32858W        W97843   9.065  28.508  14.244
32859W        W97844  10.199  43.953   0.186
32860W        W97845  44.765  31.696   2.245
32861W        W97846  28.258   3.716  12.497
32862W        W97847  38.104   9.875   1.199
32863W        W97848  14.973   1.007  12.428
32864W        W97849  21.271  26.817  13.618
32865W        W97850   8.876  44.457  12.925
32866W        W97851  20.722   8.158  14.331
32867W        W97852  19.821  33.366  13.163
32868W        W97853  35.909   2.326   1.998
32869W        W97854  35.647  38.277   1.781
32870W        W97855   3.755  44.682  13.482
32871W        W97856  26.194  15.236   4.763
32872W        W97857   7.321   7.733   0.041
32873W        W97858  23.105  22.389   3.229
32874W        W97859  18.207   8.020   1.324
32875W        W97860  15.538   9.313  10.509
32876W        W97861  31.139   2.441   1.419
32877W        W97862   6.495  11.927  12.927
32878W        W97863   2.138  18.244  14.359
32879W        W97864  32.892  41.929   3.642
32880W        W97865  38.136  27.945  11.258
32881W        W97866   9.705  37.114   4.201
32882W        W97867  34.918  21.694  11.616
32883W        W97868  26.576  30.468  14.004
32884W        W97869  24.519  13.749   4.440
32885W        W97870  16.764  35.175   2.302
32886W        W97871  12.381  36.019   1.893
32887W        W97872  26.165  38.549   0.784
32888W        W97873  34.958  17.423   0.414
32889W        W97874  20.772  40.490  13.367
32890W        W97875   8.875  35.663  12.882
32891W        W97876  28.732   9.112   3.095
32892W        W97877   0.880  37.875  14.818
32893W        W97878  13.334  30.512   0.343
32894W        W97879  34.145  34.571  12.537
32895W        W97880  42.758  19.235   1.961
32896W        W97881  44.038  36.829   1.863
32897W        W97882  16.177   7.218  12.128
32898W        W97883  10.348  32.020   2.270
32899W        W97884  14.121  31.272   4.878
32900W        W97885   7.936  15.307  11.161
32901W        W97886  10.096  41.057   3.705
32902W        W97887  22.764  36.741  12.122
32903W        W97888  44.981  10.333  12.375
32904W        W97889  28.648  20.655  13.137
32905W        W97890  44.303  21.667   2.757
32906W        W97891   0.028  19.318   0.010
32907W        W97892  11.721  42.798   4.022
32908W        W97893  34.833  32.890  13.611
32909W        W97894  24.604  23.701   3.693
32910W        W97895  32.646  26.184   4.569
32911W        W97896  16.325  22.668   2.298
32912W        W97897  30.209  19.704   3.135
32913W        W97898   3.993  22.880   3.139
32914W        W97899  42.460   1.796  13.650
32915W        W97900  18.122   2.241  14.279
32916W        W97901   8.630  28.562  12.418
32917W        W97902   4.381   2.299  13.986
32918W        W97903  26.529   6.688   0.387
32919W        W97904   2.765   0.011   1.836
32920W        W97905  16.212  24.713   0.933
32921W        W97906  37.348  10.266   3.189
32922W        W97907  37.975  21.264   1.751
32923W        W97908  13.090   0.507  11.642
32924W        W97909  31.015  33.092   2.194
32925W        W97910   6.748  31.008  11.604
32926W        W97911  18.766   3.390  14.078
32927W        W97912  10.683  32.527   0.042
32928W        W97913  41.151  26.251  13.420
32929W        W97914  41.884  12.177   2.140
32930W        W97915  27.983  13.041  10.638
32931W        W97916  19.705  25.530  14.252
32932W        W97917  21.800  44.261   3.437
32933W        W97918  41.131  21.084  13.696
32934W        W97919   8.949  43.969  14.786
32935W        W97920  26.280  27.983   2.163
32936W        W97921   0.086   0.698  12.539
32937W        W97922   2.542  16.227   3.467
32938W        W97923  39.256  35.653   5.447
32939W        W97924  10.206   5.002   5.031
32940W        W97925   6.840  19.164   2.396
32941W        W97926  16.093  35.959  12.932
32942W        W97927   2.370  40.767   1.199
32943W        W97928   6.677  38.862  14.948
32944W        W97929   6.951  16.132  12.483
32945W        W97930  22.890  39.349  12.198
32946W        W97931  29.853  30.318   5.414
32947W        W97932  33.749   4.771   0.326
32948W        W97933  30.542  19.530   2.717
32949W        W97934  26.604  38.321   0.923
32950W        W97935  27.087  37.610   2.174
32951W        W97936  38.240  10.854   0.273
32952W        W97937   4.937  15.941   0.336
32953W        W97938  29.570  22.772  13.354
32954W        W97939  19.223  27.229  11.921
32955W        W97940   1.946  37.574  13.445
32956W        W97941  15.253  32.136   4.564
32957W        W97942  42.729  41.885  13.915
32958W        W97943  32.288   0.721  13.464
32959W        W97944  27.703  10.853   0.510
32960W        W97945  33.050  22.480   2.356
32961W        W97946   3.155  13.748  13.254
32962W        W97947  14.739   9.078   0.426
32963W        W97948  16.085  25.492   0.293
32964W        W97949  31.423  15.410  10.036
32965W        W97950  33.377  18.696  14.386
32966W        W97951  13.468  34.169  11.693
32967W        W97952  14.717  23.663   2.818
32968W        W97953  14.838   4.915  13.612
32969W        W97954   3.088  26.109   1.765
32970W        W97955  15.821   3.905  13.024
32971W        W97956   8.942  37.371  12.367
32972W        W97957  11.867  24.617   3.852
32973W        W97958  39.936  43.490   2.611
32974W        W97959  21.463  13.229   0.431
32975W        W97960  10.236   5.014  14.281
32976W        W97961  25.447  38.503  11.009
32977W        W97962  33.442  41.378   0.400
32978W        W97963   5.335  29.408  10.697
32979W        W97964   0.819  37.535   4.611
32980W        W97965   1.588  23.930   0.353
32981W        W97966  35.486  17.614   2.789
32982W        W97967   9.111   7.392   1.435
32983W        W97968  35.495  12.834   3.219
32984W        W97969  16.735  27.494   0.758
32985W        W97970  33.873  25.129   3.246
32986W        W97971  42.910  10.572   1.715
32987W        W97972   3.665  11.061  11.986
32988W        W97973  13.832  10.643   1.266
32989W        W97974   9.322  15.345  11.485
32990W        W97975   0.331   1.341  12.966
32991W        W97976  30.130  27.563   4.645
32992W        W97977  43.796   3.331  10.523
32993W        W97978  44.266  10.597  11.656
32994W        W97979  18.070  19.479  12.097
32995W        W97980  30.914  15.160  11.315
32996W        W97981  24.389   5.805   5.028
32997W        W97982  23.967  19.021   4.257
32998W        W97983   2.162  36.874   4.312
32999W        W97984   8.767  10.186  11.298
33000W        W97985  34.139   3.502   1.319
33001W        W97986  19.607  10.513   3.952
33002W        W97987   6.876  10.380   3.130
33003W        W97988  28.099  38.798   1.619
33004W        W97989   1.795  19.052   0.818
33005W        W97990  22.642  40.541   1.152
33006W        W97991  29.916  15.680  12.012
33007W        W97992   1.947  33.904   3.175
33008W        W97993  19.204  23.195  12.475
33009W        W97994  30.253   3.673   0.340
33010W        W97995  34.917  14.068  13.042
33011W        W97996  35.537   1.249  13.372
33012W        W97997  26.090  21.422  14.760
33013W        W97998  39.357   8.821  13.849
33014W        W97999  10.720  22.254  12.878
33015W        W98000  18.733  31.688   0.586
33016W        W98001  23.886   4.357   4.277
33017W        W98002  37.051  30.315   4.547
33018W        W98003  39.843  18.799  13.598
33019W        W98004   7.413  41.742  14.381
33020W        W98005  14.391   2.263   0.291
33021W        W98006  26.656  10.028   4.066
33022W        W98007  31.864   3.477   5.060
33023W        W98008  19.114  21.229   4.560
33024W        W98009  41.574  33.994  12.429
33025W        W98010  40.952  18.162   1.800
33026W        W98011  31.351  41.052   9.831
33027W        W98012  36.617  19.875  14.005
33028W        W98013  16.215  15.082  10.474
33029W        W98014   6.582  32.148   3.212
33030W        W98015  21.042  37.915  11.410
33031W        W98016  24.998   8.155   4.067
33032W        W98017  33.873  42.801   3.671
33033W        W98018  37.366   1.222  14.848
33034W        W98019   0.971  22.910  12.172
33035W        W98020  26.944  14.523  10.999
33036W        W98021  29.564  33.174  11.151
33037W        W98022  26.698  39.840  11.078
33038W        W98023  15.123  44.821  11.356
33039W        W98024  34.623  37.649   1.290
33040W        W98025  33.978  18.804  13.736
33041W        W98026  22.968  23.173  13.459
33042W        W98027  18.264  44.974  10.671
33043W        W98028  16.183  11.852  12.881
33044W        W98029  12.179  24.184   2.308
33045W        W98030   9.434  12.246   2.883
33046W        W98031  23.816  11.757  11.256
33047W        W98032  13.685  34.647  12.913
33048W        W98033  23.620  35.441  11.175
33049W        W98034  26.672   6.883  10.595
33050W        W98035  17.119   9.231  10.362
33051W        W98036   9.665  22.470  13.995
33052W        W98037  25.265  32.027   0.468
33053W        W98038   6.081  18.448   3.279
33054W        W98039  44.922   5.624   1.422
33055W        W98040  11.144  19.263   0.240
33056W        W98041  30.083  23.812   3.777
33057W        W98042  10.198  23.588  14.338
33058W        W98043  15.175  34.348   3.226
33059W        W98044  34.426  24.488  11.625
33060W        W98045  23.606  15.217   2.343
33061W        W98046  10.840  16.132   3.657
33062W        W98047   1.917   4.339  13.757
33063W        W98048  38.274  17.696  13.597
33064W        W98049  40.904  34.033  11.149
33065W        W98050  39.623  40.347   2.201
33066W        W98051   2.903  42.725   2.152
33067W        W98052  23.700  14.876   1.140
33068W        W98053   3.769  19.997   2.825
33069W        W98054  16.029   0.288  12.985
33070W        W98055  21.644  34.077   1.873
33071W        W98056  20.299  18.527  12.793
33072W        W98057  24.055  12.132   0.890
33073W        W98058  15.551  28.309  14.842
33074W        W98059  40.131  21.469  11.191
33075W        W98060  27.102  32.309   1.324
33076W        W98061  44.912  32.004  12.411
33077W        W98062  13.299  17.790   2.462
33078W        W98063  22.054  28.824  13.903
33079W        W98064  44.228  29.579  14.730
33080W        W98065   3.751  17.568  12.042
33081W        W98066   4.452  25.900  12.164
33082W        W98067  14.853  18.313   3.759
33083W        W98068   1.309  39.547   3.230
33084W        W98069  36.137   5.133  14.363
33085W        W98070  21.958  34.071  10.710
33086W        W98071   1.006  23.961   1.734
33087W        W98072  24.447  18.999   1.967
33088W        W98073  17.408  19.725   3.678
33089W        W98074  35.610   7.275   1.072
33090W        W98075  36.163   4.244   2.665
33091W        W98076  11.118  31.857   0.314
33092W        W98077  26.211  28.054   1.302
33093W        W98078   8.147  18.508  12.556
33094W        W98079  23.685  19.087  12.496
33095W        W98080  14.295  14.912  11.085
33096W        W98081  41.704  19.748   3.191
33097W        W98082  25.563  13.578  13.023
33098W        W98083  42.813  11.850  14.736
33099W        W98084  18.310  17.363   3.797
33100W        W98085   8.746  26.823   0.300
33101W        W98086  21.847   2.057  11.442
33102W        W98087  24.242  28.281   4.618
33103W        W98088  21.171  13.079   1.850
33104W        W98089   4.708  18.109  12.643
33105W        W98090   5.409  19.260  14.754
33106W        W98091  38.823  11.591  12.493
33107W        W98092  10.424  33.645  13.537
33108W        W98093  15.224  30.789   1.413
33109W        W98094   5.790  20.738   2.919
33110W        W98095  27.628  41.860   1.429
33111W        W98096  32.898  24.779  14.836
33112W        W98097   5.191  34.890   4.499
33113W        W98098  39.972  12.330  12.909
33114W        W98099   9.199  12.298   4.744
33115W        W98100  27.547  10.275   3.649
33116W        W98101  15.469  18.782  10.506
33117W        W98102  14.050  11.162  12.523
33118W        W98103  35.509   5.654  14.097
33119W        W98104   6.652  42.104   0.418
33120W        W98105  14.683   5.399   1.511
33121W        W98106  15.147   3.871  11.889
33122W        W98107  30.983  22.780   4.016
33123W        W98108  38.191  30.629  13.522
33124W        W98109  40.506  24.934   3.667
33125W        W98110  42.967   3.687   2.730
33126W        W98111  35.952  10.381  12.256
33127W        W98112  44.879  23.576   2.256
33128W        W98113  43.001   0.092   0.347
33129W        W98114  11.976  25.182  11.925
33130W        W98115  12.722  35.809  14.193
33131W        W98116  17.317  33.665  11.078
33132W        W98117  12.564  14.709  10.714
33133W        W98118  16.102  15.589  13.917
33134W        W98119  36.293  14.805  13.125
33135W        W98120  12.400  33.928   4.136
33136W        W98121  31.317  35.351   0.719
33137W        W98122  14.571  39.300   4.267
33138W        W98123  40.485  44.107   2.356
33139W        W98124  16.146  41.554   1.306
33140W        W98125  35.578  44.853   1.861
33141W        W98126  37.611  43.026   4.580
33142W        W98127   8.970  43.983  14.267
33143W        W98128  36.894  41.382   4.950
33144W        W98129  37.472  36.342  12.183
33145W        W98130   5.644   3.405  13.376
33146W        W98131   0.919  32.639  10.396
33147W        W98132  15.613  33.361   0.494
33148W        W98133  10.161   5.370   0.698
33149W        W98134  32.481  22.643   4.579
33150W        W98135  43.540  28.485   1.204
33151W        W98136  39.506   9.101  14.397
33152W        W98137   8.229  22.590   3.674
33153W        W98138  17.833  26.860  11.007
33154W        W98139  21.374  27.194   0.862
33155W        W98140  14.078  44.474  12.466
33156W        W98141   1.521  20.282  13.823
33157W        W98142   8.752   6.466   0.525
33158W        W98143  35.620  29.420  14.680
33159W        W98144  44.075  19.981  14.431
33160W        W98145  42.461  37.587  12.084
33161W        W98146  18.291  34.232   3.162
33162W        W98147  29.133  19.776   4.569
33163W        W98148  18.861  22.123   1.831
33164W        W98149  36.619   7.883  14.235
33165W        W98150  17.787  44.678  14.563
33166W        W98151  32.284   3.752   0.312
33167W        W98152  29.460  34.886   4.102
33168W        W98153  30.036  27.536   1.678
33169W        W98154  26.257  24.187   1.803
33170W        W98155  29.923  11.046   2.088
33171W        W98156   6.836  24.184   4.834
33172W        W98157  32.181  16.435  14.998
33173W        W98158  36.591  13.601   3.213
33174W        W98159   0.020  12.267  14.865
33175W        W98160   8.413  43.479   4.474
33176W        W98161  13.628  22.137  14.647
33177W        W98162  20.862  23.839   3.235
33178W        W98163  36.552   5.672   3.225
33179W        W98164   7.913   1.374  13.329
33180W        W98165   4.856  31.170   1.774
33181W        W98166  21.580  20.260   0.306
33182W        W98167  40.560  23.908   2.837
33183W        W98168  36.743  34.958   1.918
33184W        W98169  29.351   5.949  12.822
33185W        W98170  10.649  26.106   1.495
33186W        W98171  29.071  23.492   0.941
33187W        W98172   5.854  26.089  11.979
33188W        W98173  18.716   8.690  12.022
33189W        W98174  10.213  19.037   2.680
33190W        W98175  14.062   5.248   4.128
33191W        W98176  22.046  31.615   3.111
33192W        W98177  42.435  19.929   2.459
33193W        W98178   0.550  11.251   1.747
33194W        W98179  11.198  40.502   1.353
33195W        W98180  28.833  19.498  12.547
33196W        W98181  40.150  20.948  11.174
33197W        W98182  40.730  44.172  12.509
33198W        W98183  28.976  17.988   4.320
33199W        W98184  11.239  41.144   2.835
33200W        W98185   2.746   5.703   3.732
33201W        W98186   9.218   2.308  11.185
33202W        W98187  40.994  34.624   0.556
33203W        W98188   7.317  12.924   0.905
33204W        W98189  11.394   9.835   4.121
33205W        W98190  39.124  15.574  11.496
33206W        W98191  18.876  32.219  12.448
33207W        W98192  29.639  28.973   1.834
33208W        W98193  17.406  14.797   2.877
33209W        W98194  41.048  39.041   3.528
33210W        W98195  32.176  30.080   3.599
33211W        W98196  11.429  27.107   0.934
33212W        W98197  11.878  17.914   1.743
33213W        W98198  32.885   9.281   0.878
33214W        W98199  13.981  41.357   4.306
33215W        W98200  13.659   8.798  13.143
33216W        W98201  33.992  40.887   4.070
33217W        W98202   3.494  23.651   3.524
33218W        W98203  10.850  35.794  12.841
33219W        W98204  11.252   8.470   2.628
33220W        W98205   1.679  13.607  11.560
33221W        W98206   5.864  14.048  11.477
33222W        W98207  38.292  44.854  11.666
33223W        W98208  37.418   8.927  11.740
33224W        W98209   0.758  18.318   3.690
33225W        W98210   2.443  21.482   4.564
33226W        W98211   2.506  14.590  13.427
33227W        W98212   3.668  31.992   1.944
33228W        W98213  20.131   2.709  10.636
33229W        W98214   0.004  30.045   4.554
33230W        W98215  41.359  27.707  10.031
33231W        W98216  19.955   5.396  12.908
33232W        W98217  40.565  17.550   1.376
33233W        W98218  20.047  19.809   0.111
33234W        W98219  21.700  40.484  13.795
33235W        W98220  16.119  15.080  12.384
33236W        W98221  34.071  11.567   0.804
33237W        W98222   4.294  40.257  11.077
33238W        W98223  40.455  29.215   3.511
33239W        W98224  24.156  40.554   1.907
33240W        W98225  31.807   3.444  10.562
33241W        W98226  16.678  44.995   2.773
33242W        W98227  30.032   8.877   4.070
33243W        W98228   2.314   2.129  13.021
33244W        W98229  25.538  37.902   1.339
33245W        W98230  44.104  22.755  11.916
33246W        W98231  36.091  40.644   4.218
33247W        W98232  16.410  20.054   0.472
33248W        W98233  21.784  21.158  13.315
33249W        W98234   5.862   1.792   2.288
33250W        W98235  42.837  32.368  12.939
33251W        W98236  43.921  35.016   0.247
33252W        W98237   3.083  32.714   2.916
33253W        W98238  11.665  14.179   2.269
33254W        W98239  10.167  32.227   4.149
33255W        W98240   4.428  17.547   1.800
33256W        W98241  30.441  13.613   2.750
33257W        W98242   6.669   3.364   3.243
33258W        W98243   5.342   9.268  11.259
33259W        W98244  21.629  36.354  10.796
33260W        W98245   1.207  29.734  11.338
33261W        W98246  28.452  38.243   2.215
33262W        W98247  36.295  38.293  14.840
33263W        W98248  21.985  36.244   1.709
33264W        W98249  17.867  43.655  14.477
33265W        W98250  39.990  13.117  11.147
33266W        W98251  23.643  39.981   3.873
33267W        W98252  20.540  39.497  10.750
33268W        W98253  44.906  12.395  11.036
33269W        W98254  35.574   6.782   2.308
33270W        W98255  26.583  29.391   2.321
33271W        W98256  34.531  29.887   3.852
33272W        W98257  34.142  27.094   1.686
33273W        W98258  30.678  37.407  14.525
33274W        W98259  21.112   4.235  12.097
33275W        W98260   9.237   5.972   2.565
33276W        W98261  35.481  19.264   0.690
33277W        W98262  27.182   2.768  11.151
33278W        W98263  21.568   5.773   2.844
33279W        W98264  34.860   0.337  12.958
33280W        W98265   0.916  15.734   1.234
33281W        W98266   2.997  41.234   3.304
33282W        W98267  32.687   1.563   3.916
33283W        W98268  24.737  36.976  14.020
33284W        W98269  36.145  42.003  13.029
33285W        W98270   8.147  38.341   0.846
33286W        W98271  10.666  11.106  12.096
33287W        W98272  14.925  24.900   5.037
33288W        W98273  16.579  44.461   3.632
33289W        W98274  27.328  38.899  10.314
33290W        W98275  35.321  14.014  10.602
33291W        W98276  10.795  21.981   4.090
33292W        W98277  21.861  25.318  14.145
33293W        W98278   4.262   6.575  13.446
33294W        W98279  15.775  36.899   4.292
33295W        W98280  11.969  39.341  11.651
33296W        W98281  10.928  40.023  13.465
33297W        W98282  27.459  32.972   2.000
33298W        W98283  25.086  23.984   0.298
33299W        W98284  16.765  44.341   4.100
33300W        W98285  34.052  11.815  14.402
33301W        W98286  17.571  22.720  10.016
33302W        W98287  21.104   4.412   1.781
33303W        W98288  18.474  12.509   2.123
33304W        W98289  35.426  32.300   0.920
33305W        W98290  41.535   6.522   3.842
33306W        W98291   2.285  11.190   3.583
33307W        W98292  28.446  20.490   0.818
33308W        W98293  36.332  15.149   2.693
33309W        W98294  38.367  20.798   4.072
33310W        W98295  39.688  27.291  14.277
33311W        W98296  21.493  34.963  10.625
33312W        W98297  34.670   9.846  12.127
33313W        W98298  10.761  11.799   0.640
33314W        W98299  16.469  35.542  14.337
33315W        W98300   8.398  21.270   3.096
33316W        W98301  41.034  13.099   1.764
33317W        W98302  36.949   0.404   3.797
33318W        W98303  34.492  11.580  14.545
33319W        W98304  37.644  43.378   4.213
33320W        W98305   7.403  41.256  12.405
33321W        W98306   5.032  32.378   0.627
33322W        W98307   0.801  37.887   0.732
33323W        W98308  13.077  24.467  11.416
33324W        W98309  37.842   9.176  14.873
33325W        W98310  13.891  20.000  12.578
33326W        W98311  22.611   9.864  11.470
33327W        W98312  44.793  29.517   1.058
33328W        W98313   7.708  32.490  12.619
33329W        W98314  42.291  40.315  10.750
33330W        W98315   2.839  26.006  12.469
33331W        W98316  27.411   8.939  11.953
33332W        W98317  37.971  38.564   4.089
33333W        W98318  13.764  41.856   0.968
33334W        W98319   3.033  40.958   1.843
33335W        W98320  15.456  40.941  12.998
33336W        W98321  29.175  40.060  14.924
33337W        W98322  30.502  11.066  11.928
33338W        W98323  25.170  14.900   3.166
33339W        W98324  41.625  36.656  14.889
33340W        W98325  17.623  28.991   3.476
33341W        W98326   8.482  14.690  13.819
33342W        W98327  36.378   6.228   0.913
33343W        W98328   3.731  15.214   0.463
33344W        W98329  36.419  33.909   0.707
33345W        W98330  24.437  28.692   0.124
33346W        W98331  33.102  21.784  13.665
33347W        W98332  12.796   1.903  14.026
33348W        W98333  43.492  26.673   4.531
33349W        W98334   0.305  41.052   2.292
33350W        W98335  21.637  21.515   3.287
33351W        W98336  33.911  40.583  13.968
33352W        W98337  10.825  32.990   0.945
33353W        W98338  20.303  29.512   2.885
33354W        W98339  15.356  38.049  11.976
33355W        W98340   2.255  43.927  10.714
33356W        W98341  38.505  39.480   2.744
33357W        W98342  38.676  42.741   4.125
33358W        W98343   8.619  27.158  14.922
33359W        W98344  35.394   6.723   3.268
33360W        W98345  16.918  36.613  13.967
33361W        W98346  14.289  33.176   4.787
33362W        W98347  40.913  27.313  10.511
33363W        W98348  34.323   9.879  13.742
33364W        W98349  27.188  18.337  13.946
33365W        W98350  14.297  20.754   3.497
33366W        W98351  31.773  12.346   0.545
33367W        W98352  43.229  17.021   2.913
33368W        W98353  39.542  14.341  13.521
33369W        W98354   6.454  44.233   2.340
33370W        W98355  33.909  41.550   0.533
33371W        W98356  43.895   0.986   4.730
33372W        W98357  13.621  36.010   0.742
33373W        W98358  44.602   4.995   2.756
33374W        W98359  39.964  43.522  12.610
33375W        W98360  29.018  35.597  13.588
33376W        W98361   5.800  44.159   1.759
33377W        W98362  16.155  26.640   2.315
33378W        W98363  20.063  16.982  12.878
33379W        W98364  19.585  35.499   4.092
33380W        W98365   8.818  39.071   5.138
33381W        W98366  39.065  44.714   3.336
33382W        W98367  18.478  26.926  11.550
33383W        W98368  19.931  29.895   4.861
33384W        W98369  40.851  18.956  12.402
33385W        W98370  20.578  24.022   4.579
33386W        W98371  25.253  35.553  12.605
33387W        W98372  35.271   5.021   3.275
33388W        W98373  37.101  29.238   4.155
33389W        W98374   9.129  39.952   0.853
33390W        W98375   4.819  44.567  13.714
33391W        W98376  38.448  37.096  11.139
33392W        W98377  43.525  29.410   0.246
33393W        W98378  14.682  21.091   4.633
33394W        W98379  25.148   0.263   4.414
33395W        W98380   5.916  15.818   0.555
33396W        W98381   1.900  19.733   3.391
33397W        W98382   2.616  13.295  13.786
33398W        W98383  37.365  40.252  11.562
33399W        W98384  43.922  11.198   0.707
33400W        W98385   4.831  39.780  12.463
33401W        W98386  24.219  14.871   4.100
33402W        W98387  24.069   2.272   2.796
33403W        W98388  42.310   6.326  13.112
33404W        W98389   7.626  11.175   4.776
33405W        W98390  36.938  26.889   4.627
33406W        W98391  13.883   3.920  11.085
33407W        W98392  34.589  33.203  14.708
33408W        W98393   7.605  30.653   4.098
33409W        W98394   1.349   3.853  11.607
33410W        W98395  24.613   2.057  10.187
33411W        W98396  28.949  37.760   3.148
33412W        W98397  20.265   9.832  10.835
33413W        W98398   0.939  43.731   3.595
33414W        W98399   2.525  11.651   3.687
33415W        W98400  18.248  24.998   2.723
33416W        W98401  41.677  12.227  14.627
33417W        W98402  25.604  17.081  12.079
33418W        W98403  22.676   0.393   2.189
33419W        W98404  36.758  32.591  11.186
33420W        W98405  20.216  30.435  14.047
33421W        W98406  40.873  22.161   0.927
33422W        W98407  35.910   6.768  14.411
33423W        W98408  30.076  30.242   0.634
33424W        W98409  21.703  38.566   4.148
33425W        W98410  38.120  44.318   4.434
33426W        W98411  33.359  10.749   1.814
33427W        W98412  27.200  39.017  14.011
33428W        W98413  37.812  10.740  14.297
33429W        W98414  15.796  14.625  13.502
33430W        W98415  41.037  21.267   2.730
33431W        W98416   8.706  32.815   4.098
33432W        W98417  31.358  35.409  14.217
33433W        W98418  19.088  38.943  10.500
33434W        W98419  27.948  16.040   3.268
33435W        W98420  31.834  35.643  12.413
33436W        W98421  36.967   9.215  11.719
33437W        W98422   4.222  34.154   3.280
33438W        W98423  30.414  21.107   4.594
33439W        W98424   9.071  41.563   4.117
33440W        W98425  17.359  34.017   1.454
33441W        W98426   8.421   5.947   2.265
33442W        W98427  39.731   1.950  12.317
33443W        W98428  19.048  28.022  12.233
33444W        W98429  31.913   8.158   1.244
33445W        W98430  23.658  42.402  11.740
33446W        W98431   7.800   9.575  13.459
33447W        W98432  21.666  42.447   1.268
33448W        W98433  16.054  20.247  13.668
33449W        W98434  44.533   2.987  10.556
33450W        W98435  23.333  44.714  11.533
33451W        W98436  10.878  36.076  12.418
33452W        W98437  18.467  13.842  10.999
33453W        W98438  44.306  12.806  12.602
33454W        W98439  41.663   5.356  13.236
33455W        W98440  30.676  24.148   0.223
33456W        W98441  24.155  22.057  13.008
33457W        W98442  29.022  43.872   0.837
33458W        W98443  36.122  27.102   1.886
33459W        W98444  17.095  24.466  13.039
33460W        W98445  18.649   6.515  13.000
33461W        W98446  36.267  22.650   3.264
33462W        W98447  30.475  38.847  11.327
33463W        W98448  25.705  38.976   4.879
33464W        W98449  14.469   1.165  14.840
33465W        W98450   1.046  17.508   2.818
33466W        W98451  22.262  22.840   3.274
33467W        W98452  42.864  13.275   0.892
33468W        W98453   0.082  34.860  13.447
33469W        W98454  37.127  25.266   1.376
33470W        W98455  10.833  36.985  12.410
33471W        W98456  31.110   7.998   1.834
33472W        W98457  38.388  17.117   0.537
33473W        W98458   3.940   6.151  11.133
33474W        W98459  25.399   6.981   0.981
33475W        W98460  25.828  31.745  12.773
33476W        W98461  44.636   7.981   4.856
33477W        W98462  18.687  19.306  13.787
33478W        W98463  10.782  19.285   1.871
33479W        W98464  35.340  31.410   0.724
33480W        W98465  44.952  16.635  11.620
33481W        W98466  29.204  23.210   2.828
33482W        W98467   3.414  25.186  14.787
33483W        W98468  34.498  12.883  10.641
33484W        W98469   7.348  26.877  12.165
33485W        W98470  22.985  25.785   1.644
33486W        W98471  44.436  34.059  13.519
33487W        W98472  13.651   6.029  10.301
33488W        W98473  35.228  32.752  12.218
33489W        W98474  36.983  30.455   5.031
33490W        W98475  43.411  22.466  11.469
33491W        W98476  37.918  14.354  13.096
33492W        W98477   9.025   7.400   0.921
33493W        W98478  44.750  40.463   1.963
33494W        W98479  26.514  39.613  13.057
33495W        W98480   8.832  37.433   1.410
33496W        W98481  38.970  32.439   4.534
33497W        W98482  42.248  13.933   0.272
33498W        W98483  23.008  44.872   3.353
33499W        W98484   1.897  12.236   4.198
33500W        W98485   2.147   6.593  11.141
33501W        W98486   7.729   3.851  10.056
33502W        W98487  39.027  29.405   0.990
33503W        W98488  11.361  27.103  13.075
33504W        W98489  22.155  23.838   3.153
33505W        W98490  10.761  42.992   4.119
33506W        W98491   2.187  43.997   4.123
33507W        W98492  34.896  42.560   0.364
33508W        W98493  26.037   0.900   0.588
33509W        W98494   6.457  36.042  12.988
33510W        W98495  11.347  14.618   4.008
33511W        W98496  17.847  32.296   2.384
33512W        W98497   6.504  11.589  11.660
33513W        W98498   7.659   3.933   2.361
33514W        W98499   7.629   6.724   2.244
33515W        W98500  33.988  33.594   0.834
33516W        W98501  37.079  29.187   1.392
33517W        W98502  26.828  25.293   4.160
33518W        W98503  18.717   0.638  13.561
33519W        W98504  21.935  24.401  12.106
33520W        W98505   1.820  37.038  14.288
33521W        W98506   9.270   5.381  14.453
33522W        W98507  22.173   1.879  11.784
33523W        W98508   4.832  44.054   5.076
33524W        W98509   4.979  39.580  14.888
33525W        W98510  20.443   7.012   2.309
33526W        W98511  42.846  42.054  10.777
33527W        W98512  15.099  35.888  12.993
33528W        W98513  39.810  12.832  12.948
33529W        W98514  10.429  41.266   2.913
33530W        W98515  37.672  24.983  12.918
33531W        W98516  35.049  20.950  11.996
33532W        W98517  15.750  36.191  12.021
33533W        W98518  16.320  44.740  14.414
33534W        W98519  38.392  28.491  12.055
33535W        W98520   6.192  30.449  14.889
33536W        W98521   5.261  30.905  13.459
33537W        W98522  25.629  19.801  11.931
33538W        W98523  22.981  27.672   4.449
33539W        W98524   3.430  36.784  14.981
33540W        W98525  19.591  10.293  14.309
33541W        W98526  11.192  23.682   1.624
33542W        W98527  44.620  30.966   5.054
33543W        W98528  38.833  16.937  12.917
33544W        W98529  28.386  18.264  12.475
33545W        W98530  18.974  15.224  11.038
33546W        W98531  17.306  14.580   0.860
33547W        W98532  29.576  30.540   0.759
33548W        W98533   5.381  31.795   1.228
33549W        W98534  40.903  11.173   1.095
33550W        W98535  33.092  15.582   2.344
33551W        W98536  27.512  12.375  13.986
33552W        W98537  10.186  23.317   3.226
33553W        W98538  11.928  34.878  13.734
33554W        W98539  37.448  16.475  11.605
33555W        W98540  44.382  17.244   1.503
33556W        W98541  39.754  18.830   2.575
33557W        W98542  43.845  13.118   0.358
33558W        W98543  16.176  25.630   1.188
33559W        W98544  39.113   5.394   3.767
33560W        W98545   1.632  18.182   0.258
33561W        W98546  31.908  36.281  14.414
33562W        W98547   5.711  11.095  12.585
33563W        W98548  31.765   0.885   4.197
33564W        W98549   6.241   1.049  14.385
33565W        W98550  35.415  13.757   2.337
33566W        W98551  10.098  24.179   0.823
33567W        W98552   8.729  17.097   2.202
33568W        W98553  42.830  42.858  12.861
33569W        W98554  23.491  23.737  12.621
33570W        W98555  37.806  15.269  13.895
33571W        W98556  27.085  33.023  13.242
33572W        W98557  24.639  40.889   0.866
33573W        W98558  21.449   5.375  14.302
33574W        W98559  20.456  33.928  11.875
33575W        W98560  29.185  27.019   1.159
33576W        W98561  29.189  23.258   1.926
33577W        W98562  28.066  38.817   4.997
33578W        W98563  13.413  29.461  13.013
33579W        W98564  34.788  31.046  11.383
33580W        W98565  41.083  19.457   1.163
33581W        W98566  29.895  21.131   4.680
33582W        W98567  40.898   9.753  12.532
33583W        W98568  22.289  36.290  14.034
33584W        W98569  12.819  27.755  13.664
33585W        W98570  23.339  40.763  14.771
33586W        W98571  30.181  22.727  10.807
33587W        W98572  44.938   6.432   4.581
33588W        W98573  38.664   1.917  14.992
33589W        W98574  25.966  25.158   1.769
33590W        W98575  14.245  40.062  12.077
33591W        W98576   5.639  14.037   2.859
33592W        W98577   4.340  32.448  14.416
33593W        W98578  22.364  23.459  11.267
33594W        W98579  15.693  27.089   3.471
33595W        W98580   0.381  40.477  12.583
33596W        W98581  12.583  33.600   3.757
33597W        W98582   5.735   5.987  12.118
33598W        W98583   0.797  39.520   2.000
33599W        W98584  22.643  27.134   2.007
33600W        W98585  20.921  38.094  10.058
33601W        W98586  13.417  32.312  14.618
33602W        W98587  21.545  39.255  11.106
33603W        W98588  28.805  35.500   2.557
33604W        W98589   7.544  10.220   2.343
33605W        W98590  24.471  31.393  14.403
33606W        W98591  36.025  25.390   0.757
33607W        W98592  36.996  14.150   3.941
33608W        W98593  30.617  18.609   2.856
33609W        W98594  18.173  18.899  13.390
33610W        W98595  36.612  24.647   0.757
33611W        W98596  11.843  31.755  13.455
33612W        W98597  23.568  31.817  11.522
33613W        W98598  20.125  22.955   2.747
33614W        W98599   1.856  14.549   2.592
33615W        W98600  16.385   6.457  14.355
33616W        W98601  38.859  19.643   4.065
33617W        W98602  15.785  44.174  10.871
33618W        W98603   0.943  39.181   1.656
33619W        W98604   7.684   8.573   0.033
33620W        W98605  42.292   8.777   5.080
33621W        W98606  26.080  14.797  11.985
33622W        W98607  44.715   8.350  14.745
33623W        W98608  13.309  23.667   0.418
33624W        W98609  32.838  21.658  11.484
33625W        W98610  33.578  44.063  11.361
33626W        W98611  40.076  12.238  13.776
33627W        W98612  19.612   9.522   4.111
33628W        W98613   7.359   4.743   2.158
33629W        W98614  12.420  22.487  12.601
33630W        W98615  10.374   1.012  12.771
33631W        W98616   5.371   0.417  10.704
33632W        W98617  31.522  11.523   2.358
33633W        W98618   1.241   5.722   2.656
33634W        W98619  13.818  43.941  12.018
33635W        W98620   9.586  23.823   2.541
33636W        W98621  42.844  32.165   4.588
33637W        W98622  24.370   7.865  13.950
33638W        W98623  42.961  32.659   4.533
33639W        W98624  33.446  43.272   2.399
33640W        W98625  28.237  34.843  14.857
33641W        W98626  20.362  25.922  14.842
33642W        W98627  16.022  43.819  14.010
33643W        W98628  38.107   3.916  13.123
33644W        W98629   9.755  15.290   1.813
33645W        W98630  26.279  11.155   1.488
33646W        W98631   5.937  33.530   0.730
33647W        W98632  15.097  21.069  10.540
33648W        W98633   7.894  17.677   1.881
33649W        W98634  18.993  28.418  13.861
33650W        W98635  38.816  42.372   0.222
33651W        W98636  43.829  44.985  14.552
33652W        W98637  31.617  40.281   4.553
33653W        W98638  29.492  26.408  11.166
33654W        W98639  42.835  16.620   2.863
33655W        W98640   5.902   2.413  11.722
33656W        W98641  11.714  18.086  13.669
33657W        W98642   7.597  15.772   0.285
33658W        W98643  11.766  24.232  12.046
33659W        W98644  10.947   4.378   4.072
33660W        W98645  38.181  26.463   0.335
33661W        W98646  24.250  13.640   2.490
33662W        W98647  16.893  34.560  13.323
33663W        W98648  23.471   1.365  12.916
33664W        W98649   7.465   2.167   5.419
33665W        W98650  11.168  28.113   3.149
33666W        W98651  35.896  35.098  13.256
33667W        W98652  12.870  27.590  11.119
33668W        W98653  12.015  17.139   3.728
33669W        W98654   5.242  34.467   0.193
33670W        W98655   1.970  12.685  14.915
33671W        W98656  10.664   4.835   0.362
33672W        W98657   1.334  31.547   2.001
33673W        W98658   9.668  17.733  14.265
33674W        W98659  32.379  12.886  12.804
33675W        W98660  31.432   5.863  14.264
33676W        W98661  25.451  19.215  10.757
33677W        W98662  26.134  14.807  10.403
33678W        W98663   8.339  14.045   3.886
33679W        W98664   9.120  27.535   2.253
33680W        W98665  10.895  37.979   0.472
33681W        W98666  44.813   7.132  13.074
33682W        W98667  20.330   1.454  12.554
33683W        W98668   7.380  43.969   4.416
33684W        W98669  32.299  36.485   4.520
33685W        W98670  34.697   7.113   4.910
33686W        W98671   7.858  30.416   3.692
33687W        W98672  36.635   4.406   0.933
33688W        W98673  12.949  35.408  12.558
33689W        W98674  32.356  29.576  13.733
33690W        W98675  21.342  44.899  12.105
33691W        W98676  21.066  12.919   3.208
33692W        W98677  27.535  30.414  11.992
33693W        W98678  26.152   7.686   3.579
33694W        W98679  22.988   6.477   4.571
33695W        W98680  31.020  24.227  13.089
33696W        W98681  31.569   1.542  13.495
33697W        W98682   0.610  34.390  11.965
33698W        W98683  16.108  16.105  14.716
33699W        W98684  32.626  35.003  14.766
33700W        W98685   0.494   8.192   2.793
33701W        W98686  43.746   0.036   0.943
33702W        W98687   8.429   9.831  14.829
33703W        W98688  21.644  16.677   1.307
33704W        W98689  38.394   7.641  11.115
33705W        W98690  16.061  43.976   1.057
33706W        W98691  36.056  12.325  10.996
33707W        W98692  39.554   8.006   3.885
33708W        W98693  44.428   8.152   1.909
33709W        W98694  22.423   7.244  11.636
33710W        W98695  19.610  22.466  10.787
33711W        W98696  28.418   4.385   4.387
33712W        W98697  14.835  11.313   3.311
33713W        W98698   1.024  24.281  11.079
33714W        W98699  23.595  20.079  11.146
33715W        W98700  16.323  25.101   0.052
33716W        W98701  26.217  11.930  14.961
33717W        W98702  17.576  33.943  11.872
33718W        W98703  21.163  27.261   4.247
33719W        W98704  41.738  21.191  14.891
33720W        W98705  22.225   7.358  11.186
33721W        W98706  23.989  18.612  13.454
33722W        W98707  11.816   5.847   4.141
33723W        W98708  21.730  28.863  12.736
33724W        W98709  34.691  12.287  10.642
33725W        W98710  43.809  14.281   3.250
33726W        W98711  35.402  44.454  10.945
33727W        W98712   0.992  14.880   2.434
33728W        W98713   6.358  18.588  10.471
33729W        W98714  22.617  35.521   4.664
33730W        W98715   3.657  30.465   1.842
33731W        W98716  38.654   4.711  13.532
33732W        W98717   6.700  39.168   1.908
33733W        W98718  15.537   8.951  13.838
33734W        W98719  30.101   2.212  13.069
33735W        W98720  41.226  30.428  11.549
33736W        W98721   9.176  24.058  14.770
33737W        W98722  44.477  40.750  13.013
33738W        W98723  38.895  32.454  12.117
33739W        W98724  19.134  34.431  13.968
33740W        W98725  27.319  16.612   2.241
33741W        W98726  23.207  15.831  12.492
33742W        W98727  18.146  24.081  12.480
33743W        W98728  10.578  27.144  12.336
33744W        W98729   8.236   0.332   3.289
33745W        W98730  11.209  32.623  14.047
33746W        W98731  29.100  37.331   3.414
33747W        W98732   5.677  19.053  13.457
33748W        W98733  36.345  39.526  14.493
33749W        W98734   5.738   9.067  10.570
33750W        W98735  33.900  40.643   0.478
33751W        W98736  42.939  15.015   0.408
33752W        W98737  39.593  43.824   3.839
33753W        W98738  33.234   2.961   1.233
33754W        W98739  30.382  41.297  12.821
33755W        W98740  12.850  36.038   4.763
33756W        W98741   2.924  12.848   0.048
33757W        W98742  36.625  41.412  13.057
33758W        W98743  15.547  23.016   4.104
33759W        W98744   1.285   6.161   3.743
33760W        W98745  19.763  28.971   4.936
33761W        W98746  37.306  23.524  11.651
33762W        W98747   1.266  43.486  13.327
33763W        W98748   3.490  25.507   1.324
33764W        W98749  42.228  31.846  12.485
33765W        W98750  18.265  36.623   3.849
33766W        W98751  29.121   0.271  14.788
33767W        W98752  17.128  10.014   0.769
33768W        W98753   8.354  41.449  14.294
33769W        W98754  44.491  34.331  11.208
33770W        W98755  14.192  27.676   1.031
33771W        W98756  22.810  14.345   0.904
33772W        W98757  13.880  15.049   0.336
33773W        W98758  20.088  43.775   1.894
33774W        W98759   1.705  41.503  12.350
33775W        W98760   9.343  11.831  14.275
33776W        W98761  21.131  28.121  11.202
33777W        W98762  42.365   2.746   3.609
33778W        W98763   8.488  38.961   3.369
33779W        W98764  34.309  34.617   1.775
33780W        W98765  38.840  18.175   5.308
33781W        W98766   5.172  22.713  14.905
33782W        W98767  15.133  23.516  12.972
33783W        W98768  28.985   6.211  12.330
33784W        W98769  25.134  17.854  14.205
33785W        W98770   3.399  17.766  11.718
33786W        W98771  10.350  14.231  11.248
33787W        W98772  27.068  31.100  10.878
33788W        W98773  26.571  37.306   3.422
33789W        W98774  12.879  28.648  13.440
33790W        W98775  38.384  31.903  11.193
33791W        W98776  44.911  27.612   4.311
33792W        W98777  28.712  37.935  13.810
33793W        W98778  36.432  27.693  12.417
33794W        W98779  11.461  33.196  14.897
33795W        W98780  17.281  39.851  13.077
33796W        W98781  10.212  28.983  13.620
33797W        W98782  43.318  17.306  12.111
33798W        W98783   6.506  24.640   3.940
33799W        W98784  16.910  23.060  11.827
33800W        W98785   9.911   6.700  13.559
33801W        W98786  39.977   2.047   4.534
33802W        W98787  42.346  38.762   3.709
33803W        W98788   1.521  32.434  13.439
33804W        W98789  27.903  15.991   1.863
33805W        W98790  38.571  22.157  13.847
33806W        W98791  10.317  19.230   0.676
33807W        W98792  15.331   8.769  14.289
33808W        W98793  39.366  14.585  13.097
33809W        W98794  38.439  25.681   0.890
33810W        W98795  10.165  14.800   4.622
33811W        W98796  14.302  11.806  10.468
33812W        W98797  33.748  11.361   4.609
33813W        W98798  36.583   0.835   2.642
33814W        W98799   7.327  34.146  11.166
33815W        W98800   8.821  20.256  14.258
33816W        W98801  25.027  11.240   4.069
33817W        W98802  27.602  41.933   2.355
33818W        W98803   2.817  25.393   1.170
33819W        W98804  14.138  10.344  14.590
33820W        W98805  35.355  31.156   2.803
33821W        W98806  30.442  28.346   0.835
33822W        W98807  26.464  44.201  14.512
33823W        W98808  42.026  24.660  14.706
33824W        W98809  18.263   6.483  13.360
33825W        W98810  43.355  34.278   1.134
33826W        W98811  38.420   9.316  13.867
33827W        W98812  23.313   8.708   0.838
33828W        W98813   1.155  18.791  11.179
33829W        W98814  38.048  40.409   2.362
33830W        W98815  13.413  44.716  13.646
33831W        W98816   0.253  27.866   0.911
33832W        W98817  30.449  30.590  14.969
33833W        W98818  41.030   8.724   0.823
33834W        W98819  18.115  12.138   4.715
33835W        W98820   8.649  33.518   4.597
33836W        W98821  20.686  24.345  13.944
33837W        W98822  37.543  12.640  11.610
33838W        W98823  26.947  33.290   5.079
33839W        W98824  41.108  37.830   0.263
33840W        W98825  26.964   5.894   3.635
33841W        W98826  13.710  34.537   1.658
33842W        W98827  33.957  17.687  11.987
33843W        W98828   8.469   6.130  10.599
33844W        W98829  28.037  22.088   2.364
33845W        W98830  38.625   5.238   3.705
33846W        W98831  11.799   7.437  11.389
33847W        W98832  30.103  17.767  10.779
33848W        W98833  30.951  18.927   3.230
33849W        W98834   6.267  11.626  12.523
33850W        W98835  12.271   2.877   3.013
33851W        W98836  17.415  18.845   9.812
33852W        W98837  19.609  17.348  14.556
33853W        W98838  23.680  41.113  13.857
33854W        W98839   4.890  34.138   1.520
33855W        W98840  27.607  13.184  14.358
33856W        W98841  36.361  37.058   2.928
33857W        W98842  39.248  35.600   2.238
33858W        W98843  26.199   2.330  12.453
33859W        W98844  19.190  36.473   2.412
33860W        W98845  14.336  23.985   4.161
33861W        W98846   1.027   5.172  11.571
33862W        W98847  31.633  33.388   3.385
33863W        W98848   8.805  15.336   2.692
33864W        W98849  13.667   3.986   4.602
33865W        W98850  34.053  31.576  14.532
33866W        W98851  32.096  40.879   1.445
33867W        W98852  11.626  36.287   2.749
33868W        W98853   3.524  37.145  13.883
33869W        W98854  11.267  37.052  10.993
33870W        W98855  19.707   4.907   2.242
33871W        W98856  37.869   6.512  10.981
33872W        W98857   0.901  21.548  11.899
33873W        W98858  43.800  21.043   1.368
33874W        W98859  11.916   5.878   2.193
33875W        W98860  41.321  37.591   5.547
33876W        W98861   4.885  11.459   3.738
33877W        W98862  29.536  16.340  13.969
33878W        W98863  33.488  30.015   3.311
33879W        W98864   0.384   2.410   3.833
33880W        W98865   3.278  27.110   3.581
33881W        W98866  28.432  33.254  13.105
33882W        W98867  37.543  18.598  11.200
33883W        W98868  35.650  37.974   1.317
33884W        W98869  19.118  14.386   3.229
33885W        W98870  20.660   9.272   1.264
33886W        W98871  36.182  40.322  13.167
33887W        W98872  12.844  10.172   2.779
33888W        W98873  44.003  17.852  14.942
33889W        W98874   4.402  14.464  10.757
33890W        W98875  23.191  34.162   9.685
33891W        W98876  13.660  13.738   0.407
33892W        W98877  24.708  14.247   0.431
33893W        W98878  15.855  19.592   2.690
33894W        W98879   2.786   6.812   1.107
33895W        W98880   5.961  16.220   3.702
33896W        W98881  15.180  37.270  13.877
33897W        W98882   3.898   9.373   4.138
33898W        W98883  26.154   8.712   4.384
33899W        W98884  41.008  33.505   1.207
33900W        W98885  39.224  42.257  13.977
33901W        W98886  44.958   3.277   4.592
33902W        W98887   7.919  44.209   0.597
33903W        W98888  25.627  43.514   2.443
33904W        W98889  11.950  11.236  12.807
33905W        W98890   5.231   9.173   0.905
33906W        W98891  43.342   7.793   0.991
33907W        W98892  14.344  40.610   3.795
33908W        W98893   0.498  25.941   0.534
33909W        W98894   3.499  38.476  13.044
33910W        W98895  39.673  37.881   3.886
33911W        W98896   8.414  17.720   4.534
33912W        W98897   5.745   3.368   3.608
33913W        W98898   6.209  30.822   1.861
33914W        W98899  36.291  41.102  12.804
33915W        W98900   6.360  19.436   3.244
33916W        W98901  29.185  34.724  11.934
33917W        W98902  20.707  42.577  11.186
33918W        W98903  30.706   7.276   0.717
33919W        W98904   3.000  12.220  12.357
33920W        W98905   3.638   0.810   9.613
33921W        W98906   2.365  20.332  11.253
33922W        W98907  35.441   1.309  12.513
33923W        W98908  42.854  14.642  11.042
33924W        W98909  37.997  15.311  14.384
33925W        W98910  20.121  15.690  10.658
33926W        W98911  34.065   5.296  12.167
33927W        W98912  19.884  19.617  14.558
33928W        W98913  11.407   4.913  14.769
33929W        W98914  36.268  36.772  14.726
33930W        W98915  38.773  27.260  12.593
33931W        W98916  12.750   9.166   2.686
33932W        W98917  13.347  27.495  10.230
33933W        W98918  31.998  19.630   3.370
33934W        W98919  36.957  23.828  12.573
33935W        W98920  18.521   4.300   2.706
33936W        W98921  26.068  12.450  12.497
33937W        W98922  23.192  19.580  14.798
33938W        W98923  37.793  32.107  10.899
33939W        W98924  21.676  32.211  14.888
33940W        W98925  13.213   9.718   1.717
33941W        W98926  16.832  14.816   3.798
33942W        W98927  33.304  14.219  13.110
33943W        W98928  30.461  39.223   2.154
33944W        W98929   1.499  41.904  11.625
33945W        W98930   3.934  12.656   1.447
33946W        W98931   2.842  15.069   1.133
33947W        W98932   3.045  15.425  14.924
33948W        W98933  30.968  40.377  13.276
33949W        W98934  35.803  19.535   0.195
33950W        W98935  13.452  20.504   1.973
33951W        W98936  21.315  29.106  11.508
33952W        W98937  21.184  14.172   2.611
33953W        W98938  16.984  17.558   0.268
33954W        W98939  25.876  43.233  11.768
33955W        W98940  31.173  28.301  13.488
33956W        W98941  15.248  31.907  12.448
33957W        W98942   6.685  43.361  12.409
33958W        W98943  22.548  35.026  13.398
33959W        W98944  37.772  28.657   4.123
33960W        W98945  21.207   5.817   1.792
33961W        W98946  22.707  10.901  10.671
33962W        W98947   1.660  28.952   1.342
33963W        W98948  22.283  22.842  13.732
33964W        W98949  27.671  36.057   0.763
33965W        W98950   1.230  34.096   4.789
33966W        W98951   4.298  44.449  12.092
33967W        W98952  21.344  14.661   4.556
33968W        W98953   2.832  44.376   2.750
33969W        W98954  28.046  30.676  13.741
33970W        W98955  10.337  17.676   0.997
33971W        W98956  38.338  26.082   2.270
33972W        W98957  42.714  14.100   0.437
33973W        W98958  36.392  13.288   4.568
33974W        W98959  15.574  38.807   1.293
33975W        W98960  35.650  39.253   1.025
33976W        W98961   6.947   9.870  14.330
33977W        W98962  29.420  15.231   1.892
33978W        W98963  22.710  34.213  10.120
33979W        W98964  26.968   8.612   0.008
33980W        W98965  36.586  27.472   2.717
33981W        W98966  15.522  18.041  14.373
33982W        W98967  38.391  16.674  11.905
33983W        W98968   7.881  16.761  11.104
33984W        W98969  21.626  17.610   1.424
33985W        W98970  23.292  20.796   2.248
33986W        W98971  41.396   1.888  14.959
33987W        W98972  26.021   1.071  13.026
33988W        W98973  40.414  21.073   1.420
33989W        W98974  24.925   5.446   3.671
33990W        W98975  34.537  22.318   1.911
33991W        W98976  41.610   1.318   2.704
33992W        W98977  20.933  27.021   2.170
33993W        W98978   3.552  39.642   4.652
33994W        W98979  13.238  20.585   3.377
33995W        W98980  17.759  24.925   2.928
33996W        W98981  34.176   2.963   2.896
33997W        W98982  12.889  14.738  13.464
33998W        W98983   8.342   6.247  14.279
33999W        W98984  11.467  43.278  13.428
34000W        W98985  11.871  14.391  10.387
34001W        W98986  29.299  14.962   3.050
34002W        W98987  22.600  39.386   1.705
34003W        W98988   3.354  44.326  11.887
34004W        W98989  37.495  37.819   2.486
34005W        W98990   7.470  31.940   1.342
34006W        W98991  31.158   9.416  12.127
34007W        W98992  31.071  30.493  10.667
34008W        W98993  33.384  14.766   1.174
34009W        W98994   7.756   7.598  14.763
34010W        W98995   7.203  17.690   1.273
34011W        W98996   6.083  39.346   1.340
34012W        W98997   7.211   7.570   3.831
34013W        W98998  42.129  15.512   9.586
34014W        W98999  24.860  19.645   1.889
34015W        W99000  28.374  13.075  12.858
34016W        W99001  25.731  17.294   1.830
34017W        W99002  24.525  28.410   2.753
34018W        W99003  40.420  24.411  13.011
34019W        W99004  20.792  23.325   9.941
34020W        W99005   6.229  22.196   5.014
34021W        W99006  15.382  26.968   0.748
34022W        W99007  31.467  24.163  13.356
34023W        W99008  25.198  29.518  13.454
34024W        W99009  42.037  42.028   3.688
34025W        W99010  14.630  26.477  11.196
34026W        W99011   1.750  32.673  14.096
34027W        W99012  25.477   1.751   1.846
34028W        W99013  21.693   1.203  14.233
34029W        W99014  37.460  32.551  10.741
34030W        W99015   4.443  32.468  12.902
34031W        W99016  23.880   6.646   1.916
34032W        W99017  30.299  33.455   1.890
34033W        W99018  32.891   5.811   1.563
34034W        W99019  19.769   9.090   2.597
34035W        W99020  15.703  10.502   3.994
34036W        W99021  20.411  37.988  12.596
34037W        W99022  42.306  22.028  11.100
34038W        W99023  41.980  10.242  12.938
34039W        W99024  43.861  36.972  14.977
34040W        W99025  38.443  20.518   2.687
34041W        W99026  25.725  30.674  12.041
34042W        W99027  43.764  24.469   4.595
34043W        W99028  16.789  22.986  14.023
34044W        W99029  12.511  35.139  13.388
34045W        W99030  25.630   3.672  13.274
34046W        W99031  42.356   2.773  14.649
34047W        W99032  17.790   5.443  13.987
34048W        W99033   3.298  44.288  14.738
34049W        W99034   4.994  43.882  10.525
34050W        W99035  11.988  20.451   4.620
34051W        W99036  11.837  17.315  14.272
34052W        W99037  24.771  15.785   2.723
34053W        W99038  37.920  17.086   2.741
34054W        W99039   4.287   0.821  13.274
34055W        W99040  17.719  36.301   0.276
34056W        W99041  13.640  15.848   0.219
34057W        W99042   4.954  33.593   3.749
34058W        W99043  23.952  29.447   5.067
34059W        W99044   2.500  18.473   3.460
34060W        W99045  14.583   6.412  12.417
34061W        W99046  44.236  10.780  12.567
34062W        W99047   2.354  20.559   3.607
34063W        W99048   7.322   4.360   1.304
34064W        W99049  42.968   3.087   3.441
34065W        W99050  27.614  17.752  11.869
34066W        W99051   4.187  37.627  11.030
34067W        W99052  20.989  19.561  12.626
34068W        W99053   3.289  25.071  12.586
34069W        W99054  30.725  12.315   2.361
34070W        W99055  26.418  42.794  13.020
34071W        W99056   1.494   1.054   4.237
34072W        W99057  19.188  19.777   0.925
34073W        W99058  42.840  11.280   2.308
34074W        W99059  41.975   3.669   0.282
34075W        W99060  18.105  26.308   4.307
34076W        W99061  36.875  41.770  12.443
34077W        W99062  23.237   6.942   0.766
34078W        W99063  37.808  19.947   3.303
34079W        W99064  18.706  39.037   1.479
34080W        W99065   3.242  35.243   4.220
34081W        W99066  21.214  34.429  10.972
34082W        W99067  44.551  30.963   4.111
34083W        W99068   1.314   2.158  14.745
34084W        W99069   7.846  25.996   0.115
34085W        W99070   6.477  33.802  12.625
34086W        W99071   7.609   2.150  11.167
34087W        W99072  29.577   5.224   4.477
34088W        W99073   5.243  19.681  10.493
34089W        W99074  18.749  19.021   0.148
34090W        W99075  32.066   2.999  11.689
34091W        W99076   1.786  17.672  11.779
34092W        W99077  38.315  12.243   3.819
34093W        W99078  14.183  37.679  12.327
34094W        W99079  21.920  11.485   0.044
34095W        W99080  21.070  42.290   2.373
34096W        W99081  41.306  31.834  13.443
34097W        W99082  14.611   5.866   2.837
34098W        W99083  28.247  38.428  14.470
34099W        W99084  36.905  44.799  13.612
34100W        W99085  35.112  43.999  14.490
34101W        W99086  27.020  33.195  13.703
34102W        W99087  35.357  44.893   4.356
34103W        W99088   1.010   4.218  11.624
34104W        W99089  20.590  14.284  12.956
34105W        W99090  39.530  31.963   3.653
34106W        W99091  14.089  25.926   0.422
34107W        W99092  36.586  32.300  12.529
34108W        W99093   2.660  20.811  11.094
34109W        W99094  24.657  36.045  11.941
34110W        W99095  21.783   1.019   0.831
34111W        W99096   5.317  12.209   1.236
34112W        W99097  21.481   9.191  14.865
34113W        W99098   4.024   5.740   3.150
34114W        W99099   8.355  24.050   4.874
34115W        W99100  17.818  42.340   1.950
34116W        W99101  10.756  32.566  10.967
34117W        W99102   6.928  26.123  13.890
34118W        W99103   5.248  16.716   1.724
34119W        W99104  32.689   6.325   1.954
34120W        W99105  13.265  31.372  12.368
34121W        W99106  36.519  36.285   0.708
34122W        W99107  25.540  18.124   2.473
34123W        W99108  38.556  36.538   2.621
34124W        W99109  35.792   9.359   2.045
34125W        W99110   7.366  16.369   2.422
34126W        W99111  14.547   3.049  13.975
34127W        W99112  30.746  36.409  11.170
34128W        W99113  40.065  32.545  13.320
34129W        W99114  28.602  43.454   4.889
34130W        W99115   3.187  25.688   0.863
34131W        W99116  11.383  44.018  12.924
34132W        W99117  39.331   5.938  12.985
34133W        W99118   9.598  14.732  11.950
34134W        W99119  37.318   5.922   0.058
34135W        W99120   9.282  34.609   0.371
34136W        W99121  12.347  41.996   1.719
34137W        W99122   4.208  38.805   2.698
34138W        W99123  23.200  35.620  13.797
34139W        W99124  27.143  20.467   3.072
34140W        W99125  43.484  29.824  13.404
34141W        W99126  12.790  16.321  12.955
34142W        W99127   6.435  13.255   3.825
34143W        W99128   8.169   8.152  13.475
34144W        W99129  23.294  28.617  11.062
34145W        W99130  16.107   3.705   2.661
34146W        W99131  39.423  23.634  12.435
34147W        W99132  39.520  15.585  14.966
34148W        W99133  25.718  27.618  12.444
34149W        W99134  26.881  23.469  12.982
34150W        W99135  23.546  14.598   3.177
34151W        W99136  34.277  28.990  11.616
34152W        W99137   9.689  30.374   3.503
34153W        W99138   5.977  19.702   2.262
34154W        W99139   0.770  32.675   4.076
34155W        W99140  28.610  42.547   3.649
34156W        W99141   1.543  21.652  11.009
34157W        W99142  26.978  27.440  12.234
34158W        W99143   1.951  24.089   0.809
34159W        W99144  22.613  40.725  11.277
34160W        W99145   7.684   3.311  13.337
34161W        W99146  18.978  26.674   0.171
34162W        W99147  20.214  33.168   0.455
34163W        W99148  33.404   7.346  12.722
34164W        W99149   8.682   6.380   0.023
34165W        W99150  14.638  37.626   2.254
34166W        W99151   3.337   9.426   1.134
34167W        W99152   3.455  22.584  12.449
34168W        W99153  16.480  33.294   1.921
34169W        W99154  38.299  34.264   3.551
34170W        W99155  21.642   3.648   1.490
34171W        W99156  41.906  31.630   2.851
34172W        W99157  22.262   9.874   1.792
34173W        W99158  15.625  30.923   2.387
34174W        W99159  12.216   6.142  11.182
34175W        W99160  22.089   0.966   1.877
34176W        W99161  15.600   1.247   0.845
34177W        W99162  22.486  25.109   0.426
34178W        W99163   5.187  10.735  13.438
34179W        W99164   1.731  16.960   0.895
34180W        W99165  33.588  41.057  11.225
34181W        W99166   3.239  17.540   1.508
34182W        W99167   0.057  10.786   4.027
34183W        W99168   9.763   4.746  14.079
34184W        W99169  25.061  34.881   2.589
34185W        W99170  36.898  38.364   2.619
34186W        W99171  10.195   2.101   3.071
34187W        W99172  30.174  22.023  12.070
34188W        W99173  15.587  17.121   3.435
34189W        W99174  31.684  24.035   4.740
34190W        W99175   5.075   7.278   4.551
34191W        W99176  30.932  14.273   4.621
34192W        W99177  31.738  31.174  11.085
34193W        W99178  28.711  27.004   1.348
34194W        W99179   5.489  36.427   4.936
34195W        W99180  44.835  44.757   3.096
34196W        W99181  27.385   0.987   0.076
34197W        W99182  12.276  42.931  10.371
34198W        W99183  15.710  22.926   3.611
34199W        W99184   5.300  17.626   2.126
34200W        W99185  38.372   0.336  13.939
34201W        W99186  12.707  20.779  12.918
34202W        W99187   7.913  27.958  11.431
34203W        W99188  16.744  24.081  10.597
34204W        W99189   0.900  17.645  11.828
34205W        W99190   0.436  11.181   3.327
34206W        W99191   7.870  15.585   2.414
34207W        W99192  40.060   8.561  11.297
34208W        W99193  35.905  44.428   0.239
34209W        W99194  41.700   3.223   0.230
34210W        W99195  26.545  40.285  14.438
34211W        W99196  36.493  17.027   1.187
34212W        W99197  43.440  36.069   4.308
34213W        W99198  23.579  41.893   3.905
34214W        W99199  23.020  42.479  13.820
34215W        W99200  13.871  24.601  10.906
34216W        W99201   6.972  41.519  12.761
34217W        W99202  30.634   2.738  10.491
34218W        W99203  20.610  13.215   3.324
34219W        W99204  19.610   5.278  13.329
34220W        W99205  30.553  43.661   3.776
34221W        W99206  30.653  10.585   1.082
34222W        W99207  33.338  34.121  12.745
34223W        W99208  38.335  37.650  13.389
34224W        W99209  41.791  33.952   4.078
34225W        W99210   1.464  16.553   2.330
34226W        W99211  10.566  12.811  13.538
34227W        W99212  21.318  35.762  12.075
34228W        W99213  28.571  25.812   4.082
34229W        W99214  17.809   4.972   3.222
34230W        W99215   5.360   1.565  11.629
34231W        W99216   9.611  19.554  14.557
34232W        W99217  44.913  23.672  10.661
34233W        W99218  21.655  42.894   4.205
34234W        W99219  34.101  26.132  12.012
34235W        W99220  29.055   4.168   2.669
34236W        W99221  17.729  10.914  14.008
34237W        W99222   1.668  23.018   2.328
34238W        W99223  35.727  38.761   1.614
34239W        W99224  23.550   3.801  11.065
34240W        W99225  25.684  22.092   3.210
34241W        W99226  11.672   9.111   4.888
34242W        W99227  35.795  13.522   3.670
34243W        W99228  12.144  39.114  11.213
34244W        W99229  37.123  21.454   2.263
34245W        W99230  31.053  27.521  11.490
34246W        W99231   0.673  36.864  12.966
34247W        W99232  15.177  40.866   3.755
34248W        W99233  25.495   8.392   2.707
34249W        W99234  27.901  36.525  10.687
34250W        W99235   7.198  22.362  12.907
34251W        W99236   7.724  19.837  14.461
34252W        W99237  12.880   6.790   3.022
34253W        W99238  14.650  17.519   2.578
34254W        W99239  24.822   1.427   1.792
34255W        W99240  29.936   9.409   1.408
34256W        W99241  24.196  38.939  10.747
34257W        W99242  42.016  42.312   2.880
34258W        W99243  25.872   4.918  10.060
34259W        W99244  24.890  39.207  14.519
34260W        W99245  26.634  15.469   2.427
34261W        W99246  13.329  19.989   4.256
34262W        W99247  44.997   5.926  13.589
34263W        W99248  21.025  37.202   2.406
34264W        W99249  16.352   3.731  14.335
34265W        W99250  40.881  38.078  11.496
34266W        W99251  11.048  10.613   3.128
34267W        W99252  43.484  31.613   4.732
34268W        W99253   8.595  40.276  11.120
34269W        W99254  29.744   6.386   4.198
34270W        W99255  13.718  14.837   1.670
34271W        W99256  31.706  15.872   3.083
34272W        W99257  23.712  37.124  11.228
34273W        W99258  24.162  17.040  14.744
34274W        W99259  29.452  10.798  12.602
34275W        W99260  26.567   0.092  14.883
34276W        W99261  26.050  21.499   0.278
34277W        W99262  27.698  10.140   2.089
34278W        W99263   6.713  15.108   2.726
34279W        W99264  25.272   7.790  14.948
34280W        W99265  14.187  36.532   0.296
34281W        W99266   1.012   0.732  12.347
34282W        W99267  37.346  30.937  14.426
34283W        W99268  43.766  31.522   2.368
34284W        W99269  13.249  36.453   3.228
34285W        W99270  43.758  33.128   1.202
34286W        W99271  23.846  29.846   1.324
34287W        W99272  16.099  11.767   0.356
34288W        W99273  40.956   5.789   4.867
34289W        W99274   1.830  19.466   2.415
34290W        W99275  44.272   5.267  12.968
34291W        W99276  42.322  12.758  11.780
34292W        W99277  17.377  28.775   0.501
34293W        W99278  13.114  30.393   2.723
34294W        W99279  18.181   0.060  13.392
34295W        W99280  39.518  26.783   4.449
34296W        W99281  21.300   7.381   2.735
34297W        W99282   5.401  44.760   3.141
34298W        W99283  16.217   1.677   1.236
34299W        W99284  38.494  12.363   1.213
34300W        W99285   7.394  44.275  11.108
34301W        W99286  20.112  29.421   0.314
34302W        W99287  19.434  41.548   2.826
34303W        W99288  35.367  31.055  13.308
34304W        W99289  31.638   7.831  12.659
34305W        W99290  31.892  14.531  11.062
34306W        W99291   7.422  39.785   3.234
34307W        W99292  23.733   9.331  11.006
34308W        W99293  22.748   1.607   5.539
34309W        W99294  16.657  15.089  11.226
34310W        W99295  37.301  19.076   0.022
34311W        W99296   6.688  16.506   2.792
34312W        W99297  10.150  31.833  13.857
34313W        W99298  21.943  13.368   0.306
34314W        W99299  24.704   3.875   0.842
34315W        W99300  11.598   5.821  10.603
34316W        W99301   1.264  41.005  13.933
34317W        W99302   8.246   4.827   0.259
34318W        W99303  36.819   2.149   2.232
34319W        W99304  42.545  31.900   0.978
34320W        W99305  17.212  16.792  13.361
34321W        W99306  20.030  29.968  10.432
34322W        W99307  27.410   3.830   4.132
34323W        W99308  40.778  31.643   4.076
34324W        W99309   5.008  32.945   2.007
34325W        W99310  14.300  36.871   3.212
34326W        W99311  26.485  11.036   2.317
34327W        W99312  21.651  41.295   1.614
34328W        W99313  31.213   0.002   1.408
34329W        W99314  42.921  18.661  14.050
34330W        W99315   4.778   7.400  14.905
34331W        W99316  21.471  23.147   1.178
34332W        W99317   4.587  26.823   9.984
34333W        W99318  42.216  11.131   0.789
34334W        W99319  38.000  36.619   0.835
34335W        W99320  18.219  27.574  12.605
34336W        W99321   4.412  18.648  10.697
34337W        W99322  41.385  29.303   0.954
34338W        W99323   2.207   6.553   0.081
34339W        W99324  26.142  20.264   2.874
34340W        W99325  36.374  25.577   3.618
34341W        W99326   7.672  28.375  11.605
34342W        W99327  17.738  14.728  12.959
34343W        W99328   2.976  19.211  14.977
34344W        W99329  28.550  27.504  13.345
34345W        W99330  35.387   2.752  11.703
34346W        W99331  38.558   5.459  11.346
34347W        W99332  12.076  15.859  13.860
34348W        W99333  26.057  23.442   3.481
34349W        W99334  26.729  38.368  10.172
34350W        W99335  39.999  22.475  11.183
34351W        W99336  33.551  39.848   0.314
34352W        W99337  22.212  17.206  10.970
34353W        W99338  25.673  44.376  14.953
34354W        W99339  30.137  42.529  12.535
34355W        W99340  13.839  42.515  11.128
34356W        W99341  27.991  24.081   0.253
34357W        W99342  27.732   1.022  12.075
34358W        W99343   7.676  32.051   1.816
34359W        W99344  20.532   4.581   4.688
34360W        W99345  31.976  33.266   2.242
34361W        W99346  38.870  31.171   2.145
34362W        W99347   4.381  15.307  13.803
34363W        W99348  34.438  17.611  11.432
34364W        W99349  32.001   3.406   2.007
34365W        W99350  41.418  22.567  13.583
34366W        W99351  27.914   6.488   5.473
34367W        W99352  32.453  26.201  12.640
34368W        W99353   2.632  11.451   4.782
34369W        W99354  15.832   3.769  11.199
34370W        W99355  11.082  20.828  11.705
34371W        W99356   5.403  28.408  14.979
34372W        W99357  23.504   2.875   3.672
34373W        W99358  24.637  34.106   4.814
34374W        W99359  22.138  35.141   0.371
34375W        W99360  35.479   2.217  12.121
34376W        W99361  39.480  28.128   2.635
34377W        W99362  31.061   3.414   2.097
34378W        W99363  17.199   7.782  12.460
34379W        W99364  38.368  42.329   0.476
34380W        W99365  24.314  22.224  13.478
34381W        W99366  10.671   4.208  13.981
34382W        W99367   2.282   0.744  14.286
34383W        W99368  37.301  24.785   1.328
34384W        W99369  24.944  37.773  14.310
34385W        W99370  29.098  18.667  14.063
34386W        W99371  20.080  18.392  13.421
34387W        W99372  33.646  22.596  11.090
34388W        W99373  43.730   6.388   2.835
34389W        W99374  17.094  24.080   2.140
34390W        W99375  27.770  29.904   1.403
34391W        W99376   4.310  36.356  14.695
34392W        W99377  36.481  24.076  12.570
34393W        W99378   7.374  18.202   0.337
34394W        W99379  23.052  16.891  12.104
34395W        W99380  28.638  39.600   4.120
34396W        W99381  20.022  27.304  11.339
34397W        W99382   4.276  44.969   4.491
34398W        W99383  39.156  22.948  13.890
34399W        W99384  35.946  40.757  13.012
34400W        W99385  43.072  38.537  14.031
34401W        W99386  42.506  32.801  14.323
34402W        W99387  38.907   1.698  13.545
34403W        W99388   5.928  15.303   4.927
34404W        W99389  21.150  13.668   0.439
34405W        W99390  11.059  12.066  12.097
34406W        W99391  21.104  20.582  13.456
34407W        W99392  29.971  27.016   0.963
34408W        W99393  15.798  27.616   3.490
34409W        W99394  11.425  21.548  12.460
34410W        W99395  15.833  15.652   1.879
34411W        W99396   6.600  29.792   4.300
34412W        W99397  21.497  34.545  14.695
34413W        W99398  28.443  31.579   1.836
34414W        W99399  36.014  34.751  11.011
34415W        W99400  35.045  36.893  13.810
34416W        W99401  42.452  11.656   4.089
34417W        W99402  31.525   7.262   1.300
34418W        W99403  32.493  40.613   2.761
34419W        W99404   4.040  35.056   3.145
34420W        W99405  12.814  44.835  10.754
34421W        W99406   0.464  32.497  13.494
34422W        W99407  28.764  10.134  11.899
34423W        W99408  17.113  22.777   4.098
34424W        W99409  36.186  16.869  14.911
34425W        W99410   0.759  43.553  11.407
34426W        W99411   1.254   3.989  12.909
34427W        W99412  13.106  15.250   4.178
34428W        W99413   4.406   8.395   2.432
34429W        W99414  18.549  44.305   4.139
34430W        W99415  19.725  38.039  10.980
34431W        W99416  28.148  19.773   0.163
34432W        W99417   8.361   9.489  10.187
34433W        W99418  11.093   3.837   3.361
34434W        W99419  20.727  26.049   0.915
34435W        W99420   5.973  10.794   4.552
34436W        W99421  27.552  41.822   0.830
34437W        W99422  37.326   6.665   3.846
34438W        W99423  40.415  15.006   2.376
34439W        W99424  26.658  43.244   4.790
34440W        W99425  28.587  29.429  14.973
34441W        W99426  23.951  20.456  13.528
34442W        W99427  31.391  33.931   3.187
34443W        W99428  23.201   8.466  10.695
34444W        W99429  16.091  30.347   3.569
34445W        W99430  10.683  32.815   0.475
34446W        W99431  34.227  24.690  13.313
34447W        W99432  16.566   2.556   1.930
34448W        W99433  26.960  26.916   1.880
34449W        W99434  18.700  32.626   0.926
34450W        W99435   8.144  22.155   0.005
34451W        W99436  18.789  18.031   1.634
34452W        W99437  26.502  36.428   4.482
34453W        W99438  33.999  31.495   3.935
34454W        W99439   9.337   3.104  14.370
34455W        W99440  43.042  37.072   3.829
34456W        W99441  39.521  30.482   2.883
34457W        W99442  36.931  38.087  12.938
34458W        W99443  32.055  27.648   0.601
34459W        W99444  40.819  34.519   1.440
34460W        W99445  39.455  17.088  13.618
34461W        W99446   0.390  21.214  10.342
34462W        W99447  35.466  19.265   3.615
34463W        W99448  44.454  17.953   9.839
34464W        W99449  24.579  31.703   3.488
34465W        W99450  29.440  35.005  12.396
34466W        W99451  12.165  37.989   1.296
34467W        W99452  26.992  38.034  10.512
34468W        W99453  21.816  20.591  12.639
34469W        W99454  20.260  16.701  10.674
34470W        W99455   0.273  32.822   4.228
34471W        W99456  11.288   7.120   0.181
34472W        W99457   0.554  11.234  13.068
34473W        W99458  18.703  20.634  13.867
34474W        W99459  28.041  15.311   3.767
34475W        W99460  13.087  39.210   1.912
34476W        W99461   7.323   4.625  13.331
34477W        W99462   0.492  20.481  11.315
34478W        W99463  44.375  13.250   0.124
34479W        W99464  17.883  15.093   1.793
34480W        W99465  41.450  12.437  12.991
34481W        W99466   8.269  26.452  14.506
34482W        W99467  27.179   6.158  10.714
34483W        W99468   6.846  33.862  11.851
34484W        W99469  15.326  16.232   2.351
34485W        W99470  29.028  36.329   4.143
34486W        W99471  29.633  42.801   4.739
34487W        W99472  19.544   8.271   4.195
34488W        W99473  44.160  40.307  12.975
34489W        W99474  34.036  44.878  10.394
34490W        W99475  24.649  15.841   0.933
34491W        W99476  28.550   2.256  14.508
34492W        W99477   0.512  21.550   9.990
34493W        W99478   4.437   8.128  14.901
34494W        W99479   5.398   7.777  13.029
34495W        W99480   3.243  34.722   4.280
34496W        W99481  36.638  38.087  11.967
34497W        W99482  36.568   9.374  14.520
34498W        W99483   5.361  15.575  10.586
34499W        W99484   8.762  10.428   1.730
34500W        W99485  18.248   4.657  12.989
34501W        W99486   5.514  11.897   0.752
34502W        W99487  32.487   1.768  13.808
34503W        W99488  19.855  30.061   4.142
34504W        W99489  33.005  23.289  12.020
34505W        W99490  43.086  18.855  12.044
34506W        W99491   1.015  10.339   3.281
34507W        W99492   6.781  34.668  13.312
34508W        W99493   7.414   0.657  13.879
34509W        W99494  41.368  19.295  10.589
34510W        W99495  25.510   8.307   0.798
34511W        W99496   2.456  16.773   0.676
34512W        W99497  15.021  39.436  12.441
34513W        W99498  15.163  43.945   0.857
34514W        W99499  39.478  43.007   0.812
34515W        W99500  21.728  15.869   4.259
34516W        W99501  35.645  31.596   3.713
34517W        W99502   1.226  34.378  14.437
34518W        W99503  34.497   7.705  13.313
34519W        W99504  25.026  17.025   1.328
34520W        W99505  34.946  42.560   3.665
34521W        W99506  24.639  26.167  10.804
34522W        W99507  40.798  40.286   2.267
34523W        W99508  32.937  29.646  11.230
34524W        W99509   5.276  30.295  12.141
34525W        W99510  41.360   5.927   1.643
34526W        W99511   6.475  17.701  14.560
34527W        W99512  11.107   5.088  13.555
34528W        W99513  22.558  11.241   3.196
34529W        W99514   1.892  31.385  10.585
34530W        W99515  31.285  11.786   3.989
34531W        W99516  22.512  28.253  11.937
34532W        W99517  20.872  33.200   5.229
34533W        W99518   9.522  14.163  14.494
34534W        W99519  22.296  23.583   4.174
34535W        W99520   7.109   4.173  13.597
34536W        W99521   2.557  25.035  11.357
34537W        W99522   7.078  13.762  12.186
34538W        W99523  16.307  11.542   1.362
34539W        W99524  31.342  28.071  12.137
34540W        W99525  32.471  27.995   3.539
34541W        W99526   8.391  38.021  14.726
34542W        W99527  37.796   2.979  13.559
34543W        W99528   4.287  17.289   1.340
34544W        W99529  31.688   5.447   4.082
34545W        W99530  16.350   0.293   1.444
34546W        W99531  41.059   6.640  13.931
34547W        W99532  14.207  36.655  13.836
34548W        W99533  16.165   1.355   1.653
34549W        W99534  31.933  30.978   3.748
34550W        W99535  39.964   6.617  13.431
34551W        W99536   5.915  21.230   4.212
34552W        W99537  13.220  27.050  13.335
34553W        W99538  30.464   2.170  12.525
34554W        W99539  25.642  17.149   3.601
34555W        W99540  42.458   2.908  10.813
34556W        W99541  19.087  16.555   1.294
34557W        W99542  28.738  33.907   2.737
34558W        W99543  32.989  41.123   0.403
34559W        W99544  28.220   0.833   2.617
34560W        W99545  16.216  21.196   1.846
34561W        W99546   2.221  44.432   0.350
34562W        W99547   8.906  21.239   1.354
34563W        W99548  39.316  15.047   1.404
34564W        W99549   7.417  10.907   0.671
34565W        W99550  26.713  31.498  10.227
34566W        W99551  37.514  19.324  13.894
34567W        W99552  12.255  22.508  12.092
34568W        W99553  41.820   5.414  11.068
34569W        W99554  19.697  27.004  11.068
34570W        W99555  30.081  43.807   3.937
34571W        W99556   8.217  40.567  14.228
34572W        W99557  30.242  18.618   0.360
34573W        W99558  22.232   2.433  12.551
34574W        W99559  38.591  40.055  11.446
34575W        W99560  28.830  26.241  11.759
34576W        W99561   0.928  22.448  11.905
34577W        W99562  13.534  40.124   4.122
34578W        W99563  29.641  21.626  11.983
34579W        W99564  16.964  36.405   4.129
34580W        W99565   8.335   2.255   2.695
34581W        W99566  21.262  44.181  14.088
34582W        W99567  38.532  19.276  12.919
34583W        W99568  44.664  43.806   1.737
34584W        W99569   1.729   7.481  11.214
34585W        W99570  36.233  44.244   0.972
34586W        W99571  24.474   0.364  14.097
34587W        W99572  27.061  24.647  11.914
34588W        W99573  14.590  16.171  13.533
34589W        W99574  31.334  12.306   4.053
34590W        W99575   7.830  31.228  10.479
34591W        W99576  17.665  35.250   0.375
34592W        W99577  33.528  17.371  12.120
34593W        W99578  40.833  34.295  13.526
34594W        W99579  18.611  13.670  14.259
34595W        W99580  35.547  24.437   1.897
34596W        W99581  10.939   0.178  14.289
34597W        W99582  15.385   7.627  12.278
34598W        W99583   4.353   4.775   3.412
34599W        W99584  40.879  25.938   1.774
34600W        W99585  16.533  21.202  13.419
34601W        W99586  21.042  30.647  12.612
34602W        W99587   1.302  33.389   0.869
34603W        W99588  24.093   0.275   1.877
34604W        W99589  13.814  40.917   4.056
34605W        W99590  38.063  37.271  10.852
34606W        W99591  22.263   9.398  11.912
34607W        W99592  18.841  44.926   0.223
34608W        W99593  21.926  30.959  14.319
34609W        W99594   5.168  27.007  13.409
34610W        W99595  27.599  19.174   0.397
34611W        W99596  16.733  17.358   1.191
34612W        W99597  14.378   7.359  13.168
34613W        W99598  27.496  24.660  13.938
34614W        W99599  36.933   0.350  11.099
34615W        W99600   0.701  26.015  11.183
34616W        W99601  10.464  10.562   3.140
34617W        W99602  10.366  37.178  11.213
34618W        W99603  12.543   1.793  11.846
34619W        W99604  30.702   4.886  14.499
34620W        W99605   4.857  30.963   4.808
34621W        W99606  36.060  12.187  13.620
34622W        W99607  18.602  39.278  11.403
34623W        W99608  32.558  43.306  14.913
34624W        W99609  23.655   4.855   2.737
34625W        W99610  27.087  31.159  10.362
34626W        W99611  12.897  30.969  10.723
34627W        W99612  11.947   7.790  14.016
34628W        W99613  41.704  21.063   4.599
34629W        W99614  26.059  26.172  13.323
34630W        W99615  38.068   8.469  11.262
34631W        W99616  13.308  30.899  13.276
34632W        W99617   9.782  24.653  14.065
34633W        W99618  44.428  40.313   2.808
34634W        W99619   0.227  13.743  10.831
34635W        W99620  17.824   6.838   2.114
34636W        W99621  19.175   0.412  11.538
34637W        W99622  35.766  34.879   2.184
34638W        W99623  25.545  29.135   2.311
34639W        W99624   7.956  40.101   3.788
34640W        W99625   0.866  36.366   0.502
34641W        W99626  34.561   5.789  12.599
34642W        W99627  33.479   8.121   2.287
34643W        W99628  27.866   6.830   0.715
34644W        W99629  14.421  36.625  11.166
34645W        W99630  22.630  41.817   3.359
34646W        W99631   5.624  30.491   3.752
34647W        W99632   5.940  17.112  14.011
34648W        W99633  44.284   5.847  11.595
34649W        W99634  10.236  44.039   2.894
34650W        W99635  25.447  21.669  13.043
34651W        W99636  15.789  30.966   3.265
34652W        W99637  15.207  43.024   2.387
34653W        W99638  18.532  21.392  13.449
34654W        W99639  30.721  40.511  12.310
34655W        W99640  34.108  28.483  12.976
34656W        W99641  39.876  32.098  10.473
34657W        W99642  32.887  19.283   2.761
34658W        W99643  32.359   1.101  11.202
34659W        W99644  29.996  26.396  13.383
34660W        W99645  40.624  22.088   1.370
34661W        W99646   0.046  25.762  13.105
34662W        W99647  20.169   0.697   1.257
34663W        W99648  41.256  18.094   2.300
34664W        W99649  44.566  15.000  12.966
34665W        W99650  16.885  20.259   2.443
34666W        W99651   4.089  32.739  14.823
34667W        W99652  18.309  43.366  14.048
34668W        W99653  19.529   2.913  14.843
34669W        W99654   0.376  42.723   1.171
34670W        W99655  33.090  23.782  14.868
34671W        W99656   1.916   0.201   1.483
34672W        W99657   5.428   4.198   0.254
34673W        W99658  35.528  25.438  11.131
34674W        W99659  31.153   3.182   9.651
34675W        W99660  29.291  24.030  14.946
34676W        W99661  26.455  10.511   4.123
34677W        W99662  22.439  10.209   1.363
34678W        W99663  41.120  35.051   3.635
34679W        W99664  33.538  21.997  13.786
34680W        W99665  30.973   0.340  13.544
34681W        W99666  23.817  16.097   2.727
34682W        W99667  20.931  30.164  13.875
34683W        W99668  14.322  34.124   4.706
34684W        W99669   3.433   2.953  13.434
34685W        W99670  23.167  23.672   4.170
34686W        W99671  18.299  17.547  11.027
34687W        W99672  37.712  12.426  12.451
34688W        W99673   6.008  32.642  12.926
34689W        W99674  28.090  17.453   0.054
34690W        W99675   9.319  32.830   1.846
34691W        W99676  39.396  33.041   1.820
34692W        W99677  43.555  26.656   2.574
34693W        W99678   7.655  31.200  14.107
34694W        W99679   8.844  43.310   4.726
34695W        W99680  13.312  41.920   1.241
34696W        W99681  36.730  39.455   0.196
34697W        W99682  27.889  14.804  10.059
34698W        W99683  14.331  28.051  12.025
34699W        W99684  37.586  11.376  12.028
34700W        W99685  25.299  40.217   0.899
34701W        W99686  24.781   2.768   9.959
34702W        W99687  40.603  30.210   5.116
34703W        W99688  13.497   1.233  11.937
34704W        W99689  28.932  23.004   0.977
34705W        W99690  41.805  24.579  13.856
34706W        W99691  11.123  28.349   1.475
34707W        W99692   1.029  35.382  12.052
34708W        W99693  38.247  42.287  12.871
34709W        W99694  30.422   9.829  13.452
34710W        W99695   7.462   8.711  13.473
34711W        W99696  21.142  38.059   0.425
34712W        W99697  44.459  36.769  12.515
34713W        W99698  11.093  42.831  12.373
34714W        W99699   9.220  13.610  11.987
34715W        W99700   7.157   3.314  13.362
34716W        W99701   3.203  28.192  13.449
34717W        W99702  34.897   1.203   4.317
34718W        W99703  27.767   8.277   3.102
34719W        W99704  31.460   8.920  14.022
34720W        W99705  17.312  38.897   1.927
34721W        W99706  22.141   0.744   4.256
34722W        W99707  36.506   8.786   3.145
34723W        W99708  29.529  34.414  14.970
34724W        W99709  13.189  18.264   4.633
34725W        W99710  44.394  31.739  11.719
34726W        W99711  12.120   5.137   3.275
34727W        W99712   0.871   0.328   1.778
34728W        W99713  31.142  17.395  13.581
34729W        W99714  13.329  26.000   4.405
34730W        W99715   7.742  41.991  12.701
34731W        W99716   1.988  37.515   0.931
34732W        W99717  15.144   0.406   2.951
34733W        W99718   7.723  33.493  14.034
34734W        W99719   8.756  24.737   2.762
34735W        W99720  40.750  11.737  13.883
34736W        W99721   7.735  21.227  12.191
34737W        W99722  23.965   7.888  13.403
34738W        W99723   3.811  41.219  11.132
34739W        W99724  32.326  27.681  10.512
34740W        W99725  14.792  14.414   0.721
34741W        W99726  22.789   6.286  12.154
34742W        W99727  11.887  33.666   5.008
34743W        W99728  36.901  18.042  11.073
34744W        W99729  24.633  40.190   4.595
34745W        W99730  34.755  10.802  10.293
34746W        W99731  23.111   9.171   0.685
34747W        W99732  19.288  34.075  11.550
34748W        W99733  31.307  15.564   1.790
34749W        W99734  36.504   0.401  11.437
34750W        W99735  44.752   7.717  13.950
34751W        W99736  15.472  34.732   0.789
34752W        W99737   3.000  21.918   4.059
34753W        W99738  44.880  35.910  14.734
34754W        W99739  39.464  16.714  12.099
34755W        W99740  37.750  22.528  11.627
34756W        W99741  28.097  32.000  12.039
34757W        W99742   6.028  17.240  12.034
34758W        W99743   5.476  13.752  13.882
34759W        W99744  42.045  25.747  14.825
34760W        W99745  23.798   5.126  11.314
34761W        W99746   7.505  44.749  11.278
34762W        W99747  38.565  25.600   2.215
34763W        W99748  34.187  25.509  11.529
34764W        W99749  11.136  44.272   0.333
34765W        W99750  11.828  23.723  12.142
34766W        W99751  30.513   6.098  13.991
34767W        W99752  43.887  35.923   4.536
34768W        W99753  13.420  39.921  12.125
34769W        W99754  43.508  33.155  13.802
34770W        W99755  11.256  30.886   1.235
34771W        W99756  42.971  32.573  14.065
34772W        W99757   3.400  27.087  11.883
34773W        W99758  39.974  11.083   1.732
34774W        W99759  10.155  37.186   3.093
34775W        W99760  15.521  11.865  14.381
34776W        W99761  41.413  29.849   2.145
34777W        W99762  18.323  25.784   0.893
34778W        W99763  39.083   8.129   1.725
34779W        W99764  27.268  36.744   4.010
34780W        W99765  17.340  19.398   3.275
34781W        W99766  33.313  29.133   4.984
34782W        W99767  22.688  35.537   4.170
34783W        W99768  44.021  16.291  13.131
34784W        W99769  19.554   9.255   3.125
34785W        W99770  18.534  17.674   3.127
34786W        W99771  17.734   7.390   1.634
34787W        W99772  42.548  37.365   3.854
34788W        W99773  10.934  32.959   4.145
34789W        W99774  17.159   0.735  11.905
34790W        W99775  14.687  23.205   3.057
34791W        W99776  38.243   5.352   1.439
34792W        W99777  30.029   9.005  13.054
34793W        W99778  25.979  14.689   2.805
34794W        W99779  42.134  30.394  11.250
34795W        W99780  40.354  14.715   0.925
34796W        W99781  20.743  31.852  10.790
34797W        W99782  37.136  28.051  11.184
34798W        W99783  12.603  16.079  12.518
34799W        W99784  20.679  31.342   0.062
34800W        W99785  16.471  32.142  11.197
34801W        W99786  11.394  28.717  14.322
34802W        W99787   9.607   6.193  14.146
34803W        W99788   9.610  38.349   1.263
34804W        W99789  10.251  36.259  14.061
34805W        W99790   2.229  16.822   1.155
34806W        W99791  39.282  12.197  11.141
34807W        W99792  35.649  27.899   2.063
34808W        W99793  10.347  12.823   5.064
34809W        W99794  41.026  14.210  10.048
34810W        W99795  25.398   5.919   0.438
34811W        W99796  12.930  25.151   2.550
34812W        W99797  26.957  23.975   3.732
34813W        W99798  31.068  29.512  13.771
34814W        W99799  14.814  29.608  11.314
34815W        W99800  18.113  24.244  10.756
34816W        W99801  28.175  34.097  13.330
34817W        W99802  30.413   7.326  13.281
34818W        W99803  17.940   8.705  10.458
34819W        W99804  19.358  29.688   0.866
34820W        W99805  43.448   8.333   1.747
34821W        W99806  27.709  23.615  14.307
34822W        W99807  36.582  27.586   1.266
34823W        W99808  27.753  41.646   1.909
34824W        W99809  38.451  24.575   3.077
34825W        W99810  38.462  19.769  13.013
34826W        W99811  14.249   1.405   0.824
34827W        W99812  17.185  17.114   4.246
34828W        W99813  26.945  21.772  12.464
34829W        W99814  27.002  15.429  14.343
34830W        W99815  31.044   4.506  14.625
34831W        W99816  29.634  15.240   3.357
34832W        W99817  10.915  23.587  13.971
34833W        W99818  14.895  36.589  12.071
34834W        W99819  24.607  37.331  13.457
34835W        W99820  35.533  16.728  12.586
34836W        W99821   7.106  20.252  10.808
34837W        W99822   8.762  19.366  13.536
34838W        W99823  41.072  13.549   5.556
34839W        W99824  16.995   9.885   1.258
34840W        W99825  26.147  31.434   4.196
34841W        W99826  28.407   9.830   0.247
34842W        W99827   6.772  30.289   4.195
34843W        W99828  11.670  42.555   2.660
34844W        W99829  19.154  37.619  13.027
34845W        W99830  43.588   3.300   1.770
34846W        W99831  38.137  10.920   4.025
34847W        W99832  41.445  34.415   3.144
34848W        W99833  44.954  33.374  13.377
34849W        W99834  39.112  34.852  10.653
34850W        W99835  30.591  37.023  12.920
34851W        W99836  28.339   8.566   0.022
34852W        W99837  38.530  35.715   0.503
34853W        W99838  18.460  36.796  11.015
34854W        W99839  41.410  13.831   0.559
34855W        W99840  12.748  23.070   4.556
34856W        W99841  27.172   1.330  13.569
34857W        W99842  27.962  30.147  12.127
34858W        W99843  42.142  18.498   5.015
34859W        W99844   9.826  34.847  12.117
34860W        W99845  36.389  14.586  11.009
34861W        W99846  33.688  13.654  13.260
34862W        W99847   0.841  34.015   3.563
34863W        W99848   0.462  14.399   1.409
34864W        W99849  38.466  10.854   4.817
34865W        W99850  19.169  13.068  10.528
34866W        W99851  31.705  33.382   3.899
34867W        W99852  16.935  33.511   1.683
34868W        W99853   3.737   8.857   1.847
34869W        W99854  29.091  42.988   3.583
34870W        W99855  14.359   9.640  11.074
34871W        W99856  26.405  14.552  12.566
34872W        W99857  43.500  20.955  10.118
34873W        W99858  15.189  17.890   3.172
34874W        W99859  19.576  23.464  13.395
34875W        W99860  43.067  33.039   4.221
34876W        W99861   2.136  13.124  13.684
34877W        W99862   4.783   8.957   0.855
34878W        W99863  40.566  12.583   1.315
34879W        W99864   0.311  10.158  13.194
34880W        W99865  31.167  24.549  14.050
34881W        W99866  37.511  35.607   3.574
34882W        W99867  28.850  29.113  11.930
34883W        W99868  27.135  27.058  11.538
34884W        W99869  34.463  22.234  11.014
34885W        W99870  37.593  28.544   2.262
34886W        W99871  28.235  10.825   2.987
34887W        W99872  42.545   1.612   2.444
34888W        W99873  31.611  13.552   0.506
34889W        W99874  10.943   5.846   2.321
34890W        W99875  19.189  24.029   2.295
34891W        W99876  35.106   0.577   1.189
34892W        W99877   8.830  24.021   4.620
34893W        W99878  19.248  28.471   1.668
34894W        W99879  42.583   9.332  12.856
34895W        W99880   5.248  24.151   3.741
34896W        W99881   1.700  22.143  14.266
34897W        W99882  12.607  25.757  13.968
34898W        W99883  22.216  12.208  12.348
34899W        W99884  24.246  15.630   3.680
34900W        W99885  30.640  15.996   1.268
34901W        W99886  37.580  13.393  13.841
34902W        W99887  28.506  21.126  13.001
34903W        W99888   4.659  19.999  12.809
34904W        W99889  26.070  13.076   1.312
34905W        W99890  14.073  15.723   4.577
34906W        W99891  26.738   6.094   2.381
34907W        W99892   8.236   3.896   1.301
34908W        W99893  37.477  12.115   0.060
34909W        W99894  18.594   2.050  13.429
34910W        W99895  22.451  21.032   2.761
34911W        W99896  33.619   0.818  12.132
34912W        W99897  44.798  42.423   1.439
34913W        W99898  44.386  15.099  14.929
34914W        W99899  41.997  15.165   0.241
34915W        W99900  14.176  22.997   2.252
34916W        W99901  16.240  20.500  11.052
34917W        W99902  25.145  28.994   3.244
34918W        W99903  19.250  21.274  12.033
34919W        W99904  35.998  38.917  12.342
34920W        W99905  15.093  38.494   2.982
34921W        W99906  24.378  25.767  14.486
34922W        W99907  14.259  20.280  14.467
34923W        W99908   6.801  11.910   4.088
34924W        W99909  36.375   7.380   0.523
34925W        W99910  27.678   6.925  13.892
34926W        W99911  12.246  38.421   3.708
34927W        W99912  16.209  43.766  12.036
34928W        W99913  26.188   9.279  14.945
34929W        W99914  15.249  28.461   0.789
34930W        W99915   5.434  41.312   3.649
34931W        W99916   7.998  25.056  13.018
34932W        W99917  19.101   3.823  14.581
34933W        W99918  17.640  12.581  11.145
34934W        W99919  31.130  10.388   1.278
34935W        W99920  35.424  35.054   1.372
34936W        W99921  33.855  26.053  14.830
34937W        W99922  40.163  16.797  14.547
34938W        W99923   9.283  15.092  14.539
34939W        W99924   0.825  39.449   3.069
34940W        W99925   1.064  32.378   1.786
34941W        W99926  36.686  24.078  11.580
34942W        W99927   0.021  20.766  12.119
34943W        W99928  32.262  33.983   2.850
34944W        W99929  29.859  24.244  11.488
34945W        W99930   4.897  11.222  11.665
34946W        W99931  11.170  27.197  11.846
34947W        W99932   9.785  35.179   0.807
34948W        W99933   5.374  33.979   2.920
34949W        W99934  20.694  33.214   3.384
34950W        W99935  22.976   0.908  14.108
34951W        W99936   2.893  25.584  11.971
34952W        W99937   6.104  23.012  14.909
34953W        W99938  40.338  35.748   0.012
34954W        W99939  14.849  26.262  12.029
34955W        W99940   0.352  16.578  13.347
34956W        W99941   1.746  14.256   1.771
34957W        W99942   4.581  27.749   1.745
34958W        W99943  23.140  32.636   1.484
34959W        W99944  11.714  11.792   2.406
34960W        W99945  25.489  36.389  11.050
34961W        W99946   4.679  20.783   1.676
34962W        W99947  36.517  15.672   3.339
34963W        W99948  17.320  11.280  14.868
34964W        W99949   0.713  29.542   0.205
34965W        W99950  10.495  18.046  11.617
34966W        W99951  42.278  11.987  12.192
34967W        W99952  36.428  33.741  12.108
34968W        W99953  41.619  36.040   0.353
34969W        W99954  21.214  15.037  13.216
34970W        W99955  33.556  19.767  12.825
34971W        W99956  17.873   6.425  11.765
34972W        W99957   9.083  36.624   1.257
34973W        W99958  23.571  13.673   0.455
34974W        W99959  20.343   3.963   2.906
34975W        W99960  21.365   9.784   3.589
34976W        W99961  10.183  40.595  13.554
34977W        W99962  31.403   6.865  10.672
34978W        W99963  11.163  10.699   0.849
34979W        W99964  17.928  13.102  12.632
34980W        W99965   4.930   6.004  13.954
34981W        W99966  31.593  43.347   2.324
34982W        W99967  12.533  30.821   1.818
34983W        W99968   5.159   4.062  10.607
34984W        W99969  34.130  42.424  14.450
34985W        W99970  36.732  19.934   4.994
34986W        W99971  33.153  42.086   1.380
34987W        W99972  40.456   8.513  14.932
34988W        W99973  31.146  10.881  11.958
34989W        W99974  11.335  25.686  13.072
34990W        W99975  36.493  28.578   1.341
34991W        W99976  44.327  22.071   0.688
34992W        W99977  12.258   5.681   0.397
34993W        W99978   1.612  17.597  14.912
34994W        W99979  28.132  11.335   2.279
34995W        W99980  35.944   3.832   2.923
34996W        W99981  24.992   0.720  10.279
34997W        W99982  28.629  32.090  10.472
34998W        W99983  42.298  34.027  11.146
34999W        W99984  37.762  21.727  13.824
35000W        W99985  13.818  39.586  10.512
35001W        W99986  22.510  30.210  11.914
35002W        W99987   6.657  18.672   2.411
35003W        W99988  26.342  19.496  11.495
35004W        W99989   2.622  14.486   4.540
35005W        W99990  20.743   6.990   0.963
35006W        W99991  31.941  42.389   4.374
35007W        W99992  10.686  16.775  14.329
35008W        W99993  23.017  18.675   4.599
35009W        W99994  14.168  36.114  13.963
35010W        W99995  11.636  21.759   1.384
35011W        W99996  15.962   7.927  10.775
35012W        W99997  44.342  26.595  11.133
35013W        W99998  32.652  24.943   2.871
35014W        W99999  30.467  30.336  13.938
35015W        W    0  30.885  37.406  12.103
35016W        W    1  14.574   3.046  10.693
35017W        W    2  39.241  43.325  13.046
35018W        W    3  36.129  27.440   4.343
35019W        W    4   5.057  38.240   4.706
35020W        W    5  19.573  34.514   0.000
35021W        W    6  19.015  35.149  12.110
35022W        W    7  43.803  30.793  13.558
35023W        W    8   0.740   1.017  12.008
35024W        W    9  25.653  37.571  11.361
35025W        W   10  37.918  31.212   1.714
35026W        W   11   6.430  20.486   2.167
35027W        W   12  16.718  17.029   4.474
35028W        W   13  44.146  34.498  13.419
35029W        W   14  30.665  26.915  14.871
35030W        W   15  39.326  23.817   2.180
35031W        W   16  43.874  33.335   4.383
35032W        W   17  16.209  13.087   3.618
35033W        W   18  15.683  24.419  14.362
35034W        W   19  33.567   5.113  11.460
35035W        W   20  30.899  10.517  14.853
35036W        W   21  13.194   9.410   4.666
35037W        W   22   9.940   4.950  12.095
35038W        W   23  18.779   7.290  14.284
35039W        W   24  10.768  43.767  12.399
35040W        W   25  16.286  23.573   4.560
35041W        W   26  17.679  15.782  11.594
35042W        W   27  26.204   4.403  12.808
35043W        W   28  38.597  43.574   0.832
35044W        W   29   0.916  26.224   3.667
35045W        W   30  26.569  44.103   1.777
35046W        W   31  38.233  30.122  12.759
35047W        W   32  29.018  35.029   3.780
35048W        W   33   0.970  12.346   0.815
35049W        W   34  44.281  21.414  13.768
35050W        W   35  13.740  41.340   1.701
35051W        W   36  37.214  39.160  13.811
35052W        W   37  25.405  40.081   4.219
35053W        W   38  33.557  13.119  12.615
35054W        W   39  14.672  42.106  10.762
35055W        W   40   7.707   3.029  12.034
35056W        W   41   4.223  42.528   3.755
35057W        W   42   4.302  38.107  10.832
35058W        W   43  11.867  25.106   4.030
35059W        W   44  42.275   6.026  14.796
35060W        W   45  38.400  26.611   4.495
35061W        W   46   3.463  37.656   3.665
35062W        W   47  11.892  29.989   2.717
35063W        W   48   2.036  44.934  14.423
35064W        W   49   9.775  29.627  14.419
35065W        W   50  18.736  24.060   1.181
35066W        W   51   3.722  38.370  12.584
35067W        W   52   1.432  12.295   1.810
35068W        W   53  23.577  39.195   2.750
35069W        W   54  20.210   8.789  14.880
35070W        W   55  11.394  31.212  11.146
35071W        W   56   8.645   0.475  12.040
35072W        W   57   5.766  43.738  12.482
35073W        W   58   3.539  19.396   3.328
35074W        W   59  30.330  20.517   1.150
35075W        W   60  32.673  41.594  11.191
35076W        W   61   2.359  30.767   4.515
35077W        W   62  28.205   8.886  12.544
35078W        W   63  13.854  17.784  12.097
35079W        W   64   5.083  16.577  13.099
35080W        W   65  33.621  37.628   4.059
35081W        W   66  40.339  24.598   1.726
35082W        W   67   5.158  32.001  13.274
35083W        W   68   6.701  15.422   4.598
35084W        W   69  43.887  30.531  11.916
35085W        W   70  35.171  27.791  11.175
35086W        W   71  12.656  37.001   1.921
35087W        W   72  23.597  27.860  14.341
35088W        W   73  27.214  40.060  10.837
35089W        W   74   0.851  21.243  11.063
35090W        W   75  44.581  34.604  12.928
35091W        W   76  19.086  27.680   4.686
35092W        W   77   4.333   4.897  14.058
35093W        W   78   8.794  32.666   2.796
35094W        W   79  37.571   4.700   0.453
35095W        W   80  30.100  30.499  12.621
35096W        W   81  19.752  40.905  14.069
35097W        W   82  32.614  22.607  12.948
35098W        W   83  27.400  22.242  11.182
35099W        W   84  35.446  40.825  13.028
35100W        W   85  43.969  20.732  11.835
35101W        W   86   2.914  43.636  11.206
35102W        W   87  41.960  20.813  13.508
35103W        W   88  22.477  12.767   4.099
35104W        W   89  28.754   4.329  11.184
35105W        W   90   0.785  17.906  10.387
35106W        W   91  15.286  42.983   3.420
35107W        W   92  28.407  36.506   4.690
35108W        W   93  44.482  13.149   3.433
35109W        W   94  34.066   1.743  12.476
35110W        W   95  41.834  29.931   2.756
35111W        W   96  43.302   9.417   4.334
35112W        W   97  28.538  13.102  14.417
35113W        W   98   7.642   4.216  14.890
35114W        W   99  37.819  24.769  10.373
35115W        W  100  21.114   1.428   2.242
35116W        W  101  28.462   1.140   4.030
35117W        W  102  26.480  18.223  10.722
35118W        W  103  28.560  13.939   4.959
35119W        W  104  30.215   8.791   2.189
35120W        W  105  23.809  30.825  14.874
35121W        W  106  16.572  14.391   2.211
35122W        W  107  39.411  26.952   0.528
35123W        W  108  21.146  25.113  13.957
35124W        W  109  28.696  43.701  13.391
35125W        W  110  38.820  41.825  12.474
35126W        W  111  43.876  26.723   9.692
35127W        W  112  13.795  14.544   4.212
35128W        W  113  24.652  40.607  12.632
35129W        W  114  11.332   9.488   0.312
35130W        W  115  11.884  24.490   0.648
35131W        W  116  36.414  25.652   3.110
35132W        W  117  32.499  33.469  14.861
35133W        W  118  31.101  19.039   1.426
35134W        W  119  38.120  44.330  10.687
35135W        W  120  36.807  15.526   3.736
35136W        W  121   3.491  39.951   2.087
35137W        W  122  11.397  20.323   3.163
35138W        W  123  36.427  26.217   0.804
35139W        W  124  30.641  27.510   4.845
35140W        W  125  13.102  29.430   4.131
35141W        W  126  29.395   8.779  11.840
35142W        W  127  39.200  27.156  13.424
35143W        W  128  39.241  27.603  14.377
35144W        W  129  13.735  30.438  12.606
35145W        W  130  31.268   9.427   9.569
35146W        W  131  31.566  32.643   0.416
35147W        W  132  35.874  16.656  10.540
35148W        W  133  37.226  11.851  10.538
35149W        W  134  24.036  40.836  10.542
35150W        W  135  44.879  31.576  14.042
35151W        W  136   7.408   3.152   4.155
35152W        W  137  39.265   8.573  10.719
35153W        W  138  41.303  12.842  12.682
35154W        W  139  42.885   2.820   0.898
35155W        W  140   9.526   9.976  11.258
35156W        W  141  42.601  30.566  11.396
35157W        W  142  10.099  31.451   0.458
35158W        W  143  21.318  44.487   1.673
35159W        W  144  26.172   8.903   0.968
35160W        W  145  31.419   7.333  12.572
35161W        W  146  15.305   4.300   2.838
35162W        W  147   8.124  29.896  12.885
35163W        W  148  29.754  41.766  14.737
35164W        W  149  22.668   2.721   3.365
35165W        W  150  37.420   4.490   1.502
35166W        W  151   5.031  36.482   2.677
35167W        W  152  34.875  39.351  13.499
35168W        W  153  44.091  38.458  12.125
35169W        W  154  32.226  11.277  11.132
35170W        W  155  23.701  14.919   1.664
35171W        W  156  27.407  35.798  12.461
35172W        W  157  44.785  19.415  13.534
35173W        W  158  23.736  38.845  10.468
35174W        W  159  32.921   3.508  14.440
35175W        W  160  39.360   9.696   0.913
35176W        W  161   2.465  28.735   4.644
35177W        W  162  18.795  36.923  11.969
35178W        W  163   7.744  19.457   4.594
35179W        W  164  16.089  38.429  12.378
35180W        W  165  25.232  34.025  11.277
35181W        W  166  42.965  40.734   4.152
35182W        W  167  37.295  19.566  14.534
35183W        W  168  41.998  31.429  11.109
35184W        W  169   0.915   3.315  11.753
35185W        W  170  10.319  35.976   0.888
35186W        W  171  39.628  17.625  12.245
35187W        W  172  35.857  39.304   0.554
35188W        W  173   5.224   7.392   1.357
35189W        W  174   1.609   4.877   3.675
35190W        W  175  33.910  40.429   0.969
35191W        W  176  35.462  41.990  14.850
35192W        W  177  10.106  31.960   0.379
35193W        W  178  30.630  25.145   2.736
35194W        W  179   7.585  28.531   4.537
35195W        W  180  26.575  43.282  14.502
35196W        W  181   9.132  12.581  12.078
35197W        W  182   6.156  18.593   2.246
35198W        W  183  41.391  38.792  14.182
35199W        W  184   5.352  24.951   0.197
35200W        W  185   4.838  11.891   2.670
35201W        W  186   3.614   5.870  10.809
35202W        W  187  21.741  25.886   0.535
35203W        W  188  39.311  41.104  11.036
35204W        W  189   2.428   0.692   2.816
35205W        W  190  26.693   8.432  12.098
35206W        W  191  20.527  20.824  12.387
35207W        W  192  39.360  15.446  12.754
35208W        W  193   2.988  32.892  14.773
35209W        W  194  31.468  44.392   3.302
35210W        W  195  37.118  43.183  13.754
35211W        W  196  22.090  25.936   1.160
35212W        W  197  18.471  38.436  13.427
35213W        W  198   5.672  22.745  13.742
35214W        W  199  20.487  15.721  12.977
35215W        W  200  20.078   5.791   1.301
35216W        W  201  30.926  38.889   4.801
35217W        W  202  43.835   8.221   4.246
35218W        W  203  41.556  17.188   0.788
35219W        W  204  22.972  33.028   4.501
35220W        W  205   9.437  18.085   4.273
35221W        W  206  27.152  28.193  10.729
35222W        W  207   0.827  25.971   3.238
35223W        W  208  10.381  21.612  13.083
35224W        W  209  44.873  12.899  10.450
35225W        W  210  39.639  15.311  13.787
35226W        W  211   3.979  26.291   1.294
35227W        W  212   3.916  29.177   1.529
35228W        W  213  16.382   2.221   2.279
35229W        W  214  37.743  41.830  11.657
35230W        W  215  40.822  31.917   0.488
35231W        W  216   2.889  31.529   4.602
35232W        W  217  10.596  36.926   1.841
35233W        W  218  15.118  11.024  10.863
35234W        W  219   5.255  14.587  12.976
35235W        W  220  26.053  34.331   1.648
35236W        W  221  17.525  17.674  12.903
35237W        W  222  26.211   5.255   3.732
35238W        W  223  32.722  11.077   4.025
35239W        W  224  11.328   9.766  14.009
35240W        W  225  12.572   0.836  14.677
35241W        W  226  39.697   0.060  11.947
35242W        W  227   6.931  12.795   2.348
35243W        W  228  19.219   6.464   2.777
35244W        W  229  42.734   3.730   5.241
35245W        W  230  30.357   5.421   2.836
35246W        W  231  27.089  33.347  12.050
35247W        W  232   0.627  26.966   4.295
35248W        W  233   8.795   1.611  11.154
35249W        W  234   8.977  37.114   1.036
35250W        W  235  36.637   5.380  14.964
35251W        W  236  37.507  35.112  11.696
35252W        W  237   8.098  14.724  10.506
35253W        W  238   4.276   5.246   3.227
35254W        W  239  21.760  41.052   2.151
35255W        W  240  14.302  42.174   4.607
35256W        W  241  13.613   7.854   2.254
35257W        W  242  37.882  11.413   1.396
35258W        W  243   1.768  18.779  10.755
35259W        W  244  19.188   1.797   1.400
35260W        W  245   9.756   2.067   1.086
35261W        W  246  25.116   2.380   1.380
35262W        W  247  13.420  32.115   4.194
35263W        W  248  40.364  32.440  11.121
35264W        W  249  33.408  41.622  12.393
35265W        W  250  31.602  19.647  11.069
35266W        W  251  29.138  44.102   0.384
35267W        W  252  20.252  32.118  14.949
35268W        W  253  19.566  44.514  13.341
35269W        W  254   3.899   2.209  13.455
35270W        W  255  22.189   4.143  13.987
35271W        W  256  13.604  41.957   4.832
35272W        W  257  14.223  21.303  11.902
35273W        W  258  17.616   7.855   0.276
35274W        W  259  33.743  26.046  14.029
35275W        W  260  29.202   9.236   1.744
35276W        W  261  41.701  15.936   4.420
35277W        W  262  28.413  39.287  13.032
35278W        W  263  39.151  25.229   1.833
35279W        W  264  42.522  38.673   5.638
35280W        W  265  19.628  26.215   1.309
35281W        W  266  38.423  32.828  13.097
35282W        W  267  36.459  27.284   3.609
35283W        W  268   5.046  35.093  12.220
35284W        W  269  12.809  38.879   0.755
35285W        W  270  38.758  11.286   4.893
35286W        W  271   9.683  35.990  12.899
35287W        W  272  43.658  40.320  11.550
35288W        W  273  16.806  15.565  13.404
35289W        W  274  10.363   0.393   4.245
35290W        W  275  31.391  10.690   3.675
35291W        W  276  27.698  17.984   1.071
35292W        W  277   4.479  12.478   2.256
35293W        W  278   5.347  11.079  11.391
35294W        W  279  26.525   4.370   0.448
35295W        W  280  35.509   7.200  10.754
35296W        W  281  36.008  33.472  11.491
35297W        W  282  28.528  15.798   2.812
35298W        W  283  14.658  20.488  11.993
35299W        W  284   0.999  21.450   2.774
35300W        W  285  13.318  41.540   3.355
35301W        W  286   7.670  43.737   2.736
35302W        W  287  10.076   9.780  11.196
35303W        W  288  36.902  28.602  11.148
35304W        W  289   1.948  26.192   3.699
35305W        W  290  30.325  13.401  14.280
35306W        W  291  32.795   4.730   2.855
35307W        W  292   5.531   8.419  10.969
35308W        W  293  12.122  42.429  10.440
35309W        W  294   4.928  20.136  14.534
35310W        W  295  24.013   3.177  13.450
35311W        W  296  24.925  33.344  12.473
35312W        W  297  29.855  40.799   1.985
35313W        W  298  31.520  35.602   3.338
35314W        W  299   6.826  31.493  14.432
35315W        W  300  19.517  25.512  12.571
35316W        W  301  29.690  11.222  12.908
35317W        W  302  40.237  21.617  10.708
35318W        W  303  32.882  37.714   1.728
35319W        W  304  24.270  10.708  13.366
35320W        W  305  33.547  21.554  13.542
35321W        W  306  42.603  39.069  11.446
35322W        W  307  10.917  15.580   3.679
35323W        W  308  23.437  39.316  10.662
35324W        W  309  35.487  42.366   3.600
35325W        W  310  29.339  30.285   5.526
35326W        W  311   2.069  39.309   1.351
35327W        W  312  33.028   9.824   1.514
35328W        W  313   5.304  18.858   1.404
35329W        W  314  11.092  42.407  13.914
35330W        W  315  33.383  40.483  10.211
35331W        W  316   9.641  35.647  11.695
35332W        W  317  23.983  14.597  13.936
35333W        W  318   0.255  24.247   4.168
35334W        W  319   8.190   9.755   1.160
35335W        W  320  44.920  36.295   4.180
35336W        W  321  31.991   2.456   3.229
35337W        W  322  43.316  40.366   4.255
35338W        W  323  15.299   5.398  14.304
35339W        W  324  31.285  38.784   3.275
35340W        W  325   0.062  42.875  12.464
35341W        W  326  26.126  44.618   9.940
35342W        W  327  17.271  28.256   0.464
35343W        W  328   5.842  33.143   2.479
35344W        W  329  24.626   2.567  10.838
35345W        W  330  18.554  21.313   3.788
35346W        W  331   6.763  13.089  11.735
35347W        W  332  41.655   2.201   3.236
35348W        W  333   3.371  18.631   2.327
35349W        W  334  39.109  32.410  13.504
35350W        W  335  17.871  22.212  14.031
35351W        W  336   8.441  21.696   1.833
35352W        W  337  20.881  43.578   2.680
35353W        W  338  34.508  24.788   3.605
35354W        W  339   4.851  35.517  12.473
35355W        W  340  34.120  14.835   0.871
35356W        W  341   1.010   7.072   2.704
35357W        W  342   6.497  29.624   0.927
35358W        W  343  15.543  35.050   3.095
35359W        W  344  21.333  25.224   4.270
35360W        W  345  34.926  11.413   2.518
35361W        W  346  27.498  15.378   4.817
35362W        W  347  18.946   5.562  11.018
35363W        W  348  33.901  22.289   4.396
35364W        W  349  18.695   0.756  10.779
35365W        W  350  13.064  12.249   4.356
35366W        W  351  22.372  25.202  11.097
35367W        W  352  21.927   6.435   3.320
35368W        W  353  32.710  19.242   4.061
35369W        W  354  38.966  28.926  14.770
35370W        W  355  12.720  10.380   2.325
35371W        W  356   4.266   6.177   1.047
35372W        W  357  23.494  23.451   0.885
35373W        W  358   4.885   8.382  12.053
35374W        W  359  44.896  39.932  14.283
35375W        W  360  25.375   4.828  14.569
35376W        W  361  15.292  41.845  14.268
35377W        W  362  44.729  25.651  12.247
35378W        W  363  32.292  30.601   3.680
35379W        W  364  22.671  37.032  10.804
35380W        W  365  42.477   6.371  10.633
35381W        W  366  31.214  12.758  11.034
35382W        W  367   4.733  24.308   0.465
35383W        W  368  39.100  26.631  10.566
35384W        W  369   2.953  10.806   4.050
35385W        W  370  23.523  21.616   2.453
35386W        W  371   1.736   2.421   0.892
35387W        W  372   4.657  28.385   4.183
35388W        W  373  20.134  40.357  12.413
35389W        W  374  28.127  10.412   2.296
35390W        W  375  33.542  13.082   4.677
35391W        W  376  14.852  16.811   1.276
35392W        W  377  26.231  42.397  11.945
35393W        W  378  34.632  25.663  11.277
35394W        W  379   6.353   1.564   2.230
35395W        W  380   6.397  35.680  11.162
35396W        W  381   3.610  24.984   1.295
35397W        W  382  20.766   5.976  11.624
35398W        W  383  27.760  40.816  12.978
35399W        W  384  33.573   4.682  11.162
35400W        W  385  39.117   3.806   2.753
35401W        W  386  19.274  22.766  12.971
35402W        W  387  19.199  37.876   4.462
35403W        W  388  39.337  19.535   1.347
35404W        W  389  37.053  11.700   2.776
35405W        W  390  25.882   1.167  11.942
35406W        W  391  12.177  28.304   1.175
35407W        W  392   2.959   7.697  13.052
35408W        W  393  36.821  20.169  11.181
35409W        W  394  43.292  10.905  14.092
35410W        W  395  26.190  43.900   3.615
35411W        W  396  33.891  19.362   0.399
35412W        W  397  18.988  17.899   3.675
35413W        W  398  21.284  19.098  13.506
35414W        W  399  41.978  19.731   4.597
35415W        W  400  25.981  21.664   1.442
35416W        W  401  10.589  26.710  11.508
35417W        W  402  18.636  30.152   3.608
35418W        W  403  13.122  12.219  11.263
35419W        W  404   0.483  34.460  14.759
35420W        W  405  36.541  40.388   4.193
35421W        W  406  42.851  32.216   2.737
35422W        W  407  40.826  39.851  12.108
35423W        W  408  34.580  23.930   3.110
35424W        W  409  10.208  16.267  12.065
35425W        W  410  12.376   7.855  14.299
35426W        W  411  22.768  29.024   4.581
35427W        W  412  31.625  43.494  11.556
35428W        W  413  34.458  15.476  12.973
35429W        W  414  23.164  26.534  13.845
35430W        W  415   6.192   9.700   1.276
35431W        W  416   6.532  37.449  14.427
35432W        W  417   7.748  32.585  11.198
35433W        W  418   5.464  27.948  12.945
35434W        W  419  11.798  44.562   4.620
35435W        W  420  34.959   8.232   1.673
35436W        W  421  39.800  16.203  13.815
35437W        W  422   7.405  42.239  11.670
35438W        W  423  29.603  39.504   4.389
35439W        W  424  27.129  34.504  11.450
35440W        W  425   2.043   9.794  10.607
35441W        W  426   1.323  26.748   0.474
35442W        W  427  33.963  18.279   1.849
35443W        W  428  37.012  25.846   0.035
35444W        W  429  34.425   5.349   5.066
35445W        W  430  40.289  27.514   1.788
35446W        W  431  13.714   7.603  10.567
35447W        W  432   6.754  32.250  14.963
35448W        W  433   7.735  18.021  12.096
35449W        W  434  20.501  27.970   3.161
35450W        W  435  27.363  14.681  12.147
35451W        W  436  21.837  12.854   0.456
35452W        W  437  19.786  15.535   3.006
35453W        W  438  42.253  27.995   3.467
35454W        W  439  44.508  11.799  13.422
35455W        W  440  21.619  44.055   2.447
35456W        W  441  22.990  24.471   4.582
35457W        W  442  16.246  17.372  14.423
35458W        W  443   8.173  18.172  11.598
35459W        W  444   4.797   7.122  12.636
35460W        W  445  12.150   9.649  11.906
35461W        W  446   9.707   6.354   4.582
35462W        W  447  32.134  18.410  13.916
35463W        W  448  11.263  14.087   0.263
35464W        W  449  40.772   2.769  11.506
35465W        W  450   2.201   7.845   1.374
35466W        W  451  18.593  13.802   4.597
35467W        W  452  18.070   5.193   2.839
35468W        W  453  15.842  31.479   3.256
35469W        W  454  21.953   1.452   1.103
35470W        W  455  43.173  23.659  14.851
35471W        W  456  27.165  15.782  11.491
35472W        W  457  25.272  41.388  12.049
35473W        W  458  24.727  20.992  14.743
35474W        W  459  12.375  43.062  12.909
35475W        W  460  36.688  34.975   2.427
35476W        W  461   7.593  18.659   0.438
35477W        W  462  22.891  30.645  12.504
35478W        W  463  16.637  43.061  14.908
35479W        W  464   4.454  16.114   3.825
35480W        W  465  32.103  36.625  12.431
35481W        W  466  39.032  42.953  11.871
35482W        W  467   1.755  12.297  11.027
35483W        W  468  35.575  26.592   1.299
35484W        W  469  34.154   4.202   4.829
35485W        W  470  10.793  15.366   0.457
35486W        W  471   1.673  26.033   4.138
35487W        W  472  28.294   4.214  11.420
35488W        W  473  24.742  17.616   2.606
35489W        W  474   6.229  35.750  14.287
35490W        W  475   2.536  32.613   2.666
35491W        W  476  29.851  23.003   1.301
35492W        W  477  35.135   0.413  13.427
35493W        W  478  41.792   2.243  10.626
35494W        W  479  10.224  20.159  10.556
35495W        W  480   4.598   6.274   0.258
35496W        W  481  44.780  19.658   2.722
35497W        W  482  17.681  15.262   0.763
35498W        W  483   3.200  11.581   0.237
35499W        W  484   1.860  42.182  11.009
35500W        W  485  41.474  15.868   3.630
35501W        W  486  13.191  24.458   0.782
35502W        W  487   6.753  34.983  11.074
35503W        W  488  14.049  42.015  13.330
35504W        W  489  20.692  26.277   0.009
35505W        W  490  37.430   7.362   4.334
35506W        W  491  32.107   5.950  14.964
35507W        W  492  35.383   6.651   0.362
35508W        W  493  33.839  43.702   9.944
35509W        W  494  13.531  30.230   4.108
35510W        W  495  10.217  26.538   4.306
35511W        W  496  27.622  38.493   2.432
35512W        W  497  19.013  41.524   0.823
35513W        W  498  39.445  14.702   4.358
35514W        W  499  19.248  26.209   0.687
35515W        W  500  41.441  11.934  14.267
35516W        W  501  40.822  22.107  13.471
35517W        W  502  27.087  40.123  13.639
35518W        W  503  33.795  40.138   2.387
35519W        W  504  42.294  27.152   0.954
35520W        W  505   2.645  36.547  14.674
35521W        W  506  41.343   7.404  10.753
35522W        W  507  18.326  38.794   2.178
35523W        W  508  24.415  34.042  14.034
35524W        W  509  28.497  39.303  10.991
35525W        W  510  26.861  23.436   3.625
35526W        W  511   8.566  20.507   3.300
35527W        W  512   9.309  39.252   1.471
35528W        W  513  16.313   6.704  12.127
35529W        W  514  16.655  19.790   2.360
35530W        W  515  21.796  35.882   2.388
35531W        W  516  33.137  16.505  11.762
35532W        W  517  12.769  43.800  14.748
35533W        W  518  17.676  17.239  14.971
35534W        W  519   0.280  14.564   0.951
35535W        W  520   3.347  10.459  14.400
35536W        W  521  16.320  15.747  13.433
35537W        W  522  19.481  16.047  12.574
35538W        W  523   2.217  37.447  13.860
35539W        W  524  35.797  20.047  13.800
35540W        W  525  41.343   3.406  11.693
35541W        W  526  28.086  34.642   1.746
35542W        W  527  44.842  12.290  13.044
35543W        W  528  24.679  20.492   2.159
35544W        W  529  41.996  29.076   5.025
35545W        W  530  26.999   3.310   5.261
35546W        W  531   8.522  18.965   3.789
35547W        W  532  35.662  44.816   4.758
35548W        W  533   7.146  32.845  13.616
35549W        W  534  10.387   3.352  13.007
35550W        W  535  21.550  36.636   2.633
35551W        W  536   1.914  36.026   3.260
35552W        W  537  20.906  14.542  14.989
35553W        W  538  25.268  39.378   2.343
35554W        W  539  43.929  19.784  11.670
35555W        W  540  29.451  35.002   1.223
35556W        W  541  43.229  10.147  10.251
35557W        W  542  13.599   4.713  12.500
35558W        W  543   9.281  41.372  10.704
35559W        W  544   8.684   2.187   4.147
35560W        W  545  41.820  21.956   0.738
35561W        W  546  39.045  31.958   0.487
35562W        W  547   9.445   7.651  12.475
35563W        W  548  25.573  43.786   2.942
35564W        W  549  33.950  13.440   1.030
35565W        W  550  27.931  27.743   5.198
35566W        W  551   8.191   9.120   0.767
35567W        W  552  26.618  23.681   4.078
35568W        W  553  13.319  15.404  14.316
35569W        W  554  40.597  31.519  11.532
35570W        W  555  25.540  30.182   3.213
35571W        W  556  39.611  24.626   1.043
35572W        W  557  16.282  28.707  13.992
35573W        W  558  30.112  43.152  11.388
35574W        W  559  16.759  15.085  13.572
35575W        W  560  43.006  44.808   2.154
35576W        W  561   3.782   7.917  11.020
35577W        W  562  22.689  40.215  12.574
35578W        W  563  39.529   4.810   4.475
35579W        W  564  12.402  36.191   0.297
35580W        W  565   0.611  12.248  14.014
35581W        W  566  39.391   3.983   3.191
35582W        W  567  15.062  16.425   3.586
35583W        W  568  38.425   6.781  13.541
35584W        W  569  19.719  16.536  14.081
35585W        W  570  31.651  41.864  14.934
35586W        W  571  22.695  32.633   3.220
35587W        W  572  18.485  43.539  11.691
35588W        W  573  24.526   6.723   3.663
35589W        W  574  18.494  16.596  14.083
35590W        W  575   4.671  44.121  14.596
35591W        W  576  38.744   3.470   2.643
35592W        W  577  30.404  34.655  10.480
35593W        W  578  10.877  14.678   1.261
35594W        W  579   7.722  34.083  12.357
35595W        W  580  27.427   0.219   4.310
35596W        W  581  21.504   0.338   0.810
35597W        W  582  30.871   6.152   0.267
35598W        W  583  16.354  10.874  13.841
35599W        W  584  17.357  13.098  11.936
35600W        W  585  39.920  21.199  10.803
35601W        W  586   4.465  22.967  11.094
35602W        W  587  39.014  38.853  13.477
35603W        W  588   2.810  40.859  10.648
35604W        W  589   2.695  18.268   1.375
35605W        W  590  36.806  28.336   0.657
35606W        W  591   3.356  13.347  12.594
35607W        W  592  34.010  39.369   1.014
35608W        W  593   6.185   0.924   3.062
35609W        W  594  35.400  35.944  12.608
35610W        W  595  43.516   3.746  12.492
35611W        W  596   2.484  11.677  12.118
35612W        W  597  32.707  37.359   0.462
35613W        W  598  42.922  36.349  14.909
35614W        W  599  22.290  37.850   4.473
35615W        W  600  13.186  34.472  12.009
35616W        W  601   4.203  22.156   1.398
35617W        W  602   6.717   4.705   1.741
35618W        W  603   5.380  21.195  13.581
35619W        W  604  15.063   2.687   3.190
35620W        W  605  13.292  32.075   3.696
35621W        W  606   4.495   0.860  13.753
35622W        W  607  16.117  42.919   2.162
35623W        W  608  44.916  19.888   9.746
35624W        W  609  31.863  32.310  10.813
35625W        W  610  30.133   1.810   4.515
35626W        W  611  19.802   5.349  14.057
35627W        W  612  15.074  31.494   2.861
35628W        W  613  23.196  35.077  11.736
35629W        W  614  38.138  25.601   3.199
35630W        W  615  16.257  41.067   5.056
35631W        W  616  34.138  40.387  13.050
35632W        W  617   6.643  40.078  14.400
35633W        W  618  18.259  29.588   3.546
35634W        W  619  20.241  33.845   2.133
35635W        W  620  31.162  38.308  14.276
35636W        W  621   9.884  22.769  11.519
35637W        W  622  26.068  43.390  14.495
35638W        W  623  18.067  32.119   1.095
35639W        W  624  31.791  37.266   1.142
35640W        W  625  32.119  41.344  13.423
35641W        W  626   0.757  33.671  10.645
35642W        W  627  21.526  18.496   3.617
35643W        W  628  41.819  23.553   3.590
35644W        W  629  41.349  23.598   3.773
35645W        W  630  37.954  14.108  10.721
35646W        W  631  19.027  21.803   0.673
35647W        W  632   6.434  32.106   1.366
35648W        W  633  14.896   1.173   1.656
35649W        W  634  32.947  30.136   1.254
35650W        W  635  31.376  38.498  13.125
35651W        W  636  39.934  39.967   3.138
35652W        W  637  18.035  39.824  14.041
35653W        W  638   9.877  40.688  14.789
35654W        W  639  25.644   9.200  12.657
35655W        W  640  17.607  13.412  13.608
35656W        W  641  36.527  23.245  14.201
35657W        W  642  22.486  39.425  13.304
35658W        W  643  38.986  35.278  14.707
35659W        W  644   7.263   4.265   4.187
35660W        W  645  44.838  20.306   5.072
35661W        W  646  26.382  18.512  12.389
35662W        W  647  12.517  12.102   2.581
35663W        W  648  37.925  20.867  11.304
35664W        W  649  27.593  35.324  12.446
35665W        W  650   3.761  10.978   1.883
35666W        W  651   1.434  39.954  14.226
35667W        W  652  21.167  36.167  11.787
35668W        W  653  18.806  11.494  12.938
35669W        W  654  42.499  30.193  13.400
35670W        W  655  28.451  44.706   3.650
35671W        W  656  14.544  38.060  13.502
35672W        W  657  39.766  23.790  14.804
35673W        W  658  40.624  10.912   3.404
35674W        W  659  18.506  38.718  11.634
35675W        W  660   6.520  33.074   1.364
35676W        W  661  16.943  12.908  10.756
35677W        W  662  16.696  32.155   0.349
35678W        W  663   3.891   4.784   3.169
35679W        W  664  18.695  37.096  14.883
35680W        W  665  34.682  39.050   3.190
35681W        W  666  27.275   3.425   3.351
35682W        W  667   1.063   0.949  11.612
35683W        W  668  43.608  31.038   2.382
35684W        W  669  42.551  34.598  14.837
35685W        W  670  43.426  25.936  10.043
35686W        W  671   4.984  35.955  12.775
35687W        W  672  32.909  25.094  14.348
35688W        W  673   0.797  41.711  13.809
35689W        W  674  38.591  17.607  14.005
35690W        W  675   4.468   6.534   1.994
35691W        W  676   8.707  15.193   3.686
35692W        W  677   5.057   0.353   1.468
35693W        W  678  32.508   2.889  12.449
35694W        W  679   3.028  44.384  14.067
35695W        W  680  15.266   1.418   4.353
35696W        W  681  44.290   7.090   1.701
35697W        W  682  42.760   3.356  10.381
35698W        W  683  44.498  28.988  11.273
35699W        W  684  15.521  19.653   3.876
35700W        W  685  32.624   5.073  13.313
35701W        W  686   6.501  39.321  11.792
35702W        W  687  23.615  12.154  14.074
35703W        W  688   6.314  25.448  12.008
35704W        W  689  14.592   6.646   4.607
35705W        W  690  15.146  43.201   4.717
35706W        W  691  21.006   4.027   4.037
35707W        W  692  39.812  29.434  10.707
35708W        W  693   3.396  40.016   3.526
35709W        W  694  30.478  14.022  12.086
35710W        W  695  14.186   2.764  11.900
35711W        W  696  34.497  33.081   4.627
35712W        W  697  10.454   8.173  13.058
35713W        W  698  31.079  32.426   2.767
35714W        W  699  31.735  11.439   0.317
35715W        W  700  14.794   7.487   3.669
35716W        W  701   5.881  18.293   0.962
35717W        W  702  19.668  18.184   0.339
35718W        W  703   3.704   1.520   1.234
35719W        W  704  37.867  28.406   4.695
35720W        W  705   9.888  34.409   0.846
35721W        W  706   6.876  24.487  12.584
35722W        W  707   2.805  44.496   1.854
35723W        W  708  21.453  34.318  13.240
35724W        W  709  42.027  42.464  14.802
35725W        W  710  22.332  44.015   4.582
35726W        W  711  17.403   4.919   1.962
35727W        W  712  12.318   7.362  13.374
35728W        W  713  27.254   6.823   4.146
35729W        W  714  29.673   4.622   3.620
35730W        W  715  22.980   3.432   5.141
35731W        W  716  43.491   3.334   4.575
35732W        W  717  41.734   1.366  10.695
35733W        W  718  35.105   8.462  13.523
35734W        W  719  42.746  11.780   0.657
35735W        W  720  11.038  43.579  14.796
35736W        W  721  31.483  31.874  13.081
35737W        W  722  24.960   2.872   1.254
35738W        W  723  44.823  33.163  11.116
35739W        W  724  35.302  34.250   1.111
35740W        W  725  41.006  11.791   4.610
35741W        W  726  11.583  44.553   0.331
35742W        W  727  21.016  35.137  10.804
35743W        W  728  17.209   2.977   2.907
35744W        W  729   2.174  40.339  14.314
35745W        W  730  10.340  14.151   0.543
35746W        W  731   1.461  22.837  14.789
35747W        W  732  21.043  12.744  13.805
35748W        W  733   9.954  23.137   4.099
35749W        W  734  10.576  35.920  11.635
35750W        W  735  17.195   8.812  12.618
35751W        W  736  35.991  42.807   2.077
35752W        W  737  12.266  28.861   2.097
35753W        W  738  12.370  32.185   3.518
35754W        W  739   5.245   4.697   0.696
35755W        W  740  43.359   7.349   0.648
35756W        W  741   5.681  37.702  11.559
35757W        W  742   1.722   1.523   0.743
35758W        W  743  41.456  17.359   2.721
35759W        W  744  16.319  26.436   9.810
35760W        W  745  37.092   4.720  11.639
35761W        W  746  33.078   2.466   4.209
35762W        W  747  33.951  27.590  13.010
35763W        W  748  24.020  14.260  13.355
35764W        W  749  34.046  12.184  11.830
35765W        W  750  10.928   9.717   3.310
35766W        W  751  42.709   3.917  13.506
35767W        W  752  23.734   5.203   1.411
35768W        W  753  25.643  41.513  12.436
35769W        W  754   9.119  13.064   2.650
35770W        W  755   7.375  40.028  13.054
35771W        W  756  41.014  12.456   1.093
35772W        W  757  39.395   8.282   1.320
35773W        W  758   5.656  22.789   2.003
35774W        W  759   8.875  19.774  13.948
35775W        W  760  42.031  36.486  12.625
35776W        W  761   0.883  43.296   1.016
35777W        W  762  28.984   6.313  11.514
35778W        W  763  25.691  11.319   4.666
35779W        W  764  17.147  22.237   4.091
35780W        W  765   6.621  20.118  10.926
35781W        W  766   1.498   8.637   3.686
35782W        W  767  23.076  19.813   2.230
35783W        W  768   1.741  19.429  11.425
35784W        W  769  20.366  29.228  13.331
35785W        W  770  25.134  34.504   3.290
35786W        W  771  12.732  14.648   2.885
35787W        W  772  25.054  10.407   1.057
35788W        W  773  15.917  21.172   1.424
35789W        W  774  43.823  11.641   3.675
35790W        W  775  21.702  37.798  13.203
35791W        W  776  43.003  29.889   0.482
35792W        W  777  11.645  38.793   3.509
35793W        W  778  30.673   8.202   0.620
35794W        W  779  14.208  31.777   1.787
35795W        W  780  14.055  23.943   3.668
35796W        W  781  40.885  21.476  10.653
35797W        W  782   6.484  41.559   4.166
35798W        W  783  22.242  37.258   1.772
35799W        W  784  36.492  32.364  14.799
35800W        W  785  38.461   1.224  10.504
35801W        W  786   0.963   3.524  14.099
35802W        W  787  14.799  16.963   4.577
35803W        W  788  26.713   5.257  14.339
35804W        W  789  21.744  21.609  12.995
35805W        W  790  33.104   4.860  12.045
35806W        W  791  25.896   8.678   2.894
35807W        W  792  23.022  26.069   1.157
35808W        W  793  16.640  13.150  13.441
35809W        W  794  25.962  37.559  12.434
35810W        W  795  35.010  19.576  12.417
35811W        W  796  20.080  29.664   2.238
35812W        W  797   9.927  42.521   3.277
35813W        W  798  31.833  29.884   4.217
35814W        W  799  40.872  14.586   2.139
35815W        W  800  26.388   7.751  11.580
35816W        W  801  25.964  24.729   0.362
35817W        W  802  39.474  28.550   1.876
35818W        W  803  26.606  10.360   5.187
35819W        W  804  29.465  33.824  12.065
35820W        W  805  11.638  15.339   0.344
35821W        W  806  38.019  23.446  13.348
35822W        W  807  14.259  37.172  13.952
35823W        W  808   0.274   1.717   1.693
35824W        W  809  29.165  37.928  12.850
35825W        W  810  29.011  32.873   3.671
35826W        W  811  20.521  28.451   2.350
35827W        W  812  26.137  31.190   0.221
35828W        W  813  28.713  37.819  14.838
35829W        W  814  42.851   8.390  12.550
35830W        W  815  21.617  26.182  10.471
35831W        W  816   8.461  29.215  11.044
35832W        W  817  43.101  42.292  13.976
35833W        W  818  30.656  39.723   2.235
35834W        W  819  18.007  31.442  11.698
35835W        W  820   7.509  44.284   3.073
35836W        W  821  44.175  24.377   4.293
35837W        W  822  27.683  43.804   2.567
35838W        W  823   1.170  35.508   1.330
35839W        W  824  27.400  42.451   2.757
35840W        W  825  21.210  13.347   2.287
35841W        W  826  14.819  23.821   1.216
35842W        W  827  31.912  23.706   2.234
35843W        W  828  25.080  21.720   1.707
35844W        W  829   1.031  24.833   4.186
35845W        W  830  25.444   2.564   2.222
35846W        W  831  15.194  30.597   3.100
35847W        W  832   9.346  24.508  13.839
35848W        W  833  23.818  43.918   2.385
35849W        W  834   7.838  30.654   3.126
35850W        W  835   1.793  31.034  13.038
35851W        W  836  23.661  27.074   0.458
35852W        W  837  13.557  34.273   1.167
35853W        W  838  38.506  13.363  12.529
35854W        W  839  34.576  15.769   0.835
35855W        W  840  28.308  41.073  12.143
35856W        W  841  26.474  42.528   2.739
35857W        W  842  21.279  12.291  10.684
35858W        W  843  18.048  18.023   1.331
35859W        W  844   3.874  38.810  13.546
35860W        W  845   9.082  19.678  11.580
35861W        W  846  38.726   9.178   3.877
35862W        W  847   3.932   6.997  13.103
35863W        W  848  24.142   7.215   0.880
35864W        W  849  40.393  14.499   2.334
35865W        W  850  43.641  30.301  10.335
35866W        W  851  23.968  28.203  13.566
35867W        W  852   8.358  28.105   4.422
35868W        W  853  39.260  36.562  13.794
35869W        W  854   8.397  42.457   0.682
35870W        W  855   7.990  32.140  12.877
35871W        W  856  11.332  32.081  12.138
35872W        W  857   7.880   9.313   1.700
35873W        W  858  31.887  36.947  11.447
35874W        W  859  31.460   5.187   1.894
35875W        W  860   5.806  34.427  14.423
35876W        W  861   8.379  16.783   0.102
35877W        W  862  42.219  33.087   4.176
35878W        W  863  18.805  38.406   0.385
35879W        W  864  30.312  28.495   1.346
35880W        W  865  16.071  20.238   3.819
35881W        W  866  34.374  24.962   3.134
35882W        W  867  44.820  40.041  10.346
35883W        W  868  31.491   1.729   4.588
35884W        W  869   0.517   5.358  12.467
35885W        W  870  31.570  17.149   1.271
35886W        W  871  11.607  20.690   1.459
35887W        W  872  31.405  24.517  11.891
35888W        W  873  11.726  44.390  12.105
35889W        W  874  32.558  30.002   4.534
35890W        W  875  15.158  21.458  12.657
35891W        W  876  36.037  17.333   2.950
35892W        W  877  33.981  24.621   3.267
35893W        W  878  20.202  30.222  11.204
35894W        W  879  22.004  39.789   0.850
35895W        W  880  43.934  33.024  14.072
35896W        W  881  34.762  36.992   2.735
35897W        W  882  38.393  39.651  14.526
35898W        W  883  41.857   9.333  13.410
35899W        W  884  44.540  21.081  13.371
35900W        W  885  43.919  25.708   0.263
35901W        W  886  11.761  18.761  12.711
35902W        W  887  25.192  39.750   1.872
35903W        W  888   6.717  28.136  12.210
35904W        W  889  10.645  16.552  13.419
35905W        W  890  25.135  21.276   1.213
35906W        W  891  12.678  34.883   3.274
35907W        W  892  40.520  12.203  11.937
35908W        W  893  38.400  35.187  10.848
35909W        W  894  43.642  36.907  13.602
35910W        W  895  35.273   3.904   4.159
35911W        W  896  30.360  19.157   1.855
35912W        W  897  10.619  40.619  14.534
35913W        W  898  29.237  28.090   1.135
35914W        W  899   4.200   4.426  13.850
35915W        W  900  37.882  35.037  12.936
35916W        W  901   9.608  40.996  10.539
35917W        W  902   8.168  42.855   4.355
35918W        W  903  30.222   1.456   1.438
35919W        W  904   3.780  21.630   1.907
35920W        W  905  38.870  13.130   1.858
35921W        W  906  34.910  20.226   2.941
35922W        W  907  12.277   8.608  11.464
35923W        W  908  26.982  15.260  11.620
35924W        W  909   0.255  27.238   3.693
35925W        W  910  37.314  20.246   4.592
35926W        W  911  36.611  25.201   2.877
35927W        W  912  28.145  16.500  11.072
35928W        W  913  27.209  24.583   1.840
35929W        W  914  21.255  27.699  14.824
35930W        W  915   0.269  38.158  13.060
35931W        W  916  38.463  31.228   1.001
35932W        W  917   2.998  41.208  11.939
35933W        W  918  28.103   1.958   1.034
35934W        W  919  13.084  39.919   1.248
35935W        W  920  41.778   2.276   2.732
35936W        W  921   8.355  36.145   4.163
35937W        W  922  11.270   8.124  12.484
35938W        W  923  41.507  43.822  10.934
35939W        W  924  21.232  36.426  10.455
35940W        W  925  30.447  27.219  11.126
35941W        W  926  31.598  32.714  14.003
35942W        W  927  43.710  34.437  11.623
35943W        W  928  10.270  38.688  14.523
35944W        W  929  19.692  22.177   0.283
35945W        W  930  18.735  34.419  12.082
35946W        W  931  26.020  25.884   3.399
35947W        W  932  43.036  17.983   2.805
35948W        W  933  42.051  13.151   2.342
35949W        W  934  39.712  22.587  12.899
35950W        W  935   8.828  13.389   4.259
35951W        W  936   0.694  12.583  12.062
35952W        W  937  43.375  43.044   1.885
35953W        W  938  12.753   6.435  13.011
35954W        W  939  44.465  20.563   0.994
35955W        W  940  28.491   5.846  14.526
35956W        W  941   5.316  10.218   3.522
35957W        W  942  34.749  34.351   3.640
35958W        W  943  32.582  28.582  13.309
35959W        W  944  31.205  42.832   3.150
35960W        W  945  22.033  36.549  13.694
35961W        W  946   2.110  11.164   0.738
35962W        W  947  43.036  35.560   0.370
35963W        W  948   0.851  42.279   3.709
35964W        W  949  31.587   6.272  11.010
35965W        W  950  33.480   7.544  14.213
35966W        W  951   9.784  23.512  11.109
35967W        W  952   3.795  38.305  13.463
35968W        W  953  29.466  11.225   4.472
35969W        W  954  43.382  11.845   2.814
35970W        W  955   1.506  24.489  13.470
35971W        W  956  29.541  32.443  12.405
35972W        W  957  27.992  14.549  14.967
35973W        W  958  39.532   6.239   4.546
35974W        W  959  27.257  33.515  13.341
35975W        W  960  24.609  22.063   4.140
35976W        W  961  21.514   6.840  13.527
35977W        W  962   2.291  26.615  12.063
35978W        W  963  11.578   5.358   1.883
35979W        W  964  21.229  16.619  12.181
35980W        W  965  36.415   1.473  11.162
35981W        W  966  11.234  34.855  14.278
35982W        W  967  18.068  40.514   2.886
35983W        W  968  17.339   3.297   4.159
35984W        W  969   2.824   2.450  14.038
35985W        W  970  10.591  40.478   4.173
35986W        W  971   1.306   2.420   0.243
35987W        W  972  31.108  31.468  11.585
35988W        W  973  43.117  27.941   0.356
35989W        W  974  17.863  27.419   1.361
35990W        W  975  26.716  43.749   4.921
35991W        W  976  39.354  25.651  14.906
35992W        W  977  33.977  25.750  14.404
35993W        W  978   2.004  28.238   0.248
35994W        W  979  36.405   6.116   4.362
35995W        W  980  38.203  17.172  10.545
35996W        W  981  37.774  22.794  14.632
35997W        W  982  29.014  13.301   0.710
35998W        W  983  25.604   6.421   1.728
35999W        W  984   5.233   9.360   5.075
36000W        W  985  11.113  24.244   2.147
36001W        W  986   2.895  24.282   2.987
36002W        W  987  28.960   7.177   2.573
36003W        W  988  14.291   3.656  14.826
36004W        W  989  10.453  31.404   3.774
36005W        W  990  18.339  22.010  12.803
36006W        W  991  11.143   7.109  11.582
36007W        W  992  23.328   3.504   9.812
36008W        W  993  29.867  33.933   3.394
36009W        W  994  20.898  23.991  11.958
36010W        W  995  38.077  31.917   4.556
36011W        W  996   8.447  32.847  11.395
36012W        W  997   9.577  43.281   0.808
36013W        W  998   0.332   7.358   4.638
36014W        W  999  43.356   4.953  11.984
36015W        W 1000   5.747  31.892  14.441
36016W        W 1001  13.178   6.183  13.162
36017W        W 1002   2.458  13.187  13.291
36018W        W 1003  36.904  34.087   3.562
36019W        W 1004  20.038   8.528   1.123
36020W        W 1005  29.098   7.846   4.141
36021W        W 1006  15.100  16.701  13.935
36022W        W 1007  38.969  12.936  14.305
36023W        W 1008  44.416  42.283   4.689
36024W        W 1009  17.817  29.896   1.364
36025W        W 1010  28.235   9.310   3.060
36026W        W 1011   4.400  25.525   2.613
36027W        W 1012  11.351  15.307   4.531
36028W        W 1013  25.971  26.563  11.048
36029W        W 1014  43.794  20.156  14.836
36030W        W 1015  21.653  38.860   3.704
36031W        W 1016   9.385  10.631  12.119
36032W        W 1017  15.667  10.838   3.584
36033W        W 1018  41.227   4.045  14.758
36034W        W 1019  44.807  38.368  10.559
36035W        W 1020  36.777  21.055   2.268
36036W        W 1021  31.995  12.745   3.433
36037W        W 1022  16.541  14.244  14.630
36038W        W 1023  28.756  11.872  12.555
36039W        W 1024   8.458  19.171  14.719
36040W        W 1025  13.694  23.909   2.738
36041W        W 1026   4.235   2.741   3.733
36042W        W 1027  23.883  27.279   4.984
36043W        W 1028   0.554   0.998  12.500
36044W        W 1029  28.347  31.693  10.674
36045W        W 1030  11.685   2.318   2.667
36046W        W 1031  36.090  36.956  12.425
36047W        W 1032  20.290  26.080  10.611
36048W        W 1033  22.243  24.118   4.198
36049W        W 1034  11.749  28.935  12.076
36050W        W 1035   1.759  22.769   1.275
36051W        W 1036  17.645   3.896  14.049
36052W        W 1037   4.001  18.009  14.023
36053W        W 1038  23.823  36.058   4.137
36054W        W 1039  36.464   2.241  14.209
36055W        W 1040   3.227  26.763   4.270
36056W        W 1041   2.834  33.123   0.255
36057W        W 1042  40.938  39.840   3.191
36058W        W 1043   5.779  27.408  11.375
36059W        W 1044  36.472   7.281   1.437
36060W        W 1045   4.208   6.884   0.608
36061W        W 1046  19.189   2.508   0.706
36062W        W 1047  40.689  27.596   1.397
36063W        W 1048   6.619  26.453  12.300
36064W        W 1049  40.314   3.127  12.539
36065W        W 1050  15.527  27.515   1.392
36066W        W 1051  17.143  30.220   4.207
36067W        W 1052  13.334  44.091  10.594
36068W        W 1053   2.915  34.971  12.943
36069W        W 1054  32.673  14.244  13.841
36070W        W 1055   6.406  32.550  14.303
36071W        W 1056  27.444  21.663  12.472
36072W        W 1057  28.472  22.264   4.205
36073W        W 1058  28.971  40.263  14.300
36074W        W 1059  12.851  38.486  13.048
36075W        W 1060  11.443   8.161   3.539
36076W        W 1061  41.847  39.439   1.289
36077W        W 1062  11.566  19.554   0.124
36078W        W 1063  39.688  42.653  10.564
36079W        W 1064   8.849  12.885   4.177
36080W        W 1065  41.790  15.050   0.735
36081W        W 1066  16.574  30.619   1.173
36082W        W 1067   5.249   9.632   0.704
36083W        W 1068   6.877  26.362   4.205
36084W        W 1069  11.440  42.354   2.169
36085W        W 1070  15.150  21.757   0.033
36086W        W 1071  36.775  26.992   4.131
36087W        W 1072  15.916  22.065   1.489
36088W        W 1073  38.312  33.441   4.601
36089W        W 1074  33.233  33.452  13.109
36090W        W 1075   0.006   2.196  13.338
36091W        W 1076  35.464  25.731   3.546
36092W        W 1077  39.027  11.154  14.884
36093W        W 1078  21.918  42.921   3.163
36094W        W 1079  19.579   4.996   0.727
36095W        W 1080  19.083  36.532  13.982
36096W        W 1081   9.325   8.194   3.504
36097W        W 1082  32.677  38.075  14.940
36098W        W 1083  24.720   9.279   2.288
36099W        W 1084  28.813   3.094   1.816
36100W        W 1085  25.183  16.285  12.053
36101W        W 1086  21.432   4.097   0.352
36102W        W 1087  25.242  27.676  10.274
36103W        W 1088   0.001  17.730  12.522
36104W        W 1089   3.317  34.482  14.467
36105W        W 1090  34.804  16.026   4.448
36106W        W 1091  38.818  42.307   2.913
36107W        W 1092  39.275   4.913   5.253
36108W        W 1093  27.029  30.903  14.900
36109W        W 1094  38.255  18.884  11.944
36110W        W 1095   0.767  23.234   0.338
36111W        W 1096  39.457  25.758  13.909
36112W        W 1097   6.866  34.416   3.429
36113W        W 1098   5.681  40.590   1.314
36114W        W 1099  24.874  20.811   1.293
36115W        W 1100  18.760  39.831   3.148
36116W        W 1101  23.056  19.730   4.625
36117W        W 1102  36.289  28.013  13.008
36118W        W 1103  18.558  39.035  14.942
36119W        W 1104   5.437  11.118   3.698
36120W        W 1105  25.140  36.042  10.864
36121W        W 1106  14.764  27.450   1.881
36122W        W 1107   7.840  33.032  13.326
36123W        W 1108  19.159   0.965  10.668
36124W        W 1109  44.090  29.590   5.075
36125W        W 1110   8.867   0.933   0.242
36126W        W 1111  38.336   6.781   4.315
36127W        W 1112  21.197  38.469   2.795
36128W        W 1113  36.287  37.474   4.110
36129W        W 1114  41.506  19.798   4.410
36130W        W 1115  19.498  40.216  11.587
36131W        W 1116   5.830   0.431  14.675
36132W        W 1117  11.911  26.126   1.823
36133W        W 1118  38.550   0.341   2.263
36134W        W 1119  39.303  19.801  14.339
36135W        W 1120  38.784  28.441  14.813
36136W        W 1121   6.249  28.919   3.328
36137W        W 1122  33.007   6.178  10.675
36138W        W 1123  36.438   7.137  13.582
36139W        W 1124  11.817  19.111  10.522
36140W        W 1125  22.736   9.190  13.068
36141W        W 1126  44.201   7.402   2.105
36142W        W 1127  17.090  30.233   5.078
36143W        W 1128  26.415  27.105  14.894
36144W        W 1129  38.810  17.753   0.814
36145W        W 1130  43.899   1.229  10.677
36146W        W 1131   8.190   0.193  11.953
36147W        W 1132  19.308   1.183  11.106
36148W        W 1133  40.805  38.003   2.423
36149W        W 1134  38.250  16.563   9.868
36150W        W 1135  43.867   1.939  13.359
36151W        W 1136  27.361  44.900   0.444
36152W        W 1137  26.746  38.592  11.548
36153W        W 1138  12.950  17.300  12.809
36154W        W 1139  35.506  20.265  12.754
36155W        W 1140  32.468   1.845  11.906
36156W        W 1141  12.781  14.375   1.817
36157W        W 1142  26.219  30.332  13.655
36158W        W 1143  11.395  29.027   1.770
36159W        W 1144   2.097  24.481   2.267
36160W        W 1145  27.666  28.054   2.704
36161W        W 1146  19.776  16.332  13.582
36162W        W 1147  44.691  42.216   0.956
36163W        W 1148   3.031  25.469   4.164
36164W        W 1149  41.906   0.376  11.476
36165W        W 1150  38.089  33.469  12.107
36166W        W 1151   0.233   1.335   2.214
36167W        W 1152  34.428  24.229  13.716
36168W        W 1153  22.010   3.869   1.197
36169W        W 1154  42.863  12.400   4.242
36170W        W 1155  41.421  21.969  14.365
36171W        W 1156  18.941  24.162  11.576
36172W        W 1157  11.831  44.843   3.281
36173W        W 1158   7.525  23.004   4.235
36174W        W 1159  20.704  13.036  11.071
36175W        W 1160  43.351  42.289   0.419
36176W        W 1161  25.010  15.635   5.196
36177W        W 1162  31.506  21.038  13.324
36178W        W 1163   6.941  15.855   3.804
36179W        W 1164   9.493   0.669  11.040
36180W        W 1165  27.227  31.587   2.303
36181W        W 1166   1.164  38.929  11.658
36182W        W 1167   0.978  44.390   3.113
36183W        W 1168  43.033  21.555   0.934
36184W        W 1169  10.824   6.470  10.880
36185W        W 1170  27.083  37.117  12.459
36186W        W 1171  37.249  17.411  14.051
36187W        W 1172  23.458  17.234  12.952
36188W        W 1173   9.010  14.093  14.449
36189W        W 1174   6.680  17.670  13.090
36190W        W 1175  19.714  43.689   3.218
36191W        W 1176  38.933  37.903  14.919
36192W        W 1177  31.144  12.599   3.476
36193W        W 1178  26.524   1.622  11.775
36194W        W 1179  10.704   0.013   1.416
36195W        W 1180   0.890  13.135   4.157
36196W        W 1181  10.042  32.549  13.614
36197W        W 1182  43.435   8.278   3.693
36198W        W 1183  26.749  25.651  13.222
36199W        W 1184  38.749   7.329  10.902
36200W        W 1185  35.266  24.930   3.184
36201W        W 1186  14.652   2.728   4.530
36202W        W 1187  25.140  24.614  11.403
36203W        W 1188  21.661  17.325   1.854
36204W        W 1189  44.775  18.212  13.477
36205W        W 1190  38.081   3.863  11.137
36206W        W 1191  44.662  27.947  10.016
36207W        W 1192  16.699  14.097  13.618
36208W        W 1193  31.034   1.690   3.564
36209W        W 1194  20.713  24.467   0.284
36210W        W 1195  15.918  24.270  11.948
36211W        W 1196   3.761   8.339   4.180
36212W        W 1197  38.960  13.784   1.276
36213W        W 1198  20.269  35.527   1.790
36214W        W 1199   3.419   2.228  12.525
36215W        W 1200   1.467  43.248   0.396
36216W        W 1201  38.295  21.576   3.585
36217W        W 1202   4.851   7.469   2.071
36218W        W 1203   7.662   2.736  14.927
36219W        W 1204  16.507  44.763   4.174
36220W        W 1205  34.360  11.595  14.015
36221W        W 1206   0.430  36.361  11.970
36222W        W 1207  30.135   5.397  11.853
36223W        W 1208   6.868  33.086   2.388
36224W        W 1209  25.821   2.397   0.302
36225W        W 1210  36.416  38.589  11.151
36226W        W 1211  25.908  24.811   2.374
36227W        W 1212   0.382  23.108   1.599
36228W        W 1213  11.813  11.121  13.774
36229W        W 1214  10.797  25.063   0.321
36230W        W 1215   8.079  39.201   1.430
36231W        W 1216  23.009  25.010   4.557
36232W        W 1217  20.306  15.110  13.644
36233W        W 1218  35.168  31.459   3.756
36234W        W 1219  25.983  42.932  14.732
36235W        W 1220  12.361   5.277   2.748
36236W        W 1221   5.159  13.400  14.908
36237W        W 1222  31.417  15.153  11.169
36238W        W 1223  22.795  35.984   3.930
36239W        W 1224  21.041  24.863  14.457
36240W        W 1225   5.410  10.872  12.979
36241W        W 1226   0.515  35.678  13.444
36242W        W 1227  43.814  36.332  14.906
36243W        W 1228  31.511   8.624   0.885
36244W        W 1229  13.369   7.506  10.197
36245W        W 1230  13.780  42.091  14.572
36246W        W 1231  43.016  26.739  12.580
36247W        W 1232   4.797  29.890  12.773
36248W        W 1233   7.110   5.274   3.298
36249W        W 1234  15.310  39.372  11.113
36250W        W 1235  32.116  33.606   3.586
36251W        W 1236  34.679  10.621   4.958
36252W        W 1237   6.612  26.127   4.857
36253W        W 1238   7.870  44.015   2.275
36254W        W 1239  42.277  21.990  10.203
36255W        W 1240   5.415   0.593   2.721
36256W        W 1241  40.013  32.405   4.572
36257W        W 1242   3.305  42.478  14.504
36258W        W 1243  14.518  40.454   2.262
36259W        W 1244  38.605  17.642  14.801
36260W        W 1245  37.297   6.698   2.732
36261W        W 1246  14.673  36.407   1.874
36262W        W 1247  13.888  22.524  13.478
36263W        W 1248  26.517  31.828  13.964
36264W        W 1249  20.162  12.039   0.127
36265W        W 1250  25.236   1.490  13.707
36266W        W 1251  31.103  41.988  13.100
36267W        W 1252  21.373  20.744   0.305
36268W        W 1253  24.880  28.183   1.445
36269W        W 1254  33.397  40.117  13.428
36270W        W 1255  27.603  13.601  14.700
36271W        W 1256   2.963  42.234  11.691
36272W        W 1257  17.033  19.417  13.001
36273W        W 1258  28.607  39.777   2.312
36274W        W 1259  21.305  29.926  11.074
36275W        W 1260  34.689  15.714   0.289
36276W        W 1261  23.753  25.124  14.834
36277W        W 1262  44.892  30.797   2.558
36278W        W 1263   2.620  38.174   2.483
36279W        W 1264  42.371  18.319  12.196
36280W        W 1265  43.372  22.104  13.441
36281W        W 1266  21.460  22.282   0.976
36282W        W 1267  20.322  25.297   4.038
36283W        W 1268  34.808  20.866  14.410
36284W        W 1269  19.746  30.047  11.093
36285W        W 1270   3.208  39.920  12.964
36286W        W 1271  13.322  25.897  11.453
36287W        W 1272  29.411  14.070  11.741
36288W        W 1273  19.670   0.810  14.083
36289W        W 1274  44.919  33.421   4.584
36290W        W 1275  13.293  12.361  14.391
36291W        W 1276  39.744  26.512  13.953
36292W        W 1277  27.640   3.279   0.893
36293W        W 1278  38.364  10.742   1.261
36294W        W 1279  37.001   1.403   4.612
36295W        W 1280  20.447  42.354  10.796
36296W        W 1281  30.395  15.884  12.816
36297W        W 1282  28.542  42.047   3.537
36298W        W 1283  15.280   1.360  14.573
36299W        W 1284  29.595  10.826  14.935
36300W        W 1285  13.695  37.926  13.006
36301W        W 1286  37.000  36.557   2.836
36302W        W 1287  31.955  30.053   1.418
36303W        W 1288  16.442  17.466  11.954
36304W        W 1289   4.628  40.900  10.435
36305W        W 1290  30.328  15.795  11.737
36306W        W 1291  31.846   6.447   2.144
36307W        W 1292  34.427   7.080   1.262
36308W        W 1293  16.601  21.983   2.872
36309W        W 1294  12.879   6.331  14.429
36310W        W 1295   6.253  11.398  14.480
36311W        W 1296  12.430  17.728   2.355
36312W        W 1297  25.202  26.104  12.454
36313W        W 1298  18.556  41.806   0.733
36314W        W 1299   3.985  31.615   3.324
36315W        W 1300  16.992  20.315  13.296
36316W        W 1301   6.692   7.018  13.867
36317W        W 1302  23.838  16.687   2.388
36318W        W 1303  29.986  17.583   4.405
36319W        W 1304  10.186  38.369  13.548
36320W        W 1305   0.761   9.843   3.645
36321W        W 1306  19.507  44.917  14.465
36322W        W 1307  23.341  30.944   2.371
36323W        W 1308   9.806   7.680   2.376
36324W        W 1309  41.504  42.833  10.902
36325W        W 1310  13.148  13.131  13.856
36326W        W 1311  21.486  24.357   0.892
36327W        W 1312  23.183  19.645  12.875
36328W        W 1313  28.830  22.103   0.894
36329W        W 1314  37.514  43.199   1.722
36330W        W 1315  23.002  29.399   1.378
36331W        W 1316   3.562  38.577   2.244
36332W        W 1317  29.249  39.321  14.314
36333W        W 1318  33.120   2.980  14.311
36334W        W 1319  15.729  32.453   5.005
36335W        W 1320  30.560  35.804   5.100
36336W        W 1321  30.468  25.476  11.778
36337W        W 1322  31.751  15.373  11.481
36338W        W 1323  28.708  40.558  10.620
36339W        W 1324  35.915  10.727  14.876
36340W        W 1325  30.205  15.785   3.301
36341W        W 1326  31.087  41.409  11.481
36342W        W 1327  21.939  39.850  14.499
36343W        W 1328  43.489  10.818   4.650
36344W        W 1329  24.844  34.872   1.387
36345W        W 1330   5.843  23.554   2.348
36346W        W 1331  11.287   5.804   4.045
36347W        W 1332  21.334  12.896  11.883
36348W        W 1333  37.983  34.404   3.168
36349W        W 1334   2.965   3.750   2.290
36350W        W 1335  18.282  20.200   1.978
36351W        W 1336  34.480  10.738   4.518
36352W        W 1337   1.215  27.929  10.723
36353W        W 1338  19.279   0.850   0.184
36354W        W 1339   3.953  25.970  12.721
36355W        W 1340   8.334  21.784  11.290
36356W        W 1341   7.390  29.459   4.545
36357W        W 1342  17.601  18.158   3.709
36358W        W 1343  39.794  33.676   4.162
36359W        W 1344  22.229  40.467  11.037
36360W        W 1345  44.534  25.366  11.175
36361W        W 1346  12.216  13.294  12.340
36362W        W 1347  39.677  42.358   1.730
36363W        W 1348  25.175   5.906  11.849
36364W        W 1349  11.143  41.095  12.980
36365W        W 1350  12.442  10.635  12.423
36366W        W 1351   5.668  28.121   3.826
36367W        W 1352   4.477  41.940  11.392
36368W        W 1353   1.752  20.276   4.633
36369W        W 1354   9.343  24.237  13.371
36370W        W 1355  39.530  13.830  13.415
36371W        W 1356  43.677  12.616  10.887
36372W        W 1357  19.961  16.811   3.683
36373W        W 1358  32.038   4.288   2.409
36374W        W 1359  26.985  41.535   3.320
36375W        W 1360  38.439  31.699  11.923
36376W        W 1361   2.384  29.000   0.087
36377W        W 1362  34.131   4.004  14.942
36378W        W 1363  28.397  27.599   3.590
36379W        W 1364  44.182  32.082   3.793
36380W        W 1365   3.664   8.870  13.509
36381W        W 1366  19.483   3.236   5.105
36382W        W 1367  41.694  22.209   3.724
36383W        W 1368  34.493  23.418   3.170
36384W        W 1369  11.859   8.113   3.242
36385W        W 1370   1.926  15.708   2.860
36386W        W 1371   6.928   2.359  13.608
36387W        W 1372  19.797  32.872  13.343
36388W        W 1373  17.531   1.229   4.779
36389W        W 1374  23.462  40.386   3.601
36390W        W 1375  34.050  10.650  11.363
36391W        W 1376  22.027  30.602   1.462
36392W        W 1377  40.078   2.575   4.607
36393W        W 1378  43.100  41.479  10.309
36394W        W 1379  37.874  16.071   3.651
36395W        W 1380  21.942   9.020  12.129
36396W        W 1381  19.057  10.910   1.677
36397W        W 1382  24.667  16.282  11.033
36398W        W 1383  15.847  16.233   2.362
36399W        W 1384   0.919  22.284   4.238
36400W        W 1385  13.863  37.529   4.134
36401W        W 1386  19.128   6.178  14.038
36402W        W 1387  20.801   3.165   2.323
36403W        W 1388   1.556  25.699  12.525
36404W        W 1389   5.808  11.415   4.233
36405W        W 1390  40.179  12.843   0.975
36406W        W 1391  37.818  35.384   9.681
36407W        W 1392  34.296   1.830  14.321
36408W        W 1393  35.633  16.128   2.933
36409W        W 1394   7.839  22.876   4.628
36410W        W 1395   4.075  32.597   3.221
36411W        W 1396  21.757  14.844   1.844
36412W        W 1397   2.419  32.031  10.793
36413W        W 1398  13.889   9.778   1.348
36414W        W 1399  20.349  14.220  10.325
36415W        W 1400  11.737  43.491   1.213
36416W        W 1401  40.251  33.394   2.180
36417W        W 1402  38.455  13.641   2.029
36418W        W 1403  31.092  31.815   0.440
36419W        W 1404  23.553  24.991  11.953
36420W        W 1405  23.928   7.329  10.457
36421W        W 1406  29.629  31.191   2.237
36422W        W 1407  32.650  32.976   4.203
36423W        W 1408  22.533   8.211   0.780
36424W        W 1409   0.217  13.266   0.359
36425W        W 1410  20.457   2.959  11.509
36426W        W 1411  23.137  30.473  13.473
36427W        W 1412  21.599  39.897   3.652
36428W        W 1413  14.222   4.780   0.419
36429W        W 1414   6.734   9.198  13.212
36430W        W 1415  28.430  33.132   3.216
36431W        W 1416  20.527  35.144   0.575
36432W        W 1417  27.660  39.025   1.451
36433W        W 1418  23.501   6.784   1.173
36434W        W 1419   7.751  35.598  12.350
36435W        W 1420  23.869  28.837  14.447
36436W        W 1421  42.911  25.177  12.388
36437W        W 1422  30.533  16.770  14.205
36438W        W 1423  34.843  38.338   2.717
36439W        W 1424  34.527  17.305  12.385
36440W        W 1425   1.514  25.535   4.250
36441W        W 1426  13.115  30.404   3.758
36442W        W 1427  25.044  42.723   4.288
36443W        W 1428   8.174  17.805   0.428
36444W        W 1429  17.186  42.505  10.683
36445W        W 1430  22.099  33.434   3.810
36446W        W 1431   4.463  40.449  14.914
36447W        W 1432   3.704  35.852   3.714
36448W        W 1433  29.646  13.198  11.553
36449W        W 1434   3.825  32.886   0.955
36450W        W 1435  39.649  19.949   1.290
36451W        W 1436  26.671  24.196   4.945
36452W        W 1437  32.777  25.836  10.704
36453W        W 1438  39.739  16.294   2.975
36454W        W 1439  29.079  18.991  11.625
36455W        W 1440  19.601   7.242   4.403
36456W        W 1441  32.738  17.017  11.187
36457W        W 1442  11.640  26.798  14.401
36458W        W 1443  21.019  12.673  10.905
36459W        W 1444  31.988  41.749  12.568
36460W        W 1445  36.467  15.799  13.422
36461W        W 1446  40.901  24.702   0.470
36462W        W 1447   8.675   9.429   5.168
36463W        W 1448   9.838  40.550   4.510
36464W        W 1449  11.419  10.253  11.509
36465W        W 1450   6.677  11.175  13.540
36466W        W 1451  17.724  37.568   3.771
36467W        W 1452  25.050  16.712  10.578
36468W        W 1453  27.570  18.611   3.384
36469W        W 1454   2.025  40.041   3.258
36470W        W 1455  23.408  43.546  12.060
36471W        W 1456  32.312  40.863  11.624
36472W        W 1457   8.806   1.010  12.001
36473W        W 1458  40.410  36.853   0.869
36474W        W 1459  16.063   8.341  14.602
36475W        W 1460  38.533  31.217  14.992
36476W        W 1461  17.085  39.965  12.115
36477W        W 1462  19.175  31.225  13.501
36478W        W 1463  35.586  26.237  10.697
36479W        W 1464  21.939  42.567   0.833
36480W        W 1465  42.857  11.232  11.564
36481W        W 1466  44.337  15.444   0.780
36482W        W 1467  34.964   4.451   2.158
36483W        W 1468  39.074  25.825  12.246
36484W        W 1469   1.758  40.228   2.777
36485W        W 1470  21.056   1.491  11.145
36486W        W 1471  22.538   5.750  13.605
36487W        W 1472  24.555  43.471  12.842
36488W        W 1473   8.326  31.488   2.881
36489W        W 1474   6.765  39.972  12.920
36490W        W 1475  40.892  37.591  12.342
36491W        W 1476  39.895  43.586   2.117
36492W        W 1477  16.957  42.585   1.793
36493W        W 1478   7.534  25.515  11.663
36494W        W 1479  34.082  12.217  12.883
36495W        W 1480  17.542   9.899   0.431
36496W        W 1481   5.714  13.862  13.424
36497W        W 1482  39.049   3.941  13.677
36498W        W 1483  35.146   6.819  12.332
36499W        W 1484  36.964  37.554   0.292
36500W        W 1485   8.862  10.788  13.950
36501W        W 1486  15.602  13.884   5.023
36502W        W 1487  20.680  16.088   4.441
36503W        W 1488  11.235   3.888   0.969
36504W        W 1489  31.550  12.825  10.625
36505W        W 1490  44.316  32.659  14.466
36506W        W 1491  24.066  20.095   1.218
36507W        W 1492  31.926  31.132   0.972
36508W        W 1493  20.335  40.169  11.958
36509W        W 1494  43.931  40.367   0.524
36510W        W 1495  40.206   0.248  12.039
36511W        W 1496  10.308  13.280   4.326
36512W        W 1497  24.364  10.277   1.497
36513W        W 1498   4.499  27.194  12.857
36514W        W 1499  28.977  41.470  14.296
36515W        W 1500  12.196  21.695   2.159
36516W        W 1501  36.279   9.496  11.142
36517W        W 1502  17.108  13.888  12.962
36518W        W 1503  42.741  10.873   1.331
36519W        W 1504   0.002  19.054  10.450
36520W        W 1505   8.235  33.337  13.380
36521W        W 1506  30.384   5.641   4.128
36522W        W 1507  37.812  27.137  14.309
36523W        W 1508  38.266  44.297   0.018
36524W        W 1509  32.839  33.550  10.616
36525W        W 1510  24.770   6.419   1.126
36526W        W 1511  29.092  21.307  14.586
36527W        W 1512  10.084  30.594  11.855
36528W        W 1513   8.619   4.774  14.259
36529W        W 1514  44.875  33.406   0.915
36530W        W 1515  31.739   0.693   3.283
36531W        W 1516  17.381   0.523  10.139
36532W        W 1517   9.073   7.237   4.145
36533W        W 1518  26.123  30.604   2.667
36534W        W 1519  28.966  23.716  12.524
36535W        W 1520  24.926  32.418  12.395
36536W        W 1521  44.340  41.707   5.244
36537W        W 1522  15.366   2.480   4.900
36538W        W 1523  24.814  44.112   1.315
36539W        W 1524  34.406  39.423  13.887
36540W        W 1525   8.900   5.060  14.573
36541W        W 1526  34.094  15.760  10.423
36542W        W 1527  39.411  33.175  12.061
36543W        W 1528  29.583   4.795   5.073
36544W        W 1529  31.598  44.043  14.462
36545W        W 1530  42.398  32.431   3.746
36546W        W 1531  44.323  44.960  14.851
36547W        W 1532   4.580  13.298  11.405
36548W        W 1533   9.658  16.171   2.396
36549W        W 1534   4.806   6.326   4.616
36550W        W 1535  40.743  16.667  13.372
36551W        W 1536  30.424  34.728  10.992
36552W        W 1537   4.806  32.233  14.495
36553W        W 1538   3.491  11.616   3.787
36554W        W 1539  40.638   6.781  10.393
36555W        W 1540  43.772  15.027   1.730
36556W        W 1541  25.705  14.562   2.395
36557W        W 1542  14.124  22.238   0.923
36558W        W 1543  25.943  15.176  11.597
36559W        W 1544  28.227  37.132   0.376
36560W        W 1545  42.868   7.441   3.733
36561W        W 1546  26.397  15.190   1.097
36562W        W 1547  24.001  44.790   3.968
36563W        W 1548   5.214  15.106  14.136
36564W        W 1549  21.116   7.890   0.894
36565W        W 1550  25.632  19.179   2.198
36566W        W 1551  22.923  11.777  11.947
36567W        W 1552  41.595  22.391  14.053
36568W        W 1553  36.221  28.030  12.063
36569W        W 1554  13.087  18.182   3.289
36570W        W 1555  17.677   4.140  14.499
36571W        W 1556  39.359  37.088  14.291
36572W        W 1557  27.426  37.874   3.124
36573W        W 1558  10.946   9.186   1.248
36574W        W 1559  20.490   7.913   1.240
36575W        W 1560  43.956   5.976  11.994
36576W        W 1561  38.902  29.026   0.661
36577W        W 1562  21.427  28.497   4.629
36578W        W 1563  36.173  16.611   4.599
36579W        W 1564  24.122  14.252  14.324
36580W        W 1565  11.413   0.695  14.491
36581W        W 1566  11.053   0.233   3.706
36582W        W 1567  21.217  33.013  14.819
36583W        W 1568  24.122   5.431  11.613
36584W        W 1569  19.282  39.769  11.024
36585W        W 1570  32.071  33.003   2.701
36586W        W 1571  33.673  34.766  10.391
36587W        W 1572  31.559  44.722  13.026
36588W        W 1573   6.364  23.261  12.904
36589W        W 1574  10.138  14.715   3.281
36590W        W 1575  33.147   3.895  11.638
36591W        W 1576   3.049  17.856   4.911
36592W        W 1577   5.667  26.562  12.515
36593W        W 1578  28.909  12.791   4.102
36594W        W 1579  31.010  24.214   2.402
36595W        W 1580  15.473  30.425  10.709
36596W        W 1581  37.566  22.250   2.256
36597W        W 1582  42.948  28.479   1.014
36598W        W 1583  39.422  40.446  12.490
36599W        W 1584  19.004  31.772   4.067
36600W        W 1585  10.148  44.858   5.075
36601W        W 1586  40.336  22.595   4.819
36602W        W 1587   4.405   5.283  12.385
36603W        W 1588   8.176  24.662   1.675
36604W        W 1589  38.498   0.401   3.184
36605W        W 1590  10.870  25.815   0.854
36606W        W 1591  20.033  25.559  14.642
36607W        W 1592  44.210   9.078   1.792
36608W        W 1593   1.019  38.742   4.155
36609W        W 1594   0.122   5.117   2.730
36610W        W 1595  23.138  20.308   5.289
36611W        W 1596  22.171  10.662   4.535
36612W        W 1597  36.966  32.055  12.957
36613W        W 1598  13.670  24.776   0.580
36614W        W 1599  17.667  31.630  12.216
36615W        W 1600  41.902  33.409   1.272
36616W        W 1601   7.221  33.161   0.571
36617W        W 1602   8.912  19.076  12.223
36618W        W 1603  19.241  33.373  11.109
36619W        W 1604  23.284   6.053   4.565
36620W        W 1605  23.038  43.810  14.752
36621W        W 1606   6.459   9.685  10.739
36622W        W 1607  31.036  27.207   0.924
36623W        W 1608  37.111   0.852  12.792
36624W        W 1609  33.353  17.570  12.586
36625W        W 1610   7.628  11.095  13.408
36626W        W 1611   4.888  34.828  13.357
36627W        W 1612  17.842  32.097   3.817
36628W        W 1613  40.812  14.256   3.359
36629W        W 1614   8.417  35.125  12.859
36630W        W 1615  22.804  14.106  11.176
36631W        W 1616  28.631  24.248   4.093
36632W        W 1617   5.873  20.628  12.385
36633W        W 1618  38.739  33.379  12.557
36634W        W 1619  27.730  37.143   0.244
36635W        W 1620  24.914  23.199  11.672
36636W        W 1621   1.395   9.097  13.162
36637W        W 1622  31.864   4.334  10.695
36638W        W 1623  15.182   1.822  12.316
36639W        W 1624  40.382  19.857  11.478
36640W        W 1625  26.887  31.176  12.550
36641W        W 1626  32.335  40.358  13.393
36642W        W 1627  29.566  24.640   1.850
36643W        W 1628  39.712  23.073   9.863
36644W        W 1629   2.272   7.573  11.186
36645W        W 1630  25.274   7.835   0.861
36646W        W 1631  18.413  25.599   3.423
36647W        W 1632   0.911  14.467   4.524
36648W        W 1633  14.548   8.603  12.150
36649W        W 1634  43.568  19.790  12.040
36650W        W 1635  19.564  31.600   2.881
36651W        W 1636  20.593  20.086  12.180
36652W        W 1637  11.564   0.725   3.129
36653W        W 1638  28.474  40.912   4.149
36654W        W 1639  28.534  10.880  14.306
36655W        W 1640  10.321  34.951   0.414
36656W        W 1641  14.618  39.773  12.314
36657W        W 1642  18.613  11.732  12.470
36658W        W 1643  27.318  27.706   2.080
36659W        W 1644  18.602   6.507  13.823
36660W        W 1645  39.745  11.152  13.595
36661W        W 1646  41.707  36.109  14.388
36662W        W 1647  14.576  35.084   1.159
36663W        W 1648  29.655  19.540  12.208
36664W        W 1649   9.010  12.162  10.673
36665W        W 1650  40.278  15.817   3.470
36666W        W 1651  35.914  30.255  12.367
36667W        W 1652  29.078  34.350   4.374
36668W        W 1653  41.247  37.590  12.701
36669W        W 1654  36.083  16.286   1.022
36670W        W 1655  40.028  19.775   2.093
36671W        W 1656   6.969   4.547  14.396
36672W        W 1657  34.514   4.766   3.383
36673W        W 1658  33.646   1.236   3.729
36674W        W 1659   7.226  43.913   3.361
36675W        W 1660  24.814  10.281   4.700
36676W        W 1661  11.834  27.755   3.210
36677W        W 1662  10.337   3.885  14.524
36678W        W 1663  28.546  26.077  13.755
36679W        W 1664  32.632  21.766  13.494
36680W        W 1665  29.620  39.160   3.038
36681W        W 1666  40.541  41.550  14.853
36682W        W 1667  23.460   4.604  13.414
36683W        W 1668  37.403   6.229   0.808
36684W        W 1669   1.930   3.418   4.802
36685W        W 1670  40.847  22.383  10.369
36686W        W 1671  14.241  34.795  12.015
36687W        W 1672   7.856  30.737  12.841
36688W        W 1673  23.647  12.140   0.547
36689W        W 1674  13.925  15.390  10.567
36690W        W 1675  18.581  10.451   4.989
36691W        W 1676  13.130  31.186   9.728
36692W        W 1677   6.813  11.634   3.625
36693W        W 1678  43.941  27.451   1.167
36694W        W 1679  25.610  38.728  10.143
36695W        W 1680  35.826  21.461  13.852
36696W        W 1681  11.832  35.878  12.567
36697W        W 1682  25.719  22.641   2.190
36698W        W 1683   7.427   2.455   0.344
36699W        W 1684   7.618   1.011   2.949
36700W        W 1685  23.630  18.229   4.203
36701W        W 1686  38.109   6.157   0.271
36702W        W 1687  26.807  15.437   0.929
36703W        W 1688  35.401   7.463   3.690
36704W        W 1689  11.664  27.597   1.370
36705W        W 1690  24.869   7.104   4.500
36706W        W 1691  38.803  28.916  13.822
36707W        W 1692  18.276  14.021  13.313
36708W        W 1693  15.065  23.142   0.741
36709W        W 1694   0.891   4.823   1.544
36710W        W 1695  21.103   8.844   3.646
36711W        W 1696  42.856  19.178   3.326
36712W        W 1697  11.757   9.199   2.787
36713W        W 1698  19.118  38.970   1.178
36714W        W 1699  39.983  22.681   1.543
36715W        W 1700  29.560  10.892  10.288
36716W        W 1701  14.737  24.320   1.316
36717W        W 1702  14.637   7.758   2.366
36718W        W 1703   0.007  35.497   2.428
36719W        W 1704  33.052  20.301  11.242
36720W        W 1705  32.720  14.328   0.287
36721W        W 1706  15.778  32.495  14.449
36722W        W 1707   2.604  27.704  14.802
36723W        W 1708   2.499  42.739   3.816
36724W        W 1709  21.410   0.821  13.238
36725W        W 1710  36.100  20.006   0.991
36726W        W 1711  43.530   4.676  11.554
36727W        W 1712  32.196  27.742   2.533
36728W        W 1713  36.042  35.458  12.005
36729W        W 1714  42.425  28.371  11.627
36730W        W 1715  17.566   3.312  10.743
36731W        W 1716   5.346  21.083  13.077
36732W        W 1717  38.510  29.842   3.249
36733W        W 1718   0.169   6.717  14.581
36734W        W 1719   0.147  10.939  13.965
36735W        W 1720  17.961  30.867   1.394
36736W        W 1721  21.438  18.437   0.730
36737W        W 1722  38.912  21.232  14.493
36738W        W 1723  12.744   0.068   4.270
36739W        W 1724  23.628   6.436   3.776
36740W        W 1725  20.624  14.921  14.779
36741W        W 1726  28.387  23.599   4.577
36742W        W 1727  10.308   3.365  14.413
36743W        W 1728   9.735  16.219  11.157
36744W        W 1729  27.569  20.389  12.398
36745W        W 1730  35.717  11.242   1.908
36746W        W 1731  14.642  18.828   0.286
36747W        W 1732  29.396  27.483   1.712
36748W        W 1733  32.182  29.552   1.321
36749W        W 1734  34.949  34.530   4.233
36750W        W 1735  22.551  26.168   5.077
36751W        W 1736  39.674   1.418  11.117
36752W        W 1737  20.320  32.727  12.387
36753W        W 1738  27.922  41.958   0.450
36754W        W 1739   2.994  14.062  14.815
36755W        W 1740   1.081  19.751   0.847
36756W        W 1741  11.405   0.930   2.682
36757W        W 1742  28.212  24.060   4.326
36758W        W 1743  26.444  43.296   0.469
36759W        W 1744   7.885  20.817  12.444
36760W        W 1745  18.063  25.008  12.123
36761W        W 1746   7.336  18.156   3.360
36762W        W 1747  22.013   8.273  13.908
36763W        W 1748  26.584  13.884   4.238
36764W        W 1749  21.954   8.752  11.379
36765W        W 1750   9.201  14.826  11.525
36766W        W 1751  42.905  30.204   3.639
36767W        W 1752   6.721  42.729   4.605
36768W        W 1753  42.035  29.095  12.163
36769W        W 1754  14.796  44.001   0.512
36770W        W 1755   6.413  44.194  13.240
36771W        W 1756  40.807   0.505   3.637
36772W        W 1757  40.097  33.059  14.998
36773W        W 1758   1.050  27.983   2.194
36774W        W 1759   4.381  23.294  14.101
36775W        W 1760  14.147   7.326  14.048
36776W        W 1761  20.167  32.566   2.875
36777W        W 1762  15.489  41.438  14.016
36778W        W 1763   5.796  38.479  12.541
36779W        W 1764  29.007  15.209   1.497
36780W        W 1765  30.030   0.432   2.307
36781W        W 1766  17.138   9.434   2.810
36782W        W 1767  32.962   7.888  13.974
36783W        W 1768   0.682   7.930   1.854
36784W        W 1769  19.504  25.739   2.458
36785W        W 1770  39.348  20.574  12.343
36786W        W 1771  10.501  39.681  14.364
36787W        W 1772  26.136   0.599  12.908
36788W        W 1773  19.371  19.790   1.404
36789W        W 1774  29.372   4.034  12.653
36790W        W 1775  24.484  35.297  11.406
36791W        W 1776  20.726  10.349   2.000
36792W        W 1777  40.857  31.552  11.980
36793W        W 1778   9.090  10.471   4.258
36794W        W 1779   8.455  34.173  13.507
36795W        W 1780  39.912  34.082  12.405
36796W        W 1781  40.167  22.609   3.765
36797W        W 1782  39.584  26.156   1.919
36798W        W 1783  42.276  44.738   3.336
36799W        W 1784  27.162  29.661   1.196
36800W        W 1785  25.584  35.322  12.296
36801W        W 1786   5.190  10.396  10.668
36802W        W 1787  15.709  33.211   3.369
36803W        W 1788  35.472  27.376   3.544
36804W        W 1789  19.232  40.921  13.984
36805W        W 1790   8.258  42.251  10.740
36806W        W 1791  12.320  41.839  11.109
36807W        W 1792  22.105  23.237   1.824
36808W        W 1793  19.021   5.600  12.586
36809W        W 1794   5.267  16.168  11.423
36810W        W 1795  29.887  21.925  10.700
36811W        W 1796  32.701   1.052  14.383
36812W        W 1797  32.473   6.758   0.595
36813W        W 1798  33.472  43.598  11.179
36814W        W 1799  15.111   1.738   3.207
36815W        W 1800   7.820  42.277  10.473
36816W        W 1801  31.265  23.076   4.827
36817W        W 1802   9.981  43.735  13.436
36818W        W 1803  44.377  17.474   0.682
36819W        W 1804  22.044  32.152   4.220
36820W        W 1805  15.754  17.035   1.355
36821W        W 1806  31.326   8.609  14.496
36822W        W 1807  32.886  19.693   0.268
36823W        W 1808   6.643   4.910   0.426
36824W        W 1809  39.897  25.683  14.946
36825W        W 1810   8.434  21.459  10.701
36826W        W 1811  32.040  13.139  13.616
36827W        W 1812  24.265   6.984   1.839
36828W        W 1813  20.857  39.392   3.822
36829W        W 1814   9.488  23.991  11.109
36830W        W 1815  24.138   2.232   1.480
36831W        W 1816  32.307   5.038   2.834
36832W        W 1817  40.992   6.946  11.069
36833W        W 1818  14.755  17.993   0.454
36834W        W 1819  12.774  31.630   2.243
36835W        W 1820   9.026  21.339  12.565
36836W        W 1821   7.846  12.185   0.868
36837W        W 1822  18.967  41.473   2.991
36838W        W 1823   4.282  35.628  14.040
36839W        W 1824  44.597  34.611   3.218
36840W        W 1825  21.531  40.998  12.473
36841W        W 1826  18.873  39.297   0.256
36842W        W 1827   0.506  37.342  11.915
36843W        W 1828  18.599  18.644  12.018
36844W        W 1829  43.076   8.755  11.216
36845W        W 1830  35.458  24.964   4.052
36846W        W 1831   3.878   6.854  10.550
36847W        W 1832  17.250  44.298   1.206
36848W        W 1833   5.976  14.941   1.782
36849W        W 1834  41.254  12.424  14.393
36850W        W 1835  26.678  10.272   4.545
36851W        W 1836  32.779  10.033   3.610
36852W        W 1837  29.522  21.256  14.858
36853W        W 1838  19.043  34.732  12.433
36854W        W 1839  12.287   9.320  13.610
36855W        W 1840  40.915  21.254   4.082
36856W        W 1841  12.369  23.779   4.086
36857W        W 1842  24.471  43.089   2.188
36858W        W 1843  20.132   3.889  14.731
36859W        W 1844  11.723  31.024   1.464
36860W        W 1845  22.701  41.806   4.927
36861W        W 1846   9.235  23.187   1.793
36862W        W 1847  17.742  10.375  10.085
36863W        W 1848  14.880  16.116  12.436
36864W        W 1849  30.161  32.332  13.932
36865W        W 1850   8.030  12.610  13.918
36866W        W 1851  23.656  16.614  12.388
36867W        W 1852   2.726  17.563  12.896
36868W        W 1853  14.626  17.153  14.976
36869W        W 1854  17.130  21.625  14.746
36870W        W 1855  39.124  18.044  13.499
36871W        W 1856  31.098  42.748  12.628
36872W        W 1857   6.231  16.839   2.079
36873W        W 1858  19.627  10.906  12.947
36874W        W 1859  39.829  38.840   3.410
36875W        W 1860   0.702  26.685  12.747
36876W        W 1861  16.390   8.475  11.594
36877W        W 1862  38.656  42.688  11.621
36878W        W 1863  20.118  30.101   0.037
36879W        W 1864  18.950  30.154  10.680
36880W        W 1865  14.111  36.911  13.027
36881W        W 1866  24.526  25.476  13.223
36882W        W 1867  29.661  21.915   2.764
36883W        W 1868  37.553  15.720   1.714
36884W        W 1869  22.463  32.441  11.884
36885W        W 1870   6.281  16.408  12.199
36886W        W 1871  29.814   0.768  13.002
36887W        W 1872  15.724  38.538  10.120
36888W        W 1873   4.253  33.881  10.675
36889W        W 1874  44.952   1.730   2.497
36890W        W 1875  26.138  33.584   5.418
36891W        W 1876  24.307   9.433  12.523
36892W        W 1877   3.433  18.146   1.689
36893W        W 1878  17.558  23.483   3.896
36894W        W 1879  11.309  31.559  10.253
36895W        W 1880  39.612  23.240  12.988
36896W        W 1881  32.892   3.315   1.821
36897W        W 1882   7.472  25.642   1.695
36898W        W 1883   8.656  40.804   0.507
36899W        W 1884  40.223  15.964   3.973
36900W        W 1885  15.226   5.125  13.870
36901W        W 1886  34.724   0.243   1.066
36902W        W 1887  40.446  26.214   0.485
36903W        W 1888  38.914  32.143   0.008
36904W        W 1889  12.113  32.167  11.711
36905W        W 1890  34.337   2.397   3.255
36906W        W 1891  18.571  42.448   2.933
36907W        W 1892  16.697   9.724   0.845
36908W        W 1893  12.825  21.679  13.487
36909W        W 1894  42.764  39.016  13.307
36910W        W 1895  31.342  43.816  13.819
36911W        W 1896   7.620   2.524   2.495
36912W        W 1897  16.345  21.229  11.989
36913W        W 1898   2.881  24.474  11.877
36914W        W 1899  16.513  32.497   3.707
36915W        W 1900  39.556   2.967  13.075
36916W        W 1901  37.425  29.160  11.398
36917W        W 1902  39.795  24.044   2.189
36918W        W 1903  37.373  30.983   2.609
36919W        W 1904  44.568  22.858  10.076
36920W        W 1905  12.275  43.767  14.435
36921W        W 1906  34.090   5.244  11.629
36922W        W 1907  26.027  10.178  10.655
36923W        W 1908  18.424  32.235   0.717
36924W        W 1909   6.990  41.575   4.152
36925W        W 1910  27.809  36.796  11.115
36926W        W 1911  43.392   2.299  12.589
36927W        W 1912   9.278   4.737   4.158
36928W        W 1913  20.231   6.613  13.799
36929W        W 1914  17.052   2.265   4.109
36930W        W 1915  34.035  32.831   4.664
36931W        W 1916  37.351   8.764   1.910
36932W        W 1917  24.500  41.342   1.751
36933W        W 1918  42.722   6.389  11.333
36934W        W 1919  12.756  27.414   4.299
36935W        W 1920  10.190  32.011  11.394
36936W        W 1921  33.402  37.884  14.287
36937W        W 1922  13.959  22.057  13.666
36938W        W 1923  12.545  21.045   0.336
36939W        W 1924  29.066  15.012  11.403
36940W        W 1925  20.763  37.517  14.282
36941W        W 1926  26.029  25.616   2.970
36942W        W 1927  12.104  44.065   1.862
36943W        W 1928  21.821  21.019   0.903
36944W        W 1929  44.786   4.851   4.334
36945W        W 1930  19.110  39.916  10.533
36946W        W 1931  34.412  11.841  10.696
36947W        W 1932  17.066  22.018   1.419
36948W        W 1933  19.097  33.742   4.675
36949W        W 1934  23.089  29.586  14.866
36950W        W 1935  13.817   0.508   4.185
36951W        W 1936   0.036  10.476  11.220
36952W        W 1937   8.034  16.213  10.896
36953W        W 1938  34.037   8.084  10.706
36954W        W 1939  16.718  42.035   4.081
36955W        W 1940  41.038  15.242  11.164
36956W        W 1941  13.615   4.725  14.319
36957W        W 1942   0.418  19.811   2.937
36958W        W 1943   2.423  39.337   4.126
36959W        W 1944   4.439  13.267  13.653
36960W        W 1945  33.422   0.823   0.998
36961W        W 1946   1.000  36.134   0.047
36962W        W 1947  19.150  17.613  14.592
36963W        W 1948  16.073  14.386   1.460
36964W        W 1949   8.349  28.746   1.423
36965W        W 1950  14.026  35.329   3.864
36966W        W 1951  10.505  39.873   9.971
36967W        W 1952  34.344   0.466  11.513
36968W        W 1953  35.872  34.211  14.757
36969W        W 1954  32.601  13.825   1.398
36970W        W 1955  34.108  12.441   2.849
36971W        W 1956  30.037  15.280  14.307
36972W        W 1957  42.041  29.594   5.022
36973W        W 1958   4.002  43.085   0.424
36974W        W 1959  21.417  15.771   3.401
36975W        W 1960  44.432  24.884   5.668
36976W        W 1961   8.242  44.380   3.073
36977W        W 1962  32.005  43.062   3.778
36978W        W 1963  15.540   0.604  11.540
36979W        W 1964   4.602  39.968  14.258
36980W        W 1965  31.918  40.983   0.875
36981W        W 1966  41.610  41.958   1.376
36982W        W 1967  30.033  10.155  12.554
36983W        W 1968  17.360  14.870   3.697
36984W        W 1969  17.015   5.995   2.735
36985W        W 1970  37.847  37.960   0.294
36986W        W 1971  17.758  35.293   4.141
36987W        W 1972  20.708  29.166  10.665
36988W        W 1973  22.113  33.461   1.416
36989W        W 1974  14.269  10.434  10.773
36990W        W 1975  30.517   1.514   4.208
36991W        W 1976  21.302  30.879  12.980
36992W        W 1977  32.665  17.754  10.718
36993W        W 1978  15.468   9.410  12.440
36994W        W 1979  32.360  36.392   2.753
36995W        W 1980  12.620  39.937   0.488
36996W        W 1981  10.564   6.715   3.674
36997W        W 1982   9.908  35.786  11.242
36998W        W 1983  27.482  37.406   1.380
36999W        W 1984  35.809   8.888   2.357
37000W        W 1985  21.144  41.836   0.221
37001W        W 1986   9.320   5.160   3.828
37002W        W 1987  12.532  38.492   0.085
37003W        W 1988  23.760  39.852  13.780
37004W        W 1989  40.931  28.311   1.899
37005W        W 1990   0.258  44.278   1.319
37006W        W 1991  37.590  15.131  13.060
37007W        W 1992  34.447   3.400   3.607
37008W        W 1993   6.934  40.265   1.714
37009W        W 1994  42.403   5.064  13.770
37010W        W 1995  32.989  24.922  12.430
37011W        W 1996  16.739   5.762  14.878
37012W        W 1997  41.896  24.021   1.599
37013W        W 1998   8.060  24.433   2.919
37014W        W 1999   8.156  37.479  14.059
37015W        W 2000  21.451   9.706   4.097
37016W        W 2001   2.434  37.672   2.540
37017W        W 2002  30.061  28.924   0.571
37018W        W 2003  36.459  35.783  14.302
37019W        W 2004  20.275  17.753  12.463
37020W        W 2005  42.430  13.844  10.176
37021W        W 2006   0.824   5.350   1.350
37022W        W 2007  44.474  40.961   2.042
37023W        W 2008  29.316  20.226  13.852
37024W        W 2009  14.758   9.369   5.034
37025W        W 2010  33.107  35.172   3.224
37026W        W 2011  37.061  20.077  11.639
37027W        W 2012  37.799  29.523   3.612
37028W        W 2013  37.412   0.977  11.549
37029W        W 2014  26.026  20.317  14.511
37030W        W 2015   6.903  14.794  11.165
37031W        W 2016  22.551  27.556   3.224
37032W        W 2017  17.414  10.785  14.414
37033W        W 2018  38.539  40.925   3.523
37034W        W 2019  29.125  35.021  12.864
37035W        W 2020   9.149  44.990   2.273
37036W        W 2021   6.891  26.966   0.818
37037W        W 2022  32.498   9.466   1.157
37038W        W 2023   6.273   9.592   0.755
37039W        W 2024  36.097  34.466   1.385
37040W        W 2025  34.309  17.392  10.993
37041W        W 2026  24.010  27.115   1.670
37042W        W 2027  18.352  16.062  12.610
37043W        W 2028  27.672   8.822  14.261
37044W        W 2029  41.557   2.537   0.714
37045W        W 2030  12.810  40.573  13.345
37046W        W 2031  44.854   8.650  10.718
37047W        W 2032  40.952  16.750  12.044
37048W        W 2033  33.980  21.101   1.656
37049W        W 2034   3.282  35.803  13.010
37050W        W 2035  31.192  24.955   1.139
37051W        W 2036  30.634  28.558   2.391
37052W        W 2037   2.521  27.248  12.892
37053W        W 2038  43.825  36.119   9.974
37054W        W 2039  22.751  37.919  11.582
37055W        W 2040  24.205  26.632  11.671
37056W        W 2041  41.448   5.622   0.759
37057W        W 2042  31.538  27.318   1.817
37058W        W 2043  19.619  16.549   0.019
37059W        W 2044   8.287  19.317  12.986
37060W        W 2045   8.345   8.702   5.575
37061W        W 2046   7.664  18.244  11.629
37062W        W 2047  26.071  20.262   1.982
37063W        W 2048  18.687  37.082   2.725
37064W        W 2049  32.373   7.609   1.183
37065W        W 2050  15.566   3.333  10.416
37066W        W 2051   9.253   9.287  14.541
37067W        W 2052   4.017   5.884   0.591
37068W        W 2053  43.932  42.729  14.474
37069W        W 2054  14.874  15.589   4.104
37070W        W 2055   2.680   2.448  14.541
37071W        W 2056  37.032  16.409   1.589
37072W        W 2057  30.055  36.353  12.926
37073W        W 2058  22.098  15.356  14.316
37074W        W 2059  18.718  37.552  13.311
37075W        W 2060  14.704  22.670  14.760
37076W        W 2061  33.085  28.870  12.029
37077W        W 2062  26.538  35.776   1.697
37078W        W 2063  38.159   1.567   1.413
37079W        W 2064  13.654  11.690   4.476
37080W        W 2065   4.347  30.650  13.284
37081W        W 2066  10.829  23.431   2.207
37082W        W 2067  24.930  28.725   1.400
37083W        W 2068   5.960   6.461   0.813
37084W        W 2069  19.497  44.550  10.633
37085W        W 2070  11.071  35.899  13.618
37086W        W 2071  14.845   8.183  13.017
37087W        W 2072  30.591   7.873  10.736
37088W        W 2073  24.783  39.912  13.932
37089W        W 2074  33.871  25.101  13.995
37090W        W 2075  14.410  19.713   4.749
37091W        W 2076  39.872  12.621  11.592
37092W        W 2077   5.065  39.905  14.490
37093W        W 2078  38.465  34.570   3.931
37094W        W 2079  38.181  34.537   0.801
37095W        W 2080  10.126  28.529  14.945
37096W        W 2081  14.908   3.022  12.393
37097W        W 2082  32.701  15.330  11.784
37098W        W 2083  23.771   3.712  13.981
37099W        W 2084  41.016  41.438   0.248
37100W        W 2085  14.231  27.879   2.772
37101W        W 2086  42.047   3.249   0.622
37102W        W 2087  15.813  32.004  12.344
37103W        W 2088  23.990  43.832   4.861
37104W        W 2089  16.580   8.906   2.172
37105W        W 2090   6.682  27.225  13.404
37106W        W 2091   7.274  24.760   2.258
37107W        W 2092  43.616   3.490  12.039
37108W        W 2093  13.148   7.829   2.852
37109W        W 2094  44.349  32.552   3.670
37110W        W 2095  44.626   6.852  10.154
37111W        W 2096   1.021  24.196  14.104
37112W        W 2097  34.048   5.338   2.881
37113W        W 2098  30.900  19.525   0.265
37114W        W 2099  16.438  33.094  14.408
37115W        W 2100   5.855   6.211  13.060
37116W        W 2101  20.530  12.233  13.449
37117W        W 2102  18.498  17.512  13.817
37118W        W 2103  36.125  29.077  11.185
37119W        W 2104  27.722  42.866   2.777
37120W        W 2105  21.792   9.127   4.086
37121W        W 2106  34.869  41.614  12.469
37122W        W 2107   2.661  21.109  11.513
37123W        W 2108  22.018  23.100   0.858
37124W        W 2109   0.711  24.723  14.070
37125W        W 2110  12.383  34.147  13.517
37126W        W 2111  36.863  25.399   4.795
37127W        W 2112  30.584  26.620   0.811
37128W        W 2113  19.214  27.142  11.170
37129W        W 2114  17.580  11.615  12.783
37130W        W 2115  28.797  27.656  11.410
37131W        W 2116  33.422  35.899   4.113
37132W        W 2117  38.134  15.146   3.657
37133W        W 2118  38.940  40.508   4.062
37134W        W 2119  19.575  16.978   0.942
37135W        W 2120  32.983  17.631   3.161
37136W        W 2121  33.463  23.053  11.238
37137W        W 2122   4.004  33.906  14.558
37138W        W 2123  11.806  19.194  12.038
37139W        W 2124  29.337   6.906   2.342
37140W        W 2125  41.817  43.394   4.083
37141W        W 2126  32.678  28.993  12.983
37142W        W 2127   0.361   5.939   2.239
37143W        W 2128  32.505   9.334   3.135
37144W        W 2129   8.878  30.206   2.234
37145W        W 2130  26.226  18.203   1.909
37146W        W 2131  23.609  22.044  11.407
37147W        W 2132  34.635  26.193   1.861
37148W        W 2133   0.737  33.174   3.345
37149W        W 2134  43.270  33.866   1.482
37150W        W 2135  14.827   2.384   4.155
37151W        W 2136  37.330   9.086  13.025
37152W        W 2137  20.653   9.905  11.160
37153W        W 2138  19.716  39.095  13.159
37154W        W 2139  12.751  21.094   2.100
37155W        W 2140  40.953   6.716   2.959
37156W        W 2141  36.885   4.293  10.713
37157W        W 2142  20.770   1.851   0.386
37158W        W 2143   1.537  22.658  11.016
37159W        W 2144   2.347  19.968  13.046
37160W        W 2145  21.681  27.578   3.015
37161W        W 2146  15.063  20.187  14.687
37162W        W 2147  11.247  25.051  14.381
37163W        W 2148   3.748  36.731   1.816
37164W        W 2149  36.083  11.801   3.703
37165W        W 2150  16.869  19.044  14.844
37166W        W 2151  42.528  26.734   0.756
37167W        W 2152  21.777  35.389  10.336
37168W        W 2153   0.327  14.189   1.915
37169W        W 2154  14.369   9.663  12.963
37170W        W 2155   9.682   5.194  11.674
37171W        W 2156  35.139   7.173   4.159
37172W        W 2157   8.882  15.239   0.254
37173W        W 2158  13.375  10.211   0.295
37174W        W 2159  14.367  41.450   3.943
37175W        W 2160  11.091  33.136   3.694
37176W        W 2161   9.817  20.457  14.539
37177W        W 2162  42.998  30.778   1.977
37178W        W 2163  31.326   9.252   4.966
37179W        W 2164  39.321  32.051   4.118
37180W        W 2165  32.513   2.775   4.622
37181W        W 2166  22.941  28.601   0.278
37182W        W 2167   9.649  11.695  13.368
37183W        W 2168  41.135  32.286  11.756
37184W        W 2169   5.762  19.248  12.967
37185W        W 2170  28.001  29.931   1.927
37186W        W 2171  28.925   7.750   1.888
37187W        W 2172  11.202  16.661   0.223
37188W        W 2173  40.391  17.901  11.667
37189W        W 2174  33.709  26.491   0.877
37190W        W 2175  30.606  42.847  13.802
37191W        W 2176   8.136  16.819   1.117
37192W        W 2177  36.053  17.269   1.310
37193W        W 2178  43.149  16.247  11.483
37194W        W 2179   9.153   0.556   9.954
37195W        W 2180  24.027   5.693   1.214
37196W        W 2181  35.793  43.179  11.674
37197W        W 2182  19.336   3.834   2.853
37198W        W 2183  17.336  19.052  12.551
37199W        W 2184  29.936  31.465  14.739
37200W        W 2185  30.471   2.961  12.831
37201W        W 2186  22.486  35.438   1.287
37202W        W 2187   4.293  22.524  13.590
37203W        W 2188  12.507  19.130   4.617
37204W        W 2189  16.601  31.607   2.645
37205W        W 2190  33.545  22.996  11.767
37206W        W 2191  43.800  19.671  13.322
37207W        W 2192   6.443  23.690  11.619
37208W        W 2193  14.178   9.405   1.615
37209W        W 2194  14.872  38.802   3.430
37210W        W 2195  42.387  27.859  11.614
37211W        W 2196  25.536  30.888   0.964
37212W        W 2197  18.555  17.092  10.712
37213W        W 2198  10.568  18.606  14.981
37214W        W 2199   7.408   9.739  10.998
37215W        W 2200  24.119  29.939   3.277
37216W        W 2201  29.024  43.472  10.573
37217W        W 2202  13.006  32.395   4.448
37218W        W 2203  44.921  23.538  14.272
37219W        W 2204  31.451  11.187   1.941
37220W        W 2205  19.246  42.414  13.798
37221W        W 2206  39.969  27.475  13.851
37222W        W 2207   5.293  30.168  14.572
37223W        W 2208  21.616  41.806  14.953
37224W        W 2209  40.645  42.050  14.783
37225W        W 2210  21.726   6.965   3.401
37226W        W 2211  11.548   2.913   0.702
37227W        W 2212  26.380  41.309  13.587
37228W        W 2213  18.553  11.237   3.729
37229W        W 2214  24.986  42.292   2.412
37230W        W 2215   8.716   3.228   3.841
37231W        W 2216   9.158  21.428  11.428
37232W        W 2217  26.448  17.715  13.878
37233W        W 2218   5.774  43.087  14.492
37234W        W 2219   6.384   4.711  13.667
37235W        W 2220  15.693  38.010  11.569
37236W        W 2221  34.195  34.620  11.196
37237W        W 2222  42.524  12.472  12.155
37238W        W 2223  27.309  21.255  10.737
37239W        W 2224  27.365   1.455  11.994
37240W        W 2225  43.074  26.635   4.114
37241W        W 2226  40.180  11.430  10.454
37242W        W 2227   7.848  13.785  10.718
37243W        W 2228  42.594   3.271  12.069
37244W        W 2229  34.121  36.482   3.598
37245W        W 2230   8.314  43.330  14.154
37246W        W 2231  12.713  25.035   3.548
37247W        W 2232   8.131   0.158  11.140
37248W        W 2233  38.877   5.932   1.027
37249W        W 2234   5.802  42.319  14.333
37250W        W 2235  34.653   5.455  14.301
37251W        W 2236   3.639  14.253   9.929
37252W        W 2237   3.449  41.444  11.924
37253W        W 2238   2.464  35.545   0.809
37254W        W 2239  16.227  11.874   3.169
37255W        W 2240  24.542   1.012  11.514
37256W        W 2241  25.693  10.377   2.602
37257W        W 2242  18.198  29.986  14.911
37258W        W 2243   5.532  25.144   3.440
37259W        W 2244  28.618  24.702   0.727
37260W        W 2245  38.338  36.059  11.214
37261W        W 2246  24.322   4.443  10.489
37262W        W 2247  16.583  28.537   0.903
37263W        W 2248  35.269  31.448  12.997
37264W        W 2249  21.018  34.255  12.337
37265W        W 2250  13.688  26.427   1.124
37266W        W 2251   7.267   0.702   0.883
37267W        W 2252  24.564  21.299  12.504
37268W        W 2253  25.143  27.937  10.725
37269W        W 2254  34.202   8.669   3.254
37270W        W 2255  41.012  44.339  11.638
37271W        W 2256  29.054  31.559  12.172
37272W        W 2257  36.826  27.628  11.078
37273W        W 2258   3.535  15.680  11.392
37274W        W 2259  30.425  43.788  10.637
37275W        W 2260  33.675  40.888  14.796
37276W        W 2261  23.252   8.106  11.606
37277W        W 2262  37.044  19.250  11.604
37278W        W 2263   1.250  42.943   2.308
37279W        W 2264  20.519  26.744  12.315
37280W        W 2265  22.390  35.977   3.112
37281W        W 2266  22.982  28.723  13.762
37282W        W 2267  25.968  34.397  13.996
37283W        W 2268  18.993  28.903   1.890
37284W        W 2269  36.491   8.820  14.946
37285W        W 2270  27.302  23.352   1.413
37286W        W 2271   7.650  17.763   0.391
37287W        W 2272  12.250  22.955   4.642
37288W        W 2273   5.754  34.491   1.457
37289W        W 2274   7.229   7.791   0.531
37290W        W 2275  21.698  19.710   3.366
37291W        W 2276  15.299  22.207  13.429
37292W        W 2277  30.525  39.801   4.201
37293W        W 2278  10.112  10.693   4.074
37294W        W 2279  29.637   4.704   4.527
37295W        W 2280  18.585  26.375   0.797
37296W        W 2281  37.001  40.986   4.627
37297W        W 2282  42.525   5.693  14.491
37298W        W 2283   6.151  13.146  13.913
37299W        W 2284  25.654  29.500  11.546
37300W        W 2285  36.471  38.369   3.884
37301W        W 2286  42.463  38.303  12.964
37302W        W 2287  34.619   2.913   1.995
37303W        W 2288  15.488   1.508  13.909
37304W        W 2289  37.689  40.803  12.537
37305W        W 2290  43.951  22.034  12.541
37306W        W 2291  17.667   3.960   1.313
37307W        W 2292  17.701  44.608  14.054
37308W        W 2293  21.431  22.838   2.738
37309W        W 2294  10.532  34.024  10.999
37310W        W 2295  20.056   4.903  12.896
37311W        W 2296  30.416   9.396  14.772
37312W        W 2297  20.617  35.326  13.428
37313W        W 2298  36.882  39.470  11.245
37314W        W 2299  43.994  21.280   1.858
37315W        W 2300  32.446   7.799  14.340
37316W        W 2301  29.443  11.309  11.183
37317W        W 2302  39.237  44.393   2.450
37318W        W 2303  31.559  21.307  11.482
37319W        W 2304  13.842  38.729   3.257
37320W        W 2305  10.161  34.414   4.546
37321W        W 2306  17.731  43.256   4.381
37322W        W 2307  42.482   4.561   2.403
37323W        W 2308  33.535  29.523  12.380
37324W        W 2309  22.863  13.817  13.010
37325W        W 2310  21.059  41.324   3.620
37326W        W 2311  15.091  17.334  14.868
37327W        W 2312  22.104  32.853   0.857
37328W        W 2313  29.364  18.680  13.586
37329W        W 2314  20.185  32.457   4.281
37330W        W 2315  32.561  23.295  14.177
37331W        W 2316  10.036   6.840   2.240
37332W        W 2317   7.157  20.719  13.553
37333W        W 2318   2.554  13.789  14.489
37334W        W 2319   2.253  19.787   4.295
37335W        W 2320  40.778   8.800  13.204
37336W        W 2321  23.945  35.113  13.423
37337W        W 2322   5.388  31.310  13.121
37338W        W 2323  28.540   8.791  12.163
37339W        W 2324   4.923  29.644   4.176
37340W        W 2325  34.384  15.819  14.870
37341W        W 2326  26.213  37.957  14.031
37342W        W 2327   6.825  26.892  14.388
37343W        W 2328   6.855   5.386  13.477
37344W        W 2329  12.395  21.662  12.552
37345W        W 2330  19.523  39.437   4.088
37346W        W 2331  24.242  32.894  10.882
37347W        W 2332  30.542  13.240   1.291
37348W        W 2333   9.602  44.503   0.746
37349W        W 2334  17.596  26.852   0.256
37350W        W 2335  12.171  21.628  13.585
37351W        W 2336  13.802  19.738   1.435
37352W        W 2337  24.600  42.746   3.054
37353W        W 2338  19.091  17.647  10.628
37354W        W 2339  36.892   9.876  11.013
37355W        W 2340  20.600  28.925   0.845
37356W        W 2341  21.164  29.736  13.721
37357W        W 2342  13.633  25.541  12.695
37358W        W 2343  10.758   2.935  11.064
37359W        W 2344  14.214  16.277   0.737
37360W        W 2345  31.671  13.871   2.409
37361W        W 2346  38.511   6.747  14.064
37362W        W 2347  30.544  36.528   2.336
37363W        W 2348   0.964  17.210   1.392
37364W        W 2349   0.259  22.871  11.501
37365W        W 2350  13.463  10.715   2.330
37366W        W 2351  41.890  10.685  12.661
37367W        W 2352   8.648  35.921  11.623
37368W        W 2353  13.301  38.743   3.243
37369W        W 2354  17.005  10.528   0.734
37370W        W 2355  30.210   0.261  12.120
37371W        W 2356   9.845  32.662  14.081
37372W        W 2357  33.116  15.566  12.526
37373W        W 2358  11.755  16.252  12.927
37374W        W 2359  35.609   1.228  11.016
37375W        W 2360   9.421  13.078  10.937
37376W        W 2361  15.242  20.664   3.572
37377W        W 2362  19.316  41.909  13.872
37378W        W 2363  22.670  21.875  13.049
37379W        W 2364  37.978  34.991   0.939
37380W        W 2365  21.181  12.080   2.856
37381W        W 2366  42.292   5.402  14.137
37382W        W 2367  23.422   5.205   0.537
37383W        W 2368  18.996  38.005   0.787
37384W        W 2369  18.759   2.412  12.062
37385W        W 2370  39.428   3.756   1.854
37386W        W 2371  37.839   8.894   0.465
37387W        W 2372  10.436  42.580   3.356
37388W        W 2373  43.527  30.724   4.133
37389W        W 2374  19.567  35.387   2.272
37390W        W 2375  13.235  24.683   0.279
37391W        W 2376  30.417  19.091  10.443
37392W        W 2377  35.980   9.650  12.949
37393W        W 2378  24.377  31.629  11.413
37394W        W 2379  32.927  25.726  13.522
37395W        W 2380  36.299   5.066  11.992
37396W        W 2381  22.054  22.004  13.851
37397W        W 2382  37.026  15.256  10.722
37398W        W 2383  16.710   5.134   2.697
37399W        W 2384  17.528  40.050  13.508
37400W        W 2385  31.882  38.909  14.822
37401W        W 2386  33.191  35.391   1.516
37402W        W 2387  37.421  20.735   4.195
37403W        W 2388  17.650   3.256   3.441
37404W        W 2389   9.847   5.409  13.039
37405W        W 2390  11.404  31.820  14.860
37406W        W 2391  42.088  44.472   1.153
37407W        W 2392  19.241  34.604  12.900
37408W        W 2393  33.008   8.770   0.909
37409W        W 2394   2.340   9.202  11.171
37410W        W 2395   4.517  26.919  14.465
37411W        W 2396  33.268  44.297   4.903
37412W        W 2397  22.845  11.557   1.123
37413W        W 2398   3.221   3.314   2.445
37414W        W 2399  18.544  19.169   1.153
37415W        W 2400   8.068  23.826  13.520
37416W        W 2401  35.865  13.544   1.086
37417W        W 2402  12.537  29.457  14.888
37418W        W 2403  13.307  14.194   1.113
37419W        W 2404  15.758  31.257  10.325
37420W        W 2405   9.374  44.300  14.775
37421W        W 2406  31.987   2.027   1.416
37422W        W 2407  13.780  24.442   0.201
37423W        W 2408  38.883  39.029   4.530
37424W        W 2409   0.317  18.207   1.261
37425W        W 2410  15.189   0.700  12.781
37426W        W 2411  28.578   7.361   2.910
37427W        W 2412  21.528  18.048  11.646
37428W        W 2413  22.454  28.072   3.198
37429W        W 2414  12.431  18.166   4.032
37430W        W 2415  18.125  32.948   3.254
37431W        W 2416  13.197   7.133  14.384
37432W        W 2417  38.605  15.657  11.425
37433W        W 2418  18.300  41.021  13.950
37434W        W 2419  26.232  21.654  13.282
37435W        W 2420  35.450  18.833   4.885
37436W        W 2421   6.787  33.962   2.715
37437W        W 2422   5.930  16.153   3.169
37438W        W 2423  17.365  18.247   4.179
37439W        W 2424  30.369  30.699  11.163
37440W        W 2425  35.720  36.465  11.514
37441W        W 2426  40.539  43.558   4.722
37442W        W 2427  34.154   7.685  14.359
37443W        W 2428  28.070  22.511  11.598
37444W        W 2429  15.113  32.917  14.796
37445W        W 2430  43.755  25.571   3.732
37446W        W 2431  14.598   9.412   1.911
37447W        W 2432  40.707  14.039  12.055
37448W        W 2433  12.377  26.345   2.890
37449W        W 2434  36.558  43.577  10.971
37450W        W 2435  12.366  28.362   2.071
37451W        W 2436  32.530  21.209   2.410
37452W        W 2437  17.515  25.102   2.026
37453W        W 2438  23.029  20.614   1.813
37454W        W 2439  20.256  21.716  12.854
37455W        W 2440  35.595  40.753  11.738
37456W        W 2441  13.347   4.346   4.843
37457W        W 2442  23.619  36.813  14.468
37458W        W 2443  20.303  43.055  14.494
37459W        W 2444  16.689   9.977  11.871
37460W        W 2445  12.278  29.342   4.627
37461W        W 2446   7.186   3.716   2.203
37462W        W 2447  41.476  12.697   1.260
37463W        W 2448  18.205  44.242  12.880
37464W        W 2449  27.033  24.239  13.923
37465W        W 2450  42.452  19.985   1.324
37466W        W 2451  11.124   8.638   3.356
37467W        W 2452  42.554  15.317   0.219
37468W        W 2453  41.985  40.594   3.654
37469W        W 2454  30.863  21.239  12.606
37470W        W 2455  41.659  33.581   3.726
37471W        W 2456   2.184  11.773   2.388
37472W        W 2457  25.239  33.675  13.919
37473W        W 2458   5.259  35.861  11.473
37474W        W 2459  32.953   0.863  13.982
37475W        W 2460  38.754  32.921   1.265
37476W        W 2461   7.789  37.212   3.683
37477W        W 2462  23.018  30.684   3.846
37478W        W 2463  13.845  12.740   4.893
37479W        W 2464  22.620  15.843   4.407
37480W        W 2465   7.645  37.427   0.894
37481W        W 2466  44.779  40.342   1.430
37482W        W 2467   0.187  39.046  11.968
37483W        W 2468  43.496  24.246   2.467
37484W        W 2469  44.941   8.632  12.914
37485W        W 2470   2.533  30.442  11.447
37486W        W 2471  39.569   1.214  11.581
37487W        W 2472   2.256  18.761  14.382
37488W        W 2473  23.548  36.506   2.224
37489W        W 2474  25.195  11.895   1.430
37490W        W 2475   7.817   2.791   4.641
37491W        W 2476   6.190  21.807   0.450
37492W        W 2477   4.554  33.353  12.075
37493W        W 2478  32.034  22.507   0.442
37494W        W 2479  19.569  18.335  14.210
37495W        W 2480  10.457   7.284   4.528
37496W        W 2481  30.119  31.325   3.536
37497W        W 2482  20.185   8.267  14.464
37498W        W 2483  31.957  43.489   0.917
37499W        W 2484  11.648  16.185  11.104
37500W        W 2485  31.070  30.694   4.225
37501W        W 2486   5.790   6.924  14.472
37502W        W 2487   4.259   1.757   1.949
37503W        W 2488   2.827  38.852  10.725
37504W        W 2489   6.179  21.067  11.529
37505W        W 2490  16.694  38.183  12.122
37506W        W 2491  21.486   4.644   3.118
37507W        W 2492  17.174  12.775   0.959
37508W        W 2493  27.164  25.158  14.865
37509W        W 2494  34.788  23.616   2.707
37510W        W 2495  14.142  13.013   2.559
37511W        W 2496  31.837  12.599  13.511
37512W        W 2497   0.869  14.710   1.480
37513W        W 2498  28.302  35.690  12.855
37514W        W 2499  11.808  18.472   3.783
37515W        W 2500  14.325  22.118   4.433
37516W        W 2501  20.101   1.332   4.702
37517W        W 2502   2.031   7.183  14.138
37518W        W 2503   6.223   7.997   0.463
37519W        W 2504  27.985  24.264  13.407
37520W        W 2505  15.673  34.192   3.323
37521W        W 2506  44.480  14.674  14.205
37522W        W 2507  23.948   7.805   4.112
37523W        W 2508   9.165  41.002   3.236
37524W        W 2509  26.238  36.364   1.894
37525W        W 2510  41.492  39.763   3.706
37526W        W 2511  14.311   4.180  14.861
37527W        W 2512  19.206  41.083  10.630
37528W        W 2513   3.942  19.180  14.860
37529W        W 2514  44.226  40.437   4.495
37530W        W 2515  13.154  24.021  11.678
37531W        W 2516  26.921   6.707   4.526
37532W        W 2517  17.676   2.336   1.884
37533W        W 2518  36.519   5.828   0.173
37534W        W 2519  15.168  18.275   0.360
37535W        W 2520  35.449   4.768  13.194
37536W        W 2521  22.573  42.620  14.506
37537W        W 2522  31.874  35.169  12.583
37538W        W 2523  22.765  37.622  14.370
37539W        W 2524   3.986  28.895  10.692
37540W        W 2525  11.310  26.281   4.637
37541W        W 2526  33.945   2.221   1.334
37542W        W 2527  36.359  13.923   2.882
37543W        W 2528   5.486  41.330  14.207
37544W        W 2529  39.313  29.695   1.361
37545W        W 2530  11.236  42.066  11.689
37546W        W 2531  19.704  19.432  12.101
37547W        W 2532  11.376   3.357  13.165
37548W        W 2533  10.733  19.470  13.910
37549W        W 2534  10.783  31.571  10.923
37550W        W 2535  23.152   9.083   3.115
37551W        W 2536  36.574   4.855  12.386
37552W        W 2537  26.599  31.635   1.807
37553W        W 2538   8.684   2.578   1.775
37554W        W 2539  26.872  15.163   1.935
37555W        W 2540  11.589  15.794  12.741
37556W        W 2541  15.280  32.701  10.683
37557W        W 2542  20.353   8.181   4.623
37558W        W 2543  27.903  24.995   3.729
37559W        W 2544  41.655  15.658   5.015
37560W        W 2545  33.839  20.997   0.721
37561W        W 2546  16.048  31.955   1.798
37562W        W 2547  37.528  10.143   1.315
37563W        W 2548  39.345  25.774   0.947
37564W        W 2549   7.731  11.590   4.496
37565W        W 2550   2.141  41.526   1.831
37566W        W 2551  24.771  29.893   2.667
37567W        W 2552  33.632  27.040   2.889
37568W        W 2553  19.700   6.184   1.884
37569W        W 2554   5.749  38.086   0.249
37570W        W 2555  23.017  15.135  12.421
37571W        W 2556  23.956  29.869  11.224
37572W        W 2557  31.982  22.077   0.051
37573W        W 2558   4.223  24.960  13.443
37574W        W 2559   0.111  40.061   3.558
37575W        W 2560  26.054  42.377   1.891
37576W        W 2561  16.341   1.378  12.503
37577W        W 2562   4.140  29.497  12.033
37578W        W 2563   9.425   5.282  13.969
37579W        W 2564  41.331  29.922   3.695
37580W        W 2565  13.408  30.873  12.492
37581W        W 2566  24.609  42.609   2.082
37582W        W 2567   1.914  28.178  14.488
37583W        W 2568  21.068  40.719  12.008
37584W        W 2569  19.296   1.490  10.694
37585W        W 2570   7.575  17.987  13.850
37586W        W 2571   7.159  21.245   1.644
37587W        W 2572  12.300  27.005   0.992
37588W        W 2573  12.723  23.451   2.729
37589W        W 2574  16.571  29.459  13.580
37590W        W 2575  15.613  30.959   4.257
37591W        W 2576  17.787  40.660  11.793
37592W        W 2577  17.952   8.926   2.776
37593W        W 2578   9.566  21.267  14.246
37594W        W 2579   8.210  37.958  14.250
37595W        W 2580   8.202  37.662   0.060
37596W        W 2581  28.093  28.668  14.332
37597W        W 2582  39.833  31.894   1.915
37598W        W 2583  34.997  16.645  12.412
37599W        W 2584  36.342   4.204   4.930
37600W        W 2585  24.017  36.361   2.048
37601W        W 2586  15.751   8.851   0.350
37602W        W 2587  19.525  38.516  14.979
37603W        W 2588   5.340  20.857  10.710
37604W        W 2589   8.970  14.845  14.008
37605W        W 2590  10.662  35.519  13.518
37606W        W 2591   7.228  25.034   4.533
37607W        W 2592  20.731  39.519  13.699
37608W        W 2593  34.088  12.846   0.250
37609W        W 2594  33.089  28.289   1.251
37610W        W 2595  44.801   9.346   0.087
37611W        W 2596  23.967   9.733  13.358
37612W        W 2597  32.292  39.064   4.765
37613W        W 2598  19.973  36.589  11.115
37614W        W 2599  24.917   2.536   0.662
37615W        W 2600   6.125   1.329  13.898
37616W        W 2601  33.601  12.359   1.213
37617W        W 2602  19.644   1.524   1.389
37618W        W 2603   2.414  38.271   0.290
37619W        W 2604  10.494  11.677   5.057
37620W        W 2605  12.525  18.478  14.051
37621W        W 2606  42.048  44.029   1.428
37622W        W 2607  38.334   1.270  13.888
37623W        W 2608   1.018  29.675   4.157
37624W        W 2609  16.850  33.191  11.891
37625W        W 2610  22.884  36.048  11.261
37626W        W 2611  16.766  11.514  14.754
37627W        W 2612  22.869   7.170   1.925
37628W        W 2613  42.182  15.051  11.947
37629W        W 2614  37.586   3.338   3.282
37630W        W 2615  24.131  43.833  10.711
37631W        W 2616  25.049  26.924   1.237
37632W        W 2617  29.913  32.053   9.822
37633W        W 2618   0.894   8.956   2.124
37634W        W 2619  21.012  16.246   1.573
37635W        W 2620  26.063  18.593  11.452
37636W        W 2621  18.489  39.926   3.551
37637W        W 2622  35.573  28.809   2.369
37638W        W 2623  39.447  30.416   2.373
37639W        W 2624  22.634  35.997   0.198
37640W        W 2625  41.257  10.898   4.042
37641W        W 2626  21.628  42.438   3.411
37642W        W 2627  32.697  17.317  14.442
37643W        W 2628  16.577  28.395  12.713
37644W        W 2629   1.726  12.123   1.392
37645W        W 2630   8.010  41.796  10.636
37646W        W 2631  32.987  40.815  12.373
37647W        W 2632  10.351   0.849   3.467
37648W        W 2633  42.861  43.185  11.018
37649W        W 2634  13.262  20.597  11.679
37650W        W 2635   8.731  13.929  10.357
37651W        W 2636  37.313   4.875   0.868
37652W        W 2637   1.449  21.198   3.359
37653W        W 2638   9.147  18.500   4.171
37654W        W 2639  34.325  44.751   4.228
37655W        W 2640   8.227   3.410   0.994
37656W        W 2641  23.320  39.043   0.127
37657W        W 2642   2.118  29.212   1.088
37658W        W 2643  14.111  13.405   4.219
37659W        W 2644  16.314   9.596   1.898
37660W        W 2645   8.802  39.955   3.723
37661W        W 2646  22.771   0.831  13.116
37662W        W 2647   4.838  36.550   3.796
37663W        W 2648  17.684  34.652  14.579
37664W        W 2649  29.429  12.152   1.928
37665W        W 2650  12.555  22.708   0.891
37666W        W 2651   9.007  20.174  11.296
37667W        W 2652  13.290  18.200   1.659
37668W        W 2653  33.889  39.270   3.534
37669W        W 2654  26.346  38.827  14.456
37670W        W 2655  10.158  28.065  13.996
37671W        W 2656  44.553  22.683  12.122
37672W        W 2657  38.468  27.411   4.183
37673W        W 2658  34.121  38.983  13.016
37674W        W 2659  14.257  25.535  10.967
37675W        W 2660  12.277   2.942  10.754
37676W        W 2661   2.897   0.413  12.066
37677W        W 2662  22.337  34.320   3.686
37678W        W 2663  18.533  10.868  11.882
37679W        W 2664  12.952  38.732  12.413
37680W        W 2665  40.067  41.932  13.416
37681W        W 2666  21.511  18.615  13.571
37682W        W 2667  25.713  11.675   0.823
37683W        W 2668  32.393  15.636   2.645
37684W        W 2669  27.500  14.345   4.427
37685W        W 2670  24.187  12.114   3.063
37686W        W 2671  35.826   3.477  12.431
37687W        W 2672  10.296  41.824   0.366
37688W        W 2673  39.934  38.848   2.479
37689W        W 2674  20.200  28.997  13.811
37690W        W 2675   1.758  43.206   4.148
37691W        W 2676  44.688   2.365  11.027
37692W        W 2677  37.042  29.959   2.471
37693W        W 2678  22.849  15.577  13.846
37694W        W 2679  25.635  28.114  13.958
37695W        W 2680  24.056   1.359   4.164
37696W        W 2681  25.084  44.089   4.574
37697W        W 2682   0.744  18.811   0.258
37698W        W 2683  37.735  31.230  12.942
37699W        W 2684  44.508  10.879  11.220
37700W        W 2685  34.487  28.166   3.146
37701W        W 2686  35.346  26.912   2.251
37702W        W 2687   6.014  29.407   0.829
37703W        W 2688  20.808  11.044  13.417
37704W        W 2689  20.554  35.287  14.836
37705W        W 2690   0.685  43.964   3.160
37706W        W 2691  31.010  40.260  14.342
37707W        W 2692  39.161  12.891   4.209
37708W        W 2693  14.359  38.930   3.306
37709W        W 2694  40.374   3.078  10.273
37710W        W 2695  41.295   8.639   0.323
37711W        W 2696  23.920  28.501   1.275
37712W        W 2697   5.702   4.648   4.935
37713W        W 2698   2.812  16.080  14.866
37714W        W 2699  11.669  19.054   0.240
37715W        W 2700  27.638  23.563   2.360
37716W        W 2701  25.988  42.563   3.848
37717W        W 2702  13.814  11.101   2.234
37718W        W 2703  31.658  25.084   0.952
37719W        W 2704  36.054  13.531  12.340
37720W        W 2705   9.778  30.647  10.459
37721W        W 2706  16.881  41.039  12.072
37722W        W 2707   5.622  29.141  11.056
37723W        W 2708   1.893  38.893   2.618
37724W        W 2709  13.343  14.832  10.896
37725W        W 2710  36.988  28.023   3.746
37726W        W 2711  31.400  35.131  11.679
37727W        W 2712   8.738  30.455  11.742
37728W        W 2713  19.859  15.917  10.254
37729W        W 2714  28.709  19.687   3.173
37730W        W 2715  25.489  21.775  10.701
37731W        W 2716  38.087  17.554  14.889
37732W        W 2717  25.542  21.566   1.906
37733W        W 2718  43.243  30.430  12.589
37734W        W 2719   3.943  25.781   1.321
37735W        W 2720  36.576  38.107   2.045
37736W        W 2721   7.603  22.298   4.104
37737W        W 2722   9.430   9.143  11.018
37738W        W 2723  32.058  16.745  14.607
37739W        W 2724  39.477  23.470   1.832
37740W        W 2725   5.654   3.385  14.707
37741W        W 2726  21.781   7.121  10.495
37742W        W 2727  39.115  24.728  14.362
37743W        W 2728   0.833  42.426  12.608
37744W        W 2729  37.592  23.085   3.096
37745W        W 2730  25.051  16.974  10.104
37746W        W 2731  16.223   6.765   3.721
37747W        W 2732  17.849  14.744   0.849
37748W        W 2733  24.053   1.514   0.733
37749W        W 2734  39.373  12.367  12.506
37750W        W 2735  42.944  21.154  10.511
37751W        W 2736   3.969  22.782  11.091
37752W        W 2737   1.065   9.116   4.083
37753W        W 2738  33.605  25.585  14.735
37754W        W 2739  35.007  11.584   2.982
37755W        W 2740   3.425  35.658   2.387
37756W        W 2741  24.205  43.363   0.939
37757W        W 2742  39.804   7.852   4.303
37758W        W 2743  36.160  24.466  12.825
37759W        W 2744   5.190   8.858   0.107
37760W        W 2745  43.292   6.428  13.155
37761W        W 2746  35.098  20.687   2.784
37762W        W 2747  26.942  13.160  13.921
37763W        W 2748  22.515  25.567  12.344
37764W        W 2749  14.021  19.308   1.736
37765W        W 2750   3.040  28.296   3.286
37766W        W 2751   8.885  43.977  12.015
37767W        W 2752  26.080   6.079  10.281
37768W        W 2753  32.870  16.538  14.304
37769W        W 2754  37.787  24.930  11.189
37770W        W 2755   1.296  33.892   0.952
37771W        W 2756  37.078  20.943  13.110
37772W        W 2757  34.309  36.999   3.628
37773W        W 2758  20.170  23.501   2.743
37774W        W 2759   2.016  33.167  12.624
37775W        W 2760  22.991  39.485   0.905
37776W        W 2761  19.555  21.733  12.435
37777W        W 2762  35.803  28.940   3.492
37778W        W 2763  36.821  33.339  10.507
37779W        W 2764   1.437  29.179   0.442
37780W        W 2765  21.666  12.600   3.774
37781W        W 2766  28.536  33.120   2.333
37782W        W 2767  11.798  10.735  14.140
37783W        W 2768   4.435  28.907  14.382
37784W        W 2769  39.792  36.883   0.536
37785W        W 2770  14.737  27.578   0.990
37786W        W 2771   7.879   0.111   4.049
37787W        W 2772   7.121   1.456  12.160
37788W        W 2773  11.530  32.648  12.905
37789W        W 2774  38.066  41.421  11.971
37790W        W 2775  33.900  16.264   1.805
37791W        W 2776  13.182  13.914   0.252
37792W        W 2777  17.291  41.727   0.325
37793W        W 2778  20.970   1.935   2.311
37794W        W 2779  34.548  15.104   0.243
37795W        W 2780   1.972  22.244  12.477
37796W        W 2781  36.667  20.601  13.005
37797W        W 2782  34.618  24.220   2.695
37798W        W 2783   4.380  14.700   0.868
37799W        W 2784  36.433  26.012   1.289
37800W        W 2785   7.636  26.069  11.153
37801W        W 2786   0.025  27.935  13.547
37802W        W 2787  33.382  10.661  12.455
37803W        W 2788  14.657  29.111  11.284
37804W        W 2789  28.542  17.866   4.594
37805W        W 2790  11.145  22.184  13.181
37806W        W 2791  28.517  10.539   2.653
37807W        W 2792  19.715  40.301   3.750
37808W        W 2793  24.449  21.124  12.027
37809W        W 2794  28.676   3.216   4.018
37810W        W 2795   8.535  19.441   4.011
37811W        W 2796   6.696   9.787   1.325
37812W        W 2797  23.108  12.146  13.892
37813W        W 2798  41.719  38.451  12.431
37814W        W 2799   0.793   0.809   4.636
37815W        W 2800  41.753  10.169   4.742
37816W        W 2801  33.951  42.456  14.957
37817W        W 2802  20.776  20.560   1.878
37818W        W 2803   5.678  34.460  12.010
37819W        W 2804  43.518  39.504  10.876
37820W        W 2805  16.864  14.068   4.066
37821W        W 2806   6.847  14.326   2.745
37822W        W 2807  13.633   6.985  14.980
37823W        W 2808  24.950   2.425  12.915
37824W        W 2809  27.762  39.617  13.387
37825W        W 2810  29.158  33.420   1.178
37826W        W 2811  18.159  42.528  13.982
37827W        W 2812  24.781   1.466  12.932
37828W        W 2813  37.482  40.490  11.130
37829W        W 2814  33.668  41.272   3.668
37830W        W 2815  11.714  43.464   4.530
37831W        W 2816  11.253  17.871   3.477
37832W        W 2817  31.278   1.921  10.374
37833W        W 2818  12.311  31.386   2.254
37834W        W 2819   4.007  27.572  10.898
37835W        W 2820  24.283   3.648  11.557
37836W        W 2821   2.522  14.581   0.276
37837W        W 2822  11.667  40.335   2.715
37838W        W 2823  19.176  18.285   1.875
37839W        W 2824   2.608  33.977  14.541
37840W        W 2825  15.210  43.238  11.532
37841W        W 2826  38.310  30.430   4.278
37842W        W 2827  12.316  17.326   1.690
37843W        W 2828  19.902   5.614  13.635
37844W        W 2829  17.279  44.743  14.380
37845W        W 2830  19.612  13.774  14.383
37846W        W 2831   5.377  14.341  12.563
37847W        W 2832  31.023  11.403   1.759
37848W        W 2833  30.436  15.500   1.164
37849W        W 2834  27.535  16.845  12.015
37850W        W 2835  17.753  37.844  11.156
37851W        W 2836  10.595   4.307  12.095
37852W        W 2837  10.226  20.690  13.990
37853W        W 2838  19.562  26.481   4.278
37854W        W 2839  26.746   4.722   3.696
37855W        W 2840   3.031  15.473   3.137
37856W        W 2841  44.620   3.097  13.461
37857W        W 2842   3.871   0.887  13.905
37858W        W 2843   2.976  19.540  10.235
37859W        W 2844   4.809  19.584   4.426
37860W        W 2845  42.291  34.861   2.704
37861W        W 2846  39.293  13.136  14.986
37862W        W 2847  27.522  20.264   3.625
37863W        W 2848  22.868   2.559  12.098
37864W        W 2849  27.938  16.279   2.276
37865W        W 2850  18.779  42.806   3.253
37866W        W 2851   9.770   2.665   4.769
37867W        W 2852  41.538  17.134  11.044
37868W        W 2853  42.256  37.912   1.947
37869W        W 2854  23.741   0.925   4.910
37870W        W 2855  32.090  38.777   5.234
37871W        W 2856   1.256  21.137  10.194
37872W        W 2857  25.986  17.740   1.919
37873W        W 2858  33.964  21.951   1.090
37874W        W 2859  38.819   2.347   3.354
37875W        W 2860  41.120   6.961  10.548
37876W        W 2861  27.020  28.228  13.925
37877W        W 2862  12.117  16.487   2.727
37878W        W 2863  28.012  30.174  11.609
37879W        W 2864  44.083  25.617  11.445
37880W        W 2865   7.469  37.447   0.338
37881W        W 2866  20.612  12.570   1.177
37882W        W 2867   1.481  17.245   3.641
37883W        W 2868  36.534   6.124   2.987
37884W        W 2869  15.674  30.673   1.188
37885W        W 2870  15.918  13.763  11.645
37886W        W 2871  38.600   6.301   4.087
37887W        W 2872  43.517   0.927   3.849
37888W        W 2873   4.513   1.777  13.905
37889W        W 2874  31.480  35.295  13.447
37890W        W 2875  21.906  28.729   0.987
37891W        W 2876   9.342  30.916   3.238
37892W        W 2877  30.223   3.240   3.676
37893W        W 2878  42.820  20.331  10.576
37894W        W 2879  43.909  26.112   5.589
37895W        W 2880   4.320  15.558   2.227
37896W        W 2881  25.597   8.524   3.735
37897W        W 2882  18.529  17.117  12.677
37898W        W 2883   7.227  15.263   1.456
37899W        W 2884  23.192  25.369  12.998
37900W        W 2885  20.389  17.294   0.719
37901W        W 2886  22.854  33.427  12.862
37902W        W 2887  36.464   9.283   4.600
37903W        W 2888   9.914  40.872   2.189
37904W        W 2889  38.189  15.623  13.981
37905W        W 2890   4.827  13.869   3.876
37906W        W 2891   5.220  20.493   2.208
37907W        W 2892  31.215   0.400   4.829
37908W        W 2893  17.232   2.728  12.470
37909W        W 2894  28.257  13.365   2.309
37910W        W 2895  14.272  26.663   3.960
37911W        W 2896  17.283  22.331  10.209
37912W        W 2897   5.206  14.506   0.870
37913W        W 2898  33.767  16.752   1.721
37914W        W 2899  22.062   4.159   2.204
37915W        W 2900  10.835  28.641  14.254
37916W        W 2901  34.759  39.396   1.869
37917W        W 2902  30.143  29.229  14.607
37918W        W 2903  23.002   7.150  14.774
37919W        W 2904  16.961  40.525  14.280
37920W        W 2905  27.662  42.534   3.641
37921W        W 2906  25.510  44.963  10.908
37922W        W 2907  37.441  41.748  14.152
37923W        W 2908  23.485   2.705  13.927
37924W        W 2909  28.698  15.617   1.540
37925W        W 2910  42.943  41.783  11.188
37926W        W 2911   4.790   2.569   2.651
37927W        W 2912  34.157  14.964   2.251
37928W        W 2913  31.088  43.798   0.295
37929W        W 2914  15.665  42.614   3.566
37930W        W 2915  25.716  25.257  14.037
37931W        W 2916  12.578  15.693   4.676
37932W        W 2917  39.925  15.947  14.853
37933W        W 2918  13.267  34.081   3.302
37934W        W 2919  14.970  21.562  10.734
37935W        W 2920  16.117  37.517  14.884
37936W        W 2921  29.708  32.857   4.452
37937W        W 2922  23.394  15.278   0.436
37938W        W 2923  44.516  25.694   3.107
37939W        W 2924  16.840   3.164  14.948
37940W        W 2925  14.560  39.097  13.432
37941W        W 2926  17.582  32.526   2.771
37942W        W 2927   2.467  13.406   4.106
37943W        W 2928  23.537  44.007  11.222
37944W        W 2929  41.242  35.971  10.958
37945W        W 2930  42.933   8.337   0.966
37946W        W 2931  16.757  30.665   3.737
37947W        W 2932  41.801   5.915   3.754
37948W        W 2933  15.275  18.826  11.131
37949W        W 2934  27.485  38.887  14.413
37950W        W 2935   0.387  11.630  13.385
37951W        W 2936  16.107   5.904   0.876
37952W        W 2937  18.271  29.106  12.446
37953W        W 2938  42.121  42.886   4.188
37954W        W 2939  28.218  34.567  14.403
37955W        W 2940  44.884  32.071   2.607
37956W        W 2941  20.067   0.401  11.113
37957W        W 2942  36.286  15.846  12.115
37958W        W 2943  42.001  22.714   1.248
37959W        W 2944  40.811  38.376   3.996
37960W        W 2945  24.947  38.735   1.735
37961W        W 2946  11.210  19.244  13.882
37962W        W 2947  29.111  30.354  10.654
37963W        W 2948  24.768  27.711  13.131
37964W        W 2949  30.954  19.259   0.974
37965W        W 2950  40.522  43.852   4.287
37966W        W 2951  16.852  22.696   2.383
37967W        W 2952  42.851  28.248   0.016
37968W        W 2953  13.171   5.602   0.018
37969W        W 2954  37.530  34.432   4.586
37970W        W 2955   3.404  18.706  12.870
37971W        W 2956   8.679  26.439  11.605
37972W        W 2957   0.039  24.136  11.320
37973W        W 2958   1.018  36.017   3.104
37974W        W 2959   9.672  41.260  11.003
37975W        W 2960  37.831  41.516  12.443
37976W        W 2961  32.971  39.837   1.351
37977W        W 2962  18.970  32.748  12.443
37978W        W 2963  42.989   8.138  12.969
37979W        W 2964   3.261   3.417   5.258
37980W        W 2965  28.494  35.927  11.070
37981W        W 2966  24.390   6.267  14.671
37982W        W 2967  44.756  23.948  12.368
37983W        W 2968  41.719  22.074   0.253
37984W        W 2969  16.094  44.985  13.481
37985W        W 2970  10.870   1.796  11.166
37986W        W 2971  36.851  14.087   2.985
37987W        W 2972  12.036   4.665   0.420
37988W        W 2973  31.659  36.800   0.920
37989W        W 2974   9.225   7.212  12.703
37990W        W 2975  28.996  22.736   2.799
37991W        W 2976   4.270   0.812  14.230
37992W        W 2977  16.703  41.753   2.656
37993W        W 2978  42.610  19.102  14.891
37994W        W 2979  35.392  13.020   1.869
37995W        W 2980  35.033  22.418   0.083
37996W        W 2981  26.521  15.149  13.294
37997W        W 2982  26.570  33.531  10.472
37998W        W 2983  16.053   4.585  10.755
37999W        W 2984  28.214  31.573   4.543
38000W        W 2985  33.961   3.320  10.243
38001W        W 2986  11.726  10.821   1.758
38002W        W 2987  34.403  39.092  13.467
38003W        W 2988  11.091  36.048   2.035
38004W        W 2989  26.429  34.033  13.685
38005W        W 2990  14.315  40.102   3.720
38006W        W 2991  37.435  10.451  11.910
38007W        W 2992  14.978  37.053  10.536
38008W        W 2993  43.573  24.174   0.365
38009W        W 2994  25.452  30.188  12.109
38010W        W 2995  31.478  12.657   0.831
38011W        W 2996  30.752   8.833   0.368
38012W        W 2997  26.748  26.701  14.861
38013W        W 2998  42.696   7.854   5.008
38014W        W 2999  12.177  27.455   2.279
38015W        W 3000  21.197  43.216  12.692
38016W        W 3001  44.519   3.482  13.152
38017W        W 3002  17.623  11.237   4.698
38018W        W 3003  17.196  34.864   2.795
38019W        W 3004   4.470  37.961  12.340
38020W        W 3005   8.883  44.972  12.942
38021W        W 3006  39.918  18.548   2.984
38022W        W 3007  29.592   1.794   0.464
38023W        W 3008   3.762  16.077   0.697
38024W        W 3009  30.232  35.451   0.695
38025W        W 3010  37.416  16.583  14.441
38026W        W 3011  24.389   7.372  13.798
38027W        W 3012  31.524  26.922   1.039
38028W        W 3013  38.092  23.603   4.596
38029W        W 3014  18.324  30.212   0.370
38030W        W 3015  36.991  31.974   4.548
38031W        W 3016  20.362   6.221  11.255
38032W        W 3017  14.752  41.594   2.723
38033W        W 3018   4.872  29.128   0.057
38034W        W 3019   0.257  22.488   2.199
38035W        W 3020   9.566   5.517   5.344
38036W        W 3021  40.998  23.321   4.989
38037W        W 3022   8.090   5.186  14.842
38038W        W 3023  11.667  21.633   4.601
38039W        W 3024  40.787  41.333   2.273
38040W        W 3025  37.440  22.274  13.349
38041W        W 3026  40.298  40.560  11.869
38042W        W 3027  32.076  30.032  12.548
38043W        W 3028   3.854  15.655   3.810
38044W        W 3029  32.151  26.412   3.758
38045W        W 3030  23.537  25.815   4.580
38046W        W 3031  20.137  17.575   1.244
38047W        W 3032   5.840   2.302   2.585
38048W        W 3033  14.238  37.249  14.479
38049W        W 3034  26.736   0.523  13.553
38050W        W 3035  41.823   1.774   3.452
38051W        W 3036   8.714  39.300   4.536
38052W        W 3037  37.126  30.674  11.550
38053W        W 3038  19.352  33.942  13.928
38054W        W 3039   5.813  17.877  12.836
38055W        W 3040  11.039   1.527   2.891
38056W        W 3041  32.376  44.452   1.186
38057W        W 3042  44.531   1.806   4.675
38058W        W 3043   8.408  28.713  14.947
38059W        W 3044   7.651  43.433  11.364
38060W        W 3045  25.063  19.064   1.208
38061W        W 3046   7.688  44.687   2.774
38062W        W 3047   4.507  25.247   1.694
38063W        W 3048  44.862  44.302   3.383
38064W        W 3049  41.079  22.802  14.027
38065W        W 3050  28.468  21.725  12.588
38066W        W 3051   1.454  37.366   2.405
38067W        W 3052  22.691   3.621  12.030
38068W        W 3053   8.366  39.889  12.881
38069W        W 3054   6.420   2.013   1.149
38070W        W 3055  15.615  26.101   1.829
38071W        W 3056  15.862  40.325   4.898
38072W        W 3057  42.287  28.087   2.136
38073W        W 3058   6.831  19.537  11.671
38074W        W 3059  29.479  22.159  13.328
38075W        W 3060  33.262  22.261   4.226
38076W        W 3061   3.692   4.071   0.705
38077W        W 3062  28.360   0.209   3.724
38078W        W 3063  35.738  12.171   0.067
38079W        W 3064  19.360  35.278  13.995
38080W        W 3065  37.026   5.709  10.863
38081W        W 3066  44.603   4.698   1.050
38082W        W 3067   3.925  29.132   2.035
38083W        W 3068  26.995   6.047  14.068
38084W        W 3069   5.394  42.463   4.380
38085W        W 3070  17.845  15.823  14.989
38086W        W 3071  23.782   6.923  13.567
38087W        W 3072  12.792   8.429  14.770
38088W        W 3073  31.298  34.869   3.296
38089W        W 3074   4.416  14.437  12.605
38090W        W 3075   9.274  37.384   0.709
38091W        W 3076  32.872   8.424   3.149
38092W        W 3077  10.582  33.983   3.331
38093W        W 3078   8.399  44.417   0.530
38094W        W 3079  15.863  19.290   3.628
38095W        W 3080  44.392  25.200   3.161
38096W        W 3081  30.653  28.926  13.084
38097W        W 3082  14.135  41.850  13.808
38098W        W 3083   5.313   2.434   2.720
38099W        W 3084  30.239  31.056  11.985
38100W        W 3085   8.777  14.046   2.117
38101W        W 3086  14.054   5.490  13.299
38102W        W 3087  27.174  14.755   1.292
38103W        W 3088   6.811  19.033  14.572
38104W        W 3089  38.598  44.224   9.917
38105W        W 3090  33.595   0.786  13.051
38106W        W 3091  38.901  39.124  11.914
38107W        W 3092  11.058  10.120  13.787
38108W        W 3093  44.103  22.660  10.948
38109W        W 3094  23.002  20.269  14.263
38110W        W 3095  21.068  37.011  11.216
38111W        W 3096   0.722  18.624  10.017
38112W        W 3097  10.148  20.709   3.261
38113W        W 3098   6.333  32.409  11.313
38114W        W 3099  35.626  43.262   0.440
38115W        W 3100  21.171  34.483   4.504
38116W        W 3101   5.017   1.919  11.449
38117W        W 3102  32.037  43.613   3.726
38118W        W 3103  43.523  37.144  12.880
38119W        W 3104  31.160   9.701   2.872
38120W        W 3105  16.085   3.131   4.410
38121W        W 3106  40.276  10.309  13.494
38122W        W 3107  32.676  19.947  11.283
38123W        W 3108  29.195  35.835  11.912
38124W        W 3109  43.376  25.330  13.988
38125W        W 3110  20.517  41.313  13.070
38126W        W 3111  17.183  28.115  12.570
38127W        W 3112  40.805  14.435  13.817
38128W        W 3113   7.129  18.566  10.578
38129W        W 3114  31.641   5.087  14.109
38130W        W 3115  22.956   4.087   2.086
38131W        W 3116  18.123  15.535   4.154
38132W        W 3117  19.624  36.573  13.978
38133W        W 3118  28.054   7.165  10.694
38134W        W 3119  36.952  17.817   2.327
38135W        W 3120  10.147  41.460   1.896
38136W        W 3121   0.234  18.342   0.438
38137W        W 3122  30.469  36.857   1.013
38138W        W 3123  34.319   0.842   1.782
38139W        W 3124  27.580  43.348   4.612
38140W        W 3125  40.814  27.994   1.038
38141W        W 3126  31.433  31.561   4.340
38142W        W 3127  14.876  26.525   1.896
38143W        W 3128  32.387  43.191   0.819
38144W        W 3129   8.677  17.244  13.852
38145W        W 3130   4.543   5.183   3.684
38146W        W 3131  39.083   6.635   1.434
38147W        W 3132  35.303  35.991   3.494
38148W        W 3133   6.738  38.253   2.195
38149W        W 3134  42.136  17.752  11.371
38150W        W 3135  26.744  40.764  14.427
38151W        W 3136  30.523  21.692  14.756
38152W        W 3137   6.836  42.391   0.876
38153W        W 3138  32.017   8.921  11.889
38154W        W 3139  29.295   3.803  12.087
38155W        W 3140  31.730  19.625  13.329
38156W        W 3141  21.715  20.131  13.864
38157W        W 3142  24.910   6.614   3.268
38158W        W 3143  31.818  33.961  14.489
38159W        W 3144  37.778  36.431   0.410
38160W        W 3145  39.817  31.043  14.369
38161W        W 3146  39.322  13.072   2.388
38162W        W 3147   2.022  16.090   3.674
38163W        W 3148   4.880  22.457  12.474
38164W        W 3149   9.945   8.638   4.137
38165W        W 3150  10.197  20.057   3.641
38166W        W 3151  22.144   6.546  11.548
38167W        W 3152  28.021  10.849   0.977
38168W        W 3153  38.261  10.714  14.030
38169W        W 3154   5.436  29.986  13.574
38170W        W 3155   1.632  40.859  13.022
38171W        W 3156   3.644  13.232   3.805
38172W        W 3157  27.762  18.760   2.452
38173W        W 3158   8.205   3.857  10.669
38174W        W 3159  18.801  15.652  10.240
38175W        W 3160  26.963   0.831   0.342
38176W        W 3161  21.473  38.916  14.890
38177W        W 3162  38.948  29.693   4.190
38178W        W 3163  42.987  32.143   0.861
38179W        W 3164  44.936   3.784   3.225
38180W        W 3165   4.235  16.346  14.889
38181W        W 3166  33.470  43.443  13.952
38182W        W 3167  24.556  22.496   3.877
38183W        W 3168  22.228  14.660   0.056
38184W        W 3169  21.359  35.347  14.213
38185W        W 3170  11.187  24.237   0.007
38186W        W 3171  17.395   3.804   1.722
38187W        W 3172  31.976   5.252   1.348
38188W        W 3173  36.919   5.938  13.490
38189W        W 3174  14.481  27.477   1.444
38190W        W 3175  42.449   1.914  11.665
38191W        W 3176   5.797  14.716   2.228
38192W        W 3177  10.846  37.146  14.992
38193W        W 3178  21.616   2.009  10.649
38194W        W 3179  33.261  41.221   1.778
38195W        W 3180  20.773  28.862  13.366
38196W        W 3181  44.287  23.262   9.877
38197W        W 3182  18.143  44.877  11.166
38198W        W 3183  17.796  42.873  11.860
38199W        W 3184  13.561  17.039  11.229
38200W        W 3185  24.725  23.974  14.931
38201W        W 3186  19.575  39.799   3.655
38202W        W 3187  34.884   9.142  11.277
38203W        W 3188  22.443  36.062   0.681
38204W        W 3189  21.767  41.824  12.846
38205W        W 3190  24.050   5.840   0.162
38206W        W 3191  28.489  23.883   0.314
38207W        W 3192  40.675  42.557   2.140
38208W        W 3193  11.829  11.777   0.371
38209W        W 3194  33.300  13.030  13.947
38210W        W 3195  25.713  12.859  13.355
38211W        W 3196   2.094  13.891   1.522
38212W        W 3197  13.712  22.904   2.924
38213W        W 3198   2.748  24.926   3.579
38214W        W 3199  41.012  11.053  14.341
38215W        W 3200  42.270  33.218  13.052
38216W        W 3201  40.135  40.252   2.149
38217W        W 3202  20.642  23.526  12.988
38218W        W 3203  31.447   4.463  12.742
38219W        W 3204  43.996   6.277  11.578
38220W        W 3205  37.644   7.363  13.983
38221W        W 3206  21.654  42.962  10.591
38222W        W 3207  10.325   0.835   1.935
38223W        W 3208  25.246  27.136  10.286
38224W        W 3209  44.949  39.333  13.064
38225W        W 3210  23.315  37.005  14.096
38226W        W 3211  22.556  26.277   4.547
38227W        W 3212  15.229  44.306   3.447
38228W        W 3213  43.045  27.689   1.740
38229W        W 3214  13.141   9.923  14.336
38230W        W 3215  20.584  24.153   0.673
38231W        W 3216  18.779  34.633  14.525
38232W        W 3217   0.743  34.533   1.499
38233W        W 3218  11.594  16.302   4.549
38234W        W 3219  41.831  25.298  13.337
38235W        W 3220  44.101  44.859   3.914
38236W        W 3221  38.779  38.893  10.123
38237W        W 3222  34.639  17.762   3.778
38238W        W 3223   6.818  23.586   2.853
38239W        W 3224  15.410   5.809   2.908
38240W        W 3225   8.641   4.290   3.129
38241W        W 3226  16.062  26.936   1.488
38242W        W 3227  36.349  10.685  14.455
38243W        W 3228   7.846  36.235  10.775
38244W        W 3229  41.198  34.464  13.839
38245W        W 3230  11.790  21.450   0.021
38246W        W 3231  39.374   7.827  13.858
38247W        W 3232  35.305  14.761  14.946
38248W        W 3233  36.949  27.161  14.678
38249W        W 3234   9.994   6.199   4.151
38250W        W 3235   9.123  35.072   3.199
38251W        W 3236  41.402   2.846   3.852
38252W        W 3237  17.424  22.560  11.447
38253W        W 3238   7.103  21.113  10.531
38254W        W 3239   2.334  29.412  12.923
38255W        W 3240  23.800  18.452  14.852
38256W        W 3241  15.350  12.364  14.237
38257W        W 3242  33.940  35.182  14.350
38258W        W 3243  25.182  29.677   3.735
38259W        W 3244  37.078  11.122   1.889
38260W        W 3245   0.830  16.594  13.066
38261W        W 3246  34.578  23.089  11.789
38262W        W 3247   0.524  11.953  14.413
38263W        W 3248  44.073   0.178  10.825
38264W        W 3249  44.295  14.607   3.201
38265W        W 3250  26.246  21.593   0.753
38266W        W 3251  25.308  43.411   0.024
38267W        W 3252   6.449  19.691  13.876
38268W        W 3253  37.899   5.733  10.500
38269W        W 3254   0.769  44.717  11.052
38270W        W 3255  43.398  32.613   4.211
38271W        W 3256   1.175  21.549  11.436
38272W        W 3257  34.842  11.309  13.324
38273W        W 3258  25.179   0.396  10.906
38274W        W 3259  39.556  42.890  13.750
38275W        W 3260   5.166  17.254  14.302
38276W        W 3261  33.106  20.668   4.142
38277W        W 3262  33.791  13.755   4.216
38278W        W 3263  24.712   3.920   1.902
38279W        W 3264  44.757  11.770   0.717
38280W        W 3265  33.396  15.309   2.852
38281W        W 3266  30.945  41.943  10.725
38282W        W 3267  29.927   3.192   1.716
38283W        W 3268  41.638  38.609   0.390
38284W        W 3269  42.914  33.476   4.428
38285W        W 3270  15.085  29.140  12.550
38286W        W 3271  41.335  16.641   1.393
38287W        W 3272   4.502  28.851  10.673
38288W        W 3273  19.522  41.823  13.396
38289W        W 3274   6.267  15.041  12.879
38290W        W 3275  20.167   0.075  11.558
38291W        W 3276  31.652  31.510  11.459
38292W        W 3277  23.469  16.348  13.895
38293W        W 3278  19.796  26.187  12.359
38294W        W 3279  35.336  38.013  13.991
38295W        W 3280  32.265  40.631   4.014
38296W        W 3281  33.521  19.573   1.388
38297W        W 3282   7.557  40.925  14.930
38298W        W 3283   9.898  26.457  13.440
38299W        W 3284  17.580  34.178  14.773
38300W        W 3285  30.016   6.167   3.066
38301W        W 3286   4.797  13.836  11.459
38302W        W 3287   8.910  26.438  13.314
38303W        W 3288  27.483  18.667   3.910
38304W        W 3289  20.494  21.667  13.597
38305W        W 3290  29.689  25.970   3.363
38306W        W 3291  14.340   7.305   2.242
38307W        W 3292  43.930   0.732  12.065
38308W        W 3293  14.895   4.172  11.532
38309W        W 3294   7.286   7.830   4.905
38310W        W 3295  41.290  18.292  12.892
38311W        W 3296   3.788   4.312   4.449
38312W        W 3297   4.178  37.950   1.701
38313W        W 3298  14.750  37.634   0.466
38314W        W 3299   0.568  17.665  13.360
38315W        W 3300   8.814  28.298   4.187
38316W        W 3301  29.477  16.186  10.664
38317W        W 3302  10.930  15.599   0.956
38318W        W 3303  17.172  11.101  11.144
38319W        W 3304  12.414   6.560  14.523
38320W        W 3305   1.439   3.452   1.739
38321W        W 3306   9.651  41.054  13.070
38322W        W 3307   6.882  12.608   0.889
38323W        W 3308  39.805   0.792  10.758
38324W        W 3309  41.459  41.285   0.018
38325W        W 3310  31.391  40.428  12.928
38326W        W 3311  17.330  33.882   0.123
38327W        W 3312  16.178  41.646   2.409
38328W        W 3313  40.893  28.343  13.983
38329W        W 3314  44.894  27.753  12.800
38330W        W 3315  19.744  21.867  11.625
38331W        W 3316  40.102  34.092  10.467
38332W        W 3317  39.468  29.657   0.865
38333W        W 3318  37.937  35.569   2.279
38334W        W 3319  41.344  23.056   0.381
38335W        W 3320  27.266  17.168  14.861
38336W        W 3321  25.865  15.057   2.296
38337W        W 3322  12.041  30.640   1.768
38338W        W 3323   5.206  44.571  12.377
38339W        W 3324  14.821  26.495  14.608
38340W        W 3325  28.070  38.893  12.345
38341W        W 3326  35.332  26.259  14.852
38342W        W 3327   2.578  25.668   4.315
38343W        W 3328  29.883   2.855   3.798
38344W        W 3329  41.367  15.177   4.186
38345W        W 3330  18.092  25.485   3.844
38346W        W 3331  27.927   7.371  11.707
38347W        W 3332  44.460   0.601   0.823
38348W        W 3333  15.124  20.310   0.791
38349W        W 3334  16.592   6.845   4.945
38350W        W 3335  14.204   8.117   1.484
38351W        W 3336   3.060  16.625   4.151
38352W        W 3337   9.477  36.139   4.113
38353W        W 3338   5.252  13.294  10.648
38354W        W 3339   6.673  20.163  13.903
38355W        W 3340  33.048   7.692   2.740
38356W        W 3341  17.657  14.934   2.269
38357W        W 3342  38.487   9.934  11.558
38358W        W 3343  14.420  18.514   1.588
38359W        W 3344   7.101  27.715  12.606
38360W        W 3345  23.357   7.946   1.960
38361W        W 3346  39.853  10.730   3.053
38362W        W 3347  24.082  17.127  12.013
38363W        W 3348  19.742   7.216   1.941
38364W        W 3349   7.529  15.105  10.917
38365W        W 3350  25.722  18.233   4.534
38366W        W 3351  29.495  33.062   1.366
38367W        W 3352  34.385  29.084   2.299
38368W        W 3353   3.264  43.251  14.812
38369W        W 3354  40.610  33.996  11.655
38370W        W 3355  40.792  15.973  11.561
38371W        W 3356   8.736  23.633   3.924
38372W        W 3357  26.692  31.355  13.839
38373W        W 3358  36.355   6.154  13.414
38374W        W 3359  10.877  21.745  13.036
38375W        W 3360  13.569   6.718   2.203
38376W        W 3361  17.338  26.676   4.884
38377W        W 3362  27.241   2.689   3.501
38378W        W 3363  13.786  17.699   2.285
38379W        W 3364  33.433   8.481  13.851
38380W        W 3365  16.776  43.072   1.720
38381W        W 3366  36.324   1.735  12.012
38382W        W 3367  40.325  37.625  13.930
38383W        W 3368  13.630  31.446   3.720
38384W        W 3369  19.956  18.548   3.326
38385W        W 3370  40.749  40.355  12.026
38386W        W 3371  40.979  20.184   2.362
38387W        W 3372  38.043  22.175  13.887
38388W        W 3373  35.855   8.017  11.617
38389W        W 3374   4.672  31.150  13.774
38390W        W 3375  12.029   8.792   4.040
38391W        W 3376   4.852  33.897   2.996
38392W        W 3377  24.557  23.558  12.912
38393W        W 3378  31.865  23.900  11.163
38394W        W 3379  31.396  31.139   1.687
38395W        W 3380  35.478  35.845   1.747
38396W        W 3381   9.456  18.746   3.638
38397W        W 3382  28.324  42.215   3.065
38398W        W 3383  27.856   2.420   0.289
38399W        W 3384  43.497  18.098  14.432
38400W        W 3385   9.668   3.727  12.865
38401W        W 3386   4.196  32.313   1.881
38402W        W 3387  19.021  21.368   4.025
38403W        W 3388   4.222  42.759   3.267
38404W        W 3389  25.945  11.771  10.481
38405W        W 3390  13.296  36.907  11.472
38406W        W 3391  32.592   3.726   1.787
38407W        W 3392   9.171  41.756   1.753
38408W        W 3393  33.708  34.979  11.742
38409W        W 3394   5.791  11.403  12.163
38410W        W 3395  30.736   4.671  13.967
38411W        W 3396  29.061  22.797  13.102
38412W        W 3397  21.759   2.222   3.229
38413W        W 3398   9.257  39.855   4.104
38414W        W 3399  12.351   8.142  13.856
38415W        W 3400  43.289  20.363   0.382
38416W        W 3401  26.550  15.686  10.114
38417W        W 3402  26.619   8.126  13.995
38418W        W 3403  29.502   7.944   3.178
38419W        W 3404  24.491   9.201   3.672
38420W        W 3405  20.201  16.196  10.544
38421W        W 3406  39.578  21.022  13.092
38422W        W 3407  30.717   3.170  10.969
38423W        W 3408  44.424   5.342   3.340
38424W        W 3409   8.363  19.237   1.996
38425W        W 3410  40.534  21.831   3.173
38426W        W 3411  39.006  32.581  14.567
38427W        W 3412  28.733  35.083  13.964
38428W        W 3413  31.579  25.929  13.113
38429W        W 3414   1.370  21.140  11.728
38430W        W 3415   8.331  25.608   0.753
38431W        W 3416  30.697  38.190   1.212
38432W        W 3417  20.245   2.955   4.345
38433W        W 3418  25.796  41.443   3.952
38434W        W 3419   3.394   3.199   1.693
38435W        W 3420  14.075  33.491  14.352
38436W        W 3421  31.878  40.710  14.211
38437W        W 3422  39.020  15.926  12.093
38438W        W 3423  24.627  28.011  14.794
38439W        W 3424   8.603  16.654  11.602
38440W        W 3425  34.794  30.587   3.668
38441W        W 3426  18.355  25.003  12.544
38442W        W 3427  21.083  33.156  10.426
38443W        W 3428  37.096  34.072  10.875
38444W        W 3429   7.861  18.191   4.119
38445W        W 3430  15.318  40.509  11.475
38446W        W 3431  11.016  33.675   0.251
38447W        W 3432  26.816   0.299  12.138
38448W        W 3433   0.280  14.685  10.752
38449W        W 3434  22.935  36.430  14.993
38450W        W 3435  14.082  25.668  12.952
38451W        W 3436  27.899  20.182   1.390
38452W        W 3437  30.547  25.590   0.307
38453W        W 3438  33.626  40.754   2.228
38454W        W 3439  33.584  11.445   3.127
38455W        W 3440  42.838  40.409   4.561
38456W        W 3441  19.265  32.933  14.373
38457W        W 3442  28.622  21.781  13.454
38458W        W 3443   6.689  25.973   3.904
38459W        W 3444   7.886  12.186  14.443
38460W        W 3445  10.974  42.846  11.675
38461W        W 3446  12.227  28.179  12.090
38462W        W 3447  37.844  21.306  10.346
38463W        W 3448  14.357  42.084   1.807
38464W        W 3449  30.010  36.429   4.877
38465W        W 3450  41.449   2.079   0.926
38466W        W 3451   0.544  18.380  12.469
38467W        W 3452  21.549  23.887   1.817
38468W        W 3453   8.238  35.840  12.397
38469W        W 3454  27.981  34.635   3.654
38470W        W 3455  37.490  25.577   2.684
38471W        W 3456   6.135  24.024   3.515
38472W        W 3457  39.461  25.952   1.431
38473W        W 3458  43.608   3.419  10.979
38474W        W 3459  36.195  38.745  12.776
38475W        W 3460  38.329  22.478  12.477
38476W        W 3461  20.244  40.051   2.435
38477W        W 3462  42.467  11.692  13.430
38478W        W 3463  10.911  43.368  13.467
38479W        W 3464  42.439  43.031   1.789
38480W        W 3465   7.250  29.229   0.251
38481W        W 3466   3.667   3.626  14.211
38482W        W 3467   5.970  11.873   2.892
38483W        W 3468   9.785   7.361   0.398
38484W        W 3469  17.199  38.388  13.892
38485W        W 3470  34.998  22.605  11.547
38486W        W 3471  12.833  32.946  14.480
38487W        W 3472   6.297  29.885  13.014
38488W        W 3473  25.986  29.503   0.799
38489W        W 3474  39.007  23.061   0.809
38490W        W 3475  26.777  16.381  11.810
38491W        W 3476  38.877  19.559   0.333
38492W        W 3477  14.974  41.364   2.320
38493W        W 3478  14.801  44.675  13.480
38494W        W 3479  10.115  29.068   2.596
38495W        W 3480  28.900  15.763  11.123
38496W        W 3481  17.692  35.538   0.824
38497W        W 3482  27.887   8.930  11.054
38498W        W 3483  10.812  18.107  14.825
38499W        W 3484  12.153   2.991   1.350
38500W        W 3485  10.379  28.132   4.660
38501W        W 3486   4.778  42.661   1.980
38502W        W 3487  36.000  27.214   0.503
38503W        W 3488  34.589  43.576   4.838
38504W        W 3489  35.584  21.837   0.468
38505W        W 3490  24.265  19.044  13.406
38506W        W 3491   2.484  18.591  13.318
38507W        W 3492  19.605   1.259  12.003
38508W        W 3493  22.320  37.452  13.231
38509W        W 3494  34.539  18.595  12.301
38510W        W 3495   2.480  20.610  14.076
38511W        W 3496  28.602  15.262  11.747
38512W        W 3497   0.966  40.768   3.538
38513W        W 3498  34.165  34.969  13.883
38514W        W 3499  42.067  30.936   2.109
38515W        W 3500  32.181  12.106   0.312
38516W        W 3501  39.588   0.345  12.913
38517W        W 3502  41.421  30.915  10.676
38518W        W 3503  22.070   2.977   3.082
38519W        W 3504  22.029   5.919  14.374
38520W        W 3505  20.294  32.887  13.484
38521W        W 3506  14.150  30.497   3.755
38522W        W 3507  19.266  33.490  14.907
38523W        W 3508  23.456  16.840   3.591
38524W        W 3509   1.007  11.198  10.588
38525W        W 3510  11.470  15.845   2.321
38526W        W 3511  30.618  31.885   0.162
38527W        W 3512  41.510   1.677  12.034
38528W        W 3513  22.635   5.512  14.045
38529W        W 3514  26.705  10.755  11.072
38530W        W 3515  41.818  40.979   4.543
38531W        W 3516  44.991   6.484  13.828
38532W        W 3517  13.255  17.133  14.117
38533W        W 3518  38.488  16.402  11.058
38534W        W 3519  33.002  42.470  14.797
38535W        W 3520   9.279  33.898  12.476
38536W        W 3521  37.526  37.623  12.186
38537W        W 3522  24.203  26.667  12.934
38538W        W 3523  41.984  43.567   1.665
38539W        W 3524  16.214  24.409  12.538
38540W        W 3525  36.912  26.604  12.984
38541W        W 3526  21.430  13.954  10.826
38542W        W 3527  28.186   0.359   2.840
38543W        W 3528  41.506  21.291   3.616
38544W        W 3529  19.275  17.084  11.015
38545W        W 3530   2.533  27.290  11.555
38546W        W 3531  13.159   6.706   2.548
38547W        W 3532   9.785  42.397  14.602
38548W        W 3533  28.093  13.350  14.441
38549W        W 3534   1.628  13.351   0.371
38550W        W 3535  17.344   5.724  13.264
38551W        W 3536   0.663  16.129   4.120
38552W        W 3537   8.744  23.816  10.834
38553W        W 3538  35.570  10.169  11.959
38554W        W 3539  20.146  42.898  13.830
38555W        W 3540   2.234  37.076  10.571
38556W        W 3541  41.090   8.216  12.493
38557W        W 3542   6.708  16.178   0.664
38558W        W 3543   6.933  24.842  12.204
38559W        W 3544   9.354  43.113   4.667
38560W        W 3545  21.040  36.955  12.843
38561W        W 3546  22.013  11.623   1.738
38562W        W 3547  43.429  10.622   2.355
38563W        W 3548  23.198  16.560   0.959
38564W        W 3549  42.192  31.084  11.976
38565W        W 3550  44.064  18.156  10.617
38566W        W 3551  33.448  22.761   4.592
38567W        W 3552  17.622  44.238   4.201
38568W        W 3553  42.778  41.511   2.322
38569W        W 3554  11.458  26.326  14.395
38570W        W 3555  20.096  20.000  12.339
38571W        W 3556   4.247  32.106   3.671
38572W        W 3557  24.405  27.054  11.482
38573W        W 3558  35.084  26.954   2.684
38574W        W 3559  23.032   9.696   1.908
38575W        W 3560   1.746  14.660  12.984
38576W        W 3561   7.274  17.676   2.637
38577W        W 3562  36.031  44.985   3.581
38578W        W 3563  10.980  30.096  13.368
38579W        W 3564  36.074  38.682   4.661
38580W        W 3565  15.015   3.271  14.057
38581W        W 3566  17.249  19.163   4.228
38582W        W 3567  36.661  37.352  14.924
38583W        W 3568  10.684  10.867  11.640
38584W        W 3569   5.803  35.661   2.836
38585W        W 3570  24.242  32.464   0.756
38586W        W 3571  15.091  13.235  13.348
38587W        W 3572  42.119   3.942  10.642
38588W        W 3573  33.198  36.515   0.324
38589W        W 3574  37.704  38.592   3.218
38590W        W 3575  15.596  21.982  14.371
38591W        W 3576  29.172   9.702   2.851
38592W        W 3577  13.694   5.414  12.004
38593W        W 3578  18.675   9.163  11.087
38594W        W 3579  44.980  13.845  14.566
38595W        W 3580  13.564  14.740   3.174
38596W        W 3581  21.525  31.462   2.924
38597W        W 3582   7.417   2.364  12.683
38598W        W 3583  27.687  28.440   0.995
38599W        W 3584  12.183  42.591   2.673
38600W        W 3585  10.619  33.037  11.155
38601W        W 3586  18.783   4.410  14.821
38602W        W 3587  26.213   9.691  10.754
38603W        W 3588  34.110  31.038   3.246
38604W        W 3589  21.981   3.433   0.455
38605W        W 3590  14.202  12.817   3.593
38606W        W 3591   5.939   8.821  13.021
38607W        W 3592  43.354  36.831  14.219
38608W        W 3593  43.995  36.549   2.602
38609W        W 3594  41.649  42.025   0.500
38610W        W 3595  22.260  19.559  13.474
38611W        W 3596  15.687  37.366   3.108
38612W        W 3597  27.689  31.922  13.351
38613W        W 3598  37.458  28.546  14.291
38614W        W 3599   7.118   6.438  11.221
38615W        W 3600  22.108   0.415  12.546
38616W        W 3601  10.897  16.767  11.453
38617W        W 3602  38.809   7.914  12.951
38618W        W 3603  10.647  41.198   1.595
38619W        W 3604  25.157  13.005   2.839
38620W        W 3605   5.934   1.601   1.314
38621W        W 3606  23.764   4.834  13.044
38622W        W 3607  38.064  25.012  10.746
38623W        W 3608  19.764  24.103  13.017
38624W        W 3609  26.118  30.678   1.354
38625W        W 3610  20.807  41.447  13.478
38626W        W 3611  40.821  20.948  10.585
38627W        W 3612  34.551   0.773   2.246
38628W        W 3613  26.089  23.601   3.990
38629W        W 3614  14.693   5.945  13.950
38630W        W 3615  25.538  44.798   4.494
38631W        W 3616  39.759  23.416   4.805
38632W        W 3617  35.855  22.587  12.043
38633W        W 3618  25.686   8.082   2.296
38634W        W 3619  22.079  18.483  12.111
38635W        W 3620  42.898  12.605  13.367
38636W        W 3621  20.081   7.112  13.798
38637W        W 3622  22.975   2.997  14.025
38638W        W 3623  41.546  40.352   4.501
38639W        W 3624  23.786  25.982  14.482
38640W        W 3625   6.600  26.474   3.737
38641W        W 3626  31.096   0.956  11.197
38642W        W 3627  33.090  15.068   1.469
38643W        W 3628  24.773   5.390  13.939
38644W        W 3629   8.078  33.170  13.867
38645W        W 3630  25.185  19.676  10.779
38646W        W 3631  36.387  30.325   0.946
38647W        W 3632   5.401  39.766  13.161
38648W        W 3633   0.501  20.454   4.443
38649W        W 3634   4.221  24.629  13.959
38650W        W 3635  33.524  10.427   4.105
38651W        W 3636   1.408  34.461  14.939
38652W        W 3637  14.130   5.572  11.617
38653W        W 3638  26.802  41.815  13.012
38654W        W 3639  37.340  14.271   2.824
38655W        W 3640  25.547  42.520   4.113
38656W        W 3641  28.073  21.460   0.720
38657W        W 3642  16.788  28.634  13.107
38658W        W 3643  38.636  15.189   3.687
38659W        W 3644  21.039  34.492   3.403
38660W        W 3645  25.100  16.755  14.288
38661W        W 3646   7.828   1.005   3.416
38662W        W 3647  32.661  19.135  13.814
38663W        W 3648   3.333  39.448  11.765
38664W        W 3649  31.868  19.641   3.867
38665W        W 3650  11.923  22.923  10.273
38666W        W 3651  43.930  23.143  11.105
38667W        W 3652  43.209  21.233  14.556
38668W        W 3653   9.429   1.643  14.330
38669W        W 3654  29.041  37.745  12.259
38670W        W 3655   5.999  10.810   2.015
38671W        W 3656  44.392  42.370  13.721
38672W        W 3657  22.923  33.480   0.653
38673W        W 3658  37.412   7.514  12.630
38674W        W 3659  39.574  34.027  13.177
38675W        W 3660  12.816  36.297  14.380
38676W        W 3661  37.799  34.107  12.873
38677W        W 3662   4.779  36.597  10.211
38678W        W 3663  32.294   7.371  10.862
38679W        W 3664   3.070  25.408   0.151
38680W        W 3665  39.353  43.290   0.378
38681W        W 3666   3.407  25.675  12.067
38682W        W 3667   2.315   8.516  12.373
38683W        W 3668  11.938  27.060   3.834
38684W        W 3669   4.451  22.550  12.718
38685W        W 3670  38.512  32.171   3.707
38686W        W 3671  31.574   3.903  10.600
38687W        W 3672  34.824  44.331   0.760
38688W        W 3673  11.690  20.337  12.878
38689W        W 3674  42.184  34.417  13.704
38690W        W 3675  11.762   0.512  10.745
38691W        W 3676  36.286  12.811  14.377
38692W        W 3677  32.852   1.037  11.070
38693W        W 3678  41.183  32.624  14.764
38694W        W 3679  31.591   7.323   2.306
38695W        W 3680  22.704  27.013   0.980
38696W        W 3681   8.415   2.341  10.622
38697W        W 3682  29.596  19.538   5.053
38698W        W 3683  35.024   6.181  11.268
38699W        W 3684  29.066   3.011   3.141
38700W        W 3685   7.433  24.519  14.401
38701W        W 3686  30.020  25.560  11.521
38702W        W 3687  42.083  30.674  13.896
38703W        W 3688  41.125  28.994   1.297
38704W        W 3689  43.824  25.493   2.442
38705W        W 3690  23.689   7.278  12.643
38706W        W 3691  44.566  35.965  12.922
38707W        W 3692  38.771  32.399  11.063
38708W        W 3693  43.011   0.806  12.485
38709W        W 3694   2.899  10.180  14.414
38710W        W 3695  15.749  37.577  14.510
38711W        W 3696  35.635   3.154   3.634
38712W        W 3697   8.100  43.747  12.156
38713W        W 3698  30.363  25.295   1.014
38714W        W 3699  25.126  18.364   2.685
38715W        W 3700  31.835  23.973  13.865
38716W        W 3701   6.372  28.511   4.690
38717W        W 3702  39.489   7.691  14.583
38718W        W 3703  24.656  44.806  11.987
38719W        W 3704   4.367  11.294   0.718
38720W        W 3705  32.827  12.524   4.185
38721W        W 3706  25.946  32.628  10.796
38722W        W 3707  26.968   2.283  13.833
38723W        W 3708  38.381  38.351   0.896
38724W        W 3709  13.092  15.092  13.944
38725W        W 3710  19.307  36.655  14.435
38726W        W 3711  33.117  33.433  13.974
38727W        W 3712   3.459   5.501   4.993
38728W        W 3713   5.449   9.742  11.074
38729W        W 3714  42.657  12.318   2.301
38730W        W 3715  40.355  40.499  12.367
38731W        W 3716  37.461  24.107   0.728
38732W        W 3717  39.895   3.834  11.518
38733W        W 3718  33.598  41.411   3.179
38734W        W 3719  11.800  19.714  12.123
38735W        W 3720  35.444  28.141  11.649
38736W        W 3721  14.936  43.149  14.955
38737W        W 3722  14.745  40.180  11.998
38738W        W 3723  37.044  24.434   3.271
38739W        W 3724   0.432  34.010   0.951
38740W        W 3725  20.081  22.247   3.414
38741W        W 3726  24.439  10.249   3.779
38742W        W 3727  37.084  44.370  10.569
38743W        W 3728  41.872  34.595   2.908
38744W        W 3729  25.208  44.496   0.154
38745W        W 3730  15.407  27.946   0.864
38746W        W 3731  29.883  31.519   0.827
38747W        W 3732  32.632   8.056   3.593
38748W        W 3733  20.274  16.980  12.039
38749W        W 3734  12.656   3.685   3.696
38750W        W 3735  17.642  43.165   0.289
38751W        W 3736  44.944   9.178  13.957
38752W        W 3737  16.824  42.442  13.296
38753W        W 3738  27.610   8.808   4.780
38754W        W 3739  40.734  20.638   0.599
38755W        W 3740  12.354  32.169   2.781
38756W        W 3741  43.907  37.363   0.789
38757W        W 3742  22.098   9.787  11.007
38758W        W 3743  22.956  34.556  12.539
38759W        W 3744   4.346  19.053  13.465
38760W        W 3745  38.387  16.109  10.116
38761W        W 3746  10.743  17.800   0.445
38762W        W 3747  32.384  30.710  12.918
38763W        W 3748  36.957  10.262  12.625
38764W        W 3749  44.789  22.667   2.059
38765W        W 3750  15.025  38.855  13.361
38766W        W 3751  35.087  38.364   1.787
38767W        W 3752  39.989  36.340  14.104
38768W        W 3753  37.785  24.354  12.346
38769W        W 3754   3.464  36.659   4.503
38770W        W 3755  43.700  13.716  14.766
38771W        W 3756  13.788  21.539   3.400
38772W        W 3757   9.783  44.807   0.371
38773W        W 3758  30.420   6.518   1.417
38774W        W 3759   9.948  28.448  13.698
38775W        W 3760  14.259  37.481   0.502
38776W        W 3761  36.955  16.531   4.002
38777W        W 3762  21.222  21.334  12.926
38778W        W 3763   7.541  19.433  14.798
38779W        W 3764  33.997  42.309   1.326
38780W        W 3765  24.918  43.114  12.908
38781W        W 3766   9.310  30.749  14.800
38782W        W 3767  38.323  39.977   3.550
38783W        W 3768  39.372  30.328  12.756
38784W        W 3769  36.499   6.253  10.856
38785W        W 3770  35.625  26.384  14.418
38786W        W 3771  41.817  23.729   2.649
38787W        W 3772  19.548  29.089  13.082
38788W        W 3773  16.102   2.513  11.894
38789W        W 3774  33.623  29.130  12.004
38790W        W 3775  20.073   1.542   0.822
38791W        W 3776  34.102  24.351   2.797
38792W        W 3777  19.646  20.006  14.811
38793W        W 3778  37.780  25.300  12.508
38794W        W 3779   1.029  34.780   1.880
38795W        W 3780  16.634  25.697  13.397
38796W        W 3781  41.623  39.075   2.473
38797W        W 3782  23.518   9.646  14.892
38798W        W 3783   8.437  37.788   1.484
38799W        W 3784  25.187  36.904   3.200
38800W        W 3785  38.598  38.084   9.752
38801W        W 3786  18.684  41.663   2.597
38802W        W 3787  20.575  20.718   0.942
38803W        W 3788  31.893  32.706   0.858
38804W        W 3789   0.911  34.687   1.006
38805W        W 3790  25.236  37.225   3.840
38806W        W 3791   3.145  23.969   3.747
38807W        W 3792  34.405   8.624   4.514
38808W        W 3793  38.828  16.630  13.377
38809W        W 3794   0.068   4.284  14.901
38810W        W 3795  34.966  20.136  11.570
38811W        W 3796   2.507  13.147   4.568
38812W        W 3797   4.719   4.791  10.232
38813W        W 3798  44.881  22.490  10.661
38814W        W 3799   2.757  26.655   0.412
38815W        W 3800  14.106  43.569  11.140
38816W        W 3801  21.285  33.326  14.377
38817W        W 3802  34.117  35.694  14.269
38818W        W 3803  28.966  10.083  14.036
38819W        W 3804  23.268  37.856   3.201
38820W        W 3805   9.255  36.974  12.353
38821W        W 3806  32.929   0.487   1.130
38822W        W 3807   6.683  42.899  12.611
38823W        W 3808  34.595  30.166   4.881
38824W        W 3809  12.710  10.598   1.867
38825W        W 3810  21.257  35.003   2.608
38826W        W 3811  10.168  22.653   2.670
38827W        W 3812  11.613  16.752  13.044
38828W        W 3813  12.184  20.725   2.928
38829W        W 3814  11.441  19.363  13.418
38830W        W 3815  35.916  35.284   2.942
38831W        W 3816  38.793  37.808   3.647
38832W        W 3817  41.442  20.830  12.386
38833W        W 3818   2.426  44.117  13.425
38834W        W 3819  42.530  43.764  14.371
38835W        W 3820  35.054   5.920  12.116
38836W        W 3821  36.125  32.199   1.642
38837W        W 3822  28.638  24.206  11.979
38838W        W 3823   9.024  18.604  12.034
38839W        W 3824   2.340  20.549  13.056
38840W        W 3825   0.790   7.768   2.959
38841W        W 3826  11.742  23.727   3.772
38842W        W 3827  23.020   2.761   0.571
38843W        W 3828  37.571  38.931   4.111
38844W        W 3829   1.159  21.076   0.451
38845W        W 3830  20.785  25.707   2.460
38846W        W 3831  18.156  33.456   2.499
38847W        W 3832  18.183  43.794   2.120
38848W        W 3833  20.095  30.744  11.168
38849W        W 3834   9.298  18.625   2.632
38850W        W 3835  35.733  14.478  12.079
38851W        W 3836  40.252  31.524   2.371
38852W        W 3837  32.001  25.457   5.015
38853W        W 3838  30.571  44.493  13.666
38854W        W 3839  26.711  20.858  10.862
38855W        W 3840   9.330  33.852   4.647
38856W        W 3841  26.398   4.542   4.045
38857W        W 3842  11.883  41.739  11.500
38858W        W 3843  13.070  44.435   1.866
38859W        W 3844  33.557   4.439   2.101
38860W        W 3845   8.608  22.747  13.579
38861W        W 3846  38.122  19.213   0.357
38862W        W 3847  42.922  21.205  11.538
38863W        W 3848  22.020  27.412  13.334
38864W        W 3849  18.281   6.656   1.958
38865W        W 3850   8.371  41.600   2.957
38866W        W 3851  37.414  10.640   1.353
38867W        W 3852  16.522  20.021   3.754
38868W        W 3853  39.221   8.452  12.015
38869W        W 3854  24.187  16.668   0.176
38870W        W 3855  40.471  43.721  11.111
38871W        W 3856  31.693  18.364   0.138
38872W        W 3857   2.773  35.664  13.570
38873W        W 3858   8.884  41.725   4.600
38874W        W 3859   7.767   2.011   0.998
38875W        W 3860   4.508  38.055  13.640
38876W        W 3861  11.837  41.796   4.108
38877W        W 3862  26.052  28.555   4.835
38878W        W 3863  35.484  41.407   4.084
38879W        W 3864   3.529  17.172   1.780
38880W        W 3865   4.785  42.264  14.715
38881W        W 3866   2.168   3.474   0.382
38882W        W 3867  33.939  10.657   3.242
38883W        W 3868  33.941  19.436   2.694
38884W        W 3869   8.780  32.066   4.603
38885W        W 3870  35.588  18.252  11.598
38886W        W 3871  32.040  16.575  10.335
38887W        W 3872  32.040  21.263   3.219
38888W        W 3873   1.098   4.842  11.980
38889W        W 3874  15.393  19.150   3.809
38890W        W 3875   9.641   3.132   4.599
38891W        W 3876  12.448  11.386  14.965
38892W        W 3877  21.043   2.009  11.102
38893W        W 3878   5.725  36.982  12.556
38894W        W 3879  42.668  17.159  12.960
38895W        W 3880  26.522   2.945   0.514
38896W        W 3881  12.476  27.223  11.047
38897W        W 3882   5.521  32.560  14.942
38898W        W 3883  31.598  32.057   1.775
38899W        W 3884  18.608   0.261  13.188
38900W        W 3885  34.906  43.764  10.670
38901W        W 3886  35.094  42.326   2.261
38902W        W 3887  11.295  34.069  11.616
38903W        W 3888   0.983   2.450  13.505
38904W        W 3889  41.381  37.083   5.632
38905W        W 3890  42.408  17.377   2.715
38906W        W 3891  34.141  39.557  10.809
38907W        W 3892  14.311  35.897   4.554
38908W        W 3893   6.126  33.610   2.443
38909W        W 3894  23.385   8.344   3.723
38910W        W 3895  40.980  39.598   9.789
38911W        W 3896  39.321  21.503   1.930
38912W        W 3897  17.969   9.041   0.171
38913W        W 3898   7.672  19.583   1.419
38914W        W 3899  17.250  43.527   4.146
38915W        W 3900  19.037  10.262  14.202
38916W        W 3901  31.109  24.411   2.918
38917W        W 3902   2.520   3.356  11.491
38918W        W 3903  41.555   5.320   1.818
38919W        W 3904  11.313  37.350   1.418
38920W        W 3905   9.443  41.642  13.115
38921W        W 3906  43.803  24.052   0.847
38922W        W 3907   9.456  12.810  12.532
38923W        W 3908  12.398   4.424   4.159
38924W        W 3909  10.312   6.251   0.449
38925W        W 3910  28.706  30.954   1.221
38926W        W 3911  39.856   2.210   1.462
38927W        W 3912  30.452  41.531  14.493
38928W        W 3913   5.177  14.390  13.440
38929W        W 3914  39.376  32.965  11.606
38930W        W 3915  36.941  37.630   4.806
38931W        W 3916  21.999  19.499  13.940
38932W        W 3917  19.401  30.026   3.223
38933W        W 3918  26.950  18.798   4.566
38934W        W 3919  40.294  23.679  14.755
38935W        W 3920  41.474  33.691   1.302
38936W        W 3921  43.269  43.314   0.370
38937W        W 3922   3.911  35.415  13.725
38938W        W 3923  20.479  33.987  12.892
38939W        W 3924  14.763  34.510   2.345
38940W        W 3925  15.594  15.630  11.137
38941W        W 3926   1.664  36.936  10.616
38942W        W 3927  44.447  41.894  13.480
38943W        W 3928  36.563  18.327   0.761
38944W        W 3929  10.696  32.983   2.416
38945W        W 3930  34.331  44.319  10.539
38946W        W 3931  11.743  27.747  13.472
38947W        W 3932  23.421  20.048  13.115
38948W        W 3933  16.150  11.798  10.508
38949W        W 3934  39.103  29.643   3.277
38950W        W 3935   0.522  28.431  10.671
38951W        W 3936  43.574  35.964   3.816
38952W        W 3937   4.869  36.595   4.889
38953W        W 3938  39.875   3.951   1.674
38954W        W 3939  44.773  25.402   2.254
38955W        W 3940   0.885  41.023  13.479
38956W        W 3941  33.973  44.975   0.428
38957W        W 3942  36.380  13.652   1.902
38958W        W 3943   5.078  26.208   2.282
38959W        W 3944  15.419  31.390   2.462
38960W        W 3945  27.614  22.497  13.992
38961W        W 3946  44.809  35.007   2.218
38962W        W 3947  32.887  44.356   0.384
38963W        W 3948   7.718  29.274   4.192
38964W        W 3949  25.824  12.337   2.396
38965W        W 3950  33.306  30.161  11.968
38966W        W 3951  22.572   7.202  12.865
38967W        W 3952  16.911  18.690   4.925
38968W        W 3953  39.790  13.915  12.113
38969W        W 3954  11.664   8.046  14.465
38970W        W 3955   2.191  40.303   1.432
38971W        W 3956  15.284  23.279   3.759
38972W        W 3957  36.969  41.581  14.374
38973W        W 3958  35.577  38.074  11.986
38974W        W 3959  34.863   5.425   0.429
38975W        W 3960   0.935   7.302   1.236
38976W        W 3961   0.249  33.596  14.328
38977W        W 3962  29.881  43.264  12.898
38978W        W 3963  25.791  30.103  13.811
38979W        W 3964  22.201  38.979  11.024
38980W        W 3965  40.976  10.162  12.945
38981W        W 3966  42.792  24.562   0.425
38982W        W 3967   5.290   3.302  14.338
38983W        W 3968  43.776  41.055  14.252
38984W        W 3969   4.673  10.279  10.676
38985W        W 3970  38.023  11.360   3.293
38986W        W 3971  35.105  35.943   2.370
38987W        W 3972  14.673  11.240   0.236
38988W        W 3973  11.284  29.147   0.929
38989W        W 3974  39.415  29.055  12.596
38990W        W 3975  30.233  19.203   4.537
38991W        W 3976  18.153  44.358   1.853
38992W        W 3977  13.609   9.828  10.776
38993W        W 3978  16.684  17.887   1.233
38994W        W 3979  36.003  12.922   4.505
38995W        W 3980  28.691   4.717   3.810
38996W        W 3981  43.032  15.766  14.888
38997W        W 3982  34.029  19.078   3.088
38998W        W 3983   1.193  41.881   3.246
38999W        W 3984  12.362  15.540  11.487
39000W        W 3985   1.533  44.917  13.421
39001W        W 3986  22.277  13.618  13.340
39002W        W 3987   4.875  28.643   4.593
39003W        W 3988  12.247  42.766  14.413
39004W        W 3989  15.851  42.096   4.190
39005W        W 3990  17.400  11.343   0.386
39006W        W 3991  12.103   4.061  14.541
39007W        W 3992  36.270  43.289  11.503
39008W        W 3993   5.287  19.158  12.722
39009W        W 3994   9.906   3.752  14.264
39010W        W 3995  32.961  18.930  13.378
39011W        W 3996  26.967  39.543   2.819
39012W        W 3997  23.662  29.448   1.048
39013W        W 3998   4.770  29.919   3.759
39014W        W 3999  40.528  11.241   4.232
39015W        W 4000  43.049  13.460   1.429
39016W        W 4001  28.991  30.889   3.461
39017W        W 4002  13.035  44.055   4.762
39018W        W 4003  22.239  43.686  14.635
39019W        W 4004  33.090   4.750  10.646
39020W        W 4005  38.336  11.152  10.951
39021W        W 4006  20.850  41.770  10.661
39022W        W 4007  25.521  33.545   3.131
39023W        W 4008  28.249   7.706   2.315
39024W        W 4009  23.060  12.242  12.772
39025W        W 4010  35.423  12.883   1.028
39026W        W 4011   6.547  44.925  13.808
39027W        W 4012  26.135  10.571   5.135
39028W        W 4013  34.324   4.238   1.563
39029W        W 4014  44.553  22.086   4.042
39030W        W 4015   4.790  31.829  12.612
39031W        W 4016  30.662  34.682  11.879
39032W        W 4017  40.720  12.794  14.072
39033W        W 4018  39.372   2.753   1.730
39034W        W 4019  41.585  37.024   3.515
39035W        W 4020  17.978   4.828   2.284
39036W        W 4021  43.167  21.383  10.038
39037W        W 4022  12.759  37.520   0.685
39038W        W 4023  28.740  25.063   1.698
39039W        W 4024  43.915   9.704   0.919
39040W        W 4025  26.668  17.062   1.942
39041W        W 4026  21.461  34.429   1.173
39042W        W 4027   0.736  42.426  13.646
39043W        W 4028   1.295  38.049   3.461
39044W        W 4029  12.574  14.927  14.747
39045W        W 4030   3.264  28.642   4.088
39046W        W 4031  43.889  17.802  11.643
39047W        W 4032   2.974  30.570  11.212
39048W        W 4033  35.336   8.350  13.042
39049W        W 4034  14.664  38.004  11.080
39050W        W 4035  31.190  29.437  10.793
39051W        W 4036  44.800  23.644   4.645
39052W        W 4037  17.505  41.676   3.105
39053W        W 4038  25.493  11.952  11.972
39054W        W 4039  37.847   3.951   0.082
39055W        W 4040   4.190  39.779   3.738
39056W        W 4041  30.567  10.731  13.311
39057W        W 4042  28.192   9.242  12.177
39058W        W 4043  39.431  39.033  11.616
39059W        W 4044  18.508  37.559   0.007
39060W        W 4045  16.681  31.208   3.573
39061W        W 4046  28.692   8.260  12.994
39062W        W 4047  10.750  12.380   3.214
39063W        W 4048  42.849  28.314  10.839
39064W        W 4049  23.252  43.295   3.595
39065W        W 4050  32.880  24.535   3.086
39066W        W 4051  24.988   9.902  10.679
39067W        W 4052  38.112   4.214  11.521
39068W        W 4053   2.962  36.440  10.716
39069W        W 4054  12.425   2.843  12.016
39070W        W 4055  29.721   9.753  14.245
39071W        W 4056  28.122  31.049  12.130
39072W        W 4057  13.126  30.533   1.325
39073W        W 4058  18.875  42.443   3.801
39074W        W 4059  24.710  16.611   1.298
39075W        W 4060  13.639  23.616  13.996
39076W        W 4061  12.118  14.230   4.137
39077W        W 4062  10.472  24.708  12.803
39078W        W 4063   9.258   8.159  12.423
39079W        W 4064  31.470  28.230   4.152
39080W        W 4065  31.292  18.089   1.715
39081W        W 4066  22.156   3.836   1.706
39082W        W 4067  12.367  17.811   1.856
39083W        W 4068  17.739   1.643   1.215
39084W        W 4069  18.739  20.508   1.334
39085W        W 4070  29.885  15.738   4.795
39086W        W 4071  37.051   7.045   3.082
39087W        W 4072   5.649  39.638   1.294
39088W        W 4073  15.375  12.391   1.974
39089W        W 4074  38.391   7.999  11.532
39090W        W 4075  30.540  20.312  12.941
39091W        W 4076   0.038   0.211   2.889
39092W        W 4077   1.934  28.229   3.902
39093W        W 4078  36.938  16.657  12.221
39094W        W 4079  28.399   7.647   3.693
39095W        W 4080  10.127  27.884  11.576
39096W        W 4081   4.702  38.882  11.044
39097W        W 4082  44.295   0.264  13.792
39098W        W 4083  11.764   5.011   2.204
39099W        W 4084  14.826   4.299   1.218
39100W        W 4085  10.155   2.449   5.026
39101W        W 4086  15.721  23.655  11.454
39102W        W 4087   4.216  34.414   3.741
39103W        W 4088  37.846   6.651   4.091
39104W        W 4089  30.022  24.504   0.726
39105W        W 4090   3.351  40.387  12.669
39106W        W 4091  33.883  16.032   4.490
39107W        W 4092  25.443   1.214   1.881
39108W        W 4093   8.152   3.700   3.776
39109W        W 4094  42.588  36.392  14.481
39110W        W 4095  38.417   5.153  13.780
39111W        W 4096   1.612   4.870  12.020
39112W        W 4097  25.783  24.859   4.935
39113W        W 4098  29.389  37.052   3.752
39114W        W 4099  24.892   5.839   4.782
39115W        W 4100  28.164  42.125   2.421
39116W        W 4101   8.391  29.022   3.081
39117W        W 4102  12.243   7.628  11.487
39118W        W 4103  41.218  18.630  11.212
39119W        W 4104  41.898  29.707   3.248
39120W        W 4105  32.135  24.631   1.711
39121W        W 4106  18.192   8.318   4.020
39122W        W 4107  25.630  17.572  11.933
39123W        W 4108  32.850   8.914  14.028
39124W        W 4109  40.013  29.177  11.975
39125W        W 4110  16.440  37.003   1.541
39126W        W 4111   0.785   2.800   4.626
39127W        W 4112  24.526   5.473   0.878
39128W        W 4113  35.127  31.532  14.315
39129W        W 4114  23.557  41.943  12.483
39130W        W 4115  42.397  41.420  13.021
39131W        W 4116   2.715  36.976   1.346
39132W        W 4117  33.309  10.171  11.562
39133W        W 4118  25.492  36.875  14.597
39134W        W 4119  27.081  30.486  13.848
39135W        W 4120   6.092  40.068  12.456
39136W        W 4121  39.410  33.073  12.931
39137W        W 4122  43.801  20.618  13.354
39138W        W 4123  26.023  35.904   1.804
39139W        W 4124  25.473  15.150  13.376
39140W        W 4125  33.547  33.191  12.787
39141W        W 4126  44.923  21.011  12.626
39142W        W 4127  10.717  25.776  14.485
39143W        W 4128  37.638  34.566   9.887
39144W        W 4129  32.610  19.759   1.959
39145W        W 4130   0.294  34.914  14.600
39146W        W 4131  15.197  14.648   0.481
39147W        W 4132  31.937  32.615  13.591
39148W        W 4133  32.920  21.726   1.337
39149W        W 4134  44.022  42.368   3.104
39150W        W 4135  42.949  37.876   3.146
39151W        W 4136  36.915  21.687  12.611
39152W        W 4137  10.910  43.478   3.293
39153W        W 4138  37.855  22.004   0.291
39154W        W 4139  15.260  27.124   3.143
39155W        W 4140  15.669  39.088   3.168
39156W        W 4141  21.964   1.750   2.385
39157W        W 4142  43.458  35.411   2.582
39158W        W 4143  34.557  20.615  14.002
39159W        W 4144  24.608  30.698   1.487
39160W        W 4145  42.842  14.723   2.694
39161W        W 4146   5.910   1.844   2.826
39162W        W 4147  36.305  14.729  10.528
39163W        W 4148  30.701   0.742   3.312
39164W        W 4149  24.611  36.297  10.979
39165W        W 4150   7.243  44.244  13.802
39166W        W 4151  27.779  44.329   3.324
39167W        W 4152  35.910  30.615  12.742
39168W        W 4153  28.891  12.970   0.314
39169W        W 4154  10.264   9.037  12.619
39170W        W 4155  28.746  15.196  12.774
39171W        W 4156  18.066   6.427   3.208
39172W        W 4157  40.433  38.427   2.851
39173W        W 4158  43.804  25.625  13.452
39174W        W 4159  43.884   3.025  13.859
39175W        W 4160  44.379  43.668   2.701
39176W        W 4161  31.113  10.041  14.905
39177W        W 4162   9.655  31.651  13.929
39178W        W 4163  32.500  12.067  12.465
39179W        W 4164  20.147  28.130  11.696
39180W        W 4165  13.664  17.606  11.211
39181W        W 4166  29.439  30.409  14.777
39182W        W 4167  44.025  38.064  14.472
39183W        W 4168   3.210  24.679  13.909
39184W        W 4169   3.897   8.134  11.896
39185W        W 4170  29.058  22.254   3.548
39186W        W 4171  31.515   1.988  11.057
39187W        W 4172  22.136  35.304  14.745
39188W        W 4173   5.780  44.000  11.193
39189W        W 4174  24.905   1.959   3.387
39190W        W 4175  32.423   6.119  13.514
39191W        W 4176  39.964  40.491  14.771
39192W        W 4177  35.047  14.760   1.722
39193W        W 4178  15.347  15.225   3.339
39194W        W 4179  16.070  41.279  12.084
39195W        W 4180  10.038  17.662  13.848
39196W        W 4181   7.479   6.076   0.937
39197W        W 4182  26.105  38.806  12.877
39198W        W 4183  34.702  40.365  11.644
39199W        W 4184  26.644  16.310  14.003
39200W        W 4185  21.646  10.971  11.098
39201W        W 4186  30.635  14.504  12.018
39202W        W 4187   2.153  24.771   3.407
39203W        W 4188   3.690  38.877   4.460
39204W        W 4189  44.319  11.764   3.612
39205W        W 4190  12.199   6.005   0.809
39206W        W 4191  11.164  25.698   2.962
39207W        W 4192  21.414   4.221   4.289
39208W        W 4193  23.830  18.433  11.127
39209W        W 4194  24.388  27.770   4.584
39210W        W 4195  16.573  35.822  13.016
39211W        W 4196  41.258  20.733  11.538
39212W        W 4197  28.393   0.729  14.916
39213W        W 4198  17.509   1.002   0.254
39214W        W 4199  20.970  12.762   2.680
39215W        W 4200  16.227   3.313   3.941
39216W        W 4201  24.760  33.970   2.335
39217W        W 4202   9.635  43.971   4.534
39218W        W 4203   4.916  16.296   3.698
39219W        W 4204  23.031  34.197   1.901
39220W        W 4205  28.135  35.987   4.649
39221W        W 4206   4.662  11.772   0.308
39222W        W 4207  11.122  35.206   3.982
39223W        W 4208  29.602  24.627   2.386
39224W        W 4209   5.706   7.190   2.198
39225W        W 4210  16.111  36.067   3.742
39226W        W 4211  27.730  15.551   3.264
39227W        W 4212   6.983   0.364  13.200
39228W        W 4213  39.035   8.893   3.094
39229W        W 4214  41.083   5.281   4.140
39230W        W 4215  14.176  21.716  11.122
39231W        W 4216  37.430  36.896   2.162
39232W        W 4217  15.902   0.250   2.360
39233W        W 4218  41.356  22.163   0.764
39234W        W 4219  14.661   8.359  10.875
39235W        W 4220   7.118  21.328  11.496
39236W        W 4221   2.536  22.622  11.371
39237W        W 4222  17.159  33.937  13.123
39238W        W 4223  33.990  36.330  14.851
39239W        W 4224   5.313   3.090   3.799
39240W        W 4225  13.287  28.565   2.136
39241W        W 4226  37.755  32.526   3.542
39242W        W 4227  44.488  23.313   2.809
39243W        W 4228   3.460  25.176   1.753
39244W        W 4229  25.631  30.419   2.742
39245W        W 4230  44.912  22.313  13.960
39246W        W 4231  36.933  24.267  12.307
39247W        W 4232  25.755   6.657  13.294
39248W        W 4233  10.116  43.384  13.890
39249W        W 4234  23.022  30.790   4.357
39250W        W 4235  13.190  24.979   0.717
39251W        W 4236  38.436   1.815   0.449
39252W        W 4237  40.535  32.385   4.530
39253W        W 4238   8.680   3.967  13.039
39254W        W 4239  17.067  37.779  14.614
39255W        W 4240  15.803   2.971  12.615
39256W        W 4241  40.609  42.238   2.576
39257W        W 4242  30.535  19.499   4.844
39258W        W 4243  39.428  40.391  14.647
39259W        W 4244  30.168  20.664  12.454
39260W        W 4245   7.437  12.315   0.451
39261W        W 4246  15.536  42.505   4.065
39262W        W 4247  21.048  22.153  11.754
39263W        W 4248   4.266  27.234  14.992
39264W        W 4249  33.674  11.232  12.416
39265W        W 4250   2.520  39.536  12.486
39266W        W 4251  39.389   7.764   1.435
39267W        W 4252  19.073  37.854  11.580
39268W        W 4253  29.142  22.825  12.600
39269W        W 4254  34.184   6.865   2.570
39270W        W 4255  19.184  34.032   4.123
39271W        W 4256  18.611  13.520  11.397
39272W        W 4257   1.335  15.072   3.155
39273W        W 4258  30.734  15.917  12.049
39274W        W 4259  17.903  22.108   3.775
39275W        W 4260  37.173  16.261  10.666
39276W        W 4261  41.889   8.235   2.049
39277W        W 4262   4.732  40.021  14.872
39278W        W 4263  17.147  26.968  12.154
39279W        W 4264   4.953  28.162  14.843
39280W        W 4265  40.899  26.623   0.615
39281W        W 4266  21.697  23.496  14.333
39282W        W 4267  20.384  20.663   0.119
39283W        W 4268  34.832  43.284  10.865
39284W        W 4269  28.127  18.127   0.780
39285W        W 4270  26.214  12.207   3.789
39286W        W 4271   0.300  11.142  13.510
39287W        W 4272  15.806  11.426  12.871
39288W        W 4273  42.284  12.889   3.608
39289W        W 4274  38.777  27.876   1.186
39290W        W 4275  13.361  16.409  13.526
39291W        W 4276   9.904  11.931   2.933
39292W        W 4277  12.322  18.806  10.391
39293W        W 4278  20.562  19.260   3.421
39294W        W 4279  33.875   9.492  14.968
39295W        W 4280  37.991  27.188   0.894
39296W        W 4281  21.204   8.421  14.408
39297W        W 4282  11.859  31.653   2.241
39298W        W 4283  27.105  10.818   0.730
39299W        W 4284  36.491  35.338  12.791
39300W        W 4285  28.564   3.690   3.807
39301W        W 4286  30.016   3.338  12.114
39302W        W 4287  16.113  42.869  13.996
39303W        W 4288   8.870  22.215   1.433
39304W        W 4289  23.556  31.142  11.120
39305W        W 4290  32.670  15.500  12.289
39306W        W 4291  17.285  13.589   0.503
39307W        W 4292  41.480   2.004  14.041
39308W        W 4293   0.433  24.702   0.660
39309W        W 4294   9.135  12.626  14.938
39310W        W 4295  15.891  12.821   4.010
39311W        W 4296  14.025  12.147  12.496
39312W        W 4297  21.202  16.190  13.442
39313W        W 4298  38.883  33.503  14.726
39314W        W 4299  33.115   7.346  14.988
39315W        W 4300   4.240   7.361   0.401
39316W        W 4301  28.930   8.945  13.428
39317W        W 4302  14.693  13.294   0.026
39318W        W 4303  21.155  44.823   0.829
39319W        W 4304  12.196  25.534  13.245
39320W        W 4305  22.599  39.282   1.182
39321W        W 4306  20.637  41.662  12.155
39322W        W 4307  34.916  43.871  13.547
39323W        W 4308   8.645  31.906   5.093
39324W        W 4309  10.113   5.226   3.152
39325W        W 4310   5.462  24.934  14.295
39326W        W 4311  11.863  20.493   3.256
39327W        W 4312  25.314  13.204   5.110
39328W        W 4313  42.927  11.903   4.074
39329W        W 4314  37.486   0.751  10.671
39330W        W 4315   3.010  31.529  12.079
39331W        W 4316   4.332  37.038  12.326
39332W        W 4317   7.815   5.450   0.284
39333W        W 4318  35.160  15.150   3.630
39334W        W 4319  30.466   5.110  14.088
39335W        W 4320  19.485   8.927  14.453
39336W        W 4321   2.233  31.583   3.285
39337W        W 4322  24.191  23.519   1.367
39338W        W 4323  22.535   0.848   1.648
39339W        W 4324   5.731  17.546  13.226
39340W        W 4325  11.651  24.024  14.856
39341W        W 4326  20.502  30.591  12.926
39342W        W 4327  36.263  11.575   3.272
39343W        W 4328  22.167  40.985  11.148
39344W        W 4329  15.735  44.417   5.102
39345W        W 4330  15.253  18.630   3.816
39346W        W 4331  26.804  16.711   4.138
39347W        W 4332   2.948  14.865  11.546
39348W        W 4333  38.856  18.330   2.202
39349W        W 4334  10.325  34.626  13.067
39350W        W 4335   2.696  40.376   1.361
39351W        W 4336  35.899   7.417   0.247
39352W        W 4337  27.602  30.011  12.768
39353W        W 4338   2.515   8.112  14.919
39354W        W 4339  25.181  22.156  13.167
39355W        W 4340   8.943  31.085   2.289
39356W        W 4341  16.016  21.181  13.513
39357W        W 4342  44.676   8.148  14.244
39358W        W 4343   8.750  13.469  13.937
39359W        W 4344  23.519   0.896  10.770
39360W        W 4345  39.524   9.477   0.356
39361W        W 4346  38.846  19.596  13.399
39362W        W 4347  22.891  39.108   4.148
39363W        W 4348  22.976   3.013   2.869
39364W        W 4349  19.966   5.382   0.463
39365W        W 4350   4.782  15.083   1.403
39366W        W 4351   4.879  14.812  11.907
39367W        W 4352  32.423  43.039  12.431
39368W        W 4353  14.335  22.489   1.326
39369W        W 4354  29.082  29.669  11.545
39370W        W 4355  20.976  21.737  11.089
39371W        W 4356  40.863  41.169  10.767
39372W        W 4357  27.460  32.520   2.706
39373W        W 4358  29.011   3.003  14.455
39374W        W 4359  14.020   8.038   1.974
39375W        W 4360   0.263   2.677   1.733
39376W        W 4361  14.505  40.657  11.961
39377W        W 4362  24.623  10.253   3.294
39378W        W 4363   5.772  24.316  12.404
39379W        W 4364   3.973  18.658  11.030
39380W        W 4365  33.249  35.659   3.275
39381W        W 4366  44.828  13.597  11.194
39382W        W 4367  44.314  30.030  13.254
39383W        W 4368   8.640   1.798  12.420
39384W        W 4369  14.257  28.995   2.699
39385W        W 4370  44.056  23.552  11.574
39386W        W 4371  13.612  41.527  12.330
39387W        W 4372  19.054  43.261   3.508
39388W        W 4373  18.337  19.515   3.096
39389W        W 4374  43.764  30.964  12.167
39390W        W 4375  24.283  12.988  10.992
39391W        W 4376  24.525  10.041  12.627
39392W        W 4377  20.740   3.041   3.693
39393W        W 4378   5.724  19.001   0.218
39394W        W 4379  40.538  18.686  12.061
39395W        W 4380  10.688  37.316   2.275
39396W        W 4381  39.517   1.767   0.346
39397W        W 4382  12.661  22.646  10.800
39398W        W 4383  28.652  33.812  11.691
39399W        W 4384  16.678  29.906  13.855
39400W        W 4385  42.221  17.809  10.864
39401W        W 4386  18.185  30.434  13.278
39402W        W 4387  32.338  44.825   1.807
39403W        W 4388  20.486  29.461  11.098
39404W        W 4389  44.258   7.683   3.819
39405W        W 4390   9.443  20.835  14.499
39406W        W 4391   4.324  19.287   1.279
39407W        W 4392  41.114  38.558   1.711
39408W        W 4393  21.013  22.157   3.123
39409W        W 4394  11.284   4.691  12.530
39410W        W 4395   5.896  24.980   2.294
39411W        W 4396  31.647  24.108   3.289
39412W        W 4397   3.279   3.712   2.776
39413W        W 4398   6.579   2.868   0.806
39414W        W 4399   1.144  44.372  11.084
39415W        W 4400  10.410  39.464  11.227
39416W        W 4401  39.826   9.210  12.889
39417W        W 4402  15.256  44.683   1.992
39418W        W 4403  15.688  41.590  14.468
39419W        W 4404   4.319  15.851  14.955
39420W        W 4405  39.142   2.286   3.719
39421W        W 4406  16.922  26.930   0.029
39422W        W 4407  18.151  14.158   3.818
39423W        W 4408  18.071  11.251   2.727
39424W        W 4409  14.115  12.454  12.087
39425W        W 4410  16.057  38.893   1.484
39426W        W 4411  20.141  21.100   5.402
39427W        W 4412  33.544   6.138  14.345
39428W        W 4413   0.537  17.572   2.740
39429W        W 4414  37.223   3.302  13.996
39430W        W 4415  42.099  17.633   1.402
39431W        W 4416   1.727  33.434   1.844
39432W        W 4417   0.065  35.099   5.045
39433W        W 4418   0.841  43.258   2.371
39434W        W 4419  41.865  16.740   1.383
39435W        W 4420  34.028  14.297  13.498
39436W        W 4421  11.147  15.769   1.914
39437W        W 4422  39.945  31.129   4.844
39438W        W 4423  38.075  30.870   3.998
39439W        W 4424  10.250  34.716   2.704
39440W        W 4425  35.801  29.944   2.224
39441W        W 4426  25.444  41.238   2.170
39442W        W 4427  40.904  10.267  11.643
39443W        W 4428   8.625  34.206  11.137
39444W        W 4429  44.899  26.753  13.019
39445W        W 4430  24.380  33.759   0.965
39446W        W 4431  12.729  43.434   3.593
39447W        W 4432  27.540  10.619   0.934
39448W        W 4433   8.007  20.098   4.116
39449W        W 4434   3.325  35.428  12.038
39450W        W 4435  33.477  23.827  12.066
39451W        W 4436  14.796   7.777  14.422
39452W        W 4437  11.592   8.292   2.259
39453W        W 4438  18.817  17.011  13.071
39454W        W 4439  16.116  25.197   5.137
39455W        W 4440  35.357  37.086   3.215
39456W        W 4441  42.994  37.307  13.749
39457W        W 4442  43.317  32.557  11.986
39458W        W 4443  28.380  21.996  10.516
39459W        W 4444  17.840  32.701   1.858
39460W        W 4445  33.466  42.760   4.592
39461W        W 4446  28.392  32.247  13.012
39462W        W 4447  38.481  32.510  10.610
39463W        W 4448   0.290  17.469   0.836
39464W        W 4449  25.701  39.858  13.556
39465W        W 4450  34.247  12.472  10.450
39466W        W 4451  29.335   5.508  13.134
39467W        W 4452  25.009  17.734   1.715
39468W        W 4453  24.230  27.077   3.620
39469W        W 4454  22.283   9.201   1.244
39470W        W 4455  16.173   8.708   0.099
39471W        W 4456  16.024  14.353   3.385
39472W        W 4457   0.531   5.261  14.832
39473W        W 4458  23.525  25.550   2.246
39474W        W 4459  32.187  33.445   0.336
39475W        W 4460  10.168  17.596  10.784
39476W        W 4461  19.750  29.634  14.421
39477W        W 4462  12.783  12.618   3.857
39478W        W 4463  40.065  38.431  13.107
39479W        W 4464   9.616  23.077   1.152
39480W        W 4465  21.496  41.941   4.702
39481W        W 4466   9.089  34.038  11.034
39482W        W 4467  27.196  42.947   2.810
39483W        W 4468  42.450  24.688  12.728
39484W        W 4469  20.435  44.883   3.489
39485W        W 4470  16.968  14.208  14.989
39486W        W 4471  35.382  44.021  10.690
39487W        W 4472  36.752  27.618  14.915
39488W        W 4473   3.185  25.030  14.328
39489W        W 4474  37.455   0.499  11.121
39490W        W 4475   6.607  27.147   4.349
39491W        W 4476  34.352  12.870   2.730
39492W        W 4477  30.684  35.091  12.160
39493W        W 4478  31.114  33.355   1.720
39494W        W 4479  29.000  36.424   1.350
39495W        W 4480  28.419  20.347   4.072
39496W        W 4481  42.901  20.743  14.368
39497W        W 4482  13.266   2.293  12.388
39498W        W 4483  13.799  13.794  10.558
39499W        W 4484  38.836  29.179  10.814
39500W        W 4485  26.966  20.125   0.975
39501W        W 4486   4.474  30.527   0.458
39502W        W 4487  33.977  21.041   3.712
39503W        W 4488  10.226  23.541  10.786
39504W        W 4489  41.428  34.044   2.789
39505W        W 4490   8.921  22.564  12.501
39506W        W 4491  41.508  27.534  14.126
39507W        W 4492  13.085  32.145   3.229
39508W        W 4493  44.803  20.201   1.127
39509W        W 4494  38.334  37.059  13.001
39510W        W 4495   4.634  33.200  11.214
39511W        W 4496  16.170   2.763  10.821
39512W        W 4497  14.543  22.962  11.656
39513W        W 4498  23.210   1.677   9.764
39514W        W 4499  21.099  39.425  13.353
39515W        W 4500   7.882  23.730   3.564
39516W        W 4501  32.003  27.607   1.608
39517W        W 4502  12.675   6.880   3.500
39518W        W 4503  32.466  12.627   2.623
39519W        W 4504   1.511  11.857  11.143
39520W        W 4505  40.033  36.160  12.285
39521W        W 4506  38.980  12.626   0.532
39522W        W 4507  30.192  11.805   0.452
39523W        W 4508  17.868  38.753   2.639
39524W        W 4509  15.173  39.466   4.651
39525W        W 4510  10.342  20.705   4.112
39526W        W 4511  44.504   6.308  11.583
39527W        W 4512  42.730  14.581   0.681
39528W        W 4513  23.376  37.755   4.124
39529W        W 4514   0.807   3.722   2.166
39530W        W 4515  41.841  38.615   3.281
39531W        W 4516  19.189  13.412   0.478
39532W        W 4517  43.447  38.309   2.796
39533W        W 4518  38.806  25.701  11.834
39534W        W 4519  27.653  11.846   0.446
39535W        W 4520  25.223  15.771   1.208
39536W        W 4521  21.058  15.185  14.733
39537W        W 4522  10.582  21.679   2.750
39538W        W 4523   4.734  24.295  11.714
39539W        W 4524  30.158  41.987  13.991
39540W        W 4525  38.796  29.075   1.473
39541W        W 4526  11.679  34.876   2.660
39542W        W 4527  19.748  13.643  12.961
39543W        W 4528  13.773  11.225   0.384
39544W        W 4529  30.993   5.254  10.336
39545W        W 4530   1.675   7.366   3.939
39546W        W 4531  10.735  43.058  12.064
39547W        W 4532  14.578  20.749   0.360
39548W        W 4533  16.726  40.443   2.256
39549W        W 4534  13.300  10.427   2.741
39550W        W 4535  11.654   7.713   0.966
39551W        W 4536  41.018  25.956  11.644
39552W        W 4537  10.084   9.388  14.809
39553W        W 4538  23.691  33.766  10.865
39554W        W 4539  27.983  20.697   2.828
39555W        W 4540   9.418   9.755  10.441
39556W        W 4541  12.661  41.353   3.868
39557W        W 4542  12.630  33.642   4.512
39558W        W 4543  42.593  19.060   1.206
39559W        W 4544  23.354   4.993   3.671
39560W        W 4545  32.340  28.094  11.983
39561W        W 4546  43.450  29.664  14.359
39562W        W 4547  21.614   5.869  14.049
39563W        W 4548  42.540  42.484  14.814
39564W        W 4549  40.954   5.451   0.889
39565W        W 4550  20.766  14.032   1.868
39566W        W 4551  10.712  36.609  10.583
39567W        W 4552   7.278  44.359   4.101
39568W        W 4553   8.197  42.798  11.979
39569W        W 4554  21.964   2.843   1.712
39570W        W 4555  20.030  23.974   3.439
39571W        W 4556  32.810   0.832  13.480
39572W        W 4557  44.873   3.157  14.783
39573W        W 4558  14.551  11.215  11.556
39574W        W 4559  37.953  29.008  14.256
39575W        W 4560  31.956  41.848  13.548
39576W        W 4561  14.433   7.788  11.201
39577W        W 4562  28.795  32.733   0.493
39578W        W 4563  15.321   5.872  13.518
39579W        W 4564  16.221  43.714   1.976
39580W        W 4565  39.531   9.158   1.800
39581W        W 4566  35.108  17.220  14.956
39582W        W 4567   5.217   6.647  14.537
39583W        W 4568  25.599  36.753   2.633
39584W        W 4569   1.827   8.824   1.371
39585W        W 4570  37.457  23.547  13.953
39586W        W 4571   3.700  13.202  11.747
39587W        W 4572  13.915  32.126   4.267
39588W        W 4573  18.831  30.402  11.976
39589W        W 4574  22.800   6.716   2.198
39590W        W 4575   6.713   1.993  13.313
39591W        W 4576  28.212  25.154  14.453
39592W        W 4577   0.919   3.543   0.786
39593W        W 4578  24.379  32.472   4.490
39594W        W 4579  11.344  23.219  13.897
39595W        W 4580  33.955  41.436  14.040
39596W        W 4581  21.754  30.637  11.509
39597W        W 4582  38.827  10.366  14.402
39598W        W 4583   6.342  15.498   0.692
39599W        W 4584  29.031  39.969  11.298
39600W        W 4585  32.157   5.451   0.892
39601W        W 4586   9.188  30.887   1.799
39602W        W 4587   3.203  40.475   3.619
39603W        W 4588   8.362  10.627   0.766
39604W        W 4589  13.314  42.376  11.155
39605W        W 4590  10.716  10.359  11.634
39606W        W 4591  28.702   3.421  12.554
39607W        W 4592   4.196  28.565   4.375
39608W        W 4593  28.405  25.127  13.875
39609W        W 4594  43.031   1.117  10.480
39610W        W 4595  15.963  27.727  11.641
39611W        W 4596  34.870   5.634   5.118
39612W        W 4597  27.957  20.121   0.566
39613W        W 4598  44.106  18.155   4.111
39614W        W 4599  22.517  35.066  10.548
39615W        W 4600   9.199  32.344   2.801
39616W        W 4601  26.530   3.970   0.759
39617W        W 4602   4.535  16.841  12.084
39618W        W 4603  33.555   0.145   3.662
39619W        W 4604  14.683   2.006  13.961
39620W        W 4605  30.150  33.518  14.841
39621W        W 4606  43.673  16.344   1.821
39622W        W 4607  41.580  32.547  10.317
39623W        W 4608   2.439  24.517  14.420
39624W        W 4609  38.739  43.016  13.436
39625W        W 4610  28.700  24.021   4.548
39626W        W 4611  40.916  11.228  13.764
39627W        W 4612  35.988  15.883   0.728
39628W        W 4613  25.689   2.252   1.263
39629W        W 4614  21.475  15.760   4.736
39630W        W 4615  42.838  37.383  11.366
39631W        W 4616  20.657  22.222   3.661
39632W        W 4617   1.012   0.440   2.581
39633W        W 4618  28.610  13.343  14.931
39634W        W 4619  33.446  34.841   4.904
39635W        W 4620  35.388  30.615   1.700
39636W        W 4621  14.104  39.526   3.962
39637W        W 4622  38.577   3.929   4.045
39638W        W 4623   9.792  19.243   0.919
39639W        W 4624   1.427  33.089   2.322
39640W        W 4625   0.803  29.831   2.362
39641W        W 4626  17.825  13.899  13.546
39642W        W 4627  21.229  40.279   4.537
39643W        W 4628  33.997  42.514  11.729
39644W        W 4629  44.204  20.666  10.536
39645W        W 4630  36.969   1.226  10.655
39646W        W 4631  32.905  15.883   3.881
39647W        W 4632  32.158   5.956   0.964
39648W        W 4633  19.304  22.425   0.022
39649W        W 4634  35.195  18.783  11.740
39650W        W 4635  29.003  13.299   2.829
39651W        W 4636  42.379  32.049   4.764
39652W        W 4637  16.045  33.076   2.124
39653W        W 4638   9.407   9.196   2.729
39654W        W 4639  31.238  27.996   2.749
39655W        W 4640  21.155  13.620   4.588
39656W        W 4641  33.610  18.414  12.391
39657W        W 4642   8.898   2.226  13.920
39658W        W 4643  44.768   8.635   4.236
39659W        W 4644   0.549  28.690   0.515
39660W        W 4645   6.011  32.204   2.164
39661W        W 4646  30.302  20.203   3.261
39662W        W 4647  23.357  37.237  12.018
39663W        W 4648   8.642  20.195  12.801
39664W        W 4649  17.615   5.715  12.820
39665W        W 4650   6.636  43.377   2.898
39666W        W 4651  24.147   8.808   1.160
39667W        W 4652  30.867  39.769   3.335
39668W        W 4653  19.097  26.319  13.362
39669W        W 4654  37.339  24.008   3.132
39670W        W 4655  14.320  31.922   1.259
39671W        W 4656   4.042  14.714  12.397
39672W        W 4657  28.595  44.116   1.061
39673W        W 4658   0.515  38.054  12.600
39674W        W 4659  27.829  13.587   2.510
39675W        W 4660  40.080  32.517  11.567
39676W        W 4661  21.053  32.184   2.304
39677W        W 4662  14.825  21.483  11.639
39678W        W 4663  16.321   0.930   2.784
39679W        W 4664  10.031  39.805  11.924
39680W        W 4665  30.245  27.079   3.752
39681W        W 4666  37.349  14.278   0.975
39682W        W 4667  43.718  16.214   2.686
39683W        W 4668  19.571  36.237  11.072
39684W        W 4669  43.358   9.907  10.702
39685W        W 4670  31.959  16.410   2.628
39686W        W 4671   0.483  38.434   3.198
39687W        W 4672  32.586  11.620   2.329
39688W        W 4673  42.520   1.394   0.321
39689W        W 4674  16.397  36.646  13.985
39690W        W 4675  42.376  38.654  14.200
39691W        W 4676  10.190  11.550  14.257
39692W        W 4677  27.583   9.164   2.007
39693W        W 4678  34.497   9.550   1.064
39694W        W 4679  44.465  12.114  11.701
39695W        W 4680  31.055   2.916   1.952
39696W        W 4681   5.169  22.054   0.421
39697W        W 4682  23.855  40.725  14.179
39698W        W 4683  18.548  19.200  12.136
39699W        W 4684   8.287  16.951   2.444
39700W        W 4685   5.669  19.015  10.485
39701W        W 4686  27.968  32.339   3.333
39702W        W 4687  39.023  34.041   1.200
39703W        W 4688  28.506   9.837   1.802
39704W        W 4689  19.242   6.464   1.843
39705W        W 4690  37.559  11.601   4.514
39706W        W 4691   3.907   4.259  14.522
39707W        W 4692   2.227  32.736   3.924
39708W        W 4693  40.041  36.287  10.394
39709W        W 4694  17.310   4.648   1.509
39710W        W 4695   4.904  41.909  13.572
39711W        W 4696  27.031  19.166   1.025
39712W        W 4697  38.812   8.261   3.772
39713W        W 4698   7.655  38.912  12.927
39714W        W 4699   9.345  23.255   3.412
39715W        W 4700  23.978  41.939  11.121
39716W        W 4701  15.594  29.462  10.741
39717W        W 4702  21.670   6.166  10.835
39718W        W 4703  27.472  11.346   0.490
39719W        W 4704  28.877   2.932  10.301
39720W        W 4705  28.206   6.958   2.797
39721W        W 4706  17.989  44.060  10.766
39722W        W 4707   7.920  34.623  11.585
39723W        W 4708  15.501  20.769  12.155
39724W        W 4709  29.875  40.785   0.359
39725W        W 4710  21.529  38.889   0.869
39726W        W 4711   2.252  17.682  13.086
39727W        W 4712   7.269  29.107  11.372
39728W        W 4713  16.698  27.916  13.959
39729W        W 4714  28.240  20.965  13.404
39730W        W 4715  35.402   2.426  11.231
39731W        W 4716  35.836  13.554  10.882
39732W        W 4717  26.313  22.144  10.196
39733W        W 4718  14.521   5.733   3.337
39734W        W 4719  32.599  35.956  14.753
39735W        W 4720  33.973  10.841   4.644
39736W        W 4721  35.919  13.033   0.943
39737W        W 4722  32.628  22.688   2.569
39738W        W 4723   8.110  28.629   3.708
39739W        W 4724   1.675  24.706   3.612
39740W        W 4725  39.306  41.835   3.280
39741W        W 4726  41.198  36.075  14.470
39742W        W 4727  36.295  40.402  12.308
39743W        W 4728  15.597  39.329  14.830
39744W        W 4729  24.744  14.249   3.919
39745W        W 4730  21.692  20.666   3.048
39746W        W 4731   3.227  31.853  13.861
39747W        W 4732  10.271  43.013  14.845
39748W        W 4733  27.529  19.955   4.022
39749W        W 4734  14.966   1.820   4.488
39750W        W 4735   6.336  10.857   3.709
39751W        W 4736  34.952  26.386  10.256
39752W        W 4737  41.505  14.288   3.676
39753W        W 4738  19.252  11.926  11.832
39754W        W 4739  43.436  32.647  14.316
39755W        W 4740  27.855   0.643  12.870
39756W        W 4741  44.863  27.251   5.458
39757W        W 4742  30.585   5.422  14.471
39758W        W 4743  27.691  26.974  14.042
39759W        W 4744  14.614  37.360   3.696
39760W        W 4745   1.891  39.245   3.677
39761W        W 4746  36.909  26.221  14.696
39762W        W 4747  29.461  15.487  12.112
39763W        W 4748   1.413  25.511  11.653
39764W        W 4749  17.226  10.740  13.423
39765W        W 4750  17.279  42.814  13.503
39766W        W 4751  32.860   6.533   4.235
39767W        W 4752  43.590   9.420  12.883
39768W        W 4753  17.878  33.746   0.337
39769W        W 4754  19.501   7.423  11.071
39770W        W 4755  25.615  31.586  14.675
39771W        W 4756  16.546  38.578  13.000
39772W        W 4757  21.292  13.871   5.042
39773W        W 4758  31.466   1.432   3.654
39774W        W 4759  41.810   5.393   3.707
39775W        W 4760  27.413  24.922   3.646
39776W        W 4761  20.606  19.949   1.530
39777W        W 4762   7.922  41.978   3.621
39778W        W 4763  10.077  36.012  14.500
39779W        W 4764  26.971  39.906   3.195
39780W        W 4765   1.357  18.056  14.819
39781W        W 4766  15.790  16.611  14.218
39782W        W 4767   8.895  34.671  10.215
39783W        W 4768  35.568  39.794   1.716
39784W        W 4769  43.956  30.107   1.154
39785W        W 4770  26.926  16.092   3.502
39786W        W 4771   1.947   2.935   2.713
39787W        W 4772  16.667  38.443   2.232
39788W        W 4773  41.394  31.217   3.725
39789W        W 4774  29.633  34.414   4.994
39790W        W 4775   0.248  34.182   4.526
39791W        W 4776  23.237  22.985  13.891
39792W        W 4777   5.280  42.717  12.010
39793W        W 4778  23.897  21.022   5.028
39794W        W 4779  18.081   0.492   1.812
39795W        W 4780  17.420  35.454  13.030
39796W        W 4781  12.095  39.866   3.366
39797W        W 4782  20.687  39.784  12.113
39798W        W 4783  42.810   6.446  14.031
39799W        W 4784  21.513  14.788  14.321
39800W        W 4785  41.829  35.562   3.216
39801W        W 4786  38.452  36.821  11.584
39802W        W 4787  23.422   6.257   3.305
39803W        W 4788  35.921  41.865   2.062
39804W        W 4789  14.259   9.110   1.194
39805W        W 4790  33.473  40.357   0.326
39806W        W 4791  35.575  16.309   0.866
39807W        W 4792  29.102   9.945  13.541
39808W        W 4793   7.282  30.363  14.297
39809W        W 4794  37.426  28.972   1.045
39810W        W 4795  38.102   4.691   4.210
39811W        W 4796  37.691  27.119  11.518
39812W        W 4797  23.263  38.861  13.485
39813W        W 4798  13.740  25.157   1.470
39814W        W 4799  36.205  42.218  10.853
39815W        W 4800  13.092  14.067  13.805
39816W        W 4801   3.932   2.353   4.757
39817W        W 4802  31.408  20.773   3.694
39818W        W 4803  36.467  37.403   0.414
39819W        W 4804  24.785  23.490   3.258
39820W        W 4805  10.133   3.518   2.694
39821W        W 4806   3.373  11.649  13.036
39822W        W 4807   7.891  23.604  13.964
39823W        W 4808  21.039  30.134  11.467
39824W        W 4809  18.986  34.758  11.064
39825W        W 4810  12.905  42.401  14.746
39826W        W 4811  31.176   0.581  12.078
39827W        W 4812  11.628  34.364   2.621
39828W        W 4813   7.471  36.403   2.232
39829W        W 4814  14.649   6.759   1.770
39830W        W 4815  25.512   7.770   4.497
39831W        W 4816  41.869  19.628  14.937
39832W        W 4817   4.858  13.329   2.690
39833W        W 4818  34.194   3.255   2.211
39834W        W 4819  35.280  20.099  13.698
39835W        W 4820   0.369  23.125   3.066
39836W        W 4821  41.234  22.474  14.405
39837W        W 4822  19.165  20.952   3.672
39838W        W 4823  27.646  18.116   0.060
39839W        W 4824  38.431  25.329  10.314
39840W        W 4825   3.210   6.399  11.581
39841W        W 4826  33.182  26.947   2.101
39842W        W 4827  21.994  14.975  13.393
39843W        W 4828  22.248  39.569  13.728
39844W        W 4829  13.877   2.242   0.303
39845W        W 4830  33.228  36.542   2.233
39846W        W 4831  11.939  43.754   3.195
39847W        W 4832   9.854  34.390  13.028
39848W        W 4833  34.383  29.046  13.499
39849W        W 4834  13.276   5.737   1.620
39850W        W 4835  39.062  40.372   5.024
39851W        W 4836  27.564  37.130   2.854
39852W        W 4837  30.647  39.474   2.979
39853W        W 4838  15.050  32.779   3.261
39854W        W 4839  39.255  39.538   3.211
39855W        W 4840   1.106  29.577   2.833
39856W        W 4841   2.441  37.493  11.493
39857W        W 4842   2.924  32.617   0.439
39858W        W 4843   9.776  14.263  13.110
39859W        W 4844  22.846   5.871   2.099
39860W        W 4845  25.050  21.642   4.092
39861W        W 4846  43.515  25.239  11.083
39862W        W 4847   5.722  29.090  14.036
39863W        W 4848  30.109  11.279   1.635
39864W        W 4849  17.287   0.953  11.078
39865W        W 4850  22.143  42.558  11.056
39866W        W 4851  26.455   2.343  13.806
39867W        W 4852  17.148  24.731  11.661
39868W        W 4853  10.769  24.726   4.062
39869W        W 4854  42.850   7.877  12.465
39870W        W 4855  16.618  26.510  10.230
39871W        W 4856  27.465  37.342  13.940
39872W        W 4857  17.842   7.212  12.510
39873W        W 4858  42.032  13.858  14.755
39874W        W 4859  36.781  36.955  14.619
39875W        W 4860  37.375  28.637   0.304
39876W        W 4861  24.741  11.120   1.247
39877W        W 4862  43.271  20.567   9.868
39878W        W 4863  20.610  28.685  12.504
39879W        W 4864  44.827  10.937  13.393
39880W        W 4865  20.151  29.699  13.428
39881W        W 4866  15.288  35.810   3.285
39882W        W 4867   3.281  41.860  13.698
39883W        W 4868   7.438  13.324   1.350
39884W        W 4869   4.515   6.790  11.185
39885W        W 4870  19.016  26.463  12.423
39886W        W 4871  22.802   9.832   3.768
39887W        W 4872   1.548  28.479   4.849
39888W        W 4873  10.826  39.353  10.969
39889W        W 4874  31.673  27.668  12.996
39890W        W 4875   1.997   3.210  10.623
39891W        W 4876   3.724  29.002   0.162
39892W        W 4877  33.882  27.584  11.980
39893W        W 4878  17.764  31.221  10.429
39894W        W 4879  17.173  43.403   1.676
39895W        W 4880  23.101   1.379   3.640
39896W        W 4881   8.095  18.622   0.458
39897W        W 4882  40.299  12.145  14.336
39898W        W 4883  31.841  40.154   0.283
39899W        W 4884  28.721  40.715   4.559
39900W        W 4885  23.055   3.690   4.676
39901W        W 4886  30.886  26.356  14.849
39902W        W 4887  30.728  15.906  14.306
39903W        W 4888  39.796  28.508  10.703
39904W        W 4889   3.974  39.425   1.050
39905W        W 4890  23.138  19.264  14.376
39906W        W 4891  37.617   2.032   2.444
39907W        W 4892  16.340   0.951   3.762
39908W        W 4893   8.775  24.509   3.616
39909W        W 4894  18.347   8.857  10.778
39910W        W 4895  10.139   7.871  14.867
39911W        W 4896   4.781  26.016   4.632
39912W        W 4897  41.774  32.476  14.084
39913W        W 4898  44.295   9.693   1.835
39914W        W 4899   5.523  28.710   0.394
39915W        W 4900  31.983  15.341   0.786
39916W        W 4901  36.492  22.460   4.549
39917W        W 4902  20.179  18.093   9.973
39918W        W 4903  21.439  31.388   0.130
39919W        W 4904   3.350  29.891   2.552
39920W        W 4905  40.439  10.124  11.474
39921W        W 4906  19.778  32.058  13.632
39922W        W 4907   7.463   4.547  14.530
39923W        W 4908   4.826  11.486  14.052
39924W        W 4909  41.079  28.555  14.437
39925W        W 4910   2.055  23.092  13.345
39926W        W 4911  38.314   6.530  11.270
39927W        W 4912  37.719  26.133  10.222
39928W        W 4913  35.109  19.221   2.016
39929W        W 4914  33.478   7.176   1.416
39930W        W 4915  10.863  12.679  11.556
39931W        W 4916  19.634  30.579  11.002
39932W        W 4917  10.768  21.043   2.214
39933W        W 4918  29.576  36.959  11.877
39934W        W 4919  34.889  37.311   0.224
39935W        W 4920  30.942  18.203   3.790
39936W        W 4921   3.483   4.289   1.220
39937W        W 4922   9.660   1.265   2.954
39938W        W 4923  37.873   2.101   1.971
39939W        W 4924   7.829  23.368   4.410
39940W        W 4925  24.682  37.577   3.766
39941W        W 4926  26.404  24.156   3.973
39942W        W 4927  44.128  36.055  11.199
39943W        W 4928  13.186   7.352   1.721
39944W        W 4929  35.678  23.480  14.375
39945W        W 4930  13.366  31.572  12.856
39946W        W 4931  40.131  30.501  13.901
39947W        W 4932   5.410  38.985   3.180
39948W        W 4933  17.809  40.458   2.134
39949W        W 4934  14.293  44.918  12.628
39950W        W 4935  30.459  10.705  11.536
39951W        W 4936   2.391  28.856  13.564
39952W        W 4937  12.764  23.076   1.576
39953W        W 4938  25.936  42.339   2.883
39954W        W 4939  14.375   1.489   1.667
39955W        W 4940  27.417  33.393  14.468
39956W        W 4941  12.404  21.746   1.694
39957W        W 4942  24.120  27.220   0.772
39958W        W 4943  20.651   4.432  11.347
39959W        W 4944  12.195  37.255   1.231
39960W        W 4945  14.809  39.303  10.996
39961W        W 4946  19.503  22.552   0.922
39962W        W 4947  40.512  13.677  14.952
39963W        W 4948  31.596  33.253   2.888
39964W        W 4949  20.733  44.937   4.031
39965W        W 4950  42.720  24.402   4.101
39966W        W 4951  12.767  29.899   1.719
39967W        W 4952  15.007   9.271  10.628
39968W        W 4953  22.900  41.343  11.651
39969W        W 4954  26.664   5.793   1.631
39970W        W 4955  44.289  12.062  14.380
39971W        W 4956  17.709  10.854   1.923
39972W        W 4957  17.687   9.873   9.985
39973W        W 4958  41.346  28.571  14.919
39974W        W 4959  27.350   2.400   9.719
39975W        W 4960  29.606  32.799  11.997
39976W        W 4961  21.469  11.616   3.742
39977W        W 4962  24.472  39.526  13.785
39978W        W 4963  23.964  17.514  14.707
39979W        W 4964  18.265  39.156  11.792
39980W        W 4965  17.582  17.668   3.560
39981W        W 4966   8.494  16.011  10.973
39982W        W 4967  26.041  11.279   4.239
39983W        W 4968  15.541  42.603  14.413
39984W        W 4969  42.027   6.680   1.757
39985W        W 4970  37.777  24.429  11.388
39986W        W 4971   2.804   6.698   3.836
39987W        W 4972   0.334   5.416   2.250
39988W        W 4973  24.679   4.433  14.043
39989W        W 4974  39.275  14.972   3.943
39990W        W 4975  20.213  17.233  10.666
39991W        W 4976  40.511  42.058   2.104
39992W        W 4977  44.154   5.202   0.891
39993W        W 4978  13.388  36.329   1.786
39994W        W 4979   7.100   6.661  14.698
39995W        W 4980  35.869  20.817   0.831
39996W        W 4981  21.667  24.780  12.891
39997W        W 4982  18.209   8.827  14.710
39998W        W 4983  26.411  26.313  14.971
39999W        W 4984  34.769  10.293  12.427
40000W        W 4985  15.644  15.326   0.161
40001W        W 4986  12.742  16.993   0.403
40002W        W 4987  28.049   4.893   3.574
40003W        W 4988  31.369  35.453   1.881
40004W        W 4989  38.434  30.326   3.373
40005W        W 4990  15.155  17.313  13.030
40006W        W 4991  35.989   2.282  10.643
40007W        W 4992  41.893  12.745  13.437
40008W        W 4993  38.338  31.841   3.352
40009W        W 4994   6.128  25.567  12.937
40010W        W 4995  19.824  41.681  10.883
40011W        W 4996  13.572  22.177  13.246
40012W        W 4997   3.981  11.927  14.855
40013W        W 4998   9.182  13.650  12.896
40014W        W 4999  16.633   6.916  11.222
40015W        W 5000  10.817  14.661  12.376
40016W        W 5001   0.540  29.630   1.918
40017W        W 5002  31.078  16.277   4.285
40018W        W 5003  22.977   3.946   5.129
40019W        W 5004   8.785  32.547   1.424
40020W        W 5005  30.472  43.604  11.135
40021W        W 5006  16.224  15.595  14.765
40022W        W 5007  17.743  12.143  12.756
40023W        W 5008  23.241  10.245  12.484
40024W        W 5009  26.936  38.059   1.931
40025W        W 5010  42.891  19.592   5.210
40026W        W 5011   8.295  12.304   1.692
40027W        W 5012   0.693  19.172  14.474
40028W        W 5013  17.267  19.158   1.673
40029W        W 5014  11.574  15.741  11.797
40030W        W 5015   8.916   2.797  12.526
40031W        W 5016  12.684  33.120   4.892
40032W        W 5017  32.171   8.875  14.880
40033W        W 5018  35.658  34.073   0.233
40034W        W 5019  36.858  28.044   0.229
40035W        W 5020  29.694   9.051   1.745
40036W        W 5021  19.850  17.684   0.353
40037W        W 5022  22.336  21.928   1.355
40038W        W 5023  41.042  20.055  14.543
40039W        W 5024  35.094  12.681  11.508
40040W        W 5025   9.354  18.715   1.383
40041W        W 5026  27.976  22.613   2.738
40042W        W 5027   0.336  15.576  14.836
40043W        W 5028  31.268  14.731  12.741
40044W        W 5029   7.667   6.386   3.501
40045W        W 5030   7.606  16.174  11.152
40046W        W 5031  11.321  30.074   4.062
40047W        W 5032  22.080  19.614   0.786
40048W        W 5033  25.767  28.632  10.632
40049W        W 5034  24.700  10.466  10.362
40050W        W 5035  10.838  25.100   1.229
40051W        W 5036  26.737  16.570   3.136
40052W        W 5037  15.956   3.361   1.913
40053W        W 5038  17.800  35.040   3.673
40054W        W 5039  13.830   2.253   1.270
40055W        W 5040   7.636  38.034  12.471
40056W        W 5041   0.929  11.957  11.509
40057W        W 5042  43.505  27.450  12.844
40058W        W 5043  33.506  33.636  11.852
40059W        W 5044  36.505  37.850   0.699
40060W        W 5045  37.680  24.822   4.623
40061W        W 5046  20.755  35.305  12.444
40062W        W 5047  26.766  30.879   3.783
40063W        W 5048  29.157  15.101   3.524
40064W        W 5049  22.255  43.469   2.389
40065W        W 5050   9.363  34.551  13.007
40066W        W 5051  40.297  42.836   0.368
40067W        W 5052   3.423  12.373  14.279
40068W        W 5053   4.617  35.592  12.954
40069W        W 5054  40.380  10.202   9.951
40070W        W 5055  20.649   9.317  11.879
40071W        W 5056  12.966  13.353   0.953
40072W        W 5057   5.927  21.663  13.795
40073W        W 5058  18.216  14.346   1.024
40074W        W 5059   3.152   5.793   4.661
40075W        W 5060   4.835  23.100   0.753
40076W        W 5061   6.404  11.835   2.306
40077W        W 5062  25.919  16.319   0.381
40078W        W 5063   2.970  36.174  14.788
40079W        W 5064  15.962   5.964  12.563
40080W        W 5065  27.548   1.238   3.167
40081W        W 5066  29.966  13.804   2.761
40082W        W 5067   9.250  21.513   3.602
40083W        W 5068   3.145  15.234   2.685
40084W        W 5069  11.181   8.202   0.708
40085W        W 5070   3.735  34.654  12.291
40086W        W 5071  22.156  21.390   4.517
40087W        W 5072  22.068  42.492  12.717
40088W        W 5073  36.067  21.043   0.396
40089W        W 5074  44.454  38.487   1.260
40090W        W 5075  42.157   0.290   0.757
40091W        W 5076   1.568  26.645  14.042
40092W        W 5077  41.411  16.265  12.099
40093W        W 5078  21.128  42.501   0.373
40094W        W 5079  41.494  29.028   1.680
40095W        W 5080  34.495  19.980   2.181
40096W        W 5081   1.724  19.204   0.279
40097W        W 5082  21.242  18.235  10.981
40098W        W 5083  23.321  40.768  13.938
40099W        W 5084  13.544  38.018   2.134
40100W        W 5085  18.764   9.172   0.426
40101W        W 5086   1.334   2.666  14.773
40102W        W 5087   8.194  16.283   3.987
40103W        W 5088  34.022  10.649   4.172
40104W        W 5089   6.698   6.003  12.994
40105W        W 5090  29.867  22.410   2.770
40106W        W 5091  23.225  32.062  12.695
40107W        W 5092  18.330  27.022   3.658
40108W        W 5093  26.184  36.019  10.710
40109W        W 5094   9.315  34.881   3.675
40110W        W 5095  18.964  38.002   4.021
40111W        W 5096  16.645  41.938   4.584
40112W        W 5097  41.837  44.353  11.459
40113W        W 5098  25.658  41.965  13.854
40114W        W 5099   6.789  14.016   1.241
40115W        W 5100  13.678  36.477   0.500
40116W        W 5101   4.974   1.225  13.094
40117W        W 5102  14.116   3.744   2.219
40118W        W 5103  35.592   3.439  14.902
40119W        W 5104   7.410   1.141   3.744
40120W        W 5105   6.159  15.062  13.797
40121W        W 5106  25.483   7.850  13.085
40122W        W 5107  11.994   0.800   4.488
40123W        W 5108   4.608  15.618  10.111
40124W        W 5109  10.807   9.837   1.954
40125W        W 5110  30.377  38.436  12.567
40126W        W 5111   0.408  35.603   0.744
40127W        W 5112  29.514  13.544   4.578
40128W        W 5113  38.295  20.066  13.967
40129W        W 5114  35.776  33.570   0.887
40130W        W 5115  16.480   2.003   0.802
40131W        W 5116  41.914  30.989   4.523
40132W        W 5117  13.114  16.301   2.802
40133W        W 5118  21.269  31.206  12.005
40134W        W 5119   6.299  39.075   4.610
40135W        W 5120  24.601  11.847   2.877
40136W        W 5121  39.103  13.374  11.655
40137W        W 5122  30.879  31.839   1.913
40138W        W 5123  38.403  30.617  14.006
40139W        W 5124  30.591   3.580   2.337
40140W        W 5125  16.344  38.431  14.299
40141W        W 5126  40.279  30.102   2.614
40142W        W 5127   9.935  27.315   4.135
40143W        W 5128  10.846  12.401  12.494
40144W        W 5129  20.627  18.009   2.738
40145W        W 5130  33.575  28.426   3.236
40146W        W 5131  19.109  29.955   3.720
40147W        W 5132  37.667  25.353   3.159
40148W        W 5133  13.767  41.903   0.429
40149W        W 5134  32.909  42.461   3.724
40150W        W 5135  10.001  37.125  12.051
40151W        W 5136  37.406  21.997   1.821
40152W        W 5137  25.727  27.193  13.540
40153W        W 5138   5.304  40.389  14.538
40154W        W 5139   0.542   6.862  11.230
40155W        W 5140  33.265  12.602  14.964
40156W        W 5141  39.508  17.197   0.980
40157W        W 5142   2.197  38.626   4.603
40158W        W 5143  43.750  24.659   0.145
40159W        W 5144   8.205   9.245  11.561
40160W        W 5145   0.142  30.763  13.582
40161W        W 5146   2.905  33.871   3.153
40162W        W 5147   2.480  10.638  13.037
40163W        W 5148  28.039   2.197   3.156
40164W        W 5149  20.530   1.610  13.411
40165W        W 5150   5.740  44.968  14.942
40166W        W 5151  18.075  33.317   0.529
40167W        W 5152   6.580  33.174  11.043
40168W        W 5153  34.624  17.135  13.415
40169W        W 5154  32.823  24.431  12.554
40170W        W 5155  31.885  40.859   4.348
40171W        W 5156  42.311  32.642   2.251
40172W        W 5157  30.575  16.840   0.680
40173W        W 5158  20.312   8.153  10.227
40174W        W 5159  28.799   6.954   0.175
40175W        W 5160  37.046  11.969   3.691
40176W        W 5161  16.198  22.774  12.877
40177W        W 5162  17.105  28.541   0.865
40178W        W 5163  28.672  21.263  13.496
40179W        W 5164  24.492   9.139  14.988
40180W        W 5165  30.432  23.718   0.351
40181W        W 5166  20.529   3.421   0.702
40182W        W 5167   9.807  19.552   2.273
40183W        W 5168   7.353  10.343   1.844
40184W        W 5169  42.444   4.892   2.790
40185W        W 5170  22.694  19.674  14.965
40186W        W 5171  32.475  38.993   1.802
40187W        W 5172  40.105  37.963  11.777
40188W        W 5173  26.240   2.780   1.931
40189W        W 5174  23.926  14.934   3.190
40190W        W 5175  41.264   9.657   4.096
40191W        W 5176  35.795  24.294   0.678
40192W        W 5177  17.564   8.560   2.770
40193W        W 5178  32.057  43.284  13.758
40194W        W 5179   2.973  19.480  14.494
40195W        W 5180  42.958  28.897  14.335
40196W        W 5181  10.703  11.144  14.939
40197W        W 5182  22.191  27.045  11.603
40198W        W 5183   9.014   9.378  12.388
40199W        W 5184  28.029  11.177   0.293
40200W        W 5185  37.080  13.856   0.015
40201W        W 5186  25.697  32.628   4.704
40202W        W 5187  32.941  16.321   0.810
40203W        W 5188  26.229  27.481   2.850
40204W        W 5189  12.193   0.045  14.918
40205W        W 5190  39.848  24.528  14.087
40206W        W 5191  11.223  11.105   0.282
40207W        W 5192  15.276  38.971  11.511
40208W        W 5193  13.246  23.578   1.748
40209W        W 5194  18.219  10.212   2.242
40210W        W 5195  34.046  31.861   4.992
40211W        W 5196   9.581  20.069  12.967
40212W        W 5197  12.720  31.142   4.528
40213W        W 5198  34.924  40.409  13.849
40214W        W 5199  44.789   9.731   0.458
40215W        W 5200  31.872  13.224   3.721
40216W        W 5201  24.269  36.798  12.903
40217W        W 5202  24.080  43.902   4.352
40218W        W 5203  38.471  29.995  10.800
40219W        W 5204   7.802  43.027   0.470
40220W        W 5205  40.559   2.360   4.649
40221W        W 5206   2.975  16.879  11.009
40222W        W 5207   5.351   4.738   3.628
40223W        W 5208  14.543  43.243   3.851
40224W        W 5209  24.590  11.411   1.679
40225W        W 5210  37.505   9.457   9.752
40226W        W 5211  33.804  28.151   0.763
40227W        W 5212  17.411  28.769   3.891
40228W        W 5213  35.327  39.928   2.170
40229W        W 5214  17.125   3.476   2.890
40230W        W 5215  27.476  39.318   1.053
40231W        W 5216  12.285  16.751   1.201
40232W        W 5217  40.021   3.260  12.961
40233W        W 5218  21.643  34.623  12.847
40234W        W 5219  18.751  25.345   4.870
40235W        W 5220  39.233  42.418  13.059
40236W        W 5221   4.247  43.942  10.678
40237W        W 5222  16.476  12.169  12.602
40238W        W 5223   5.929   3.832  13.538
40239W        W 5224   5.851  42.775  13.551
40240W        W 5225   9.258  14.607   3.815
40241W        W 5226  20.677  21.813   3.344
40242W        W 5227   7.986  23.287  11.971
40243W        W 5228  36.548  44.434  13.519
40244W        W 5229   6.947  20.012   0.439
40245W        W 5230  22.034  12.050   0.739
40246W        W 5231  18.043  27.640   3.701
40247W        W 5232  30.234   1.937  10.340
40248W        W 5233  27.192   4.783   1.527
40249W        W 5234  42.499  16.687  11.813
40250W        W 5235   3.208   7.572   5.219
40251W        W 5236   4.392  39.354   2.362
40252W        W 5237   5.465  38.969  13.660
40253W        W 5238  42.989  38.054   2.676
40254W        W 5239  36.981  25.188  11.463
40255W        W 5240   0.984  22.085   1.967
40256W        W 5241  18.639  42.210  11.206
40257W        W 5242  16.084  28.011  14.759
40258W        W 5243   5.529   4.762   5.429
40259W        W 5244  31.568  13.182  10.982
40260W        W 5245  36.589  21.093  12.886
40261W        W 5246  39.807  37.560   3.121
40262W        W 5247  15.746  20.607   0.862
40263W        W 5248  31.832  41.857  10.736
40264W        W 5249  26.494  31.055   4.186
40265W        W 5250  33.255  16.038  12.722
40266W        W 5251  11.308   0.837   4.478
40267W        W 5252   0.889  29.801   3.244
40268W        W 5253  29.561   8.966   3.211
40269W        W 5254  24.572  12.249   4.383
40270W        W 5255  27.224  35.955  13.814
40271W        W 5256  40.294  15.235  14.996
40272W        W 5257  32.654  36.704   4.189
40273W        W 5258  17.868  10.770   2.891
40274W        W 5259  21.444   0.367  10.759
40275W        W 5260  34.893  31.921   2.249
40276W        W 5261  31.518  41.429  10.681
40277W        W 5262  20.847  11.746  12.812
40278W        W 5263  41.263  33.441  10.510
40279W        W 5264   2.669  10.512   3.204
40280W        W 5265  40.774  19.096   1.408
40281W        W 5266  14.035   5.555  14.752
40282W        W 5267  15.832   1.517  12.505
40283W        W 5268   2.665  26.461   2.703
40284W        W 5269  27.381  22.519   0.273
40285W        W 5270  35.998   5.359   0.741
40286W        W 5271  10.576  32.830   3.728
40287W        W 5272  27.108  39.859   4.152
40288W        W 5273  10.097  15.659   3.158
40289W        W 5274   1.913  44.365   1.654
40290W        W 5275   8.146  11.284   4.712
40291W        W 5276   4.872  41.839  11.699
40292W        W 5277  34.863   6.228  14.955
40293W        W 5278   6.481  22.182   0.798
40294W        W 5279  27.611  38.534   4.406
40295W        W 5280   9.366  31.266  14.838
40296W        W 5281  13.130  35.925   0.904
40297W        W 5282  13.386  37.121  13.316
40298W        W 5283  43.794  16.191   4.541
40299W        W 5284  33.626  16.542   0.913
40300W        W 5285  33.651   6.644  12.512
40301W        W 5286  36.415  42.311   3.251
40302W        W 5287   9.573   0.329   1.664
40303W        W 5288   7.284  18.561  13.389
40304W        W 5289   2.489   1.210   0.460
40305W        W 5290  32.609  34.322   3.074
40306W        W 5291  30.402  24.526   1.318
40307W        W 5292   8.264  29.870   0.488
40308W        W 5293  10.388  15.136   1.952
40309W        W 5294   2.888  25.433   1.688
40310W        W 5295   0.580  13.718   1.803
40311W        W 5296  35.385  10.136   3.551
40312W        W 5297  23.213   5.569   0.841
40313W        W 5298   9.111  34.572  11.011
40314W        W 5299  18.489  22.742  12.554
40315W        W 5300  43.724  26.486  12.010
40316W        W 5301  33.552   0.786  13.910
40317W        W 5302   5.207  38.959   4.339
40318W        W 5303  21.250  16.236   3.582
40319W        W 5304  11.742  42.227  11.503
40320W        W 5305  37.080  26.700  13.971
40321W        W 5306   9.567  29.548   5.004
40322W        W 5307  14.570  29.150  12.573
40323W        W 5308  43.114  33.966   0.753
40324W        W 5309  21.958  36.057   2.844
40325W        W 5310   6.376  14.418  12.057
40326W        W 5311  41.943  42.499   3.870
40327W        W 5312  11.101  11.244   1.767
40328W        W 5313   1.272  21.193   4.915
40329W        W 5314  10.642   1.928  11.592
40330W        W 5315  30.454  36.245   3.692
40331W        W 5316  34.700  13.936   4.387
40332W        W 5317   4.504  22.961   4.245
40333W        W 5318  36.288   9.311  14.956
40334W        W 5319  31.964  33.407  10.737
40335W        W 5320   9.088  12.551   2.664
40336W        W 5321  44.459  16.811   3.648
40337W        W 5322  19.730  10.276   1.662
40338W        W 5323  35.926  25.644   3.304
40339W        W 5324  31.951  35.622  14.927
40340W        W 5325  34.522  43.282   3.993
40341W        W 5326   0.535  26.043  12.225
40342W        W 5327   6.641  32.091  14.194
40343W        W 5328  25.909   1.968  13.543
40344W        W 5329  36.079  27.628  14.294
40345W        W 5330  11.688  18.278   4.261
40346W        W 5331  15.396  26.135   3.589
40347W        W 5332   5.356  10.727   3.329
40348W        W 5333  23.103  11.215  14.147
40349W        W 5334  21.236  29.645   0.612
40350W        W 5335   2.363  30.042   1.912
40351W        W 5336  43.266  32.049   4.897
40352W        W 5337  36.414  42.052  14.840
40353W        W 5338   7.193  22.375  14.625
40354W        W 5339  15.327  16.143  13.856
40355W        W 5340  39.823  23.734  10.695
40356W        W 5341  10.031  20.446   1.370
40357W        W 5342  16.358  19.523  11.042
40358W        W 5343  31.700  34.121   2.812
40359W        W 5344  26.087  15.472  10.165
40360W        W 5345  29.609  38.601   3.184
40361W        W 5346  26.620  10.128  14.364
40362W        W 5347  26.134  29.870  14.960
40363W        W 5348  18.419   6.591   5.196
40364W        W 5349  21.526   0.818   2.604
40365W        W 5350   7.598  25.537   0.215
40366W        W 5351  30.857  14.219   3.297
40367W        W 5352  12.564  14.285   0.991
40368W        W 5353   1.799  11.192   2.590
40369W        W 5354  19.210  37.990  14.419
40370W        W 5355  10.925  28.582  11.129
40371W        W 5356  35.433  30.344  11.567
40372W        W 5357   6.818  32.588  12.485
40373W        W 5358  43.092   7.553   1.493
40374W        W 5359  36.827  18.672  14.338
40375W        W 5360  37.279  32.308  11.158
40376W        W 5361  36.361  28.954  10.733
40377W        W 5362  13.847  13.704   4.846
40378W        W 5363   1.774   5.931  13.907
40379W        W 5364   8.206  12.261   2.199
40380W        W 5365  32.072  42.546   2.376
40381W        W 5366  36.864  41.546  10.775
40382W        W 5367  43.970  29.935   0.645
40383W        W 5368  20.597   7.906   4.248
40384W        W 5369  11.239  33.638   2.835
40385W        W 5370  29.795   2.871  12.830
40386W        W 5371  25.423  27.597  11.515
40387W        W 5372  43.873  31.967   0.498
40388W        W 5373  42.361   3.286  11.202
40389W        W 5374  36.957  17.988   4.717
40390W        W 5375   3.734  12.120   3.145
40391W        W 5376  33.730  20.100   1.294
40392W        W 5377  20.947  40.626   1.896
40393W        W 5378   2.303  20.758  11.593
40394W        W 5379  27.125  14.297   3.753
40395W        W 5380  34.561  20.224   0.960
40396W        W 5381  17.942  36.899  10.907
40397W        W 5382  17.561  34.653   0.076
40398W        W 5383  24.449  28.665   2.231
40399W        W 5384  28.088   9.637  13.918
40400W        W 5385   6.917   4.434   2.629
40401W        W 5386   6.761  31.142   1.356
40402W        W 5387  42.472  29.964   0.350
40403W        W 5388  17.636   3.652   2.642
40404W        W 5389  42.231  43.924   1.929
40405W        W 5390  10.317   0.228  11.818
40406W        W 5391  42.116  14.251   4.555
40407W        W 5392   1.219  13.098   2.351
40408W        W 5393  27.083  10.721   4.594
40409W        W 5394  29.214  31.727  14.038
40410W        W 5395   9.320  33.760   3.839
40411W        W 5396  14.589  31.437   1.882
40412W        W 5397  20.191  41.973   0.297
40413W        W 5398  28.509  34.599   3.168
40414W        W 5399   2.868  27.967  11.618
40415W        W 5400  15.376  35.911  11.273
40416W        W 5401  39.890  18.344  13.805
40417W        W 5402  38.303  18.018  12.457
40418W        W 5403  37.536   0.974  13.081
40419W        W 5404  13.144  37.937   4.358
40420W        W 5405  19.293  13.150  11.015
40421W        W 5406   0.857  44.853   3.293
40422W        W 5407  18.161  29.245   1.871
40423W        W 5408  11.743  34.314  12.068
40424W        W 5409  21.459  34.099  10.624
40425W        W 5410  33.961   8.710   3.714
40426W        W 5411   3.049  27.975   4.637
40427W        W 5412  38.725  14.055   2.237
40428W        W 5413   1.461  38.311  14.681
40429W        W 5414  34.812  44.904   4.379
40430W        W 5415  10.677  17.743  12.037
40431W        W 5416  24.921  38.557  13.175
40432W        W 5417  30.639  42.902   0.932
40433W        W 5418   7.870   3.801   0.937
40434W        W 5419  11.268   4.256  13.212
40435W        W 5420  25.119  40.392   4.523
40436W        W 5421   2.111   5.862  11.188
40437W        W 5422  13.392  16.266   4.478
40438W        W 5423  19.516  25.573  14.758
40439W        W 5424   8.597   0.054  13.838
40440W        W 5425  25.910  31.608   2.904
40441W        W 5426  30.960  18.080  12.461
40442W        W 5427   7.147  37.003  10.631
40443W        W 5428  21.091   2.196   2.736
40444W        W 5429  32.566   5.259  13.807
40445W        W 5430  44.973   1.186  13.899
40446W        W 5431  16.312  12.950  13.987
40447W        W 5432  22.088  24.291   5.009
40448W        W 5433  39.392  38.367   2.662
40449W        W 5434  21.967  28.062   3.410
40450W        W 5435   9.731  39.884  11.202
40451W        W 5436  27.372   4.134  14.761
40452W        W 5437  44.792  25.219   3.956
40453W        W 5438  20.409  23.600   4.083
40454W        W 5439  13.688  44.966   1.379
40455W        W 5440   1.068  29.322   3.289
40456W        W 5441  14.165  34.992  13.976
40457W        W 5442  42.979  40.255  12.370
40458W        W 5443  20.254  28.714  13.387
40459W        W 5444  32.987  41.403   2.215
40460W        W 5445   8.859  42.514  14.435
40461W        W 5446  20.120  12.678   4.354
40462W        W 5447   7.183   6.264  12.063
40463W        W 5448  24.217   5.831  10.269
40464W        W 5449  19.083  21.988  12.376
40465W        W 5450   0.676  22.843   3.392
40466W        W 5451  31.846   7.113  10.749
40467W        W 5452  26.404   1.671   3.861
40468W        W 5453  15.931  33.458  13.107
40469W        W 5454  31.013   8.629  14.100
40470W        W 5455  41.907  24.622   3.698
40471W        W 5456  15.803  36.699  11.119
40472W        W 5457  38.111   4.957   3.426
40473W        W 5458   5.311   9.418  12.626
40474W        W 5459  13.892  37.518  11.167
40475W        W 5460  22.975   8.824  14.396
40476W        W 5461  24.498  36.570   3.869
40477W        W 5462  35.820   3.849  14.585
40478W        W 5463  31.997  18.648  12.036
40479W        W 5464   1.943  37.955  14.759
40480W        W 5465  34.518   7.982  11.973
40481W        W 5466  11.332   6.707   1.793
40482W        W 5467  30.574  38.439  14.984
40483W        W 5468  29.810   7.232  11.042
40484W        W 5469  17.990   9.042  12.458
40485W        W 5470  35.594  43.788  14.785
40486W        W 5471   0.871  13.863   3.679
40487W        W 5472  27.025   6.961   3.695
40488W        W 5473  23.965  41.588   0.286
40489W        W 5474  27.178  13.547   4.856
40490W        W 5475   9.975  15.205  14.369
40491W        W 5476  23.252  21.988   1.428
40492W        W 5477  37.319  10.747  13.971
40493W        W 5478  35.927   3.726  12.882
40494W        W 5479  32.608   6.950   0.142
40495W        W 5480   2.988  41.448   4.275
40496W        W 5481   3.367  33.100   2.673
40497W        W 5482  18.301   1.881   0.512
40498W        W 5483  36.356  15.632   0.473
40499W        W 5484  28.249  27.823  13.644
40500W        W 5485  40.360  25.735   3.039
40501W        W 5486  30.785  18.328   1.794
40502W        W 5487   5.414  12.261  12.146
40503W        W 5488  31.291  27.742   4.046
40504W        W 5489  25.176  15.468  12.474
40505W        W 5490  24.121  17.176  11.124
40506W        W 5491  42.968   7.456  11.518
40507W        W 5492  12.742   2.723   4.518
40508W        W 5493   1.681  12.107  12.825
40509W        W 5494   6.715   4.099  13.943
40510W        W 5495   4.965  24.087  13.840
40511W        W 5496  29.089  10.445  12.753
40512W        W 5497  18.142  22.493  12.868
40513W        W 5498   8.333  35.991  11.170
40514W        W 5499  23.101  21.453  11.103
40515W        W 5500   0.954  39.045   2.186
40516W        W 5501  36.607  33.356  12.926
40517W        W 5502  18.657  18.309   3.584
40518W        W 5503   6.333  39.855   1.454
40519W        W 5504  20.081  17.537  12.931
40520W        W 5505  16.325  27.088  12.492
40521W        W 5506   9.089  19.598   4.915
40522W        W 5507  36.518  25.708  14.962
40523W        W 5508  12.391  36.955   4.709
40524W        W 5509  26.487  18.702   1.690
40525W        W 5510  29.190  32.116   4.181
40526W        W 5511  17.717  33.368   1.297
40527W        W 5512   7.193  14.885  14.840
40528W        W 5513  30.303   4.663  14.257
40529W        W 5514  39.040  37.467   4.069
40530W        W 5515   9.425  21.259  10.985
40531W        W 5516   6.843  42.382  12.842
40532W        W 5517  44.233  17.207   2.484
40533W        W 5518   8.191  33.306  14.919
40534W        W 5519  42.427  38.955   9.714
40535W        W 5520  34.330  30.892  12.205
40536W        W 5521   1.911  43.614  14.443
40537W        W 5522  32.817  32.225   0.774
40538W        W 5523  19.655  40.097  13.979
40539W        W 5524   4.219  17.208  12.570
40540W        W 5525  42.938   1.426   0.632
40541W        W 5526   5.187  26.502  12.947
40542W        W 5527  33.032  41.434  14.509
40543W        W 5528  35.702  42.296   1.867
40544W        W 5529   5.662   4.636   4.424
40545W        W 5530  16.281  39.147  12.043
40546W        W 5531   5.979  16.392  14.833
40547W        W 5532  44.883  40.897   1.189
40548W        W 5533  42.079   7.252   2.227
40549W        W 5534   9.975  29.603   2.488
40550W        W 5535  28.651  11.425  11.744
40551W        W 5536   3.904  18.507   0.498
40552W        W 5537  17.549  18.637   4.487
40553W        W 5538  33.757  26.574   2.652
40554W        W 5539  24.688  38.072  13.951
40555W        W 5540  32.875  40.978  10.646
40556W        W 5541  23.395  23.670  14.973
40557W        W 5542  24.034  10.840  12.179
40558W        W 5543   4.206  44.847   1.679
40559W        W 5544  30.040  37.894  11.990
40560W        W 5545  23.688  30.197   3.137
40561W        W 5546  29.156  21.446  13.585
40562W        W 5547  44.612  38.355  12.224
40563W        W 5548  31.365  33.463   0.745
40564W        W 5549   0.515  13.248   2.862
40565W        W 5550  20.590  11.299  13.817
40566W        W 5551  38.448  27.530  11.126
40567W        W 5552  35.081  38.370  13.557
40568W        W 5553  13.623  32.328   3.151
40569W        W 5554  10.909  20.753  14.324
40570W        W 5555  44.395  33.135   2.023
40571W        W 5556  24.732  21.510   4.937
40572W        W 5557  18.660   7.897  14.946
40573W        W 5558  27.306  24.151  14.798
40574W        W 5559  35.096   9.837   1.430
40575W        W 5560   3.915  33.110   4.398
40576W        W 5561  38.738   6.200   1.476
40577W        W 5562  43.055  28.676  11.132
40578W        W 5563  11.223   5.301  14.501
40579W        W 5564  13.152   4.910   3.988
40580W        W 5565  24.105  28.889   3.887
40581W        W 5566   0.782   6.181   3.669
40582W        W 5567  23.697  22.323   1.337
40583W        W 5568  37.338  24.975   3.312
40584W        W 5569  12.330  39.374   2.300
40585W        W 5570  44.196  33.992   3.205
40586W        W 5571   3.843  18.553   1.301
40587W        W 5572   6.886  42.546  14.830
40588W        W 5573  36.011  23.417   1.230
40589W        W 5574  22.262  21.573  13.056
40590W        W 5575   5.306  36.073  14.367
40591W        W 5576  18.295  10.767  10.848
40592W        W 5577  39.518  24.467   2.940
40593W        W 5578  36.377  35.971  11.600
40594W        W 5579  30.445  16.654  12.516
40595W        W 5580   2.862  19.473   1.933
40596W        W 5581  44.386  21.219   3.605
40597W        W 5582  18.242   0.881   4.528
40598W        W 5583  12.686   3.426  14.454
40599W        W 5584  35.631  42.896   2.712
40600W        W 5585   0.475  26.080   2.853
40601W        W 5586  22.931  36.545  11.034
40602W        W 5587   3.832  31.901  12.860
40603W        W 5588  26.529  16.122  12.744
40604W        W 5589  27.970  25.386   5.117
40605W        W 5590  20.716  31.791   4.697
40606W        W 5591   1.749   7.074  13.333
40607W        W 5592  41.834  23.890  14.363
40608W        W 5593   7.209  33.359  13.596
40609W        W 5594   2.387  24.203   3.195
40610W        W 5595  30.815   3.316  10.492
40611W        W 5596  33.869   4.219  13.489
40612W        W 5597  16.525   0.537  13.920
40613W        W 5598  28.626   5.257   1.659
40614W        W 5599  42.761  31.216  12.001
40615W        W 5600  36.899  30.384  12.600
40616W        W 5601  20.239  23.656   1.723
40617W        W 5602  37.449   6.205   2.764
40618W        W 5603  23.712  28.245   0.327
40619W        W 5604   1.480   6.646   3.719
40620W        W 5605  26.052  38.578  12.333
40621W        W 5606  19.470   0.433  14.392
40622W        W 5607  42.993  43.365  12.882
40623W        W 5608   2.520   7.164  10.067
40624W        W 5609  12.938  40.018  11.978
40625W        W 5610   3.321  10.694  11.052
40626W        W 5611   3.440  19.286   0.217
40627W        W 5612  23.713  35.814  13.036
40628W        W 5613  42.890  29.179  12.408
40629W        W 5614  33.015  19.991  13.467
40630W        W 5615  22.186   1.238   0.591
40631W        W 5616  34.897  27.166   4.053
40632W        W 5617  44.894  34.413   3.656
40633W        W 5618  16.249  20.192   1.934
40634W        W 5619  33.232  11.627   1.312
40635W        W 5620  28.438  14.336  11.524
40636W        W 5621  24.197   5.649  14.359
40637W        W 5622  25.999  38.814   2.562
40638W        W 5623  23.612  38.532  11.290
40639W        W 5624   7.264  22.309   3.700
40640W        W 5625  21.060  34.006   3.684
40641W        W 5626  31.388  15.139  11.957
40642W        W 5627  16.073  34.066   1.720
40643W        W 5628  13.521  29.016   3.307
40644W        W 5629  22.521  40.860  10.273
40645W        W 5630  34.175  21.623   2.401
40646W        W 5631  26.686  36.824  13.900
40647W        W 5632   1.947  12.821   0.442
40648W        W 5633  39.765  14.088   0.903
40649W        W 5634  35.206  24.636   2.687
40650W        W 5635  19.076  27.130  10.662
40651W        W 5636  13.090   9.348  12.705
40652W        W 5637  29.198  39.444   0.363
40653W        W 5638  11.086  34.077   3.436
40654W        W 5639  37.871   1.615  13.041
40655W        W 5640  32.927  33.480   1.885
40656W        W 5641  26.828   8.882  10.271
40657W        W 5642  25.749   9.150  13.183
40658W        W 5643  36.472  19.067   2.183
40659W        W 5644  22.822  40.468   2.008
40660W        W 5645   6.974  28.096  11.106
40661W        W 5646  42.996  14.613  11.557
40662W        W 5647  21.693  16.392   4.172
40663W        W 5648  32.642  18.402  11.254
40664W        W 5649   2.372  36.465   3.593
40665W        W 5650  30.550   2.723   5.635
40666W        W 5651  11.607  11.405  13.373
40667W        W 5652  31.187  39.500   2.116
40668W        W 5653  21.018  42.817   2.297
40669W        W 5654  23.167  39.617  10.989
40670W        W 5655  16.526   1.247  13.156
40671W        W 5656  27.327  21.656  14.007
40672W        W 5657  15.329  15.274  13.738
40673W        W 5658  21.955   1.402  11.187
40674W        W 5659  36.245  29.597  13.450
40675W        W 5660  18.548  10.107  13.431
40676W        W 5661   0.679  19.643   5.026
40677W        W 5662  30.902  37.472   3.357
40678W        W 5663  18.584  11.196  13.325
40679W        W 5664  31.089  36.498   0.372
40680W        W 5665  29.560  27.998  12.376
40681W        W 5666  29.376  42.319   3.154
40682W        W 5667  25.029  25.140   3.115
40683W        W 5668  22.416  11.661  14.427
40684W        W 5669  28.919  42.654   0.327
40685W        W 5670  37.385  39.369  12.755
40686W        W 5671  16.217   0.764  14.340
40687W        W 5672   6.913   6.939  11.193
40688W        W 5673  19.246  19.214  12.218
40689W        W 5674  44.211   5.238  12.033
40690W        W 5675  22.501  27.824   2.744
40691W        W 5676  18.467  40.846   4.053
40692W        W 5677  30.902  44.879  13.756
40693W        W 5678  22.552  17.283   2.267
40694W        W 5679  10.591  25.175   2.661
40695W        W 5680  30.146  26.219   3.357
40696W        W 5681  19.137  42.761   1.790
40697W        W 5682   1.346  41.173  14.408
40698W        W 5683   4.702  19.255  10.627
40699W        W 5684  10.713  24.882  13.522
40700W        W 5685   6.869  26.818  10.569
40701W        W 5686  43.355   1.194  13.430
40702W        W 5687  31.862  36.316   2.610
40703W        W 5688  11.202   0.727   2.260
40704W        W 5689  38.618  29.588  11.149
40705W        W 5690  31.906   9.362  10.292
40706W        W 5691  31.525  16.357   2.139
40707W        W 5692  40.840  29.994  13.982
40708W        W 5693  43.590   7.301   2.400
40709W        W 5694  37.591  18.562   1.911
40710W        W 5695  29.925  38.186  12.483
40711W        W 5696  14.318  33.569   1.379
40712W        W 5697   8.142  29.162   1.727
40713W        W 5698   6.290  41.960   4.503
40714W        W 5699  16.281  11.600  10.980
40715W        W 5700   6.216  33.059   3.268
40716W        W 5701  36.797  35.353  12.318
40717W        W 5702  29.140  12.863   2.098
40718W        W 5703  30.282  26.553  12.528
40719W        W 5704  29.149  44.792   4.075
40720W        W 5705  42.345   7.439  14.878
40721W        W 5706   7.488  14.843  13.969
40722W        W 5707  22.734  10.484  13.880
40723W        W 5708   9.899  27.067  13.013
40724W        W 5709  39.604  21.600  11.367
40725W        W 5710   5.478  40.876   4.517
40726W        W 5711  21.690  32.944  12.347
40727W        W 5712  26.780  43.349  11.584
40728W        W 5713  36.325  10.612   3.231
40729W        W 5714  33.402  20.488   1.309
40730W        W 5715  43.958  19.318  11.411
40731W        W 5716  22.635  37.989   0.213
40732W        W 5717  15.258  31.855  14.846
40733W        W 5718  15.196  35.317   3.377
40734W        W 5719   2.736  42.389   2.781
40735W        W 5720  43.866  17.577   2.973
40736W        W 5721  26.942   7.825  14.377
40737W        W 5722  37.058  29.891  12.527
40738W        W 5723  40.500  42.755   1.194
40739W        W 5724  19.660   1.342   4.434
40740W        W 5725  36.379  36.759  13.918
40741W        W 5726  16.214   2.223  10.882
40742W        W 5727  39.436   4.977   0.852
40743W        W 5728  16.798   4.657   0.794
40744W        W 5729  15.632  44.802   1.467
40745W        W 5730  31.359  13.305   1.866
40746W        W 5731  35.453  22.406  14.188
40747W        W 5732  44.690  15.748   0.988
40748W        W 5733  26.984  11.221   2.341
40749W        W 5734  16.697  19.316   2.154
40750W        W 5735  15.799  26.676  12.064
40751W        W 5736   0.281  18.474  14.040
40752W        W 5737   2.814  37.821  10.673
40753W        W 5738  28.674  42.038  10.566
40754W        W 5739  39.914   1.722  14.983
40755W        W 5740  40.258  29.920   1.370
40756W        W 5741  31.642  35.885  10.568
40757W        W 5742  13.231  37.796  11.583
40758W        W 5743  29.002  40.851   0.492
40759W        W 5744  15.317  17.238  11.433
40760W        W 5745  13.395   1.353   4.578
40761W        W 5746   1.348  25.334  13.581
40762W        W 5747  12.929   3.886  11.545
40763W        W 5748  14.804  41.922  14.427
40764W        W 5749   2.159   6.237   3.256
40765W        W 5750  21.138  43.872   9.916
40766W        W 5751  39.992  33.529   3.214
40767W        W 5752  32.625   3.838  11.534
40768W        W 5753   1.649  43.726   0.468
40769W        W 5754  40.877  22.311   3.248
40770W        W 5755   6.780   5.095  13.935
40771W        W 5756  43.876   1.063   1.482
40772W        W 5757  34.913  14.189  14.105
40773W        W 5758  34.333  17.565  14.448
40774W        W 5759  14.885   3.099  14.976
40775W        W 5760   4.860  37.122  11.609
40776W        W 5761   3.289  44.696   2.818
40777W        W 5762  42.539  23.542   2.110
40778W        W 5763  23.209  32.980  11.856
40779W        W 5764  18.187  24.641  11.693
40780W        W 5765  39.811  35.880  14.983
40781W        W 5766  39.827  14.335  13.075
40782W        W 5767   9.387  15.891   5.086
40783W        W 5768  26.947  43.723  12.952
40784W        W 5769   3.436   8.678  13.096
40785W        W 5770  25.850  31.120   3.528
40786W        W 5771   8.981  39.932   0.254
40787W        W 5772  32.387  23.101   0.220
40788W        W 5773   5.830   4.203   4.101
40789W        W 5774   5.491  41.828  14.460
40790W        W 5775  23.048  28.139  11.244
40791W        W 5776  28.963   1.167   4.175
40792W        W 5777   2.564  18.351  10.825
40793W        W 5778  21.504  40.014  13.955
40794W        W 5779  34.898  23.396  13.828
40795W        W 5780   4.603  40.049   4.601
40796W        W 5781  42.241  41.756  14.028
40797W        W 5782   2.369   6.690   3.141
40798W        W 5783  44.026  21.590   3.586
40799W        W 5784  16.653  43.599  14.936
40800W        W 5785  38.847  13.776  11.412
40801W        W 5786  17.188  40.012  12.607
40802W        W 5787  15.193   2.302   0.026
40803W        W 5788   3.990  41.388  13.958
40804W        W 5789  44.081  30.069  14.781
40805W        W 5790  38.040  27.607   3.262
40806W        W 5791  35.886  20.512  13.011
40807W        W 5792  18.157  25.683   2.965
40808W        W 5793  17.155  15.025  11.500
40809W        W 5794  12.891  37.327  14.322
40810W        W 5795  31.321   7.747   2.231
40811W        W 5796  30.019  35.294   3.568
40812W        W 5797  29.382  22.318   1.906
40813W        W 5798  28.949  20.589   3.092
40814W        W 5799  39.932  31.809  12.090
40815W        W 5800  34.442  27.660   0.968
40816W        W 5801  10.255   4.328  11.718
40817W        W 5802  10.098  37.447   4.952
40818W        W 5803  42.330  40.332   2.871
40819W        W 5804  20.792  43.583   0.694
40820W        W 5805  29.096   3.828   3.673
40821W        W 5806  10.769  13.990   0.022
40822W        W 5807  11.200  43.478  10.531
40823W        W 5808  10.664  12.738   1.260
40824W        W 5809  42.950  10.781   2.200
40825W        W 5810  12.274  20.149   1.656
40826W        W 5811   2.441  18.062   1.786
40827W        W 5812  32.262  33.419   9.876
40828W        W 5813  41.784  20.675   0.022
40829W        W 5814  12.520  12.250  14.030
40830W        W 5815  29.495  21.648  10.500
40831W        W 5816  19.969  41.616   0.718
40832W        W 5817  26.814  13.607  12.693
40833W        W 5818   1.846  16.781  11.647
40834W        W 5819  30.870  36.586   4.746
40835W        W 5820   8.616  32.106  14.066
40836W        W 5821  36.486  26.646  11.946
40837W        W 5822  10.520  25.092  10.197
40838W        W 5823  15.655  30.162   2.913
40839W        W 5824  24.041  23.991  12.026
40840W        W 5825  25.894  23.830  13.124
40841W        W 5826  36.634   7.711   1.166
40842W        W 5827  30.498   2.230   1.856
40843W        W 5828  35.522  25.056   2.760
40844W        W 5829  11.729   6.658  14.487
40845W        W 5830  15.585  38.079   1.847
40846W        W 5831  38.950  34.352  13.353
40847W        W 5832   6.273  15.677   1.388
40848W        W 5833  43.292  23.155  13.367
40849W        W 5834   7.206  13.436   0.901
40850W        W 5835   8.349  28.660   2.322
40851W        W 5836  10.903  12.650   1.721
40852W        W 5837  36.960   7.936   0.755
40853W        W 5838  33.730  39.427   1.905
40854W        W 5839  26.950  33.901   4.173
40855W        W 5840  43.291  21.834  12.099
40856W        W 5841  31.712  33.565  13.100
40857W        W 5842   8.923  34.057  11.532
40858W        W 5843  37.918  29.062   4.667
40859W        W 5844  23.628  17.311   1.752
40860W        W 5845   9.325  16.922  14.862
40861W        W 5846   6.514  38.409   1.173
40862W        W 5847  40.666  31.629  10.587
40863W        W 5848   8.305  34.571   4.282
40864W        W 5849  13.132  28.152   2.420
40865W        W 5850   0.446  16.273   4.580
40866W        W 5851  17.238  20.598   2.742
40867W        W 5852  22.410   2.240  14.829
40868W        W 5853   4.306   1.703  12.524
40869W        W 5854  23.264   5.811   4.106
40870W        W 5855   2.394  44.445  10.743
40871W        W 5856  39.720   9.281  11.159
40872W        W 5857  20.059  15.651  11.571
40873W        W 5858   4.504  13.153   4.303
40874W        W 5859  33.824  19.810   1.723
40875W        W 5860  19.573   7.444  10.178
40876W        W 5861  31.368  29.091   1.386
40877W        W 5862  32.501  17.859  12.124
40878W        W 5863   5.898  33.960  13.344
40879W        W 5864  32.004  23.416  11.223
40880W        W 5865  38.397   0.318   4.536
40881W        W 5866  36.058  21.851  11.510
40882W        W 5867   8.169  12.870  11.879
40883W        W 5868  19.607  19.793   0.449
40884W        W 5869   2.334  28.778   1.867
40885W        W 5870   4.822  31.676   1.883
40886W        W 5871  17.677   5.851   3.178
40887W        W 5872  34.670  34.027  10.672
40888W        W 5873  43.863  37.934  12.916
40889W        W 5874  27.150  39.353   3.317
40890W        W 5875  16.785   8.688  14.481
40891W        W 5876  27.817   4.356  11.158
40892W        W 5877  36.624  20.989  13.396
40893W        W 5878   0.777  21.080   3.230
40894W        W 5879  21.683  26.489  14.820
40895W        W 5880  16.856  35.287   0.204
40896W        W 5881  29.637  17.697   2.804
40897W        W 5882  32.360  32.431  10.829
40898W        W 5883   1.679  38.883  11.627
40899W        W 5884  37.543  31.038   1.202
40900W        W 5885  28.616   0.261  14.748
40901W        W 5886   8.351  29.211  12.291
40902W        W 5887  44.458  21.520  11.522
40903W        W 5888  17.324   5.395  14.993
40904W        W 5889  22.778  22.534  11.361
40905W        W 5890  41.008  43.462   0.770
40906W        W 5891  30.442  19.976  14.298
40907W        W 5892  39.278  39.992   2.405
40908W        W 5893  23.922  22.646   2.839
40909W        W 5894  34.644  28.167   0.469
40910W        W 5895  11.521  42.638   4.462
40911W        W 5896  19.950  24.885   0.256
40912W        W 5897  17.608  42.254   2.974
40913W        W 5898   3.506  11.579  12.125
40914W        W 5899   7.888  44.408   4.854
40915W        W 5900  14.829  37.056  12.590
40916W        W 5901  18.773  41.543   0.339
40917W        W 5902  23.230   9.273  14.456
40918W        W 5903   2.749   9.500  11.233
40919W        W 5904   3.419  15.623  14.514
40920W        W 5905  20.440   4.596  13.043
40921W        W 5906  17.807  15.125   2.959
40922W        W 5907  37.975  44.540   0.374
40923W        W 5908  44.820   1.391   4.508
40924W        W 5909  28.066  18.612  13.742
40925W        W 5910  21.712  43.953  14.036
40926W        W 5911  26.766   3.400  14.434
40927W        W 5912   0.739   3.796   0.355
40928W        W 5913  10.200  15.994   0.784
40929W        W 5914  38.078  26.224   1.849
40930W        W 5915  27.229   4.817   4.346
40931W        W 5916   9.694  22.004   2.322
40932W        W 5917   4.699  43.640  13.479
40933W        W 5918  30.948   2.289   0.449
40934W        W 5919  18.204   0.111  11.642
40935W        W 5920   4.163  14.311   3.741
40936W        W 5921  13.576  12.444  14.836
40937W        W 5922  37.094  19.649  13.002
40938W        W 5923  14.701  34.893   3.688
40939W        W 5924   2.265  22.185   3.347
40940W        W 5925  33.394  41.100  12.532
40941W        W 5926   3.437  40.553   0.847
40942W        W 5927  36.467  12.238   0.381
40943W        W 5928  40.560  12.715   2.445
40944W        W 5929  27.445  17.405   1.154
40945W        W 5930  31.622  38.986  13.090
40946W        W 5931   6.921   9.795   0.831
40947W        W 5932  43.997  41.504   1.322
40948W        W 5933  10.633  34.053   0.255
40949W        W 5934  13.178  24.748  13.518
40950W        W 5935  39.370  32.721   5.235
40951W        W 5936   9.275   1.913   4.189
40952W        W 5937  28.469  28.599  13.248
40953W        W 5938  10.156  17.731   1.477
40954W        W 5939  19.125  16.607   1.814
40955W        W 5940  43.550  40.336   0.874
40956W        W 5941  28.121  25.558  13.551
40957W        W 5942   1.527   6.746   2.116
40958W        W 5943  14.539  12.046  12.556
40959W        W 5944  34.500   7.765  14.744
40960W        W 5945  22.244  21.650   0.907
40961W        W 5946  19.049  38.604   1.816
40962W        W 5947  20.641   9.159  12.388
40963W        W 5948   6.848  23.926  14.695
40964W        W 5949  30.924   2.652   5.189
40965W        W 5950  14.884  13.258  10.853
40966W        W 5951  26.244  40.167   2.699
40967W        W 5952  37.432  44.216   2.768
40968W        W 5953  20.321  29.514   0.817
40969W        W 5954  31.585  10.700   2.742
40970W        W 5955  28.493  14.753  14.906
40971W        W 5956  10.932   0.407   0.361
40972W        W 5957  36.881  34.538  12.494
40973W        W 5958  43.345  43.961   3.677
40974W        W 5959  35.471  21.018  13.804
40975W        W 5960  21.099   4.469   4.621
40976W        W 5961  29.793  26.713  12.487
40977W        W 5962  26.661   7.474   1.805
40978W        W 5963   9.967  17.923  11.698
40979W        W 5964  12.719   1.792   4.491
40980W        W 5965  25.453  29.025  11.572
40981W        W 5966   2.709  13.327  11.565
40982W        W 5967   3.254  30.656  14.425
40983W        W 5968  24.966  38.540   2.711
40984W        W 5969  32.551  20.404   1.253
40985W        W 5970  35.723  15.539   0.461
40986W        W 5971  33.495   8.666   1.132
40987W        W 5972  38.848  36.897   0.765
40988W        W 5973  37.818  26.092   2.330
40989W        W 5974  28.496  27.161   0.886
40990W        W 5975  10.242  24.008  12.799
40991W        W 5976  15.742  25.954  13.468
40992W        W 5977  26.141  13.270  13.578
40993W        W 5978  32.619  27.485  10.876
40994W        W 5979   4.441  42.378  11.637
40995W        W 5980   6.657  43.002   3.269
40996W        W 5981  23.735  44.980  13.011
40997W        W 5982   8.724  25.917  12.421
40998W        W 5983  18.984  31.166   1.450
40999W        W 5984  37.324  10.597  14.966
41000W        W 5985  44.532   5.125  13.920
41001W        W 5986  24.509   2.220   0.607
41002W        W 5987  37.592  34.147  14.356
41003W        W 5988  35.882  38.430  13.075
41004W        W 5989  38.857  11.141   2.828
41005W        W 5990  41.157  22.144   0.265
41006W        W 5991  21.234  38.066   1.468
41007W        W 5992  16.772  10.229   2.819
41008W        W 5993  35.607  44.895  10.802
41009W        W 5994  13.186  39.733  14.836
41010W        W 5995   6.791  21.580  13.087
41011W        W 5996  10.738  25.675   2.608
41012W        W 5997   1.146  24.006  14.588
41013W        W 5998  31.969   6.386  13.476
41014W        W 5999  31.681  22.715   0.869
41015W        W 6000  25.062  33.336   2.941
41016W        W 6001  15.355  27.933  14.056
41017W        W 6002  38.167  41.208   1.225
41018W        W 6003  33.311   6.348  12.039
41019W        W 6004  42.015   8.406  13.904
41020W        W 6005  32.155  14.701  14.203
41021W        W 6006   3.474   0.341   0.542
41022W        W 6007  19.335   4.456  10.451
41023W        W 6008   6.271  17.113   0.311
41024W        W 6009   1.762  25.574  13.410
41025W        W 6010  38.757  12.578   1.948
41026W        W 6011  19.017  18.054   5.234
41027W        W 6012   2.198  27.384   0.452
41028W        W 6013   2.730  15.586   1.234
41029W        W 6014  39.544  35.884   1.312
41030W        W 6015  39.788  20.131  10.870
41031W        W 6016  35.730   6.676   4.072
41032W        W 6017  22.408  30.075  14.420
41033W        W 6018  23.320  26.630  10.508
41034W        W 6019   3.716  24.535   4.344
41035W        W 6020  25.925  37.995  14.564
41036W        W 6021   0.065  17.116  11.527
41037W        W 6022   6.488  27.026   3.829
41038W        W 6023  25.298  20.727  12.604
41039W        W 6024  34.847  35.022  12.497
41040W        W 6025  21.591   1.853  14.954
41041W        W 6026  32.970  13.345   2.681
41042W        W 6027  10.921   5.937  13.013
41043W        W 6028   5.720  38.949   3.599
41044W        W 6029  19.761  44.832   0.356
41045W        W 6030  34.561   8.185   0.876
41046W        W 6031   9.182  44.175   2.601
41047W        W 6032  11.082  14.856   4.380
41048W        W 6033   3.816   2.290   2.386
41049W        W 6034  24.051  33.589  10.551
41050W        W 6035  11.823  44.237  14.901
41051W        W 6036  10.797   6.163   3.806
41052W        W 6037  33.716  13.020   2.026
41053W        W 6038   5.074  33.276  12.140
41054W        W 6039   1.010  20.684  11.836
41055W        W 6040  33.305  14.188   0.823
41056W        W 6041   7.828  10.319  10.165
41057W        W 6042  34.927  21.632   0.898
41058W        W 6043   3.228  10.091  13.100
41059W        W 6044  15.543  37.065  11.887
41060W        W 6045  26.893  14.733  12.417
41061W        W 6046   1.104  26.668   2.500
41062W        W 6047   8.211  23.765   1.735
41063W        W 6048  23.253   0.769  11.583
41064W        W 6049   9.787   2.922  14.195
41065W        W 6050  12.194  39.299  12.558
41066W        W 6051  18.591  44.473   1.584
41067W        W 6052  14.500  31.524  14.050
41068W        W 6053  35.445  33.796   1.390
41069W        W 6054   7.570  26.029   3.324
41070W        W 6055   6.310   5.630   0.165
41071W        W 6056   9.810   0.990   1.250
41072W        W 6057  44.931  23.248   1.355
41073W        W 6058  18.826  26.951   1.644
41074W        W 6059  14.991   5.618   3.144
41075W        W 6060  24.963   4.466  12.225
41076W        W 6061  29.013  37.881   4.222
41077W        W 6062  41.907  19.384  11.134
41078W        W 6063  10.317  26.433   1.301
41079W        W 6064  20.608  42.322   3.320
41080W        W 6065   0.764   5.617  11.606
41081W        W 6066  21.012  35.737  14.226
41082W        W 6067  37.791   6.690  14.545
41083W        W 6068  14.270   7.427   4.391
41084W        W 6069  43.050  35.445  13.372
41085W        W 6070  16.133  27.007   0.374
41086W        W 6071  38.073  22.242   3.131
41087W        W 6072  43.912   4.009  14.196
41088W        W 6073  34.708  24.604   4.665
41089W        W 6074  27.143  20.740  13.895
41090W        W 6075  29.535   6.532  13.549
41091W        W 6076  20.204  37.044   0.216
41092W        W 6077  21.077  27.098  12.175
41093W        W 6078   1.187   3.371   2.208
41094W        W 6079   2.489  35.581   3.778
41095W        W 6080  15.713  44.279   3.280
41096W        W 6081  40.131   7.001  14.946
41097W        W 6082  36.919   6.702   4.268
41098W        W 6083  37.412  36.074  13.450
41099W        W 6084  14.182   5.240  12.072
41100W        W 6085   9.404  16.755   2.818
41101W        W 6086  34.929  23.142  14.582
41102W        W 6087   0.450  20.931   4.229
41103W        W 6088  27.242  19.567  14.273
41104W        W 6089  17.074  20.497   1.805
41105W        W 6090  27.524  25.614   1.331
41106W        W 6091  29.526   0.357  12.361
41107W        W 6092  40.788  29.460  14.742
41108W        W 6093  28.904   3.976  14.881
41109W        W 6094  35.173  35.248  11.552
41110W        W 6095   4.861   2.544  10.772
41111W        W 6096  16.479  26.846   1.195
41112W        W 6097  25.940   2.769  12.538
41113W        W 6098   2.444  44.320   2.401
41114W        W 6099  33.504  40.099   0.773
41115W        W 6100   1.402  30.679   0.417
41116W        W 6101  28.990  44.381   2.788
41117W        W 6102  10.877  14.735  10.543
41118W        W 6103  41.460   4.681  11.172
41119W        W 6104   5.362  35.416   2.723
41120W        W 6105  43.021  26.390   4.567
41121W        W 6106  43.367  14.827   3.815
41122W        W 6107  19.481  42.922  12.076
41123W        W 6108  32.118  35.914  12.064
41124W        W 6109  34.065  33.539  10.770
41125W        W 6110  32.048  35.786  11.170
41126W        W 6111  29.604   7.768   4.170
41127W        W 6112  28.073  35.351   0.009
41128W        W 6113   6.831  37.762   2.483
41129W        W 6114   1.544  38.009   4.249
41130W        W 6115  31.507  11.349  13.968
41131W        W 6116  41.042  42.163   0.114
41132W        W 6117   7.176  33.525  14.908
41133W        W 6118  35.389  15.231   2.711
41134W        W 6119  15.056  34.004   0.769
41135W        W 6120  21.840  36.855   3.207
41136W        W 6121  20.150  14.635   0.997
41137W        W 6122  26.978   9.204  14.470
41138W        W 6123  41.398  12.618   4.499
41139W        W 6124  44.183  40.325  11.568
41140W        W 6125  31.022  28.905  14.350
41141W        W 6126  28.252   0.914   1.234
41142W        W 6127  15.223  30.664   2.585
41143W        W 6128  21.551  37.134   2.445
41144W        W 6129  20.682  40.934   3.569
41145W        W 6130  34.139  21.333  13.372
41146W        W 6131   9.234   2.779  10.607
41147W        W 6132  11.525  16.352  13.383
41148W        W 6133  23.060  30.373  11.701
41149W        W 6134  14.462  34.953  12.447
41150W        W 6135  24.974   3.884   2.343
41151W        W 6136  32.398  44.062  12.580
41152W        W 6137  14.214  43.055  11.094
41153W        W 6138   4.279  40.319  11.989
41154W        W 6139   7.859  16.151  12.576
41155W        W 6140   7.855  44.187   4.326
41156W        W 6141  15.319   1.210   3.853
41157W        W 6142   5.742  12.827  12.642
41158W        W 6143   8.758  21.120  11.638
41159W        W 6144   4.737  30.148  14.535
41160W        W 6145  37.406  44.824   1.681
41161W        W 6146  33.057  28.951  13.903
41162W        W 6147  24.253   8.734   4.579
41163W        W 6148  13.281   9.402   2.611
41164W        W 6149  22.732  34.919  13.984
41165W        W 6150  12.212  12.073  12.996
41166W        W 6151  18.792  39.596  11.049
41167W        W 6152  42.633  21.189  12.953
41168W        W 6153  22.933   5.060   2.041
41169W        W 6154   9.502  33.049  12.915
41170W        W 6155   0.998  36.432  12.527
41171W        W 6156  32.079  40.632   2.394
41172W        W 6157  15.814  33.858   2.693
41173W        W 6158  21.306  42.401  12.037
41174W        W 6159  18.348  14.292   5.232
41175W        W 6160  41.736  23.312  11.404
41176W        W 6161   5.398   7.844   4.086
41177W        W 6162  41.318  26.415   0.843
41178W        W 6163  32.172   9.211  13.597
41179W        W 6164  33.161  10.662  11.506
41180W        W 6165   3.128  30.828   3.589
41181W        W 6166  38.012   4.906   2.887
41182W        W 6167  20.610  15.516   2.003
41183W        W 6168   6.721  34.359  12.887
41184W        W 6169  15.686  26.749   4.505
41185W        W 6170   1.009  37.963   4.363
41186W        W 6171  20.875  20.723   0.187
41187W        W 6172   3.322  38.631  10.732
41188W        W 6173  32.898  14.354   4.571
41189W        W 6174   7.394   5.111  11.528
41190W        W 6175  44.142  10.388  12.192
41191W        W 6176  27.737  16.152  11.962
41192W        W 6177  38.323  42.763   0.775
41193W        W 6178   0.944   2.348  10.691
41194W        W 6179  23.775  20.564   2.288
41195W        W 6180   8.687  16.322  12.172
41196W        W 6181   3.855  15.585   0.834
41197W        W 6182  42.532  24.113  13.937
41198W        W 6183  24.973   9.381   3.621
41199W        W 6184  31.048  30.251  11.237
41200W        W 6185  29.680  30.850   1.364
41201W        W 6186  36.647  41.929  13.132
41202W        W 6187  18.845   7.432  14.843
41203W        W 6188   7.091  43.433  14.620
41204W        W 6189  15.285  36.944  10.923
41205W        W 6190  30.172  19.839   0.711
41206W        W 6191  10.285   8.355  14.771
41207W        W 6192   4.981  19.134   1.766
41208W        W 6193   0.837  17.168  11.659
41209W        W 6194  31.979   4.188  10.231
41210W        W 6195   5.788  43.396   0.949
41211W        W 6196  16.127   8.392   3.730
41212W        W 6197  27.872  43.352   4.191
41213W        W 6198  20.531  25.488  14.571
41214W        W 6199   9.985   8.312   1.484
41215W        W 6200  40.000  38.908   0.931
41216W        W 6201   0.281  22.491   0.822
41217W        W 6202  22.397  34.897   5.012
41218W        W 6203   8.680  28.753   0.622
41219W        W 6204  27.651  22.417  10.440
41220W        W 6205  11.715  21.942   0.042
41221W        W 6206  41.547  42.271   2.676
41222W        W 6207  16.136  26.066   5.406
41223W        W 6208  31.181   3.947  11.886
41224W        W 6209  15.122  26.522   1.440
41225W        W 6210  13.849  31.900   0.284
41226W        W 6211   3.442  40.423   4.078
41227W        W 6212   3.396  37.819  14.825
41228W        W 6213  12.983  44.857  12.938
41229W        W 6214  18.569  32.953  12.973
41230W        W 6215  15.105  27.441  13.989
41231W        W 6216  29.681  35.062  11.104
41232W        W 6217  34.625   7.817   1.651
41233W        W 6218  31.497  23.694  13.556
41234W        W 6219  30.023  35.533   2.249
41235W        W 6220  39.078   2.120   4.504
41236W        W 6221  11.379   1.944   1.263
41237W        W 6222  25.458  40.812   1.297
41238W        W 6223   1.378  20.258  12.277
41239W        W 6224  11.372  11.183  12.948
41240W        W 6225  28.547   5.221  11.326
41241W        W 6226   9.808  37.912   3.037
41242W        W 6227  15.656  40.036   3.042
41243W        W 6228  26.206  17.602   3.794
41244W        W 6229  43.748  28.513  14.798
41245W        W 6230   3.905   2.919   4.131
41246W        W 6231  13.847  43.741   0.558
41247W        W 6232  34.636   9.900   2.343
41248W        W 6233   8.776  15.974  14.106
41249W        W 6234  29.501  31.509   0.390
41250W        W 6235  33.282  20.879  10.766
41251W        W 6236  34.640   2.683  12.902
41252W        W 6237   8.746  38.834  11.519
41253W        W 6238  14.799  12.643   1.276
41254W        W 6239  42.472  20.181   0.424
41255W        W 6240   9.645  39.403   3.614
41256W        W 6241  12.554   4.463  11.104
41257W        W 6242   4.233   8.786   2.745
41258W        W 6243   1.460   4.758   0.961
41259W        W 6244  34.967  11.785  14.744
41260W        W 6245  44.794  20.739  13.062
41261W        W 6246  40.368  42.328  11.097
41262W        W 6247   9.419  38.439   4.093
41263W        W 6248  14.818  26.169  13.852
41264W        W 6249   7.846  28.110   4.601
41265W        W 6250   8.877  20.612  11.620
41266W        W 6251  43.348  23.870  12.071
41267W        W 6252  36.286   5.677   2.740
41268W        W 6253   2.635  22.530   3.652
41269W        W 6254  41.898  13.767  10.382
41270W        W 6255  22.104  23.890  11.116
41271W        W 6256   6.530   0.297  13.443
41272W        W 6257  27.488  29.218  10.713
41273W        W 6258  18.669  12.545   0.372
41274W        W 6259   7.201  30.399  12.044
41275W        W 6260  14.605   0.784   0.191
41276W        W 6261   5.904  40.502  12.640
41277W        W 6262  41.150  44.634   0.276
41278W        W 6263  21.101  29.622  11.485
41279W        W 6264  16.592  43.878   4.271
41280W        W 6265  27.102  40.521  13.992
41281W        W 6266  24.428  19.463   1.695
41282W        W 6267   0.017  32.518  13.757
41283W        W 6268  11.777  41.097   4.696
41284W        W 6269  17.854   7.039   1.255
41285W        W 6270  40.324  22.654   2.829
41286W        W 6271   7.906  39.708   1.283
41287W        W 6272  28.880  25.669   3.082
41288W        W 6273  16.559  30.386   3.330
41289W        W 6274  31.491   1.708   2.314
41290W        W 6275  41.032   0.172  12.555
41291W        W 6276  24.908   2.971  12.037
41292W        W 6277  34.136   2.714   0.961
41293W        W 6278   7.762  11.709  14.738
41294W        W 6279  16.807   6.834   4.107
41295W        W 6280   6.199  41.803  11.959
41296W        W 6281   1.732  16.615   1.889
41297W        W 6282  21.375  27.443  14.382
41298W        W 6283  30.132  27.687  14.678
41299W        W 6284  29.748  34.837  14.726
41300W        W 6285  30.170   1.435  11.985
41301W        W 6286   0.827  20.175  14.030
41302W        W 6287  32.386  29.164  14.600
41303W        W 6288  28.883  27.545   1.797
41304W        W 6289   3.448  18.679   1.820
41305W        W 6290   7.373  44.305  12.014
41306W        W 6291  34.435  20.572   4.547
41307W        W 6292  37.374  12.897   2.444
41308W        W 6293  32.372  13.996  13.507
41309W        W 6294  25.427  20.024   4.283
41310W        W 6295  28.880   2.638  12.651
41311W        W 6296  34.918  10.154   4.068
41312W        W 6297  27.624   7.282  10.946
41313W        W 6298  40.391  41.656  10.314
41314W        W 6299  37.810   9.887   0.301
41315W        W 6300  36.047  40.422  10.561
41316W        W 6301  39.987  12.871   4.583
41317W        W 6302   2.740  27.028   4.276
41318W        W 6303   4.573  40.510   3.164
41319W        W 6304   1.005  27.309   4.166
41320W        W 6305  42.943   0.970   3.121
41321W        W 6306  41.542  22.912   4.481
41322W        W 6307  16.372   5.366   0.016
41323W        W 6308  23.939  26.473   0.250
41324W        W 6309  31.171  26.396  12.498
41325W        W 6310   4.629   2.394   1.041
41326W        W 6311  12.064  10.465   3.150
41327W        W 6312  28.296  16.731  11.524
41328W        W 6313  31.977  23.050   3.055
41329W        W 6314   5.179   9.490  13.117
41330W        W 6315   8.718   4.671   2.788
41331W        W 6316  30.377  38.277  12.013
41332W        W 6317  44.675  35.588  10.350
41333W        W 6318  33.496  28.132  13.935
41334W        W 6319  18.820  24.000   2.662
41335W        W 6320  24.065  30.857   2.713
41336W        W 6321  21.830  44.934   2.531
41337W        W 6322  11.271  36.824   3.193
41338W        W 6323  42.755   2.392  10.508
41339W        W 6324  40.145  38.227  13.586
41340W        W 6325  18.479  31.239  11.503
41341W        W 6326  28.108   1.484   0.691
41342W        W 6327  14.192  15.668   1.336
41343W        W 6328  11.139  22.712  10.674
41344W        W 6329  17.020  40.044  13.471
41345W        W 6330  17.226   7.670   4.972
41346W        W 6331  27.695  25.459   2.210
41347W        W 6332  35.507  24.737  13.867
41348W        W 6333   3.311  19.501  11.931
41349W        W 6334  22.669  13.566   1.285
41350W        W 6335   7.523   1.712  14.927
41351W        W 6336   6.389  42.304  13.099
41352W        W 6337   9.863   9.397   2.713
41353W        W 6338  27.092  20.250  11.339
41354W        W 6339  20.708  24.229   1.165
41355W        W 6340   1.040  42.959   4.054
41356W        W 6341  25.595  26.915   4.368
41357W        W 6342   1.292  28.707  12.030
41358W        W 6343  24.172  16.608  12.925
41359W        W 6344  28.990  32.887  11.423
41360W        W 6345  17.505  29.708   4.288
41361W        W 6346  16.136   3.273  11.138
41362W        W 6347  23.404  39.029   3.215
41363W        W 6348  43.319  32.474   3.713
41364W        W 6349  11.150  21.757   0.762
41365W        W 6350  34.818  27.941   3.473
41366W        W 6351   8.979  20.074   4.675
41367W        W 6352  44.409  12.288   3.277
41368W        W 6353  16.777  25.020   4.427
41369W        W 6354  29.007  30.441   0.739
41370W        W 6355   2.678  10.319  11.717
41371W        W 6356  30.193  16.700  11.429
41372W        W 6357   8.085  11.775  12.406
41373W        W 6358  30.097   4.446   2.243
41374W        W 6359  43.355  23.875  11.105
41375W        W 6360  16.636   9.440   1.278
41376W        W 6361   5.368   2.931   1.962
41377W        W 6362  37.776  28.721   2.728
41378W        W 6363  36.746  14.542  10.320
41379W        W 6364  41.375  33.365   4.094
41380W        W 6365   3.013  29.220   1.205
41381W        W 6366  12.836   5.824   1.929
41382W        W 6367  39.042  26.812  12.574
41383W        W 6368  26.900  14.246   1.790
41384W        W 6369  28.838  10.930   3.720
41385W        W 6370  43.749  11.618  11.252
41386W        W 6371  20.653   3.279  11.154
41387W        W 6372   0.038  30.946   3.939
41388W        W 6373  18.496  35.807   2.233
41389W        W 6374  26.865  17.890   0.516
41390W        W 6375  26.262  36.391   3.873
41391W        W 6376   1.312  44.269  11.567
41392W        W 6377  23.472   2.535  10.300
41393W        W 6378   2.314   5.375  13.356
41394W        W 6379   2.410  17.207  13.437
41395W        W 6380  43.808   3.881   2.204
41396W        W 6381  31.461  24.156  10.968
41397W        W 6382  10.187   9.597   1.229
41398W        W 6383  25.710  23.922  14.285
41399W        W 6384  14.166  23.629  13.897
41400W        W 6385   1.175   2.866   2.364
41401W        W 6386  16.938  19.068  11.615
41402W        W 6387  13.585  37.437  12.926
41403W        W 6388   7.374  43.449  14.168
41404W        W 6389  41.795  23.389   4.110
41405W        W 6390   9.164   5.491   2.384
41406W        W 6391  18.778  27.242  13.465
41407W        W 6392  17.388  30.246   0.278
41408W        W 6393  30.851  13.833  10.992
41409W        W 6394   6.885  40.659   2.420
41410W        W 6395  30.603  10.251   3.711
41411W        W 6396  36.241  42.787  12.769
41412W        W 6397  36.586  34.574  13.451
41413W        W 6398  41.791  10.661  13.164
41414W        W 6399   9.705   0.801  14.039
41415W        W 6400  24.161  19.159  14.407
41416W        W 6401  34.401  28.067  12.528
41417W        W 6402   6.843   4.455   3.920
41418W        W 6403  40.283  43.110   2.154
41419W        W 6404  17.671   7.354   3.235
41420W        W 6405  34.858  17.539   3.314
41421W        W 6406   7.118   4.041   3.772
41422W        W 6407  31.932  12.359   1.042
41423W        W 6408   1.909   7.241  12.008
41424W        W 6409  42.062  19.165  14.774
41425W        W 6410  38.290  13.708   3.841
41426W        W 6411  19.538  43.908   0.084
41427W        W 6412  12.287   1.435   3.378
41428W        W 6413  29.869  31.484  10.661
41429W        W 6414  40.031  20.610  10.794
41430W        W 6415  24.572  40.396  14.050
41431W        W 6416  38.068  23.957  11.464
41432W        W 6417  28.195  34.113   1.598
41433W        W 6418  14.710   3.979  13.094
41434W        W 6419  16.175  17.885  14.480
41435W        W 6420  20.999   4.146  12.621
41436W        W 6421  25.932  35.837   4.509
41437W        W 6422  18.140  34.641   3.734
41438W        W 6423  44.963  25.004   4.593
41439W        W 6424  21.011  38.928   0.899
41440W        W 6425  28.105  34.387   4.088
41441W        W 6426  11.930   1.447   4.201
41442W        W 6427   9.870  40.108   3.219
41443W        W 6428   0.894  12.650  10.318
41444W        W 6429  35.628  33.564   0.364
41445W        W 6430  22.128   5.293  14.056
41446W        W 6431  25.555  21.038   1.898
41447W        W 6432   6.477  41.964   0.889
41448W        W 6433   7.332  37.837   2.296
41449W        W 6434  27.623  18.344  13.532
41450W        W 6435  14.608  17.638  10.911
41451W        W 6436  30.467  36.573  10.770
41452W        W 6437  25.106  10.357  14.747
41453W        W 6438  35.712  21.272  13.370
41454W        W 6439  16.930  25.198  13.963
41455W        W 6440  37.362  38.010  14.363
41456W        W 6441   9.026   2.898   1.983
41457W        W 6442  30.594  31.651   3.421
41458W        W 6443  28.493  23.141   0.743
41459W        W 6444  17.764  37.037  11.785
41460W        W 6445  39.878  38.060   0.771
41461W        W 6446  25.892   9.743  11.565
41462W        W 6447  22.979  27.998   0.878
41463W        W 6448  12.304  43.435  11.650
41464W        W 6449  35.008  21.301  10.324
41465W        W 6450  19.095  41.847   0.030
41466W        W 6451   0.902  34.567   2.853
41467W        W 6452  39.849  35.875   1.744
41468W        W 6453   6.165  21.213   0.764
41469W        W 6454  42.791  40.041   0.717
41470W        W 6455  17.354  11.167   1.711
41471W        W 6456  10.135  39.987  14.162
41472W        W 6457  13.748  20.143   2.252
41473W        W 6458  38.322  39.337   1.675
41474W        W 6459  27.209  24.043   0.700
41475W        W 6460  18.523  31.166   3.617
41476W        W 6461  41.890   0.310  10.116
41477W        W 6462   6.145  27.659  14.333
41478W        W 6463  21.597  25.749   1.047
41479W        W 6464   8.435  26.114  13.884
41480W        W 6465  28.228  39.824  14.200
41481W        W 6466  19.654  26.812   5.135
41482W        W 6467  18.053  18.784   3.640
41483W        W 6468   7.302  23.760   2.867
41484W        W 6469   5.399   6.946   4.221
41485W        W 6470  40.202   2.651   2.126
41486W        W 6471  19.165   6.771   3.205
41487W        W 6472  10.624  12.974  14.994
41488W        W 6473  23.451   2.464  12.895
41489W        W 6474  27.036  28.499   3.735
41490W        W 6475  37.922  34.348  11.712
41491W        W 6476  43.792   5.159   0.512
41492W        W 6477  35.494  27.644  14.049
41493W        W 6478   9.445  21.064   0.801
41494W        W 6479   1.021  37.332  11.154
41495W        W 6480  19.147  30.713  13.367
41496W        W 6481  23.295  40.307   0.972
41497W        W 6482  22.721  25.990  12.556
41498W        W 6483  24.177  38.350  11.621
41499W        W 6484  19.314   7.308  13.109
41500W        W 6485  26.355  31.118   1.228
41501W        W 6486  38.034   3.859   3.326
41502W        W 6487   8.383  13.255  12.126
41503W        W 6488  10.231  26.414  14.438
41504W        W 6489  44.469  30.485   1.254
41505W        W 6490  30.925   7.492  13.133
41506W        W 6491  31.920  28.649   3.664
41507W        W 6492  15.097  43.008   2.926
41508W        W 6493  25.557  24.190   0.331
41509W        W 6494   1.300  43.002  11.992
41510W        W 6495  14.267  29.487   0.703
41511W        W 6496  35.549   5.461   4.600
41512W        W 6497   3.717  35.049   4.091
41513W        W 6498  21.086  21.186   1.887
41514W        W 6499  42.197  26.310   0.806
41515W        W 6500   5.098  35.599  11.060
41516W        W 6501   3.428  22.775  11.165
41517W        W 6502  41.458   1.832  13.131
41518W        W 6503   7.521  23.515   3.272
41519W        W 6504   6.232  19.175  13.823
41520W        W 6505   6.332  42.562  12.666
41521W        W 6506  36.676  34.973  11.375
41522W        W 6507  26.091  24.555  11.517
41523W        W 6508  11.695   3.826  10.634
41524W        W 6509  26.388  26.523   4.490
41525W        W 6510  27.905  36.878   2.352
41526W        W 6511   0.630  16.330   1.932
41527W        W 6512   7.671  28.895   0.506
41528W        W 6513  28.609  29.165   0.888
41529W        W 6514  40.583  17.076  14.405
41530W        W 6515  20.368  22.642   5.229
41531W        W 6516  37.657  28.454   0.665
41532W        W 6517  31.361  27.571   3.471
41533W        W 6518  17.161   9.799   0.049
41534W        W 6519  34.028  20.816  13.944
41535W        W 6520  39.504   4.474  11.175
41536W        W 6521  39.626  20.231  11.678
41537W        W 6522  40.290   9.991   4.001
41538W        W 6523  24.496  16.134   1.329
41539W        W 6524  23.923  43.590  12.109
41540W        W 6525   4.101  18.181   2.243
41541W        W 6526  44.680  12.897  10.995
41542W        W 6527   9.271  15.194   2.947
41543W        W 6528   4.928  17.545  12.774
41544W        W 6529  29.976   7.367   2.911
41545W        W 6530  30.633  20.136   1.397
41546W        W 6531   6.144  21.138  10.982
41547W        W 6532  22.551   9.022   1.915
41548W        W 6533  25.005  37.746  12.073
41549W        W 6534  26.632  21.033   0.781
41550W        W 6535   2.952   2.703  13.442
41551W        W 6536  10.211  21.526   3.671
41552W        W 6537  12.082  39.378  14.904
41553W        W 6538  35.310  35.631  14.851
41554W        W 6539  11.311  15.566  14.364
41555W        W 6540  23.940  19.335   1.820
41556W        W 6541  43.936  33.549  10.737
41557W        W 6542  26.181  44.341   5.371
41558W        W 6543  26.173  31.427   1.597
41559W        W 6544  28.453   1.748   2.355
41560W        W 6545  41.824   5.541  11.982
41561W        W 6546  12.228  34.183  10.613
41562W        W 6547  29.537  17.240  12.619
41563W        W 6548  18.637   4.266  11.583
41564W        W 6549  28.459  42.303   4.106
41565W        W 6550  31.563  33.432   4.847
41566W        W 6551  17.596  10.235   0.844
41567W        W 6552  19.311  24.745  10.858
41568W        W 6553   4.646  34.893  12.466
41569W        W 6554  44.483   4.715   3.164
41570W        W 6555  43.575   0.263   0.454
41571W        W 6556  14.455  40.607   2.776
41572W        W 6557   1.397   5.781   1.681
41573W        W 6558  32.337  24.084  11.071
41574W        W 6559  15.824  36.491  10.661
41575W        W 6560   5.966  23.671   4.743
41576W        W 6561   1.824  27.392   2.306
41577W        W 6562  14.779   4.435  12.903
41578W        W 6563  11.071   0.061  12.028
41579W        W 6564  16.163   9.723   1.059
41580W        W 6565   0.838   7.888   5.402
41581W        W 6566  39.563  23.250  12.136
41582W        W 6567   4.743   5.025  12.095
41583W        W 6568  40.767   2.763  12.606
41584W        W 6569  18.653   5.237   0.189
41585W        W 6570  34.559  31.462   4.613
41586W        W 6571  41.898  39.142  12.869
41587W        W 6572  25.821  36.565   3.125
41588W        W 6573  30.158  28.471  11.569
41589W        W 6574  42.027  39.974   3.719
41590W        W 6575  12.823   9.332   0.326
41591W        W 6576  19.709   8.922  12.181
41592W        W 6577  21.498  34.485  12.354
41593W        W 6578   1.951  26.893   2.217
41594W        W 6579  44.241  37.829  13.876
41595W        W 6580  40.795   9.764  11.616
41596W        W 6581  33.091  20.622   2.183
41597W        W 6582  28.022  39.566   3.308
41598W        W 6583   7.888  34.843   4.772
41599W        W 6584  25.549  43.723  13.482
41600W        W 6585  23.299  13.293   2.622
41601W        W 6586   1.426  22.586   3.033
41602W        W 6587  19.534  22.654   0.420
41603W        W 6588  14.834  16.559  14.375
41604W        W 6589   9.139   3.334   0.099
41605W        W 6590  25.958  36.867  14.363
41606W        W 6591   3.819   8.899  12.127
41607W        W 6592  44.750  32.434  10.596
41608W        W 6593  14.689  35.020  14.680
41609W        W 6594   4.139   0.194   2.467
41610W        W 6595   9.411   0.793   1.826
41611W        W 6596  12.649  13.135  13.076
41612W        W 6597   7.426  17.082  14.784
41613W        W 6598  33.580  15.804   1.306
41614W        W 6599  11.465  25.184  11.942
41615W        W 6600  34.763   1.991  10.291
41616W        W 6601  44.788  37.303   4.022
41617W        W 6602  35.316   2.281   4.163
41618W        W 6603  33.994  14.272  14.008
41619W        W 6604  43.558  35.501   2.097
41620W        W 6605   4.209  42.982   0.997
41621W        W 6606  34.127   0.333  11.948
41622W        W 6607   2.329  23.674   3.214
41623W        W 6608   2.765  39.493  13.368
41624W        W 6609  14.257  15.296   0.567
41625W        W 6610   8.222  29.781  13.773
41626W        W 6611   1.891  32.925   2.125
41627W        W 6612   9.669  18.626  13.389
41628W        W 6613  24.149  24.741   4.169
41629W        W 6614  11.297  24.906   1.149
41630W        W 6615  23.898  37.682  13.891
41631W        W 6616  12.685   0.206   4.831
41632W        W 6617  20.877  44.606   3.249
41633W        W 6618  26.940  43.879  14.759
41634W        W 6619  21.704  10.275  10.339
41635W        W 6620   6.728  20.585  10.665
41636W        W 6621  13.354  16.303   1.451
41637W        W 6622  19.439  32.101  11.627
41638W        W 6623  37.540   7.926   5.187
41639W        W 6624  13.285   3.801   1.731
41640W        W 6625   8.565   9.910  11.657
41641W        W 6626  35.266  20.590  13.503
41642W        W 6627   5.359  21.680  14.529
41643W        W 6628  19.127  14.354  11.049
41644W        W 6629  21.641   7.961   3.656
41645W        W 6630  43.763  38.426   0.310
41646W        W 6631  20.708  10.901   3.904
41647W        W 6632  42.438   7.193  14.401
41648W        W 6633   1.799  33.577   0.879
41649W        W 6634  43.917   9.790  13.032
41650W        W 6635  14.044  34.506  11.622
41651W        W 6636  12.614  37.518  14.772
41652W        W 6637  13.203  28.892   2.947
41653W        W 6638  43.285  18.204   2.380
41654W        W 6639  35.518  27.387   2.153
41655W        W 6640  35.896  37.156   2.744
41656W        W 6641  24.660  28.316  14.365
41657W        W 6642   4.469  38.434  11.182
41658W        W 6643  14.985  23.452  11.935
41659W        W 6644   5.769  11.678   4.747
41660W        W 6645  18.159  17.646  13.467
41661W        W 6646  29.549  13.871  13.579
41662W        W 6647  39.380  19.357  14.586
41663W        W 6648  24.040  15.385  13.405
41664W        W 6649  26.199  37.431  10.576
41665W        W 6650  29.472  40.085   4.167
41666W        W 6651  21.511  41.705   0.612
41667W        W 6652   5.331   1.150   4.488
41668W        W 6653   9.160  43.425  11.559
41669W        W 6654   6.580  19.653   0.244
41670W        W 6655   7.764  26.852  10.757
41671W        W 6656  29.342  44.980   4.512
41672W        W 6657  17.295   3.186  13.399
41673W        W 6658  11.184  10.474   0.364
41674W        W 6659  40.881  38.865   0.800
41675W        W 6660  36.829  38.948   0.350
41676W        W 6661   2.259   1.019  13.251
41677W        W 6662  26.160  22.162   3.404
41678W        W 6663   8.047  35.450   0.418
41679W        W 6664  19.854   3.191   4.085
41680W        W 6665  40.753   7.376   0.800
41681W        W 6666  31.038  44.369  13.424
41682W        W 6667   8.680  36.664   3.846
41683W        W 6668   1.682  28.606  12.969
41684W        W 6669  24.136  40.286   2.352
41685W        W 6670  40.902  40.173  10.770
41686W        W 6671  13.251  36.537  14.050
41687W        W 6672   4.752   3.453   0.958
41688W        W 6673   7.371  40.561  10.706
41689W        W 6674  13.031  13.822  10.989
41690W        W 6675  29.979  22.188   4.323
41691W        W 6676   2.368  16.287  11.847
41692W        W 6677  36.316  28.421   0.808
41693W        W 6678  13.611  30.736   1.161
41694W        W 6679   9.281  26.131  13.145
41695W        W 6680  11.799  26.417  10.281
41696W        W 6681   2.234  12.818   0.939
41697W        W 6682  17.846  16.758  11.409
41698W        W 6683  16.509   6.219   1.739
41699W        W 6684  22.215  10.273  14.015
41700W        W 6685  38.329  43.500  10.644
41701W        W 6686  35.273  19.700  11.548
41702W        W 6687  30.845   1.115  10.259
41703W        W 6688  13.616  24.205  14.397
41704W        W 6689  10.081   5.215   1.814
41705W        W 6690   8.358   2.191   3.734
41706W        W 6691   0.393   5.108  13.476
41707W        W 6692  24.016  12.724   0.064
41708W        W 6693  10.346   5.247   0.219
41709W        W 6694  38.870  43.961   4.854
41710W        W 6695  29.951   3.762  13.989
41711W        W 6696   2.239  40.525   1.896
41712W        W 6697   7.315  37.971   4.769
41713W        W 6698  34.615  35.387  12.823
41714W        W 6699  16.722   3.521   1.216
41715W        W 6700  15.831  15.346  10.730
41716W        W 6701  34.779  40.420  13.364
41717W        W 6702   3.813  31.663   4.167
41718W        W 6703  15.912  26.044  11.268
41719W        W 6704  11.695  27.419   0.483
41720W        W 6705  43.021  34.478   2.357
41721W        W 6706   1.646  33.040   0.686
41722W        W 6707  16.073  41.326  14.288
41723W        W 6708   8.869  25.395   3.216
41724W        W 6709  21.153  26.875   1.201
41725W        W 6710  28.190  20.696  14.164
41726W        W 6711  27.143  26.463   4.634
41727W        W 6712  33.051  30.989   2.282
41728W        W 6713  10.886  23.675  12.069
41729W        W 6714  24.970  43.778  11.158
41730W        W 6715  10.293  17.547  11.644
41731W        W 6716  10.740  11.945   0.141
41732W        W 6717   8.371  19.709   2.251
41733W        W 6718  26.301  20.249   4.545
41734W        W 6719   0.327  12.715   2.181
41735W        W 6720   6.660  20.045  11.916
41736W        W 6721  37.103  36.585  11.451
41737W        W 6722  29.586  30.316  11.017
41738W        W 6723   1.718  17.686  10.768
41739W        W 6724  29.587  10.826   3.342
41740W        W 6725  30.816   0.932  12.888
41741W        W 6726  30.579   3.157  14.955
41742W        W 6727  10.123  11.301  12.599
41743W        W 6728  11.429   5.215  13.960
41744W        W 6729  16.815  29.140   2.810
41745W        W 6730  25.734  30.586   2.260
41746W        W 6731  26.600  44.231  13.014
41747W        W 6732   6.832  12.814  14.954
41748W        W 6733  18.181   8.162   0.490
41749W        W 6734  21.422  32.549   2.228
41750W        W 6735  24.494  30.358   1.879
41751W        W 6736  15.107  17.281   0.653
41752W        W 6737  24.567   0.452  13.608
41753W        W 6738  33.633  41.580   1.854
41754W        W 6739   2.011  42.487  12.497
41755W        W 6740  39.292   6.794   1.875
41756W        W 6741  33.971  44.865   4.627
41757W        W 6742  30.184  30.780   3.311
41758W        W 6743  15.755  24.114  10.638
41759W        W 6744  33.684  25.389   3.653
41760W        W 6745  36.519   2.291  14.719
41761W        W 6746  30.725  23.010  12.020
41762W        W 6747  23.058  37.689   0.862
41763W        W 6748  25.704  38.922   3.864
41764W        W 6749  42.405  10.702   1.750
41765W        W 6750  17.789   0.373  13.405
41766W        W 6751  22.121  41.437  14.031
41767W        W 6752  31.461  44.975   0.869
41768W        W 6753   9.637   1.185   3.467
41769W        W 6754  19.533  32.932   1.299
41770W        W 6755  38.965  38.059   2.616
41771W        W 6756   8.562  39.026   1.561
41772W        W 6757  18.289  36.760  10.534
41773W        W 6758  26.750  26.566  14.348
41774W        W 6759  18.878  13.981  10.184
41775W        W 6760  41.592  25.915   2.362
41776W        W 6761  33.902  35.312   4.647
41777W        W 6762   3.221  37.457  10.738
41778W        W 6763  25.710  15.792   2.599
41779W        W 6764  20.221  34.548  13.947
41780W        W 6765   7.686  39.783  14.460
41781W        W 6766  25.646  25.603   0.346
41782W        W 6767   5.743  25.919  10.973
41783W        W 6768  25.593  28.609  12.785
41784W        W 6769  36.443  24.499  10.845
41785W        W 6770  11.596  30.913  10.784
41786W        W 6771  35.720   6.292  11.736
41787W        W 6772  25.606  24.135  14.780
41788W        W 6773   2.796   4.363   4.119
41789W        W 6774   0.541   2.171  13.439
41790W        W 6775  22.016  13.647  13.815
41791W        W 6776   3.465  38.314  11.208
41792W        W 6777  32.584  11.175   1.999
41793W        W 6778  20.544  25.065   2.846
41794W        W 6779   2.760  29.116   3.346
41795W        W 6780  21.950   2.872  11.827
41796W        W 6781  40.483  16.644   3.170
41797W        W 6782  26.137  10.320   2.849
41798W        W 6783  15.580  34.626  13.984
41799W        W 6784  28.870  25.119  11.056
41800W        W 6785  26.454  29.692   3.302
41801W        W 6786   4.119  33.707   1.421
41802W        W 6787  31.422   7.082   1.803
41803W        W 6788  24.359  24.723  13.982
41804W        W 6789   3.946  17.040  11.158
41805W        W 6790   7.195   8.715  12.529
41806W        W 6791  27.124  25.292   3.400
41807W        W 6792  24.112   3.264   4.348
41808W        W 6793  34.051   7.714  13.022
41809W        W 6794  23.012  26.562   3.636
41810W        W 6795  40.773  27.066   3.511
41811W        W 6796   6.732  36.522   1.103
41812W        W 6797  17.254  35.166  11.599
41813W        W 6798  38.340  27.068  10.892
41814W        W 6799   3.272  12.148   3.794
41815W        W 6800   6.623  40.859  12.053
41816W        W 6801   8.136  42.945  12.500
41817W        W 6802  22.823  44.717  12.985
41818W        W 6803  16.190  11.465  10.084
41819W        W 6804  32.333  36.580  13.963
41820W        W 6805  12.897  41.535   0.751
41821W        W 6806  19.821   4.692   2.686
41822W        W 6807  33.345  36.389  11.146
41823W        W 6808  30.754  32.324  13.911
41824W        W 6809  16.653  42.424  12.392
41825W        W 6810  35.145  44.478   1.813
41826W        W 6811   8.180  39.880   4.247
41827W        W 6812  21.501  40.706  11.164
41828W        W 6813   1.934  31.047   1.765
41829W        W 6814  28.054  24.474  14.471
41830W        W 6815  30.455  31.505   3.902
41831W        W 6816  34.415  22.947   4.695
41832W        W 6817  26.483  37.642  12.500
41833W        W 6818   7.299  11.170   3.094
41834W        W 6819  22.754  43.533  11.132
41835W        W 6820  29.831  37.391  11.980
41836W        W 6821  13.719  13.656  12.157
41837W        W 6822  13.247  30.061  13.822
41838W        W 6823  16.472  30.016   2.707
41839W        W 6824  34.304  13.222  13.107
41840W        W 6825   2.579  32.096   2.389
41841W        W 6826  33.030   6.592  12.908
41842W        W 6827  23.829   8.609   0.750
41843W        W 6828  36.488  10.200  10.925
41844W        W 6829  43.051   4.783  11.605
41845W        W 6830  19.546  36.869   1.979
41846W        W 6831  24.149  35.610  13.423
41847W        W 6832  18.054  21.275  14.967
41848W        W 6833  35.867  34.630   0.065
41849W        W 6834  17.172  22.131  11.599
41850W        W 6835  21.245  43.723   3.615
41851W        W 6836  37.104  21.993   2.267
41852W        W 6837  29.862  16.371   1.779
41853W        W 6838  14.595  20.252  13.102
41854W        W 6839  36.029  15.963  14.678
41855W        W 6840  20.447   2.729  14.438
41856W        W 6841   0.361  23.685   3.410
41857W        W 6842  10.605  11.198   2.000
41858W        W 6843  34.591  21.701   2.734
41859W        W 6844   8.518  15.545   0.451
41860W        W 6845  13.334  16.806  14.965
41861W        W 6846  10.110  39.851   1.175
41862W        W 6847  24.691  35.289  10.942
41863W        W 6848  28.888  39.159  14.634
41864W        W 6849   9.917  36.754  11.031
41865W        W 6850   5.415  38.079   1.036
41866W        W 6851  33.146  44.061  12.923
41867W        W 6852  23.931  39.395  10.764
41868W        W 6853  36.928  17.708  13.753
41869W        W 6854  39.889   5.171  13.089
41870W        W 6855  43.457   6.462  14.889
41871W        W 6856  29.451   1.993   3.723
41872W        W 6857  17.880   8.208   2.517
41873W        W 6858  38.956  44.707   0.498
41874W        W 6859  10.199  42.825   4.161
41875W        W 6860  44.687  19.931  13.492
41876W        W 6861  18.309   1.332  14.767
41877W        W 6862  33.964   9.650  10.767
41878W        W 6863   1.904   6.095  13.294
41879W        W 6864  21.053  25.011   2.748
41880W        W 6865  41.517   1.538  11.517
41881W        W 6866  13.794  31.232   1.213
41882W        W 6867  13.020  20.309   2.678
41883W        W 6868  17.484  40.093  11.184
41884W        W 6869  18.101  25.469  10.319
41885W        W 6870  43.678  21.617   2.647
41886W        W 6871  19.730  41.267   2.095
41887W        W 6872   1.980  38.495  14.640
41888W        W 6873   9.163  29.880   0.280
41889W        W 6874  44.873   6.884  12.132
41890W        W 6875  37.559  15.568  14.457
41891W        W 6876  10.772  37.654   0.051
41892W        W 6877  14.047  10.304   3.437
41893W        W 6878  44.172  40.460  12.485
41894W        W 6879  11.574  28.366  13.074
41895W        W 6880  38.835  29.920  11.996
41896W        W 6881   5.441  37.578  12.052
41897W        W 6882  37.057  20.458  12.043
41898W        W 6883  27.712   6.702   1.405
41899W        W 6884  36.557  13.124  11.259
41900W        W 6885  23.213  13.084   1.859
41901W        W 6886  27.896  26.642   1.312
41902W        W 6887  20.304  21.969   1.886
41903W        W 6888  27.657  28.323  10.854
41904W        W 6889  35.543  25.715  13.138
41905W        W 6890  13.339  40.425  11.200
41906W        W 6891  41.013  23.922   5.128
41907W        W 6892  42.492  43.531   1.657
41908W        W 6893  30.976   0.471   2.884
41909W        W 6894  23.754  26.434  10.744
41910W        W 6895   1.247  20.992  14.470
41911W        W 6896  36.477  26.480   2.758
41912W        W 6897  43.295   2.207   4.289
41913W        W 6898  19.619  32.152  12.138
41914W        W 6899  33.962   8.142   2.053
41915W        W 6900  22.325  35.214  12.611
41916W        W 6901  43.032  39.313  11.077
41917W        W 6902  21.663  24.562   2.299
41918W        W 6903   7.643  31.056  13.452
41919W        W 6904  13.942   3.148  11.619
41920W        W 6905  25.646  13.388  10.465
41921W        W 6906  41.047  41.645  14.772
41922W        W 6907  23.087   9.431  12.147
41923W        W 6908   6.971  40.062  11.603
41924W        W 6909  37.024  42.741   2.337
41925W        W 6910  43.824  26.854  13.755
41926W        W 6911  20.633  13.113   1.828
41927W        W 6912  25.989  37.945   3.184
41928W        W 6913  34.136   2.041   1.839
41929W        W 6914  24.639  10.201  13.085
41930W        W 6915  16.111  20.304  13.154
41931W        W 6916  21.078  31.833   3.177
41932W        W 6917   9.624  43.446  13.876
41933W        W 6918  44.839   9.676  11.585
41934W        W 6919  38.951  31.885   2.721
41935W        W 6920  36.845  23.946   3.278
41936W        W 6921  32.241   1.892   1.863
41937W        W 6922  23.665   0.238  14.037
41938W        W 6923  26.537  22.121   4.333
41939W        W 6924  11.138  13.891   4.168
41940W        W 6925  18.984   3.340   1.287
41941W        W 6926   6.719  22.728   2.520
41942W        W 6927  36.975   5.761  12.728
41943W        W 6928  22.854  28.186   2.880
41944W        W 6929  21.036  42.261  13.814
41945W        W 6930  39.772  31.994  10.953
41946W        W 6931  42.056  13.398   2.793
41947W        W 6932   8.770  34.321   4.192
41948W        W 6933  11.020  42.262  11.085
41949W        W 6934  13.296   6.756   4.998
41950W        W 6935  11.540  13.097  10.252
41951W        W 6936  41.506  35.575  10.758
41952W        W 6937  41.442   9.043  12.361
41953W        W 6938  15.817  20.156  10.622
41954W        W 6939  43.583  37.255  11.180
41955W        W 6940  27.507  36.899   2.005
41956W        W 6941  31.110  17.201   0.354
41957W        W 6942  11.182  14.126   2.381
41958W        W 6943  28.272  18.083   1.851
41959W        W 6944  22.439  28.582   4.673
41960W        W 6945  42.100   3.648  14.321
41961W        W 6946  30.350  28.134  11.898
41962W        W 6947  22.329  33.163   4.950
41963W        W 6948  20.321  14.822  11.068
41964W        W 6949  21.614  13.374   1.849
41965W        W 6950  32.968   5.339  10.287
41966W        W 6951   0.748  15.318  13.566
41967W        W 6952  13.878  32.148  14.813
41968W        W 6953  20.990  18.567  13.611
41969W        W 6954  33.364  29.251   2.180
41970W        W 6955   5.905  40.793   3.272
41971W        W 6956  15.696  27.888   2.794
41972W        W 6957  44.225  18.182   1.294
41973W        W 6958   1.269  34.597   1.487
41974W        W 6959   8.275  21.221   3.596
41975W        W 6960  44.273  28.857  12.276
41976W        W 6961  28.647  41.524   2.682
41977W        W 6962  38.621   2.505  13.328
41978W        W 6963  41.302  33.886  12.885
41979W        W 6964  20.454   9.418   0.711
41980W        W 6965   7.862  24.605  11.632
41981W        W 6966  44.304  20.333   5.052
41982W        W 6967  30.008  16.221  14.445
41983W        W 6968   7.942  17.844  13.359
41984W        W 6969  41.962  25.752   3.168
41985W        W 6970  40.261  34.537  14.074
41986W        W 6971  20.223   5.400   4.602
41987W        W 6972  38.853  24.747   9.782
41988W        W 6973  23.163  23.966   3.702
41989W        W 6974  17.780  28.590   2.465
41990W        W 6975  32.221  10.217   2.348
41991W        W 6976   5.528  38.199  13.844
41992W        W 6977  18.014  40.325  14.353
41993W        W 6978  18.853   1.326   1.923
41994W        W 6979  30.488  23.414   4.170
41995W        W 6980  31.056  44.905   4.900
41996W        W 6981  19.661  35.571  12.605
41997W        W 6982  38.006  20.823  12.602
41998W        W 6983  23.504  15.873   4.612
41999W        W 6984  39.333  21.230  14.180
42000W        W 6985  17.231  24.882   1.659
42001W        W 6986  26.967  10.498   1.155
42002W        W 6987   0.934  22.471   3.170
42003W        W 6988  43.513  31.131   3.316
42004W        W 6989  20.379  36.389  10.847
42005W        W 6990   4.735  30.401   3.580
42006W        W 6991  26.454  18.036  11.196
42007W        W 6992  26.274  24.964   0.003
42008W        W 6993  40.104  35.281  14.238
42009W        W 6994  18.079  24.589   0.321
42010W        W 6995  37.898  33.271   4.303
42011W        W 6996  26.274  27.202   0.686
42012W        W 6997   4.472  33.879   1.759
42013W        W 6998  31.080   6.243  10.809
42014W        W 6999  39.140   1.038   1.893
42015W        W 7000  24.955  29.179  13.822
42016W        W 7001  11.337  40.845   4.549
42017W        W 7002  13.660   5.679  10.709
42018W        W 7003  26.961  23.203  13.867
42019W        W 7004   9.314  40.452  11.600
42020W        W 7005  16.164   8.924  13.433
42021W        W 7006  33.664  25.671   1.111
42022W        W 7007  15.855  39.418   0.254
42023W        W 7008  34.069  18.356  13.979
42024W        W 7009   4.799  16.616   4.794
42025W        W 7010   8.761   4.580   4.198
42026W        W 7011   8.825  27.855   4.483
42027W        W 7012  25.694  10.673   4.871
42028W        W 7013  31.869  18.724  10.801
42029W        W 7014   2.442  25.637   1.460
42030W        W 7015  29.365  19.076   3.396
42031W        W 7016  38.818  34.863   4.564
42032W        W 7017  33.983  28.169  13.415
42033W        W 7018  43.260  27.451  12.360
42034W        W 7019  10.318  25.484  14.276
42035W        W 7020  35.213  11.252  14.355
42036W        W 7021  19.067   9.575   0.509
42037W        W 7022  11.353  26.148  12.849
42038W        W 7023  26.031  14.414   0.787
42039W        W 7024  20.166  36.144  14.647
42040W        W 7025  26.954  42.708  12.968
42041W        W 7026   4.811   0.468   1.930
42042W        W 7027  26.779  16.183   0.522
42043W        W 7028  10.477   2.920  11.746
42044W        W 7029   0.955  30.028   3.698
42045W        W 7030   7.956  36.094  14.437
42046W        W 7031  12.293  27.892  13.482
42047W        W 7032   7.648  23.052   3.489
42048W        W 7033   2.033   4.422  11.214
42049W        W 7034  12.348   4.167  14.093
42050W        W 7035  37.421  20.662   0.961
42051W        W 7036  40.066  23.785  13.468
42052W        W 7037  29.558  10.742   4.244
42053W        W 7038   1.391  19.352   0.757
42054W        W 7039   0.792  44.758  10.529
42055W        W 7040  14.661  10.766  10.689
42056W        W 7041  40.336  31.423  11.987
42057W        W 7042  23.061  20.768  13.540
42058W        W 7043   0.338  39.011  12.459
42059W        W 7044  24.463  17.797  12.500
42060W        W 7045  27.582  44.204  13.670
42061W        W 7046  28.400  16.115   1.707
42062W        W 7047  28.909  18.490   4.135
42063W        W 7048  22.129   5.812  11.909
42064W        W 7049  19.585  30.960  13.264
42065W        W 7050  12.831  33.539   0.762
42066W        W 7051  40.709  20.272  14.919
42067W        W 7052  28.580  27.117   1.849
42068W        W 7053  32.158  24.983   0.954
42069W        W 7054  10.314  22.480  14.410
42070W        W 7055   2.192   1.842  13.942
42071W        W 7056  29.945  44.234  14.953
42072W        W 7057  21.414  41.879   2.371
42073W        W 7058  37.667  14.000   2.481
42074W        W 7059  41.913  24.062   4.438
42075W        W 7060  27.667  24.608  11.196
42076W        W 7061  24.702  42.257  12.990
42077W        W 7062  40.287  19.678   2.932
42078W        W 7063  44.059   6.283   2.438
42079W        W 7064   0.000  31.302   2.478
42080W        W 7065  20.175  11.815   4.862
42081W        W 7066  41.107  36.453  10.965
42082W        W 7067  25.579   5.813  14.415
42083W        W 7068  42.773  13.824   5.072
42084W        W 7069  28.485   2.979   1.190
42085W        W 7070   4.755   7.814   2.431
42086W        W 7071  31.587  17.141  13.558
42087W        W 7072  42.461  42.998  14.849
42088W        W 7073   6.691   7.901  12.872
42089W        W 7074  30.680  37.902  14.843
42090W        W 7075   7.226  16.654   3.839
42091W        W 7076  11.243  41.365   2.364
42092W        W 7077   0.837  21.083  10.575
42093W        W 7078  24.538   3.730  12.007
42094W        W 7079  10.786  32.057   2.547
42095W        W 7080   0.267  38.887   3.114
42096W        W 7081  12.030  11.143  14.365
42097W        W 7082   2.950  36.945   3.358
42098W        W 7083  23.616   3.206  13.823
42099W        W 7084   2.720  15.778   1.727
42100W        W 7085  33.395  17.728   0.371
42101W        W 7086  22.078   8.186  11.536
42102W        W 7087  21.992  21.265  11.674
42103W        W 7088   7.353  37.331  12.168
42104W        W 7089  18.133  31.459  11.189
42105W        W 7090  21.895  32.575  10.155
42106W        W 7091  14.883  31.225   0.924
42107W        W 7092  14.403   7.957   2.821
42108W        W 7093  11.355   5.064   3.794
42109W        W 7094  10.800   2.027   0.640
42110W        W 7095  44.464   6.323   3.372
42111W        W 7096   1.527  23.058  13.020
42112W        W 7097  17.618  44.857  11.155
42113W        W 7098  17.823  30.180  14.335
42114W        W 7099  22.401  39.350  12.117
42115W        W 7100  21.207  39.718   2.123
42116W        W 7101  39.817  17.603   2.636
42117W        W 7102  31.569  33.628   1.722
42118W        W 7103  41.589  20.142  14.468
42119W        W 7104  13.793  12.535   3.365
42120W        W 7105  41.407   5.282   0.348
42121W        W 7106   6.475   4.276  12.803
42122W        W 7107  26.925   3.689   1.281
42123W        W 7108  28.227   2.168  12.490
42124W        W 7109   7.191  31.851   1.780
42125W        W 7110  26.499  32.121   1.905
42126W        W 7111  42.957  40.080  14.810
42127W        W 7112  22.935  13.123  12.952
42128W        W 7113   1.259   3.790   4.683
42129W        W 7114   5.858  39.811  13.914
42130W        W 7115   0.743  12.231   0.347
42131W        W 7116   5.414  19.108   4.396
42132W        W 7117  12.193  19.581  11.506
42133W        W 7118  22.656  30.594  14.566
42134W        W 7119  44.329   2.436   0.874
42135W        W 7120  16.320  13.580  13.606
42136W        W 7121   4.502   0.005  13.729
42137W        W 7122   7.475  44.719  12.892
42138W        W 7123  29.724   8.960   0.474
42139W        W 7124  13.625  28.186  12.449
42140W        W 7125  15.820  20.370   3.248
42141W        W 7126  16.234  44.203   3.345
42142W        W 7127  32.414  27.454   3.379
42143W        W 7128  14.643  16.634   4.218
42144W        W 7129   9.107  26.007  14.989
42145W        W 7130   1.005  39.280  13.069
42146W        W 7131  31.915  26.670   4.551
42147W        W 7132  29.099  34.218  13.445
42148W        W 7133  42.147  41.008  14.323
42149W        W 7134  24.704  43.055  12.431
42150W        W 7135   5.804   9.165  11.481
42151W        W 7136  35.652  30.550   2.155
42152W        W 7137  44.912  25.771   4.049
42153W        W 7138  26.345  29.707   4.790
42154W        W 7139  11.907  17.275  12.724
42155W        W 7140   9.946  12.723  11.610
42156W        W 7141  28.963  32.565   4.101
42157W        W 7142   6.660  21.551  12.087
42158W        W 7143  34.458   3.353   0.359
42159W        W 7144  36.443  13.366  13.464
42160W        W 7145  14.664  29.583  14.841
42161W        W 7146  22.929  38.119  11.122
42162W        W 7147  35.817  42.917  14.011
42163W        W 7148  35.824  35.529  14.871
42164W        W 7149   0.856  16.510   3.820
42165W        W 7150  10.627   1.348   2.605
42166W        W 7151  39.445  38.585  13.543
42167W        W 7152  22.968  26.608  10.897
42168W        W 7153   8.180  44.736  13.814
42169W        W 7154  40.538   0.417   2.263
42170W        W 7155   4.959   0.741   2.401
42171W        W 7156  36.458  12.890   0.257
42172W        W 7157  11.289   8.974   0.334
42173W        W 7158  38.498  14.331  11.278
42174W        W 7159  13.679  19.934  11.316
42175W        W 7160  27.666   4.458   0.288
42176W        W 7161  39.751  40.078   1.768
42177W        W 7162  39.274  21.408  13.304
42178W        W 7163  36.299  37.922   0.237
42179W        W 7164  20.637   4.433  10.833
42180W        W 7165  10.859  18.621   4.807
42181W        W 7166  42.108  35.179  12.125
42182W        W 7167   6.720  24.143  11.698
42183W        W 7168  42.021   6.249  13.540
42184W        W 7169   1.325  20.093  10.776
42185W        W 7170  19.961  18.161   5.252
42186W        W 7171  18.733  24.602  14.509
42187W        W 7172  20.313  30.948   1.779
42188W        W 7173  36.520  27.670   2.216
42189W        W 7174  40.316  10.857  13.931
42190W        W 7175  22.692  31.096   0.714
42191W        W 7176  17.684  22.146  11.655
42192W        W 7177   1.778  31.017  11.228
42193W        W 7178  42.525  29.977   4.461
42194W        W 7179  23.406   7.866   0.130
42195W        W 7180   0.734  20.637  13.831
42196W        W 7181  30.412  37.992   0.283
42197W        W 7182  13.323  27.627   3.141
42198W        W 7183  33.695  37.920   3.429
42199W        W 7184  27.929   8.760  12.941
42200W        W 7185  18.626  33.859   2.983
42201W        W 7186  24.603  30.466  12.148
42202W        W 7187   0.229  40.335  10.753
42203W        W 7188  13.534   8.672   4.177
42204W        W 7189   3.956   5.805  14.834
42205W        W 7190   3.602   3.815   0.226
42206W        W 7191   6.942  31.601  13.385
42207W        W 7192   3.482   6.421  12.028
42208W        W 7193  14.083  27.009   3.127
42209W        W 7194  43.782  38.804   2.078
42210W        W 7195   4.588  43.164   1.829
42211W        W 7196  28.662   9.795  12.360
42212W        W 7197  35.107  20.094   1.873
42213W        W 7198   3.505  31.348   0.952
42214W        W 7199  14.239  33.939   4.114
42215W        W 7200  15.440  21.394   0.306
42216W        W 7201  10.805   6.208   0.316
42217W        W 7202  22.212  16.293   0.901
42218W        W 7203  13.805  31.608  11.164
42219W        W 7204   0.868   6.232   4.563
42220W        W 7205  15.335  11.368   3.183
42221W        W 7206  27.494  31.860  14.278
42222W        W 7207  27.718  38.959   4.096
42223W        W 7208  16.111  25.509  10.719
42224W        W 7209  39.279  18.542   4.628
42225W        W 7210  31.785   5.769  13.884
42226W        W 7211   4.380  34.101  14.890
42227W        W 7212  39.051   9.551   2.308
42228W        W 7213  20.329  43.537   2.663
42229W        W 7214  14.180   3.432  11.224
42230W        W 7215  13.255  18.276  12.578
42231W        W 7216  16.317  11.833   2.666
42232W        W 7217  19.199  23.694  12.673
42233W        W 7218  23.396   0.410  13.032
42234W        W 7219   4.955  29.901   3.272
42235W        W 7220  35.984   4.225  12.960
42236W        W 7221  39.391  20.793   3.829
42237W        W 7222  15.285  24.701  13.487
42238W        W 7223  35.475  13.847   0.888
42239W        W 7224  15.205  28.172  12.941
42240W        W 7225  17.936  44.243  12.445
42241W        W 7226  22.618  43.026  14.150
42242W        W 7227   0.984  26.092  14.869
42243W        W 7228  35.915  32.069   3.676
42244W        W 7229  42.001   0.700  12.337
42245W        W 7230  34.531  22.010   0.477
42246W        W 7231  40.991  31.658   0.923
42247W        W 7232  21.168  41.741  12.173
42248W        W 7233   0.462  39.262   3.405
42249W        W 7234  31.888  35.023  11.697
42250W        W 7235  35.395   5.662   3.739
42251W        W 7236  26.592  40.438   3.814
42252W        W 7237  12.265   5.195  10.641
42253W        W 7238  16.299  41.878  13.834
42254W        W 7239  25.155   1.027  13.527
42255W        W 7240  26.251  14.652  14.068
42256W        W 7241  15.114  20.258   3.845
42257W        W 7242  14.035  21.624   4.077
42258W        W 7243  24.131  31.367   2.595
42259W        W 7244  24.528  32.435  12.052
42260W        W 7245  10.419  25.996  14.123
42261W        W 7246  24.523  23.042   4.476
42262W        W 7247  25.513  34.998   4.642
42263W        W 7248  20.406   9.968  14.484
42264W        W 7249  44.489  42.184  12.820
42265W        W 7250  43.555  34.146  10.261
42266W        W 7251  34.068  35.079   1.776
42267W        W 7252  10.872  17.114  14.714
42268W        W 7253  38.017  15.048  14.853
42269W        W 7254  30.661  21.202  14.792
42270W        W 7255   3.490  13.904   3.332
42271W        W 7256  31.156  20.302  12.366
42272W        W 7257  34.891  14.949  14.709
42273W        W 7258  17.669  13.783   4.112
42274W        W 7259  35.164  14.812   3.212
42275W        W 7260  29.115  11.140   1.885
42276W        W 7261  15.078   4.766  12.278
42277W        W 7262   7.349   8.411  13.892
42278W        W 7263  10.206  36.095   0.026
42279W        W 7264  14.592   6.261   4.964
42280W        W 7265  17.166  12.516  14.521
42281W        W 7266  16.235   4.245  11.094
42282W        W 7267   3.764   7.167  14.365
42283W        W 7268  38.588   1.220  11.933
42284W        W 7269   0.831  10.290  12.508
42285W        W 7270  38.843  27.422   2.104
42286W        W 7271  12.558  18.234   2.490
42287W        W 7272  15.640  17.565   3.127
42288W        W 7273   9.696  20.793  14.958
42289W        W 7274  19.287  35.089  13.082
42290W        W 7275  35.842  35.341   2.432
42291W        W 7276  41.270  34.912  12.407
42292W        W 7277  40.821  17.648  13.565
42293W        W 7278  40.924   8.900   4.440
42294W        W 7279  41.342  21.797   3.729
42295W        W 7280  40.453  17.568   3.141
42296W        W 7281  27.326  17.809   0.328
42297W        W 7282   7.140   4.418  14.915
42298W        W 7283  33.312  12.804   2.664
42299W        W 7284  20.469  10.089   2.877
42300W        W 7285  33.697  21.572   2.234
42301W        W 7286  42.510  26.047  10.325
42302W        W 7287   4.190  36.327   0.229
42303W        W 7288   8.703  14.183  12.348
42304W        W 7289  43.063  44.273   2.793
42305W        W 7290  27.589  39.774   0.790
42306W        W 7291  18.299  17.031  13.815
42307W        W 7292  38.472  30.733   4.667
42308W        W 7293  36.672   7.542  12.085
42309W        W 7294  15.682  12.798   4.489
42310W        W 7295  21.127  20.055  12.063
42311W        W 7296  42.333  37.104  14.114
42312W        W 7297  15.545  30.065  14.557
42313W        W 7298   6.174   7.822   3.399
42314W        W 7299  17.168  14.879  14.496
42315W        W 7300  24.795  29.838  11.514
42316W        W 7301   2.145  40.776  13.016
42317W        W 7302  41.796  28.846   4.620
42318W        W 7303  32.027   7.800  10.707
42319W        W 7304  37.985   0.043   0.477
42320W        W 7305   9.632  20.683   3.398
42321W        W 7306   2.715   0.528  13.955
42322W        W 7307   5.481  38.450  11.076
42323W        W 7308  31.351  23.501  14.454
42324W        W 7309   7.710   3.349  10.242
42325W        W 7310  31.724  39.210  11.591
42326W        W 7311  32.628  32.881   2.736
42327W        W 7312  25.449  21.969   0.890
42328W        W 7313  36.004   8.954   1.719
42329W        W 7314  41.429  12.860   3.443
42330W        W 7315  44.118  17.335  13.085
42331W        W 7316  30.472  26.071  12.436
42332W        W 7317   9.191  41.302  14.985
42333W        W 7318   0.781  16.589  10.444
42334W        W 7319  43.939  26.272   4.200
42335W        W 7320   1.435  26.068   3.676
42336W        W 7321   6.086   9.859  12.105
42337W        W 7322  12.365  10.896  14.710
42338W        W 7323  37.906   5.692  11.472
42339W        W 7324  33.528  18.998  12.471
42340W        W 7325  13.489   5.910  12.852
42341W        W 7326  12.556  44.207   0.395
42342W        W 7327  26.553  27.154  12.127
42343W        W 7328  38.368  37.121   0.226
42344W        W 7329   0.032  24.164   1.876
42345W        W 7330   4.702  42.071  12.145
42346W        W 7331  23.202  39.869   1.257
42347W        W 7332   6.534   7.764  11.576
42348W        W 7333  44.897   7.947   1.951
42349W        W 7334  14.876  40.955   1.194
42350W        W 7335  12.418  41.770   1.265
42351W        W 7336   4.382   4.330   1.135
42352W        W 7337  29.628  35.039  13.904
42353W        W 7338   6.149   2.432   0.819
42354W        W 7339   7.793  41.359   1.295
42355W        W 7340  28.539   0.184   1.687
42356W        W 7341  28.439   5.479  13.358
42357W        W 7342  33.838  40.391   1.934
42358W        W 7343  34.345  25.493   0.453
42359W        W 7344  14.786  11.252   2.307
42360W        W 7345  16.165  37.171   1.090
42361W        W 7346   7.184  40.890   3.762
42362W        W 7347  18.101  39.851  12.233
42363W        W 7348  12.300  34.567   3.421
42364W        W 7349  25.247  14.259   3.702
42365W        W 7350  10.815  37.552  12.402
42366W        W 7351  18.172  35.135  12.086
42367W        W 7352  25.135  44.322  13.817
42368W        W 7353  36.556  40.376  13.579
42369W        W 7354   5.439  24.732   3.119
42370W        W 7355  28.098  21.548  10.420
42371W        W 7356   9.681  44.316   3.567
42372W        W 7357  40.964  38.355  11.924
42373W        W 7358  34.262  29.899  13.006
42374W        W 7359  19.652  21.562   1.495
42375W        W 7360  42.303   7.699   0.361
42376W        W 7361  17.014  18.692   4.397
42377W        W 7362  11.693  39.956   4.578
42378W        W 7363  18.546  38.064  12.451
42379W        W 7364  33.149  21.697  11.064
42380W        W 7365  19.631  13.731  11.669
42381W        W 7366  23.414  36.709  11.137
42382W        W 7367  42.035   2.986   1.979
42383W        W 7368  38.055  12.609   0.394
42384W        W 7369  41.268  26.944   0.918
42385W        W 7370  31.864  22.114   3.082
42386W        W 7371  44.436   9.746   2.325
42387W        W 7372  16.936  28.562  10.444
42388W        W 7373   9.391   4.180   2.181
42389W        W 7374  21.012  43.763  11.419
42390W        W 7375  15.836  37.956  14.852
42391W        W 7376   4.716  40.519  11.649
42392W        W 7377   8.519  18.771  12.030
42393W        W 7378  44.529  24.902   4.285
42394W        W 7379   9.675  29.909  14.873
42395W        W 7380   5.963  26.984  12.097
42396W        W 7381   9.430  13.863   0.362
42397W        W 7382   8.314   9.860   3.329
42398W        W 7383  31.010   7.308   4.186
42399W        W 7384  29.644  22.156  14.148
42400W        W 7385  22.020   7.810   2.285
42401W        W 7386  26.615  16.152   4.521
42402W        W 7387   1.777  13.207  12.448
42403W        W 7388   7.830   1.008  11.646
42404W        W 7389  31.567  41.289   0.012
42405W        W 7390  14.269  33.300  11.964
42406W        W 7391  34.483  14.361  12.454
42407W        W 7392  35.418  36.161  11.763
42408W        W 7393  37.899   6.334   1.878
42409W        W 7394  41.127   0.944  13.521
42410W        W 7395  15.316  24.421  11.984
42411W        W 7396   5.890   5.603  14.823
42412W        W 7397  39.583  25.251  13.835
42413W        W 7398   4.754  44.541   0.873
42414W        W 7399  38.841   0.025   1.941
42415W        W 7400   9.676  29.303   1.327
42416W        W 7401  41.286   9.223   3.277
42417W        W 7402  17.198  29.154   5.060
42418W        W 7403  18.164  17.067   3.340
42419W        W 7404   8.703  23.265   1.003
42420W        W 7405  18.775  18.662   1.871
42421W        W 7406  12.258  15.697   0.193
42422W        W 7407  29.004  15.630  12.928
42423W        W 7408  36.941   8.936   5.438
42424W        W 7409  21.472  29.440  11.164
42425W        W 7410  18.849   8.145  11.111
42426W        W 7411  13.230  30.893  13.791
42427W        W 7412  33.019   7.720  12.057
42428W        W 7413   9.085  38.887  13.197
42429W        W 7414  41.517  19.034   4.140
42430W        W 7415  17.629  31.501   1.904
42431W        W 7416  17.861  11.522   1.305
42432W        W 7417  38.130  11.707  12.944
42433W        W 7418  26.029  39.759   2.448
42434W        W 7419  39.543  30.878   0.694
42435W        W 7420  25.733  15.999  13.943
42436W        W 7421  21.943  14.385   2.048
42437W        W 7422  39.329  18.529  10.266
42438W        W 7423  27.481  26.639  12.451
42439W        W 7424  32.740  33.994  11.528
42440W        W 7425  36.442  22.062   0.866
42441W        W 7426  34.645   8.155  14.364
42442W        W 7427  37.072  34.863  11.655
42443W        W 7428  10.339  17.811   3.394
42444W        W 7429  24.412   7.414  11.143
42445W        W 7430  25.109  26.105   3.481
42446W        W 7431   9.808  39.855   2.701
42447W        W 7432  16.663   4.130   4.473
42448W        W 7433  40.302  35.098  12.118
42449W        W 7434  30.385  44.309   4.577
42450W        W 7435  29.720  21.044   3.048
42451W        W 7436   9.798  23.963  13.505
42452W        W 7437  24.626  32.108  13.907
42453W        W 7438  28.184  15.646   4.115
42454W        W 7439  23.072  37.621  11.170
42455W        W 7440  32.267  34.781   3.214
42456W        W 7441  40.919  39.973   4.422
42457W        W 7442  36.987  27.671   2.445
42458W        W 7443  14.730  30.598   3.852
42459W        W 7444   1.885  36.036  10.751
42460W        W 7445  15.732  22.929   4.628
42461W        W 7446  33.296   2.410  12.575
42462W        W 7447   0.590  13.574  12.818
42463W        W 7448  32.999  39.022  10.453
42464W        W 7449   0.869  32.449  11.745
42465W        W 7450  13.350   1.511  11.529
42466W        W 7451  24.587  21.194   2.349
42467W        W 7452  21.731  19.993   1.815
42468W        W 7453  31.623  13.339  10.499
42469W        W 7454   6.991  44.866   1.264
42470W        W 7455  38.236  20.672   3.581
42471W        W 7456  29.921  33.627  12.219
42472W        W 7457  39.271  11.870  12.491
42473W        W 7458   4.597  15.206   2.755
42474W        W 7459  16.783  12.573  13.316
42475W        W 7460  44.737  36.848  14.873
42476W        W 7461   0.109  10.435  11.872
42477W        W 7462  30.802  19.232  14.131
42478W        W 7463   0.492  18.195   3.084
42479W        W 7464   9.733  30.995   0.073
42480W        W 7465  16.432  29.616   5.100
42481W        W 7466  42.539  34.283   4.950
42482W        W 7467   8.574  25.902   4.569
42483W        W 7468  43.988   5.441  13.494
42484W        W 7469  35.185  22.944   2.422
42485W        W 7470  15.809  39.907  12.548
42486W        W 7471  27.541   5.850   4.835
42487W        W 7472   1.300  27.345  14.489
42488W        W 7473  43.016   2.990  12.173
42489W        W 7474  41.805   9.204   0.654
42490W        W 7475   9.433  37.856   3.402
42491W        W 7476  12.356  41.391  12.401
42492W        W 7477   8.405  35.193   1.154
42493W        W 7478  38.515   0.732   3.599
42494W        W 7479   5.417  16.228   2.579
42495W        W 7480  36.445   4.453   2.275
42496W        W 7481   2.853  44.752  10.752
42497W        W 7482   2.288  21.072  13.032
42498W        W 7483  28.617  33.168  11.215
42499W        W 7484  31.606  27.950  13.442
42500W        W 7485  12.895  18.022  12.347
42501W        W 7486   1.264   8.648   1.754
42502W        W 7487  36.460   1.321   1.350
42503W        W 7488   7.429  15.343   4.177
42504W        W 7489  13.109  42.974  11.322
42505W        W 7490   0.427   8.755  13.754
42506W        W 7491  36.425   7.866  10.737
42507W        W 7492  35.742  32.566  11.597
42508W        W 7493   3.959   5.358  13.877
42509W        W 7494  37.949   5.763  13.385
42510W        W 7495  31.216   3.340   3.767
42511W        W 7496   9.581  30.536  11.830
42512W        W 7497   7.776  29.490   4.902
42513W        W 7498  22.225  18.593   2.161
42514W        W 7499  42.862  21.935  13.306
42515W        W 7500   2.844  23.266  13.845
42516W        W 7501  34.967  11.001   3.636
42517W        W 7502  40.078  22.526   2.393
42518W        W 7503  21.777  38.279  13.014
42519W        W 7504  34.376   7.271  13.012
42520W        W 7505  38.869  13.575  10.649
42521W        W 7506  34.468  38.538   4.373
42522W        W 7507  42.200  25.974   1.678
42523W        W 7508  17.855  25.653   3.415
42524W        W 7509  40.910  13.463   1.413
42525W        W 7510   3.876  24.276   2.931
42526W        W 7511  41.894  25.656  12.090
42527W        W 7512   3.360  28.691  13.494
42528W        W 7513   1.309   0.834   4.669
42529W        W 7514   7.908   9.278  11.105
42530W        W 7515  17.757  18.229  14.516
42531W        W 7516  24.110  23.484   3.778
42532W        W 7517  11.611   7.119   1.656
42533W        W 7518  20.726  42.966   1.884
42534W        W 7519   7.262  25.976  11.503
42535W        W 7520  19.180  25.211  12.922
42536W        W 7521  21.765  14.216  13.166
42537W        W 7522   4.956  20.595   0.314
42538W        W 7523  24.255   7.925  12.414
42539W        W 7524  19.483  19.367   0.780
42540W        W 7525  14.404  30.956   2.836
42541W        W 7526  34.133   0.296  14.791
42542W        W 7527  30.512  24.973  12.001
42543W        W 7528  15.302   9.906   3.536
42544W        W 7529  33.354  27.590  12.041
42545W        W 7530  40.782  41.066   3.604
42546W        W 7531   1.321   1.006  13.122
42547W        W 7532  31.816  19.411  11.551
42548W        W 7533  29.588  43.256   3.673
42549W        W 7534  12.899  26.706  11.552
42550W        W 7535   9.292  21.792   1.329
42551W        W 7536  17.179   9.367  11.390
42552W        W 7537   0.501  18.888  12.360
42553W        W 7538  34.174  41.865   4.077
42554W        W 7539  22.277  10.747  13.843
42555W        W 7540   4.224  21.042   0.758
42556W        W 7541  25.848  18.547  12.355
42557W        W 7542  38.117  32.153   1.430
42558W        W 7543  12.715  13.154  12.557
42559W        W 7544  25.000  16.544  14.753
42560W        W 7545  20.505  31.315  12.044
42561W        W 7546  43.489   3.447   1.266
42562W        W 7547  35.922  10.733   0.991
42563W        W 7548  35.859   1.278   2.656
42564W        W 7549   7.257  13.221  12.871
42565W        W 7550  32.788  26.013   2.323
42566W        W 7551  42.963  30.966  14.023
42567W        W 7552  22.526  40.774   1.748
42568W        W 7553  31.047  25.608   0.602
42569W        W 7554   4.934   5.906   4.945
42570W        W 7555  29.499  30.994   2.754
42571W        W 7556  10.825  41.737   0.390
42572W        W 7557  44.431  23.424   4.097
42573W        W 7558  34.937   1.491   2.365
42574W        W 7559  13.210  29.544  12.546
42575W        W 7560  42.810   0.609   0.234
42576W        W 7561  28.168  28.194   2.871
42577W        W 7562  20.457  29.925   3.176
42578W        W 7563   9.141  18.111  13.918
42579W        W 7564  32.347  12.871  11.540
42580W        W 7565  28.039   2.962  14.493
42581W        W 7566  20.955   0.395  10.179
42582W        W 7567   2.698  39.471  14.258
42583W        W 7568  38.318  19.977   3.760
42584W        W 7569  14.074  33.243  13.544
42585W        W 7570  17.203   1.996   2.753
42586W        W 7571  37.995  35.923  10.853
42587W        W 7572  27.751   3.771  13.292
42588W        W 7573  17.436  28.388   2.828
42589W        W 7574  31.126  43.498  12.074
42590W        W 7575  10.651  19.214  11.797
42591W        W 7576  28.538  31.416  14.911
42592W        W 7577   0.349  21.133  10.850
42593W        W 7578  44.453  29.186  12.621
42594W        W 7579  26.031   7.439  14.303
42595W        W 7580  41.968  25.937  10.246
42596W        W 7581  41.943  10.904  14.970
42597W        W 7582   8.061   1.889  14.989
42598W        W 7583  29.640  42.346   3.600
42599W        W 7584  27.435  14.301   2.789
42600W        W 7585  43.974  18.145   4.603
42601W        W 7586  33.582  22.708   0.825
42602W        W 7587   4.871  37.605   2.728
42603W        W 7588  36.027   7.841  12.504
42604W        W 7589  38.350  31.018   1.477
42605W        W 7590  10.656  42.420  14.827
42606W        W 7591  23.886  44.531   3.210
42607W        W 7592  36.394  30.241  13.849
42608W        W 7593  21.772  19.728   3.877
42609W        W 7594  25.565   4.623   4.063
42610W        W 7595  20.774   9.684   4.690
42611W        W 7596  41.760  39.811  13.478
42612W        W 7597  40.717  31.374   2.636
42613W        W 7598   4.337  36.505   3.648
42614W        W 7599  17.287  40.932   4.219
42615W        W 7600  28.054  39.350   1.610
42616W        W 7601  23.346  15.696  13.977
42617W        W 7602  13.399  19.905  12.661
42618W        W 7603  10.125  23.010   1.238
42619W        W 7604  14.330   9.905  14.428
42620W        W 7605  12.441  15.788  12.936
42621W        W 7606  29.449  28.014  10.694
42622W        W 7607  37.011  12.827  14.941
42623W        W 7608  43.339   8.687   5.036
42624W        W 7609  33.472   3.175  10.104
42625W        W 7610   5.752  19.172  10.966
42626W        W 7611  40.028  14.058   1.914
42627W        W 7612  44.221  10.443  13.920
42628W        W 7613  17.229   9.468   4.649
42629W        W 7614  25.005   6.871  11.989
42630W        W 7615  35.438   3.262   4.086
42631W        W 7616  33.092  36.797  13.961
42632W        W 7617  16.861  39.366  14.233
42633W        W 7618  23.063  12.914   2.331
42634W        W 7619   6.812   8.824  12.859
42635W        W 7620  40.350  22.260  11.521
42636W        W 7621  16.850  22.995   2.798
42637W        W 7622  17.869  25.032   3.596
42638W        W 7623  18.690   3.069   2.264
42639W        W 7624  36.540  17.068   4.063
42640W        W 7625  18.563  36.315   4.154
42641W        W 7626  35.273  29.033  11.543
42642W        W 7627  27.108   1.247   1.367
42643W        W 7628  20.648   3.812  11.107
42644W        W 7629  28.206  13.666  11.117
42645W        W 7630  25.810  44.782   5.027
42646W        W 7631  34.362  28.838   3.594
42647W        W 7632  41.225  15.074   9.806
42648W        W 7633  27.885  28.840   0.004
42649W        W 7634  22.616  32.702  13.483
42650W        W 7635  15.108  33.084   2.802
42651W        W 7636  18.504  23.619   2.462
42652W        W 7637  14.895  37.154   1.385
42653W        W 7638   8.245  30.140   0.917
42654W        W 7639  14.161   5.292   0.607
42655W        W 7640  17.702   6.741   1.634
42656W        W 7641   0.459  44.010  12.875
42657W        W 7642  22.462  29.490   4.675
42658W        W 7643  27.398  33.317  11.159
42659W        W 7644  24.726   6.111  12.015
42660W        W 7645  28.476  11.432  11.271
42661W        W 7646  20.762  44.423   1.670
42662W        W 7647  30.123  28.538  14.230
42663W        W 7648   9.667   6.405   0.036
42664W        W 7649  29.375  43.897  13.138
42665W        W 7650  42.748   5.767   3.604
42666W        W 7651  16.096  21.717  10.638
42667W        W 7652  39.750   3.343  13.405
42668W        W 7653  21.553  13.227   3.211
42669W        W 7654  24.449  36.100   1.909
42670W        W 7655  12.359  38.615   0.563
42671W        W 7656   3.930  44.300   2.324
42672W        W 7657  29.645  16.747   2.874
42673W        W 7658   3.721  42.089  13.011
42674W        W 7659   8.794   7.635   1.783
42675W        W 7660   2.292  11.898   4.096
42676W        W 7661  43.818  12.715   0.038
42677W        W 7662  38.324   3.788  14.942
42678W        W 7663  23.653  29.388   2.432
42679W        W 7664   8.675  12.805  11.979
42680W        W 7665   3.815  16.732   3.722
42681W        W 7666  25.195  17.803  11.984
42682W        W 7667   2.474  12.898   2.742
42683W        W 7668  23.883   9.773   3.095
42684W        W 7669   1.454  37.599   1.801
42685W        W 7670  32.923   8.258   0.769
42686W        W 7671  27.106  42.509  11.509
42687W        W 7672   2.531  39.255  12.936
42688W        W 7673  10.190  16.652  10.818
42689W        W 7674  29.164  37.553  10.689
42690W        W 7675  32.178  13.724  12.547
42691W        W 7676  11.042  34.884  12.442
42692W        W 7677  20.557   1.628   2.270
42693W        W 7678  27.522  28.025   1.723
42694W        W 7679  44.394  43.465  14.789
42695W        W 7680   1.236  18.029  13.477
42696W        W 7681  15.038  14.848  13.899
42697W        W 7682   4.040   2.321  12.940
42698W        W 7683  20.648  36.405   2.684
42699W        W 7684  32.019  40.128   2.270
42700W        W 7685  27.657  15.586   1.488
42701W        W 7686  11.788  23.740   1.351
42702W        W 7687  27.551  17.330   2.909
42703W        W 7688  16.813  14.125   1.824
42704W        W 7689   0.939  16.717   0.117
42705W        W 7690  29.177  41.018  14.486
42706W        W 7691  35.566   1.440   0.854
42707W        W 7692   2.835  40.256  12.859
42708W        W 7693  25.129  37.332  11.287
42709W        W 7694  36.409   6.565   4.093
42710W        W 7695  33.549  20.292  12.905
42711W        W 7696   9.873  39.137   3.229
42712W        W 7697  43.261  12.192  13.406
42713W        W 7698  37.436  42.089  14.977
42714W        W 7699  26.475  26.580  12.509
42715W        W 7700   4.801  21.728   1.702
42716W        W 7701  26.728  44.665   0.684
42717W        W 7702  22.425  35.229   0.802
42718W        W 7703  43.919  20.760   0.394
42719W        W 7704  17.693   5.968  13.975
42720W        W 7705  18.172  26.066   3.324
42721W        W 7706  14.912  28.095   0.935
42722W        W 7707  34.150  33.539   0.261
42723W        W 7708  30.626  21.465   0.235
42724W        W 7709   9.241  43.244   2.134
42725W        W 7710  33.885   6.164  10.607
42726W        W 7711  18.681  38.560  12.479
42727W        W 7712  44.423  40.887  14.527
42728W        W 7713   5.950  19.240   0.909
42729W        W 7714   1.473  17.484  12.414
42730W        W 7715  21.490  24.445  11.488
42731W        W 7716  25.886   8.648  11.998
42732W        W 7717  37.602  32.467   3.063
42733W        W 7718  25.682   2.585  14.343
42734W        W 7719  36.865   1.377  14.971
42735W        W 7720   9.841   2.424  14.655
42736W        W 7721  42.098  18.715   2.433
42737W        W 7722  11.914  25.752   0.935
42738W        W 7723  13.116  36.776  13.012
42739W        W 7724   8.191  23.472  13.176
42740W        W 7725  32.514  27.451  11.848
42741W        W 7726  17.093  31.263   2.741
42742W        W 7727  37.966  21.403  13.452
42743W        W 7728  15.957  10.100   1.420
42744W        W 7729  12.382  38.106   3.344
42745W        W 7730  32.103  24.590   2.579
42746W        W 7731   1.250  16.757   1.374
42747W        W 7732  40.891   8.504   4.809
42748W        W 7733  22.078  24.037  12.903
42749W        W 7734  11.694   5.443  14.763
42750W        W 7735  44.072  32.498   3.134
42751W        W 7736  24.351  39.832   0.841
42752W        W 7737  23.258   7.034  13.442
42753W        W 7738  24.558  19.208   2.868
42754W        W 7739   0.158  35.026   2.636
42755W        W 7740  12.561  25.265  14.850
42756W        W 7741   2.483  18.698  11.208
42757W        W 7742  36.821  25.410   3.303
42758W        W 7743  20.122   9.939   1.484
42759W        W 7744  32.164  25.008   4.282
42760W        W 7745  42.989   2.443  14.619
42761W        W 7746  20.702   4.899  11.607
42762W        W 7747   4.415  35.813  14.510
42763W        W 7748  21.024  35.202  12.892
42764W        W 7749  23.901  28.978  11.603
42765W        W 7750  37.340  32.982  12.591
42766W        W 7751  19.839  21.136  13.353
42767W        W 7752  24.014  42.763  12.362
42768W        W 7753  22.392  16.001   3.197
42769W        W 7754  31.423  38.267   3.746
42770W        W 7755  31.458  18.228   0.623
42771W        W 7756  22.746  21.562   1.420
42772W        W 7757  20.300  20.267   0.904
42773W        W 7758  17.699   3.622   0.926
42774W        W 7759  25.464  17.897   1.364
42775W        W 7760   4.617  29.630  10.173
42776W        W 7761  42.465  20.241  10.943
42777W        W 7762  37.406   5.401   2.249
42778W        W 7763  37.318  12.184  11.500
42779W        W 7764  36.847  37.865  11.550
42780W        W 7765  21.454  39.451  10.628
42781W        W 7766  19.105  29.522  11.326
42782W        W 7767  15.532  36.559  14.805
42783W        W 7768   4.016  20.092  14.342
42784W        W 7769  10.709   0.728   3.128
42785W        W 7770   9.295  37.915   0.876
42786W        W 7771  24.603  26.778   1.427
42787W        W 7772  14.077  30.122   1.817
42788W        W 7773  15.641  12.901   3.557
42789W        W 7774  38.540  28.484  12.926
42790W        W 7775   6.568  19.640   2.814
42791W        W 7776  24.342  30.229   9.872
42792W        W 7777  32.051  40.024  14.817
42793W        W 7778  24.375  23.190  11.644
42794W        W 7779  36.850  30.073   0.818
42795W        W 7780  40.269   5.488   3.276
42796W        W 7781   7.729  21.811  10.877
42797W        W 7782   3.005  13.790  11.501
42798W        W 7783  33.720   5.395   0.064
42799W        W 7784  31.513  14.350  14.723
42800W        W 7785   0.273  26.474  13.570
42801W        W 7786  25.691   5.901   0.854
42802W        W 7787  44.994   4.290  11.616
42803W        W 7788  37.420  17.590   2.410
42804W        W 7789  32.608  21.016   4.733
42805W        W 7790  41.090  36.561   2.668
42806W        W 7791  42.683  42.920   4.960
42807W        W 7792   0.216   6.600   4.121
42808W        W 7793  37.609  31.026   2.131
42809W        W 7794  19.499  21.566   4.811
42810W        W 7795  37.322  44.812  11.650
42811W        W 7796  30.551  21.017   1.885
42812W        W 7797   1.262  27.670  11.162
42813W        W 7798   1.954  11.607   2.831
42814W        W 7799   5.440   5.737   1.999
42815W        W 7800  33.930  43.000  11.876
42816W        W 7801  27.958  17.801   2.215
42817W        W 7802  41.187  18.582  10.241
42818W        W 7803   5.447  40.797   4.017
42819W        W 7804  25.417  17.361  10.287
42820W        W 7805  11.401  40.525  12.413
42821W        W 7806  25.112   7.742  12.729
42822W        W 7807  43.384  42.278   3.304
42823W        W 7808  10.349  43.322   1.537
42824W        W 7809  37.630  17.884  13.230
42825W        W 7810  10.760  36.294  10.998
42826W        W 7811  20.720   4.920   2.245
42827W        W 7812   9.783  19.138  11.254
42828W        W 7813  28.517  14.136  12.434
42829W        W 7814  41.855  33.707  14.976
42830W        W 7815  35.794  10.622   3.294
42831W        W 7816   8.487  38.388   2.670
42832W        W 7817  27.851   8.278   4.912
42833W        W 7818  42.406  13.832   4.681
42834W        W 7819  10.195   0.587  11.457
42835W        W 7820   2.769  44.475  12.705
42836W        W 7821   7.266  39.440  14.442
42837W        W 7822   4.952  17.518  13.879
42838W        W 7823  18.470  20.705   2.143
42839W        W 7824   9.660  36.999   3.145
42840W        W 7825  20.085  42.865   2.461
42841W        W 7826  11.359  17.604   2.353
42842W        W 7827  29.901  26.008   0.798
42843W        W 7828  12.713  32.062  14.432
42844W        W 7829  10.664  34.196  13.963
42845W        W 7830   3.511  42.548  14.018
42846W        W 7831  14.037   1.900  10.464
42847W        W 7832  35.482  36.027  14.546
42848W        W 7833  34.986   0.503   3.278
42849W        W 7834  40.764  16.852   0.634
42850W        W 7835  24.082  39.463  12.550
42851W        W 7836  35.996  35.887  14.506
42852W        W 7837  24.555   8.690   0.294
42853W        W 7838  25.277  35.510  14.923
42854W        W 7839  23.284  18.097   2.827
42855W        W 7840  24.948  22.012  12.180
42856W        W 7841  27.594  34.468  11.253
42857W        W 7842   4.737  20.570   2.405
42858W        W 7843   3.442  34.046   2.795
42859W        W 7844   3.458  17.045  11.006
42860W        W 7845  22.160  30.076   2.262
42861W        W 7846  37.869  40.284  11.541
42862W        W 7847  17.362   4.339  12.892
42863W        W 7848  36.045  30.153  14.220
42864W        W 7849  36.003  14.768   2.649
42865W        W 7850   0.974  36.474   0.997
42866W        W 7851   9.807  38.990  11.500
42867W        W 7852  29.460  36.825   2.846
42868W        W 7853  30.055  42.576   4.402
42869W        W 7854  14.362   6.885  12.537
42870W        W 7855  16.639  20.854  14.833
42871W        W 7856  30.198  23.584   3.321
42872W        W 7857  25.975  34.668  14.843
42873W        W 7858  20.367   2.339   4.943
42874W        W 7859  10.815  11.675   1.855
42875W        W 7860  38.474  19.453   3.737
42876W        W 7861  23.845  18.469  12.059
42877W        W 7862   3.139  25.162  12.105
42878W        W 7863   5.686  15.182  13.944
42879W        W 7864  18.067  20.373   4.764
42880W        W 7865  31.825   9.289   4.858
42881W        W 7866  42.177  32.894   3.700
42882W        W 7867   5.261  29.100  13.807
42883W        W 7868  33.619  35.592  14.435
42884W        W 7869  30.340  20.578  11.991
42885W        W 7870  40.508  18.849  13.768
42886W        W 7871   8.287  29.476  14.519
42887W        W 7872  17.742  24.045  13.465
42888W        W 7873  33.889  12.163  12.339
42889W        W 7874  25.534  10.221  12.490
42890W        W 7875  41.375   6.003  12.715
42891W        W 7876  40.995  14.140   0.438
42892W        W 7877  10.343  26.727  13.550
42893W        W 7878  26.393  38.475   4.272
42894W        W 7879  30.030  17.856   4.871
42895W        W 7880  31.988  21.615   0.939
42896W        W 7881   3.290   2.122   0.300
42897W        W 7882   9.732  38.631   1.753
42898W        W 7883  12.315  33.073   0.857
42899W        W 7884  42.087  18.816   4.600
42900W        W 7885  27.175  24.894  13.153
42901W        W 7886  18.166  41.384   0.625
42902W        W 7887  30.980   6.450  12.319
42903W        W 7888  17.836  15.782   2.291
42904W        W 7889   5.318   8.235  13.563
42905W        W 7890  33.125  19.292  10.922
42906W        W 7891  31.598  36.047  12.921
42907W        W 7892  43.725   2.962   3.119
42908W        W 7893  36.995  44.043   1.951
42909W        W 7894  24.014  29.785  10.711
42910W        W 7895   1.485   8.598  13.124
42911W        W 7896  31.036  28.292  12.588
42912W        W 7897  43.057  19.765  12.081
42913W        W 7898  39.937  36.106   9.909
42914W        W 7899  14.934  34.237  12.576
42915W        W 7900  24.967   2.085   0.389
42916W        W 7901  34.318   9.004  14.005
42917W        W 7902   8.288  10.223  14.482
42918W        W 7903   2.041   1.949   2.737
42919W        W 7904  44.534  24.407  12.391
42920W        W 7905  11.205  16.078  14.324
42921W        W 7906  12.585  29.468   2.650
42922W        W 7907  29.890  42.541   1.609
42923W        W 7908  41.371  22.150   3.319
42924W        W 7909  33.479  26.990   1.659
42925W        W 7910  32.189  24.221   4.784
42926W        W 7911   5.866  44.791   3.881
42927W        W 7912  21.430  12.720  13.338
42928W        W 7913  37.908  17.649   4.608
42929W        W 7914  12.768  40.462  12.838
42930W        W 7915  18.195   0.047   3.199
42931W        W 7916   7.223  29.094   3.422
42932W        W 7917   0.817  28.912  13.143
42933W        W 7918   2.908  29.623  12.501
42934W        W 7919  28.902   9.765   0.319
42935W        W 7920  17.107   7.716   0.280
42936W        W 7921  40.424  24.871   2.497
42937W        W 7922  27.020   0.228  12.602
42938W        W 7923  35.624   9.353   5.071
42939W        W 7924  16.335  42.401   0.038
42940W        W 7925   8.301   0.850  11.486
42941W        W 7926  37.940   1.792   2.765
42942W        W 7927  32.077  21.523  11.087
42943W        W 7928  10.521  20.136  11.669
42944W        W 7929  38.889   2.441   2.482
42945W        W 7930   4.264  10.571   2.776
42946W        W 7931  36.621   0.788   3.758
42947W        W 7932  40.798  38.243   0.254
42948W        W 7933  17.285  27.606   3.128
42949W        W 7934  32.072  12.229   3.299
42950W        W 7935   6.628  39.408   3.215
42951W        W 7936  22.591  28.402   1.658
42952W        W 7937  10.807   9.799  14.496
42953W        W 7938  38.300  18.305   2.214
42954W        W 7939  10.776  18.140  10.692
42955W        W 7940  18.652   4.290  10.672
42956W        W 7941   0.902   1.671   0.283
42957W        W 7942  14.686  38.432   2.659
42958W        W 7943  41.876  34.417   1.506
42959W        W 7944  13.347  41.016   1.654
42960W        W 7945  19.611  42.840   1.591
42961W        W 7946  19.555  39.608  14.029
42962W        W 7947  13.315  17.577   3.883
42963W        W 7948   2.875  14.637   2.066
42964W        W 7949   0.352  44.234  14.733
42965W        W 7950   4.742  43.045   2.311
42966W        W 7951   6.070  33.215  11.141
42967W        W 7952  10.359  19.121  14.798
42968W        W 7953  15.180   3.869   1.671
42969W        W 7954  20.122   4.886   4.541
42970W        W 7955   6.167  35.806   1.143
42971W        W 7956  29.549  24.176  13.533
42972W        W 7957  37.291   2.377   2.179
42973W        W 7958  40.104  31.590  11.555
42974W        W 7959  14.870  20.632  10.731
42975W        W 7960  43.305  16.344  12.347
42976W        W 7961  30.662  36.559  12.147
42977W        W 7962   4.543  29.558   3.247
42978W        W 7963  20.699  11.261   1.971
42979W        W 7964  23.135   2.847  13.069
42980W        W 7965  20.758   6.997   4.934
42981W        W 7966  15.759  29.649  13.323
42982W        W 7967  30.124  11.532  12.952
42983W        W 7968  42.742  17.717  12.996
42984W        W 7969  31.071  40.496   3.730
42985W        W 7970  37.085  20.356   4.117
42986W        W 7971  19.999   6.193   2.333
42987W        W 7972   8.296  26.724  11.341
42988W        W 7973  37.882  27.952  10.813
42989W        W 7974  12.764  18.906   3.723
42990W        W 7975  10.283  18.056   0.488
42991W        W 7976  34.899  38.952  14.401
42992W        W 7977  14.623  32.640   3.583
42993W        W 7978   7.818  28.042   2.284
42994W        W 7979  37.610  37.479   1.273
42995W        W 7980  26.563  28.459   4.759
42996W        W 7981  26.605  19.693   3.357
42997W        W 7982  21.061   4.495  10.538
42998W        W 7983  43.356  20.856  14.088
42999W        W 7984   3.459  31.565   3.379
43000W        W 7985  36.314  38.912  13.732
43001W        W 7986  34.384  12.238   2.162
43002W        W 7987  32.051  16.364   2.142
43003W        W 7988  24.827   1.200  13.909
43004W        W 7989   4.182  31.598   4.911
43005W        W 7990  43.716  40.327   4.561
43006W        W 7991  30.643  26.736   1.825
43007W        W 7992   2.205   5.620   1.059
43008W        W 7993  27.473   2.308  14.947
43009W        W 7994  20.577  44.338  12.940
43010W        W 7995  28.818   0.573   5.070
43011W        W 7996  19.134   1.385   4.431
43012W        W 7997  14.206   1.095   2.595
43013W        W 7998   0.229  29.673  11.123
43014W        W 7999  34.565  12.027  13.811
43015W        W 8000  17.815  22.985  11.991
43016W        W 8001  17.687  11.894  14.044
43017W        W 8002  24.356   2.186  13.345
43018W        W 8003  21.810   6.231  11.857
43019W        W 8004  25.851  20.066  12.927
43020W        W 8005  27.519  15.119   4.090
43021W        W 8006  25.280  28.954   1.856
43022W        W 8007  43.554   9.670   1.263
43023W        W 8008  34.478  33.946   0.862
43024W        W 8009   1.021  17.356   3.420
43025W        W 8010   9.741  33.476   3.759
43026W        W 8011   9.079  24.126   0.743
43027W        W 8012  16.399   6.945  10.764
43028W        W 8013   6.405  11.622   3.285
43029W        W 8014   7.696  27.878   3.652
43030W        W 8015  22.462  29.455  11.402
43031W        W 8016  27.897  22.153  11.262
43032W        W 8017  40.550  18.671  14.268
43033W        W 8018   3.300   4.831  14.303
43034W        W 8019  10.528  42.236  11.133
43035W        W 8020   0.391   0.384  11.177
43036W        W 8021  31.848  25.152   3.346
43037W        W 8022   1.575  16.845   2.738
43038W        W 8023   3.399  42.808   1.958
43039W        W 8024  13.173  30.157  11.860
43040W        W 8025  36.270   8.432  12.968
43041W        W 8026  11.509  14.878   3.572
43042W        W 8027   6.238   6.566   0.261
43043W        W 8028  20.282  18.276  14.753
43044W        W 8029  22.048  10.169   3.325
43045W        W 8030  43.344  17.229   1.393
43046W        W 8031  18.580   7.052  11.121
43047W        W 8032   2.750  32.073  14.753
43048W        W 8033  21.776  37.983   2.201
43049W        W 8034  30.073  28.603  12.064
43050W        W 8035  23.202   9.445  13.031
43051W        W 8036   5.893  40.305   4.952
43052W        W 8037  16.711   3.853   5.423
43053W        W 8038  36.111  44.277   2.795
43054W        W 8039  19.139  15.700  14.300
43055W        W 8040  30.540  28.719  14.482
43056W        W 8041  43.275  19.754  13.341
43057W        W 8042   6.899  17.295   4.868
43058W        W 8043  21.540  36.317   4.135
43059W        W 8044   4.529  24.204   4.151
43060W        W 8045  23.286  41.918   0.916
43061W        W 8046  22.240  15.843   3.680
43062W        W 8047  20.965  18.603  10.186
43063W        W 8048  43.911   3.305   0.940
43064W        W 8049  24.873  16.078  11.697
43065W        W 8050  19.002  42.345   3.289
43066W        W 8051  27.973   8.098   2.051
43067W        W 8052  19.227  27.602  10.448
43068W        W 8053  41.223  13.446   5.070
43069W        W 8054  11.661   9.803  13.088
43070W        W 8055  37.058   2.524  12.501
43071W        W 8056  27.901  24.575   0.939
43072W        W 8057  43.397  18.307   5.285
43073W        W 8058  27.763   7.311  14.347
43074W        W 8059  39.346  10.133   9.917
43075W        W 8060  29.331  30.877  14.536
43076W        W 8061   3.258  18.555  12.013
43077W        W 8062  13.872  29.591   1.237
43078W        W 8063  17.496  22.619   0.142
43079W        W 8064  30.014  20.702  10.661
43080W        W 8065  44.507  28.737  13.962
43081W        W 8066   0.424  20.273  10.800
43082W        W 8067  35.237  38.790  12.414
43083W        W 8068   2.274  11.385   4.055
43084W        W 8069  11.374  12.073   0.462
43085W        W 8070  36.312  33.633   2.315
43086W        W 8071  15.419  26.111   1.328
43087W        W 8072  14.785   9.349  11.100
43088W        W 8073  15.420  36.490   3.160
43089W        W 8074  24.570   0.767   2.340
43090W        W 8075  11.818  28.649   0.243
43091W        W 8076   9.163  36.056   4.522
43092W        W 8077  14.021   6.884  10.271
43093W        W 8078  42.106  25.060   0.657
43094W        W 8079  30.949   8.180   3.202
43095W        W 8080   6.971   6.210   0.915
43096W        W 8081  14.006  42.743  14.767
43097W        W 8082  44.635   9.218   0.573
43098W        W 8083   2.402  32.500  14.520
43099W        W 8084  27.163  25.795  14.065
43100W        W 8085  27.043  39.805   1.459
43101W        W 8086  21.104  31.990  12.457
43102W        W 8087  13.628  24.750  14.316
43103W        W 8088  23.817  10.316   0.339
43104W        W 8089  13.017  32.469  14.310
43105W        W 8090  18.252  28.221   1.616
43106W        W 8091  24.265  12.764  14.595
43107W        W 8092  31.849  31.799   2.157
43108W        W 8093  44.944   4.403  13.090
43109W        W 8094   9.198  11.022   0.185
43110W        W 8095  38.429  17.350   4.361
43111W        W 8096  18.232   5.896   3.169
43112W        W 8097   8.175  36.109  10.394
43113W        W 8098  44.021   9.671   4.849
43114W        W 8099  30.074  21.481  14.601
43115W        W 8100   8.286   6.631  13.412
43116W        W 8101  29.837   4.677  14.448
43117W        W 8102  28.637  28.716   0.624
43118W        W 8103   9.569   9.435   2.269
43119W        W 8104  38.721  37.881   4.181
43120W        W 8105  28.384  30.928  14.105
43121W        W 8106  39.541   9.914  12.275
43122W        W 8107  42.286  26.632  12.146
43123W        W 8108  26.518  32.431  13.096
43124W        W 8109   7.933  13.837   0.310
43125W        W 8110  27.009  15.322  14.881
43126W        W 8111  42.149   7.793   3.924
43127W        W 8112  22.474  42.846   3.716
43128W        W 8113  17.752  33.956   3.625
43129W        W 8114  37.382  12.457   3.787
43130W        W 8115  41.986  32.053   3.167
43131W        W 8116  38.588  20.638   3.171
43132W        W 8117  18.141  25.130   0.128
43133W        W 8118  26.742  14.501   2.234
43134W        W 8119  14.193  20.781  14.387
43135W        W 8120  23.134  21.540  14.731
43136W        W 8121   9.459   6.296   5.053
43137W        W 8122  36.250   7.812   0.240
43138W        W 8123  21.189  34.110  13.678
43139W        W 8124  37.859   4.976  12.050
43140W        W 8125  15.754   9.841   0.322
43141W        W 8126  24.265  25.571   1.310
43142W        W 8127  19.611  40.714  11.733
43143W        W 8128  12.123  14.669   2.496
43144W        W 8129  35.382  33.021   4.689
43145W        W 8130  20.599  32.012   3.295
43146W        W 8131  37.831  26.393   4.573
43147W        W 8132   2.873   9.174   1.290
43148W        W 8133  32.897  30.093   4.151
43149W        W 8134   3.847   4.433  12.079
43150W        W 8135   0.328  12.432  14.421
43151W        W 8136  34.043  38.388  11.147
43152W        W 8137  40.861  32.912  14.475
43153W        W 8138  29.720  26.436   0.464
43154W        W 8139  26.487   0.968   2.216
43155W        W 8140  20.541  19.057   0.272
43156W        W 8141  22.560   5.025  13.890
43157W        W 8142  42.197  21.049   3.156
43158W        W 8143  19.623  34.451   0.538
43159W        W 8144  17.055  21.295  14.336
43160W        W 8145  38.546  30.691   0.061
43161W        W 8146  13.042  38.025   2.205
43162W        W 8147  38.008  13.330   0.794
43163W        W 8148  28.468  33.398  14.374
43164W        W 8149  38.474  35.081   1.160
43165W        W 8150  15.006   1.640   1.497
43166W        W 8151   6.033  18.996   1.720
43167W        W 8152   5.759   7.712  11.136
43168W        W 8153   9.702  23.276   3.042
43169W        W 8154  22.277   2.717  14.989
43170W        W 8155   2.083  29.129  14.683
43171W        W 8156  23.062  39.920  11.375
43172W        W 8157  22.710  42.318   3.086
43173W        W 8158  20.864  14.756  12.945
43174W        W 8159   7.892  19.239   2.206
43175W        W 8160  38.674  37.659  12.084
43176W        W 8161  19.709  15.304   3.686
43177W        W 8162   2.390  43.017   4.249
43178W        W 8163  20.378  27.171   3.599
43179W        W 8164  13.326  34.659  13.380
43180W        W 8165  41.278   9.686  11.632
43181W        W 8166  17.519  40.912  14.412
43182W        W 8167  39.398  15.841  12.419
43183W        W 8168  44.349  16.033  14.429
43184W        W 8169   1.306  15.647  14.370
43185W        W 8170  31.473   0.507   0.791
43186W        W 8171  36.818  17.729   3.239
43187W        W 8172  37.057  15.365   1.230
43188W        W 8173  17.002   6.461  12.073
43189W        W 8174  15.691  44.495   0.033
43190W        W 8175  27.951   7.817   2.893
43191W        W 8176  10.915  12.113  12.946
43192W        W 8177   0.338  24.124  11.986
43193W        W 8178   1.744  22.052   2.365
43194W        W 8179  37.960  23.097   1.372
43195W        W 8180  20.024  35.953   1.627
43196W        W 8181   5.934   9.536  10.396
43197W        W 8182  18.208  21.716   2.192
43198W        W 8183  12.870   7.630  10.247
43199W        W 8184  12.747  26.025  14.915
43200W        W 8185  33.227  12.710  12.666
43201W        W 8186  11.350  41.741   4.226
43202W        W 8187  34.528  11.675   2.711
43203W        W 8188  27.071  34.058   2.235
43204W        W 8189  39.835  22.635  12.406
43205W        W 8190   2.961  28.590  11.386
43206W        W 8191  42.920  31.690   2.710
43207W        W 8192  40.175   1.940  14.127
43208W        W 8193   0.412  25.230   3.239
43209W        W 8194   2.349  10.675   4.834
43210W        W 8195  17.341   3.548  11.641
43211W        W 8196  35.598  12.220  13.868
43212W        W 8197   9.651  29.939   0.801
43213W        W 8198  35.832  21.822  10.660
43214W        W 8199  16.475   3.923   0.223
43215W        W 8200  24.739  25.788   0.323
43216W        W 8201  25.706  12.416  14.590
43217W        W 8202  21.216  38.985   2.684
43218W        W 8203  30.895  41.914  11.245
43219W        W 8204  25.688  34.941   3.754
43220W        W 8205  15.106  11.192  13.962
43221W        W 8206  12.872   4.299   2.350
43222W        W 8207   6.462  30.874   0.010
43223W        W 8208  21.147   3.220  14.133
43224W        W 8209  44.448  33.856  13.973
43225W        W 8210  30.494   1.495   0.676
43226W        W 8211  26.211  14.839   0.349
43227W        W 8212  17.335   6.704   2.223
43228W        W 8213  32.396   4.935   3.817
43229W        W 8214  13.580  28.945  13.097
43230W        W 8215   5.951   8.269  11.906
43231W        W 8216  28.726  32.496  14.889
43232W        W 8217  21.104  30.168   3.644
43233W        W 8218  32.126  15.312   1.309
43234W        W 8219  44.013   9.260   0.533
43235W        W 8220  32.636  35.383  11.614
43236W        W 8221  18.664   9.681  10.968
43237W        W 8222   7.235  40.004   2.759
43238W        W 8223  32.687  44.171   2.212
43239W        W 8224  19.491  40.951   1.737
43240W        W 8225  42.703  30.506   1.041
43241W        W 8226   6.974   7.115   3.758
43242W        W 8227  39.033  34.109  12.911
43243W        W 8228   6.392  19.227   4.544
43244W        W 8229  34.317   5.600   2.520
43245W        W 8230  41.122  32.574   3.200
43246W        W 8231  37.999  36.497  13.086
43247W        W 8232  30.717   1.708   1.678
43248W        W 8233  33.862  35.243  10.441
43249W        W 8234   1.822  23.256   3.771
43250W        W 8235  41.860   5.637   2.782
43251W        W 8236  21.033   3.292  13.627
43252W        W 8237  11.322  21.082  12.086
43253W        W 8238  34.342  32.107   0.303
43254W        W 8239   5.199   1.621  12.316
43255W        W 8240   0.247  15.682  13.278
43256W        W 8241  22.266  33.956  14.758
43257W        W 8242  15.585   0.156  12.115
43258W        W 8243  42.319  42.858   0.828
43259W        W 8244  32.639  15.782   3.076
43260W        W 8245   0.089  35.377  13.374
43261W        W 8246  44.696   9.376  12.412
43262W        W 8247  29.449   0.226   1.651
43263W        W 8248   4.178  21.372  13.772
43264W        W 8249  34.821   0.245   4.797
43265W        W 8250  24.629   8.110  12.699
43266W        W 8251   4.397  10.249  11.130
43267W        W 8252  40.013  42.221  11.476
43268W        W 8253  41.818  40.104  12.026
43269W        W 8254  28.945   7.457   0.231
43270W        W 8255  15.426  40.399  12.798
43271W        W 8256   3.037   4.271   2.309
43272W        W 8257  18.013  20.879  11.540
43273W        W 8258  22.206  17.619  11.690
43274W        W 8259  23.897  13.677  12.113
43275W        W 8260  15.826   4.906   2.691
43276W        W 8261  42.509  37.059   3.270
43277W        W 8262   3.717  44.727  11.705
43278W        W 8263  10.119  26.528  11.629
43279W        W 8264  17.565  33.507  13.827
43280W        W 8265  28.131   6.774  12.475
43281W        W 8266  29.071  42.338  14.565
43282W        W 8267  35.859  41.619   4.402
43283W        W 8268  30.039  40.556  11.168
43284W        W 8269  42.522  29.033   2.034
43285W        W 8270  13.036   5.883   0.979
43286W        W 8271  22.597  44.495  14.690
43287W        W 8272  10.539  21.545  14.563
43288W        W 8273  37.574  23.973  11.573
43289W        W 8274  39.209  15.488   2.283
43290W        W 8275  30.909  24.765  14.434
43291W        W 8276  27.563  42.555  11.235
43292W        W 8277  16.319  12.650  13.556
43293W        W 8278  20.772  20.346  10.517
43294W        W 8279   8.283  35.571  11.488
43295W        W 8280  33.065  25.333   3.712
43296W        W 8281  41.272  31.117   1.331
43297W        W 8282  22.095   8.134  12.625
43298W        W 8283   8.880  42.045   4.146
43299W        W 8284  35.629  44.994   0.815
43300W        W 8285  33.650  12.953  14.746
43301W        W 8286  28.665  37.880  10.968
43302W        W 8287  43.269  28.863   4.956
43303W        W 8288  21.837  21.788  12.190
43304W        W 8289  27.749   6.286   2.196
43305W        W 8290  28.948  16.982  14.829
43306W        W 8291  43.735  16.133  12.134
43307W        W 8292  32.462  44.219   0.723
43308W        W 8293   4.775  44.292   4.154
43309W        W 8294  22.294  38.394   0.819
43310W        W 8295  21.637   2.525  13.459
43311W        W 8296  34.117  41.376   3.908
43312W        W 8297  15.591   2.709   2.264
43313W        W 8298  14.317  43.340   3.265
43314W        W 8299  10.451   9.708   3.499
43315W        W 8300   1.385  18.882   0.495
43316W        W 8301  16.563  10.677  11.164
43317W        W 8302   2.878   3.549   0.837
43318W        W 8303  31.069  14.275   4.134
43319W        W 8304  23.331  29.546  11.017
43320W        W 8305  35.882   5.323  11.846
43321W        W 8306  43.131  36.022  12.334
43322W        W 8307   1.070  27.706   5.305
43323W        W 8308  39.382  31.641   1.863
43324W        W 8309  14.143  38.701   2.032
43325W        W 8310  25.983  18.679   1.895
43326W        W 8311  33.623  38.562   0.730
43327W        W 8312   0.734  10.748  10.640
43328W        W 8313  11.175  31.438   1.750
43329W        W 8314   2.657   5.997   4.611
43330W        W 8315  26.519  39.075  13.010
43331W        W 8316  44.971   4.844   0.695
43332W        W 8317  29.593  38.789  12.006
43333W        W 8318  22.939   2.041  12.112
43334W        W 8319  32.316  18.981   2.149
43335W        W 8320  26.875   0.413  14.020
43336W        W 8321   6.933   8.350   1.404
43337W        W 8322  29.644  24.827  11.992
43338W        W 8323  16.562  29.091  14.401
43339W        W 8324   6.235  13.695   0.649
43340W        W 8325   7.761  28.284   2.834
43341W        W 8326   7.962  44.742  12.056
43342W        W 8327  35.287   8.807  11.346
43343W        W 8328   9.964  37.532   4.399
43344W        W 8329  16.099  30.968  10.647
43345W        W 8330  30.044   4.637   0.440
43346W        W 8331  35.078  41.308  10.638
43347W        W 8332   3.269  34.241   2.292
43348W        W 8333   9.819  14.333  14.063
43349W        W 8334  15.673  15.113  13.287
43350W        W 8335  24.212  38.052  13.747
43351W        W 8336   4.796  22.039  10.731
43352W        W 8337  37.911  19.356  11.069
43353W        W 8338  13.068  33.709  10.465
43354W        W 8339   1.374  41.239   0.345
43355W        W 8340   5.350  20.469   4.028
43356W        W 8341  15.785   7.922   3.251
43357W        W 8342  39.448  39.107  13.626
43358W        W 8343  40.537   7.017  13.988
43359W        W 8344  26.950  30.204  14.275
43360W        W 8345  19.030  10.170   1.162
43361W        W 8346   3.660  23.976   3.897
43362W        W 8347   8.948  20.509   2.925
43363W        W 8348  33.303  35.338   4.908
43364W        W 8349  29.460   1.865  14.452
43365W        W 8350  44.273  43.263   0.271
43366W        W 8351  25.415  22.555  10.677
43367W        W 8352   1.456  36.081   1.798
43368W        W 8353  37.266   2.835  14.451
43369W        W 8354  21.264  34.789   1.479
43370W        W 8355  17.147  25.394   4.630
43371W        W 8356  14.675  36.156   1.390
43372W        W 8357   7.377  32.947   4.152
43373W        W 8358  29.420  40.004   3.173
43374W        W 8359   8.309  14.134  12.940
43375W        W 8360  10.142  31.009  14.028
43376W        W 8361  14.261  42.511   0.922
43377W        W 8362   1.218  11.382  12.176
43378W        W 8363  39.115   9.433  10.643
43379W        W 8364  30.578  40.484   1.829
43380W        W 8365  20.644  27.331   4.414
43381W        W 8366   6.288  19.002   4.099
43382W        W 8367   7.884  40.947   2.384
43383W        W 8368  29.534  32.496   4.102
43384W        W 8369  40.715  24.945   2.055
43385W        W 8370  13.728  15.217  13.409
43386W        W 8371  40.955   7.848  10.896
43387W        W 8372  10.214  44.720  13.427
43388W        W 8373  15.577  13.182   2.874
43389W        W 8374  18.819   9.863  13.066
43390W        W 8375  22.700  43.304  12.491
43391W        W 8376  14.606  26.892   3.159
43392W        W 8377  31.823   6.239  14.442
43393W        W 8378  26.137  25.806   0.324
43394W        W 8379  39.780   7.440  14.965
43395W        W 8380  20.278   2.361  13.888
43396W        W 8381  14.885  24.574   2.771
43397W        W 8382  40.220  41.932   0.067
43398W        W 8383   5.207  24.095  13.372
43399W        W 8384  34.837  37.126   3.252
43400W        W 8385  22.722  25.542  12.834
43401W        W 8386  37.380   9.435   3.256
43402W        W 8387  15.549  26.704  10.239
43403W        W 8388   9.162  10.416   0.132
43404W        W 8389  10.081   8.851  14.809
43405W        W 8390  10.300  37.458  14.958
43406W        W 8391  32.106  14.755  11.540
43407W        W 8392  36.433   3.034  12.514
43408W        W 8393  18.176   1.339  12.905
43409W        W 8394  34.860   3.948   2.154
43410W        W 8395   9.338  30.943  12.103
43411W        W 8396  42.882  14.625   3.717
43412W        W 8397   5.074  13.395  11.522
43413W        W 8398  34.122  35.604   4.260
43414W        W 8399  11.122  11.421  12.551
43415W        W 8400  41.734  36.662   1.408
43416W        W 8401  30.246  20.154  12.548
43417W        W 8402  33.522  12.896  11.872
43418W        W 8403   3.948   0.974   0.559
43419W        W 8404  22.776  39.550  12.907
43420W        W 8405  20.543  16.740  13.844
43421W        W 8406  37.858  17.629   2.734
43422W        W 8407  14.712  12.106  11.010
43423W        W 8408  29.575   3.458   1.434
43424W        W 8409   5.433  38.598   4.638
43425W        W 8410  18.234  21.711   3.718
43426W        W 8411  17.369  25.897  14.347
43427W        W 8412  10.116  24.226  13.842
43428W        W 8413  18.676   0.281  10.567
43429W        W 8414  16.735  34.085  13.493
43430W        W 8415  10.249   0.022   4.584
43431W        W 8416  27.559   6.393   2.679
43432W        W 8417  42.546  24.928  13.735
43433W        W 8418  21.134  18.204   2.711
43434W        W 8419  42.143  29.531  11.112
43435W        W 8420  31.139  12.829   1.940
43436W        W 8421   4.228  42.900  14.942
43437W        W 8422   8.400  32.557  13.981
43438W        W 8423  29.487  36.623   2.323
43439W        W 8424  42.527   6.709   0.676
43440W        W 8425  10.343  17.739   0.075
43441W        W 8426  33.205  12.995  12.235
43442W        W 8427  27.079  36.060   1.363
43443W        W 8428  22.697  30.137  12.463
43444W        W 8429  24.161  18.693   5.342
43445W        W 8430   9.624   4.200  13.064
43446W        W 8431  25.707  25.126  12.854
43447W        W 8432  26.111  33.600   9.734
43448W        W 8433   4.959  22.222   0.884
43449W        W 8434  22.574   5.338  11.585
43450W        W 8435  26.053  37.667   1.253
43451W        W 8436  39.056   5.711  12.605
43452W        W 8437  34.083  13.277  14.967
43453W        W 8438   4.432  18.226   4.930
43454W        W 8439  17.970  36.952  14.411
43455W        W 8440  37.719  20.270   0.764
43456W        W 8441  43.511   9.260  14.709
43457W        W 8442  39.145   8.932  11.290
43458W        W 8443  26.067  29.380  14.236
43459W        W 8444  29.057  31.011  12.213
43460W        W 8445  32.592  26.342   2.680
43461W        W 8446   5.289  18.315   5.017
43462W        W 8447  19.545  36.867   4.641
43463W        W 8448   3.910  25.707   2.784
43464W        W 8449  43.967  14.605  14.415
43465W        W 8450   8.171   1.682   0.821
43466W        W 8451  26.549  11.852  14.567
43467W        W 8452  22.504  15.175   1.916
43468W        W 8453  41.940  13.655  10.898
43469W        W 8454  18.219  15.287   1.427
43470W        W 8455  21.330  16.811  14.782
43471W        W 8456   3.142  29.621   2.140
43472W        W 8457   8.614   5.431   1.287
43473W        W 8458  37.991  35.439  10.692
43474W        W 8459  16.042  23.560  13.571
43475W        W 8460  38.913  33.368   0.237
43476W        W 8461   7.968  14.871   2.609
43477W        W 8462  25.171  12.696  10.890
43478W        W 8463  32.081  32.873  12.471
43479W        W 8464  15.138  24.641  14.007
43480W        W 8465  20.166  37.115   0.727
43481W        W 8466  23.367  39.582  12.151
43482W        W 8467  36.589   5.796  10.635
43483W        W 8468  23.585  31.422   2.244
43484W        W 8469   0.075  34.147  14.681
43485W        W 8470  39.606  38.451  14.410
43486W        W 8471   3.972  24.718   1.015
43487W        W 8472  30.003  24.082  11.021
43488W        W 8473  21.172  11.982   4.178
43489W        W 8474  42.017  16.576  14.112
43490W        W 8475  37.435  12.856   4.339
43491W        W 8476  37.124  30.501  14.592
43492W        W 8477   7.263  22.014  14.036
43493W        W 8478   9.740  25.456   3.724
43494W        W 8479  36.325  23.993   3.254
43495W        W 8480  37.946  23.100   4.513
43496W        W 8481   3.656  20.494  12.020
43497W        W 8482   1.933  44.331   2.176
43498W        W 8483  14.131   7.868  14.008
43499W        W 8484  14.013  26.884  12.628
43500W        W 8485  44.501  34.169  10.541
43501W        W 8486   5.845  23.043   2.902
43502W        W 8487  42.770  10.070   1.266
43503W        W 8488  32.707  16.726   1.714
43504W        W 8489  33.682  21.728  11.153
43505W        W 8490  20.414  36.415   0.876
43506W        W 8491  43.899  21.265  11.408
43507W        W 8492  14.311   9.642  14.883
43508W        W 8493  19.938   8.373   0.001
43509W        W 8494  17.371  35.933  11.157
43510W        W 8495  43.814  36.309   0.803
43511W        W 8496  18.072  14.892  14.501
43512W        W 8497  12.875   8.866  13.844
43513W        W 8498  10.294   6.297   3.745
43514W        W 8499  12.382   3.966   0.001
43515W        W 8500  32.358  12.225  11.998
43516W        W 8501  34.648  21.744  14.563
43517W        W 8502  22.041   9.177   2.221
43518W        W 8503  41.060  32.057  14.131
43519W        W 8504   2.455  34.036   1.888
43520W        W 8505  29.835   9.155   2.250
43521W        W 8506  33.070   6.035  14.516
43522W        W 8507   0.032  40.552   3.372
43523W        W 8508  24.275  17.631  13.843
43524W        W 8509  32.562  19.081   3.605
43525W        W 8510  22.100  20.493  10.469
43526W        W 8511  36.390  37.965   4.193
43527W        W 8512  24.559   9.676   0.310
43528W        W 8513  39.478  13.182  11.176
43529W        W 8514  21.102  36.142  13.342
43530W        W 8515  34.432  31.902   3.648
43531W        W 8516  23.223   1.247   2.271
43532W        W 8517  23.080  34.652   2.821
43533W        W 8518  14.520  31.083   4.593
43534W        W 8519  22.985   6.973   0.306
43535W        W 8520  25.658  17.643   2.341
43536W        W 8521   9.635  44.374  13.981
43537W        W 8522  15.693  19.327  12.599
43538W        W 8523  32.285  23.180  12.219
43539W        W 8524   7.178  37.802  13.738
43540W        W 8525   7.256  25.026  11.658
43541W        W 8526  21.271  10.214   4.747
43542W        W 8527  30.854  40.995   0.946
43543W        W 8528  42.328  21.123  13.353
43544W        W 8529   0.193  24.548   3.743
43545W        W 8530  11.539  40.106  11.191
43546W        W 8531  41.093  43.843  10.612
43547W        W 8532  31.957   2.767   3.747
43548W        W 8533   7.846  19.780   2.379
43549W        W 8534   5.174  17.020   2.145
43550W        W 8535  38.108  44.382  10.158
43551W        W 8536   8.318   3.796   2.897
43552W        W 8537  13.241  27.254  12.018
43553W        W 8538  33.641  28.046  11.996
43554W        W 8539   0.879  44.416   0.423
43555W        W 8540  36.126  40.744   3.385
43556W        W 8541  31.966  18.213  12.381
43557W        W 8542  22.790   8.687   0.917
43558W        W 8543  32.131  29.076  12.033
43559W        W 8544  15.031  14.684   4.745
43560W        W 8545  23.132  40.863   4.205
43561W        W 8546  11.252  37.269   4.328
43562W        W 8547  25.498  34.936  11.777
43563W        W 8548  10.461   6.211   3.269
43564W        W 8549   1.356  21.538   0.335
43565W        W 8550  38.397   9.157  12.072
43566W        W 8551  35.418  31.700   3.239
43567W        W 8552  36.793   4.320   1.782
43568W        W 8553  40.584  28.021  14.998
43569W        W 8554  37.772   2.733  12.248
43570W        W 8555  39.452  37.415   1.674
43571W        W 8556   8.784  44.321   4.844
43572W        W 8557   9.439   4.708  10.890
43573W        W 8558  20.592  15.793   4.020
43574W        W 8559  39.330  20.751  14.367
43575W        W 8560   5.950  32.595  14.026
43576W        W 8561  19.849  35.721  13.345
43577W        W 8562  14.888  30.187   0.307
43578W        W 8563  20.203  38.969  12.410
43579W        W 8564  33.919  34.182  12.821
43580W        W 8565   3.943  26.739  11.311
43581W        W 8566  13.430  25.233  10.086
43582W        W 8567  19.445  35.902  13.586
43583W        W 8568   5.747  25.580   2.698
43584W        W 8569  23.708  35.959   2.242
43585W        W 8570   2.439  11.152  13.840
43586W        W 8571  16.631  41.470   2.236
43587W        W 8572  10.173  33.570  14.476
43588W        W 8573  21.795   9.533  12.053
43589W        W 8574   5.321  39.094   4.836
43590W        W 8575   7.874   9.777   2.742
43591W        W 8576   3.566  15.388  14.990
43592W        W 8577  27.573  26.766  14.493
43593W        W 8578   0.713  22.959  14.360
43594W        W 8579  17.055  42.942   4.950
43595W        W 8580  26.513  41.059   2.745
43596W        W 8581  16.732  28.848   3.238
43597W        W 8582  30.087  38.941   0.736
43598W        W 8583  41.350  36.170  11.997
43599W        W 8584   9.601   5.305  12.578
43600W        W 8585  15.781  30.172   4.693
43601W        W 8586  39.979  42.657   1.367
43602W        W 8587  18.659   4.679  13.352
43603W        W 8588   4.000  22.504  12.461
43604W        W 8589  16.345  30.848  14.835
43605W        W 8590   4.448  23.621   4.966
43606W        W 8591  43.632   1.901   0.462
43607W        W 8592   3.404  18.909   3.151
43608W        W 8593  10.217  28.392  11.582
43609W        W 8594  30.623  35.442   4.160
43610W        W 8595  10.086  20.642  13.486
43611W        W 8596   0.797  23.912   3.138
43612W        W 8597  24.782   4.688  14.514
43613W        W 8598  40.359  11.645   3.961
43614W        W 8599   4.963   9.732   0.283
43615W        W 8600  16.771   1.598   3.617
43616W        W 8601  15.011  40.485  14.419
43617W        W 8602  30.233  33.946  12.492
43618W        W 8603  38.529  33.172   0.880
43619W        W 8604  26.483  13.850  10.758
43620W        W 8605   6.865  26.434  11.450
43621W        W 8606  25.099   4.184  13.781
43622W        W 8607  12.197  29.180  12.217
43623W        W 8608   9.818   8.954   3.723
43624W        W 8609   3.740  32.585   1.727
43625W        W 8610  13.068  25.644   1.228
43626W        W 8611   7.429   5.571   0.838
43627W        W 8612  34.490  18.497  14.241
43628W        W 8613  36.165  24.447  13.338
43629W        W 8614  18.194  28.092  12.306
43630W        W 8615   8.344  38.504  11.615
43631W        W 8616  12.639   7.383  12.461
43632W        W 8617  27.741  14.129   3.215
43633W        W 8618  21.964  12.670  12.455
43634W        W 8619  34.337   8.744  13.035
43635W        W 8620  37.256  37.057  14.440
43636W        W 8621  28.621  16.120  10.892
43637W        W 8622  42.466   0.999  11.123
43638W        W 8623   9.702  25.017  12.064
43639W        W 8624  32.030  23.637  12.101
43640W        W 8625   5.965  20.912   2.070
43641W        W 8626   0.659  39.445  12.402
43642W        W 8627  39.756  34.450   4.490
43643W        W 8628  35.710  22.722   4.145
43644W        W 8629   2.302  36.496  11.399
43645W        W 8630  10.772  10.608  12.097
43646W        W 8631  25.876   5.605  10.301
43647W        W 8632  14.692  33.398   2.702
43648W        W 8633   9.093   6.198   0.802
43649W        W 8634  14.709  43.446   4.887
43650W        W 8635  40.150  11.124   3.181
43651W        W 8636  34.868  18.127   0.929
43652W        W 8637  44.386  26.221   4.636
43653W        W 8638  29.101  27.870   4.060
43654W        W 8639  22.240  35.875   4.723
43655W        W 8640  32.070  34.101   3.718
43656W        W 8641  29.760   0.923  11.128
43657W        W 8642  30.055  25.684  12.025
43658W        W 8643  36.503  21.981   1.851
43659W        W 8644   1.787  11.131  14.554
43660W        W 8645   2.839  36.921  10.347
43661W        W 8646  12.831  44.837  11.558
43662W        W 8647  42.496   0.774   1.472
43663W        W 8648   4.756  32.748  14.310
43664W        W 8649  38.580  23.481   0.422
43665W        W 8650  33.869  36.067   2.001
43666W        W 8651  19.956  41.448  10.450
43667W        W 8652  25.959   3.287  13.348
43668W        W 8653   5.236  17.642   2.643
43669W        W 8654  44.016  16.555  14.486
43670W        W 8655  14.800  14.807  11.197
43671W        W 8656  16.579  22.688  12.081
43672W        W 8657  26.191  29.839  13.984
43673W        W 8658   5.242   6.116  14.425
43674W        W 8659  40.777  34.571  12.589
43675W        W 8660  22.558  36.493   0.426
43676W        W 8661  27.040  33.635  10.275
43677W        W 8662  17.821  26.315  10.934
43678W        W 8663  33.040  32.920  13.977
43679W        W 8664   1.244   4.441   3.250
43680W        W 8665   0.071  20.661  11.589
43681W        W 8666   5.654  37.119   1.524
43682W        W 8667  39.774  33.528   0.714
43683W        W 8668  43.915  40.704   0.891
43684W        W 8669  42.385   0.905  14.050
43685W        W 8670  41.458  40.257  13.447
43686W        W 8671  16.610  32.419   4.882
43687W        W 8672  33.022  32.410  12.088
43688W        W 8673  34.047  25.297   1.898
43689W        W 8674   4.223  42.277   2.281
43690W        W 8675  17.612  22.269   9.775
43691W        W 8676   9.611  19.214  13.149
43692W        W 8677  37.715   5.020   4.142
43693W        W 8678  14.287  18.161   4.602
43694W        W 8679  34.482   4.279   3.627
43695W        W 8680  19.339  17.536  14.116
43696W        W 8681  31.689  29.187  12.952
43697W        W 8682   6.458   4.470  14.231
43698W        W 8683   0.046  13.154  13.033
43699W        W 8684   2.734   0.767   0.280
43700W        W 8685   2.192  36.598  14.921
43701W        W 8686  24.049  44.493  14.344
43702W        W 8687  36.074  37.592  13.018
43703W        W 8688  36.362  19.325   0.793
43704W        W 8689   6.949  17.287  13.984
43705W        W 8690  44.976  40.996   3.648
43706W        W 8691  30.554  20.672   0.693
43707W        W 8692   8.805  44.968  14.850
43708W        W 8693   9.828  18.113  10.508
43709W        W 8694  28.898  25.271   0.263
43710W        W 8695   3.959   1.927   1.464
43711W        W 8696  34.615  39.984  13.905
43712W        W 8697  22.091  42.304   0.403
43713W        W 8698  16.602  31.497  14.027
43714W        W 8699  18.616   3.752  14.456
43715W        W 8700  30.978  27.225  10.539
43716W        W 8701   5.038  42.399  12.413
43717W        W 8702  10.072   3.557   0.311
43718W        W 8703  28.039   9.184   0.828
43719W        W 8704  16.650   0.540   2.689
43720W        W 8705  15.804   9.282   3.067
43721W        W 8706  34.570  17.424   4.167
43722W        W 8707  21.311  26.979   0.363
43723W        W 8708   4.828  25.961  14.000
43724W        W 8709  11.692  11.279   0.367
43725W        W 8710  32.934  36.906  11.485
43726W        W 8711   8.747   1.896   2.829
43727W        W 8712  29.516   0.804  12.592
43728W        W 8713  26.250  27.468  13.823
43729W        W 8714  15.320  18.072   2.336
43730W        W 8715   8.901  15.772  12.861
43731W        W 8716  16.670   2.864   2.325
43732W        W 8717  36.519  39.102  11.169
43733W        W 8718   9.155  30.058   0.887
43734W        W 8719   6.841  17.942  12.120
43735W        W 8720  36.620  43.015  12.459
43736W        W 8721   7.694  31.237  14.664
43737W        W 8722  27.491  11.997  14.975
43738W        W 8723  37.996  10.231  10.720
43739W        W 8724  21.492  22.692   3.708
43740W        W 8725  41.085   0.454  14.799
43741W        W 8726  36.669  23.777  12.162
43742W        W 8727  26.707  23.574   0.130
43743W        W 8728  27.549  30.904   2.603
43744W        W 8729  41.777  14.095   3.230
43745W        W 8730  38.806  19.528   2.298
43746W        W 8731  44.281  37.595   2.748
43747W        W 8732  28.540  10.886   4.740
43748W        W 8733  44.959  37.436   0.277
43749W        W 8734  38.066   4.609  14.380
43750W        W 8735   2.436  32.961  14.859
43751W        W 8736  25.083  13.549  13.441
43752W        W 8737  12.083  31.909   3.163
43753W        W 8738  44.346  31.432  12.570
43754W        W 8739  43.453  14.218  12.063
43755W        W 8740  40.163  23.326  10.714
43756W        W 8741  14.641  14.119  11.126
43757W        W 8742  19.761  27.624  11.660
43758W        W 8743  37.800  22.282  12.442
43759W        W 8744   9.545  32.090  11.993
43760W        W 8745  39.063  26.774   4.147
43761W        W 8746  19.968   2.237   2.214
43762W        W 8747  43.102  42.726  13.688
43763W        W 8748  19.987   4.670   4.084
43764W        W 8749   7.587   9.814  11.868
43765W        W 8750  33.978  10.312   1.341
43766W        W 8751  39.215  43.969  13.468
43767W        W 8752   3.903   3.811  14.786
43768W        W 8753  34.256  44.027   3.695
43769W        W 8754  34.558   1.419   1.138
43770W        W 8755  17.763  28.342  12.093
43771W        W 8756  42.561  13.424   2.753
43772W        W 8757  39.717   4.957  11.128
43773W        W 8758   8.842  40.603  14.671
43774W        W 8759   8.270  30.918  13.101
43775W        W 8760  27.928  37.545  14.044
43776W        W 8761  23.887   1.327   2.749
43777W        W 8762  42.571  26.557  10.228
43778W        W 8763  13.880  42.831   3.283
43779W        W 8764  25.151  34.999   5.036
43780W        W 8765   7.190   8.341  11.230
43781W        W 8766  43.513  13.238  12.954
43782W        W 8767  41.408  22.744  14.914
43783W        W 8768  44.186  35.467   3.365
43784W        W 8769  41.591  29.962   4.207
43785W        W 8770  36.343  12.215  10.511
43786W        W 8771  15.517  31.495  12.141
43787W        W 8772  22.189  20.445  13.740
43788W        W 8773   6.000  14.189   4.091
43789W        W 8774  12.216   2.245  14.232
43790W        W 8775   3.070  11.056   0.761
43791W        W 8776  23.694  34.094  13.595
43792W        W 8777   8.292  11.135  14.521
43793W        W 8778   4.999   9.211   0.444
43794W        W 8779  40.261   4.607   4.360
43795W        W 8780  11.172  13.382   4.247
43796W        W 8781  24.017   9.607  11.869
43797W        W 8782   2.775  25.441   3.713
43798W        W 8783  43.307   7.512  14.047
43799W        W 8784  30.884  25.216   3.189
43800W        W 8785  13.583  17.494   4.927
43801W        W 8786   4.669  32.563   0.931
43802W        W 8787   1.880  44.130  14.421
43803W        W 8788   6.437  35.890   5.130
43804W        W 8789   9.760  32.170  13.961
43805W        W 8790  26.756  31.315   3.482
43806W        W 8791  33.400  14.690  13.349
43807W        W 8792  14.826   8.424  12.548
43808W        W 8793   1.294   7.212   2.288
43809W        W 8794  38.955  40.854  11.337
43810W        W 8795  13.564   0.212   0.854
43811W        W 8796  13.594  33.672   1.255
43812W        W 8797  18.263  23.853   1.274
43813W        W 8798  28.967  43.999  10.776
43814W        W 8799  18.477  39.473   1.790
43815W        W 8800   4.976  14.177   2.085
43816W        W 8801  23.311  24.356   2.432
43817W        W 8802  14.155  12.572   0.144
43818W        W 8803  11.123  12.799  14.975
43819W        W 8804   8.185  10.231  13.937
43820W        W 8805  38.207  37.774   4.360
43821W        W 8806   1.271  32.569   4.217
43822W        W 8807  32.113  12.386  11.573
43823W        W 8808  29.093  14.274  14.776
43824W        W 8809  42.940  43.456  14.280
43825W        W 8810  18.803  24.058  13.241
43826W        W 8811  30.591  23.066  13.506
43827W        W 8812  42.931  22.626   4.627
43828W        W 8813   8.830  40.394   2.142
43829W        W 8814   6.053  39.115  13.715
43830W        W 8815  22.179  31.719  13.887
43831W        W 8816   1.768  30.433   2.264
43832W        W 8817  37.366  20.216  11.043
43833W        W 8818   6.156  13.940   3.666
43834W        W 8819  27.442  36.354   4.832
43835W        W 8820   0.286  10.637  13.428
43836W        W 8821   3.756   9.404   1.852
43837W        W 8822  39.409  11.804  11.599
43838W        W 8823   3.769  18.604  11.932
43839W        W 8824  36.608  41.863   3.449
43840W        W 8825  15.018   6.676   2.137
43841W        W 8826   6.367  14.514  12.979
43842W        W 8827  24.483  34.559  12.895
43843W        W 8828  41.291  40.918  14.327
43844W        W 8829  13.146  35.174   1.170
43845W        W 8830  26.382  28.704  11.972
43846W        W 8831  19.331  31.660  14.979
43847W        W 8832  14.116  35.874   0.738
43848W        W 8833  26.993  29.894  14.989
43849W        W 8834   2.487  37.033  14.795
43850W        W 8835   7.683   1.959   4.987
43851W        W 8836  10.112  11.847  10.714
43852W        W 8837   2.907  35.857  11.605
43853W        W 8838  23.406  38.610   1.280
43854W        W 8839   9.795  34.207  14.828
43855W        W 8840  35.897   4.411  13.437
43856W        W 8841  41.921   3.839   1.327
43857W        W 8842  35.293  12.843  13.586
43858W        W 8843  31.539   4.691  13.583
43859W        W 8844  19.581  20.662   0.532
43860W        W 8845  30.865  14.183  14.340
43861W        W 8846  44.222  31.092   3.697
43862W        W 8847   9.631  30.196  10.671
43863W        W 8848  16.212  40.340   2.138
43864W        W 8849  20.977   0.327   0.881
43865W        W 8850  38.908  30.607  13.868
43866W        W 8851   4.483  29.972  14.962
43867W        W 8852   5.188   4.859  11.132
43868W        W 8853  33.522  29.938  14.786
43869W        W 8854  38.185   5.450   3.533
43870W        W 8855  30.924   5.166   0.325
43871W        W 8856  44.779  21.565   4.048
43872W        W 8857  11.071  26.572   2.667
43873W        W 8858  31.925  34.149   4.210
43874W        W 8859   9.792  22.630   1.322
43875W        W 8860  39.404  30.565   0.184
43876W        W 8861  35.678  18.859  12.929
43877W        W 8862  35.614  27.725  13.425
43878W        W 8863   8.260  12.646  14.839
43879W        W 8864  35.681   1.104  12.117
43880W        W 8865  32.886  19.800   3.236
43881W        W 8866  31.565  42.518  11.153
43882W        W 8867  44.610  13.197  11.450
43883W        W 8868  13.283  24.884  11.633
43884W        W 8869  30.376  36.503   4.137
43885W        W 8870  31.753  35.048   5.006
43886W        W 8871  14.368  44.742   1.233
43887W        W 8872  18.189  20.124   3.782
43888W        W 8873   5.662  21.685   4.182
43889W        W 8874  23.607  40.981   4.019
43890W        W 8875  44.768  22.225  12.166
43891W        W 8876  31.425   6.349   3.113
43892W        W 8877  20.268   6.292  12.268
43893W        W 8878  11.185  14.724  10.940
43894W        W 8879  41.476   6.839  10.902
43895W        W 8880  33.827  38.417   1.225
43896W        W 8881  20.105  39.420  12.994
43897W        W 8882  26.543  27.735   1.775
43898W        W 8883  10.337  35.139  12.976
43899W        W 8884   8.287   6.500   4.711
43900W        W 8885  42.785   5.984  12.578
43901W        W 8886   9.736  17.784   3.074
43902W        W 8887  16.208  13.246   4.126
43903W        W 8888  22.029  19.972  12.051
43904W        W 8889   2.380  19.474  12.143
43905W        W 8890   3.485   5.244   3.687
43906W        W 8891  33.369  24.015   0.362
43907W        W 8892  37.384  10.110   2.317
43908W        W 8893  15.781  17.588  14.372
43909W        W 8894  28.551  21.604  11.171
43910W        W 8895  42.411  33.947   0.857
43911W        W 8896   2.957  18.280   0.929
43912W        W 8897  35.695  27.678   4.226
43913W        W 8898   0.285   3.335  14.417
43914W        W 8899  23.211  34.590   3.730
43915W        W 8900  43.667  22.745   4.131
43916W        W 8901  21.719  38.303   2.844
43917W        W 8902   1.306  18.517  10.769
43918W        W 8903  37.412  29.453  14.242
43919W        W 8904  15.768  23.968   0.266
43920W        W 8905   8.351  19.780   0.340
43921W        W 8906  29.487  17.467  10.689
43922W        W 8907   2.794   8.085   0.348
43923W        W 8908  23.677  37.088   3.440
43924W        W 8909  31.090  24.487  13.542
43925W        W 8910  38.332  21.629   1.685
43926W        W 8911  41.999  27.522   4.532
43927W        W 8912   5.298   9.606   1.207
43928W        W 8913  20.085  13.455  11.602
43929W        W 8914  10.085  22.823   2.182
43930W        W 8915  26.740  20.030  14.936
43931W        W 8916   2.736  10.969  14.840
43932W        W 8917  39.587  19.980  13.486
43933W        W 8918  25.551   1.053   0.688
43934W        W 8919   4.471   5.709  14.978
43935W        W 8920  24.120   7.485   1.812
43936W        W 8921  26.799  14.171  14.418
43937W        W 8922   6.421  10.361  11.204
43938W        W 8923  35.359  13.718   0.379
43939W        W 8924  38.969  39.220  11.426
43940W        W 8925   6.798   6.298   3.229
43941W        W 8926  22.134   1.209  13.942
43942W        W 8927   6.821  27.151  10.980
43943W        W 8928  43.412  29.149  14.452
43944W        W 8929  14.308  40.776  10.757
43945W        W 8930   5.090  14.685  14.514
43946W        W 8931  18.084   1.419   2.912
43947W        W 8932   5.425  31.985  11.002
43948W        W 8933  26.222   6.247  13.018
43949W        W 8934   3.290  11.843  12.548
43950W        W 8935  43.257  39.825   4.098
43951W        W 8936  33.481  14.078   2.132
43952W        W 8937  31.325   5.459  13.915
43953W        W 8938  37.416   1.260  12.678
43954W        W 8939   2.389  34.557   4.296
43955W        W 8940  23.016   5.269  11.858
43956W        W 8941  30.140  11.654  10.999
43957W        W 8942   2.015  41.865  11.417
43958W        W 8943  20.684   9.856  14.052
43959W        W 8944  31.600  10.761   1.696
43960W        W 8945  14.171  25.674   3.902
43961W        W 8946  28.749   4.836  10.984
43962W        W 8947   6.845  27.328  10.497
43963W        W 8948  22.114  17.774  13.118
43964W        W 8949  22.741  44.921  14.420
43965W        W 8950   0.507  40.582   3.199
43966W        W 8951   2.991  34.172   4.481
43967W        W 8952  14.790  31.358  14.465
43968W        W 8953   1.245  23.053   0.324
43969W        W 8954  35.538   7.924   2.742
43970W        W 8955  25.825  11.729   4.958
43971W        W 8956  25.655  26.617  10.637
43972W        W 8957   2.665  44.193   4.046
43973W        W 8958   3.107  16.290  11.523
43974W        W 8959  16.594  35.892   3.849
43975W        W 8960  23.275  43.038  11.976
43976W        W 8961  36.741  29.074   4.518
43977W        W 8962   7.806  16.733   2.430
43978W        W 8963  15.060  18.273   1.936
43979W        W 8964  14.645  20.707   1.696
43980W        W 8965  12.214  30.882   2.205
43981W        W 8966  39.851   8.769  13.143
43982W        W 8967   9.903  24.709  14.927
43983W        W 8968  35.496  27.381  11.194
43984W        W 8969  23.468   3.243  13.322
43985W        W 8970  36.367  27.156   2.352
43986W        W 8971  22.565  43.699   3.310
43987W        W 8972  42.277  24.596   0.442
43988W        W 8973  32.930  28.037   3.785
43989W        W 8974   7.898  13.308   0.310
43990W        W 8975  14.080   9.640   0.376
43991W        W 8976  12.777  28.742  12.563
43992W        W 8977  18.597  22.745   1.223
43993W        W 8978   8.883  36.740  11.455
43994W        W 8979   0.858   3.943  13.812
43995W        W 8980  38.397  41.798  14.736
43996W        W 8981  35.079  37.607   3.211
43997W        W 8982  30.617  24.758   1.751
43998W        W 8983   0.546  17.875  12.606
43999W        W 8984  36.932  22.768   2.766
44000W        W 8985  28.090  23.456   5.038
44001W        W 8986  26.610   9.829  11.726
44002W        W 8987  36.318  43.348   3.124
44003W        W 8988  43.156  17.855   0.403
44004W        W 8989  26.575   4.992   3.278
44005W        W 8990  44.882   0.061  11.402
44006W        W 8991   0.480  12.627   4.668
44007W        W 8992  19.072  13.141  13.361
44008W        W 8993  15.688  44.641   4.588
44009W        W 8994  31.420  13.042  11.437
44010W        W 8995  28.156  19.069  11.170
44011W        W 8996  18.256  18.850   0.246
44012W        W 8997  35.401  42.552   1.355
44013W        W 8998  15.696   6.144   2.660
44014W        W 8999  42.073   7.862  13.874
44015W        W 9000  15.607   1.860   3.195
44016W        W 9001   6.773   4.337   4.417
44017W        W 9002  19.535  43.429  11.950
44018W        W 9003  24.500  32.171   3.277
44019W        W 9004  16.768  39.611   3.382
44020W        W 9005  38.880  14.329  13.003
44021W        W 9006   8.258  21.938  10.795
44022W        W 9007  16.111   2.368   3.749
44023W        W 9008  28.725   2.922  11.731
44024W        W 9009  11.796   2.948   4.174
44025W        W 9010  18.120   5.452  14.377
44026W        W 9011  14.625  38.345   4.126
44027W        W 9012  31.568  32.920   3.684
44028W        W 9013  15.242   8.978   0.290
44029W        W 9014  32.230  10.227  14.845
44030W        W 9015  27.367   4.643  14.894
44031W        W 9016   8.574  13.579   3.836
44032W        W 9017  14.666  32.679  14.833
44033W        W 9018  28.949  30.121  14.771
44034W        W 9019  37.495   9.430   4.155
44035W        W 9020  13.852   5.152  11.573
44036W        W 9021  41.522  15.090   5.609
44037W        W 9022  10.712  17.390   4.145
44038W        W 9023  34.574  35.428  12.294
44039W        W 9024  28.051  22.905  11.966
44040W        W 9025   3.475   6.676  13.906
44041W        W 9026  32.932  12.670  14.031
44042W        W 9027   1.874  28.508   1.897
44043W        W 9028  34.007  43.850  10.568
44044W        W 9029  26.777  23.760   0.634
44045W        W 9030  34.160   7.184  11.541
44046W        W 9031  35.902  20.604   3.335
44047W        W 9032  28.056  14.304  10.186
44048W        W 9033  34.621  28.493   1.337
44049W        W 9034  44.780  26.450   2.362
44050W        W 9035   2.268   5.869   3.672
44051W        W 9036  44.673   8.112  12.475
44052W        W 9037  41.351  13.340   0.727
44053W        W 9038   2.462  30.057  10.665
44054W        W 9039  23.280  15.072   0.895
44055W        W 9040   5.767   6.998   1.708
44056W        W 9041   2.354  32.408   1.265
44057W        W 9042   5.228  32.499   2.404
44058W        W 9043  29.249  30.014  13.434
44059W        W 9044  37.301   7.576   2.285
44060W        W 9045  43.814  29.758  12.536
44061W        W 9046  40.412  11.398   1.794
44062W        W 9047  10.756  24.793  14.422
44063W        W 9048  44.543  32.910  10.761
44064W        W 9049   7.872   9.262   3.904
44065W        W 9050  22.546  18.245   0.158
44066W        W 9051  14.696  11.757   4.079
44067W        W 9052  21.203   9.212   2.562
44068W        W 9053  18.210  26.717   0.791
44069W        W 9054  16.616   0.335   3.650
44070W        W 9055  44.710  17.067   1.888
44071W        W 9056  43.377   2.964  13.959
44072W        W 9057  31.203  34.880  12.458
44073W        W 9058  25.552  26.931   2.764
44074W        W 9059   3.069  31.993   2.227
44075W        W 9060  32.431  24.176  14.402
44076W        W 9061  29.254  15.166  13.005
44077W        W 9062  37.014  11.828  11.011
44078W        W 9063   6.257  22.003  14.496
44079W        W 9064  28.115  34.713  12.450
44080W        W 9065   6.719  37.475  12.389
44081W        W 9066   0.871  38.443  12.485
44082W        W 9067  34.978   1.605   4.655
44083W        W 9068  26.537   3.422   4.929
44084W        W 9069  38.942  41.564   4.928
44085W        W 9070  25.713   9.533  10.730
44086W        W 9071   7.032  42.031   1.690
44087W        W 9072  25.470  14.109  10.031
44088W        W 9073  20.491  10.739   0.283
44089W        W 9074  30.986  24.970  13.800
44090W        W 9075  37.180   5.500  13.596
44091W        W 9076  38.500  25.047  14.469
44092W        W 9077  44.725  43.697   0.864
44093W        W 9078  12.800  15.993  11.561
44094W        W 9079  31.976  31.420  13.895
44095W        W 9080  44.227  33.433   4.019
44096W        W 9081  24.746  15.543   3.589
44097W        W 9082  13.333  42.513  12.538
44098W        W 9083  14.393   3.288  10.264
44099W        W 9084  30.824  38.910  11.703
44100W        W 9085  37.108  22.519   2.277
44101W        W 9086  22.454  11.274   0.873
44102W        W 9087  38.987  23.227   2.681
44103W        W 9088   4.574  41.009   2.910
44104W        W 9089   5.659  23.800  14.546
44105W        W 9090  20.297  35.017   3.125
44106W        W 9091  31.072  36.343   2.956
44107W        W 9092  35.123  16.881  13.885
44108W        W 9093  10.283   7.877   2.313
44109W        W 9094  38.838   9.274  14.906
44110W        W 9095  33.919  25.235  14.495
44111W        W 9096   4.223  23.073  14.538
44112W        W 9097   0.657  35.446   1.281
44113W        W 9098  24.176   0.220  13.350
44114W        W 9099  28.553  26.722   0.613
44115W        W 9100  35.125  43.418   0.451
44116W        W 9101  14.836  16.451   4.674
44117W        W 9102  34.407   0.369  14.344
44118W        W 9103  29.791   5.727  12.998
44119W        W 9104  28.519   6.424  12.451
44120W        W 9105  41.291  27.705   4.140
44121W        W 9106  28.413  38.464   0.798
44122W        W 9107  24.537  29.525  11.882
44123W        W 9108  31.921  30.900  12.191
44124W        W 9109  20.023  39.234  14.971
44125W        W 9110  19.479  18.243   2.297
44126W        W 9111  31.101  26.724  10.496
44127W        W 9112  40.937  10.383  14.939
44128W        W 9113  34.053  12.188   0.961
44129W        W 9114  13.170  41.113   4.824
44130W        W 9115  15.083  41.677   3.153
44131W        W 9116  33.329  40.954   2.630
44132W        W 9117  20.655  31.744   5.220
44133W        W 9118  43.247  28.161   3.207
44134W        W 9119   9.761   2.126   4.339
44135W        W 9120  11.235  15.678   0.350
44136W        W 9121  29.343  41.660  13.368
44137W        W 9122  23.535  14.366  11.523
44138W        W 9123  28.198  25.296   2.322
44139W        W 9124   4.718  16.217  11.666
44140W        W 9125   7.152   6.857   0.183
44141W        W 9126   0.973  37.654   1.623
44142W        W 9127  11.251  25.025   3.245
44143W        W 9128  16.695  16.273   1.829
44144W        W 9129  15.115  10.207   0.823
44145W        W 9130  29.721   1.265  10.564
44146W        W 9131  16.440  36.341   4.071
44147W        W 9132  26.460   3.705  10.290
44148W        W 9133  28.264  40.421  14.981
44149W        W 9134  17.970  19.848   1.695
44150W        W 9135  14.939  25.024  10.306
44151W        W 9136   2.156   6.154   1.831
44152W        W 9137   1.680  23.353   4.265
44153W        W 9138  30.455  13.223   2.348
44154W        W 9139   0.929   7.989  13.088
44155W        W 9140  25.161   1.783   0.740
44156W        W 9141  34.835  38.640   1.404
44157W        W 9142  21.522  20.251   2.217
44158W        W 9143  32.357  28.191   4.569
44159W        W 9144  22.997  33.044   3.144
44160W        W 9145  13.267  42.970   3.224
44161W        W 9146  40.315  30.520   3.357
44162W        W 9147   5.243  16.401  10.961
44163W        W 9148  20.179   1.971  13.523
44164W        W 9149  36.835  34.210   3.056
44165W        W 9150  13.370   0.829   0.954
44166W        W 9151  13.346   1.212  14.633
44167W        W 9152   9.524  25.856  10.834
44168W        W 9153  41.488  11.791   2.804
44169W        W 9154  25.645  20.802  13.854
44170W        W 9155  13.127   6.296   1.927
44171W        W 9156  26.757  34.810   2.711
44172W        W 9157  29.564  11.412  12.073
44173W        W 9158  44.443  12.332  12.731
44174W        W 9159  19.909  21.214  10.008
44175W        W 9160  22.548  38.458  11.089
44176W        W 9161  12.893  38.471  13.978
44177W        W 9162  35.866  39.296   0.035
44178W        W 9163   8.377  11.941  12.014
44179W        W 9164  43.548  20.481   4.876
44180W        W 9165  32.416  39.421  11.150
44181W        W 9166   1.962   9.519  12.449
44182W        W 9167  18.292   4.637  14.812
44183W        W 9168  25.687  24.070  10.380
44184W        W 9169  40.258  18.537  13.414
44185W        W 9170  33.561  37.810   0.416
44186W        W 9171  15.846   2.839  14.062
44187W        W 9172   5.951  26.122  12.486
44188W        W 9173  12.723  19.336  13.113
44189W        W 9174  13.683   9.366   2.261
44190W        W 9175   1.970  41.356   4.086
44191W        W 9176  44.778   6.066  14.054
44192W        W 9177  14.365   3.760   0.737
44193W        W 9178  39.979   9.904  10.647
44194W        W 9179  37.867  17.553   0.981
44195W        W 9180  21.230  38.495   0.131
44196W        W 9181  30.410  31.028  14.325
44197W        W 9182  18.153   9.293  11.551
44198W        W 9183  44.007  31.693   4.818
44199W        W 9184  21.962   6.281   2.238
44200W        W 9185  29.034  38.845  14.253
44201W        W 9186  41.420  21.707   1.024
44202W        W 9187  19.692   4.267   4.789
44203W        W 9188  27.472   9.294   4.665
44204W        W 9189   0.774  24.611   4.596
44205W        W 9190   2.278  19.736  12.581
44206W        W 9191  42.536  24.108   0.370
44207W        W 9192  19.678   7.096  14.532
44208W        W 9193  10.922  41.962   2.714
44209W        W 9194  42.027  43.937   0.910
44210W        W 9195   6.847  29.445   0.531
44211W        W 9196  29.898  25.473   0.894
44212W        W 9197  24.101  25.227   2.023
44213W        W 9198   5.221  13.627   3.678
44214W        W 9199   1.484  28.162   1.960
44215W        W 9200  43.926   0.434   4.577
44216W        W 9201  36.348  41.788   4.385
44217W        W 9202   4.692  17.496   5.031
44218W        W 9203  14.616  43.296  13.603
44219W        W 9204  22.845  27.178   4.415
44220W        W 9205  10.218  43.887  11.121
44221W        W 9206  14.858  24.954  13.618
44222W        W 9207  25.215  22.861   3.315
44223W        W 9208  40.841   5.553  12.941
44224W        W 9209  12.564  18.558  13.076
44225W        W 9210  25.766  37.055  13.837
44226W        W 9211  25.580  37.520   2.696
44227W        W 9212  27.144  43.945   2.581
44228W        W 9213  23.748  39.045  12.003
44229W        W 9214  26.905  41.001  13.987
44230W        W 9215  40.165  12.557   4.205
44231W        W 9216  14.355   6.831  13.938
44232W        W 9217   4.812  15.747  12.970
44233W        W 9218  32.803   4.988   3.525
44234W        W 9219  26.586  33.968  13.167
44235W        W 9220  31.420   3.462  11.990
44236W        W 9221   5.531   9.823  14.400
44237W        W 9222   7.813  26.630   1.839
44238W        W 9223  12.112   9.633  10.505
44239W        W 9224  22.635  44.931  14.953
44240W        W 9225  26.952  43.053   2.351
44241W        W 9226  30.994   2.862  12.627
44242W        W 9227  40.390  17.597  14.469
44243W        W 9228   2.712  29.769  12.998
44244W        W 9229  12.073  23.513   3.130
44245W        W 9230  24.083  25.692  11.430
44246W        W 9231  35.843  16.756  11.065
44247W        W 9232  27.932  32.348  13.567
44248W        W 9233  27.003   9.842   4.453
44249W        W 9234   4.255   4.303   4.246
44250W        W 9235  25.768  11.884  11.098
44251W        W 9236  33.676  17.611  10.713
44252W        W 9237  18.528  40.380   4.276
44253W        W 9238  26.474   5.630  14.651
44254W        W 9239   5.468   8.749  11.398
44255W        W 9240  22.056   8.855   1.805
44256W        W 9241  41.794  12.053  12.433
44257W        W 9242  38.252   0.758   2.102
44258W        W 9243  30.664  38.052  12.790
44259W        W 9244  20.621  41.648   1.944
44260W        W 9245  44.972  34.487   2.659
44261W        W 9246  16.082  43.759  11.536
44262W        W 9247  11.430   9.291  11.236
44263W        W 9248  19.020  24.004   5.479
44264W        W 9249  27.679  25.241  12.393
44265W        W 9250  41.579   1.039   3.276
44266W        W 9251  41.214  19.759   3.030
44267W        W 9252  22.452  20.255  13.299
44268W        W 9253   2.382  36.607  12.493
44269W        W 9254  15.273  40.373   3.621
44270W        W 9255  25.198  14.518   4.133
44271W        W 9256  28.211  39.506  10.329
44272W        W 9257  30.635  32.750  14.837
44273W        W 9258  37.490  14.789   0.854
44274W        W 9259  27.080  16.931   0.270
44275W        W 9260   0.939   4.388  12.993
44276W        W 9261  28.961  35.923   2.795
44277W        W 9262  22.315  37.493   5.004
44278W        W 9263  35.485  16.646   4.053
44279W        W 9264  25.401   2.388  11.980
44280W        W 9265   0.975  32.897   1.757
44281W        W 9266  26.222  15.697   1.149
44282W        W 9267   4.985  36.157   4.107
44283W        W 9268   9.944  44.842   3.406
44284W        W 9269  41.900  35.381  14.759
44285W        W 9270  32.862  35.067  13.426
44286W        W 9271   1.276  23.162   4.532
44287W        W 9272   9.909  18.951   4.366
44288W        W 9273  26.092   3.806   0.985
44289W        W 9274  33.319  32.210   2.712
44290W        W 9275  39.193  41.363   3.501
44291W        W 9276   7.839  34.091   0.797
44292W        W 9277  19.870  31.932   2.639
44293W        W 9278  36.578  14.252   4.366
44294W        W 9279  22.771  18.244  11.076
44295W        W 9280  14.726  42.519   2.833
44296W        W 9281  25.426  21.696   1.322
44297W        W 9282   4.501  41.075   3.772
44298W        W 9283  16.405  36.376  13.079
44299W        W 9284   4.046   3.267   3.077
44300W        W 9285   6.626   3.511   4.604
44301W        W 9286  14.722  22.498  11.513
44302W        W 9287  23.452  33.012   1.333
44303W        W 9288   2.480  19.010  14.907
44304W        W 9289  28.169  36.414  11.129
44305W        W 9290  27.422  39.503  14.778
44306W        W 9291  19.065  15.891  11.806
44307W        W 9292  35.454  28.154   1.626
44308W        W 9293   3.920   0.791   2.887
44309W        W 9294  17.827  24.203   1.735
44310W        W 9295   6.809  13.599   4.890
44311W        W 9296   3.395   7.954  13.212
44312W        W 9297   4.817  17.586  14.817
44313W        W 9298  42.026  40.632   3.150
44314W        W 9299  33.157  21.696   3.496
44315W        W 9300   2.748  32.412   0.898
44316W        W 9301   7.823  18.603  14.877
44317W        W 9302  44.235  43.267  12.170
44318W        W 9303   0.600  32.049  12.948
44319W        W 9304  21.945  28.645   2.321
44320W        W 9305  27.573   5.383  10.906
44321W        W 9306  22.092  40.802  12.001
44322W        W 9307  41.917  39.994  13.018
44323W        W 9308  21.143   2.516   3.147
44324W        W 9309  32.168  21.161   1.203
44325W        W 9310   8.573  26.024   0.931
44326W        W 9311  11.305   1.555   0.806
44327W        W 9312  29.741  32.354  14.240
44328W        W 9313  40.973  14.717   0.636
44329W        W 9314  36.468   4.393  13.060
44330W        W 9315  26.392  42.246   3.146
44331W        W 9316  37.957   1.470  12.552
44332W        W 9317  10.173  17.779  12.133
44333W        W 9318  19.185  12.881  12.375
44334W        W 9319  42.228   4.036  13.976
44335W        W 9320   7.837  29.259   0.841
44336W        W 9321  32.051  20.468   4.449
44337W        W 9322  21.200  21.516   0.758
44338W        W 9323  21.973   7.808   4.138
44339W        W 9324   4.813   1.973   0.792
44340W        W 9325  21.782  23.536   1.061
44341W        W 9326  27.898  23.608   1.893
44342W        W 9327  26.462  28.481   1.457
44343W        W 9328  21.561   5.603   1.214
44344W        W 9329  11.164   2.617  11.073
44345W        W 9330  29.721  39.480  14.364
44346W        W 9331  40.407  36.588  13.914
44347W        W 9332  40.894  13.322  14.805
44348W        W 9333  11.253  40.276   0.350
44349W        W 9334   4.180   7.469  13.048
44350W        W 9335  43.391   0.353   1.429
44351W        W 9336  39.762  43.210  13.002
44352W        W 9337  37.576   8.770  11.237
44353W        W 9338  12.292  34.838  12.780
44354W        W 9339  11.302  23.036   3.324
44355W        W 9340  13.597  19.547  10.584
44356W        W 9341   3.939  36.739   0.462
44357W        W 9342  37.778  26.054   4.184
44358W        W 9343   8.255   1.513  12.258
44359W        W 9344   1.797  37.474   3.582
44360W        W 9345  38.232  34.536  14.478
44361W        W 9346  12.296  10.098  11.687
44362W        W 9347  31.519   8.408  14.041
44363W        W 9348  35.223  33.037   4.191
44364W        W 9349  37.146   1.337   3.203
44365W        W 9350  23.010  42.571  11.099
44366W        W 9351  38.241  15.819   0.293
44367W        W 9352  21.104  34.990   4.694
44368W        W 9353  26.713   0.343   2.805
44369W        W 9354   2.163  42.395   5.011
44370W        W 9355  36.613  14.765  14.479
44371W        W 9356   9.608  12.115  13.869
44372W        W 9357  39.351  12.376   5.006
44373W        W 9358   8.363  30.505  11.421
44374W        W 9359  13.275  36.114  12.382
44375W        W 9360   2.740  18.634  12.083
44376W        W 9361  40.221   1.482  10.776
44377W        W 9362  44.418  30.408  14.948
44378W        W 9363  28.155  38.879   0.686
44379W        W 9364  15.561  41.690  11.195
44380W        W 9365   5.875  13.031   1.388
44381W        W 9366  10.616  34.526  14.904
44382W        W 9367  12.443   2.905  13.931
44383W        W 9368  30.530  20.564   1.654
44384W        W 9369  17.745  30.277   0.635
44385W        W 9370  10.508  31.546  14.087
44386W        W 9371   3.457  26.068   1.170
44387W        W 9372  18.599  14.263   2.280
44388W        W 9373  20.489   4.848  12.597
44389W        W 9374  15.409  26.607   1.850
44390W        W 9375  25.481  13.301  14.947
44391W        W 9376  42.919  18.134   1.821
44392W        W 9377   7.344  32.956   4.687
44393W        W 9378  22.776  35.073  11.430
44394W        W 9379  11.297  30.141   0.778
44395W        W 9380  27.762   9.396   4.238
44396W        W 9381  24.311  10.324   2.875
44397W        W 9382  43.782  13.552   0.653
44398W        W 9383  39.533   3.883  13.467
44399W        W 9384   3.974   6.623   5.489
44400W        W 9385  25.290  16.779   2.126
44401W        W 9386  32.008  32.942   0.398
44402W        W 9387  22.126  40.653  10.561
44403W        W 9388   6.832  19.645  12.663
44404W        W 9389   8.640   7.814  12.851
44405W        W 9390  11.844   5.940  14.600
44406W        W 9391  24.037   2.301  13.745
44407W        W 9392  13.150  32.106  12.029
44408W        W 9393  12.810  37.981  13.401
44409W        W 9394  27.309  44.521   1.794
44410W        W 9395   7.337  20.646  10.523
44411W        W 9396   0.584  31.479   0.674
44412W        W 9397  36.896   5.790  14.815
44413W        W 9398   5.210  27.633  14.109
44414W        W 9399  40.718  24.924   4.475
44415W        W 9400  22.241   0.072  12.137
44416W        W 9401   2.967  21.996  13.429
44417W        W 9402  33.876  14.766  14.789
44418W        W 9403  16.838   6.880   2.292
44419W        W 9404   4.251  37.455   1.964
44420W        W 9405  27.074   6.382   3.880
44421W        W 9406   8.380   8.664  11.673
44422W        W 9407   9.484  22.936   2.612
44423W        W 9408  40.499  11.379  11.530
44424W        W 9409  33.147  41.992   4.119
44425W        W 9410   7.319  34.005   0.735
44426W        W 9411   8.182  12.273  12.575
44427W        W 9412  19.106  35.181   2.305
44428W        W 9413  16.361  19.025  14.752
44429W        W 9414  40.829  38.889  11.105
44430W        W 9415   7.882   3.707   4.771
44431W        W 9416   3.911  35.016  14.051
44432W        W 9417  43.433  21.325  10.461
44433W        W 9418  14.025  10.847  10.588
44434W        W 9419   4.673   8.516   1.110
44435W        W 9420  30.117  42.945  14.018
44436W        W 9421   7.955  41.754   1.614
44437W        W 9422   8.822  44.771  11.594
44438W        W 9423  26.211  15.813   1.651
44439W        W 9424  18.831   6.977  13.852
44440W        W 9425  17.618  26.693   3.577
44441W        W 9426  38.911  16.033  11.605
44442W        W 9427  33.200  30.877  10.932
44443W        W 9428  33.756  21.110  13.633
44444W        W 9429  31.053  41.474  10.466
44445W        W 9430  27.944  17.096   4.447
44446W        W 9431  38.301  41.594  13.354
44447W        W 9432   2.576  18.981   1.919
44448W        W 9433   5.523  36.109  13.887
44449W        W 9434  32.394  29.828   0.659
44450W        W 9435   8.787  43.064   2.335
44451W        W 9436  16.608  10.381  14.002
44452W        W 9437  35.818   4.691  12.829
44453W        W 9438   3.177  19.874  11.074
44454W        W 9439  19.209  17.109  13.863
44455W        W 9440   9.718  44.885  10.809
44456W        W 9441  24.341  30.120  13.950
44457W        W 9442  11.999  26.706   2.844
44458W        W 9443  41.051  38.357  11.088
44459W        W 9444  28.862  20.211   4.789
44460W        W 9445  29.174  30.689  12.609
44461W        W 9446  18.311  35.662   3.535
44462W        W 9447  28.446  44.458   2.763
44463W        W 9448  17.772  26.460  11.832
44464W        W 9449  10.357  20.189   1.713
44465W        W 9450  31.995  15.545  14.817
44466W        W 9451  27.134   8.511  11.180
44467W        W 9452  40.005  34.425  14.800
44468W        W 9453  33.228  15.066  14.456
44469W        W 9454  34.565  22.318   3.728
44470W        W 9455  41.029  36.573  13.369
44471W        W 9456  31.185  27.880  11.140
44472W        W 9457   3.267   7.920  14.411
44473W        W 9458   2.141  14.894   4.568
44474W        W 9459   9.650  19.977   4.071
44475W        W 9460  41.798  27.112   3.667
44476W        W 9461  35.005  12.698  10.590
44477W        W 9462  15.047  24.587  11.585
44478W        W 9463  25.680  31.914   1.734
44479W        W 9464   5.767  31.677  12.946
44480W        W 9465   6.529  40.799  14.878
44481W        W 9466  18.224  27.152   2.794
44482W        W 9467   1.367  13.100   4.433
44483W        W 9468  32.107  22.659   3.358
44484W        W 9469  36.147  17.291  11.940
44485W        W 9470  12.860  21.606   3.347
44486W        W 9471  18.659  14.313   3.792
44487W        W 9472  31.915  10.659   3.676
44488W        W 9473  12.129   3.957  13.228
44489W        W 9474  36.531  29.352  10.430
44490W        W 9475  34.613  40.992   1.170
44491W        W 9476  17.379  36.792  13.114
44492W        W 9477  35.193  31.982  11.209
44493W        W 9478   3.660  38.094   1.583
44494W        W 9479   3.458  28.520   3.079
44495W        W 9480  10.713   3.331   0.352
44496W        W 9481  34.078   2.034  13.895
44497W        W 9482   3.021  37.925   3.742
44498W        W 9483  35.557   2.873   4.397
44499W        W 9484   9.725   7.237   2.129
44500W        W 9485  15.406  38.011  10.656
44501W        W 9486  38.542   1.348   0.677
44502W        W 9487  30.497  18.973  14.520
44503W        W 9488  10.243  13.118  14.081
44504W        W 9489   0.381  22.427   4.148
44505W        W 9490  17.714  21.650   1.407
44506W        W 9491  42.250  23.803   0.747
44507W        W 9492   4.846   6.077   3.286
44508W        W 9493   1.352   1.999  10.707
44509W        W 9494  35.585  10.246   2.598
44510W        W 9495  41.086  33.795   4.965
44511W        W 9496  43.945  32.972   2.205
44512W        W 9497  24.330  11.324  11.908
44513W        W 9498  42.401   1.245   3.754
44514W        W 9499  37.324  20.594   3.708
44515W        W 9500  43.773  25.961  14.018
44516W        W 9501  36.569  41.382   1.627
44517W        W 9502  35.124   2.856   0.771
44518W        W 9503   3.885  13.231  14.555
44519W        W 9504  23.903  40.473   3.859
44520W        W 9505   2.773  26.718   5.036
44521W        W 9506  20.448  26.650   2.716
44522W        W 9507   1.312  14.104   4.587
44523W        W 9508  27.708   7.014   2.867
44524W        W 9509  36.389   0.440   2.900
44525W        W 9510   6.616  28.646  12.500
44526W        W 9511  42.290  15.151   4.685
44527W        W 9512  37.534   6.909  14.941
44528W        W 9513  42.460  21.880   3.270
44529W        W 9514  31.990   0.395   4.285
44530W        W 9515  42.962  40.894   2.322
44531W        W 9516  15.864  19.589  14.855
44532W        W 9517  15.462  34.033  12.859
44533W        W 9518  13.752  39.603  13.499
44534W        W 9519  18.115  16.121   2.984
44535W        W 9520  26.011  18.237  11.006
44536W        W 9521   4.832  29.124   1.936
44537W        W 9522   7.925  38.751   2.283
44538W        W 9523   2.230   3.676  10.651
44539W        W 9524  22.558  21.261   4.226
44540W        W 9525   8.769  11.850   0.760
44541W        W 9526  29.393  38.543   2.214
44542W        W 9527  27.142  42.130  12.068
44543W        W 9528  20.631  12.830  14.120
44544W        W 9529  29.957  24.265   2.789
44545W        W 9530  10.880  34.034   1.610
44546W        W 9531  14.356  33.468  11.086
44547W        W 9532   9.391  27.115  10.700
44548W        W 9533  20.494  23.177  14.754
44549W        W 9534  16.739  10.751   0.245
44550W        W 9535   4.669  16.400   4.191
44551W        W 9536  27.258   5.343   3.213
44552W        W 9537  32.708   4.227   4.644
44553W        W 9538   8.423  43.297   0.822
44554W        W 9539  41.522  35.909   3.994
44555W        W 9540  40.851  24.398   3.670
44556W        W 9541   7.157  22.552  11.163
44557W        W 9542   7.050  32.031  10.336
44558W        W 9543  18.181  25.256   0.821
44559W        W 9544  38.899  27.123   1.698
44560W        W 9545  33.506  38.300   2.105
44561W        W 9546  22.659   3.400  14.296
44562W        W 9547  39.827  12.759   0.596
44563W        W 9548  14.247  32.609   0.112
44564W        W 9549  14.314  15.139   0.069
44565W        W 9550  10.785  31.457   0.921
44566W        W 9551  32.371  11.890   1.940
44567W        W 9552  33.169  27.314  13.774
44568W        W 9553  10.342  20.125   0.179
44569W        W 9554  29.623  28.714  13.095
44570W        W 9555  37.301  36.993  12.975
44571W        W 9556  28.948  36.129  13.439
44572W        W 9557  29.812  21.443  10.936
44573W        W 9558  20.494  19.438   0.624
44574W        W 9559  17.576   2.286   4.141
44575W        W 9560  28.502   4.229   3.889
44576W        W 9561  40.816   7.619  14.991
44577W        W 9562  23.197   4.730   0.269
44578W        W 9563  38.081  16.647   4.540
44579W        W 9564   2.825  37.837   2.854
44580W        W 9565   9.387  15.244   4.961
44581W        W 9566  37.024   0.742   2.356
44582W        W 9567  11.561   0.549   1.246
44583W        W 9568  13.337  34.859   1.523
44584W        W 9569  20.118  22.196   4.406
44585W        W 9570   0.358  10.306  12.708
44586W        W 9571   1.345  13.163   3.915
44587W        W 9572   6.794  12.453   4.081
44588W        W 9573  16.693  12.376   1.051
44589W        W 9574  22.242  20.695   1.311
44590W        W 9575   4.804   3.875  14.923
44591W        W 9576  43.956  23.774   0.411
44592W        W 9577  21.136  43.542   4.085
44593W        W 9578  29.675  27.063   3.410
44594W        W 9579   3.483  24.373  14.246
44595W        W 9580  31.878   0.713  10.612
44596W        W 9581  29.694   6.789  13.110
44597W        W 9582  19.949   9.810   4.835
44598W        W 9583  28.682  37.112   3.169
44599W        W 9584  12.203   3.065   1.849
44600W        W 9585  11.469   6.852   2.694
44601W        W 9586  44.806  44.557  12.371
44602W        W 9587  23.487  15.271  13.674
44603W        W 9588   3.331  34.109  11.187
44604W        W 9589  13.163   8.916   4.472
44605W        W 9590  33.787  35.776   0.708
44606W        W 9591  37.055  37.114   1.404
44607W        W 9592  24.554   7.679   1.616
44608W        W 9593   9.919  24.931   1.356
44609W        W 9594  34.935  29.483  10.698
44610W        W 9595  38.076  36.350   2.602
44611W        W 9596   5.365  29.799  12.096
44612W        W 9597  25.640  21.046   3.981
44613W        W 9598  33.859  41.112   0.227
44614W        W 9599   1.418   4.686   1.477
44615W        W 9600  23.150  13.356   1.390
44616W        W 9601   6.708  22.972   1.296
44617W        W 9602  26.229  37.312  12.863
44618W        W 9603  24.735  26.663  10.679
44619W        W 9604  41.322   1.819   3.570
44620W        W 9605  42.869  37.971   1.795
44621W        W 9606  17.132  14.331  14.512
44622W        W 9607   9.387  18.224   3.753
44623W        W 9608  38.515  42.803  13.926
44624W        W 9609   0.604  44.300  10.246
44625W        W 9610   2.863   4.836   1.352
44626W        W 9611  36.127  38.491  13.519
44627W        W 9612  40.993  18.735  13.979
44628W        W 9613  17.989  13.318   0.988
44629W        W 9614   4.285   2.702  12.133
44630W        W 9615  10.747  33.601   4.967
44631W        W 9616  38.873  39.730  14.705
44632W        W 9617  27.001  24.688  12.450
44633W        W 9618  20.038  43.841   4.897
44634W        W 9619  10.010  42.220  11.196
44635W        W 9620  26.993  26.918  12.015
44636W        W 9621  44.983  18.162   9.993
44637W        W 9622  20.146  40.749   4.400
44638W        W 9623  43.510  13.172   1.341
44639W        W 9624   9.884  30.119  12.523
44640W        W 9625  21.088  38.562   3.636
44641W        W 9626  28.896  18.039   3.810
44642W        W 9627  40.946  20.887   9.859
44643W        W 9628  24.766  33.102   3.793
44644W        W 9629  35.248  40.431   0.915
44645W        W 9630  26.472  33.982   1.006
44646W        W 9631  40.445  10.886   0.535
44647W        W 9632  16.928   6.013  12.352
44648W        W 9633  16.335   0.050   0.254
44649W        W 9634  14.793  30.083  13.936
44650W        W 9635  38.497  11.594  12.061
44651W        W 9636  25.187   2.218  12.429
44652W        W 9637   3.305  30.392  12.469
44653W        W 9638  15.049  19.104  11.547
44654W        W 9639  40.792  20.324  14.157
44655W        W 9640  15.194  34.968   3.805
44656W        W 9641  38.415  44.531   2.682
44657W        W 9642  11.096  30.920   3.778
44658W        W 9643  23.493  35.059   0.839
44659W        W 9644  41.215  20.141   4.721
44660W        W 9645  31.687  44.044  13.508
44661W        W 9646  18.915  15.346  13.999
44662W        W 9647  28.554   5.905  10.650
44663W        W 9648   3.981  41.318   3.184
44664W        W 9649  19.955  18.579   1.149
44665W        W 9650  25.515  26.220  12.081
44666W        W 9651  13.077  32.424   0.501
44667W        W 9652   1.220  40.355  11.606
44668W        W 9653  25.919  27.185   1.209
44669W        W 9654  30.900  39.474   1.280
44670W        W 9655  22.171  13.756   1.350
44671W        W 9656  21.970  33.204  11.796
44672W        W 9657  30.539  27.578   4.321
44673W        W 9658  20.722   3.840   2.574
44674W        W 9659  17.307  34.857   3.641
44675W        W 9660  31.590   3.918   1.453
44676W        W 9661  24.609  10.404   4.241
44677W        W 9662   3.586  18.145   2.169
44678W        W 9663  44.866   7.383   1.177
44679W        W 9664  26.201  17.581   1.023
44680W        W 9665   3.390  33.979   4.793
44681W        W 9666  28.320  40.855  11.010
44682W        W 9667  36.319  32.040   2.891
44683W        W 9668  17.042  23.242  14.671
44684W        W 9669   6.655  13.033  13.861
44685W        W 9670  40.877  39.783   0.479
44686W        W 9671  23.851   4.832   4.518
44687W        W 9672  11.138  22.582   2.831
44688W        W 9673  24.158  30.126  10.367
44689W        W 9674  31.745   8.965   0.322
44690W        W 9675   0.036  32.876  10.392
44691W        W 9676  42.373  15.774  11.401
44692W        W 9677  23.581  29.755  13.580
44693W        W 9678  25.691  38.326   0.892
44694W        W 9679  25.290   7.231  11.079
44695W        W 9680  37.172  10.415   0.942
44696W        W 9681  15.551  37.304   3.610
44697W        W 9682  23.893  26.732   2.910
44698W        W 9683  17.642  36.550  11.722
44699W        W 9684  14.324  37.650  14.142
44700W        W 9685  14.777   0.516   4.215
44701W        W 9686   6.420  30.798  10.432
44702W        W 9687  28.243  26.185  14.440
44703W        W 9688  36.627  36.343  10.719
44704W        W 9689  14.315  37.804  10.668
44705W        W 9690  17.858  12.414  11.606
44706W        W 9691  38.438   3.826   4.899
44707W        W 9692  35.380  35.170  13.341
44708W        W 9693  37.118  16.044  13.073
44709W        W 9694  29.786  15.808  10.855
44710W        W 9695  38.731  11.701   5.324
44711W        W 9696   0.473  22.151  12.695
44712W        W 9697  31.365  17.179  14.018
44713W        W 9698  20.359   7.865   1.766
44714W        W 9699  25.431   4.853   2.179
44715W        W 9700   9.071  42.637  13.023
44716W        W 9701  20.781  27.583   2.986
44717W        W 9702  14.531  36.176  12.209
44718W        W 9703  17.719  14.303  11.418
44719W        W 9704  31.364  15.261   0.048
44720W        W 9705  36.524  28.046  13.496
44721W        W 9706   5.327  17.728  10.582
44722W        W 9707  34.410  16.318  12.121
44723W        W 9708   4.819  43.407  12.993
44724W        W 9709  38.472  15.706   4.688
44725W        W 9710   9.780   4.014  10.565
44726W        W 9711  21.324  41.495  14.448
44727W        W 9712  39.657   3.369  11.936
44728W        W 9713  29.083   3.220   4.335
44729W        W 9714   7.311  30.441   1.732
44730W        W 9715  11.305   6.810   1.248
44731W        W 9716  24.714   7.713  10.776
44732W        W 9717   3.942  23.173   3.574
44733W        W 9718  18.693  33.552  12.154
44734W        W 9719  10.275  21.743  10.096
44735W        W 9720  18.614  31.958   3.389
44736W        W 9721  20.491  12.002  11.031
44737W        W 9722  36.661  10.675   4.391
44738W        W 9723   6.388   0.379  12.940
44739W        W 9724  19.738  43.027   0.232
44740W        W 9725  25.202  13.928   0.665
44741W        W 9726  38.536  42.718   4.611
44742W        W 9727  28.699  36.848   1.311
44743W        W 9728  17.130   1.814  12.729
44744W        W 9729  38.613   2.800   2.163
44745W        W 9730  32.454  35.434   1.866
44746W        W 9731  15.827  10.294   2.687
44747W        W 9732   9.819   7.902   1.884
44748W        W 9733  23.982  13.850  10.814
44749W        W 9734  14.293  18.566   3.673
44750W        W 9735  24.984  24.009  10.770
44751W        W 9736  23.019  38.629  12.010
44752W        W 9737  30.418  19.331  11.463
44753W        W 9738  13.137  23.629  14.920
44754W        W 9739  26.847  16.601  12.547
44755W        W 9740  32.628  21.646  11.007
44756W        W 9741  19.484  29.053   4.467
44757W        W 9742  13.939  18.227  12.920
44758W        W 9743  19.045  26.592   3.700
44759W        W 9744  32.645  16.703  12.953
44760W        W 9745   4.036  14.909   1.804
44761W        W 9746   4.912   9.548   4.614
44762W        W 9747  36.196   7.625  11.604
44763W        W 9748  33.555  19.272   0.966
44764W        W 9749   6.810   7.073  14.812
44765W        W 9750  44.208  23.892   1.681
44766W        W 9751   9.321  16.196   1.727
44767W        W 9752  37.233  31.458  13.782
44768W        W 9753   9.897  13.079  11.161
44769W        W 9754  16.549   2.777  12.172
44770W        W 9755  10.712  22.886   2.048
44771W        W 9756   5.411   0.274  11.186
44772W        W 9757  26.161   0.364   9.703
44773W        W 9758   9.151  16.853  12.477
44774W        W 9759   2.285  21.662  12.892
44775W        W 9760  16.608   8.348   0.799
44776W        W 9761  39.395  42.446  13.540
44777W        W 9762  23.505  37.776  12.022
44778W        W 9763  32.544  35.534  10.467
44779W        W 9764  41.492  17.027  12.833
44780W        W 9765  25.419  23.657  13.956
44781W        W 9766  16.601  42.249  12.876
44782W        W 9767  44.507  31.381  14.545
44783W        W 9768  11.574   2.371   1.475
44784W        W 9769   1.481  10.211  14.386
44785W        W 9770  28.936  42.050   3.849
44786W        W 9771   1.018  19.816   4.673
44787W        W 9772  34.063   3.421   2.693
44788W        W 9773  10.255  29.078   4.588
44789W        W 9774  14.289  33.770  13.426
44790W        W 9775   5.382  30.197   3.315
44791W        W 9776  22.284  42.244   2.674
44792W        W 9777  25.109  33.625   0.530
44793W        W 9778  22.268  44.379  10.889
44794W        W 9779   8.249  30.524  11.926
44795W        W 9780  27.978  35.671   2.831
44796W        W 9781  41.191  31.590  12.388
44797W        W 9782   5.625  34.874   4.161
44798W        W 9783  13.283  15.956   0.967
44799W        W 9784  43.871  43.369  13.787
44800W        W 9785  27.688  36.427   2.544
44801W        W 9786   5.664  17.589  11.902
44802W        W 9787  34.609  28.360   4.741
44803W        W 9788   8.981   0.333   2.615
44804W        W 9789   7.453  28.419  12.972
44805W        W 9790  37.535  31.932   4.549
44806W        W 9791  31.469  11.630   0.969
44807W        W 9792  17.598  14.212  14.766
44808W        W 9793   3.527   2.957   1.242
44809W        W 9794   3.310   6.084   0.753
44810W        W 9795  14.842  13.018   0.899
44811W        W 9796  11.077  30.414  14.791
44812W        W 9797   6.925   2.320   0.418
44813W        W 9798   6.401   9.103   1.196
44814W        W 9799  34.425  39.087   3.640
44815W        W 9800  20.927   4.137   0.314
44816W        W 9801  21.646  16.188  13.832
44817W        W 9802  24.449  30.171  13.050
44818W        W 9803  23.944  24.187  12.835
44819W        W 9804  21.324  15.352   1.298
44820W        W 9805   8.054  42.095   0.483
44821W        W 9806  31.937  26.087  13.467
44822W        W 9807  24.016  39.563   1.905
44823W        W 9808  16.810  10.057  13.033
44824W        W 9809  33.908  24.904  10.684
44825W        W 9810  43.976  23.734  14.469
44826W        W 9811  36.517  17.517   3.775
44827W        W 9812  29.895  31.946  14.516
44828W        W 9813  42.584  38.219  10.315
44829W        W 9814  26.487  21.099  12.055
44830W        W 9815  28.493  16.474   0.468
44831W        W 9816  23.592  38.111  13.524
44832W        W 9817  30.426  18.828   3.273
44833W        W 9818  20.717  24.876   1.933
44834W        W 9819  15.307  18.097  11.555
44835W        W 9820  43.419  13.025   4.533
44836W        W 9821  40.731  28.634  10.440
44837W        W 9822   5.753  14.652  12.364
44838W        W 9823  16.526  29.071   2.384
44839W        W 9824  38.421  37.469   1.705
44840W        W 9825   4.364  11.356   4.671
44841W        W 9826   1.280  14.109   1.982
44842W        W 9827   6.911   4.489  13.057
44843W        W 9828  24.033  19.103   3.757
44844W        W 9829   4.173  14.625  13.407
44845W        W 9830  43.903  41.933  14.922
44846W        W 9831  39.027  44.857   4.788
44847W        W 9832  33.072  44.736   4.654
44848W        W 9833  30.116   6.112  12.935
44849W        W 9834  22.563  28.849   1.396
44850W        W 9835  26.761  36.926   0.408
44851W        W 9836  18.691  31.354   4.193
44852W        W 9837  20.359  35.195   2.643
44853W        W 9838   4.201  29.959  11.169
44854W        W 9839  13.711  27.255  13.477
44855W        W 9840  33.932  38.998  12.521
44856W        W 9841  15.970  42.969   1.256
44857W        W 9842  22.444  26.508   0.419
44858W        W 9843  27.167   0.675   3.577
44859W        W 9844  29.062  36.037  10.939
44860W        W 9845  19.494  26.088  14.674
44861W        W 9846   9.558  26.537   2.278
44862W        W 9847   5.204   6.153   2.510
44863W        W 9848  20.526  43.339   0.345
44864W        W 9849  37.724  12.781  10.757
44865W        W 9850  30.482  19.917  11.558
44866W        W 9851  38.204   8.904   5.008
44867W        W 9852  30.113  41.406  10.938
44868W        W 9853  37.420  27.123   4.770
44869W        W 9854  37.428  42.542   4.534
44870W        W 9855  16.108  33.415   9.819
44871W        W 9856  29.204  13.306   2.343
44872W        W 9857   5.827  44.893   3.367
44873W        W 9858   1.836  27.178   3.722
44874W        W 9859  37.754   9.500   3.716
44875W        W 9860  23.644   7.628  13.036
44876W        W 9861   8.940  28.631  12.027
44877W        W 9862  13.091  31.662   3.039
44878W        W 9863  28.049  29.493  12.834
44879W        W 9864  33.599  21.466   1.711
44880W        W 9865   4.957  11.002   0.944
44881W        W 9866  27.609  10.331   0.407
44882W        W 9867   2.175  33.111   0.694
44883W        W 9868  38.562   8.364  12.936
44884W        W 9869  38.797   7.259  13.316
44885W        W 9870   6.395  34.977  13.419
44886W        W 9871  25.175  39.479   1.397
44887W        W 9872  25.614  32.079  14.510
44888W        W 9873  14.624   4.908   2.815
44889W        W 9874  25.632  32.742   4.198
44890W        W 9875  16.027  40.815  14.450
44891W        W 9876   9.068  23.498  13.022
44892W        W 9877  37.565  12.694  12.852
44893W        W 9878  30.482  32.492  11.830
44894W        W 9879  19.232  34.284   4.581
44895W        W 9880   6.986  14.218   4.313
44896W        W 9881   3.757  29.447   0.398
44897W        W 9882  14.865  14.377  11.520
44898W        W 9883   9.335   5.744   0.839
44899W        W 9884  41.777   4.030  13.516
44900W        W 9885  24.264  19.616   1.225
44901W        W 9886  32.734   9.438   4.969
44902W        W 9887   8.338   4.842   3.174
44903W        W 9888  29.467  22.006  12.805
44904W        W 9889   5.270  42.008   4.633
44905W        W 9890  10.332  17.596   4.441
44906W        W 9891  37.911   4.901   1.466
44907W        W 9892  29.707   2.797  11.505
44908W        W 9893  14.336  14.561   2.774
44909W        W 9894  30.483  35.849   1.297
44910W        W 9895  42.481  24.001   3.853
44911W        W 9896  18.962  31.034   4.505
44912W        W 9897   1.950  33.654  11.883
44913W        W 9898  28.460  24.504   4.515
44914W        W 9899  13.169  31.532   3.549
44915W        W 9900  23.459   4.132   5.120
44916W        W 9901  16.138  14.283   2.896
44917W        W 9902  38.534   0.329  11.709
44918W        W 9903  14.650  23.126  12.129
44919W        W 9904   9.638  30.513   4.507
44920W        W 9905  35.126  31.865  12.646
44921W        W 9906  41.519  35.499  13.455
44922W        W 9907  21.160  36.952  14.060
44923W        W 9908  31.782  12.422   1.534
44924W        W 9909  12.395  11.219   4.147
44925W        W 9910  37.067   3.255  12.089
44926W        W 9911   6.214  33.122  10.641
44927W        W 9912  16.643  22.089  14.378
44928W        W 9913  30.993  26.238   3.153
44929W        W 9914  21.287  44.309   0.744
44930W        W 9915  23.565   9.196  14.046
44931W        W 9916  32.396  15.695   1.122
44932W        W 9917  11.714  26.520  12.916
44933W        W 9918  20.220  19.321  14.849
44934W        W 9919  39.045  13.807  14.238
44935W        W 9920  18.689  24.595  12.562
44936W        W 9921   5.007  17.063  14.810
44937W        W 9922   1.576  31.504   0.823
44938W        W 9923  21.751  33.588  10.699
44939W        W 9924  19.085  24.418  13.531
44940W        W 9925  41.616   4.610  12.457
44941W        W 9926   9.159  16.187   4.386
44942W        W 9927  43.478   9.384  14.216
44943W        W 9928   7.370  38.475  10.533
44944W        W 9929  29.098  17.216  12.342
44945W        W 9930   3.697   9.772  11.186
44946W        W 9931  38.333   9.933  13.629
44947W        W 9932   2.533  29.911  11.512
44948W        W 9933  16.101  11.271  10.595
44949W        W 9934  37.864  19.380   2.177
44950W        W 9935   1.002  27.094   2.141
44951W        W 9936  23.199  14.341   4.635
44952W        W 9937   8.235  30.975  11.241
44953W        W 9938  25.487  21.677  11.613
44954W        W 9939  42.539  11.845   3.162
44955W        W 9940  41.877  15.122  13.395
44956W        W 9941  16.594  14.413   3.121
44957W        W 9942  38.107  27.331   5.418
44958W        W 9943   5.750  19.973   1.853
44959W        W 9944  32.796  13.270   3.714
44960W        W 9945  26.025   7.349  11.559
44961W        W 9946  42.320   2.265   2.764
44962W        W 9947  12.561  28.658  13.030
44963W        W 9948  39.017  30.097  14.823
44964W        W 9949  34.518  32.418  14.322
44965W        W 9950  18.838   8.386  12.421
44966W        W 9951  13.246  38.775   1.718
44967W        W 9952  25.541   6.816  11.989
44968W        W 9953  21.312   2.853  14.642
44969W        W 9954  11.874   3.059   3.346
44970W        W 9955   9.381  31.514   0.959
44971W        W 9956  37.584  40.480  11.961
44972W        W 9957   8.108  10.807  12.717
44973W        W 9958  19.178  13.655  14.993
44974W        W 9959  36.806  32.940  12.593
44975W        W 9960  34.484  43.815  11.802
44976W        W 9961  12.111  26.017   1.315
44977W        W 9962  19.044   7.900   0.304
44978W        W 9963  20.335  11.296  13.381
44979W        W 9964  22.841   0.290   3.657
44980W        W 9965   8.074  18.099  13.818
44981W        W 9966  30.675  22.218   2.822
44982W        W 9967  39.106  15.950  12.809
44983W        W 9968  26.121  12.362  13.029
44984W        W 9969  22.178  33.014   1.810
44985W        W 9970   9.991   0.770  11.034
44986W        W 9971   3.865  20.976  14.972
44987W        W 9972  44.017   7.910   0.155
44988W        W 9973  17.884  11.690  11.158
44989W        W 9974  13.574   2.990   1.434
44990W        W 9975  15.125  33.029   1.928
44991W        W 9976  12.213  14.703   4.319
44992W        W 9977   8.290   5.641   1.854
44993W        W 9978  26.962   3.373   3.757
44994W        W 9979  14.380  27.198   0.827
44995W        W 9980  30.462   8.918   4.684
44996W        W 9981  24.148  27.591   3.611
44997W        W 9982  22.655  39.812  13.964
44998W        W 9983  19.537  40.088  12.535
44999W        W 9984  35.047  10.838  14.991
45000W        W 9985  26.459  25.608  12.795
45001W        W 9986  40.284  28.322   3.173
45002W        W 9987  26.668  16.222   4.012
45003W        W 9988  37.919   6.237  12.453
45004W        W 9989   1.861  22.085  11.606
45005W        W 9990  10.700  35.653   0.760
45006W        W 9991  32.188  33.599  12.073
45007W        W 9992  33.393   5.640   1.445
45008W        W 9993  37.950   6.998   5.037
45009W        W 9994  26.521  21.610  14.503
45010W        W 9995  34.550  23.289   3.754
45011W        W 9996  12.621   7.911   9.842
45012W        W 9997  34.882  18.840  14.142
45013W        W 9998  43.612  12.177   0.668
45014W        W 9999   6.029  37.393  14.601
45015W        W10000   0.683  17.107  12.173
45016W        W10001  27.849   9.041  13.777
45017W        W10002   2.270  44.473  14.411
45018W        W10003  32.146  30.667  11.714
45019W        W10004   3.306  41.854  12.208
45020W        W10005  28.939  36.518   4.624
45021W        W10006  42.085  25.585   2.293
45022W        W10007  23.919   2.796   2.774
45023W        W10008  35.099  10.354  12.056
45024W        W10009  24.575  21.609   3.895
45025W        W10010  12.739  21.199  13.726
45026W        W10011  44.435   9.181  11.360
45027W        W10012  29.231  38.577  11.173
45028W        W10013  21.624  29.985  12.068
45029W        W10014  10.506  27.132   4.878
45030W        W10015  29.438   1.888  13.200
45031W        W10016  37.298  37.310  13.939
45032W        W10017  43.299  37.340  11.606
45033W        W10018   5.273  14.777  13.747
45034W        W10019  22.481  18.356  12.428
45035W        W10020  18.183  44.255   3.775
45036W        W10021   0.799  35.323   0.404
45037W        W10022  16.246  40.342  13.274
45038W        W10023  30.031  38.518   1.978
45039W        W10024  17.689  18.105   4.619
45040W        W10025  24.056  22.978   4.708
45041W        W10026  14.646  11.528   0.657
45042W        W10027   3.620  23.261   3.189
45043W        W10028   0.819  19.663   0.411
45044W        W10029  21.557  41.904  13.311
45045W        W10030  38.521   0.453   1.763
45046W        W10031  26.648  14.790   1.321
45047W        W10032  34.168  31.426   1.344
45048W        W10033   1.254  26.647  12.093
45049W        W10034  42.749  44.599   3.716
45050W        W10035  43.486  34.402   3.747
45051W        W10036  27.039  42.630  12.015
45052W        W10037  41.215  29.654  11.933
45053W        W10038  41.953  27.728  11.349
45054W        W10039  29.659  33.538   0.005
45055W        W10040  24.097  16.311  10.688
45056W        W10041  17.981  24.633  12.551
45057W        W10042  28.587   9.696   2.404
45058W        W10043  26.293  29.146   1.974
45059W        W10044  16.333   4.606   3.585
45060W        W10045  39.078  44.262   1.248
45061W        W10046  36.003   3.866  14.080
45062W        W10047  11.083  43.444   2.804
45063W        W10048  13.164  42.553   1.589
45064W        W10049  28.648  30.031  10.270
45065W        W10050  31.518  33.090  12.406
45066W        W10051  10.737  38.490   3.120
45067W        W10052   3.940  18.179   0.109
45068W        W10053  27.498  19.649   3.285
45069W        W10054  10.221  16.069  13.045
45070W        W10055  12.390  24.181   1.447
45071W        W10056   0.850   0.924  13.335
45072W        W10057  28.006  22.796  10.602
45073W        W10058  41.846   0.694   0.767
45074W        W10059  18.614  27.211  12.405
45075W        W10060  39.255  10.635   1.484
45076W        W10061  30.663  16.244   3.931
45077W        W10062  32.002  16.843  13.599
45078W        W10063   8.899   4.101  12.596
45079W        W10064  13.567  14.719  14.961
45080W        W10065  26.574  12.440   4.075
45081W        W10066  36.537  34.403   0.460
45082W        W10067  14.219  43.518   0.822
45083W        W10068  42.275  13.143  13.685
45084W        W10069   1.763  14.567  14.820
45085W        W10070  14.391   9.090  11.979
45086W        W10071  18.423  23.245  12.717
45087W        W10072  24.707  29.966   4.678
45088W        W10073  44.574  27.871   0.441
45089W        W10074  42.575  26.736   2.693
45090W        W10075  30.029  37.246   1.724
45091W        W10076  21.520  37.426  12.861
45092W        W10077  29.411  34.681   4.590
45093W        W10078  43.875  27.062   2.552
45094W        W10079  28.570  16.314   2.761
45095W        W10080  40.163  42.799  13.254
45096W        W10081  22.429  24.415  12.788
45097W        W10082  12.805  15.199   4.657
45098W        W10083  36.359  31.088  13.661
45099W        W10084  27.959  35.112  13.439
45100W        W10085  21.625  40.086  13.429
45101W        W10086  23.490  10.323  10.595
45102W        W10087  25.518   6.708   3.185
45103W        W10088  28.854  22.643  12.217
45104W        W10089  18.133  38.501  13.828
45105W        W10090   2.805  41.495   4.763
45106W        W10091  39.296  23.666   0.920
45107W        W10092   0.926   9.945  12.034
45108W        W10093  33.089  19.148  11.559
45109W        W10094  44.902  10.479   3.605
45110W        W10095  17.059  26.578  11.541
45111W        W10096  24.097  24.880  14.454
45112W        W10097   8.099   3.358  11.924
45113W        W10098  15.672   4.362  12.828
45114W        W10099   4.775  10.851   1.410
45115W        W10100  27.910   7.888  13.073
45116W        W10101  44.556  34.939  11.535
45117W        W10102  37.591  34.284  13.349
45118W        W10103  18.620  22.009   2.272
45119W        W10104  31.193  25.552   1.834
45120W        W10105  25.539   7.855   2.751
45121W        W10106   4.819   7.871  13.766
45122W        W10107  23.431  43.247  10.765
45123W        W10108  17.043  21.799  14.259
45124W        W10109  44.262  19.595  13.553
45125W        W10110   3.952  34.836  13.083
45126W        W10111  28.083  44.389  14.862
45127W        W10112  41.207  10.756   1.274
45128W        W10113  10.496   5.805   3.625
45129W        W10114   7.188  28.649   3.676
45130W        W10115  30.988  12.837   4.432
45131W        W10116  28.067  23.562  13.421
45132W        W10117  32.046  12.231  12.657
45133W        W10118  24.200  28.539   1.707
45134W        W10119  30.702   1.990  11.206
45135W        W10120  43.368  35.937   1.339
45136W        W10121  31.581  11.350   4.892
45137W        W10122   7.581  16.645  11.507
45138W        W10123   0.948  27.935  12.940
45139W        W10124  22.156  18.335   0.495
45140W        W10125  21.754  15.106  14.679
45141W        W10126  36.047  42.669  11.668
45142W        W10127  43.385  19.022   4.050
45143W        W10128  38.408  20.515  12.418
45144W        W10129  32.232  37.795  14.923
45145W        W10130  11.753  34.346   3.340
45146W        W10131  26.499  15.176  10.296
45147W        W10132  36.905  26.194   2.435
45148W        W10133   7.236  15.663  11.654
45149W        W10134  25.400   1.434   1.008
45150W        W10135  39.918  26.034  13.953
45151W        W10136  26.564  21.702  11.551
45152W        W10137  12.618  43.673   2.651
45153W        W10138   8.646  33.861  10.496
45154W        W10139  34.451  21.271   3.659
45155W        W10140  10.866  23.532   1.036
45156W        W10141  40.881   6.480   2.167
45157W        W10142  26.274  28.500   0.959
45158W        W10143  31.727  29.445   3.085
45159W        W10144  16.204  13.084   0.973
45160W        W10145  11.839  10.306   2.653
45161W        W10146  25.186  44.997   2.917
45162W        W10147   9.763  20.179   1.715
45163W        W10148   8.902  19.082  11.716
45164W        W10149  21.003  34.431  14.529
45165W        W10150  11.838  36.459   3.637
45166W        W10151  44.731  28.073  11.003
45167W        W10152  22.165  37.069  12.916
45168W        W10153  15.406  21.335   1.383
45169W        W10154  17.338  23.148   1.873
45170W        W10155  19.229  26.687  11.963
45171W        W10156  19.718  30.531   9.984
45172W        W10157  10.013  38.184  11.212
45173W        W10158   9.866  33.133  11.496
45174W        W10159  17.734   9.417   1.255
45175W        W10160  26.904  37.101  14.467
45176W        W10161  38.531  41.682   4.643
45177W        W10162  32.967  21.728   4.358
45178W        W10163  13.649  23.691  12.963
45179W        W10164  27.698   4.876  11.090
45180W        W10165  40.548   9.526   1.190
45181W        W10166  11.412   8.389  12.067
45182W        W10167   8.031   4.710  12.202
45183W        W10168  40.543  10.760  13.449
45184W        W10169  10.337  16.033   1.604
45185W        W10170   4.621  21.074   3.491
45186W        W10171   2.014  29.948  14.280
45187W        W10172  10.576  35.935   1.928
45188W        W10173  21.984  37.115   4.100
45189W        W10174   2.189  23.701  12.060
45190W        W10175  36.178  12.344   1.851
45191W        W10176  30.124  32.259  11.176
45192W        W10177   4.303  33.025   4.749
45193W        W10178  22.103   2.534   3.837
45194W        W10179  18.585  43.224   4.175
45195W        W10180  43.555  34.677   3.302
45196W        W10181  43.384   7.973  14.330
45197W        W10182   7.659  30.212   2.845
45198W        W10183  21.342  32.484  11.580
45199W        W10184  33.550  39.529   0.798
45200W        W10185  33.847   1.880   2.284
45201W        W10186  39.832  27.438   2.471
45202W        W10187  26.142  34.059   3.586
45203W        W10188   7.236  29.777   0.345
45204W        W10189  18.971  36.004   3.651
45205W        W10190   1.210  16.556  12.447
45206W        W10191  42.031  31.427  13.404
45207W        W10192  23.907  43.777   0.998
45208W        W10193  35.896  13.430   4.621
45209W        W10194  32.858  35.542  11.167
45210W        W10195  37.943  13.786  13.957
45211W        W10196  16.707  19.550   3.712
45212W        W10197  26.090  23.035  12.599
45213W        W10198  29.155  28.696   0.491
45214W        W10199  14.006  31.393  13.958
45215W        W10200  37.931  11.338   2.313
45216W        W10201  26.454   3.313   3.623
45217W        W10202   8.172  34.283  14.540
45218W        W10203  11.813  22.735  11.951
45219W        W10204  17.250  41.998  12.120
45220W        W10205  29.113   2.657   1.786
45221W        W10206   4.359   3.577   1.783
45222W        W10207  44.897   9.469   3.703
45223W        W10208  14.761  30.581   2.827
45224W        W10209  42.707  30.361   1.846
45225W        W10210   4.379  13.616   4.594
45226W        W10211  15.611  24.546   2.282
45227W        W10212   7.371  35.830   1.379
45228W        W10213  27.884  39.363  10.705
45229W        W10214   1.316  25.195   3.373
45230W        W10215  13.418  17.619  13.970
45231W        W10216  19.571   2.550   1.440
45232W        W10217   3.639   2.205   1.782
45233W        W10218  28.796  19.061  14.821
45234W        W10219  26.371   7.164  11.892
45235W        W10220  22.775  26.197  13.033
45236W        W10221  44.075  20.577  14.884
45237W        W10222  30.024   8.258   4.285
45238W        W10223  31.626  40.808   1.248
45239W        W10224   8.891   0.817   1.735
45240W        W10225  14.575  11.745   4.585
45241W        W10226  10.065  38.105   2.151
45242W        W10227  36.423  36.580  12.143
45243W        W10228  33.040  13.010   1.330
45244W        W10229  13.757  15.545   0.611
45245W        W10230  25.043   5.925  10.857
45246W        W10231  22.378   1.098  11.232
45247W        W10232  12.268  27.268   0.537
45248W        W10233  39.329  44.999  13.579
45249W        W10234   6.425   3.722   0.293
45250W        W10235  28.888  23.778  13.934
45251W        W10236  13.385  20.269   3.812
45252W        W10237   7.812  37.337  13.002
45253W        W10238   2.861  40.063   0.983
45254W        W10239  24.537   1.322   9.708
45255W        W10240  40.086  31.983  13.938
45256W        W10241  24.740   1.618   3.749
45257W        W10242  42.632  36.654  11.893
45258W        W10243  39.295  31.125  12.114
45259W        W10244  20.258   3.952  12.385
45260W        W10245  18.008  31.376  12.948
45261W        W10246  36.214  25.469  10.477
45262W        W10247  17.716   8.306   0.032
45263W        W10248  23.956   4.935  10.853
45264W        W10249  14.549  27.823  13.453
45265W        W10250   1.099  19.121   3.388
45266W        W10251  14.764  20.465  13.540
45267W        W10252  26.257  20.089  11.574
45268W        W10253  14.277  14.302   4.879
45269W        W10254  38.261   6.240  13.537
45270W        W10255  12.188  19.096  11.708
45271W        W10256  38.370  43.455  11.520
45272W        W10257   4.661  15.584   1.331
45273W        W10258   1.902  44.788   4.004
45274W        W10259  28.239   3.184  12.488
45275W        W10260   6.231  44.033   3.396
45276W        W10261  41.350  27.992  10.906
45277W        W10262   2.291  34.313   2.332
45278W        W10263  33.184  44.211   2.841
45279W        W10264  10.316  13.208   3.825
45280W        W10265  19.811  44.636  13.918
45281W        W10266  19.322   2.303   4.669
45282W        W10267  10.534  31.432   4.305
45283W        W10268   8.154  12.812  13.418
45284W        W10269   5.416  23.121   0.648
45285W        W10270   0.217   8.762  13.304
45286W        W10271  19.604  21.116  11.141
45287W        W10272  37.383  33.883   3.720
45288W        W10273   0.368  37.443   3.752
45289W        W10274  18.173   2.181  13.734
45290W        W10275  43.262   2.926   3.829
45291W        W10276  28.084  25.923  13.970
45292W        W10277   4.861  29.632   0.136
45293W        W10278  11.194  44.979   1.651
45294W        W10279  24.940   2.473   2.461
45295W        W10280  10.221  41.407   1.382
45296W        W10281  42.875  31.169   3.691
45297W        W10282  34.250  31.084   3.755
45298W        W10283  21.070   1.516   3.220
45299W        W10284  15.062  30.009  14.365
45300W        W10285   2.268  28.663  11.115
45301W        W10286  35.008  14.619  13.833
45302W        W10287  23.117  42.037   3.634
45303W        W10288  26.192  17.787  12.799
45304W        W10289  28.724   2.995  12.262
45305W        W10290   3.807  31.971   4.588
45306W        W10291   2.097  15.676   3.358
45307W        W10292  11.663  20.236  10.773
45308W        W10293  37.897  40.570   4.539
45309W        W10294  16.994   4.669   3.228
45310W        W10295  37.009  37.504  11.153
45311W        W10296  44.240  28.147  10.254
45312W        W10297  18.612  28.011   1.930
45313W        W10298  21.989  36.137  11.802
45314W        W10299   7.186  11.141  11.000
45315W        W10300  44.366  19.011   3.719
45316W        W10301  41.720  30.437   4.016
45317W        W10302  44.469  29.125   2.256
45318W        W10303  12.749   3.375   2.344
45319W        W10304  39.419  42.852   1.642
45320W        W10305  37.910  24.194   1.018
45321W        W10306  34.909  22.247   4.099
45322W        W10307  19.150  14.573  10.557
45323W        W10308   3.584   9.170  10.762
45324W        W10309  21.701  19.166   1.291
45325W        W10310  22.000   0.630  14.875
45326W        W10311  44.225  27.579  12.174
45327W        W10312  27.037  12.129   1.683
45328W        W10313  34.144  27.055   3.069
45329W        W10314  34.416   8.236  12.944
45330W        W10315  14.788   5.868   1.290
45331W        W10316   7.890  15.549   4.000
45332W        W10317  33.160  17.119  12.434
45333W        W10318  35.446   1.535  12.961
45334W        W10319  31.298  37.891  13.826
45335W        W10320  23.941  13.208   3.421
45336W        W10321  25.978  17.552  12.353
45337W        W10322  42.897  19.444   2.855
45338W        W10323  11.358   4.371   4.410
45339W        W10324  13.246   2.509  11.460
45340W        W10325  13.569  41.031   4.491
45341W        W10326  27.894  20.262  14.218
45342W        W10327   4.673  32.034  13.082
45343W        W10328  20.623  27.160  14.482
45344W        W10329  42.514   5.118  12.416
45345W        W10330   7.762  25.088  11.783
45346W        W10331  40.015  17.200   0.817
45347W        W10332   4.787  37.013   4.039
45348W        W10333  16.297  14.515  14.997
45349W        W10334  39.252  18.098  11.093
45350W        W10335  26.016  37.132  13.316
45351W        W10336   0.543  15.828  11.482
45352W        W10337   7.398  30.898  12.995
45353W        W10338  16.715  43.064   2.615
45354W        W10339  20.179  43.408   4.096
45355W        W10340   0.540  10.460  14.787
45356W        W10341   5.619  44.420  12.863
45357W        W10342  10.152   3.321   3.744
45358W        W10343   4.308   0.301   0.541
45359W        W10344  41.979   8.443  12.664
45360W        W10345  11.821  17.729  10.833
45361W        W10346  23.939  11.711   3.261
45362W        W10347  24.465  33.566  11.374
45363W        W10348  27.936  42.562   1.108
45364W        W10349  28.136  28.385   1.257
45365W        W10350   4.437  36.319  11.551
45366W        W10351  16.694  15.096  14.518
45367W        W10352  33.874  21.757  12.615
45368W        W10353  38.470  22.052  14.968
45369W        W10354   4.015  44.928  10.936
45370W        W10355  10.293  35.614  14.799
45371W        W10356  11.545  36.078  13.897
45372W        W10357   6.394  41.057   4.108
45373W        W10358  32.885  14.786  11.095
45374W        W10359  28.428  24.709  14.189
45375W        W10360  41.444  12.289   0.894
45376W        W10361  14.867  15.036  12.906
45377W        W10362  15.871  15.857  10.767
45378W        W10363   4.679  34.528  14.700
45379W        W10364   4.740  28.439  12.371
45380W        W10365  14.275  17.609   2.205
45381W        W10366  21.439   3.892  14.533
45382W        W10367  39.703  12.135   3.187
45383W        W10368   5.431  25.965  14.348
45384W        W10369  35.992   6.664   1.643
45385W        W10370  44.411  18.082   3.182
45386W        W10371  12.199   6.814  14.093
45387W        W10372  17.419   7.448   2.801
45388W        W10373  43.371  22.584  10.567
45389W        W10374  18.828  41.997  12.952
45390W        W10375  13.777  22.058   4.274
45391W        W10376  17.803   2.667   0.720
45392W        W10377  28.988  14.983   0.000
45393W        W10378  39.968  33.325  12.902
45394W        W10379  24.932  36.879   2.378
45395W        W10380  33.480   6.869  12.960
45396W        W10381  19.775   5.742  10.672
45397W        W10382  11.656  26.070  11.118
45398W        W10383  30.087  16.510  14.919
45399W        W10384   9.639  35.634  12.510
45400W        W10385  43.941   5.274  14.979
45401W        W10386  24.974   4.261   1.285
45402W        W10387  19.865  29.215  13.486
45403W        W10388  37.356  24.236   2.179
45404W        W10389   4.201  30.648   4.588
45405W        W10390  27.215   2.910  12.025
45406W        W10391  24.985  36.835   4.944
45407W        W10392  43.937   0.639  13.896
45408W        W10393  21.333  27.040   3.110
45409W        W10394  32.868  27.720   1.796
45410W        W10395  32.922  31.174   3.179
45411W        W10396   1.317  25.705   2.709
45412W        W10397   1.139   6.367   1.933
45413W        W10398  24.822  40.940  14.505
45414W        W10399  17.619  35.259   1.387
45415W        W10400   7.341  31.613   0.863
45416W        W10401   1.832  21.058  13.320
45417W        W10402  27.244   0.747  10.712
45418W        W10403  44.301   8.621  14.910
45419W        W10404  32.140   5.661  10.636
45420W        W10405  22.143   3.450   3.330
45421W        W10406  18.092  17.796   2.855
45422W        W10407  24.199  27.493   2.649
45423W        W10408  16.816   0.466  14.821
45424W        W10409  14.622   6.663  12.940
45425W        W10410  17.758   3.265  11.715
45426W        W10411  23.778  12.022   1.333
45427W        W10412  35.375  30.192  12.090
45428W        W10413  38.913  27.502   2.610
45429W        W10414  39.011  30.725  12.781
45430W        W10415  15.479  22.045  12.089
45431W        W10416  18.344  33.020   4.595
45432W        W10417  42.885  19.546  14.997
45433W        W10418   6.551  11.301   0.333
45434W        W10419  19.212  15.738   4.843
45435W        W10420  16.652  31.198  12.814
45436W        W10421  42.290  40.453   1.417
45437W        W10422  22.542  41.388  10.245
45438W        W10423  22.163  38.494   0.284
45439W        W10424  21.276  11.152  11.642
45440W        W10425  43.738  40.215  12.374
45441W        W10426  32.610  18.089  11.681
45442W        W10427   0.905  29.340   2.242
45443W        W10428   6.276   9.328   2.371
45444W        W10429  27.398  15.556   4.307
45445W        W10430  29.426   7.140  10.720
45446W        W10431  25.087  23.917   2.389
45447W        W10432  16.828  29.947  11.404
45448W        W10433   8.980  13.309  11.151
45449W        W10434  18.101   3.804  11.090
45450W        W10435  11.838   9.820  13.952
45451W        W10436  15.033  25.100  11.146
45452W        W10437  33.940  30.511   1.822
45453W        W10438  10.772   3.930   3.852
45454W        W10439   2.906  38.397  13.586
45455W        W10440  19.230  35.471  10.762
45456W        W10441  33.530  10.856  11.143
45457W        W10442  30.666   9.805   2.996
45458W        W10443   4.916  14.175   3.282
45459W        W10444  43.225  14.255  11.074
45460W        W10445  34.211  33.764  12.904
45461W        W10446  33.951  30.111  10.585
45462W        W10447   1.679  10.478  13.443
45463W        W10448  42.913  34.908  11.222
45464W        W10449   6.400  20.443   1.359
45465W        W10450  14.305  24.165   4.658
45466W        W10451  10.057  21.515   2.803
45467W        W10452  13.323   5.642  13.992
45468W        W10453  13.117  27.644  10.664
45469W        W10454  17.416  15.087  13.884
45470W        W10455  38.881  19.093   4.092
45471W        W10456  40.921  10.371  10.744
45472W        W10457  27.040   9.419  13.961
45473W        W10458  12.323  11.946   3.164
45474W        W10459  41.911  29.912   4.626
45475W        W10460  43.476  24.013   4.739
45476W        W10461  15.210  22.432  12.345
45477W        W10462   5.823  16.807   2.404
45478W        W10463  10.667  12.421  12.001
45479W        W10464  22.628  11.582  12.346
45480W        W10465  41.754   8.008   2.561
45481W        W10466  16.625  39.329  14.841
45482W        W10467  28.063  39.038   2.081
45483W        W10468  41.084  32.525   1.445
45484W        W10469   7.186  41.003  12.004
45485W        W10470   1.842   9.034   4.541
45486W        W10471  10.815  17.527   4.656
45487W        W10472  38.587   4.170  14.641
45488W        W10473  37.835  44.294   0.925
45489W        W10474  34.856   8.667  13.014
45490W        W10475  41.618  32.669   1.491
45491W        W10476  39.313  39.941  14.896
45492W        W10477  20.954   9.678   3.922
45493W        W10478   3.043   0.413   2.097
45494W        W10479  33.830   2.946   4.135
45495W        W10480  11.802  16.255   3.702
45496W        W10481  27.644   9.743  12.492
45497W        W10482  37.501  21.188  14.683
45498W        W10483  28.700  12.246   1.462
45499W        W10484  30.739  12.643  13.432
45500W        W10485  22.476  15.291   1.407
45501W        W10486  12.157  22.583   2.641
45502W        W10487  42.520  20.101  14.354
45503W        W10488   4.286   8.494  13.322
45504W        W10489  27.523   3.688  13.737
45505W        W10490  27.250  44.591   9.908
45506W        W10491  15.703   4.550   4.132
45507W        W10492   7.105  19.682   0.078
45508W        W10493   9.381  20.270   3.164
45509W        W10494  36.099  43.508   3.607
45510W        W10495  39.223  15.987   2.360
45511W        W10496   4.213  33.626   3.319
45512W        W10497  20.215  27.180  10.119
45513W        W10498  21.582   8.781  13.516
45514W        W10499  29.237  12.069   3.200
45515W        W10500   9.956  23.138   2.597
45516W        W10501  35.712  34.393   3.798
45517W        W10502   7.696  24.215  14.790
45518W        W10503  44.373  18.061  13.813
45519W        W10504  38.673  41.345  13.090
45520W        W10505  29.645  21.118   3.568
45521W        W10506  25.653  29.140  14.616
45522W        W10507  38.613  35.358  13.376
45523W        W10508  16.941  33.142  14.543
45524W        W10509  40.795  18.019   1.323
45525W        W10510  43.834  38.973  11.209
45526W        W10511  16.044  39.302  10.736
45527W        W10512  41.831  19.542   4.112
45528W        W10513  16.491   2.904  11.248
45529W        W10514  12.448  43.793   1.582
45530W        W10515  35.616   1.743  10.916
45531W        W10516  37.319  30.631   1.857
45532W        W10517  44.306  16.391   0.332
45533W        W10518  38.848  35.126  12.033
45534W        W10519  38.947  28.196   4.070
45535W        W10520  15.868  31.414  10.811
45536W        W10521  41.900  17.510  14.364
45537W        W10522  30.604  22.739  12.473
45538W        W10523   3.444  36.607  10.712
45539W        W10524  14.648  40.265   4.080
45540W        W10525  43.076  39.526  10.589
45541W        W10526  43.715   6.931   2.876
45542W        W10527  22.703  19.535  14.464
45543W        W10528  34.686  32.013  11.229
45544W        W10529  27.777  21.815   1.874
45545W        W10530  24.593   4.483  11.485
45546W        W10531   2.735   7.900  13.994
45547W        W10532  24.459   7.673  12.018
45548W        W10533  12.177  20.104   3.063
45549W        W10534  39.693  16.021  10.681
45550W        W10535   5.615  24.573   0.600
45551W        W10536  15.823  30.468   2.230
45552W        W10537  41.933  28.084   1.775
45553W        W10538   8.374  14.230   2.391
45554W        W10539  19.997  11.436   1.480
45555W        W10540  12.283  24.260  13.097
45556W        W10541  19.249  38.786  11.449
45557W        W10542  26.452  25.449  11.858
45558W        W10543  27.393   7.936   0.520
45559W        W10544  12.581  37.467  12.656
45560W        W10545  14.693   4.927  12.603
45561W        W10546  40.426  15.678   2.425
45562W        W10547  16.644  39.960   1.385
45563W        W10548  16.636  14.617  12.734
45564W        W10549  28.606  32.831  11.766
45565W        W10550  43.167   7.941  11.541
45566W        W10551  10.427  16.815  11.237
45567W        W10552  38.570  41.427   0.952
45568W        W10553  25.594  11.081   1.504
45569W        W10554  32.227  21.622   2.433
45570W        W10555  14.657  30.996  10.663
45571W        W10556   8.249  12.510   0.704
45572W        W10557  39.009  22.632   4.741
45573W        W10558  14.130  17.371   4.106
45574W        W10559  18.811  37.301  12.782
45575W        W10560  13.261  25.212   5.371
45576W        W10561  20.153  25.903  13.053
45577W        W10562  16.892   8.883  11.281
45578W        W10563   9.175  40.780   3.714
45579W        W10564  20.298  32.447  11.553
45580W        W10565  27.494   0.017   3.828
45581W        W10566  44.034  28.355  11.166
45582W        W10567  15.627  43.648   4.754
45583W        W10568  20.499  44.651   4.366
45584W        W10569  14.954  37.321  11.087
45585W        W10570  43.194   1.294  12.546
45586W        W10571  28.640  19.304  10.973
45587W        W10572   2.834  37.513  13.544
45588W        W10573  13.653   1.514  14.255
45589W        W10574  23.166  29.993   4.620
45590W        W10575  37.316  33.328  11.142
45591W        W10576   1.483  14.600   2.191
45592W        W10577   5.115  24.155   1.988
45593W        W10578  11.737  14.560   0.904
45594W        W10579  14.024  30.033  14.398
45595W        W10580   2.389   4.341  14.495
45596W        W10581  38.904  22.505   4.243
45597W        W10582  24.202   1.781   2.866
45598W        W10583  16.328  16.148   3.363
45599W        W10584  36.611   5.845  11.158
45600W        W10585   6.469  42.043  14.779
45601W        W10586  12.709  20.528   2.301
45602W        W10587   6.330  21.235   4.511
45603W        W10588  43.524  35.911  11.480
45604W        W10589   3.911  15.557  13.780
45605W        W10590   1.184  22.028  14.399
45606W        W10591  41.298  12.623   2.306
45607W        W10592  43.544  18.186  11.624
45608W        W10593  36.055  39.817  14.942
45609W        W10594  44.987  22.172   1.865
45610W        W10595  13.280  31.019   0.164
45611W        W10596   7.797  41.508   3.777
45612W        W10597  30.626  21.261  10.933
45613W        W10598  35.171  36.213   0.370
45614W        W10599  22.533  27.191  13.525
45615W        W10600  10.730  28.450  11.590
45616W        W10601  24.056   4.786   1.669
45617W        W10602  25.093  44.912   0.438
45618W        W10603  27.433   2.526   2.575
45619W        W10604  39.068  13.126  13.516
45620W        W10605   5.522  37.396   5.032
45621W        W10606  35.929  26.435   4.923
45622W        W10607   9.447   5.086   2.523
45623W        W10608  19.374  17.225  11.812
45624W        W10609  17.264  35.869   4.983
45625W        W10610   0.850  36.055  11.903
45626W        W10611  41.351  10.417   0.384
45627W        W10612   9.852  22.435  13.515
45628W        W10613  17.556  23.498  10.620
45629W        W10614  39.984   4.716   1.233
45630W        W10615  22.453   7.914  14.385
45631W        W10616  29.161  25.558   2.662
45632W        W10617   2.238   9.502  12.014
45633W        W10618  16.957   0.837  13.833
45634W        W10619  15.829  42.929  10.017
45635W        W10620   8.197  27.701  14.008
45636W        W10621  32.819  25.006   2.332
45637W        W10622  36.745  15.312   0.287
45638W        W10623  17.246  42.631   4.569
45639W        W10624  43.499   5.224  14.647
45640W        W10625  11.458  41.335  13.347
45641W        W10626  30.607   5.239   0.760
45642W        W10627   5.375   8.405   0.002
45643W        W10628  19.684  18.459   2.897
45644W        W10629  21.993  34.545   4.464
45645W        W10630  42.915   8.913   3.348
45646W        W10631  21.784  30.513  14.072
45647W        W10632  42.351   9.192   0.666
45648W        W10633   7.094  26.718   2.953
45649W        W10634  15.815  37.841   4.571
45650W        W10635   8.571  43.711   0.515
45651W        W10636  26.058  36.633  13.429
45652W        W10637   0.785   2.770  12.911
45653W        W10638  10.700  10.342   0.052
45654W        W10639  38.838  33.915   1.664
45655W        W10640  12.641   9.783  14.341
45656W        W10641  11.137   5.932   2.794
45657W        W10642   4.779  18.769   2.092
45658W        W10643   9.655   7.587   3.348
45659W        W10644  22.665  13.724  14.954
45660W        W10645  38.399  11.358  13.254
45661W        W10646   8.664  18.111  11.690
45662W        W10647  35.376  17.335  13.515
45663W        W10648  34.152  21.524   1.375
45664W        W10649  38.352  43.800  14.891
45665W        W10650  10.864  34.516   0.381
45666W        W10651  27.986  31.185   2.649
45667W        W10652  44.914  16.736   4.208
45668W        W10653  21.832  28.091   4.010
45669W        W10654  19.735   5.225   9.634
45670W        W10655  41.341  36.618   4.899
45671W        W10656  31.631  19.767  14.216
45672W        W10657  36.331  42.969  13.279
45673W        W10658  36.900  22.154   3.633
45674W        W10659  25.277  41.842   2.635
45675W        W10660  27.801  32.495   2.319
45676W        W10661   0.734  15.606   0.318
45677W        W10662  39.814  19.566  14.389
45678W        W10663  19.188  31.685   0.886
45679W        W10664  41.708  34.467   1.971
45680W        W10665  21.766  38.690   1.968
45681W        W10666  22.811  12.158   5.032
45682W        W10667   5.208  13.506   0.865
45683W        W10668  17.999   1.498   0.768
45684W        W10669  18.020  44.890   2.723
45685W        W10670  13.176  36.131   2.280
45686W        W10671  11.240   5.583  11.872
45687W        W10672  30.543  26.928  13.957
45688W        W10673  17.046  19.810   3.301
45689W        W10674   3.726   7.634  10.215
45690W        W10675   5.859  31.527   2.722
45691W        W10676   2.702  37.912   1.972
45692W        W10677   4.395  23.041  13.603
45693W        W10678  37.048   7.160  12.922
45694W        W10679   6.336   3.031  14.508
45695W        W10680  37.161  40.888  14.841
45696W        W10681  20.414   3.298   4.852
45697W        W10682  31.978   1.717  13.962
45698W        W10683   4.920  18.089  11.389
45699W        W10684  22.756   6.190   0.648
45700W        W10685  42.067  21.542   3.235
45701W        W10686  23.911  13.136  14.789
45702W        W10687  26.780  44.531   3.274
45703W        W10688   4.341  16.660   3.755
45704W        W10689  34.088  12.382   0.480
45705W        W10690  33.464   5.987   2.255
45706W        W10691  24.740  40.627   4.835
45707W        W10692  25.020  35.356   4.257
45708W        W10693  31.868   9.597   5.311
45709W        W10694  16.238  21.581   1.478
45710W        W10695  16.657  21.041   2.267
45711W        W10696  37.651  30.220   1.773
45712W        W10697  16.530   3.323  10.806
45713W        W10698  10.313  39.901   4.727
45714W        W10699  13.937  13.782  12.983
45715W        W10700   5.423  37.053  10.555
45716W        W10701  32.879  17.791   4.155
45717W        W10702  13.151   9.532  12.250
45718W        W10703  21.331   0.036   2.422
45719W        W10704  33.389  42.456   4.184
45720W        W10705  27.950  10.226   3.313
45721W        W10706   9.893  25.429  14.590
45722W        W10707   8.051  39.122   0.472
45723W        W10708  41.267  34.069   4.560
45724W        W10709  35.644  16.717   1.797
45725W        W10710  28.395  13.043  11.932
45726W        W10711  23.523   3.807  14.440
45727W        W10712  33.360  26.048   1.291
45728W        W10713  39.094  42.404  11.725
45729W        W10714   4.043  18.185   0.902
45730W        W10715  40.895  36.186   1.366
45731W        W10716  32.373  14.707  11.090
45732W        W10717  44.992  19.024  12.426
45733W        W10718   9.726  34.107  12.592
45734W        W10719  21.086  36.019   1.886
45735W        W10720  29.162   7.879  14.993
45736W        W10721  33.167  24.512  13.927
45737W        W10722  14.506  23.621   3.305
45738W        W10723   9.347  16.834   1.047
45739W        W10724  41.439  31.363   0.884
45740W        W10725  17.816  30.108   4.174
45741W        W10726   8.784  37.918  13.020
45742W        W10727  10.945  43.921  10.412
45743W        W10728  20.969  39.207   4.293
45744W        W10729  40.135   8.571   2.738
45745W        W10730  40.423  37.249  11.503
45746W        W10731  10.612  15.641   3.240
45747W        W10732  16.473  11.936   4.761
45748W        W10733  43.789  23.542  12.974
45749W        W10734   7.363  11.667   2.333
45750W        W10735  26.753  28.937   3.707
45751W        W10736   4.267  27.282   1.438
45752W        W10737   9.366  16.590  12.029
45753W        W10738  11.866   4.263  12.024
45754W        W10739  34.892  35.491  13.826
45755W        W10740  25.616  21.090  12.447
45756W        W10741   9.536  36.075  10.629
45757W        W10742   3.680  36.063   1.322
45758W        W10743  33.828  44.444  11.582
45759W        W10744  22.289   4.650   0.977
45760W        W10745   1.917  10.936   1.880
45761W        W10746  38.329  20.007   2.830
45762W        W10747  22.187  18.710  10.108
45763W        W10748  22.240  43.881  12.984
45764W        W10749   2.093  43.796   1.420
45765W        W10750  38.796  19.346  11.169
45766W        W10751  44.301   4.407   0.331
45767W        W10752   6.154  26.708  11.028
45768W        W10753   4.230   7.241  10.470
45769W        W10754  44.420  23.600  10.724
45770W        W10755  17.107  25.310  12.926
45771W        W10756  42.039  12.386  13.802
45772W        W10757   3.893  24.600  11.615
45773W        W10758  23.142   5.265   3.303
45774W        W10759  34.937  12.762   1.891
45775W        W10760   8.645  22.518   2.729
45776W        W10761  32.517   7.618  11.991
45777W        W10762  15.451  18.219  13.409
45778W        W10763  19.586  24.330   4.697
45779W        W10764   9.715   3.018  10.589
45780W        W10765  39.363  36.879  12.892
45781W        W10766   2.317  16.202  11.016
45782W        W10767  16.649   4.027  10.287
45783W        W10768  44.584  38.019  10.243
45784W        W10769  40.692  18.658  11.114
45785W        W10770  26.925   9.016   4.151
45786W        W10771   4.755  25.291   0.470
45787W        W10772  15.266  37.115   1.783
45788W        W10773  24.576  37.224  14.928
45789W        W10774  38.325  44.788   3.693
45790W        W10775  31.868  35.993   0.306
45791W        W10776  39.435  37.301   9.561
45792W        W10777  31.981   6.630  12.998
45793W        W10778  42.774  26.754  12.121
45794W        W10779  38.496  38.321   1.724
45795W        W10780   4.682   5.319  14.674
45796W        W10781  28.573  37.619   4.173
45797W        W10782  39.477  13.130  14.479
45798W        W10783  22.927  20.469  10.136
45799W        W10784  25.764   9.018   1.524
45800W        W10785  42.526  33.532   3.149
45801W        W10786  36.420  26.525  12.908
45802W        W10787   0.988  10.388   0.959
45803W        W10788  13.514   8.659   4.743
45804W        W10789  27.657   2.782  14.808
45805W        W10790  34.640   1.891  11.138
45806W        W10791  11.108  14.748  11.961
45807W        W10792  35.058   6.959  10.315
45808W        W10793  19.352  41.581  10.695
45809W        W10794   1.242  12.328  11.174
45810W        W10795  13.861  31.611  13.008
45811W        W10796  26.111   2.311   2.165
45812W        W10797  20.728  18.249  11.142
45813W        W10798  41.956   7.262  14.333
45814W        W10799  38.974  41.114   1.756
45815W        W10800  18.189  14.827   2.240
45816W        W10801  36.909   4.215  11.240
45817W        W10802  20.575  32.506  12.005
45818W        W10803  41.504   6.973  13.901
45819W        W10804  33.623  41.857  12.818
45820W        W10805  38.150  40.499   0.274
45821W        W10806  36.040  33.985   1.158
45822W        W10807   2.533  11.060   3.149
45823W        W10808   6.762  26.521   2.135
45824W        W10809  41.294  19.886   1.990
45825W        W10810  12.426  13.633   4.589
45826W        W10811  37.015  36.071   0.596
45827W        W10812  21.084  31.662  13.421
45828W        W10813  38.121  18.123  13.301
45829W        W10814  14.202  38.799  13.788
45830W        W10815   6.079  10.600  10.866
45831W        W10816  11.243  43.319   2.325
45832W        W10817  33.175  20.591   2.726
45833W        W10818  13.664  17.955  12.572
45834W        W10819  41.680  14.047  12.146
45835W        W10820  10.208  41.330  12.139
45836W        W10821  44.529  16.722   4.562
45837W        W10822  17.123  31.130   3.255
45838W        W10823  27.610  20.455   4.152
45839W        W10824  30.535   9.127  13.097
45840W        W10825  36.804  42.983   0.866
45841W        W10826  35.461   6.657  11.061
45842W        W10827  13.886  43.521   4.965
45843W        W10828  36.071  30.924   0.496
45844W        W10829   9.705  36.692  12.358
45845W        W10830  11.196  22.094   0.011
45846W        W10831  34.050   5.229   3.757
45847W        W10832   0.994   9.397  13.345
45848W        W10833  31.055   6.903   0.850
45849W        W10834  16.458  13.792  11.507
45850W        W10835  38.038   7.380  12.021
45851W        W10836  40.078  14.887  14.398
45852W        W10837  32.646  12.266  11.134
45853W        W10838  28.333  10.168  12.194
45854W        W10839   9.156  30.835   2.755
45855W        W10840  27.387   9.777   4.777
45856W        W10841  19.343  26.199   3.883
45857W        W10842  36.766  26.309  13.819
45858W        W10843  11.950  24.664  13.074
45859W        W10844   2.975   1.778  11.283
45860W        W10845  17.238  44.180   4.920
45861W        W10846  25.625  37.986   2.456
45862W        W10847  15.946  22.588   2.664
45863W        W10848   3.293  29.265   4.610
45864W        W10849  18.060  18.338  12.659
45865W        W10850  39.964  12.220   0.535
45866W        W10851  11.494   7.474  13.101
45867W        W10852  39.742  13.575   4.111
45868W        W10853  23.931  42.371  10.750
45869W        W10854  33.901  24.691  12.416
45870W        W10855  18.476   2.482  12.502
45871W        W10856  25.529  12.790  11.248
45872W        W10857  31.452  42.623   2.705
45873W        W10858  13.363   0.447   3.678
45874W        W10859   7.802   6.853   2.716
45875W        W10860  32.004   5.008   3.255
45876W        W10861   7.889  10.707  13.824
45877W        W10862  37.543  12.321   3.308
45878W        W10863  15.626  10.147   0.720
45879W        W10864   2.781  35.099   1.862
45880W        W10865  40.901  42.563  11.080
45881W        W10866  37.500  18.808   4.133
45882W        W10867   1.894  34.233  14.024
45883W        W10868  14.917  30.810   1.833
45884W        W10869  34.534  12.732   2.251
45885W        W10870  37.988  29.019   3.635
45886W        W10871   9.274  18.054   1.746
45887W        W10872  12.310  16.017   3.570
45888W        W10873  42.112  33.987  12.486
45889W        W10874  22.576  16.231  13.553
45890W        W10875   0.799  37.088  10.780
45891W        W10876   5.438  28.044  10.767
45892W        W10877  41.600  33.131   4.476
45893W        W10878   9.071  43.355   2.634
45894W        W10879  17.751   1.124   1.229
45895W        W10880  19.030  40.188  12.437
45896W        W10881  33.880  41.919  11.500
45897W        W10882  30.025  23.419   2.454
45898W        W10883  30.283  17.721   0.216
45899W        W10884  10.183  40.326  14.545
45900W        W10885  21.828   7.262   1.727
45901W        W10886  42.456   5.275  13.279
45902W        W10887  32.950  22.097   2.024
45903W        W10888  14.158  41.264   0.362
45904W        W10889  12.370  26.333   1.607
45905W        W10890  28.141  43.878   3.557
45906W        W10891  33.128  26.165   0.406
45907W        W10892  34.387  22.441  12.092
45908W        W10893  31.374  20.081  11.956
45909W        W10894  34.919   5.933   0.378
45910W        W10895  28.405   5.267   2.456
45911W        W10896  15.091  11.261   0.870
45912W        W10897   6.127  42.835   9.903
45913W        W10898  28.637  44.677   1.879
45914W        W10899  10.883   0.282  11.041
45915W        W10900  31.245  20.524   2.174
45916W        W10901  27.919   8.908   3.141
45917W        W10902  36.311  34.357   0.927
45918W        W10903  14.388   5.301   3.710
45919W        W10904   5.400  18.799  10.985
45920W        W10905  14.743   2.262   3.123
45921W        W10906  20.996  33.155  11.688
45922W        W10907   4.750  42.482   5.106
45923W        W10908  12.923  32.046   4.070
45924W        W10909   8.278  32.813  13.559
45925W        W10910   9.883  28.389  12.828
45926W        W10911  11.977   8.941   3.179
45927W        W10912   4.255  21.607  12.519
45928W        W10913   3.212  28.126   4.173
45929W        W10914  36.979  29.420   4.860
45930W        W10915  19.051  39.205   2.638
45931W        W10916   6.960  14.425  10.754
45932W        W10917  42.398  19.554  14.759
45933W        W10918  31.400  34.080   2.208
45934W        W10919  37.369  12.718   1.432
45935W        W10920   9.311   6.181  11.933
45936W        W10921  19.250  39.066   1.678
45937W        W10922  31.006  23.924  13.514
45938W        W10923  33.790  22.251  14.382
45939W        W10924  11.321  22.913  12.010
45940W        W10925  33.522  36.977   2.424
45941W        W10926  14.271  23.312  13.475
45942W        W10927  35.548  39.325   3.812
45943W        W10928   3.832  21.961  13.178
45944W        W10929   5.403  41.349   2.162
45945W        W10930  24.624  15.263  14.100
45946W        W10931   9.722  28.569   1.929
45947W        W10932  14.153   3.514   0.327
45948W        W10933  36.600   2.857  12.991
45949W        W10934  37.049  38.971  11.422
45950W        W10935  17.652  34.354  11.567
45951W        W10936   2.889   2.790   0.435
45952W        W10937  40.864  32.877   3.866
45953W        W10938  19.770   1.341  14.106
45954W        W10939  11.742  35.572   3.777
45955W        W10940  29.894   3.706   2.893
45956W        W10941  33.003  13.870   2.698
45957W        W10942   7.169  15.219  12.931
45958W        W10943  17.072  20.752   2.278
45959W        W10944   5.698  38.700  14.053
45960W        W10945  12.547  21.781   4.920
45961W        W10946  30.379  31.503  10.802
45962W        W10947   9.435   2.296  10.710
45963W        W10948  39.837  36.912  11.955
45964W        W10949  28.669   4.896   3.332
45965W        W10950  27.262   8.770   0.904
45966W        W10951  34.102  27.736  14.409
45967W        W10952  22.000  23.495   0.490
45968W        W10953   6.653  26.043   3.396
45969W        W10954  14.697  43.306   0.739
45970W        W10955  36.146  25.679  12.437
45971W        W10956  14.959  21.179  13.055
45972W        W10957  42.822  26.248   2.886
45973W        W10958   4.378  41.895   1.937
45974W        W10959  12.832  31.613  13.165
45975W        W10960  23.127  15.417   2.200
45976W        W10961   9.861   8.848  12.965
45977W        W10962  21.398  15.692  12.129
45978W        W10963   2.916   3.249   4.468
45979W        W10964  41.475   1.335  12.979
45980W        W10965  33.579   7.824   2.740
45981W        W10966  27.708  32.391  12.567
45982W        W10967  33.608  43.876   1.203
45983W        W10968  30.990  10.239  10.206
45984W        W10969  24.988  42.254  12.534
45985W        W10970  39.597  24.097  12.912
45986W        W10971  21.574  24.121   2.719
45987W        W10972   8.406  18.844   2.352
45988W        W10973  19.688   5.835   0.808
45989W        W10974  31.031  42.037   0.714
45990W        W10975  43.909  39.350   1.904
45991W        W10976  35.182  37.864   4.219
45992W        W10977  32.895  40.572  13.926
45993W        W10978  31.108  34.140   2.775
45994W        W10979   2.192  31.957   1.474
45995W        W10980   8.002  15.081  14.803
45996W        W10981  21.028   2.321   3.628
45997W        W10982  43.139  23.252   3.635
45998W        W10983  34.726  15.693   5.090
45999W        W10984  38.366  11.610   2.204
46000W        W10985   1.213  40.269   1.321
46001W        W10986  38.778   1.186  10.026
46002W        W10987   5.000   8.127  10.734
46003W        W10988  22.389  32.931  11.608
46004W        W10989  34.901  10.830  14.484
46005W        W10990  12.118  27.956  12.565
46006W        W10991  38.541  13.716  12.140
46007W        W10992  35.411  41.223   3.587
46008W        W10993  31.815  24.634   3.229
46009W        W10994  13.392   0.508   0.477
46010W        W10995   7.684  25.083   4.167
46011W        W10996  27.059   2.137  12.979
46012W        W10997  35.332  29.223   2.201
46013W        W10998   0.952  38.073  14.361
46014W        W10999  17.630  32.372   4.560
46015W        W11000  34.116  26.217   1.814
46016W        W11001  42.866  36.916  12.303
46017W        W11002  37.680  43.380   0.953
46018W        W11003  18.797  42.697  14.366
46019W        W11004  13.182  28.934   4.265
46020W        W11005   9.583  41.907   0.833
46021W        W11006  43.855   7.285   0.817
46022W        W11007   5.601  29.645  11.071
46023W        W11008  20.205  36.328   3.852
46024W        W11009  19.833   8.331  10.378
46025W        W11010  42.699  38.807  12.836
46026W        W11011  10.498   6.638  12.407
46027W        W11012  42.909  34.264  12.043
46028W        W11013  17.308  23.650  12.973
46029W        W11014  35.898  11.237  14.975
46030W        W11015  30.814  21.484   2.163
46031W        W11016  16.332  28.105   2.096
46032W        W11017  16.942  18.663  10.692
46033W        W11018   4.332  19.551  13.567
46034W        W11019  24.109  10.922  11.678
46035W        W11020  32.128  18.708  12.541
46036W        W11021  30.553   5.928  13.091
46037W        W11022  30.828  43.807   0.785
46038W        W11023  22.016  14.046   4.044
46039W        W11024  34.702  18.017  14.350
46040W        W11025  27.196  38.571   2.158
46041W        W11026  31.823   9.592  14.443
46042W        W11027  28.101  39.241  13.529
46043W        W11028  20.098   2.747   2.132
46044W        W11029   6.928  20.058   1.354
46045W        W11030  26.651   9.159  13.027
46046W        W11031  39.979   9.361  10.723
46047W        W11032  13.237   4.361  13.590
46048W        W11033  43.537  23.124   0.985
46049W        W11034   6.219   5.730  14.200
46050W        W11035  18.680  29.344  11.104
46051W        W11036  27.594  22.878  13.084
46052W        W11037  23.262   5.986  12.526
46053W        W11038  33.492  16.317  13.137
46054W        W11039   6.463  16.172   1.933
46055W        W11040  40.061   1.752   0.482
46056W        W11041  15.729  24.807   0.700
46057W        W11042  27.705  30.367   0.400
46058W        W11043  21.532  41.524   3.453
46059W        W11044  22.230  29.302  14.781
46060W        W11045  28.566  12.257  12.851
46061W        W11046  44.846  39.565  10.595
46062W        W11047  11.322   8.183  13.357
46063W        W11048  41.292  36.934   1.341
46064W        W11049  24.418   9.703   2.194
46065W        W11050  19.830  20.697   5.313
46066W        W11051  14.387  29.636  13.029
46067W        W11052  40.174   5.501   2.753
46068W        W11053  22.971  16.066   3.996
46069W        W11054  42.514  22.348   3.443
46070W        W11055  41.244  36.130  11.476
46071W        W11056  27.595   1.968   1.342
46072W        W11057  12.216   7.943  13.390
46073W        W11058   1.553  12.454   0.091
46074W        W11059  36.019  33.793  14.436
46075W        W11060  28.129  11.319   0.792
46076W        W11061  12.703  29.848   0.853
46077W        W11062   8.158  26.658   2.273
46078W        W11063  25.926  34.957  11.147
46079W        W11064  20.989  16.161  12.010
46080W        W11065   6.272  35.088   3.333
46081W        W11066  40.975  16.688   2.944
46082W        W11067   6.673  44.845   3.495
46083W        W11068   7.030  39.666  12.433
46084W        W11069   4.927  14.114   1.205
46085W        W11070  11.229  18.316   1.753
46086W        W11071  14.122   1.711  12.779
46087W        W11072  28.217  27.780  12.068
46088W        W11073   6.429   3.019  11.555
46089W        W11074  41.887   6.491  12.187
46090W        W11075   7.864  30.272   0.540
46091W        W11076   9.080  20.741   2.067
46092W        W11077  44.491  41.289   1.370
46093W        W11078  23.695  40.333  11.038
46094W        W11079  14.407  44.220  14.947
46095W        W11080  42.867  40.235   4.054
46096W        W11081   8.683  39.459  14.001
46097W        W11082  40.861  25.688   3.226
46098W        W11083   4.758  17.123   4.670
46099W        W11084   9.369  43.388  14.334
46100W        W11085  42.298  15.277  10.544
46101W        W11086  16.268  34.505  11.569
46102W        W11087  32.636  42.911   4.238
46103W        W11088  11.335  30.152  11.187
46104W        W11089  26.004  22.333   1.877
46105W        W11090  20.819   3.311   1.121
46106W        W11091  34.709  19.306  14.021
46107W        W11092  27.743  29.055   1.773
46108W        W11093  29.016   8.661   3.065
46109W        W11094  32.949  39.431   4.122
46110W        W11095  19.748  20.125  11.517
46111W        W11096  22.216  42.907   1.809
46112W        W11097  37.995  17.150   4.544
46113W        W11098  33.583  38.576  12.520
46114W        W11099  39.400  39.438  11.216
46115W        W11100  20.567  32.462  13.493
46116W        W11101   7.526  29.347  14.443
46117W        W11102  20.173  14.074   4.144
46118W        W11103  15.107  43.202  13.854
46119W        W11104  17.693   7.026   4.290
46120W        W11105  18.531  35.015  13.252
46121W        W11106  39.735  10.309   2.145
46122W        W11107  43.963   8.575  13.830
46123W        W11108  34.583   5.731   0.757
46124W        W11109  10.779  19.246   2.764
46125W        W11110  42.198  16.596   4.184
46126W        W11111  23.130   4.149  13.183
46127W        W11112   9.563  24.343  11.648
46128W        W11113  13.301   0.432  10.306
46129W        W11114  16.052   1.797   3.435
46130W        W11115  33.955   6.844   0.402
46131W        W11116   2.987  38.885  11.915
46132W        W11117  43.130   8.181  12.067
46133W        W11118  41.987  39.270   2.137
46134W        W11119  30.362  22.123  11.599
46135W        W11120  25.694  14.063  12.939
46136W        W11121  44.325  38.821   4.954
46137W        W11122  23.962  11.949  14.472
46138W        W11123   8.447  43.224  11.053
46139W        W11124  25.100  10.782   0.123
46140W        W11125  26.706   2.335  13.354
46141W        W11126  27.392   6.654   2.265
46142W        W11127   0.977  22.405  13.056
46143W        W11128  30.994  10.372   0.764
46144W        W11129  34.127  35.439   0.910
46145W        W11130   5.822   9.771  13.823
46146W        W11131  12.126  19.187  11.159
46147W        W11132  20.950   3.341  13.127
46148W        W11133  26.588   9.748  14.766
46149W        W11134  25.273   6.675  11.579
46150W        W11135   2.424  25.975   3.705
46151W        W11136  29.370  16.597   4.938
46152W        W11137  36.939  14.577   3.105
46153W        W11138  41.688  41.002   3.193
46154W        W11139   8.873  34.960   0.959
46155W        W11140  11.825  19.818  13.042
46156W        W11141   2.813  24.414  14.872
46157W        W11142   0.571  43.759  14.920
46158W        W11143  19.354   2.984   2.769
46159W        W11144   0.042  39.721   2.694
46160W        W11145   9.758   5.967  12.108
46161W        W11146  42.283  22.516  10.199
46162W        W11147  24.210  36.368   1.521
46163W        W11148  11.803  22.948  13.955
46164W        W11149   9.891  12.393   0.315
46165W        W11150   1.504   8.383  14.945
46166W        W11151  19.164  22.536  11.553
46167W        W11152  44.033   1.955   0.776
46168W        W11153  14.114  34.618  11.141
46169W        W11154  34.425  33.570   3.079
46170W        W11155  10.937  31.743  12.172
46171W        W11156  15.425  37.040  13.437
46172W        W11157  27.238  43.713  14.209
46173W        W11158  10.944  27.287   0.968
46174W        W11159  18.062  33.771  10.814
46175W        W11160  17.312  19.779  14.474
46176W        W11161  16.795  42.193   1.028
46177W        W11162  32.036  22.327  12.231
46178W        W11163  10.934  13.802   0.523
46179W        W11164  18.023  24.443   1.315
46180W        W11165   8.268  14.892   2.156
46181W        W11166  34.030  34.146   1.816
46182W        W11167  13.329  35.361   2.347
46183W        W11168  17.143  29.305   4.173
46184W        W11169  40.853  25.431   4.369
46185W        W11170  21.171   0.947   1.988
46186W        W11171  17.531  36.499  14.832
46187W        W11172  22.537   3.145  14.761
46188W        W11173  21.614  15.166   0.520
46189W        W11174   4.015  11.189  13.948
46190W        W11175   8.251  15.842   4.260
46191W        W11176  11.123   1.039   3.083
46192W        W11177  34.932   4.501  14.497
46193W        W11178  26.520  32.982   3.653
46194W        W11179  27.578  22.292  11.649
46195W        W11180  20.011  27.572   3.755
46196W        W11181   1.305  40.732   0.407
46197W        W11182  39.731  16.625  14.266
46198W        W11183   5.318   3.338   1.633
46199W        W11184  26.399  33.985   1.523
46200W        W11185  27.388  22.428   1.715
46201W        W11186  13.729   8.106  10.723
46202W        W11187  12.904  13.102   3.696
46203W        W11188  44.388  10.305  11.230
46204W        W11189  17.766   4.464   1.336
46205W        W11190  29.091  15.356  12.436
46206W        W11191   7.226  10.342   2.743
46207W        W11192   1.357  28.498  13.811
46208W        W11193  10.208  28.893  11.599
46209W        W11194  12.022  42.562  12.138
46210W        W11195  30.872  18.666   2.409
46211W        W11196  15.742  15.093   0.907
46212W        W11197  19.960  23.115  10.390
46213W        W11198   0.689   6.423   0.339
46214W        W11199  24.602  16.871   0.847
46215W        W11200   7.150  26.571  13.134
46216W        W11201  31.977  24.251   2.924
46217W        W11202  40.562   7.294   2.657
46218W        W11203  27.063  44.958   1.954
46219W        W11204  31.698  12.619   2.093
46220W        W11205   8.106  11.825   1.817
46221W        W11206  15.023  42.064   2.809
46222W        W11207  29.768   2.310  10.586
46223W        W11208   3.870  28.457  10.941
46224W        W11209  10.308  15.212   3.341
46225W        W11210  30.420  18.382   1.404
46226W        W11211   3.493   1.023   3.127
46227W        W11212  12.045  31.026  14.554
46228W        W11213   4.230  44.714   2.156
46229W        W11214  13.754  20.463   0.144
46230W        W11215  10.893  34.064  10.627
46231W        W11216  10.177  19.794   3.187
46232W        W11217  37.896  29.711  11.626
46233W        W11218  32.577   7.574  13.804
46234W        W11219  29.675  43.488  10.640
46235W        W11220  13.669  25.790   2.685
46236W        W11221  14.605  23.787  11.765
46237W        W11222  30.423  23.447   0.785
46238W        W11223  33.959  28.010   2.836
46239W        W11224  39.483  15.648   0.907
46240W        W11225  42.409  19.675   0.282
46241W        W11226   9.457  18.688   4.550
46242W        W11227  32.503  24.648   4.031
46243W        W11228  13.690   7.565   2.735
46244W        W11229  29.548  19.976  14.253
46245W        W11230  14.711  17.384  11.928
46246W        W11231  33.919   6.310   4.269
46247W        W11232  42.238  11.213  13.349
46248W        W11233  37.887  18.071  13.746
46249W        W11234  12.264  17.069  14.421
46250W        W11235  31.361  17.701  10.286
46251W        W11236  35.213  37.626   4.945
46252W        W11237  25.666  12.175  13.183
46253W        W11238  15.534  18.151   2.835
46254W        W11239  14.740  24.894   4.007
46255W        W11240  24.595  11.216   2.191
46256W        W11241  21.098   1.791  13.667
46257W        W11242  12.884  23.633  11.154
46258W        W11243  33.587  42.435   1.023
46259W        W11244  18.097  28.959   3.276
46260W        W11245   3.918  17.759  10.685
46261W        W11246  23.260  31.888  14.090
46262W        W11247  29.385  20.257   4.752
46263W        W11248  41.740   9.715  13.095
46264W        W11249  33.660  14.920   2.131
46265W        W11250  16.595  31.940   5.120
46266W        W11251  44.490  24.310   4.986
46267W        W11252   7.591  21.139   1.934
46268W        W11253  43.889  31.778  13.419
46269W        W11254   4.893   6.287  12.653
46270W        W11255   1.990  20.747   1.721
46271W        W11256  23.426  27.293  10.952
46272W        W11257  19.367  18.967  14.093
46273W        W11258   0.932  39.536   4.522
46274W        W11259  34.459   3.466  12.247
46275W        W11260  33.518  27.127   4.320
46276W        W11261   3.974  41.291   4.091
46277W        W11262  38.611  13.309  11.518
46278W        W11263  27.541  28.531   2.956
46279W        W11264   0.360  10.213   3.656
46280W        W11265  35.388   2.327  12.653
46281W        W11266  15.802  40.071  13.043
46282W        W11267  35.996  41.979  14.397
46283W        W11268  31.183  11.083   0.320
46284W        W11269  24.776  20.709   4.588
46285W        W11270  25.474  42.243   1.362
46286W        W11271  27.460  43.230  14.000
46287W        W11272  35.002  29.108   4.164
46288W        W11273   3.883  19.705   4.587
46289W        W11274   7.916  25.287   2.256
46290W        W11275   7.807  14.078   0.743
46291W        W11276   7.580  42.680   1.834
46292W        W11277  15.459  14.748   3.973
46293W        W11278  33.639  30.635  13.014
46294W        W11279  22.035   6.770  13.597
46295W        W11280  16.294   6.907   1.222
46296W        W11281  26.745  42.771  14.295
46297W        W11282   7.874   0.397  10.758
46298W        W11283   8.729   0.915   5.029
46299W        W11284  27.897   4.137  10.556
46300W        W11285   5.453  21.509  14.015
46301W        W11286   1.672  25.469   0.884
46302W        W11287  31.975  26.155  12.422
46303W        W11288  31.627  34.954  11.272
46304W        W11289  34.788  20.654   0.802
46305W        W11290  15.017  30.590  13.103
46306W        W11291  41.944  35.644  14.298
46307W        W11292  19.196   8.908  12.001
46308W        W11293  40.284  23.206   4.205
46309W        W11294  26.752   0.797  12.018
46310W        W11295  16.241  16.772   4.575
46311W        W11296   5.474  25.178  11.903
46312W        W11297  23.469  11.302   0.962
46313W        W11298  23.519  43.867   0.521
46314W        W11299  17.760  26.881   2.778
46315W        W11300  41.186  22.317   3.775
46316W        W11301   0.439   3.767   4.088
46317W        W11302  30.695   8.949   5.277
46318W        W11303  26.895  11.635   2.686
46319W        W11304  35.270  29.461   5.020
46320W        W11305  16.384   7.876   0.820
46321W        W11306  38.918   1.700  11.078
46322W        W11307   2.496  12.266  12.397
46323W        W11308  43.035  15.564   3.749
46324W        W11309  32.600  43.498   4.499
46325W        W11310  21.003  29.143   2.299
46326W        W11311  43.037  43.434   2.144
46327W        W11312  37.836  26.400   3.660
46328W        W11313  42.897  28.196   1.736
46329W        W11314  26.507  19.279   0.239
46330W        W11315  25.651  28.684  14.327
46331W        W11316  26.400   1.303   2.687
46332W        W11317  18.744  17.513   1.851
46333W        W11318   5.918  13.079   3.209
46334W        W11319  14.265  36.114  11.197
46335W        W11320  38.581  44.409  10.935
46336W        W11321  37.875  40.350  13.844
46337W        W11322  21.657   5.842  13.539
46338W        W11323  14.661  12.766   5.184
46339W        W11324  22.822  42.826   2.989
46340W        W11325  15.572   3.017  14.826
46341W        W11326  26.986  25.805  12.774
46342W        W11327  27.723  39.768  10.391
46343W        W11328   4.326  32.137   4.571
46344W        W11329   6.445  21.675  12.728
46345W        W11330  35.034  17.068   3.199
46346W        W11331   8.310  41.625   3.479
46347W        W11332  35.813  29.336   4.920
46348W        W11333   2.393   0.045  11.932
46349W        W11334  32.620   5.670   0.767
46350W        W11335  21.425  39.980  14.480
46351W        W11336  31.566   1.065  11.394
46352W        W11337   0.069  35.079   0.028
46353W        W11338  32.407  25.082  14.494
46354W        W11339  40.053  21.738  14.043
46355W        W11340  36.122  35.122   4.131
46356W        W11341  19.520  28.101  14.526
46357W        W11342  16.686  22.734   0.191
46358W        W11343  16.508  43.434  13.503
46359W        W11344  35.954  36.923  11.549
46360W        W11345  24.068  18.128   2.368
46361W        W11346  40.278  33.652   2.775
46362W        W11347   6.754  22.175  14.373
46363W        W11348  15.118  21.688  13.113
46364W        W11349  33.956  15.738  13.690
46365W        W11350  26.685   8.004   5.004
46366W        W11351   6.821   3.626  10.710
46367W        W11352  42.247   5.706   2.094
46368W        W11353  26.365  41.317  14.456
46369W        W11354  13.184  17.629  12.138
46370W        W11355  34.064  39.501  13.013
46371W        W11356  20.141  38.001  11.267
46372W        W11357  44.428  22.239  13.848
46373W        W11358  24.616  34.533   4.493
46374W        W11359   2.480  17.243   1.377
46375W        W11360  12.737  11.245  12.084
46376W        W11361  42.733  22.155  11.994
46377W        W11362  14.839  19.433   2.771
46378W        W11363   1.897  44.207   1.175
46379W        W11364  43.791   2.811   3.610
46380W        W11365  17.057  33.041   0.530
46381W        W11366   7.185  33.910   1.220
46382W        W11367  29.924   0.573   1.307
46383W        W11368   0.642   5.531  10.463
46384W        W11369  14.921  36.754   4.020
46385W        W11370  24.186  19.106  11.626
46386W        W11371   4.384  11.559   3.759
46387W        W11372   2.511  33.435   4.561
46388W        W11373  19.536  35.006   1.398
46389W        W11374  41.864  27.997  12.150
46390W        W11375  16.361  44.713  11.400
46391W        W11376  23.641   9.589   1.347
46392W        W11377  17.462  21.114   1.352
46393W        W11378  39.513  44.476   3.268
46394W        W11379  27.675  31.496   1.426
46395W        W11380  11.109  41.460   1.640
46396W        W11381  16.146  33.729   4.384
46397W        W11382  17.823  36.529   2.642
46398W        W11383  19.306   9.398  12.070
46399W        W11384  33.869  21.784   4.272
46400W        W11385  42.512   3.227   0.900
46401W        W11386  31.513  34.030  13.047
46402W        W11387  35.720  16.060  13.303
46403W        W11388  27.543  35.819   1.201
46404W        W11389  16.106  24.281  10.989
46405W        W11390  29.483  38.926  14.569
46406W        W11391  37.030  18.288   1.670
46407W        W11392   8.190   7.473   4.464
46408W        W11393  35.508  42.297  12.876
46409W        W11394   5.303  32.667   0.941
46410W        W11395  34.829  23.692  14.537
46411W        W11396  15.767  16.633   0.894
46412W        W11397  25.053  23.672  11.158
46413W        W11398  42.453  29.373  10.722
46414W        W11399   1.531  11.277  13.896
46415W        W11400  30.110  32.200   1.368
46416W        W11401  17.904  28.086  14.427
46417W        W11402  11.044   5.705   4.537
46418W        W11403  11.217  28.584   1.011
46419W        W11404   6.116  31.586  13.876
46420W        W11405   6.718   6.616  12.833
46421W        W11406  44.466   1.961  11.612
46422W        W11407  10.787  25.228   1.769
46423W        W11408  11.952  33.854  13.518
46424W        W11409   6.842  37.462  10.640
46425W        W11410   2.626  28.602   3.434
46426W        W11411  19.753   4.833   1.567
46427W        W11412  17.543  12.336  13.772
46428W        W11413  33.534  26.512   3.548
46429W        W11414   6.684   1.827   3.312
46430W        W11415  32.512  28.475   0.370
46431W        W11416  42.346  15.956  13.304
46432W        W11417  27.069   0.305   5.469
46433W        W11418  36.814  34.212   0.892
46434W        W11419  40.612   3.005   0.730
46435W        W11420  11.263  16.556   3.044
46436W        W11421  35.771  42.825   1.133
46437W        W11422   1.843  21.008  12.422
46438W        W11423  37.711  41.257  11.620
46439W        W11424   9.279  33.278   3.672
46440W        W11425   1.329  10.443  14.865
46441W        W11426  36.565  20.663  12.020
46442W        W11427   5.202  24.924  12.867
46443W        W11428  18.662  34.584  10.701
46444W        W11429   5.321  21.558  11.417
46445W        W11430   2.526  37.824   4.281
46446W        W11431  38.894  20.700  12.566
46447W        W11432  14.781  11.769   3.056
46448W        W11433  29.940   4.383   1.338
46449W        W11434  19.122  21.547  11.591
46450W        W11435  32.958  17.555  13.073
46451W        W11436  32.584  35.397   0.515
46452W        W11437  11.079   5.406  13.144
46453W        W11438   7.497   3.467  14.358
46454W        W11439  21.532  37.269  14.918
46455W        W11440  17.524  35.464  11.261
46456W        W11441   5.326   3.233   3.310
46457W        W11442  37.727  25.810  12.722
46458W        W11443  42.826  12.876  10.665
46459W        W11444  41.148  27.588   0.458
46460W        W11445  42.029   0.398   2.715
46461W        W11446  40.525  30.833  13.875
46462W        W11447  15.193  39.967   4.413
46463W        W11448  21.442  24.388   1.864
46464W        W11449   2.709   1.792  13.060
46465W        W11450  34.729  42.344   4.751
46466W        W11451  37.473  23.207  14.778
46467W        W11452  15.350  23.935   3.147
46468W        W11453  11.987  38.912   0.398
46469W        W11454  38.005   7.686   0.930
46470W        W11455  38.839  40.088   2.119
46471W        W11456  39.871   3.244   1.791
46472W        W11457  24.208  44.264  13.315
46473W        W11458  19.986   9.283  14.810
46474W        W11459  21.284   0.454  13.578
46475W        W11460  41.458  43.780   0.791
46476W        W11461  40.456  26.570   2.788
46477W        W11462   8.027  18.774   3.894
46478W        W11463  29.435  32.307  11.915
46479W        W11464   7.881   5.515   1.163
46480W        W11465  42.680  28.900   2.519
46481W        W11466  33.553  29.177  14.010
46482W        W11467  12.768  25.546   0.816
46483W        W11468  26.450  25.261   4.503
46484W        W11469  14.225  20.372   0.326
46485W        W11470   3.404  23.282  10.309
46486W        W11471  33.711  29.951   4.874
46487W        W11472   7.042  24.061  12.085
46488W        W11473  18.257  41.908   5.087
46489W        W11474  32.912  15.800   0.806
46490W        W11475  25.472  41.729  13.386
46491W        W11476   3.307  27.155  13.474
46492W        W11477  36.747  39.374  12.144
46493W        W11478  28.020  23.690  12.527
46494W        W11479  25.196  38.012  12.531
46495W        W11480  15.759  11.609  10.786
46496W        W11481  21.539  24.995   0.339
46497W        W11482  17.592  43.785  12.732
46498W        W11483   9.368  23.736  13.371
46499W        W11484  36.734   8.935   2.224
46500W        W11485   2.693  35.561   3.308
46501W        W11486  26.196  17.341  10.646
46502W        W11487  40.543  37.336   1.784
46503W        W11488  14.115   7.522   1.822
46504W        W11489   2.370  31.497  10.784
46505W        W11490  18.706   5.453  14.720
46506W        W11491  16.970  36.839  14.448
46507W        W11492   9.119   7.735   3.547
46508W        W11493  30.366  32.482  13.481
46509W        W11494   7.556  23.777  13.441
46510W        W11495  28.053  12.908   1.191
46511W        W11496  44.782  14.102  12.593
46512W        W11497  39.957  38.827  14.382
46513W        W11498  28.063  19.566  14.349
46514W        W11499  13.657  10.648   0.389
46515W        W11500  10.324   9.114   2.717
46516W        W11501   0.225   6.317  14.255
46517W        W11502  29.030  43.464  11.337
46518W        W11503  18.541  27.668   0.070
46519W        W11504  25.710   8.222  13.874
46520W        W11505  10.247  20.582  12.443
46521W        W11506  37.093  31.395   2.736
46522W        W11507   8.737  24.230  14.011
46523W        W11508  17.061  32.551   2.055
46524W        W11509  11.328  21.618   0.240
46525W        W11510   9.504  22.283   0.367
46526W        W11511   0.089  30.980  12.383
46527W        W11512   4.393  39.678   1.915
46528W        W11513  23.069   0.741   2.257
46529W        W11514  41.988  15.525  14.023
46530W        W11515  30.988  22.328   0.317
46531W        W11516  11.690  21.084  14.008
46532W        W11517  37.353  14.557  11.449
46533W        W11518  32.403  18.827  13.470
46534W        W11519  28.163   6.852  13.383
46535W        W11520  13.311  28.454   4.076
46536W        W11521   2.928  17.616  11.946
46537W        W11522  14.206  31.012  12.103
46538W        W11523   9.378  28.446   3.235
46539W        W11524  16.229  13.581   2.345
46540W        W11525  18.885  14.768  11.297
46541W        W11526  40.437  44.565   3.404
46542W        W11527  14.891   1.187  11.566
46543W        W11528   0.344  37.022  11.036
46544W        W11529  40.449   5.757  14.348
46545W        W11530   9.643  14.189  12.594
46546W        W11531  12.970  26.422   4.018
46547W        W11532  19.043  33.632  11.516
46548W        W11533   5.717  14.389   3.694
46549W        W11534   4.712  27.687   9.982
46550W        W11535  40.827  21.976   3.649
46551W        W11536  15.583  15.069   2.663
46552W        W11537  24.646   0.828   0.386
46553W        W11538  37.301  42.121  11.612
46554W        W11539  20.594  40.822  10.773
46555W        W11540  32.566  30.420  11.573
46556W        W11541   2.628   3.253   0.442
46557W        W11542  26.126  39.102   0.893
46558W        W11543  17.046   4.940  13.906
46559W        W11544  13.596  18.995   1.700
46560W        W11545   5.236  31.890  11.962
46561W        W11546  41.745  37.317  11.691
46562W        W11547  37.475  34.790  13.192
46563W        W11548  11.679  44.271  12.599
46564W        W11549  12.906  19.121   0.929
46565W        W11550   7.368  16.814   2.167
46566W        W11551  29.362   3.619   2.894
46567W        W11552  38.984   0.734   1.478
46568W        W11553   0.398   5.599   3.685
46569W        W11554  25.527  21.544   3.805
46570W        W11555   7.442  37.374   4.076
46571W        W11556  27.143  16.864   3.775
46572W        W11557  11.353  11.047   3.149
46573W        W11558  34.163  10.916   0.091
46574W        W11559  19.461  17.781   4.442
46575W        W11560  31.538  34.526   1.274
46576W        W11561  20.277   0.207   1.339
46577W        W11562   8.198  41.489   4.611
46578W        W11563  22.364   0.502   3.819
46579W        W11564   1.988  23.337  13.802
46580W        W11565  37.441  16.556   1.269
46581W        W11566  35.603  37.950   3.074
46582W        W11567  43.171  40.551  14.879
46583W        W11568  12.681  21.558   0.424
46584W        W11569  17.679  43.774   2.232
46585W        W11570  42.736  39.324   4.127
46586W        W11571  18.281  43.986  14.451
46587W        W11572   8.908  40.914  11.068
46588W        W11573  36.968   0.089  14.059
46589W        W11574  24.511  13.548   0.189
46590W        W11575   4.660   0.425   4.727
46591W        W11576  20.982  39.863   0.926
46592W        W11577  33.965  12.561  13.876
46593W        W11578  13.574  44.920  12.089
46594W        W11579   1.260  18.833  12.069
46595W        W11580  12.066  24.126   3.779
46596W        W11581  38.002  14.558   4.967
46597W        W11582  31.440  16.695   3.034
46598W        W11583  18.602   9.811   2.312
46599W        W11584   6.857  13.955  13.900
46600W        W11585  34.104  35.816  10.675
46601W        W11586   6.428  14.354  14.325
46602W        W11587  13.701  30.476   1.624
46603W        W11588  41.824  30.962  13.553
46604W        W11589  13.272   2.415   2.864
46605W        W11590  20.177  23.631  14.217
46606W        W11591   1.763  44.480  11.702
46607W        W11592  42.075  18.726  12.960
46608W        W11593  13.603   8.304   9.668
46609W        W11594  37.469   9.477   5.258
46610W        W11595  30.517  32.890   0.432
46611W        W11596   6.327   7.374  13.901
46612W        W11597  29.187  27.794   0.085
46613W        W11598  38.019   6.954  13.835
46614W        W11599  17.107  31.576  14.031
46615W        W11600  42.287  42.433   1.164
46616W        W11601   2.985   8.624  10.971
46617W        W11602  37.228  25.594  10.722
46618W        W11603  36.290   5.392  10.757
46619W        W11604  41.481  43.322  13.952
46620W        W11605  37.278  37.313  12.563
46621W        W11606  42.785  33.595  14.783
46622W        W11607  34.112  18.234  12.418
46623W        W11608   6.113  38.038  10.696
46624W        W11609   0.787   9.323   0.300
46625W        W11610  29.956  27.221  12.106
46626W        W11611  21.963  20.721  11.119
46627W        W11612   9.640  35.600  14.449
46628W        W11613  44.474  37.493   2.233
46629W        W11614  17.245  40.525  12.374
46630W        W11615  13.395  31.981  10.187
46631W        W11616  39.941  14.129  14.895
46632W        W11617  42.812  33.898  11.187
46633W        W11618  30.529   0.588  14.438
46634W        W11619  24.121  13.749  11.660
46635W        W11620  18.781  37.334   0.394
46636W        W11621   9.271  25.550   2.363
46637W        W11622  33.541  17.901   2.746
46638W        W11623  39.348  40.002   0.422
46639W        W11624   3.325  25.219   2.256
46640W        W11625  34.144  38.617   0.790
46641W        W11626   9.781  39.389   0.365
46642W        W11627  13.536  41.292  10.122
46643W        W11628  21.066  43.797  10.892
46644W        W11629  21.402   9.812  13.316
46645W        W11630  35.337  42.323  11.625
46646W        W11631  22.700  23.272   3.045
46647W        W11632  24.163   2.285   3.289
46648W        W11633  22.644   1.419  13.408
46649W        W11634  39.897   5.997   3.814
46650W        W11635  19.529  25.570   3.781
46651W        W11636  19.028  24.314  10.099
46652W        W11637   1.816   1.695   0.248
46653W        W11638  17.398  11.880  13.609
46654W        W11639  36.326  35.148   3.393
46655W        W11640  10.275  35.608   1.251
46656W        W11641  41.039  10.776   2.279
46657W        W11642  23.510  23.981   0.977
46658W        W11643  22.171  23.401   2.313
46659W        W11644  37.376  37.951  13.141
46660W        W11645  19.546  33.373   4.686
46661W        W11646  10.654   1.408   0.047
46662W        W11647  35.939  30.111   1.195
46663W        W11648  27.484  43.505  12.617
46664W        W11649  16.132  27.096  12.008
46665W        W11650   5.951  14.429   1.791
46666W        W11651  14.007  42.706  13.956
46667W        W11652  38.512   9.493  13.378
46668W        W11653  39.664   8.669  12.110
46669W        W11654   3.988  30.866   1.760
46670W        W11655   3.225  30.945  14.854
46671W        W11656  18.269   3.341   2.126
46672W        W11657  29.973  42.662  11.541
46673W        W11658  25.877  39.565   0.837
46674W        W11659   2.268  16.072   3.039
46675W        W11660  11.252   4.400  10.321
46676W        W11661  34.128  31.149  11.219
46677W        W11662   3.734  43.102  14.985
46678W        W11663  23.563   4.328   3.873
46679W        W11664  29.531  16.314  11.690
46680W        W11665  36.506   3.858  14.800
46681W        W11666   4.654  18.899  14.338
46682W        W11667  18.140   8.377  12.005
46683W        W11668  29.593  25.464   3.308
46684W        W11669  37.875   9.598   0.747
46685W        W11670  19.229   7.450   3.802
46686W        W11671  44.997  23.034   0.866
46687W        W11672  14.541  24.690  11.662
46688W        W11673   6.531  44.017   4.872
46689W        W11674  10.103   5.236  14.746
46690W        W11675  16.892  26.517  10.671
46691W        W11676   1.917  36.452  12.122
46692W        W11677  23.496  39.006  11.430
46693W        W11678   4.682  22.651   2.720
46694W        W11679  21.122  29.895   4.683
46695W        W11680  43.830  22.471  12.239
46696W        W11681   1.393   3.486  12.893
46697W        W11682  40.404  40.318   2.594
46698W        W11683  28.128  31.524  11.445
46699W        W11684  28.687  12.050   3.620
46700W        W11685   0.755  39.324   0.914
46701W        W11686  30.387  37.421  14.081
46702W        W11687  36.331  10.247   3.604
46703W        W11688   1.006  31.143  10.708
46704W        W11689  16.829  30.234   4.623
46705W        W11690  41.841  41.132   3.673
46706W        W11691   1.243  44.040   0.238
46707W        W11692  11.888   6.376  12.738
46708W        W11693  25.224   1.491   1.489
46709W        W11694   8.570  34.424  12.380
46710W        W11695  27.709  29.705  10.851
46711W        W11696  28.065  20.749   1.912
46712W        W11697  15.287  16.773   4.527
46713W        W11698  21.618  14.390   2.818
46714W        W11699  22.957  15.119   3.069
46715W        W11700  44.376   0.775   0.238
46716W        W11701   8.304  36.813   1.717
46717W        W11702  18.777  15.325   3.859
46718W        W11703  30.306  30.189   5.709
46719W        W11704  34.940   2.561   3.227
46720W        W11705  33.910  26.984  14.182
46721W        W11706  19.240  40.363   2.189
46722W        W11707  40.276   1.827   1.354
46723W        W11708  29.653  11.101  14.395
46724W        W11709  28.564  39.939   2.792
46725W        W11710  34.468  36.566  14.895
46726W        W11711  16.549   0.902   4.442
46727W        W11712  37.537  37.579   3.775
46728W        W11713  27.110  12.923  12.589
46729W        W11714  27.106   5.205   1.862
46730W        W11715  42.855   6.606   2.775
46731W        W11716  29.615  31.832   1.523
46732W        W11717   3.955   1.957   3.662
46733W        W11718  38.778  42.269   3.926
46734W        W11719  11.172  31.081   4.271
46735W        W11720  17.052  29.045  12.975
46736W        W11721   7.921  26.975  11.593
46737W        W11722  15.394  36.347   4.032
46738W        W11723  11.697   0.748  14.922
46739W        W11724  35.515  12.334  12.791
46740W        W11725  27.928  24.891   4.906
46741W        W11726  20.842  32.157   2.800
46742W        W11727   8.829  44.149   0.346
46743W        W11728  40.866  37.497   3.047
46744W        W11729   9.609   5.173   3.036
46745W        W11730  44.446  16.539   4.090
46746W        W11731  12.676  35.512  10.469
46747W        W11732  18.716  12.564   1.260
46748W        W11733  34.420  37.204  13.596
46749W        W11734  34.576   1.100  12.109
46750W        W11735   0.503  14.342  10.433
46751W        W11736  17.598  22.542   3.536
46752W        W11737  27.176  39.760   3.648
46753W        W11738  22.271  23.012   0.397
46754W        W11739   8.142  21.717   3.259
46755W        W11740   4.717   1.186   2.642
46756W        W11741  23.777  32.066  11.118
46757W        W11742  39.496  36.658   4.643
46758W        W11743   2.023  11.807  11.164
46759W        W11744  32.934   6.818   4.668
46760W        W11745  44.301  22.403  10.136
46761W        W11746  19.204  11.377   4.100
46762W        W11747   5.445  15.747   0.882
46763W        W11748  41.833   0.855  14.167
46764W        W11749   4.382  44.967  14.228
46765W        W11750   9.730   3.701   2.215
46766W        W11751   2.653  26.169  12.943
46767W        W11752  16.106  27.197   3.181
46768W        W11753  19.730  15.960   0.866
46769W        W11754  13.205  17.047   4.054
46770W        W11755  31.864  34.678   4.142
46771W        W11756   6.865  36.402   4.809
46772W        W11757  14.170  44.953   2.734
46773W        W11758  40.235  23.502   4.600
46774W        W11759  39.122  11.381   1.716
46775W        W11760   2.923   9.941  13.493
46776W        W11761   7.546   5.233   4.059
46777W        W11762  32.377  34.558  12.099
46778W        W11763  28.198  24.535   4.054
46779W        W11764   7.058  44.747   2.162
46780W        W11765   3.284  11.236   4.105
46781W        W11766  11.165  11.210  12.053
46782W        W11767  35.224  29.485   0.971
46783W        W11768  15.794  43.388   1.545
46784W        W11769  33.387  13.712   3.427
46785W        W11770  10.794  11.117  11.175
46786W        W11771   3.191  15.322  11.527
46787W        W11772  39.831  15.169  14.767
46788W        W11773  42.031   6.382   3.869
46789W        W11774  40.387  21.588   4.565
46790W        W11775  36.324  33.457   0.964
46791W        W11776  43.394  16.783  12.603
46792W        W11777  40.941  30.698  10.684
46793W        W11778   9.411   1.783  11.849
46794W        W11779  24.566  44.577  14.366
46795W        W11780  29.493  14.066   4.594
46796W        W11781  35.217   2.293   4.939
46797W        W11782  43.799  20.650  12.793
46798W        W11783   4.762   8.224   2.100
46799W        W11784   4.822  19.031  11.071
46800W        W11785  10.221   2.226   4.573
46801W        W11786  18.914  26.859   9.998
46802W        W11787  29.092   8.363   0.576
46803W        W11788  10.879  30.653   1.503
46804W        W11789  15.383  15.432   4.185
46805W        W11790  44.590  39.055  10.107
46806W        W11791   6.620  15.810  12.696
46807W        W11792   5.694  16.659   1.358
46808W        W11793  33.567   7.179   0.209
46809W        W11794   8.061  33.826  14.837
46810W        W11795  38.939  18.517  13.438
46811W        W11796  37.342  36.851  10.676
46812W        W11797  14.285   1.911  14.252
46813W        W11798  35.340  18.160   1.717
46814W        W11799  17.125  42.737  12.994
46815W        W11800   1.743   3.749   4.440
46816W        W11801  37.907  41.211   0.357
46817W        W11802  21.674  37.936   1.204
46818W        W11803   6.952  25.780  10.640
46819W        W11804  29.038  39.930  10.793
46820W        W11805   5.593  15.610   2.492
46821W        W11806  40.315  32.321   3.669
46822W        W11807  35.356  11.171   2.284
46823W        W11808  22.365  24.586  14.657
46824W        W11809  35.380  14.080  12.827
46825W        W11810   2.155  35.034   4.992
46826W        W11811  13.053  13.564  11.445
46827W        W11812  35.555   8.318   0.560
46828W        W11813  28.870  15.221   4.482
46829W        W11814  12.755  32.333  10.751
46830W        W11815  27.441   8.635  14.710
46831W        W11816  15.824  32.093   2.756
46832W        W11817  32.558   8.409  11.594
46833W        W11818  24.028  10.715   2.634
46834W        W11819   6.137  33.557  14.897
46835W        W11820  10.957  40.980   1.259
46836W        W11821  35.258  42.676   0.877
46837W        W11822  23.199  35.589  12.748
46838W        W11823  24.506  42.255  14.947
46839W        W11824  31.087   2.650   2.399
46840W        W11825  25.490  27.580   0.372
46841W        W11826  15.328  34.960   4.604
46842W        W11827  27.947   1.747  12.450
46843W        W11828  18.301  16.091  14.990
46844W        W11829  37.383  38.305  12.743
46845W        W11830  32.707  25.894   0.499
46846W        W11831  16.121  17.614  13.958
46847W        W11832  28.571   4.729  11.476
46848W        W11833   8.783  42.103   1.766
46849W        W11834  40.987  12.677   2.718
46850W        W11835  37.795   4.282  12.377
46851W        W11836  25.808  43.889   2.117
46852W        W11837  20.850   6.739  12.883
46853W        W11838  20.924   7.040   2.558
46854W        W11839  20.235  29.174  14.694
46855W        W11840  36.411  13.345  14.363
46856W        W11841   2.639  33.986  10.670
46857W        W11842  36.612   4.683  11.823
46858W        W11843  32.106  38.856  11.470
46859W        W11844  17.772  16.294  14.737
46860W        W11845  20.252  13.243  11.089
46861W        W11846  27.755  37.629   4.784
46862W        W11847  43.763  36.912   2.303
46863W        W11848  13.531   4.186   0.260
46864W        W11849  28.263  40.843  10.485
46865W        W11850  16.622   7.107   3.680
46866W        W11851   7.264  16.578  11.931
46867W        W11852  43.510  43.887   2.202
46868W        W11853   7.392  16.166   3.848
46869W        W11854  34.371   7.962  13.949
46870W        W11855   0.985  10.961  11.063
46871W        W11856  23.381   9.088  12.408
46872W        W11857  33.804  17.619   4.187
46873W        W11858  23.137  23.686   3.209
46874W        W11859  11.797  33.578  14.996
46875W        W11860   5.883  30.221   3.408
46876W        W11861   1.257   8.371   3.289
46877W        W11862  43.274  29.645   3.272
46878W        W11863  32.181   6.988   0.947
46879W        W11864  41.698  13.271  11.143
46880W        W11865  28.574  19.801  13.300
46881W        W11866  29.980  38.359  12.963
46882W        W11867  40.208  37.348  11.038
46883W        W11868  26.658  19.063   3.660
46884W        W11869  41.277  24.505  13.988
46885W        W11870  36.106  24.955   4.683
46886W        W11871  10.141  22.303  11.457
46887W        W11872   8.834  42.429   1.365
46888W        W11873  42.059   7.009  14.790
46889W        W11874  37.814  37.007  13.000
46890W        W11875  42.324  35.932  10.242
46891W        W11876  39.004   6.591  12.433
46892W        W11877  41.277   7.280   1.658
46893W        W11878  12.980  19.380   3.759
46894W        W11879   2.330  18.609   3.933
46895W        W11880  26.516  44.076  11.149
46896W        W11881  40.006  13.274   2.578
46897W        W11882  31.924  26.518   5.060
46898W        W11883  40.143  27.480   4.138
46899W        W11884  38.409  35.197  12.294
46900W        W11885  17.517  34.632   0.600
46901W        W11886  41.928   4.890  13.901
46902W        W11887  24.129  12.160   4.650
46903W        W11888  22.678   1.275  13.898
46904W        W11889  22.761  28.468  12.928
46905W        W11890  21.758  11.018   2.361
46906W        W11891  38.373  37.641  14.306
46907W        W11892  40.080  32.976  13.984
46908W        W11893  32.772  28.930   0.400
46909W        W11894  21.720  22.210   3.575
46910W        W11895  39.803   6.585  14.376
46911W        W11896  22.692  12.664   3.603
46912W        W11897  19.302  12.725   3.841
46913W        W11898  34.400  34.505  10.741
46914W        W11899  40.375  19.577   2.430
46915W        W11900  40.568   8.095  10.642
46916W        W11901   1.779  33.985   1.232
46917W        W11902  18.277  44.588  11.598
46918W        W11903  32.071  10.794   5.960
46919W        W11904   3.396  16.567  11.197
46920W        W11905  38.056  34.947   5.094
46921W        W11906  40.966  21.803  13.872
46922W        W11907  39.612  10.794  13.220
46923W        W11908  35.602  33.445  11.836
46924W        W11909  15.083   3.182  13.073
46925W        W11910  20.773   9.189   2.849
46926W        W11911  40.056  43.873   4.563
46927W        W11912   0.951   7.463   0.342
46928W        W11913  22.990  24.460  11.480
46929W        W11914  35.474   5.245   0.751
46930W        W11915  42.413  36.877  14.545
46931W        W11916  31.467  21.043  13.827
46932W        W11917  15.206  10.381   2.750
46933W        W11918  19.572  27.024  13.084
46934W        W11919  20.359  10.313  11.081
46935W        W11920  16.159  19.129   0.907
46936W        W11921  32.013   6.865   1.841
46937W        W11922  31.613  13.521  13.372
46938W        W11923  20.107  42.560  12.965
46939W        W11924   4.900  39.020  13.017
46940W        W11925   5.495  14.652  14.204
46941W        W11926  10.398  12.657  12.804
46942W        W11927   7.193  14.774  12.113
46943W        W11928  24.182   4.862   2.640
46944W        W11929  43.547   5.879   3.122
46945W        W11930   2.377  23.468  12.516
46946W        W11931  31.010  43.362  14.444
46947W        W11932  29.838   9.962   3.300
46948W        W11933   4.232  27.436  11.690
46949W        W11934   7.176  26.540  10.211
46950W        W11935  27.140  42.213  12.957
46951W        W11936   5.210  31.035  12.159
46952W        W11937  37.462  13.709  14.701
46953W        W11938  22.979  10.772   1.691
46954W        W11939  44.101  33.004  12.451
46955W        W11940  10.925  29.870  11.848
46956W        W11941   0.812  28.333  13.859
46957W        W11942  44.306  23.572  12.082
46958W        W11943   7.511   1.697  11.890
46959W        W11944  24.066   4.770   4.038
46960W        W11945   1.012  11.296  13.967
46961W        W11946  29.767   0.787   4.146
46962W        W11947  17.465   2.767   4.238
46963W        W11948  15.902  34.616  13.532
46964W        W11949  14.093  14.963   4.154
46965W        W11950  12.822  36.412   3.664
46966W        W11951  27.049  36.967   4.440
46967W        W11952  25.021  21.627   3.590
46968W        W11953  10.838  21.221  13.380
46969W        W11954  33.624  38.060  11.121
46970W        W11955   8.230   3.928   2.306
46971W        W11956  23.204  12.313   0.014
46972W        W11957   8.230   0.357   0.049
46973W        W11958  43.498  25.663  14.375
46974W        W11959  33.379  20.767   0.868
46975W        W11960  21.240  39.400   0.641
46976W        W11961  27.168  28.007   3.645
46977W        W11962  35.724  13.458  13.914
46978W        W11963  25.672   2.351  12.440
46979W        W11964  42.926  12.949   2.360
46980W        W11965  16.693   1.410   2.361
46981W        W11966  15.875  25.613   4.091
46982W        W11967  30.022  34.238   4.354
46983W        W11968  12.595  25.522   4.367
46984W        W11969  44.973  44.958   2.111
46985W        W11970   4.331  25.743   1.704
46986W        W11971  44.952  28.401  11.754
46987W        W11972   3.193  38.388  14.006
46988W        W11973  29.539  20.691   2.188
46989W        W11974  10.129  30.948  11.484
46990W        W11975  26.676  25.572  13.728
46991W        W11976  42.468  30.050  14.824
46992W        W11977  41.692  23.722  11.707
46993W        W11978  20.462  28.038   1.825
46994W        W11979  39.439   6.379  14.693
46995W        W11980  25.627  22.819   4.167
46996W        W11981  35.928  19.141   3.421
46997W        W11982  20.697  37.993  10.528
46998W        W11983  27.615  17.600  11.368
46999W        W11984  11.344  14.524   2.044
47000W        W11985  30.905  22.124   3.281
47001W        W11986   2.235  28.369  13.604
47002W        W11987  42.398  38.265   3.794
47003W        W11988  21.607   1.461   3.813
47004W        W11989  26.482   2.325  12.901
47005W        W11990  18.553   0.884  11.670
47006W        W11991  28.580  38.761   2.188
47007W        W11992  27.950  42.473   4.066
47008W        W11993  37.266  20.953   2.129
47009W        W11994  15.320   0.956   1.899
47010W        W11995  23.649  14.394  14.473
47011W        W11996  33.798   2.456   3.714
47012W        W11997  13.836   8.321  12.954
47013W        W11998  22.494   1.844  10.861
47014W        W11999  11.221   8.370  14.273
47015W        W12000  23.916  10.262   2.405
47016W        W12001  15.702  17.176  11.760
47017W        W12002  25.990  34.461  12.729
47018W        W12003  43.378  37.455   4.203
47019W        W12004  23.992  16.149   1.396
47020W        W12005  15.263  17.509   3.513
47021W        W12006  32.174  19.478   1.932
47022W        W12007   0.541  36.786   2.765
47023W        W12008   3.771  41.816   0.641
47024W        W12009  27.227  20.963   3.262
47025W        W12010  28.295  24.782   2.410
47026W        W12011  33.580  25.095   1.883
47027W        W12012   1.282  30.928  13.085
47028W        W12013   2.975  13.111  11.162
47029W        W12014  40.880   5.720  13.934
47030W        W12015  22.484  42.825  12.398
47031W        W12016   5.261  37.278   2.314
47032W        W12017  27.919  10.780   4.323
47033W        W12018  32.991  16.081   2.157
47034W        W12019  18.727  31.410  12.851
47035W        W12020  32.334   9.232  12.727
47036W        W12021  12.301  17.028   0.737
47037W        W12022  26.388  26.567  13.428
47038W        W12023   9.093  13.834   4.364
47039W        W12024  35.133   3.200  11.541
47040W        W12025   6.192   3.990  12.441
47041W        W12026  32.127  44.556  11.883
47042W        W12027   1.066   4.610  11.097
47043W        W12028  27.534  23.883   2.955
47044W        W12029   6.317  40.973  14.315
47045W        W12030  32.894  14.533   3.191
47046W        W12031  44.958  11.222   3.080
47047W        W12032  13.241  36.790  14.892
47048W        W12033  28.690  43.967   2.672
47049W        W12034  30.615  33.284   4.781
47050W        W12035  17.071  35.587   2.275
47051W        W12036  40.109   1.498  13.880
47052W        W12037  12.897   8.221   1.433
47053W        W12038  21.613  36.375   3.091
47054W        W12039   6.699  27.400  14.078
47055W        W12040  43.368  32.242  13.912
47056W        W12041  41.004  20.487  11.179
47057W        W12042  10.917   9.744   4.292
47058W        W12043  31.009  16.332   1.412
47059W        W12044  44.029  10.878  13.018
47060W        W12045  39.965  14.464   1.207
47061W        W12046   9.900  12.666   2.216
47062W        W12047   7.138   2.365   4.280
47063W        W12048  13.398  28.250  12.940
47064W        W12049  29.453  35.880   1.191
47065W        W12050   3.975  26.017   1.996
47066W        W12051  40.264   6.923  12.874
47067W        W12052  13.581   0.826  10.503
47068W        W12053  26.289  21.186  10.712
47069W        W12054   1.717   1.448   2.791
47070W        W12055  14.081  12.820  12.945
47071W        W12056  17.211  28.719  14.082
47072W        W12057  37.807   7.383  14.808
47073W        W12058  39.284  22.127   4.613
47074W        W12059  30.725  36.578   1.801
47075W        W12060   4.327   0.487  12.865
47076W        W12061  43.811  41.342  11.964
47077W        W12062  33.901  12.215   2.420
47078W        W12063   6.815   1.844   0.768
47079W        W12064  34.361  25.917  14.776
47080W        W12065   8.919  32.547  14.191
47081W        W12066   9.423  32.932  14.203
47082W        W12067  42.806  29.919   3.216
47083W        W12068  23.508   1.060   3.605
47084W        W12069   8.318  25.261   3.397
47085W        W12070  27.853  44.290   4.183
47086W        W12071  44.013  13.552  14.352
47087W        W12072  27.748   7.694  14.931
47088W        W12073  23.571  38.169   2.609
47089W        W12074  10.592  18.006   1.305
47090W        W12075  44.909   6.461   3.692
47091W        W12076  22.045  29.597   2.431
47092W        W12077  38.416  44.975  12.577
47093W        W12078  30.075   7.878   2.873
47094W        W12079  28.035   3.913  12.055
47095W        W12080  33.527  22.702   3.124
47096W        W12081  24.156  18.616   0.336
47097W        W12082   8.458  40.692   0.949
47098W        W12083  40.493  31.192   4.083
47099W        W12084  40.891   3.287   2.616
47100W        W12085  10.588  16.203   2.079
47101W        W12086  31.569  24.319  12.360
47102W        W12087   0.724   4.408   3.231
47103W        W12088  28.509  29.657   0.963
47104W        W12089  18.594  26.997   3.188
47105W        W12090  40.108  37.307   0.691
47106W        W12091  43.696   9.304   4.654
47107W        W12092  43.791  13.560  12.671
47108W        W12093   4.180  24.029  13.397
47109W        W12094  18.622  34.571  14.031
47110W        W12095  30.205   8.265   4.765
47111W        W12096   8.608  17.052  12.889
47112W        W12097   8.620  26.697   2.604
47113W        W12098  11.385   0.875  10.776
47114W        W12099  13.215  29.110   0.879
47115W        W12100  23.056   9.364  13.962
47116W        W12101  38.972  31.341   1.662
47117W        W12102   0.616  16.019  10.251
47118W        W12103  38.385  12.174  12.963
47119W        W12104   6.181  44.771   0.847
47120W        W12105  18.286  35.999  12.155
47121W        W12106  34.925  36.973  11.585
47122W        W12107  35.133  32.075   1.782
47123W        W12108   0.043  35.573  12.873
47124W        W12109  10.135  30.450   2.793
47125W        W12110  18.241  35.509  12.427
47126W        W12111  16.106   4.928   1.349
47127W        W12112  29.533   5.420  10.124
47128W        W12113  12.846  26.524  10.185
47129W        W12114  37.473  22.008  11.530
47130W        W12115  30.183  28.621   4.410
47131W        W12116  20.647  37.544  11.612
47132W        W12117  22.458   5.359  14.512
47133W        W12118  26.549  10.551   3.144
47134W        W12119  24.260  31.911  14.212
47135W        W12120  12.662  35.480  11.052
47136W        W12121  39.149  20.196   3.458
47137W        W12122  37.974  36.008  12.316
47138W        W12123  28.654  33.940   1.356
47139W        W12124  42.196  39.097   5.027
47140W        W12125   5.869  21.567   1.335
47141W        W12126  15.623  43.465  14.054
47142W        W12127   7.909  44.211   2.747
47143W        W12128  16.991  30.230  10.548
47144W        W12129  13.283  43.032  12.569
47145W        W12130  17.369  19.500   5.086
47146W        W12131  33.868  27.618   4.614
47147W        W12132  40.770   8.622   0.366
47148W        W12133  12.674  40.402   3.169
47149W        W12134  44.122  13.235   4.236
47150W        W12135   7.155   0.146   3.581
47151W        W12136  37.970   4.627   1.930
47152W        W12137  11.768  41.809  10.999
47153W        W12138  42.911  12.169  11.304
47154W        W12139  35.008   2.540  12.036
47155W        W12140   1.952  40.711   2.283
47156W        W12141   2.926  40.730  12.652
47157W        W12142  44.885  37.859  14.795
47158W        W12143   5.001  28.644   0.276
47159W        W12144  40.485  19.577   1.902
47160W        W12145  20.141  35.670   0.458
47161W        W12146  35.665  29.596   0.702
47162W        W12147  15.624  20.317  11.079
47163W        W12148  28.783  33.100   4.086
47164W        W12149  10.709  34.305   1.214
47165W        W12150  23.143  38.408   2.802
47166W        W12151  12.801  31.245   0.043
47167W        W12152  33.476  31.117   1.345
47168W        W12153  30.450  36.600  13.175
47169W        W12154  32.332  14.623   3.036
47170W        W12155  19.558  11.661   1.571
47171W        W12156  33.373   7.282   2.708
47172W        W12157   8.357  25.474   2.932
47173W        W12158  15.538  37.940  13.406
47174W        W12159   4.995   9.172   2.743
47175W        W12160  16.081   4.039  12.002
47176W        W12161  40.777   7.116  14.919
47177W        W12162  33.638  29.669  14.264
47178W        W12163  38.405  24.321   2.382
47179W        W12164  19.657  37.521  11.746
47180W        W12165  27.754  16.806  14.459
47181W        W12166  18.729  12.676  12.109
47182W        W12167  11.240  13.799  14.823
47183W        W12168   1.224  13.736  10.645
47184W        W12169  26.160  42.934  12.585
47185W        W12170   5.926  28.595   0.045
47186W        W12171  33.277  25.433  13.780
47187W        W12172  19.509  22.032   2.243
47188W        W12173  34.089  29.478  11.630
47189W        W12174  10.199  36.865  13.877
47190W        W12175  26.363  42.263   4.008
47191W        W12176  26.276  28.678  10.669
47192W        W12177   9.532  31.432  12.105
47193W        W12178  43.318  21.467  11.737
47194W        W12179  20.707  24.719  10.602
47195W        W12180   3.294  42.749  12.624
47196W        W12181  43.400  40.775   1.580
47197W        W12182   1.340  17.792  12.041
47198W        W12183  19.350  30.151  13.538
47199W        W12184  22.944  26.044  11.948
47200W        W12185  19.201  18.345  11.655
47201W        W12186  21.282   0.403  14.409
47202W        W12187   8.773  40.154   2.988
47203W        W12188  29.385  27.508  10.593
47204W        W12189  36.657  18.664   3.812
47205W        W12190  20.196   9.095  12.141
47206W        W12191  14.697   9.816  12.572
47207W        W12192  42.456  15.110  12.971
47208W        W12193  37.110  18.265   3.852
47209W        W12194  27.966  44.041  12.018
47210W        W12195  18.720  31.185  14.329
47211W        W12196  15.544  18.947  11.600
47212W        W12197  13.370  23.684  12.523
47213W        W12198  14.037  32.819   1.610
47214W        W12199  39.802  24.123   2.698
47215W        W12200  26.357  10.344  11.034
47216W        W12201  21.279  34.384  11.878
47217W        W12202  12.710  28.508  11.569
47218W        W12203  37.627   8.309   0.243
47219W        W12204  44.704  12.758   3.154
47220W        W12205   1.455  12.947   2.796
47221W        W12206   8.846  34.509   2.164
47222W        W12207  18.603  27.995   0.527
47223W        W12208   8.915  37.835   3.247
47224W        W12209  26.852   8.811   1.758
47225W        W12210  30.113   6.093  10.482
47226W        W12211  12.218  21.499  11.746
47227W        W12212   1.884  16.197  14.754
47228W        W12213  27.213  35.309  12.106
47229W        W12214  41.539  29.068  10.336
47230W        W12215  29.541  29.490   0.950
47231W        W12216  42.233  23.685  13.058
47232W        W12217  44.404  39.016  14.064
47233W        W12218  31.461   0.453   4.145
47234W        W12219   4.660  17.265   2.839
47235W        W12220  24.658  40.033   0.473
47236W        W12221   5.393  30.438   0.909
47237W        W12222  14.714  43.618   3.516
47238W        W12223  28.350   2.991   4.372
47239W        W12224  22.176  29.529  12.387
47240W        W12225  36.114  44.520   1.852
47241W        W12226  40.356  15.657   2.964
47242W        W12227  27.621  19.847  13.403
47243W        W12228  14.634  29.245   4.030
47244W        W12229  29.369   2.011   5.096
47245W        W12230  29.887  26.622   3.172
47246W        W12231  17.090  12.288   2.452
47247W        W12232  28.974   5.732   1.871
47248W        W12233   9.466  39.007  12.835
47249W        W12234  39.992  18.279   4.198
47250W        W12235  28.244   7.801   0.039
47251W        W12236  35.536   2.492  14.051
47252W        W12237  15.289  33.840  11.850
47253W        W12238  25.785   9.263   3.203
47254W        W12239  30.688  28.083  13.566
47255W        W12240   8.818  18.477   3.332
47256W        W12241   7.860  41.118  13.613
47257W        W12242  43.520  30.047   0.322
47258W        W12243  11.777  37.701   3.633
47259W        W12244  36.746  32.120   3.197
47260W        W12245  17.645  31.272  12.587
47261W        W12246  26.366  17.776   1.580
47262W        W12247   4.197  29.353  14.439
47263W        W12248  23.216   0.353   4.001
47264W        W12249  20.130   6.469   1.396
47265W        W12250  35.445  35.169  11.102
47266W        W12251  10.334  24.241   0.350
47267W        W12252   1.262  31.058  11.227
47268W        W12253  26.192  39.909  13.725
47269W        W12254  27.117  20.241  12.714
47270W        W12255  15.270  23.544   2.823
47271W        W12256  10.445  29.981  11.947
47272W        W12257  43.623  18.835  10.817
47273W        W12258  22.444   2.385   4.728
47274W        W12259  27.101  42.535  10.582
47275W        W12260  35.520   3.676   0.401
47276W        W12261   1.968  12.687   3.671
47277W        W12262  10.268  40.550  13.018
47278W        W12263   4.639   7.191  14.465
47279W        W12264   2.207  19.226  12.575
47280W        W12265  38.066   2.866  13.984
47281W        W12266   9.366  36.592  11.587
47282W        W12267  35.111  18.310   3.321
47283W        W12268  22.962  15.738   2.686
47284W        W12269   4.938  26.021  12.034
47285W        W12270   1.818   2.782  14.960
47286W        W12271  14.920  23.122  13.966
47287W        W12272  42.305  35.131  12.592
47288W        W12273  44.311  39.928   3.189
47289W        W12274  32.981   7.106  12.936
47290W        W12275  39.817  37.506  14.280
47291W        W12276  39.803  25.184   2.935
47292W        W12277   3.322   1.718   2.825
47293W        W12278  44.767  19.853  12.845
47294W        W12279  25.079  16.813  12.891
47295W        W12280   6.469  23.629  14.900
47296W        W12281   2.683   2.119  12.668
47297W        W12282  27.661  19.531  11.252
47298W        W12283  23.694  22.538   0.419
47299W        W12284   1.823  31.882  12.570
47300W        W12285  23.137   6.063   3.687
47301W        W12286   8.808  36.411  14.775
47302W        W12287   8.169  26.572  13.407
47303W        W12288  34.933  34.909  13.385
47304W        W12289  40.582   9.000  14.998
47305W        W12290  32.582  15.751  13.190
47306W        W12291   4.974  23.591   0.939
47307W        W12292   5.158  33.071  14.362
47308W        W12293  38.898  29.140   2.346
47309W        W12294   4.994  32.324  12.849
47310W        W12295  14.574  12.801  14.296
47311W        W12296   0.791  25.160  11.366
47312W        W12297   6.072  29.918   0.137
47313W        W12298  44.345  42.751   2.933
47314W        W12299  25.640  16.731  14.314
47315W        W12300  36.413  27.171  13.585
47316W        W12301  14.685  24.372   2.300
47317W        W12302  22.352  13.264   2.803
47318W        W12303  16.639  19.580  12.356
47319W        W12304   4.442   5.704   0.965
47320W        W12305  39.530  37.464   2.677
47321W        W12306   8.859  19.497   0.380
47322W        W12307   8.615  41.970  12.643
47323W        W12308  43.524  19.609   2.178
47324W        W12309  26.561  32.941   4.997
47325W        W12310  42.520  26.279  13.351
47326W        W12311   6.236  24.395   3.194
47327W        W12312  18.028  34.633   0.458
47328W        W12313  20.771  24.425   1.636
47329W        W12314  12.611  20.902  11.041
47330W        W12315  15.500  11.628  12.496
47331W        W12316  43.533  27.584   0.581
47332W        W12317  12.768  29.521  13.569
47333W        W12318  44.458  14.046  12.995
47334W        W12319  29.219  12.876  14.904
47335W        W12320  23.172  41.477   4.612
47336W        W12321  15.655  14.843   2.178
47337W        W12322  18.845  27.534   0.483
47338W        W12323  24.498   6.113   2.660
47339W        W12324   0.113  34.579  12.957
47340W        W12325   4.209  23.530  10.782
47341W        W12326  29.462   3.194   2.624
47342W        W12327  16.271  21.544  14.171
47343W        W12328  21.624   1.041   1.676
47344W        W12329   3.730   2.965  13.906
47345W        W12330  44.519  28.069  14.458
47346W        W12331  28.147   6.916   4.220
47347W        W12332  15.307   1.862  14.266
47348W        W12333   4.727  32.668  13.796
47349W        W12334  15.479  13.504   5.340
47350W        W12335  43.997  15.799   2.867
47351W        W12336  34.428  29.679   0.648
47352W        W12337   7.538  20.820  14.388
47353W        W12338  32.544  41.096  11.172
47354W        W12339  44.944  43.532  13.309
47355W        W12340  19.570  17.740   2.253
47356W        W12341  20.025   3.283  13.292
47357W        W12342  26.593  28.623   2.834
47358W        W12343  10.715  42.928  14.583
47359W        W12344  19.743  13.811   0.789
47360W        W12345  43.837  36.749  14.036
47361W        W12346  39.566  38.243  14.885
47362W        W12347  28.128   9.466   1.290
47363W        W12348  31.214  17.814  11.642
47364W        W12349  13.711   1.672   0.898
47365W        W12350  44.422  39.521   4.504
47366W        W12351   8.620  21.313   0.936
47367W        W12352  11.039   6.961  10.989
47368W        W12353  31.090  40.815   0.486
47369W        W12354  29.236  39.420  10.616
47370W        W12355  13.963  16.811   4.373
47371W        W12356  28.961  26.051   3.850
47372W        W12357   4.402  23.225   3.809
47373W        W12358   8.584  12.042   3.922
47374W        W12359   7.157  29.992  13.932
47375W        W12360  40.106  42.982  10.417
47376W        W12361  26.817  35.961   5.263
47377W        W12362  40.765  11.699   3.617
47378W        W12363   9.626  33.351  13.324
47379W        W12364   5.290  14.708   3.596
47380W        W12365   5.686  33.040   4.321
47381W        W12366  38.213  39.605   3.227
47382W        W12367  23.439  20.768   4.212
47383W        W12368  36.547  39.817  14.882
47384W        W12369   6.315  43.395  12.029
47385W        W12370  42.481  20.921  11.636
47386W        W12371  15.911  31.311   4.993
47387W        W12372  19.913   6.661   5.064
47388W        W12373  44.846  24.049  10.330
47389W        W12374   7.278  14.338  13.947
47390W        W12375  30.119   6.125   1.596
47391W        W12376   7.077  36.672   0.688
47392W        W12377   7.400  35.381  12.655
47393W        W12378  35.900  40.223  13.971
47394W        W12379  44.029  14.790   4.471
47395W        W12380  26.091  40.865   0.803
47396W        W12381   7.953   6.412   1.956
47397W        W12382  37.827  37.353   3.341
47398W        W12383  37.162  17.070   4.725
47399W        W12384  39.993  16.359  12.058
47400W        W12385  19.166  11.609  13.896
47401W        W12386  43.390  35.958   1.889
47402W        W12387  19.148  37.380   4.201
47403W        W12388  20.344  32.126   2.654
47404W        W12389  38.824   8.842  11.739
47405W        W12390  39.870  12.514  13.373
47406W        W12391  38.937   7.710   0.902
47407W        W12392  16.805  30.453   0.725
47408W        W12393  29.034  15.912   2.938
47409W        W12394  43.415  30.464  13.449
47410W        W12395  19.687  44.452   4.573
47411W        W12396  35.870   8.798  12.243
47412W        W12397  44.463   2.440   3.203
47413W        W12398  12.116  15.124   2.241
47414W        W12399  13.019   8.576   4.100
47415W        W12400   1.546  25.870  12.005
47416W        W12401   0.655   7.742  12.603
47417W        W12402   7.168  20.163   0.878
47418W        W12403  17.806  22.115   3.269
47419W        W12404  19.888  34.950  13.839
47420W        W12405  24.022  41.030   4.749
47421W        W12406   6.130   4.744  14.582
47422W        W12407  23.641   9.773  10.620
47423W        W12408  34.060  26.565  13.902
47424W        W12409  18.190  29.347   4.442
47425W        W12410   0.923  25.629  14.108
47426W        W12411   3.232  21.122  13.891
47427W        W12412   3.105  28.978   0.744
47428W        W12413  43.821  14.094   1.375
47429W        W12414  30.553   1.693   2.228
47430W        W12415   5.401  16.334   4.602
47431W        W12416  27.208  13.372  11.580
47432W        W12417  42.514  44.436   0.557
47433W        W12418   0.834  14.693  11.616
47434W        W12419  42.961   8.924  13.781
47435W        W12420  42.527   1.820  12.200
47436W        W12421  40.318   1.078   3.234
47437W        W12422  24.215  36.578   0.687
47438W        W12423  38.343  37.908   1.450
47439W        W12424  40.780  17.153   2.169
47440W        W12425  27.441  26.901  11.159
47441W        W12426  40.624  43.087   0.015
47442W        W12427  41.496  15.708   0.881
47443W        W12428  13.871   7.015  12.584
47444W        W12429  17.581  26.559  11.350
47445W        W12430  16.953  21.762  12.288
47446W        W12431  39.993  10.838  14.864
47447W        W12432  37.958   9.285  10.557
47448W        W12433  22.101   9.734   2.251
47449W        W12434   1.560   8.770  11.152
47450W        W12435  43.467  12.733   0.452
47451W        W12436  40.587  24.398   2.687
47452W        W12437  13.647   6.541  10.141
47453W        W12438  17.123   9.328  10.887
47454W        W12439  25.960  30.821  14.884
47455W        W12440  20.494  32.550   0.265
47456W        W12441  40.369  20.523   0.258
47457W        W12442  38.595   9.217  12.549
47458W        W12443  16.796   0.278  11.295
47459W        W12444  40.525  28.106  10.932
47460W        W12445   2.270  20.494  12.148
47461W        W12446  44.319  19.233   1.962
47462W        W12447  35.467  12.316  10.180
47463W        W12448  38.316  35.074   4.634
47464W        W12449  23.968  18.578   4.855
47465W        W12450  11.492   1.912   1.768
47466W        W12451  23.275  31.076   4.709
47467W        W12452  36.996  44.496   1.671
47468W        W12453  15.663  15.239  14.172
47469W        W12454  38.981   5.245   4.256
47470W        W12455   2.445  30.386  12.835
47471W        W12456  24.349  31.148   1.386
47472W        W12457  10.232  11.261   0.879
47473W        W12458   2.465  24.092   0.705
47474W        W12459   5.402  33.473   4.080
47475W        W12460  17.558  21.162   3.355
47476W        W12461  26.990  34.619   4.633
47477W        W12462  18.445  15.061   4.904
47478W        W12463  31.704   4.528   4.115
47479W        W12464  13.231  44.311   3.362
47480W        W12465  34.519  33.418  10.579
47481W        W12466  39.451  28.435   3.379
47482W        W12467  23.482  14.757   4.510
47483W        W12468  14.125  32.291   2.902
47484W        W12469  28.968  11.684  11.390
47485W        W12470  28.242  28.488   4.451
47486W        W12471  35.809  44.054   3.145
47487W        W12472  31.468   7.440   0.030
47488W        W12473  26.643   1.449   2.247
47489W        W12474  35.597  41.537  10.876
47490W        W12475  36.662  28.025   4.146
47491W        W12476   5.203  17.989   3.554
47492W        W12477  36.962  22.749   3.781
47493W        W12478  33.954  30.115   1.123
47494W        W12479   4.793   1.884  12.494
47495W        W12480  39.595   6.873   3.666
47496W        W12481   9.340  44.997  13.357
47497W        W12482   5.370   8.796   4.035
47498W        W12483  37.861  20.253   3.706
47499W        W12484  17.609   2.401  12.547
47500W        W12485  26.781   7.935  14.915
47501W        W12486  17.274  35.963   4.482
47502W        W12487  22.762   7.979  11.717
47503W        W12488   6.726  36.641  12.726
47504W        W12489  12.364  22.267   1.788
47505W        W12490   6.227  19.161  11.227
47506W        W12491  43.125   3.449   3.808
47507W        W12492  40.016   7.747   2.252
47508W        W12493  41.370  36.029  13.480
47509W        W12494  14.093  31.517  12.000
47510W        W12495  11.913  27.578   1.833
47511W        W12496   9.236   2.938   3.849
47512W        W12497   7.512  15.204  11.894
47513W        W12498  16.922  32.357  12.103
47514W        W12499  21.705   6.088   1.355
47515W        W12500  28.783  40.768  14.250
47516W        W12501  40.927  30.246  12.213
47517W        W12502  44.393  35.873   4.164
47518W        W12503  12.882  14.619   3.809
47519W        W12504  32.226  19.133  12.963
47520W        W12505  36.643  43.374  13.832
47521W        W12506  23.688   4.730  12.552
47522W        W12507  44.711   6.760  11.654
47523W        W12508  38.839   2.653  14.436
47524W        W12509  13.261   1.291   0.157
47525W        W12510  14.122  20.751   3.966
47526W        W12511  19.728  25.137   1.757
47527W        W12512  15.104   6.469   3.349
47528W        W12513  13.340  18.002   0.768
47529W        W12514  44.506  30.941  13.302
47530W        W12515  12.356   8.759   0.901
47531W        W12516   9.925   5.234  13.893
47532W        W12517  37.911   5.994  10.993
47533W        W12518   0.043  15.933  11.636
47534W        W12519  24.411  29.907   4.239
47535W        W12520  20.771  37.947   4.636
47536W        W12521  25.577  22.510   1.665
47537W        W12522  19.829  11.914  14.013
47538W        W12523  40.250  36.262   1.747
47539W        W12524   6.762  18.538   4.870
47540W        W12525  31.043  40.891   2.847
47541W        W12526  29.843  27.396   3.778
47542W        W12527  24.139  37.487   3.743
47543W        W12528  32.328  31.593   3.689
47544W        W12529  43.774  10.762   4.201
47545W        W12530  10.690   6.807   3.178
47546W        W12531   5.605  11.542  11.426
47547W        W12532  29.182   1.367  11.404
47548W        W12533  10.009  23.663   0.895
47549W        W12534  44.985  25.870   3.148
47550W        W12535   7.984  24.782  12.124
47551W        W12536  13.705  40.809  12.843
47552W        W12537  31.092  43.652   4.655
47553W        W12538  22.242  22.026  13.313
47554W        W12539  13.011  29.114   3.352
47555W        W12540  39.271  42.136  14.875
47556W        W12541  40.697  10.194   0.876
47557W        W12542  20.423  27.569   2.011
47558W        W12543   9.593  17.101   0.262
47559W        W12544  29.411  16.089   1.902
47560W        W12545  36.880   6.649   2.444
47561W        W12546  26.445  34.441   1.274
47562W        W12547  29.107  28.465  14.397
47563W        W12548  14.616  18.670   4.085
47564W        W12549  38.196  22.229   4.659
47565W        W12550   6.383   3.775   1.047
47566W        W12551  42.322   4.819   1.891
47567W        W12552   3.850   1.750  14.530
47568W        W12553   0.222   7.289   0.781
47569W        W12554  28.975  39.253  12.688
47570W        W12555  22.789   0.293  11.437
47571W        W12556  22.179  21.439   2.607
47572W        W12557  25.085  23.580  12.068
47573W        W12558   6.116  39.852  13.333
47574W        W12559  27.755  12.140   3.773
47575W        W12560  13.491  25.139  11.088
47576W        W12561   2.777  43.281  11.561
47577W        W12562   4.918  11.416   0.018
47578W        W12563  32.489  22.534  11.978
47579W        W12564  24.036   7.357  13.430
47580W        W12565  21.714   9.281   0.330
47581W        W12566  43.973  26.444   0.981
47582W        W12567  34.560  12.575   0.295
47583W        W12568  15.743  17.764  12.630
47584W        W12569   4.523  32.470   3.454
47585W        W12570  41.989  41.062   1.133
47586W        W12571  21.511  33.074   3.084
47587W        W12572  33.456  12.237   5.019
47588W        W12573  17.065  37.506  12.522
47589W        W12574  37.895  20.899  13.530
47590W        W12575  12.863  37.950   0.924
47591W        W12576  33.322  15.606   3.682
47592W        W12577  24.964   7.744   1.296
47593W        W12578  41.452  34.677  13.446
47594W        W12579  33.776  30.476   0.805
47595W        W12580   2.974  33.012   1.221
47596W        W12581  33.085   5.185  11.645
47597W        W12582  41.935  40.030   4.651
47598W        W12583  35.998   6.995  13.842
47599W        W12584   6.466  12.713  13.038
47600W        W12585  43.251   8.796   1.866
47601W        W12586  16.592  24.881   5.292
47602W        W12587   3.442  43.395   1.269
47603W        W12588  21.995  25.399  10.616
47604W        W12589  18.239  37.071  13.971
47605W        W12590  37.488  26.858   2.894
47606W        W12591   3.197  32.211   0.693
47607W        W12592  33.518  23.748   4.532
47608W        W12593  39.797  28.608  14.804
47609W        W12594  28.660  15.307  11.255
47610W        W12595  15.213  26.612  12.926
47611W        W12596  31.031  32.863   0.302
47612W        W12597  26.689  17.194   4.326
47613W        W12598  28.979  34.859   1.334
47614W        W12599   4.679   4.705  11.670
47615W        W12600  34.378  36.086   0.080
47616W        W12601  19.209  17.193  13.358
47617W        W12602  21.257  28.626  11.202
47618W        W12603  16.291  11.148   2.335
47619W        W12604  14.707  22.949  11.178
47620W        W12605  22.433  36.912  12.477
47621W        W12606  29.831  41.435   0.193
47622W        W12607   4.210   4.286  13.365
47623W        W12608  30.087  33.116  13.482
47624W        W12609  36.077  40.136   0.436
47625W        W12610  15.918  20.049  14.572
47626W        W12611  17.178  15.834  14.579
47627W        W12612  12.438  23.199   3.732
47628W        W12613  42.479   0.959  11.617
47629W        W12614  12.648  35.285   1.325
47630W        W12615   3.311  31.554   4.898
47631W        W12616  30.946  39.373   4.145
47632W        W12617  10.871  39.688  11.375
47633W        W12618   8.107   6.155   0.948
47634W        W12619  30.845  11.148  10.266
47635W        W12620   4.302  43.410   0.730
47636W        W12621  43.764  25.195  14.385
47637W        W12622  38.065  17.286  14.445
47638W        W12623  17.260   8.239  13.973
47639W        W12624  15.361  30.960  12.408
47640W        W12625  41.579  43.210   3.657
47641W        W12626  38.914  16.114  10.656
47642W        W12627  10.160   8.796  12.157
47643W        W12628  31.284  41.320   0.443
47644W        W12629  22.688  33.050  12.529
47645W        W12630  21.043  12.628  14.325
47646W        W12631  43.423  21.068  11.422
47647W        W12632  21.570  30.086   3.907
47648W        W12633  24.605  15.057   0.567
47649W        W12634  37.301  15.730   3.664
47650W        W12635  35.815  27.042   4.409
47651W        W12636  39.807  40.311  14.304
47652W        W12637  13.443  15.144  11.724
47653W        W12638  26.077  44.786   2.242
47654W        W12639  23.494  11.272   3.108
47655W        W12640   3.193   7.693  11.641
47656W        W12641  43.929  32.734   3.953
47657W        W12642  25.296  28.976   4.550
47658W        W12643  17.587   1.003   1.709
47659W        W12644  35.852  17.360  11.074
47660W        W12645  35.061  16.558  11.903
47661W        W12646   1.221  29.512  11.784
47662W        W12647   4.252  28.935   0.860
47663W        W12648  39.287  10.744  11.773
47664W        W12649  29.525  28.676   3.215
47665W        W12650  43.317  39.757  13.213
47666W        W12651  37.068   5.798   2.287
47667W        W12652  10.627   6.205   1.327
47668W        W12653  27.235  39.973   2.743
47669W        W12654   7.949  14.993  12.051
47670W        W12655  13.369  20.107   0.200
47671W        W12656  38.618  26.535   2.298
47672W        W12657  25.289  15.088   2.286
47673W        W12658  18.733   6.231  13.424
47674W        W12659  34.830  11.821   4.285
47675W        W12660  41.897  43.913   3.915
47676W        W12661   7.932  26.129   3.711
47677W        W12662  32.423   9.779   2.228
47678W        W12663  22.859  18.782  12.592
47679W        W12664   9.810  14.280   2.664
47680W        W12665   5.639  15.092  14.482
47681W        W12666   2.326  32.583  13.014
47682W        W12667  30.921   2.073   5.062
47683W        W12668  10.800  41.603   3.128
47684W        W12669  30.625   8.061  12.134
47685W        W12670  14.931   0.359  14.309
47686W        W12671  38.464  25.137   0.867
47687W        W12672  26.275  40.054  10.824
47688W        W12673   5.149   7.287   3.186
47689W        W12674  41.849  21.141  14.355
47690W        W12675  15.344   2.261  13.558
47691W        W12676  11.858  13.898   1.859
47692W        W12677  26.454  44.940   9.711
47693W        W12678  32.849  25.475   0.774
47694W        W12679  12.593  32.441   4.146
47695W        W12680  20.262  10.701  10.747
47696W        W12681  28.003   5.134  10.707
47697W        W12682   9.743   0.464   1.164
47698W        W12683  22.115  30.590   4.234
47699W        W12684  39.985   1.003  13.747
47700W        W12685  23.716  12.620  13.879
47701W        W12686  41.813  10.973  14.074
47702W        W12687  41.477  31.429  11.631
47703W        W12688   7.699   4.918  13.144
47704W        W12689  42.533  36.336   9.978
47705W        W12690  35.772  38.816   3.835
47706W        W12691  30.157   1.500  14.445
47707W        W12692  10.732  22.194   1.444
47708W        W12693  36.810  41.002  10.812
47709W        W12694  26.759   4.950  13.402
47710W        W12695  28.225  10.748  14.998
47711W        W12696  22.744   0.658  10.370
47712W        W12697   3.868  43.865  12.520
47713W        W12698  25.589  36.862  13.376
47714W        W12699  28.476   7.252   0.882
47715W        W12700   7.170  27.927  12.109
47716W        W12701  35.862  23.275  14.848
47717W        W12702  14.837  44.552   1.404
47718W        W12703  44.252  39.100  11.987
47719W        W12704  17.614  27.027   4.614
47720W        W12705  31.394   8.288  12.685
47721W        W12706   9.482  40.460   3.418
47722W        W12707  41.123  38.472  13.861
47723W        W12708  37.730   5.371   1.272
47724W        W12709  18.567  14.254   3.234
47725W        W12710  38.581  35.583   1.205
47726W        W12711  21.512  39.606  12.587
47727W        W12712  18.759  17.274  14.599
47728W        W12713   5.579  31.237  11.882
47729W        W12714  25.989  44.313   3.372
47730W        W12715   7.231   8.928   2.438
47731W        W12716   8.414  10.205   4.999
47732W        W12717   5.429  10.901   0.782
47733W        W12718  26.962  28.018   0.851
47734W        W12719  19.270   7.446  14.537
47735W        W12720  27.950   0.456   1.364
47736W        W12721  11.034  35.508   1.891
47737W        W12722  43.406  13.537   4.870
47738W        W12723   3.219  25.109  10.301
47739W        W12724  36.956  19.082  13.604
47740W        W12725  21.290  14.109  12.374
47741W        W12726  22.250  19.986  10.542
47742W        W12727  13.708   1.963   1.895
47743W        W12728  15.340  11.913   4.731
47744W        W12729  16.350  35.311   1.471
47745W        W12730   1.501  44.535   1.060
47746W        W12731   0.850  31.286   3.294
47747W        W12732  18.077  18.587   4.328
47748W        W12733  38.527  24.603   4.554
47749W        W12734   5.226  29.896  13.102
47750W        W12735  31.432  30.023   1.302
47751W        W12736  16.551  12.796  11.076
47752W        W12737  27.900   6.168   0.248
47753W        W12738  25.645  22.249   0.231
47754W        W12739   2.030   8.745  14.656
47755W        W12740  30.681   4.301  14.324
47756W        W12741  32.972   0.851   0.724
47757W        W12742  12.735  32.863   4.440
47758W        W12743  11.757  37.721   4.522
47759W        W12744  13.545  24.009   3.615
47760W        W12745  30.773  32.665  12.828
47761W        W12746  33.449   7.056  14.708
47762W        W12747  31.589   3.899  14.706
47763W        W12748  21.976  41.762  11.830
47764W        W12749  17.571   1.379   4.269
47765W        W12750  18.567   7.808   0.458
47766W        W12751   8.433   8.018  10.288
47767W        W12752  34.871  34.697  14.752
47768W        W12753  44.344  10.102   0.282
47769W        W12754  35.053  37.181  14.252
47770W        W12755  31.001  28.401  11.153
47771W        W12756  18.111   0.973   1.601
47772W        W12757  26.452  32.475   2.723
47773W        W12758  30.488  36.359   0.876
47774W        W12759   8.926  42.414  12.539
47775W        W12760  21.403   5.990   0.913
47776W        W12761  44.724  17.781  10.240
47777W        W12762   3.804   6.622   3.644
47778W        W12763  35.598  41.345   1.855
47779W        W12764   7.208  35.418  12.190
47780W        W12765   8.859  21.782  11.216
47781W        W12766  28.835   9.032   2.111
47782W        W12767  35.642  24.219  12.403
47783W        W12768  37.780  36.813   1.770
47784W        W12769  26.187   0.428  10.211
47785W        W12770  27.292  42.894  12.525
47786W        W12771  44.439  14.669  13.671
47787W        W12772  38.634   3.810   0.388
47788W        W12773  36.075  23.059   0.394
47789W        W12774  35.870   8.223   1.559
47790W        W12775   9.335   6.461   2.669
47791W        W12776  44.988  30.992   4.439
47792W        W12777  18.003   2.860   3.414
47793W        W12778  30.397   1.987  11.622
47794W        W12779  13.868  41.011  14.951
47795W        W12780  11.890  41.488   0.470
47796W        W12781  37.815  12.536   4.051
47797W        W12782   2.231  28.929   4.201
47798W        W12783  22.051  41.594   1.850
47799W        W12784   2.892  27.663   4.098
47800W        W12785  22.581  35.103   3.435
47801W        W12786  22.888  42.269  13.364
47802W        W12787   8.311   1.357  10.597
47803W        W12788  26.544  43.734   3.283
47804W        W12789  36.880  24.609   3.732
47805W        W12790  36.400  41.526   3.144
47806W        W12791  36.860  43.474   4.246
47807W        W12792  10.209  19.051  11.568
47808W        W12793  15.569  10.572   5.012
47809W        W12794  11.272   1.915   3.199
47810W        W12795  41.065  28.677  12.064
47811W        W12796  30.087  21.301   3.809
47812W        W12797   8.822  27.662  11.181
47813W        W12798  27.977   6.888   5.143
47814W        W12799  18.233  40.362  11.012
47815W        W12800  25.293  33.937   2.371
47816W        W12801  14.317  29.635   4.203
47817W        W12802  31.980  39.437  12.095
47818W        W12803  26.961  16.082   1.430
47819W        W12804  43.544  39.301  13.334
47820W        W12805  35.124  18.139  11.122
47821W        W12806  27.015   1.813   0.283
47822W        W12807   9.294  20.303   4.294
47823W        W12808  20.571   0.836  14.863
47824W        W12809  40.119  39.475   5.099
47825W        W12810  27.851   3.825   2.899
47826W        W12811  43.522  24.986  13.027
47827W        W12812   4.964  20.124   3.251
47828W        W12813  13.300   6.423   4.598
47829W        W12814  23.508   7.619   2.352
47830W        W12815  12.524  29.560  14.016
47831W        W12816   4.376  11.626  13.822
47832W        W12817  19.261  34.340   3.249
47833W        W12818  17.605  31.194  11.451
47834W        W12819  33.738  44.835  14.216
47835W        W12820  19.666  38.109  13.132
47836W        W12821  12.348  16.033   0.563
47837W        W12822  29.882  26.029  11.680
47838W        W12823   9.778  12.732  10.736
47839W        W12824  33.425   6.279  10.372
47840W        W12825  28.681  18.365   4.588
47841W        W12826  44.906  29.877   0.218
47842W        W12827  37.367   9.215   2.768
47843W        W12828  44.798  32.338   0.827
47844W        W12829  40.310  34.362   1.360
47845W        W12830  30.157  11.192   3.711
47846W        W12831  26.057  15.129   3.094
47847W        W12832  41.812  15.509   4.150
47848W        W12833  36.468  23.011   2.845
47849W        W12834  19.550  11.023   3.952
47850W        W12835  13.358   9.210   1.684
47851W        W12836  30.052   5.216  10.423
47852W        W12837  30.974  37.557   4.395
47853W        W12838   8.562  36.109  10.741
47854W        W12839  43.346  37.797  14.496
47855W        W12840  19.566   7.883  13.836
47856W        W12841  24.959  37.537  14.773
47857W        W12842  28.651  28.841  11.108
47858W        W12843   7.356  18.074   2.284
47859W        W12844   0.500  24.237  11.158
47860W        W12845  16.812  10.423  12.107
47861W        W12846  34.249   6.870  11.138
47862W        W12847  32.897   0.335  12.766
47863W        W12848  43.529  41.534  14.043
47864W        W12849  33.416  14.162  10.722
47865W        W12850  19.688  11.425  13.918
47866W        W12851   0.945  15.219  11.061
47867W        W12852  11.424  25.989   1.712
47868W        W12853  29.724  24.398  12.361
47869W        W12854  18.438  30.963   3.157
47870W        W12855   4.885  40.771  12.584
47871W        W12856  39.115  33.607  10.335
47872W        W12857   6.510  13.939   2.717
47873W        W12858  27.676  10.907   1.384
47874W        W12859  19.370  25.320   2.133
47875W        W12860  23.305   4.480   2.060
47876W        W12861  10.787  17.699   3.615
47877W        W12862  44.162  10.161   4.708
47878W        W12863  18.860  20.159  13.791
47879W        W12864   1.467  20.390   3.521
47880W        W12865  19.087  38.482   4.982
47881W        W12866  38.060  23.525   0.346
47882W        W12867  34.867  39.456   4.741
47883W        W12868  41.611   4.136   3.620
47884W        W12869  15.791  34.488   4.157
47885W        W12870  19.377  28.374  10.532
47886W        W12871  16.294  15.916   1.884
47887W        W12872   1.700  29.472  14.445
47888W        W12873  25.108  41.998   1.644
47889W        W12874  28.259  44.308   1.898
47890W        W12875  15.002  32.240   2.324
47891W        W12876  36.131  14.071   2.096
47892W        W12877  31.498  43.525  14.795
47893W        W12878  30.529   4.456  10.916
47894W        W12879  37.072  31.063   0.407
47895W        W12880   8.489  26.570   4.081
47896W        W12881  15.934  12.769  12.290
47897W        W12882  44.598  23.049  12.801
47898W        W12883  14.713  29.266   2.736
47899W        W12884  14.277  27.598   2.337
47900W        W12885  11.147  22.723  12.990
47901W        W12886  31.111  26.645  11.673
47902W        W12887  23.714  15.045  14.079
47903W        W12888   4.434  25.751  10.833
47904W        W12889  44.758   6.925   1.882
47905W        W12890  17.020  41.041  14.414
47906W        W12891  20.099  29.033   0.667
47907W        W12892  27.062  19.598   3.577
47908W        W12893  17.604  17.660  13.411
47909W        W12894   9.622  26.626  13.848
47910W        W12895   3.811  27.669  11.875
47911W        W12896  25.258  10.828  10.936
47912W        W12897  44.257  30.920   1.048
47913W        W12898  43.418  12.288  11.178
47914W        W12899  29.119  37.207  13.670
47915W        W12900  22.666  12.033   2.281
47916W        W12901   6.265   8.358  13.946
47917W        W12902   4.140   1.842   4.162
47918W        W12903  20.176  22.220  12.950
47919W        W12904  27.039  35.290   0.801
47920W        W12905  22.652   8.998  13.981
47921W        W12906   7.265  20.302   3.721
47922W        W12907  27.250  42.293   2.242
47923W        W12908  23.075  24.944  11.624
47924W        W12909   1.525  10.165   1.442
47925W        W12910   2.644  22.953   1.431
47926W        W12911   0.271  27.345   0.941
47927W        W12912   9.254  16.679   4.235
47928W        W12913   8.251  29.207  14.965
47929W        W12914  32.668  12.283   1.776
47930W        W12915   9.819  37.281  11.099
47931W        W12916  29.994   8.157   0.051
47932W        W12917  41.254  26.192   2.041
47933W        W12918   8.192  17.163  14.472
47934W        W12919  36.489   9.575   5.051
47935W        W12920  40.240  21.415   1.843
47936W        W12921   1.824  38.254   3.350
47937W        W12922  18.810  24.693   1.789
47938W        W12923  21.818   3.649  14.961
47939W        W12924  24.157   2.193  14.345
47940W        W12925  13.168  21.248  13.465
47941W        W12926  31.995  43.483  14.974
47942W        W12927  25.001  16.837   2.884
47943W        W12928  17.835  39.254  10.640
47944W        W12929   7.725   6.117   1.576
47945W        W12930   8.084  21.535   2.778
47946W        W12931  34.910  40.249  12.094
47947W        W12932   7.629   1.669   4.095
47948W        W12933  32.899  31.974   1.248
47949W        W12934  30.177  30.634  11.654
47950W        W12935  28.627   0.483  12.854
47951W        W12936   7.748  24.052  11.540
47952W        W12937  17.549   9.619  12.085
47953W        W12938  35.426  25.547   4.076
47954W        W12939   6.634  20.763   4.207
47955W        W12940  12.302  27.762  14.403
47956W        W12941  29.965  10.305   4.080
47957W        W12942   5.592  11.190   4.645
47958W        W12943  25.888  34.900  12.135
47959W        W12944  19.750  21.657   0.482
47960W        W12945  43.945  12.792   2.264
47961W        W12946  17.697  23.988  11.991
47962W        W12947   2.868  21.784   4.557
47963W        W12948  40.199  10.241   0.834
47964W        W12949  28.179  38.860  11.835
47965W        W12950   3.938  39.584  14.726
47966W        W12951  22.561  22.690  14.937
47967W        W12952  17.002  41.326  13.948
47968W        W12953  39.766  44.171  10.699
47969W        W12954  43.869  38.193  13.988
47970W        W12955  40.584  11.291  14.159
47971W        W12956  27.734   2.918  12.068
47972W        W12957  22.334  41.914   0.720
47973W        W12958   8.802  18.029   1.472
47974W        W12959   4.754   5.568  11.957
47975W        W12960  41.896  30.026   3.735
47976W        W12961  26.827   4.641  14.253
47977W        W12962   2.862  34.281  12.654
47978W        W12963  33.426  16.208  12.245
47979W        W12964  12.235   1.237   0.575
47980W        W12965  36.826  19.153   1.815
47981W        W12966  15.886  42.568   0.911
47982W        W12967  19.615  31.551   4.768
47983W        W12968   4.193  43.673  11.116
47984W        W12969   7.919   1.435   3.136
47985W        W12970  39.769  38.413  13.918
47986W        W12971  20.696  42.563   4.807
47987W        W12972  19.196  15.590  13.322
47988W        W12973  42.314   2.718  13.469
47989W        W12974   8.178  42.159  12.924
47990W        W12975  20.538   4.269   3.277
47991W        W12976  31.995  16.381   3.595
47992W        W12977  13.391  12.659  13.966
47993W        W12978  17.381   0.278  11.994
47994W        W12979  39.318  19.145   1.745
47995W        W12980   1.935   0.300   0.104
47996W        W12981  43.197  35.737   3.488
47997W        W12982  35.922  41.430  12.179
47998W        W12983  34.492  40.515   4.741
47999W        W12984  36.246  31.955  10.598
48000W        W12985  32.520  13.066  13.852
48001W        W12986  13.665  18.385  13.359
48002W        W12987  40.832  39.463  13.644
48003W        W12988  26.360  29.240   0.324
48004W        W12989  13.683   6.385  12.876
48005W        W12990   4.338  34.533   2.401
48006W        W12991  35.233  39.721   3.577
48007W        W12992   6.997  12.045  12.968
48008W        W12993  22.117  26.724  10.952
48009W        W12994  30.980  16.820   1.621
48010W        W12995  36.167   7.940   2.691
48011W        W12996  33.133   1.859  14.134
48012W        W12997  28.208  22.318  12.632
48013W        W12998  23.502  37.205   1.527
48014W        W12999   4.977  26.215  14.448
48015W        W13000  32.875  29.426  13.741
48016W        W13001  10.313  31.734   0.832
48017W        W13002  36.664  38.582  13.540
48018W        W13003  23.072   0.851   1.354
48019W        W13004   9.489  15.803   3.630
48020W        W13005  20.720  12.303   2.811
48021W        W13006  30.261  15.742  14.300
48022W        W13007  14.584   1.297   9.910
48023W        W13008  19.650   7.751   4.124
48024W        W13009  11.883  27.374   0.954
48025W        W13010   7.217  31.009  12.468
48026W        W13011  35.067  17.359  14.040
48027W        W13012  32.942   4.525   3.334
48028W        W13013  32.631  32.688  10.459
48029W        W13014  41.387   2.237  13.496
48030W        W13015  35.475  12.806  12.082
48031W        W13016  27.400  11.439   1.375
48032W        W13017   7.030  35.314   4.117
48033W        W13018  18.829  29.972   2.759
48034W        W13019  20.219  23.514   3.617
48035W        W13020  39.817  17.199   0.273
48036W        W13021  10.759  14.272  14.149
48037W        W13022  32.372  27.756   1.960
48038W        W13023  40.503  39.628   0.088
48039W        W13024  12.604  26.973  10.229
48040W        W13025  31.471   7.300  10.363
48041W        W13026  27.183  27.981  11.186
48042W        W13027  17.199   2.015  10.576
48043W        W13028   9.215  26.503   4.867
48044W        W13029  39.659  43.347  14.949
48045W        W13030  41.147  14.818   5.129
48046W        W13031   6.078  11.745   1.920
48047W        W13032  24.063  35.312   0.180
48048W        W13033   5.869  20.829   0.327
48049W        W13034   9.793  30.631  14.261
48050W        W13035  12.394  13.808   1.460
48051W        W13036  23.055  39.480   4.945
48052W        W13037  21.002  23.634   2.277
48053W        W13038   3.055   3.948   3.197
48054W        W13039  26.673   0.996  11.556
48055W        W13040  39.156  17.508   0.279
48056W        W13041  35.817  40.873  10.400
48057W        W13042  29.525  30.699   2.215
48058W        W13043  43.732  40.448   3.579
48059W        W13044  22.780   5.791  10.815
48060W        W13045   1.363  31.657  12.531
48061W        W13046  41.437  15.219   5.113
48062W        W13047  28.609  40.089   3.690
48063W        W13048  26.843  26.873  11.159
48064W        W13049   1.378   8.374  14.027
48065W        W13050  11.083  29.429   0.163
48066W        W13051  35.952   9.907   1.862
48067W        W13052  17.040  27.947  14.362
48068W        W13053  18.567  27.482  13.918
48069W        W13054  21.663  38.390   1.522
48070W        W13055  32.898   7.958   1.363
48071W        W13056  44.747  35.091  11.053
48072W        W13057   7.958  40.321  13.514
48073W        W13058  23.620  18.752   1.173
48074W        W13059  14.546   4.128   3.111
48075W        W13060   7.098  33.147  11.119
48076W        W13061  28.646  29.332  11.006
48077W        W13062  29.921  30.221   2.603
48078W        W13063   5.674  21.088  11.527
48079W        W13064  42.962  42.585   3.142
48080W        W13065  19.520  20.160   4.083
48081W        W13066   7.972   5.886  12.018
48082W        W13067  32.144  39.970   1.144
48083W        W13068  32.981   3.717  10.710
48084W        W13069  44.149  30.477  14.463
48085W        W13070   3.041  24.069   4.508
48086W        W13071  19.068  23.645   5.018
48087W        W13072  33.000  37.362  11.251
48088W        W13073  43.556  35.000   2.839
48089W        W13074   9.360  26.048  12.658
48090W        W13075  43.383  41.998   1.869
48091W        W13076  32.882  27.484   4.591
48092W        W13077  27.520  33.181   4.400
48093W        W13078  13.329   9.058  12.355
48094W        W13079  11.663   0.474   2.647
48095W        W13080  12.268  21.064  13.376
48096W        W13081  41.043  39.456  14.530
48097W        W13082   0.982   2.946  13.361
48098W        W13083  41.600  29.959  14.501
48099W        W13084  15.079   5.295  12.109
48100W        W13085  43.339   7.651  12.438
48101W        W13086  20.378  14.410   2.660
48102W        W13087  39.292  29.506   3.813
48103W        W13088  34.870  14.590   1.274
48104W        W13089   8.217   0.828  14.466
48105W        W13090  14.062  32.480  12.437
48106W        W13091  26.524  39.304   4.104
48107W        W13092  29.316  10.724   3.786
48108W        W13093   5.794   1.173   1.602
48109W        W13094  34.965  33.898  11.118
48110W        W13095  25.015  27.337   0.298
48111W        W13096  24.620  21.031   3.215
48112W        W13097  34.451  33.638   2.583
48113W        W13098  25.779   0.001  14.473
48114W        W13099  42.059   9.262   1.098
48115W        W13100  38.976  15.641   1.809
48116W        W13101   7.881  11.842   2.308
48117W        W13102   6.922  23.595   3.979
48118W        W13103  40.472  41.273  13.489
48119W        W13104  39.044  22.376  10.520
48120W        W13105   5.041  43.915   3.901
48121W        W13106  34.109  37.265   0.926
48122W        W13107  35.299  25.192   2.287
48123W        W13108   5.912  32.514  10.705
48124W        W13109  10.734  34.760  12.041
48125W        W13110  28.647  39.256  13.500
48126W        W13111  17.525   6.387   3.255
48127W        W13112  28.376  10.049   2.693
48128W        W13113   5.918  13.334  13.497
48129W        W13114  34.508  18.674   3.682
48130W        W13115  23.980  39.887   5.140
48131W        W13116  18.112  17.136   4.279
48132W        W13117  39.405  29.059   2.100
48133W        W13118  44.487   5.823   3.119
48134W        W13119  13.252  24.236  13.541
48135W        W13120  35.836  12.163  10.492
48136W        W13121  32.334  25.439   0.802
48137W        W13122   2.890  34.651  11.990
48138W        W13123   1.986  18.284  12.428
48139W        W13124  23.168  25.522  13.898
48140W        W13125  17.807  15.921   0.496
48141W        W13126  25.111  18.486   4.219
48142W        W13127   2.877  24.303  13.748
48143W        W13128   2.424  40.883  13.507
48144W        W13129   5.242   0.979  14.333
48145W        W13130  21.048  29.014  12.884
48146W        W13131  11.004   6.328   5.125
48147W        W13132  23.702  43.281   0.936
48148W        W13133  32.989  12.020   4.280
48149W        W13134  33.483   4.338  11.809
48150W        W13135   3.325  42.970   0.949
48151W        W13136  26.153   8.499   2.344
48152W        W13137  25.273  10.742   3.893
48153W        W13138  39.527   0.800   4.567
48154W        W13139  19.303  25.177   1.472
48155W        W13140  30.006   5.387  14.943
48156W        W13141  36.589  44.286  12.003
48157W        W13142  23.512  20.612   5.077
48158W        W13143  32.432  31.102   3.630
48159W        W13144  33.960  44.328  11.099
48160W        W13145  27.510  17.986  14.102
48161W        W13146   0.718  36.095  14.294
48162W        W13147  40.077  44.502   2.391
48163W        W13148   3.903  18.083   2.935
48164W        W13149  30.554  26.464  12.082
48165W        W13150  23.166  33.122  12.360
48166W        W13151  17.650   0.573   3.785
48167W        W13152  26.587  11.338   3.628
48168W        W13153   6.378  27.210  11.214
48169W        W13154  43.720  14.721  13.012
48170W        W13155   5.799   0.602   3.281
48171W        W13156   0.732  25.264   4.213
48172W        W13157  32.140  38.457  10.125
48173W        W13158  19.742  43.705   1.400
48174W        W13159  18.027  36.587  13.928
48175W        W13160  36.018  42.337   2.291
48176W        W13161   2.733  21.050  12.402
48177W        W13162  18.150  39.927  11.719
48178W        W13163  27.802  35.360  11.137
48179W        W13164  18.149  39.378   0.829
48180W        W13165   5.673  18.225  12.473
48181W        W13166  27.443  37.487   0.507
48182W        W13167  23.685  38.515   4.468
48183W        W13168  26.608  11.985   4.313
48184W        W13169  43.060  36.609   4.050
48185W        W13170  27.511  37.923  10.538
48186W        W13171  22.557   0.321   1.680
48187W        W13172  36.972  17.333   1.524
48188W        W13173  17.582  25.417   3.801
48189W        W13174  38.902  43.367   2.257
48190W        W13175   6.674  34.808   2.644
48191W        W13176  29.407  30.545   1.702
48192W        W13177  23.725  12.333   3.781
48193W        W13178  39.629   1.005   4.078
48194W        W13179   2.137  20.858  10.232
48195W        W13180  38.483  44.762   4.598
48196W        W13181  37.331   0.655   0.993
48197W        W13182  28.452  16.096  10.394
48198W        W13183  40.917  42.412   4.585
48199W        W13184  28.193   4.663   3.133
48200W        W13185  32.619  11.591   3.847
48201W        W13186  12.557  44.294   1.881
48202W        W13187   5.314  15.598  13.976
48203W        W13188  16.274  20.705  12.852
48204W        W13189   4.285  38.416  11.697
48205W        W13190  25.436   8.964  10.800
48206W        W13191  20.766  27.395  11.524
48207W        W13192  27.942  10.253  12.551
48208W        W13193   1.739  32.588  11.427
48209W        W13194  10.698  40.129  11.587
48210W        W13195  28.202  29.088  11.132
48211W        W13196  12.168   1.724   0.685
48212W        W13197  31.549  32.436   4.322
48213W        W13198  39.149  29.481  12.042
48214W        W13199   4.116  26.028   0.811
48215W        W13200   1.711  25.473   3.156
48216W        W13201  34.174   6.368   1.752
48217W        W13202  38.647  29.803  12.853
48218W        W13203  37.431  26.420  14.718
48219W        W13204  28.596  42.506  12.787
48220W        W13205   4.202  17.550  14.586
48221W        W13206   4.437  31.359   2.003
48222W        W13207  31.067  41.742  13.545
48223W        W13208  24.524  32.070   2.318
48224W        W13209  41.851  36.908  14.446
48225W        W13210  37.008   3.605   4.629
48226W        W13211  26.607  11.549   2.283
48227W        W13212   9.284  31.241  12.550
48228W        W13213  18.984  29.804   1.703
48229W        W13214  16.127  30.021   2.276
48230W        W13215   7.211  13.217   2.399
48231W        W13216  19.066  16.670   5.045
48232W        W13217  10.293  41.628   3.254
48233W        W13218  22.474  35.462   2.122
48234W        W13219  19.210  18.189   2.751
48235W        W13220  17.479  32.084  10.962
48236W        W13221  35.899  16.296  13.739
48237W        W13222   0.953  28.484   1.983
48238W        W13223  33.500   1.017   5.414
48239W        W13224  23.551  24.483   4.091
48240W        W13225  16.522  17.521   3.241
48241W        W13226  44.589  27.276  14.823
48242W        W13227  17.670  11.679   4.195
48243W        W13228  19.109   2.308   2.146
48244W        W13229  31.052  19.963   0.052
48245W        W13230  31.448  12.345  10.484
48246W        W13231  43.588  23.441   3.542
48247W        W13232  33.508  28.477   4.410
48248W        W13233  40.781  33.371  13.396
48249W        W13234  18.120  17.953  12.252
48250W        W13235  12.553  27.049  14.293
48251W        W13236   1.939  43.767   0.918
48252W        W13237   1.441  37.199   3.879
48253W        W13238  19.287  18.788  11.927
48254W        W13239  33.380  38.929   2.700
48255W        W13240  21.886  11.081   0.859
48256W        W13241  29.230  28.710  12.567
48257W        W13242  14.339  42.330   2.338
48258W        W13243  36.521  38.511   4.899
48259W        W13244  24.750   6.819  14.846
48260W        W13245   2.274  15.066   0.299
48261W        W13246  18.259  11.817   2.015
48262W        W13247  27.978   6.827  14.350
48263W        W13248  27.645  19.004  11.199
48264W        W13249   2.298   3.025   2.338
48265W        W13250   9.121  12.781   4.974
48266W        W13251  27.858  32.672   1.839
48267W        W13252  28.120   7.172  13.793
48268W        W13253   8.838  29.556   1.220
48269W        W13254  26.981   3.789  14.825
48270W        W13255   9.733  12.449   1.159
48271W        W13256  12.660  10.708  11.972
48272W        W13257  29.085  18.714  14.583
48273W        W13258  28.180  28.458  14.795
48274W        W13259  20.252  34.324   2.294
48275W        W13260  34.954  37.326  11.972
48276W        W13261  32.681  43.842  13.021
48277W        W13262  35.421  10.144   1.162
48278W        W13263  11.671  34.102  13.849
48279W        W13264  32.679  36.892  11.925
48280W        W13265  35.097  40.360  14.337
48281W        W13266   9.948   6.315  10.609
48282W        W13267  40.597  36.599  13.034
48283W        W13268  25.903   4.329  11.054
48284W        W13269  17.535  26.163  13.402
48285W        W13270   4.775  42.394   2.930
48286W        W13271  30.805  30.529   1.792
48287W        W13272  10.084  18.772   0.850
48288W        W13273   3.446  16.161   4.777
48289W        W13274   2.910  22.697  11.027
48290W        W13275  31.346   9.926   0.359
48291W        W13276  15.181  32.505   1.917
48292W        W13277  20.596   8.743   3.678
48293W        W13278  36.844  42.119  10.762
48294W        W13279  30.112  35.994  10.966
48295W        W13280  42.898  44.079  13.416
48296W        W13281  15.882  30.076   0.528
48297W        W13282  44.580  19.135  14.839
48298W        W13283  35.000  12.421   2.747
48299W        W13284  16.845   2.236   3.049
48300W        W13285  39.907  42.468   4.643
48301W        W13286  34.030  18.600   3.871
48302W        W13287  42.450  32.565   4.612
48303W        W13288  43.634   8.823   2.865
48304W        W13289  29.584  10.302  14.744
48305W        W13290  10.132  12.805   1.190
48306W        W13291  22.375  15.712   4.867
48307W        W13292  22.070  19.301   3.952
48308W        W13293   2.713  39.627   0.480
48309W        W13294  11.839   9.853  12.615
48310W        W13295  24.131  32.006   4.608
48311W        W13296  17.781  36.005  13.392
48312W        W13297  19.679  25.974  11.032
48313W        W13298  16.457  26.420  11.593
48314W        W13299  10.975   0.758   4.887
48315W        W13300  30.924   2.960   2.867
48316W        W13301  22.635  24.452   4.197
48317W        W13302  40.376  43.931   0.492
48318W        W13303  36.485  28.707   2.258
48319W        W13304   2.810  44.673   1.360
48320W        W13305  31.545  26.592  11.338
48321W        W13306  21.646  25.444  12.365
48322W        W13307  15.664  10.398  13.772
48323W        W13308  11.016  12.288  14.280
48324W        W13309   2.930  26.738  10.650
48325W        W13310  29.610  13.455  10.620
48326W        W13311  35.510  17.584  14.901
48327W        W13312  16.563  13.657  12.422
48328W        W13313  35.865   6.617  11.368
48329W        W13314  25.701  13.138   4.753
48330W        W13315  15.648  20.441  13.391
48331W        W13316  12.607  42.329  13.824
48332W        W13317  40.543  33.494   4.473
48333W        W13318   7.227  24.026   4.142
48334W        W13319   5.028  21.761   2.965
48335W        W13320  41.566  14.637  14.940
48336W        W13321  29.038  16.323  11.968
48337W        W13322  23.216  24.320   1.286
48338W        W13323  44.408   4.697   2.366
48339W        W13324   8.714  22.783   3.688
48340W        W13325  27.972  32.573   2.862
48341W        W13326   7.183   1.435  11.273
48342W        W13327  39.752  28.270  12.207
48343W        W13328   9.209  12.925  13.420
48344W        W13329  16.856   5.289  12.922
48345W        W13330  40.026  26.958   4.489
48346W        W13331  15.799   1.778   2.517
48347W        W13332   3.154   6.241   0.269
48348W        W13333  12.127  19.114   1.216
48349W        W13334  12.683  33.408  10.634
48350W        W13335  22.441  14.659  14.077
48351W        W13336  11.877  23.313   4.520
48352W        W13337  33.114  26.034  13.062
48353W        W13338  11.694  28.389   0.928
48354W        W13339  43.305  16.530  14.295
48355W        W13340  38.747  38.885   0.896
48356W        W13341  20.865  39.580   0.309
48357W        W13342  36.870  20.680   0.759
48358W        W13343  34.663   6.340  13.329
48359W        W13344  19.276  39.190  12.368
48360W        W13345  20.145  44.669   2.200
48361W        W13346  17.078  10.093  14.078
48362W        W13347   6.956  27.849   2.810
48363W        W13348  27.174  20.622   4.560
48364W        W13349   8.877  44.694   1.295
48365W        W13350  24.467   8.343   0.771
48366W        W13351  16.249  16.761   0.005
48367W        W13352   2.920  24.678   0.889
48368W        W13353  40.881   2.934   0.302
48369W        W13354  44.786  42.052  11.657
48370W        W13355   7.344  33.367  11.643
48371W        W13356   3.801   1.534   1.778
48372W        W13357   8.804  14.754  12.543
48373W        W13358  44.251  20.769   1.421
48374W        W13359  40.858  39.554  12.539
48375W        W13360  20.116   8.972   4.565
48376W        W13361  30.631  11.317  14.475
48377W        W13362  24.203  10.425  11.552
48378W        W13363  31.847  15.066   0.065
48379W        W13364  12.605  32.331   0.761
48380W        W13365   3.865  43.807   3.818
48381W        W13366  44.438  34.263  12.569
48382W        W13367  38.145  25.822  10.264
48383W        W13368   5.334  26.542  10.426
48384W        W13369  19.608  28.101  11.667
48385W        W13370   2.669   1.227   2.618
48386W        W13371  19.091  41.495   3.498
48387W        W13372  30.211   4.251  14.536
48388W        W13373  16.737  41.519   4.906
48389W        W13374  27.053  32.155  14.415
48390W        W13375  39.837  27.160  12.833
48391W        W13376   4.230  39.809  11.956
48392W        W13377  16.488  33.776   1.715
48393W        W13378  16.267   3.342   5.307
48394W        W13379  43.846   9.440   1.887
48395W        W13380   5.286  10.252   4.557
48396W        W13381   7.198  22.525   0.129
48397W        W13382   4.415  25.495   1.255
48398W        W13383  37.843   6.258  10.535
48399W        W13384  10.027  43.263   2.391
48400W        W13385  40.838  18.282   2.675
48401W        W13386  27.948  26.826  12.317
48402W        W13387  16.641  13.345  14.344
48403W        W13388  44.693  24.453  11.086
48404W        W13389  30.640  19.589   0.750
48405W        W13390  39.870   2.271  13.896
48406W        W13391  17.058  14.362   2.844
48407W        W13392  32.141  16.663  12.902
48408W        W13393  20.264   7.397  13.412
48409W        W13394  23.493  13.725  10.838
48410W        W13395   4.236  24.935   3.418
48411W        W13396  42.527  27.145   2.343
48412W        W13397  24.294   6.900  13.629
48413W        W13398   6.104  34.600   3.527
48414W        W13399   2.999   9.146   4.137
48415W        W13400  19.023   7.719  13.004
48416W        W13401  18.227  15.049  10.713
48417W        W13402  43.770  17.519  10.305
48418W        W13403   3.234   8.353   0.287
48419W        W13404  40.658   3.705   2.818
48420W        W13405   3.918  25.621  10.880
48421W        W13406  17.210  26.165  14.827
48422W        W13407  35.600  30.994  12.278
48423W        W13408   1.751   3.854   2.637
48424W        W13409  12.300   7.898   3.118
48425W        W13410   6.189  18.721   3.692
48426W        W13411  33.839  15.506  11.223
48427W        W13412  32.111  18.007  12.847
48428W        W13413  19.541   1.787  12.053
48429W        W13414   5.483  23.048  12.382
48430W        W13415  29.637  41.337  13.865
48431W        W13416  15.739  26.585   3.626
48432W        W13417   2.861  41.949   0.579
48433W        W13418   3.165   0.834  11.271
48434W        W13419  42.384  38.768   4.667
48435W        W13420   6.864   3.585   0.934
48436W        W13421  10.258  39.328  14.793
48437W        W13422  34.540  32.112  13.886
48438W        W13423  38.997  19.340   0.958
48439W        W13424  14.171  44.527   4.096
48440W        W13425  25.128  42.854  14.325
48441W        W13426  21.134  30.988  14.865
48442W        W13427   2.951   1.908   1.011
48443W        W13428  40.921   5.843  12.502
48444W        W13429  10.965  42.087  14.551
48445W        W13430  37.070  35.075   2.774
48446W        W13431   6.907  33.629   4.046
48447W        W13432  15.289   9.127   2.193
48448W        W13433  35.121   9.804   4.380
48449W        W13434  25.966  14.161   2.179
48450W        W13435  40.919  14.460  11.477
48451W        W13436  27.743  42.433   2.368
48452W        W13437  33.860  16.208   4.010
48453W        W13438   1.623  11.133   0.536
48454W        W13439  13.233   2.819   2.085
48455W        W13440  43.508  16.812   2.162
48456W        W13441  29.685  39.278  13.366
48457W        W13442  38.491  38.987  10.609
48458W        W13443  42.676  40.489   0.008
48459W        W13444  15.228   1.510   4.877
48460W        W13445  21.453  43.452  13.110
48461W        W13446  11.098   9.253   3.204
48462W        W13447   7.615  11.218   2.271
48463W        W13448  21.622   3.813   4.021
48464W        W13449  29.174   2.830  12.022
48465W        W13450  18.687  37.892  14.192
48466W        W13451  36.786  25.809  13.684
48467W        W13452   8.731  18.232   1.011
48468W        W13453  22.319  24.568   0.973
48469W        W13454  13.356  37.411  13.762
48470W        W13455   4.156  23.691  12.940
48471W        W13456  19.627   0.020   4.694
48472W        W13457  30.482  12.579   1.025
48473W        W13458  23.373   0.399  10.653
48474W        W13459  34.025  43.272   3.812
48475W        W13460  26.028  29.412  13.727
48476W        W13461   7.899  11.291  12.988
48477W        W13462   2.010  16.591   2.322
48478W        W13463   8.538  43.091   1.876
48479W        W13464  21.982  39.155  13.957
48480W        W13465  38.524   1.795  13.866
48481W        W13466   8.264  17.709  13.001
48482W        W13467   5.867  22.547  13.298
48483W        W13468  40.903  44.369   3.255
48484W        W13469  25.428   4.946  12.077
48485W        W13470  34.902  31.872   3.913
48486W        W13471  44.254  28.280   3.229
48487W        W13472   8.100  29.157   3.521
48488W        W13473  37.457   4.387  11.482
48489W        W13474  15.253  42.713  13.753
48490W        W13475   6.362  27.726   0.735
48491W        W13476  42.001  31.506  14.416
48492W        W13477   3.419   7.976   3.939
48493W        W13478  17.829  38.546  10.691
48494W        W13479   0.765   3.734   3.599
48495W        W13480  21.025  21.585  12.467
48496W        W13481  12.995   4.915   0.730
48497W        W13482  16.255   8.840   4.905
48498W        W13483  37.588  44.701   1.187
48499W        W13484  34.624  40.787   1.659
48500W        W13485  24.213  24.720   2.134
48501W        W13486  37.471  11.563  12.525
48502W        W13487   0.764  16.799  13.541
48503W        W13488  23.723  26.114  12.410
48504W        W13489  43.926  25.992   2.326
48505W        W13490  31.166  38.563   5.301
48506W        W13491   0.037  19.652   2.268
48507W        W13492   1.233  40.195   0.457
48508W        W13493  31.306  33.001   3.248
48509W        W13494  12.800  35.821   3.149
48510W        W13495  26.699   1.948   0.693
48511W        W13496  24.292   1.730   1.435
48512W        W13497  27.399  34.324   1.142
48513W        W13498   1.913  22.547   4.624
48514W        W13499   7.482  22.523   2.209
48515W        W13500  23.775  43.099  12.031
48516W        W13501  29.184   9.317  11.582
48517W        W13502  40.850  25.525  14.873
48518W        W13503  20.732  24.345   4.196
48519W        W13504  33.922  33.119  12.164
48520W        W13505  11.407  31.806   2.042
48521W        W13506  44.458  12.663   3.629
48522W        W13507  44.532  23.146  11.907
48523W        W13508  20.851   2.999  14.832
48524W        W13509  43.941   3.612   3.519
48525W        W13510  26.711  13.766   4.739
48526W        W13511   2.431   7.179  11.931
48527W        W13512   1.814  21.950   3.298
48528W        W13513  37.648  10.293   2.787
48529W        W13514  34.886  20.506   3.809
48530W        W13515  36.122  28.475  10.700
48531W        W13516  41.104  32.233   0.819
48532W        W13517  33.121   3.452   2.315
48533W        W13518  43.544  34.118  14.673
48534W        W13519  21.766  23.991   0.270
48535W        W13520   6.667   3.816  12.552
48536W        W13521   7.014  18.564  14.694
48537W        W13522   8.227   4.227  11.636
48538W        W13523   8.776  42.734   0.451
48539W        W13524   1.030   0.360   4.426
48540W        W13525  33.882  26.884   1.258
48541W        W13526   3.426  25.694  14.851
48542W        W13527  34.955  12.230  10.134
48543W        W13528  25.376   6.575   3.669
48544W        W13529  32.471  30.672   4.565
48545W        W13530   8.497  28.482  14.063
48546W        W13531  29.496  16.566   2.120
48547W        W13532  10.391   6.451  11.151
48548W        W13533   9.627  12.315  10.451
48549W        W13534  26.465  25.182   2.682
48550W        W13535  10.784   7.505   1.723
48551W        W13536  35.828   6.384   0.257
48552W        W13537  42.218  13.130   4.069
48553W        W13538  14.534  18.962  10.670
48554W        W13539  42.328  19.689   4.117
48555W        W13540  23.681  13.661  12.577
48556W        W13541  16.099  17.498   1.442
48557W        W13542  39.776  14.174   3.277
48558W        W13543  27.958  26.406   0.841
48559W        W13544  43.823  38.139  10.713
48560W        W13545  37.647  40.748  10.714
48561W        W13546   6.091  30.940   0.885
48562W        W13547  34.745  39.849  13.435
48563W        W13548  40.216  29.626  12.049
48564W        W13549  39.314  38.113   1.375
48565W        W13550  34.598  33.411  12.887
48566W        W13551  40.964   8.010   2.454
48567W        W13552  10.674  30.579  14.504
48568W        W13553  31.698  10.148   2.257
48569W        W13554   2.216  27.055   1.364
48570W        W13555  10.727  14.036   4.461
48571W        W13556  40.240  20.733  11.624
48572W        W13557  14.095  23.520   1.413
48573W        W13558  22.079  17.274   3.436
48574W        W13559  18.882   6.861   4.463
48575W        W13560   0.681  23.577  12.813
48576W        W13561  11.697  12.008   0.871
48577W        W13562   9.191   9.326   1.875
48578W        W13563   7.014  19.159   0.043
48579W        W13564  13.657  34.538   4.193
48580W        W13565  20.213   4.931   3.697
48581W        W13566  35.638  23.778   1.231
48582W        W13567  26.626  17.110   3.826
48583W        W13568  35.802   3.943   3.422
48584W        W13569  25.580  25.101   0.455
48585W        W13570   7.852  18.210   3.288
48586W        W13571  37.340  22.427   3.608
48587W        W13572  17.993  25.023   4.087
48588W        W13573  15.535  28.514   3.652
48589W        W13574  29.587  29.704  10.211
48590W        W13575  34.468  19.441  13.210
48591W        W13576  40.375   5.058   4.139
48592W        W13577   7.713  26.045   1.477
48593W        W13578  25.469  31.972   0.003
48594W        W13579  38.264  40.401  13.017
48595W        W13580  25.026   7.343  10.577
48596W        W13581  25.683  20.040   3.792
48597W        W13582  27.478  35.792  11.166
48598W        W13583  21.555   3.814   3.508
48599W        W13584  32.170  35.326  11.404
48600W        W13585  21.248  21.109   2.385
48601W        W13586  18.633  28.165  11.983
48602W        W13587  23.870  43.002  14.112
48603W        W13588  10.603  22.751  13.025
48604W        W13589   2.774   3.189   2.222
48605W        W13590   0.186  41.429   1.924
48606W        W13591  31.360  10.809  14.319
48607W        W13592   6.914  18.198  14.350
48608W        W13593  34.443  32.730   1.740
48609W        W13594  37.673   0.411   3.102
48610W        W13595  41.807  38.450  10.591
48611W        W13596   1.818  23.258  11.596
48612W        W13597  41.391  33.111  13.579
48613W        W13598  31.653  14.042  11.133
48614W        W13599   3.785  37.244   1.911
48615W        W13600   5.205  25.416   1.226
48616W        W13601  25.167  10.780  10.433
48617W        W13602  25.692  19.073  14.517
48618W        W13603  20.166  33.583  10.814
48619W        W13604  40.963  11.889  14.755
48620W        W13605  32.175  32.785   2.165
48621W        W13606  17.859  38.387   1.334
48622W        W13607   8.814  29.015  12.611
48623W        W13608   0.065  22.723   1.253
48624W        W13609   5.716   2.343  12.192
48625W        W13610   4.828   1.722   3.352
48626W        W13611   0.333  40.887  11.149
48627W        W13612  12.850  35.763   4.345
48628W        W13613  25.609  14.604   1.896
48629W        W13614  42.984  16.143  13.769
48630W        W13615   1.518  37.847  13.561
48631W        W13616  25.483  26.402  11.109
48632W        W13617  38.378   7.181   3.263
48633W        W13618   6.940  26.974  13.866
48634W        W13619   9.350  24.525   1.161
48635W        W13620  16.058  15.459   4.021
48636W        W13621  23.172  13.050   0.976
48637W        W13622  35.167  33.512   1.754
48638W        W13623   4.891  28.939   2.419
48639W        W13624   0.902  29.791  10.914
48640W        W13625  18.960  15.373   0.538
48641W        W13626  40.966   8.790  12.715
48642W        W13627   6.982   6.208  14.945
48643W        W13628  21.453  19.279   0.341
48644W        W13629  35.913   4.205  11.932
48645W        W13630  35.357  38.348  13.032
48646W        W13631  12.543  31.020   4.049
48647W        W13632   9.350   9.235   4.568
48648W        W13633   9.430  23.181  12.051
48649W        W13634  35.074  26.087  10.689
48650W        W13635  30.337  32.450   5.455
48651W        W13636  26.005  26.097  11.252
48652W        W13637  30.896  12.246  13.161
48653W        W13638  38.556  20.954  10.624
48654W        W13639  44.247  34.107   2.337
48655W        W13640  34.090  10.421   3.681
48656W        W13641  40.521   4.904   4.838
48657W        W13642  33.838   8.731  13.114
48658W        W13643  26.478  38.595   2.722
48659W        W13644  31.431   3.521  14.347
48660W        W13645   1.688  31.538   1.612
48661W        W13646  17.256  43.871  11.921
48662W        W13647  15.151  38.360   1.932
48663W        W13648  35.105  37.774  11.118
48664W        W13649  16.734   3.180   2.725
48665W        W13650   1.371  44.503   0.002
48666W        W13651  15.853  27.012   2.492
48667W        W13652  43.858   2.773  14.747
48668W        W13653  42.954   1.576  14.323
48669W        W13654  34.908  23.866  14.053
48670W        W13655  28.923  23.543   4.563
48671W        W13656  19.617  23.874   0.498
48672W        W13657  34.362  35.458  13.853
48673W        W13658  34.583   1.698   2.678
48674W        W13659  12.926  26.307   2.721
48675W        W13660  27.387  19.499  12.932
48676W        W13661   5.445  32.121  11.491
48677W        W13662  28.403  35.387   2.835
48678W        W13663  38.492  31.880  10.691
48679W        W13664  23.453  22.308  14.497
48680W        W13665  34.501   3.811   1.826
48681W        W13666  18.944  32.364  11.112
48682W        W13667  12.713   9.680  10.686
48683W        W13668  31.855  25.349  14.015
48684W        W13669  32.911  44.690  13.589
48685W        W13670  43.890  43.649   1.489
48686W        W13671  33.012   4.563  14.380
48687W        W13672  43.551  11.348   1.870
48688W        W13673  44.033  32.576   1.835
48689W        W13674  29.758  26.650  10.767
48690W        W13675  26.315   3.395   0.248
48691W        W13676   5.917  35.837   4.200
48692W        W13677  25.745  17.831   0.898
48693W        W13678  14.994  34.473   3.729
48694W        W13679   9.287  42.725   1.386
48695W        W13680   9.594  19.696   1.807
48696W        W13681   1.945  37.590  12.143
48697W        W13682  19.550   4.652   1.122
48698W        W13683  38.117  13.253   2.840
48699W        W13684  33.106  28.982   3.794
48700W        W13685  27.677  38.860  13.841
48701W        W13686  15.818   4.059   5.536
48702W        W13687  38.098  20.758   3.066
48703W        W13688  27.756  36.697   3.781
48704W        W13689   3.019  26.528   1.368
48705W        W13690  24.083  15.363   4.101
48706W        W13691   4.262  41.895  12.369
48707W        W13692  39.329  44.861  11.545
48708W        W13693  17.285  30.565  11.936
48709W        W13694  25.572  42.452  12.908
48710W        W13695  20.147  39.783   0.685
48711W        W13696  17.186  39.513   3.683
48712W        W13697  41.712   9.720   1.993
48713W        W13698  13.233  37.544   2.147
48714W        W13699   3.380   5.648   0.990
48715W        W13700  13.900  29.583  12.889
48716W        W13701  18.343   1.331   3.785
48717W        W13702   6.313  22.458  12.495
48718W        W13703   1.463   8.468   2.827
48719W        W13704  33.600  19.539  14.086
48720W        W13705  25.657  38.113   1.828
48721W        W13706  42.675  29.407   2.451
48722W        W13707  31.739   1.888  12.430
48723W        W13708  41.161  12.184   4.305
48724W        W13709  26.330  28.558   5.258
48725W        W13710  16.822  18.203  14.860
48726W        W13711  41.523  38.273   3.481
48727W        W13712  23.470  26.699  13.458
48728W        W13713  40.767  31.382   0.055
48729W        W13714   5.362  23.998  11.203
48730W        W13715   7.635  40.528  11.245
48731W        W13716  10.267  44.966   0.454
48732W        W13717  29.053   8.297   4.364
48733W        W13718  27.595   0.276  11.586
48734W        W13719  12.154   2.318   4.258
48735W        W13720  34.880  15.844  10.334
48736W        W13721  10.438   7.556  12.289
48737W        W13722  26.485  24.282   2.731
48738W        W13723   6.438   9.320   1.679
48739W        W13724  12.623  16.942   1.537
48740W        W13725  42.618   6.754  10.967
48741W        W13726  19.179  16.189  10.739
48742W        W13727  38.969  36.294  13.402
48743W        W13728  38.272  36.016   4.800
48744W        W13729  38.471   9.865  11.064
48745W        W13730  37.042   8.593  11.964
48746W        W13731  12.686  29.965  11.975
48747W        W13732  27.459  26.729   1.917
48748W        W13733   3.767   1.759  10.772
48749W        W13734  29.120   5.983  14.928
48750W        W13735   4.028  13.014  12.697
48751W        W13736  22.202   9.207  11.208
48752W        W13737  32.374  12.415  14.878
48753W        W13738  12.182  22.068   3.254
48754W        W13739  12.061  44.360   0.342
48755W        W13740  33.596  17.600  14.904
48756W        W13741  35.648  15.854   1.811
48757W        W13742  28.637  10.342   4.591
48758W        W13743   5.375  27.220   2.471
48759W        W13744  19.336   6.755  12.169
48760W        W13745  37.992  31.104  11.457
48761W        W13746  36.960  21.654  11.663
48762W        W13747  19.774  16.806  11.955
48763W        W13748  37.102  17.693   0.150
48764W        W13749  35.891   3.209   1.807
48765W        W13750  22.371  42.427  14.972
48766W        W13751  34.956  34.304  11.433
48767W        W13752  21.132  43.753   1.165
48768W        W13753  26.690  23.246  13.419
48769W        W13754  17.622  24.009   0.008
48770W        W13755  32.892  24.734  12.969
48771W        W13756  26.756  33.432   3.668
48772W        W13757  34.996  42.970   1.774
48773W        W13758   3.838  11.214   2.411
48774W        W13759  25.544  10.625  14.898
48775W        W13760   1.399  12.081  11.595
48776W        W13761  14.735  36.537  12.550
48777W        W13762  14.893  22.729   4.240
48778W        W13763   7.304   7.916   2.272
48779W        W13764  11.106  28.613   1.931
48780W        W13765  37.312  26.084  11.446
48781W        W13766  42.174  23.060  11.609
48782W        W13767  29.609  25.739   3.824
48783W        W13768  19.885  13.402   2.647
48784W        W13769   8.120  20.184  10.683
48785W        W13770  33.136  14.763   4.312
48786W        W13771  39.086   6.203   4.230
48787W        W13772   1.326  29.549   4.582
48788W        W13773  37.998  25.901  13.177
48789W        W13774  13.705   8.691   3.657
48790W        W13775  14.829   0.862  11.976
48791W        W13776  20.741   7.527   1.522
48792W        W13777  18.562  38.906  10.393
48793W        W13778  27.546  42.773  13.744
48794W        W13779   9.246  30.587   3.640
48795W        W13780   1.146  14.853   3.591
48796W        W13781   6.885  44.561   0.413
48797W        W13782  38.851  10.576   4.526
48798W        W13783  40.714  10.100   2.241
48799W        W13784  16.759  37.091  14.834
48800W        W13785  44.925   3.643   0.005
48801W        W13786   7.828  39.120   1.923
48802W        W13787  24.227  42.980  10.522
48803W        W13788   1.465   5.791   4.532
48804W        W13789  10.153  28.451  12.389
48805W        W13790  35.964  25.880  13.405
48806W        W13791  41.959  40.199  13.766
48807W        W13792  18.275  21.217  12.286
48808W        W13793  35.114   7.391   3.260
48809W        W13794  35.887  12.647  12.364
48810W        W13795   2.103  20.842  14.515
48811W        W13796  39.457  39.624   1.001
48812W        W13797  18.370   7.080   3.637
48813W        W13798  13.143  18.857   2.871
48814W        W13799   8.486  20.802   1.011
48815W        W13800  18.931   9.270  14.937
48816W        W13801   4.461  39.608  14.615
48817W        W13802  38.564  30.142  14.557
48818W        W13803  22.381  34.473   1.363
48819W        W13804   7.917  15.263  13.657
48820W        W13805  24.965  42.565  10.705
48821W        W13806   1.202   3.864  14.421
48822W        W13807  10.605  19.187  12.297
48823W        W13808  41.761  41.135  10.853
48824W        W13809  23.524  16.906   4.588
48825W        W13810  43.500  27.732   1.074
48826W        W13811  12.932  42.869   4.904
48827W        W13812  36.747  38.581   1.205
48828W        W13813  13.854  24.151   1.405
48829W        W13814  13.329  31.446  11.330
48830W        W13815  14.783  18.118  13.945
48831W        W13816  26.765  31.914   4.952
48832W        W13817  37.552  25.049   1.718
48833W        W13818  36.341  23.510  10.869
48834W        W13819   1.277  17.871   3.469
48835W        W13820  18.276  16.344  12.158
48836W        W13821  10.196  18.215  14.982
48837W        W13822  37.791  25.884   4.711
48838W        W13823  43.243   5.811  12.463
48839W        W13824  12.186  39.179   1.817
48840W        W13825  33.501  11.378  12.880
48841W        W13826  23.485   4.742  14.847
48842W        W13827  40.479   7.266   0.356
48843W        W13828  23.164  28.105   3.306
48844W        W13829  10.980  17.165  10.702
48845W        W13830  21.847  23.470  11.263
48846W        W13831  31.460   6.227   4.578
48847W        W13832   7.759  35.880   2.317
48848W        W13833  31.984   5.763   1.412
48849W        W13834   7.431   5.492  14.328
48850W        W13835  40.517  16.495  12.938
48851W        W13836  11.680   8.579  14.436
48852W        W13837  42.077  21.103   0.990
48853W        W13838  16.128   0.389  10.705
48854W        W13839  37.817  16.368   4.068
48855W        W13840   6.825  36.304  14.964
48856W        W13841  27.990   7.416  12.898
48857W        W13842   4.250  24.616  12.970
48858W        W13843   3.450  32.117  14.430
48859W        W13844  30.339  25.737   0.752
48860W        W13845  23.732  27.041   3.876
48861W        W13846  30.128  44.190   3.581
48862W        W13847  12.154  35.616   4.089
48863W        W13848  22.995  43.977   0.760
48864W        W13849   2.254  13.657   3.710
48865W        W13850  19.307  28.547   2.699
48866W        W13851  10.227  20.482   4.573
48867W        W13852   3.326  16.784   2.739
48868W        W13853   2.762  26.181  14.529
48869W        W13854  31.704   3.982  11.098
48870W        W13855   7.212  25.514  12.996
48871W        W13856  26.168  28.423   2.472
48872W        W13857  27.042   0.209  13.107
48873W        W13858   1.128  40.552  13.376
48874W        W13859   3.404  44.930   3.680
48875W        W13860  28.557  14.232  10.674
48876W        W13861   7.825  17.198  13.433
48877W        W13862  36.846  17.100  13.880
48878W        W13863  36.329  32.624  11.650
48879W        W13864  16.804  38.883   2.490
48880W        W13865  33.000  30.609   4.135
48881W        W13866   3.096  25.537   3.309
48882W        W13867  31.221  10.558   0.320
48883W        W13868  41.198  10.230   0.843
48884W        W13869  25.590  41.193   3.545
48885W        W13870  12.547  41.482   1.675
48886W        W13871  34.391  33.921  12.041
48887W        W13872  14.878  10.669   0.774
48888W        W13873  17.741  18.680  11.486
48889W        W13874  15.737  35.847   1.905
48890W        W13875  15.135  38.873  11.030
48891W        W13876   0.768  43.447   4.060
48892W        W13877   3.052  18.757  12.464
48893W        W13878  12.240  31.510  14.509
48894W        W13879  20.843  29.406   0.885
48895W        W13880  29.428  16.277   2.921
48896W        W13881  10.791  14.003  11.058
48897W        W13882   0.056   5.799  13.081
48898W        W13883  36.109  19.094  11.640
48899W        W13884  31.995  18.169  14.334
48900W        W13885   6.321  35.518   0.713
48901W        W13886  40.411   2.062   3.246
48902W        W13887  32.091   8.163  11.542
48903W        W13888  29.197  19.011   1.108
48904W        W13889   9.740  32.555   3.704
48905W        W13890  11.608  43.520  12.974
48906W        W13891  18.766   0.492   1.495
48907W        W13892  22.216  25.071   0.869
48908W        W13893  37.514  37.609  11.240
48909W        W13894   6.046   9.841  14.266
48910W        W13895  23.656   8.855  11.285
48911W        W13896  28.749  16.220   0.857
48912W        W13897  42.652  39.344   0.409
48913W        W13898  14.327  33.410  12.468
48914W        W13899   0.531  39.757   3.589
48915W        W13900  40.933  32.872  13.533
48916W        W13901  24.565  15.360  13.541
48917W        W13902   9.126  11.334   3.869
48918W        W13903  41.414  10.958   1.706
48919W        W13904   7.596  32.577  13.536
48920W        W13905  11.259  39.556  12.897
48921W        W13906  43.456  43.368  13.487
48922W        W13907  39.034   6.086   4.739
48923W        W13908   4.361  11.125  14.711
48924W        W13909  11.082  36.821   4.131
48925W        W13910  27.014   8.320   0.976
48926W        W13911  19.531  28.971  14.451
48927W        W13912  16.354   1.309  10.698
48928W        W13913  24.895  28.357   4.043
48929W        W13914  12.658  36.625   0.232
48930W        W13915  42.953   9.867   0.819
48931W        W13916  44.946  18.090   3.025
48932W        W13917   6.260  32.605  11.779
48933W        W13918   3.877  29.171  13.267
48934W        W13919  23.608  40.327  11.556
48935W        W13920  36.973  15.661  13.454
48936W        W13921  40.349   9.584   4.309
48937W        W13922  16.199  41.850  11.959
48938W        W13923  39.107  43.410  14.945
48939W        W13924   0.057  14.092   3.576
48940W        W13925  22.925  43.321   3.176
48941W        W13926  23.119  36.927   3.510
48942W        W13927  27.401  26.221   1.863
48943W        W13928  33.141  19.770  12.507
48944W        W13929  21.634  39.340   2.769
48945W        W13930   8.805  16.214  11.370
48946W        W13931  13.854  18.713   2.337
48947W        W13932   1.506  44.355   3.047
48948W        W13933   3.893   7.165   1.417
48949W        W13934  44.077   4.694   0.955
48950W        W13935  16.105  20.475   4.681
48951W        W13936  11.567  43.240   0.718
48952W        W13937  15.662  19.052   0.770
48953W        W13938  29.274   9.840  14.479
48954W        W13939   1.386  43.335   1.738
48955W        W13940  20.000  25.897   2.280
48956W        W13941  34.335   0.450   3.534
48957W        W13942   0.793  16.345   3.319
48958W        W13943   7.199  19.931   4.054
48959W        W13944  32.452  32.393   3.070
48960W        W13945  21.085  29.871  11.937
48961W        W13946  14.244  21.074  13.960
48962W        W13947  11.320  31.675  10.862
48963W        W13948  18.688  24.864  12.031
48964W        W13949  36.170  39.395   0.950
48965W        W13950  17.856  40.064   4.075
48966W        W13951  29.148  26.631   2.709
48967W        W13952  30.600   4.628   2.264
48968W        W13953  19.337  37.425  11.358
48969W        W13954  35.958  13.996   3.694
48970W        W13955  21.666  12.837   1.829
48971W        W13956  11.531  40.045   2.314
48972W        W13957  21.101   6.197  13.937
48973W        W13958  40.269  19.418  12.430
48974W        W13959   0.941  25.181   3.760
48975W        W13960  30.582  44.087  13.361
48976W        W13961  34.572  30.870  14.919
48977W        W13962  32.042  13.727  13.802
48978W        W13963  10.871  29.066   1.837
48979W        W13964   8.042  36.989  11.795
48980W        W13965  22.490   7.715  10.969
48981W        W13966  44.476  30.118   3.670
48982W        W13967  10.237   3.264  10.675
48983W        W13968  11.548  44.231  11.146
48984W        W13969  29.047  35.291  10.707
48985W        W13970  33.168  35.391   4.072
48986W        W13971   8.419   8.672  14.512
48987W        W13972  26.765   9.734   9.783
48988W        W13973  18.331  14.223   0.549
48989W        W13974  18.993  14.691  14.383
48990W        W13975   1.172   1.394   2.707
48991W        W13976  13.265   1.744   1.191
48992W        W13977  12.045  38.387  14.913
48993W        W13978  32.955   1.262  14.786
48994W        W13979  29.827  22.211   0.976
48995W        W13980   5.376  43.787  10.911
48996W        W13981  20.432  11.156   0.581
48997W        W13982  43.813  43.436  11.419
48998W        W13983  13.724  34.034  12.184
48999W        W13984  21.284  28.116  12.614
49000W        W13985  23.552  42.058   1.335
49001W        W13986  35.073  32.778   5.053
49002W        W13987  39.876  14.562   0.698
49003W        W13988  41.728  29.596  12.952
49004W        W13989  24.933  11.027   2.816
49005W        W13990  19.988   9.990  11.271
49006W        W13991  37.485  23.765   1.233
49007W        W13992  26.919  33.232   9.945
49008W        W13993   9.951   2.975  11.034
49009W        W13994  13.265   0.092  13.324
49010W        W13995  36.975   9.803   2.173
49011W        W13996  14.891  29.397   0.748
49012W        W13997  13.117  26.528  13.385
49013W        W13998  10.382  36.646  11.240
49014W        W13999  40.187  44.884   1.828
49015W        W14000  35.089  44.964   2.021
49016W        W14001  15.761  23.605  14.874
49017W        W14002  42.539  39.768   3.808
49018W        W14003   8.495  41.866   0.132
49019W        W14004  11.724  25.091   1.910
49020W        W14005  32.840  43.696  11.073
49021W        W14006  21.298  24.175   3.283
49022W        W14007  10.099  32.210   0.837
49023W        W14008  38.272  35.429   5.043
49024W        W14009  20.055  24.193   4.598
49025W        W14010   7.980   5.907  10.574
49026W        W14011  13.839  37.120   3.278
49027W        W14012  40.863  30.136   3.281
49028W        W14013   9.397  22.078   2.837
49029W        W14014  10.620  15.345  11.404
49030W        W14015  44.212  16.275   2.756
49031W        W14016  36.872  15.700  12.010
49032W        W14017  44.117  41.583   2.638
49033W        W14018  41.795  34.102  12.873
49034W        W14019   6.248  40.013   1.988
49035W        W14020  41.740  15.229   9.824
49036W        W14021  18.808  38.852  11.223
49037W        W14022  16.591  22.682  10.199
49038W        W14023  43.006  14.785  12.558
49039W        W14024   2.614  41.472  12.143
49040W        W14025  31.372   4.651   2.731
49041W        W14026  38.957  19.108  14.735
49042W        W14027   7.130   6.804   1.641
49043W        W14028  39.766  21.273  13.887
49044W        W14029  19.184  14.501  13.951
49045W        W14030  37.496  26.967  14.691
49046W        W14031   5.737   4.394   3.640
49047W        W14032  15.611  18.334   4.355
49048W        W14033  23.900  43.976  13.627
49049W        W14034  24.693  21.728  13.465
49050W        W14035  21.209  27.462   3.756
49051W        W14036   3.952  34.549   4.290
49052W        W14037  37.368  38.358  13.993
49053W        W14038  24.592  40.106   2.478
49054W        W14039   2.426   2.000  13.509
49055W        W14040   5.215  10.734  11.047
49056W        W14041  18.675  18.616   0.457
49057W        W14042  31.349  34.524  13.780
49058W        W14043  20.630  16.722   3.385
49059W        W14044  40.532  13.722  10.605
49060W        W14045  19.181  32.837   3.310
49061W        W14046   6.923  23.638   1.426
49062W        W14047  22.022   2.493   2.841
49063W        W14048   1.524  37.355  13.255
49064W        W14049  32.468  19.759   0.559
49065W        W14050  36.177  16.704   1.895
49066W        W14051   6.629  12.735   0.434
49067W        W14052   8.216  44.723   2.692
49068W        W14053   2.695  37.312   0.190
49069W        W14054  42.971   2.009  12.436
49070W        W14055  12.421  38.454   1.446
49071W        W14056  44.316  26.408  13.447
49072W        W14057  30.641  27.683  11.848
49073W        W14058   0.966  19.186   0.525
49074W        W14059  42.526  11.153  10.611
49075W        W14060  19.234  22.266   0.564
49076W        W14061  40.034  20.466  12.566
49077W        W14062  20.067  13.956  11.469
49078W        W14063  35.961  22.559   0.249
49079W        W14064  25.390  44.059   0.884
49080W        W14065  24.755  15.428  11.011
49081W        W14066  32.901   9.230  12.972
49082W        W14067  26.917  24.760   0.807
49083W        W14068  27.531   5.335   5.044
49084W        W14069  41.676   9.598   3.355
49085W        W14070  21.217   8.155   0.443
49086W        W14071  22.477  21.848  10.449
49087W        W14072  43.490   1.878  14.964
49088W        W14073  23.666  13.900   1.769
49089W        W14074  12.176  23.460   1.164
49090W        W14075  23.220  44.822   0.659
49091W        W14076  18.212  11.723   2.894
49092W        W14077  11.180  16.606  14.340
49093W        W14078  25.473  21.241   4.814
49094W        W14079  12.216  41.374   4.624
49095W        W14080  15.306  34.118   1.633
49096W        W14081  17.691   0.259   0.540
49097W        W14082  40.737  24.573  11.265
49098W        W14083  18.271   1.897  10.711
49099W        W14084   7.684  25.216  14.787
49100W        W14085   5.869  24.303   1.470
49101W        W14086  11.372   4.778   4.793
49102W        W14087  22.257   9.268   0.373
49103W        W14088   7.923  16.523   4.398
49104W        W14089  22.499   8.746   0.390
49105W        W14090  12.238  20.535  14.217
49106W        W14091  30.028  40.889  11.640
49107W        W14092  26.138   2.814  14.506
49108W        W14093  14.795  31.438  11.653
49109W        W14094   2.228   9.381   4.594
49110W        W14095  27.433   0.822   2.297
49111W        W14096  17.561  23.544   0.922
49112W        W14097   2.195  42.429  10.715
49113W        W14098  28.612  38.780   0.406
49114W        W14099  14.224   6.377   2.909
49115W        W14100  23.477  43.350  11.606
49116W        W14101  40.787  18.805   2.728
49117W        W14102  33.360   0.957  14.831
49118W        W14103  12.308  16.010   2.936
49119W        W14104  36.605  30.728  11.584
49120W        W14105  21.877  16.010   3.283
49121W        W14106  14.202   0.693  14.855
49122W        W14107  38.507  37.862  12.538
49123W        W14108  21.031  29.217  14.945
49124W        W14109  34.855  27.185  13.371
49125W        W14110  19.948   7.144   9.812
49126W        W14111  28.062  35.293   0.916
49127W        W14112  20.618  39.514  13.171
49128W        W14113  21.084  27.070   4.703
49129W        W14114   3.733  43.946  12.039
49130W        W14115  43.057  40.724  11.116
49131W        W14116  24.731  10.855  10.728
49132W        W14117   1.426  41.481  11.937
49133W        W14118  16.784   2.962   1.634
49134W        W14119  19.101   5.212  13.060
49135W        W14120  14.878   9.710  13.038
49136W        W14121  15.802  24.984   1.948
49137W        W14122  38.967   3.342   3.666
49138W        W14123  33.430  29.262   1.183
49139W        W14124  19.720  28.175  10.927
49140W        W14125  11.555  25.121  11.104
49141W        W14126  13.691  10.169  13.785
49142W        W14127   1.871   5.698  10.757
49143W        W14128   1.758  35.076   4.159
49144W        W14129  28.728  26.094  12.258
49145W        W14130  26.740   6.829  11.610
49146W        W14131  33.110  34.548  12.579
49147W        W14132   1.681   5.223   0.936
49148W        W14133  37.521   1.056   4.071
49149W        W14134   3.972  22.502  11.564
49150W        W14135  28.771  17.175   2.810
49151W        W14136  14.020  34.449  14.817
49152W        W14137   2.875  19.636   1.440
49153W        W14138  28.552  19.719  14.830
49154W        W14139   0.671  28.107   0.759
49155W        W14140  20.254  41.229  10.811
49156W        W14141  28.579  13.101   0.909
49157W        W14142  12.897  22.770  12.653
49158W        W14143  24.161  34.409   2.711
49159W        W14144   6.073  37.565   1.374
49160W        W14145  41.743   6.512   2.611
49161W        W14146  20.363  19.635  10.709
49162W        W14147  19.265  22.029  11.479
49163W        W14148  43.470  29.694   0.687
49164W        W14149  22.014  34.600   2.966
49165W        W14150  10.409  21.158   1.036
49166W        W14151  18.526  37.542   5.009
49167W        W14152  35.563   6.647  13.800
49168W        W14153  19.674   3.454  12.937
49169W        W14154  36.395  27.353  11.011
49170W        W14155   4.446   8.820  10.671
49171W        W14156   0.320  18.291  11.331
49172W        W14157   9.877  33.188   4.884
49173W        W14158   6.321  21.678   3.758
49174W        W14159  29.366  44.967  13.130
49175W        W14160  15.784  33.934  14.795
49176W        W14161  12.130  14.040  11.550
49177W        W14162   2.476   0.844   3.960
49178W        W14163  28.947  24.290  13.992
49179W        W14164   7.679  24.208   4.293
49180W        W14165  33.922  32.572   1.677
49181W        W14166  27.309  13.319   1.153
49182W        W14167  24.074  41.458  14.780
49183W        W14168   3.972   9.339  11.074
49184W        W14169   3.468  38.006  11.964
49185W        W14170  35.797  44.611   3.228
49186W        W14171  24.564  15.279   0.063
49187W        W14172  23.278  39.646  12.994
49188W        W14173  19.163   8.209  13.680
49189W        W14174  12.606  41.288  11.539
49190W        W14175   8.827  43.444  14.249
49191W        W14176  17.157   1.427   1.035
49192W        W14177  40.503  21.227  11.456
49193W        W14178  39.745   2.879   2.808
49194W        W14179  16.102  35.581   4.641
49195W        W14180   4.855  34.849   3.272
49196W        W14181   3.323   2.359  13.902
49197W        W14182  30.362  26.251   4.132
49198W        W14183  29.455   6.352  10.301
49199W        W14184  38.124  10.973  12.986
49200W        W14185  20.132  38.923  11.449
49201W        W14186  38.419  21.668   0.813
49202W        W14187  43.540  23.068  12.928
49203W        W14188  26.564  14.381  10.689
49204W        W14189  22.116  42.733   4.068
49205W        W14190  25.580  22.660  11.175
49206W        W14191  40.045  12.605  11.104
49207W        W14192  39.991  31.979  13.413
49208W        W14193  29.175  12.772  12.399
49209W        W14194   6.253  30.914  13.013
49210W        W14195   5.428  18.702  12.522
49211W        W14196  16.354  32.031  12.562
49212W        W14197  27.850  31.944  11.587
49213W        W14198  42.481  26.671  11.676
49214W        W14199  38.873  10.589  12.589
49215W        W14200   0.397  17.981   0.820
49216W        W14201  32.733  41.077  13.043
49217W        W14202  32.035  40.838   4.827
49218W        W14203  12.699   0.335   2.858
49219W        W14204  38.642  12.589  10.678
49220W        W14205  16.794   2.478  12.506
49221W        W14206   4.937  28.469   3.184
49222W        W14207  14.970  41.242   4.696
49223W        W14208  19.696  25.087   3.599
49224W        W14209  14.972  19.234   0.329
49225W        W14210  25.479   9.575  13.047
49226W        W14211  28.892  33.913   0.361
49227W        W14212   1.326  12.560   2.435
49228W        W14213  43.544  39.560  13.797
49229W        W14214  43.243   2.945   4.797
49230W        W14215   6.364  36.395  11.672
49231W        W14216  14.790  29.949  12.064
49232W        W14217  36.493  31.889  12.827
49233W        W14218  26.711  33.252   4.620
49234W        W14219  40.436  22.765   3.321
49235W        W14220  25.615  41.176  14.976
49236W        W14221  18.836  23.528   3.418
49237W        W14222  35.280   0.824   4.171
49238W        W14223   0.321  26.165  14.557
49239W        W14224   3.796  37.566   3.261
49240W        W14225  29.064  44.156   4.645
49241W        W14226  11.684   6.393  12.269
49242W        W14227  37.995  28.253   2.823
49243W        W14228  10.529  43.847   4.373
49244W        W14229  12.433  29.413   3.715
49245W        W14230  28.696  21.129  11.038
49246W        W14231  29.200  39.842  14.029
49247W        W14232   1.811  28.411   0.765
49248W        W14233  19.766  26.329   4.740
49249W        W14234  32.195  17.856  10.906
49250W        W14235  24.000  24.237   4.110
49251W        W14236  37.703  37.590   2.904
49252W        W14237  11.590   6.226   1.799
49253W        W14238  44.041  27.651   0.671
49254W        W14239   6.212   4.909  14.107
49255W        W14240   8.763  37.255  11.551
49256W        W14241  15.968  14.123  14.908
49257W        W14242   0.827  15.873   4.555
49258W        W14243  37.957  11.486  14.439
49259W        W14244  44.424  37.115  12.920
49260W        W14245  36.113  38.548  14.430
49261W        W14246  11.439  27.437   4.041
49262W        W14247  42.762  27.486  14.493
49263W        W14248  11.438   8.923   2.447
49264W        W14249   4.456  25.163   4.240
49265W        W14250  14.431  39.314   3.638
49266W        W14251  36.238  39.621   0.385
49267W        W14252  31.355   2.056   0.735
49268W        W14253  41.891  21.044  12.514
49269W        W14254  44.729   6.265  10.910
49270W        W14255   3.210   4.451  13.472
49271W        W14256   3.138  23.742  12.985
49272W        W14257  21.783  37.575  11.621
49273W        W14258  26.000  11.855   3.138
49274W        W14259  27.904   9.697   4.632
49275W        W14260  19.229  32.455   2.912
49276W        W14261  39.207  37.802  12.048
49277W        W14262   8.921  33.426  13.919
49278W        W14263  23.652   3.382   4.000
49279W        W14264  10.712  19.519  14.788
49280W        W14265   3.843  27.463   1.718
49281W        W14266  27.253  18.283   2.719
49282W        W14267   8.177  16.503  14.228
49283W        W14268  19.259  41.887   3.185
49284W        W14269  10.505  36.348   5.191
49285W        W14270  29.273  43.834   3.246
49286W        W14271   1.974  41.841   1.343
49287W        W14272  12.135  23.743  10.664
49288W        W14273   3.945  19.850   1.909
49289W        W14274  22.968   2.203   1.216
49290W        W14275  32.881  37.842   0.761
49291W        W14276  30.204  29.990  12.656
49292W        W14277  24.747  23.500   4.612
49293W        W14278  28.004  15.628  13.837
49294W        W14279  29.900  16.028  14.928
49295W        W14280  31.358  40.040  13.513
49296W        W14281  16.819  35.381   1.742
49297W        W14282  11.166  14.775   0.825
49298W        W14283   7.092  26.234   3.160
49299W        W14284   7.702  32.957   0.576
49300W        W14285  17.225   9.674  12.499
49301W        W14286  30.901  19.536  12.881
49302W        W14287  23.482  37.462  10.881
49303W        W14288  39.897  17.144  14.214
49304W        W14289  35.494  14.827  13.958
49305W        W14290   3.829  27.733  12.383
49306W        W14291  13.158   7.857   0.421
49307W        W14292  31.219  15.235   2.299
49308W        W14293   3.222   7.295   3.354
49309W        W14294  17.258  35.311   0.988
49310W        W14295  14.078  14.697  14.862
49311W        W14296   3.264   7.841   2.884
49312W        W14297  21.523  40.527  10.645
49313W        W14298  27.714  44.608  11.202
49314W        W14299  21.800  32.098  13.892
49315W        W14300  41.009   9.623   0.408
49316W        W14301  14.586  30.410   1.802
49317W        W14302   7.178  44.586   2.758
49318W        W14303   2.415  33.131  12.980
49319W        W14304  31.194  15.808  14.479
49320W        W14305  30.049  43.901   4.450
49321W        W14306   5.409  41.773   1.815
49322W        W14307  22.145  12.604   1.913
49323W        W14308   4.821  30.955  14.898
49324W        W14309  12.274  22.687  14.884
49325W        W14310  37.098  27.741   4.149
49326W        W14311   5.774  29.928   3.796
49327W        W14312  18.111  18.271   3.630
49328W        W14313   3.257   5.409   3.208
49329W        W14314  20.030  25.560  12.599
49330W        W14315  44.596  30.439  10.034
49331W        W14316  12.297   5.945   3.280
49332W        W14317  25.772  42.127  10.718
49333W        W14318  35.796  18.098   1.462
49334W        W14319  36.179   9.999   4.047
49335W        W14320   4.666  15.186   4.659
49336W        W14321   4.241  41.429  13.521
49337W        W14322  12.730   0.930   0.174
49338W        W14323   6.775  21.133  13.843
49339W        W14324  27.438   1.516   2.741
49340W        W14325  10.801  12.048   2.802
49341W        W14326  26.135  15.968   4.611
49342W        W14327   4.219  38.540  10.533
49343W        W14328   4.104  33.527  13.855
49344W        W14329  15.078  37.888   2.147
49345W        W14330  37.161  19.775  14.996
49346W        W14331   2.518   1.755  12.360
49347W        W14332   7.422  36.147   4.070
49348W        W14333  36.513  40.351   2.309
49349W        W14334  29.883   8.668  11.620
49350W        W14335  14.312   5.209  12.925
49351W        W14336  34.862  23.669   1.882
49352W        W14337  30.990  15.761   0.831
49353W        W14338  41.293  39.338  13.464
49354W        W14339  37.312  31.128  14.910
49355W        W14340  15.393  13.071  12.919
49356W        W14341  14.256  10.884   1.457
49357W        W14342   4.967  26.928   1.655
49358W        W14343  24.214  41.285  12.006
49359W        W14344  19.574   2.832   3.801
49360W        W14345  28.350  40.542  11.455
49361W        W14346  36.553   8.906  13.016
49362W        W14347  18.753  40.367   2.037
49363W        W14348  19.222  38.684  12.449
49364W        W14349  44.292  36.485  10.585
49365W        W14350  18.645   8.603   4.081
49366W        W14351  23.621   1.976  12.880
49367W        W14352   1.679  16.957   3.245
49368W        W14353  22.444  40.242  10.624
49369W        W14354  35.049  11.738  12.412
49370W        W14355   2.452   7.780   3.803
49371W        W14356  15.821  39.951  10.603
49372W        W14357  17.338  36.666   2.828
49373W        W14358  12.209   9.818   3.787
49374W        W14359  38.525  39.926   1.367
49375W        W14360  43.535   9.446   0.668
49376W        W14361   4.587   6.098   3.779
49377W        W14362  37.579  42.745   2.088
49378W        W14363  32.024  21.619  12.960
49379W        W14364  31.208   0.470   1.244
49380W        W14365  44.531  18.762   3.209
49381W        W14366  17.143  37.325  10.223
49382W        W14367  22.262  17.840   0.856
49383W        W14368  20.125   8.583  12.130
49384W        W14369  34.413   6.214  10.991
49385W        W14370  31.909  26.179  11.345
49386W        W14371   0.364   1.740  11.698
49387W        W14372   1.017  26.185   2.805
49388W        W14373  18.657   4.903  13.836
49389W        W14374  12.311  40.387  13.444
49390W        W14375   6.855  30.534   2.727
49391W        W14376   9.278   8.732   4.712
49392W        W14377  18.227   7.162   1.692
49393W        W14378  15.778   5.367   1.193
49394W        W14379  40.660   8.656   2.708
49395W        W14380  21.798   8.427   2.876
49396W        W14381  44.279   8.582   1.687
49397W        W14382   4.330  34.090  13.140
49398W        W14383  37.809  25.531   3.635
49399W        W14384  18.778  18.609   2.799
49400W        W14385   1.988   5.225  11.591
49401W        W14386   3.124  10.400  11.450
49402W        W14387  43.923  35.745  14.280
49403W        W14388  39.562  35.440   2.630
49404W        W14389  15.642  33.547  12.171
49405W        W14390  13.332  36.899   4.605
49406W        W14391  39.328  30.043   4.250
49407W        W14392  13.152   8.431   0.634
49408W        W14393  43.917   3.653   2.661
49409W        W14394  33.354   4.734   2.762
49410W        W14395  23.360  31.119   3.691
49411W        W14396   4.753   5.440   4.092
49412W        W14397   7.814   5.728  11.052
49413W        W14398  31.103  16.660  14.805
49414W        W14399  25.493  13.312  11.299
49415W        W14400  36.920  20.655   4.498
49416W        W14401   1.234  24.056   1.297
49417W        W14402   2.470  17.073   5.038
49418W        W14403   7.403  11.991   4.594
49419W        W14404  42.833  15.926  12.128
49420W        W14405  34.587   2.668   2.879
49421W        W14406  16.521  31.970  13.425
49422W        W14407   2.315  38.141   1.688
49423W        W14408  39.867  11.335   2.781
49424W        W14409  35.308   9.902  14.201
49425W        W14410  17.778   9.240   0.742
49426W        W14411  42.070   2.406   5.260
49427W        W14412  26.529   6.296   2.845
49428W        W14413  44.744  26.533  14.037
49429W        W14414  18.568  34.819   1.329
49430W        W14415  24.058  40.508  10.113
49431W        W14416   2.246  40.460  11.690
49432W        W14417  41.895   4.481   3.383
49433W        W14418  29.694  14.611  11.130
49434W        W14419  32.083  35.113  10.616
49435W        W14420  35.252  19.232  10.630
49436W        W14421  23.913   1.695   5.360
49437W        W14422  44.302  41.538   2.169
49438W        W14423  30.929  35.039   0.868
49439W        W14424  26.689  33.802   2.459
49440W        W14425   7.308  43.883   3.893
49441W        W14426  44.423  26.258   3.681
49442W        W14427  15.868  42.938  12.619
49443W        W14428  24.503  24.484   2.820
49444W        W14429  12.006  34.302   3.780
49445W        W14430  12.571  42.571  12.977
49446W        W14431  39.021  11.003   0.658
49447W        W14432  27.216   6.277   4.884
49448W        W14433  18.770  40.913   3.185
49449W        W14434   0.433  32.756  11.645
49450W        W14435  34.246  23.909  10.794
49451W        W14436  38.930  28.591  12.011
49452W        W14437   7.276  12.646  11.081
49453W        W14438   1.450  33.599   2.322
49454W        W14439  14.837  32.966  10.447
49455W        W14440  44.499   9.149   1.361
49456W        W14441  16.628   7.209   0.871
49457W        W14442  32.145  16.032   1.402
49458W        W14443   5.723  34.464   0.949
49459W        W14444  33.487   9.661  13.582
49460W        W14445  12.765   9.779   0.771
49461W        W14446   4.753  37.325   4.878
49462W        W14447  42.465   3.907   0.234
49463W        W14448   0.679  40.303   3.629
49464W        W14449  16.137  18.857  12.892
49465W        W14450  34.264   6.745  11.857
49466W        W14451  12.426  43.601  13.473
49467W        W14452  31.234  12.385   1.403
49468W        W14453  22.765   0.734  11.192
49469W        W14454  42.712  11.815  13.877
49470W        W14455  35.009  21.582  13.550
49471W        W14456  12.719  11.524   5.077
49472W        W14457   2.673   6.276   4.170
49473W        W14458   2.983  35.770  14.062
49474W        W14459  44.338  28.618  14.451
49475W        W14460  16.976   2.661   3.331
49476W        W14461  37.530  27.623   3.165
49477W        W14462  26.360   8.990   1.753
49478W        W14463  15.328  31.613  11.637
49479W        W14464  17.811  41.026   4.134
49480W        W14465  44.006  23.036   2.793
49481W        W14466   5.270  42.581  13.964
49482W        W14467   3.816   1.810   2.238
49483W        W14468  32.488  23.116  12.688
49484W        W14469  19.777   1.156   2.752
49485W        W14470  11.788  19.003  13.164
49486W        W14471  39.854  15.326  11.936
49487W        W14472  36.349   2.849   4.972
49488W        W14473  29.051  23.726   0.451
49489W        W14474  40.343  44.314   2.836
49490W        W14475  32.714  38.284   0.474
49491W        W14476   9.450  43.566  13.394
49492W        W14477  11.844  10.363  12.588
49493W        W14478  39.387  25.245   0.964
49494W        W14479  28.920  40.353   0.704
49495W        W14480   2.839   7.576   0.297
49496W        W14481  39.446  31.153   1.745
49497W        W14482  11.281  23.321   0.715
49498W        W14483   4.217  39.997  14.863
49499W        W14484  16.291  36.444  10.449
49500W        W14485  32.091  42.809   3.334
49501W        W14486  35.472  15.106   1.717
49502W        W14487   7.954  31.520   3.233
49503W        W14488  25.104   9.840   4.556
49504W        W14489   2.873  21.564   3.681
49505W        W14490   1.515  16.689  12.026
49506W        W14491  33.499  40.877   3.132
49507W        W14492  35.621  15.722  10.967
49508W        W14493   3.706  43.505  11.159
49509W        W14494  35.532   2.922  14.909
49510W        W14495  14.754  20.444   2.772
49511W        W14496  22.087  10.735   3.161
49512W        W14497  31.192  25.397  11.626
49513W        W14498  35.462  14.476  10.847
49514W        W14499  21.283  37.531   1.633
49515W        W14500  15.693   1.531   1.682
49516W        W14501  43.485  27.875   1.915
49517W        W14502  24.507  40.492  13.100
49518W        W14503   8.725  40.988   3.554
49519W        W14504  41.037  29.603   4.114
49520W        W14505  13.072  36.032  11.918
49521W        W14506  37.884  22.003  11.952
49522W        W14507  33.921   6.333  11.127
49523W        W14508  41.986  43.429  11.913
49524W        W14509   1.471  39.884  11.668
49525W        W14510  15.753  42.357  10.721
49526W        W14511  11.869  41.060  13.492
49527W        W14512  36.344  41.863   1.746
49528W        W14513  19.257  17.228  12.309
49529W        W14514  34.397  21.671  12.596
49530W        W14515  17.580  23.536  13.413
49531W        W14516  31.786  12.842   1.198
49532W        W14517  19.124  42.532   1.249
49533W        W14518  37.073  33.951   4.424
49534W        W14519  11.949   6.497  13.301
49535W        W14520   4.720  17.060  12.557
49536W        W14521  43.994  30.308   3.565
49537W        W14522  16.556  11.770  14.334
49538W        W14523  38.892   1.873   3.166
49539W        W14524  25.992  10.110  14.018
49540W        W14525  19.149  25.060  13.934
49541W        W14526  34.973  14.194  11.546
49542W        W14527  31.661  23.791  12.558
49543W        W14528  21.649  28.582   1.847
49544W        W14529  24.090  42.196  11.590
49545W        W14530  37.918  11.733  13.963
49546W        W14531  33.884  26.573  14.762
49547W        W14532   6.331  33.652   0.380
49548W        W14533   8.375   0.911   1.961
49549W        W14534  22.240   6.680   0.015
49550W        W14535   2.720   9.751   3.721
49551W        W14536  27.726  24.900  12.016
49552W        W14537  44.016  44.686  12.055
49553W        W14538  12.713  27.799   9.849
49554W        W14539  33.850  41.385  12.579
49555W        W14540  24.339  36.329  12.654
49556W        W14541  26.275  21.811   2.657
49557W        W14542  22.377  12.659  12.135
49558W        W14543  16.106  24.111   3.793
49559W        W14544  24.199  10.187  13.355
49560W        W14545   5.052   1.231   5.015
49561W        W14546  38.309  28.011   0.344
49562W        W14547  15.209  42.246  14.557
49563W        W14548  20.128  16.286   0.738
49564W        W14549  27.580  30.165   3.308
49565W        W14550  28.531  44.647   0.865
49566W        W14551  27.206  42.239   3.679
49567W        W14552  12.473  30.382  14.090
49568W        W14553  11.140  26.972  14.975
49569W        W14554  29.157  33.338  12.624
49570W        W14555  20.136  12.214  12.106
49571W        W14556   9.436  22.898  13.779
49572W        W14557   3.460  35.400   3.761
49573W        W14558  18.241  29.172   0.409
49574W        W14559  13.676  25.995  12.905
49575W        W14560  32.984  14.617  14.532
49576W        W14561  29.126  12.120  11.161
49577W        W14562  38.416  12.837  11.559
49578W        W14563  41.434  29.500   4.452
49579W        W14564  30.937  22.835   0.351
49580W        W14565   6.482  41.921   2.686
49581W        W14566  27.541   0.406   4.771
49582W        W14567  19.951  41.550   2.883
49583W        W14568  44.354  35.769   4.693
49584W        W14569  37.075  34.082   2.171
49585W        W14570  35.985  17.339  14.847
49586W        W14571  44.252  25.718   5.493
49587W        W14572  14.611  11.027   2.950
49588W        W14573   4.845  15.726   0.830
49589W        W14574  18.905  33.064   2.898
49590W        W14575  23.041  21.667  12.481
49591W        W14576  17.854  12.164  12.071
49592W        W14577  38.903   2.052   1.201
49593W        W14578  25.429   0.685   4.337
49594W        W14579  20.596  43.964   1.874
49595W        W14580  32.068   1.379  11.646
49596W        W14581   1.416  38.387   3.891
49597W        W14582  42.967  31.646   4.587
49598W        W14583  43.969  11.826   1.818
49599W        W14584   6.681  36.920   1.460
49600W        W14585  22.939   2.324   4.591
49601W        W14586  13.714  11.225   3.171
49602W        W14587  38.833  31.069  10.655
49603W        W14588  26.205  26.462  10.621
49604W        W14589  20.741   8.156   0.272
49605W        W14590  13.289  22.123  14.248
49606W        W14591  42.710  33.238  13.421
49607W        W14592   3.852  41.901  13.476
49608W        W14593  23.209  29.145  14.595
49609W        W14594  20.215  38.315   2.909
49610W        W14595  21.791  23.071   0.264
49611W        W14596  42.294  44.558  13.947
49612W        W14597  42.779  10.381  14.999
49613W        W14598   4.428   6.189  13.921
49614W        W14599   3.217  20.250   3.633
49615W        W14600   1.776   9.949  13.449
49616W        W14601  32.542  41.478   1.297
49617W        W14602  14.782   1.492  13.971
49618W        W14603   2.587  24.689  10.989
49619W        W14604   6.719  25.365  12.335
49620W        W14605  30.850   2.930   3.800
49621W        W14606  42.098   2.322  14.829
49622W        W14607   8.967  38.811   3.267
49623W        W14608  32.182  12.149  13.469
49624W        W14609  31.085  41.760   1.725
49625W        W14610  34.870  34.142  11.968
49626W        W14611  21.173  37.218   3.381
49627W        W14612  19.647  13.856  13.418
49628W        W14613  22.072  31.852   0.685
49629W        W14614  41.421  30.590   1.371
49630W        W14615  23.974  36.852   0.314
49631W        W14616   0.742  18.308   0.405
49632W        W14617  16.603  39.257  12.436
49633W        W14618  19.062  39.892   3.581
49634W        W14619   9.031  28.786   4.460
49635W        W14620  14.255  38.439   3.432
49636W        W14621  23.641  19.292  10.853
49637W        W14622  14.577   6.479   3.510
49638W        W14623  13.095  23.160  11.265
49639W        W14624  42.239  42.403  14.326
49640W        W14625  14.103  11.573   5.080
49641W        W14626  35.634  37.084   3.705
49642W        W14627  36.151   1.857  10.927
49643W        W14628  32.457  29.110   2.201
49644W        W14629   9.629  31.104   2.794
49645W        W14630  41.505  33.311   0.264
49646W        W14631  35.551  20.492  13.917
49647W        W14632  42.953  38.835   3.995
49648W        W14633   8.863  36.647  14.302
49649W        W14634  19.613  35.952   3.605
49650W        W14635  26.546   5.912   4.582
49651W        W14636  39.014  26.629   2.634
49652W        W14637  31.318  10.955  10.419
49653W        W14638  25.856  41.964  12.527
49654W        W14639  19.341  42.741  11.190
49655W        W14640  24.510  24.159  10.889
49656W        W14641  25.130  42.558  13.435
49657W        W14642  24.829  16.038   3.673
49658W        W14643  26.154   3.393  13.821
49659W        W14644  15.904   7.010  14.418
49660W        W14645   7.470  24.613   0.681
49661W        W14646  44.926  39.886   0.768
49662W        W14647   0.707  39.954   2.272
49663W        W14648  40.236  39.496   1.449
49664W        W14649  44.399  14.350   0.721
49665W        W14650  36.525   1.513  10.673
49666W        W14651  24.001  32.926   3.282
49667W        W14652   0.761  42.308   0.953
49668W        W14653  31.253   3.375   0.792
49669W        W14654  16.009  23.780  13.103
49670W        W14655  12.433   7.126   2.191
49671W        W14656   8.674  34.301   3.321
49672W        W14657   4.204  37.087  13.763
49673W        W14658   6.370  42.568   3.121
49674W        W14659  43.925  38.925   4.136
49675W        W14660  29.012   3.962   2.171
49676W        W14661  14.807  15.671   1.918
49677W        W14662  41.716  27.641  11.800
49678W        W14663   1.246  13.223  12.440
49679W        W14664   2.224   0.761   0.303
49680W        W14665  38.954   3.721   3.266
49681W        W14666  31.510  36.345  10.748
49682W        W14667  10.696   3.688  10.574
49683W        W14668  17.145  31.024   3.758
49684W        W14669  31.553  13.845  13.773
49685W        W14670   0.994  31.041   0.310
49686W        W14671  34.867  33.984   1.211
49687W        W14672  14.753  12.618   2.870
49688W        W14673   5.402  44.303   4.608
49689W        W14674   1.735  18.142  11.981
49690W        W14675   9.041  11.267  13.779
49691W        W14676  22.995  35.409   1.265
49692W        W14677   4.746  26.725   0.706
49693W        W14678  20.575  32.313  13.993
49694W        W14679  41.128   0.365   0.987
49695W        W14680  33.441  17.328   1.167
49696W        W14681   4.765  12.722  14.464
49697W        W14682  35.952   8.347  12.481
49698W        W14683  42.316  26.561  12.974
49699W        W14684  34.324  23.987   1.244
49700W        W14685  32.257  27.099  12.580
49701W        W14686   8.939  33.037  14.369
49702W        W14687   1.418  18.669  14.208
49703W        W14688  33.869   3.583   0.882
49704W        W14689   7.252  12.895   3.795
49705W        W14690  34.295  23.715   2.720
49706W        W14691   8.426  35.137  11.247
49707W        W14692  42.385   4.954   4.467
49708W        W14693   9.441  36.448  11.095
49709W        W14694  15.198  11.608   3.864
49710W        W14695  14.194  34.824   3.772
49711W        W14696  26.607  32.967   2.625
49712W        W14697  12.343  40.356  11.466
49713W        W14698   5.796   6.714   2.728
49714W        W14699  12.566  29.190   0.353
49715W        W14700  13.774  34.469   2.691
49716W        W14701  35.892  39.017  14.445
49717W        W14702   3.589  30.868   3.807
49718W        W14703   9.277  15.127  11.938
49719W        W14704  11.697  17.601  13.493
49720W        W14705  16.158  22.871   9.921
49721W        W14706  13.286  19.667   3.450
49722W        W14707  21.313  41.450  13.378
49723W        W14708  30.016  43.857   2.088
49724W        W14709  28.417  10.091  13.872
49725W        W14710  13.732  12.847  11.566
49726W        W14711  28.639   9.633  13.966
49727W        W14712   9.223  14.573  14.400
49728W        W14713  40.553   6.668  14.898
49729W        W14714  31.419   8.145   4.106
49730W        W14715  24.465  43.824  14.929
49731W        W14716  11.314   4.744  12.004
49732W        W14717  36.148  29.900  11.161
49733W        W14718   8.864  34.057   3.774
49734W        W14719  21.476  22.110  11.453
49735W        W14720  31.226   6.648  11.103
49736W        W14721  39.047  30.071  11.523
49737W        W14722   4.663  36.145   2.791
49738W        W14723   8.683  31.128   0.291
49739W        W14724   1.272  10.577  11.642
49740W        W14725   9.806  39.778   2.116
49741W        W14726  36.620  10.658  12.512
49742W        W14727   1.817  18.701   2.897
49743W        W14728  24.001  19.493  12.468
49744W        W14729  22.863  17.069  11.274
49745W        W14730  18.791  30.924   0.866
49746W        W14731  42.946  19.981   2.667
49747W        W14732   6.764  37.912  14.945
49748W        W14733  21.652  28.546  14.925
49749W        W14734   9.251  28.854   2.076
49750W        W14735  37.366   7.208  10.611
49751W        W14736  13.496  33.827  13.823
49752W        W14737  14.136  23.433   4.115
49753W        W14738  23.416  31.652  11.060
49754W        W14739  31.195  31.378   2.876
49755W        W14740  28.686  41.960   1.684
49756W        W14741  20.133  22.267   1.503
49757W        W14742  27.013  36.423  12.874
49758W        W14743  29.356  38.200   2.592
49759W        W14744   6.999  22.493   1.383
49760W        W14745  15.839  28.991  12.274
49761W        W14746  11.294  29.646   4.381
49762W        W14747  28.988  26.975   4.130
49763W        W14748  18.549   1.695   2.835
49764W        W14749  26.624  26.952   3.304
49765W        W14750   3.386  44.795  12.114
49766W        W14751   4.487  30.517  12.482
49767W        W14752  37.580  39.950   0.733
49768W        W14753   4.942  27.221  10.053
49769W        W14754  23.606   8.605  13.979
49770W        W14755   7.959  39.670  12.273
49771W        W14756  16.706  19.896  14.924
49772W        W14757  23.944  26.821  12.082
49773W        W14758  41.197   1.835   2.187
49774W        W14759  27.599  36.163  14.884
49775W        W14760   9.817  10.888  11.403
49776W        W14761  27.271  14.847   2.272
49777W        W14762   4.588  10.468  13.857
49778W        W14763  25.054  28.536   4.505
49779W        W14764   6.205  40.887  11.194
49780W        W14765  27.588  38.453  10.539
49781W        W14766  14.726  21.129   1.966
49782W        W14767   9.334   6.942  14.535
49783W        W14768  43.954  17.549   5.079
49784W        W14769   9.456   1.880  12.956
49785W        W14770   8.395  20.082  14.826
49786W        W14771  44.691  35.377   3.380
49787W        W14772  12.037  12.221   2.745
49788W        W14773   9.848  13.839   1.255
49789W        W14774  33.450  13.691   2.940
49790W        W14775  29.087  11.239  11.575
49791W        W14776  11.136  35.072  10.561
49792W        W14777  12.305  10.137  12.602
49793W        W14778  31.417  32.840  14.951
49794W        W14779  37.904  23.555  14.301
49795W        W14780  39.508  22.106  12.940
49796W        W14781  12.266  33.145  10.760
49797W        W14782  41.755  33.045   4.979
49798W        W14783  27.497  21.976   3.301
49799W        W14784  41.210  29.099   4.016
49800W        W14785  38.581  12.130   2.179
49801W        W14786  20.800  35.819   4.421
49802W        W14787  23.285  18.495  14.833
49803W        W14788  32.671  28.115  10.631
49804W        W14789   5.880  26.787  14.412
49805W        W14790   5.804  23.626   4.244
49806W        W14791  24.171  40.297   1.401
49807W        W14792  36.566  31.022  12.021
49808W        W14793  14.620  36.415  14.077
49809W        W14794  39.375   4.919  12.982
49810W        W14795  41.164  22.009   1.369
49811W        W14796  20.168  15.962   1.170
49812W        W14797  42.521   9.580  11.341
49813W        W14798  31.952  43.815  12.416
49814W        W14799  16.085   2.102  11.559
49815W        W14800  40.424  27.698   3.740
49816W        W14801  43.482   5.978   1.823
49817W        W14802   0.239   7.698  13.797
49818W        W14803  24.530  32.881  13.455
49819W        W14804  23.277  15.745  10.285
49820W        W14805  35.337  44.434  12.817
49821W        W14806  22.771  35.308  10.134
49822W        W14807  21.725   9.223   1.226
49823W        W14808  42.244  20.733   3.963
49824W        W14809  31.548   6.964   0.271
49825W        W14810  25.141  19.447  11.238
49826W        W14811   6.383   2.903  13.216
49827W        W14812  38.484  40.993   2.489
49828W        W14813   7.752   1.218   0.021
49829W        W14814  13.653   2.732  12.896
49830W        W14815  38.083  30.639  14.840
49831W        W14816  42.981  26.242   5.415
49832W        W14817  20.533  43.621  12.056
49833W        W14818  19.000  28.944   2.836
49834W        W14819  33.307  28.846  10.745
49835W        W14820  20.642  22.469  14.003
49836W        W14821  18.525  20.288  10.146
49837W        W14822  25.573  26.234   3.167
49838W        W14823  14.531   1.338  11.084
49839W        W14824   9.961  40.428  12.606
49840W        W14825   8.819  10.812   3.944
49841W        W14826   0.905   2.695   2.767
49842W        W14827  20.181  41.432   2.394
49843W        W14828   1.466  19.003  12.529
49844W        W14829  43.033  31.462  13.308
49845W        W14830  26.469  42.425   5.001
49846W        W14831  37.389  13.640   1.718
49847W        W14832  15.195  15.978  12.038
49848W        W14833  29.482  24.570   0.398
49849W        W14834  18.118  43.296   0.564
49850W        W14835   3.745  23.563   1.678
49851W        W14836  44.767  20.346  11.919
49852W        W14837  31.963  14.258  14.965
49853W        W14838   1.275   1.901   1.616
49854W        W14839  23.850  42.019  12.904
49855W        W14840   5.482  28.916  12.035
49856W        W14841  34.030  15.085  14.412
49857W        W14842  29.676   3.283   3.139
49858W        W14843   9.939  20.596  10.742
49859W        W14844  20.715  16.886  10.898
49860W        W14845  30.354   5.614  14.042
49861W        W14846   2.738  16.159  14.278
49862W        W14847  36.070  39.551  10.618
49863W        W14848  43.390   2.574   1.096
49864W        W14849   0.479  40.877   3.615
49865W        W14850  23.811  38.504   0.927
49866W        W14851  22.221   7.841   1.270
49867W        W14852  43.745   9.927   3.643
49868W        W14853  10.655  12.783   3.570
49869W        W14854  39.271  22.018  11.499
49870W        W14855  26.734  32.063   2.772
49871W        W14856  36.131  14.473   3.724
49872W        W14857   1.268  25.630   1.180
49873W        W14858  32.438  39.027   1.266
49874W        W14859  42.265  34.643   0.706
49875W        W14860  36.843   1.823  11.996
49876W        W14861   2.635  18.077  13.074
49877W        W14862  17.755  25.437   0.289
49878W        W14863  11.719   1.280  10.976
49879W        W14864  30.924  27.278  12.350
49880W        W14865   1.510   6.900  14.818
49881W        W14866   3.779  31.606   2.279
49882W        W14867  35.618  34.941   3.203
49883W        W14868  43.312  13.776  14.407
49884W        W14869  16.122  35.044  10.783
49885W        W14870  36.338  12.420   2.652
49886W        W14871   2.492  41.551  13.909
49887W        W14872  25.037  36.973   1.301
49888W        W14873  43.816  35.314  14.013
49889W        W14874  18.725  37.042  13.273
49890W        W14875   6.559   9.316  10.379
49891W        W14876  33.577  39.296  13.031
49892W        W14877  26.224  38.392   3.298
49893W        W14878  40.537  20.665  11.033
49894W        W14879   6.872  17.898   3.296
49895W        W14880  32.007  42.484   3.728
49896W        W14881  32.033  21.677   3.886
49897W        W14882   9.156  30.450   4.199
49898W        W14883  33.675  35.370   1.242
49899W        W14884  21.178  28.510   3.344
49900W        W14885   9.204  32.500   0.541
49901W        W14886  34.489  39.549   2.317
49902W        W14887  23.024  35.093   3.762
49903W        W14888  20.059  21.609  13.313
49904W        W14889  30.795  26.880   3.303
49905W        W14890   0.603  25.538  12.619
49906W        W14891  17.823  37.417  13.358
49907W        W14892  15.952  19.484   1.791
49908W        W14893   7.651  19.706   4.151
49909W        W14894  20.033  44.413   4.143
49910W        W14895  25.151  27.444  12.947
49911W        W14896  31.923  14.266  13.421
49912W        W14897  16.486  14.487   4.086
49913W        W14898  14.460  37.532  11.094
49914W        W14899  32.963  42.379  14.273
49915W        W14900  14.837  43.094  12.077
49916W        W14901  35.849   6.875   3.607
49917W        W14902   8.367  43.116  14.914
49918W        W14903  20.089   1.949  11.176
49919W        W14904  12.697  29.546   3.189
49920W        W14905  31.971  24.941  11.187
49921W        W14906  13.638  33.001  13.740
49922W        W14907  18.279  28.031  14.781
49923W        W14908  27.123  31.465  14.840
49924W        W14909   7.263   3.934   0.113
49925W        W14910  23.053   2.419  13.854
49926W        W14911  32.836   4.805  10.200
49927W        W14912  25.571  37.089  11.517
49928W        W14913   2.145  15.015   0.818
49929W        W14914  26.723  11.140   1.856
49930W        W14915   7.448  38.769  13.908
49931W        W14916  25.349  26.897  11.228
49932W        W14917  16.763  19.701  14.430
49933W        W14918  38.020  36.328   1.730
49934W        W14919  13.637  37.604  10.718
49935W        W14920  37.920   3.167  11.532
49936W        W14921   1.306  42.530  12.204
49937W        W14922  18.278  29.690   0.407
49938W        W14923  40.477   6.297  14.552
49939W        W14924   3.479   5.702  12.477
49940W        W14925  35.298  42.485  11.135
49941W        W14926  11.229  17.530  11.216
49942W        W14927  36.838   5.200   3.313
49943W        W14928  15.268  34.531   4.180
49944W        W14929   5.882  21.706   0.846
49945W        W14930   6.184  27.489   3.031
49946W        W14931  15.568  37.140   0.539
49947W        W14932  31.483  12.127  11.880
49948W        W14933  31.510  34.151   1.661
49949W        W14934  17.027  21.220  13.597
49950W        W14935  22.158  16.664   1.246
49951W        W14936   5.506  16.230  14.931
49952W        W14937  27.301  23.785  10.259
49953W        W14938  43.806  17.638  14.463
49954W        W14939  24.179  36.375   3.078
49955W        W14940  43.464  23.229   4.028
49956W        W14941   1.347  37.968   1.408
49957W        W14942  24.412  43.285  13.759
49958W        W14943   1.336  30.470   2.687
49959W        W14944  13.090  14.222   3.246
49960W        W14945  40.428  20.678   1.043
49961W        W14946   3.627   3.470   1.319
49962W        W14947   1.218   0.425   1.075
49963W        W14948  15.113  32.835  12.164
49964W        W14949  11.100   2.327  12.342
49965W        W14950  19.340  13.441   2.881
49966W        W14951   6.018  37.846   1.868
49967W        W14952  28.533  14.444  12.855
49968W        W14953  26.720  11.939  10.825
49969W        W14954  27.667  11.540   2.176
49970W        W14955  28.521   0.165  12.439
49971W        W14956  28.545  30.894   2.812
49972W        W14957  14.319  32.807  12.091
49973W        W14958  16.585   7.665   3.666
49974W        W14959  19.605   5.722  12.403
49975W        W14960  18.781   3.238  10.794
49976W        W14961   6.291   8.295   0.001
49977W        W14962  20.331   7.680   4.831
49978W        W14963   8.979   0.780  11.136
49979W        W14964  21.191   3.058  11.200
49980W        W14965  12.834   7.382  13.422
49981W        W14966  12.718   5.816   0.161
49982W        W14967   4.214  27.564   4.097
49983W        W14968  20.655   7.258   0.527
49984W        W14969   0.106  12.719   5.008
49985W        W14970  21.399  38.284   1.946
49986W        W14971  28.863  18.501  13.624
49987W        W14972  17.748  39.337   1.274
49988W        W14973  34.943  30.037  11.563
49989W        W14974  11.799   6.874   4.094
49990W        W14975  11.722  28.141   1.397
49991W        W14976  41.647  44.925   1.691
49992W        W14977  35.577  12.887  11.582
49993W        W14978  10.894   4.150   2.284
49994W        W14979  29.941  16.679  12.351
49995W        W14980  22.883  44.254   2.218
49996W        W14981  12.364   4.882   0.090
49997W        W14982  29.256   0.031  11.179
49998W        W14983  19.023   1.031   3.989
49999W        W14984  10.572   5.811  14.361
50000W        W14985  31.056  20.555  11.926
50001W        W14986  21.914  19.009   2.257
50002W        W14987  28.420  39.043  11.422
50003W        W14988   0.678  28.428  12.953
50004W        W14989  13.523  26.857   4.666
50005W        W14990   3.759  44.587   1.932
50006W        W14991  44.397  37.379   3.674
50007W        W14992  23.144  17.490   1.664
50008W        W14993  10.429  10.722  12.986
50009W        W14994  26.808  38.557   1.825
50010W        W14995  44.530  17.978  10.676
50011W        W14996  19.252  14.652  14.846
50012W        W14997   5.631  25.216  12.820
50013W        W14998  37.846   8.295  12.147
50014W        W14999  15.510  40.755  13.492
50015W        W15000  25.979   5.464   4.245
50016W        W15001  31.919  37.585  13.046
50017W        W15002  40.997  22.683   0.296
50018W        W15003  12.309   9.848   4.974
50019W        W15004  26.830  41.196   4.161
50020W        W15005  32.858  44.470   0.916
50021W        W15006  40.390  36.219   0.218
50022W        W15007  44.413  13.869  11.997
50023W        W15008  10.615  29.502  11.197
50024W        W15009  27.650   5.762   1.376
50025W        W15010  36.980  42.956  14.567
50026W        W15011  14.556  38.939   1.844
50027W        W15012  15.288   7.072  10.878
50028W        W15013  21.544  25.111  10.688
50029W        W15014  42.245  28.858  14.993
50030W        W15015   9.117  19.189  12.858
50031W        W15016  15.295  19.341  11.154
50032W        W15017  38.796  18.262  12.393
50033W        W15018   0.778  11.911   1.002
50034W        W15019  12.610  30.559   3.793
50035W        W15020  26.656  37.618  12.981
50036W        W15021  34.194  36.350  13.468
50037W        W15022  21.684   6.274   4.141
50038W        W15023  25.816  19.271   3.213
50039W        W15024  16.772   5.515  12.457
50040W        W15025   9.733  21.159   3.643
50041W        W15026  33.446   7.796   0.905
50042W        W15027  24.561  12.068   0.331
50043W        W15028  10.449  11.143   0.416
50044W        W15029  40.905   5.254   1.374
50045W        W15030  19.814  17.288  12.090
50046W        W15031  23.970  26.739   0.719
50047W        W15032   7.227  34.950  11.998
50048W        W15033  18.175  25.884  10.620
50049W        W15034  21.107  21.648   0.227
50050W        W15035  30.182  14.509  11.215
50051W        W15036  21.068  19.064  12.479
50052W        W15037  34.300  41.685  11.636
50053W        W15038   9.664  43.435  11.638
50054W        W15039   1.019  30.646  11.423
50055W        W15040   6.969  43.048  14.962
50056W        W15041  38.114   5.505  11.060
50057W        W15042   4.645  36.364  13.485
50058W        W15043  44.023  31.982   2.376
50059W        W15044  24.132   1.310  11.746
50060W        W15045   6.469  28.044  11.207
50061W        W15046  27.164  14.956  14.473
50062W        W15047  14.028   0.789  11.586
50063W        W15048   1.862  15.593   3.796
50064W        W15049  12.571  14.322   0.425
50065W        W15050  13.244  41.021  14.086
50066W        W15051  42.254   4.474  10.770
50067W        W15052   2.932  10.283   2.785
50068W        W15053  21.326  10.835   0.581
50069W        W15054   5.662  10.196  12.512
50070W        W15055  41.271  33.783   2.381
50071W        W15056  33.376   3.879   2.417
50072W        W15057   2.177  43.325   2.157
50073W        W15058  24.834  19.154   1.655
50074W        W15059  39.050  34.505   0.005
50075W        W15060  41.926   9.264   2.123
50076W        W15061  35.741  39.975  10.648
50077W        W15062  10.358  31.894   4.530
50078W        W15063  24.650  14.600   0.827
50079W        W15064  25.695  31.382   0.893
50080W        W15065  15.226  42.401   3.670
50081W        W15066   1.726  15.102  14.550
50082W        W15067  23.114  40.786   1.092
50083W        W15068  34.670  11.389  10.695
50084W        W15069  15.477  23.120  13.015
50085W        W15070  44.269  38.987   1.974
50086W        W15071   1.330   1.839   4.497
50087W        W15072  34.393   5.878   5.105
50088W        W15073  31.158   6.939  14.902
50089W        W15074  11.176   4.834  14.284
50090W        W15075  41.998  35.899  14.768
50091W        W15076   8.803  28.470   1.457
50092W        W15077  38.929  37.338   1.718
50093W        W15078   9.722   8.655   3.281
50094W        W15079  28.889  36.333   3.238
50095W        W15080   6.447  22.436   2.194
50096W        W15081  38.076  39.874  13.874
50097W        W15082   8.894  16.256  12.644
50098W        W15083  10.751   4.069   0.865
50099W        W15084  22.570  25.545   2.855
50100W        W15085   9.778  20.780  13.070
50101W        W15086  28.113  38.607   2.364
50102W        W15087  17.778   6.219   2.822
50103W        W15088  41.322   7.483  13.822
50104W        W15089  28.634  21.987   3.682
50105W        W15090  31.498   2.347   2.608
50106W        W15091  33.428  17.152   1.682
50107W        W15092  25.727   9.891   3.798
50108W        W15093  41.410  30.723   4.672
50109W        W15094  21.584  26.631  10.200
50110W        W15095  28.502  43.052  10.547
50111W        W15096  43.533  22.819   0.239
50112W        W15097  30.723   5.075   1.682
50113W        W15098  37.422  23.692  11.188
50114W        W15099   0.675  36.529   0.031
50115W        W15100   6.067   9.396  12.533
50116W        W15101  19.570  21.083   2.738
50117W        W15102   2.842  36.518   1.570
50118W        W15103  31.429  11.357  10.753
50119W        W15104  44.968  40.953   1.880
50120W        W15105  15.385  39.550   1.290
50121W        W15106   8.614  33.314   1.285
50122W        W15107  22.219   5.822   0.365
50123W        W15108  26.386  41.030  14.027
50124W        W15109  22.059  11.008  10.756
50125W        W15110  31.986  33.946  10.812
50126W        W15111   8.313  39.112   2.160
50127W        W15112  18.067  25.996   1.282
50128W        W15113   3.208   0.226   2.893
50129W        W15114  16.852   4.671  14.772
50130W        W15115  22.560  20.430   0.976
50131W        W15116  20.976   7.250  13.873
50132W        W15117  16.012  14.719   3.991
50133W        W15118  23.276  15.667   3.814
50134W        W15119   7.555   5.197   1.437
50135W        W15120  10.663  14.826   4.049
50136W        W15121  39.229  38.507   3.167
50137W        W15122  10.432  38.020   0.233
50138W        W15123  20.247  29.342  12.792
50139W        W15124   9.374  38.504  12.970
50140W        W15125  43.851  38.749  12.491
50141W        W15126   5.816   1.375  14.337
50142W        W15127  22.642   8.106  12.952
50143W        W15128  40.985  17.054   1.109
50144W        W15129   4.802   6.904  13.422
50145W        W15130  22.802  37.322   2.791
50146W        W15131  21.641  38.614   3.266
50147W        W15132   1.269  11.654   3.282
50148W        W15133  18.168   3.100  14.842
50149W        W15134  34.660  35.948  12.126
50150W        W15135  43.897   8.747  12.152
50151W        W15136   8.448  32.835   1.122
50152W        W15137  25.821  29.846   5.298
50153W        W15138  35.110  26.495   2.407
50154W        W15139  22.078  36.388   4.230
50155W        W15140  12.519  41.369  10.706
50156W        W15141  32.696  18.747   0.783
50157W        W15142  29.400  16.050   0.108
50158W        W15143  41.030  21.226  11.628
50159W        W15144  18.730  31.029   2.731
50160W        W15145  23.498  21.127   2.578
50161W        W15146  37.521  10.428   4.244
50162W        W15147  30.556  36.391  11.668
50163W        W15148  23.957  21.582  14.305
50164W        W15149  19.131  41.316   1.859
50165W        W15150  29.196  29.971   1.371
50166W        W15151  27.920  31.073   0.880
50167W        W15152  40.579  27.951   9.954
50168W        W15153  32.578   9.885  11.056
50169W        W15154  41.452  23.613   2.230
50170W        W15155  31.909   7.102  11.585
50171W        W15156  17.130   1.191   2.282
50172W        W15157  11.658  22.769  10.700
50173W        W15158  10.209   0.158   1.023
50174W        W15159  24.444  39.252  14.831
50175W        W15160  31.406  36.919   0.438
50176W        W15161  35.067   4.192   4.877
50177W        W15162  35.700  29.493   0.196
50178W        W15163  31.893  35.359  14.296
50179W        W15164  18.685  20.931   3.071
50180W        W15165  11.870   6.789   5.063
50181W        W15166   2.384  33.962  12.000
50182W        W15167   1.183   0.762   0.690
50183W        W15168  29.003   5.909   3.440
50184W        W15169  22.436  33.341  11.965
50185W        W15170  22.114   2.470   0.421
50186W        W15171  28.981  28.410   1.921
50187W        W15172  40.969   6.813   4.650
50188W        W15173  34.422   8.484  13.929
50189W        W15174  32.019  34.310  12.399
50190W        W15175   3.731  14.856  12.816
50191W        W15176  12.521  10.592  10.845
50192W        W15177   5.319  26.566  11.478
50193W        W15178  33.940  32.994  11.235
50194W        W15179   9.726  20.704   1.041
50195W        W15180  14.332  25.656   1.889
50196W        W15181   3.094  24.999   1.421
50197W        W15182   7.391  35.315   3.657
50198W        W15183  35.466  33.135  14.313
50199W        W15184  19.291  34.376  11.136
50200W        W15185  15.213  40.758  11.973
50201W        W15186  41.471  33.983   1.738
50202W        W15187  36.978   8.889  14.292
50203W        W15188  40.861   8.188   0.055
50204W        W15189  16.780  42.438   4.393
50205W        W15190  21.733   8.336   4.605
50206W        W15191  44.376  38.962   4.464
50207W        W15192  30.901  30.852   0.354
50208W        W15193  29.755   3.688  11.838
50209W        W15194  16.100  44.768  13.008
50210W        W15195  28.709  10.824   0.240
50211W        W15196  44.125  13.724   4.381
50212W        W15197  34.789  17.529   2.259
50213W        W15198  12.905  28.504   2.751
50214W        W15199  29.497  13.210   1.889
50215W        W15200  11.434   5.343  10.073
50216W        W15201  39.002  17.295  11.382
50217W        W15202  17.375  26.058  12.534
50218W        W15203  30.799   6.707   2.228
50219W        W15204  35.291  32.892  13.898
50220W        W15205  43.929  26.145   0.021
50221W        W15206  42.755  41.200  13.340
50222W        W15207  19.676  42.296  14.073
50223W        W15208  18.991  24.646  10.483
50224W        W15209  38.519  29.732   1.005
50225W        W15210  42.538  41.431  11.151
50226W        W15211  39.403   3.989   1.379
50227W        W15212   4.811  21.645  11.516
50228W        W15213  22.227  28.947   3.887
50229W        W15214   3.430   1.781  10.370
50230W        W15215   9.925  36.112   4.474
50231W        W15216  38.392   1.836   3.061
50232W        W15217  35.637  29.764   2.671
50233W        W15218  15.088  44.274  12.469
50234W        W15219  28.261  30.044   5.205
50235W        W15220  28.075  21.725   2.772
50236W        W15221  43.955   6.071   0.653
50237W        W15222   8.408  13.649  12.450
50238W        W15223   0.453  32.306   4.240
50239W        W15224  22.920  26.162  11.162
50240W        W15225  36.792   2.443   1.724
50241W        W15226   3.505  28.054  12.045
50242W        W15227  21.114  31.708   2.671
50243W        W15228  36.501  36.081  13.373
50244W        W15229  11.743  33.406  14.501
50245W        W15230  14.152  39.636   2.656
50246W        W15231  10.135  41.960   1.769
50247W        W15232   4.289  41.885  11.866
50248W        W15233   5.891  44.239   4.457
50249W        W15234   6.717  16.530  11.826
50250W        W15235  17.576  31.445   4.442
50251W        W15236  20.974  35.029  13.924
50252W        W15237  27.990  25.308  10.594
50253W        W15238   6.891   9.467   0.349
50254W        W15239  31.560  33.901  14.959
50255W        W15240  36.873   6.444  14.268
50256W        W15241  23.239  42.426  14.640
50257W        W15242  42.526  11.338  11.981
50258W        W15243   2.029  41.016   1.857
50259W        W15244  40.527   6.913   4.354
50260W        W15245  22.741   8.683  10.839
50261W        W15246   7.275  34.985  13.972
50262W        W15247   7.206  22.342  13.617
50263W        W15248  12.715  20.697   4.571
50264W        W15249  39.483  19.757  11.555
50265W        W15250  17.256  10.161  10.219
50266W        W15251   3.935  30.505   1.357
50267W        W15252   9.861  19.161   0.002
50268W        W15253  34.534  31.916  14.837
50269W        W15254  36.624  37.126  12.288
50270W        W15255  13.370  18.370   0.327
50271W        W15256   0.425   5.672   1.676
50272W        W15257  27.704   5.612   3.901
50273W        W15258  25.701   4.942   1.743
50274W        W15259  36.891  33.475  14.448
50275W        W15260  19.095  37.053   3.057
50276W        W15261  35.530  18.261  13.252
50277W        W15262   3.147   8.216  10.627
50278W        W15263  20.178  39.798  10.519
50279W        W15264  10.280  36.552   2.027
50280W        W15265   2.716   3.747  12.884
50281W        W15266   9.280  17.315  11.584
50282W        W15267  11.606  31.548   2.698
50283W        W15268  35.585  24.951  11.059
50284W        W15269  36.804  20.529  11.583
50285W        W15270  41.148  41.895   0.556
50286W        W15271  28.131  22.601  14.852
50287W        W15272  11.340  23.756   2.121
50288W        W15273  11.664  23.469   2.824
50289W        W15274  20.930  20.081  14.457
50290W        W15275  41.556  27.047   2.251
50291W        W15276  11.989  36.943   2.645
50292W        W15277  40.496  10.235  13.968
50293W        W15278  15.648  26.132  10.837
50294W        W15279  18.755  43.223  14.352
50295W        W15280  27.729  14.826   2.012
50296W        W15281  32.986  24.602   0.806
50297W        W15282  42.468  11.189   4.356
50298W        W15283  37.924  14.281   2.151
50299W        W15284  42.400  21.255  10.720
50300W        W15285  14.526  29.026   0.777
50301W        W15286  41.753  23.159   1.350
50302W        W15287  19.012  16.887  12.602
50303W        W15288  17.680  19.096   4.991
50304W        W15289  35.927  39.768  11.113
50305W        W15290   6.572  23.827  12.089
50306W        W15291  29.604  44.606  12.487
50307W        W15292   7.733   5.842  11.552
50308W        W15293  16.453  17.049   3.556
50309W        W15294  40.416   6.297  10.766
50310W        W15295  23.134  13.044  13.474
50311W        W15296  35.297   0.079  13.029
50312W        W15297  37.528  29.990  10.772
50313W        W15298  26.754   9.756   1.202
50314W        W15299   5.759   6.471   3.615
50315W        W15300  32.867  38.314   0.988
50316W        W15301  36.848  21.790  10.760
50317W        W15302  16.256   3.298   3.421
50318W        W15303  22.137  43.803   4.130
50319W        W15304  15.806  35.084  13.795
50320W        W15305   4.904   8.708   3.426
50321W        W15306   3.009  11.708   3.737
50322W        W15307   3.839   0.047   4.805
50323W        W15308  23.613   2.382   4.950
50324W        W15309  27.114   3.307   0.953
50325W        W15310  13.371  19.248   2.571
50326W        W15311  44.586  24.455  14.588
50327W        W15312  44.441  44.275  12.950
50328W        W15313  30.329  18.268   4.602
50329W        W15314  33.877   3.962  12.953
50330W        W15315  42.322  32.499  11.205
50331W        W15316  22.717  23.271  12.407
50332W        W15317  44.505  26.502  11.611
50333W        W15318  40.342  40.053  12.119
50334W        W15319   4.796  38.757  12.575
50335W        W15320   5.678   6.951   3.761
50336W        W15321   3.910  29.619   1.872
50337W        W15322  44.608  21.477   2.389
50338W        W15323  30.649  26.059  14.483
50339W        W15324  44.245  20.730  13.083
50340W        W15325  29.441  44.793  14.557
50341W        W15326   3.234  22.218   1.010
50342W        W15327  32.084  23.440  14.945
50343W        W15328   5.761  21.773   3.070
50344W        W15329   3.388  29.120   2.209
50345W        W15330  31.953  37.281   4.619
50346W        W15331  18.339  35.315  14.843
50347W        W15332  11.185   3.895  10.497
50348W        W15333  22.744  20.005  10.317
50349W        W15334  13.820  26.010   1.404
50350W        W15335  37.602   7.521   1.788
50351W        W15336   6.709  10.132   9.984
50352W        W15337   3.311  21.002   2.210
50353W        W15338  12.165  42.014  13.735
50354W        W15339  33.529  33.402  12.318
50355W        W15340  16.591  34.836  10.710
50356W        W15341  33.066  12.185  11.513
50357W        W15342  19.221   2.995  10.676
50358W        W15343   0.826  32.695   3.167
50359W        W15344  27.943  43.388  13.982
50360W        W15345  41.282  14.259   4.166
50361W        W15346  36.082  10.485  12.759
50362W        W15347   0.428  15.670  13.764
50363W        W15348  22.406  16.863  11.299
50364W        W15349  10.739   8.333  11.686
50365W        W15350  24.227  27.004  12.492
50366W        W15351  31.461  44.535  12.519
50367W        W15352  35.425   1.893   4.687
50368W        W15353   0.678  17.797   2.263
50369W        W15354  20.069  32.390  12.018
50370W        W15355  30.223  36.945  14.253
50371W        W15356  14.592  13.752   1.581
50372W        W15357  42.933  17.645  11.277
50373W        W15358  27.474   3.907  11.980
50374W        W15359  41.793  16.214   2.157
50375W        W15360   7.017  23.747   5.030
50376W        W15361  35.427  24.001   4.566
50377W        W15362  44.477  15.120  13.927
50378W        W15363  31.789  20.168  14.532
50379W        W15364  34.190   2.534   1.660
50380W        W15365   0.857  10.016   2.223
50381W        W15366  38.856  24.824  14.793
50382W        W15367   5.161  20.086  12.896
50383W        W15368  14.758  25.715   2.387
50384W        W15369   5.161  17.352   1.181
50385W        W15370  35.030  39.803   0.333
50386W        W15371  40.245  13.079  12.943
50387W        W15372  18.702   1.393   4.154
50388W        W15373   9.652  31.983   4.240
50389W        W15374  26.601  39.822   4.116
50390W        W15375  12.568  15.632   3.138
50391W        W15376  34.642  40.107   1.442
50392W        W15377  41.785  11.442  11.047
50393W        W15378  16.324  24.803   1.799
50394W        W15379  29.657  21.128   9.871
50395W        W15380  38.813  37.007   2.723
50396W        W15381   6.754  22.164  13.365
50397W        W15382  29.391   1.248   0.614
50398W        W15383   4.858   8.247   3.678
50399W        W15384  36.386   5.356  13.971
50400W        W15385  34.407   2.341   0.257
50401W        W15386  10.584  14.714   1.704
50402W        W15387  44.515  10.674   2.827
50403W        W15388  18.271   0.955   3.134
50404W        W15389  18.478  16.787   4.150
50405W        W15390  39.238  15.875   0.488
50406W        W15391  24.191  36.120  10.145
50407W        W15392  37.513   3.114  10.782
50408W        W15393  33.793  15.362   4.352
50409W        W15394  36.071  16.065  11.512
50410W        W15395  31.850   3.985   5.091
50411W        W15396  13.765  29.543  12.394
50412W        W15397  17.180  15.541   0.007
50413W        W15398  31.545  24.219  12.861
50414W        W15399  33.128  20.575   0.283
50415W        W15400   2.502  16.580  13.654
50416W        W15401   2.199  11.591   4.504
50417W        W15402   9.319  37.501   1.208
50418W        W15403   3.356   9.644   1.598
50419W        W15404   0.307  29.391   0.942
50420W        W15405  32.627  23.541   0.033
50421W        W15406  44.758  25.954   5.502
50422W        W15407   9.184   2.412   4.090
50423W        W15408  12.620  44.799   1.754
50424W        W15409   4.730  30.250  10.077
50425W        W15410  38.788  13.730   0.425
50426W        W15411  33.451  38.758  11.667
50427W        W15412  40.585  44.886   4.413
50428W        W15413   1.083  11.339   1.800
50429W        W15414   2.462  13.443  12.008
50430W        W15415  19.531   3.287   0.899
50431W        W15416  17.932  18.104  13.510
50432W        W15417  12.841  10.609  13.877
50433W        W15418  24.243  39.931  13.986
50434W        W15419  39.917  22.646  14.110
50435W        W15420   0.415   3.855  14.939
50436W        W15421  27.614  30.262   1.939
50437W        W15422  34.128   4.680  13.404
50438W        W15423  20.949  26.673   2.988
50439W        W15424  42.343  34.988  13.072
50440W        W15425  22.256  16.227  14.472
50441W        W15426  13.331  30.701   4.121
50442W        W15427  37.723  11.855  10.739
50443W        W15428  35.982  35.480   0.924
50444W        W15429  37.150  10.827  11.387
50445W        W15430  39.598  12.636   2.311
50446W        W15431  44.745   5.895  12.444
50447W        W15432  24.973  13.625  14.305
50448W        W15433  27.549   7.213   0.900
50449W        W15434  24.017  19.128   1.263
50450W        W15435  17.046  13.663   1.879
50451W        W15436   1.120  18.246  14.387
50452W        W15437  38.125   0.465   2.831
50453W        W15438  15.134  16.343  12.861
50454W        W15439  37.362  13.677   2.233
50455W        W15440  22.485  13.882  12.648
50456W        W15441  25.055  28.942   0.913
50457W        W15442  43.498  40.997  11.215
50458W        W15443  11.636  26.500  12.374
50459W        W15444   7.142   6.701   4.057
50460W        W15445  16.759  42.396   0.541
50461W        W15446   7.925   6.905   1.305
50462W        W15447   1.066  28.214  14.337
50463W        W15448  36.312   2.709   3.409
50464W        W15449  23.491  19.694   4.043
50465W        W15450  16.290   4.097   9.596
50466W        W15451   3.451  12.178  14.764
50467W        W15452  18.519   3.702  10.817
50468W        W15453  44.000  28.146   9.799
50469W        W15454  32.099  33.026  10.200
50470W        W15455  14.343  21.804  13.390
50471W        W15456  37.107   8.293   1.724
50472W        W15457  21.985  38.839  14.839
50473W        W15458  22.200  26.557  11.438
50474W        W15459  23.168  20.471  11.738
50475W        W15460  18.169  18.847  12.764
50476W        W15461  32.080  28.435  11.678
50477W        W15462  10.856  22.965   2.547
50478W        W15463  36.510  17.900  13.511
50479W        W15464  44.296  41.351   4.815
50480W        W15465  15.056  41.954  13.377
50481W        W15466   9.268  31.586  11.274
50482W        W15467  20.092  38.477  14.189
50483W        W15468  20.287  17.505  12.007
50484W        W15469  40.394  34.450   3.173
50485W        W15470  41.407   1.956  12.594
50486W        W15471  12.770  18.938  12.781
50487W        W15472   7.411  27.912   1.565
50488W        W15473  27.027  12.609   0.347
50489W        W15474  20.183   2.637   0.850
50490W        W15475   4.526  29.035   4.532
50491W        W15476   8.467  31.024   2.139
50492W        W15477  12.538  31.455  12.301
50493W        W15478   9.351  36.469  14.057
50494W        W15479  30.354  41.554   0.418
50495W        W15480  13.083   0.071   2.594
50496W        W15481  18.763  39.268   3.365
50497W        W15482  33.973  42.936   0.215
50498W        W15483  44.548  43.971  13.980
50499W        W15484  18.077  28.462   0.886
50500W        W15485  43.538  23.712  11.578
50501W        W15486  29.039  34.425  14.791
50502W        W15487  40.319  32.074   3.234
50503W        W15488  41.998  43.126  10.453
50504W        W15489  29.961  23.889  13.414
50505W        W15490  33.464   6.708  10.091
50506W        W15491  12.384  26.701  11.089
50507W        W15492  39.540  43.978   2.485
50508W        W15493  21.623  20.210  12.257
50509W        W15494   7.909  40.759  13.247
50510W        W15495  33.641  32.643   0.341
50511W        W15496   5.216  12.615   0.238
50512W        W15497  36.149  10.351   0.697
50513W        W15498  17.644  35.531  10.768
50514W        W15499   6.237   9.669  14.720
50515W        W15500  35.536  26.592   3.184
50516W        W15501  25.874   8.701  10.694
50517W        W15502  41.616  28.859   1.199
50518W        W15503  11.638  13.578   4.062
50519W        W15504  33.391  25.738  10.602
50520W        W15505  31.607  36.043  14.769
50521W        W15506  17.248  40.540  10.471
50522W        W15507  21.513  25.566   1.961
50523W        W15508   6.848  25.495   4.065
50524W        W15509  31.466  27.573   2.964
50525W        W15510  13.040  11.222   1.484
50526W        W15511  28.174   9.319  11.285
50527W        W15512  18.627  42.592   5.121
50528W        W15513  39.049  31.183  14.872
50529W        W15514  15.759  41.620   0.975
50530W        W15515  16.596  24.439  12.897
50531W        W15516  16.456  29.463   0.909
50532W        W15517  26.712   8.174   3.192
50533W        W15518   8.701  22.073   2.462
50534W        W15519   3.275  33.838   0.063
50535W        W15520  15.347  39.513   3.140
50536W        W15521  15.836  31.657   0.927
50537W        W15522  19.039  14.740  12.636
50538W        W15523  26.407  15.077  13.783
50539W        W15524   6.633  35.923  11.638
50540W        W15525   4.482  42.318   3.349
50541W        W15526   8.153  18.212  14.768
50542W        W15527  14.875  23.690  10.317
50543W        W15528  14.757  21.010   0.773
50544W        W15529  12.641  33.102  11.130
50545W        W15530  18.691  23.153  13.727
50546W        W15531  42.575   4.353   4.157
50547W        W15532   6.749  37.947  14.423
50548W        W15533  32.952  34.933   1.637
50549W        W15534  31.377  16.214  14.773
50550W        W15535  33.397  30.913  11.455
50551W        W15536  12.340   4.989  12.059
50552W        W15537  33.398  36.157   3.244
50553W        W15538  31.320  37.921   4.512
50554W        W15539  12.816  43.280  12.582
50555W        W15540   5.287  40.884   0.914
50556W        W15541  41.849  17.607  10.572
50557W        W15542   3.162  33.857  11.607
50558W        W15543  21.035  28.671   0.665
50559W        W15544   8.172   1.370   4.328
50560W        W15545  22.430  31.825   2.822
50561W        W15546   5.528   9.843  12.867
50562W        W15547   6.521  26.534   1.294
50563W        W15548  24.034   4.420  10.910
50564W        W15549  10.636  27.883  12.902
50565W        W15550   7.433  27.057   4.141
50566W        W15551   5.730  11.736   3.831
50567W        W15552   2.121  44.770   1.942
50568W        W15553  32.489  43.428  10.740
50569W        W15554   5.306   2.893   0.394
50570W        W15555  17.493  37.420  13.768
50571W        W15556  25.474  42.757   4.677
50572W        W15557  41.986   1.445   0.379
50573W        W15558  36.629   9.572  13.582
50574W        W15559  31.720  15.170  14.566
50575W        W15560  34.136  31.428   2.884
50576W        W15561   6.679  11.330  12.444
50577W        W15562  12.067  12.728  14.718
50578W        W15563  28.177   8.784  14.543
50579W        W15564  24.666   2.914   2.421
50580W        W15565  17.146  15.983  14.032
50581W        W15566  15.642  26.589   2.294
50582W        W15567  29.483  44.473  14.971
50583W        W15568  13.361  37.910  12.153
50584W        W15569  17.388  24.235  11.655
50585W        W15570  12.575  25.066  10.676
50586W        W15571  30.563  32.100   1.146
50587W        W15572  31.566  39.196   3.552
50588W        W15573  31.562  12.374  14.030
50589W        W15574  27.453  10.682  14.536
50590W        W15575  34.272  26.725  14.455
50591W        W15576  35.501   0.476  13.806
50592W        W15577   8.355  14.541   0.376
50593W        W15578  13.897   1.371   4.546
50594W        W15579  13.275  44.008  12.373
50595W        W15580  25.015  44.413  11.972
50596W        W15581  10.202  19.097   3.575
50597W        W15582  39.415   3.666   3.587
50598W        W15583  22.437  35.642  14.371
50599W        W15584  38.761   4.617  12.021
50600W        W15585  37.341  23.055   2.638
50601W        W15586  29.196  12.553  10.874
50602W        W15587  29.484  26.907  11.368
50603W        W15588  31.452  15.875  10.563
50604W        W15589  37.554  25.757   1.356
50605W        W15590  16.564  31.546   4.325
50606W        W15591  23.035  23.935   4.618
50607W        W15592  37.700  26.562   9.944
50608W        W15593  20.685  43.192   3.947
50609W        W15594  28.932   5.312  12.415
50610W        W15595  14.235  44.373  10.572
50611W        W15596  20.526  10.256   1.522
50612W        W15597  42.312   7.125  11.163
50613W        W15598   1.960   0.831   4.150
50614W        W15599  39.153   7.603  10.700
50615W        W15600   7.934   9.314   4.963
50616W        W15601  14.728  12.039   0.648
50617W        W15602  34.820  44.833   1.557
50618W        W15603  19.661  32.574   1.675
50619W        W15604  18.182  28.886   2.293
50620W        W15605  16.315  34.019   2.603
50621W        W15606   7.153  22.515  14.111
50622W        W15607  19.712  30.244   0.326
50623W        W15608   7.116  17.760   0.410
50624W        W15609  12.257  34.952   0.412
50625W        W15610  39.624  42.361  12.722
50626W        W15611   2.978  23.839   0.594
50627W        W15612  32.442  40.037  12.951
50628W        W15613   1.394  14.356   0.569
50629W        W15614   3.720  38.020  12.997
50630W        W15615  41.980  40.720  14.852
50631W        W15616   3.914  17.547   4.228
50632W        W15617  12.797  17.532   1.765
50633W        W15618   7.385  40.533   2.592
50634W        W15619  12.547   2.230   0.079
50635W        W15620  24.203  20.295   2.261
50636W        W15621  10.145  36.607  14.962
50637W        W15622  38.944  34.596   1.412
50638W        W15623   2.785  17.145  14.294
50639W        W15624  10.131  22.778  13.997
50640W        W15625  32.897  43.872  14.896
50641W        W15626   4.162  41.774   3.271
50642W        W15627   3.344  37.079  13.392
50643W        W15628  31.372  25.906   2.657
50644W        W15629   7.688  15.048   0.656
50645W        W15630  33.354  20.802  13.570
50646W        W15631  16.576   6.736  13.819
50647W        W15632  16.498  17.231  14.860
50648W        W15633   5.721  18.779   3.502
50649W        W15634  36.083  14.989   3.687
50650W        W15635   8.812  41.437   3.278
50651W        W15636  13.570  25.823   0.415
50652W        W15637  11.869  17.787   3.124
50653W        W15638  21.565  30.567  12.563
50654W        W15639  19.677  15.959   1.804
50655W        W15640  20.501  42.518   1.732
50656W        W15641  28.882   9.431   0.749
50657W        W15642  25.603  35.694   3.177
50658W        W15643  32.450   1.749   1.392
50659W        W15644   7.041  23.158   4.349
50660W        W15645   7.246   3.772   5.409
50661W        W15646  35.183  34.923   0.179
50662W        W15647   4.941   1.810   4.864
50663W        W15648  29.966  42.018   4.540
50664W        W15649   3.810  26.732   2.258
50665W        W15650  27.410   1.976  11.842
50666W        W15651   4.451  23.054   3.320
50667W        W15652   1.952  13.850   2.032
50668W        W15653   0.406   2.763   2.638
50669W        W15654  26.972   4.323  13.371
50670W        W15655  23.746   8.607   4.498
50671W        W15656  34.443  14.557   4.250
50672W        W15657  17.903  27.060  10.175
50673W        W15658  29.532  27.127  14.945
50674W        W15659  25.432  39.289  12.733
50675W        W15660  16.587  21.098  14.375
50676W        W15661  41.938  43.923  11.205
50677W        W15662  22.475  32.666  13.990
50678W        W15663  31.969   2.174   0.440
50679W        W15664   2.330  19.714   0.711
50680W        W15665  19.744  21.573   0.994
50681W        W15666  17.590  39.745   4.417
50682W        W15667  27.298  27.341   4.457
50683W        W15668  19.388  14.190  11.632
50684W        W15669  12.593  34.349   1.263
50685W        W15670  25.915   8.174  10.795
50686W        W15671   9.026  33.629   1.262
50687W        W15672  41.787   5.022  12.060
50688W        W15673  13.013  31.348  13.828
50689W        W15674  32.518  43.817   1.637
50690W        W15675  39.456   1.168  12.498
50691W        W15676  14.958  30.591   4.321
50692W        W15677  41.773  15.099   4.521
50693W        W15678  33.886   8.342   0.293
50694W        W15679  27.487   8.175   3.536
50695W        W15680   6.320   3.490  12.360
50696W        W15681  44.191  10.906  14.846
50697W        W15682   8.171  29.060   4.030
50698W        W15683  26.756  21.530   0.862
50699W        W15684  14.385  26.191  12.688
50700W        W15685  12.894  32.045  14.935
50701W        W15686  36.911  31.855  12.496
50702W        W15687  10.031   8.447  10.252
50703W        W15688  38.705  38.762  11.608
50704W        W15689   3.808  29.861   4.534
50705W        W15690  43.919  12.806   4.493
50706W        W15691  27.100  16.162   3.002
50707W        W15692  29.594  14.286  14.849
50708W        W15693  43.799  26.648  11.129
50709W        W15694   0.737   1.829   0.765
50710W        W15695  20.315   8.186   3.753
50711W        W15696   8.870  39.982  12.116
50712W        W15697  24.669  36.095   4.603
50713W        W15698  31.155   4.344  14.105
50714W        W15699  13.761  35.088   2.310
50715W        W15700  26.578  37.577   4.389
50716W        W15701  17.675   5.263   2.434
50717W        W15702  27.819  43.843  13.351
50718W        W15703  16.416  26.976  14.905
50719W        W15704  23.648  23.469   2.242
50720W        W15705  22.333  16.764   2.181
50721W        W15706  39.716  42.667   0.493
50722W        W15707   0.285  32.007   2.924
50723W        W15708  18.736   4.056  11.122
50724W        W15709  35.737   3.948  13.628
50725W        W15710  36.052   7.556   2.318
50726W        W15711   2.414   4.639  10.780
50727W        W15712   4.303  14.252  13.066
50728W        W15713  36.874  12.434   3.788
50729W        W15714   5.984  24.016   2.987
50730W        W15715  31.628  26.585  14.334
50731W        W15716  34.026  13.303   4.242
50732W        W15717  24.056  29.357  12.880
50733W        W15718  12.719  25.969   3.079
50734W        W15719  20.014  30.878  12.963
50735W        W15720  27.019  14.609   4.594
50736W        W15721  28.554  30.710   4.168
50737W        W15722  42.206  15.661  14.464
50738W        W15723  10.288  15.635   4.199
50739W        W15724  24.921  26.588  12.480
50740W        W15725  41.552  38.448  14.635
50741W        W15726   9.312  32.850   2.773
50742W        W15727  10.896  32.315  13.391
50743W        W15728  11.244  24.099  12.911
50744W        W15729   9.351  19.980   1.410
50745W        W15730  42.422  16.355   2.748
50746W        W15731  29.094   2.139  13.986
50747W        W15732  33.379  30.919   3.351
50748W        W15733   8.609  30.991  14.355
50749W        W15734  41.044   9.811   4.933
50750W        W15735  11.881  19.535   0.994
50751W        W15736  13.664  14.489  10.667
50752W        W15737  20.788   1.339   2.664
50753W        W15738  12.566  33.954  14.868
50754W        W15739   9.685  39.600  11.610
50755W        W15740  26.992   4.018   2.671
50756W        W15741   2.937  42.929   4.967
50757W        W15742  25.250  38.458   3.158
50758W        W15743  37.351  42.659   3.282
50759W        W15744   6.710   4.990   1.292
50760W        W15745  44.334  10.264  13.427
50761W        W15746  35.945  13.534   0.115
50762W        W15747  15.163  24.287  14.426
50763W        W15748  32.641   7.816   0.252
50764W        W15749  40.695  15.306  14.034
50765W        W15750  13.074  31.149  12.909
50766W        W15751  41.929   8.763   1.890
50767W        W15752   2.696  11.643   4.294
50768W        W15753  39.073  40.707  14.875
50769W        W15754  29.138  44.453   2.223
50770W        W15755  41.352  25.529   0.040
50771W        W15756   1.136  20.765   3.435
50772W        W15757  19.350  36.831  12.629
50773W        W15758  44.766  36.934  13.806
50774W        W15759  34.345  44.999   1.373
50775W        W15760   0.324  27.200  11.309
50776W        W15761  34.616  40.092  12.468
50777W        W15762  31.404  31.039  11.492
50778W        W15763  15.751  15.844   4.146
50779W        W15764  21.263  44.521  14.871
50780W        W15765  16.633  25.614  11.429
50781W        W15766  10.728  19.760   4.581
50782W        W15767  32.071  17.354  13.464
50783W        W15768  43.866   3.820  11.598
50784W        W15769  28.812  17.328   1.402
50785W        W15770  28.946   7.308   1.586
50786W        W15771  20.635  18.084  11.632
50787W        W15772  18.043  19.292  14.470
50788W        W15773  18.481  27.564   2.189
50789W        W15774  18.995   5.252   1.417
50790W        W15775   0.913  16.008   3.699
50791W        W15776  37.098  15.511  11.172
50792W        W15777  40.331   6.688   1.383
50793W        W15778  39.916  17.109   1.750
50794W        W15779  27.335  38.017   0.214
50795W        W15780  28.144   1.470  12.817
50796W        W15781  36.484  18.517  12.352
50797W        W15782   3.198  10.396  13.504
50798W        W15783  13.767  12.178   1.446
50799W        W15784  24.241  43.254  11.165
50800W        W15785  34.574   1.768   1.928
50801W        W15786  28.056  13.627   3.009
50802W        W15787   0.961  39.813  14.095
50803W        W15788  33.387  26.589   3.057
50804W        W15789   2.807  22.482   0.357
50805W        W15790  36.493  16.067   0.768
50806W        W15791   2.356  35.122  12.013
50807W        W15792  35.410   8.418   1.873
50808W        W15793   8.067  10.518   4.096
50809W        W15794  13.356   8.766  11.104
50810W        W15795  24.733  37.363  12.254
50811W        W15796  43.397   3.886   0.392
50812W        W15797  12.119  12.264  14.983
50813W        W15798   9.518  15.941  14.718
50814W        W15799   6.522  32.661   3.251
50815W        W15800  16.083  31.067   4.067
50816W        W15801  12.784   0.595  12.059
50817W        W15802  31.074   6.881  12.010
50818W        W15803   5.288  28.110  11.640
50819W        W15804   0.700  10.648   1.328
50820W        W15805  15.729  29.125   3.070
50821W        W15806  27.686  11.582   3.329
50822W        W15807   0.248  40.821  13.886
50823W        W15808  29.606  35.383   1.948
50824W        W15809  25.503  43.339   1.433
50825W        W15810  16.592   7.871  12.596
50826W        W15811  27.957  42.425  12.080
50827W        W15812  44.854   3.821   2.248
50828W        W15813  42.778  23.680  13.895
50829W        W15814  12.127  15.334  13.883
50830W        W15815  17.335  25.710   3.362
50831W        W15816  40.481  30.917   3.653
50832W        W15817   1.753  38.048  11.982
50833W        W15818   7.911  27.641  14.875
50834W        W15819  34.582  39.584   3.742
50835W        W15820  37.928  11.658  13.427
50836W        W15821  28.260  22.324   3.737
50837W        W15822  19.825   2.890   1.133
50838W        W15823  12.036  33.385  11.173
50839W        W15824  41.656  27.547   5.036
50840W        W15825  34.598  42.230  14.333
50841W        W15826  16.542  26.087   4.528
50842W        W15827  39.232   9.870  12.888
50843W        W15828   3.248  14.646  12.816
50844W        W15829  10.698  43.491  11.801
50845W        W15830  31.999   4.698  10.333
50846W        W15831   5.953  33.035   1.479
50847W        W15832  26.223  11.485   0.239
50848W        W15833  19.600  19.689   1.883
50849W        W15834  30.500   9.757   2.519
50850W        W15835  11.444  44.353   2.277
50851W        W15836  44.543  18.105  12.459
50852W        W15837  38.458  10.384  12.961
50853W        W15838   4.300  19.310   0.396
50854W        W15839  27.051  22.458   2.552
50855W        W15840   4.721   5.290   0.176
50856W        W15841  25.806  37.715  14.967
50857W        W15842   9.311  37.382  11.993
50858W        W15843  26.174  24.207   4.464
50859W        W15844  13.422  21.055   3.218
50860W        W15845  11.442  24.693   3.582
50861W        W15846  20.093  27.744   4.282
50862W        W15847  38.146  43.426   4.254
50863W        W15848   2.148  41.002   0.770
50864W        W15849  11.653  30.511   4.636
50865W        W15850  18.511  34.998  10.433
50866W        W15851  21.286  22.345   2.712
50867W        W15852   5.713  23.259  11.988
50868W        W15853  28.602  18.972  11.430
50869W        W15854  24.019  13.861   4.071
50870W        W15855  43.198  24.647   4.178
50871W        W15856  43.474  32.678  10.363
50872W        W15857  33.331  41.662   3.739
50873W        W15858  23.970  34.968  14.766
50874W        W15859  36.050  24.911  12.157
50875W        W15860   6.987  14.436   0.706
50876W        W15861  36.473  22.498   2.765
50877W        W15862  13.338  10.330   4.132
50878W        W15863  21.506  21.060  10.793
50879W        W15864  17.622  16.756  12.873
50880W        W15865  23.927  28.648   0.054
50881W        W15866  30.617  33.156  11.184
50882W        W15867   9.156   1.516   3.856
50883W        W15868  17.607  43.726  10.615
50884W        W15869  25.556   3.374   3.340
50885W        W15870  31.066   7.231   2.764
50886W        W15871   9.441  42.052  13.425
50887W        W15872   9.806   0.352   2.571
50888W        W15873  14.477  25.309   2.224
50889W        W15874  15.111  26.770  14.950
50890W        W15875  28.088  20.530  13.670
50891W        W15876  28.656  35.183   2.132
50892W        W15877  27.646  30.403   1.309
50893W        W15878   9.722  14.725  14.414
50894W        W15879  36.993   8.633   3.211
50895W        W15880  25.769  14.963  12.906
50896W        W15881   0.916  14.138   4.135
50897W        W15882  44.850  33.993  11.398
50898W        W15883  41.876  24.304   4.884
50899W        W15884   0.846  24.495   0.938
50900W        W15885  43.747   0.264   3.196
50901W        W15886  19.202   6.231   1.348
50902W        W15887  19.253  38.709   0.370
50903W        W15888  37.430  28.701   4.530
50904W        W15889  20.208   8.327   1.585
50905W        W15890   7.351  41.762  12.482
50906W        W15891  29.651  33.435  12.612
50907W        W15892  25.917  23.073   3.816
50908W        W15893  25.963  23.750  14.721
50909W        W15894  41.395   8.309   2.306
50910W        W15895  37.378   6.519   1.780
50911W        W15896  10.239  14.388   3.673
50912W        W15897  28.057  18.693   3.159
50913W        W15898   5.673  32.691   2.238
50914W        W15899  15.100  26.062   1.728
50915W        W15900   3.465   4.269   3.633
50916W        W15901  41.947  18.859  11.092
50917W        W15902   1.438  26.568  10.808
50918W        W15903  31.430  14.053   4.597
50919W        W15904  21.650   6.308  14.297
50920W        W15905  41.704  22.307  11.888
50921W        W15906  25.430  19.779  14.693
50922W        W15907  10.663  13.125  11.382
50923W        W15908  11.737  36.825  10.828
50924W        W15909  18.195   8.228  13.692
50925W        W15910  32.881  20.653  11.589
50926W        W15911  16.296  32.087   2.309
50927W        W15912  16.674   0.443   0.322
50928W        W15913  23.503  12.743  10.648
50929W        W15914   2.840   5.327   4.110
50930W        W15915  27.505  12.161   0.879
50931W        W15916  34.613  24.077   4.131
50932W        W15917  25.037  35.022   2.090
50933W        W15918  43.498  30.064   1.396
50934W        W15919  12.253  35.161  11.264
50935W        W15920  28.120  42.546   2.708
50936W        W15921  43.214  29.103  13.920
50937W        W15922  29.509  34.638  11.526
50938W        W15923  10.863   1.643   3.379
50939W        W15924  14.862   6.965  12.602
50940W        W15925   0.382  43.528  13.039
50941W        W15926  42.278  11.809   3.611
50942W        W15927  25.903   4.842  11.924
50943W        W15928  23.287   9.634   3.745
50944W        W15929  11.836   3.744  11.120
50945W        W15930  24.908  39.371  13.545
50946W        W15931  43.212   2.787  12.626
50947W        W15932  25.496  30.535  12.504
50948W        W15933  39.524  36.161  14.018
50949W        W15934  38.287  33.860   1.629
50950W        W15935   5.346  14.084  13.047
50951W        W15936  41.961  30.841  12.508
50952W        W15937  43.295  31.264   0.893
50953W        W15938  36.145  38.878   4.200
50954W        W15939  16.633  20.697   1.125
50955W        W15940  41.343  19.836  12.387
50956W        W15941  20.236  17.057   3.327
50957W        W15942  19.220  24.171   4.381
50958W        W15943  30.173   3.850  11.574
50959W        W15944  13.401   9.562  14.916
50960W        W15945  34.641  18.252   4.914
50961W        W15946   6.418  34.282  11.524
50962W        W15947  40.326  38.929   2.083
50963W        W15948  30.099   2.466  14.623
50964W        W15949   1.372   4.401  12.048
50965W        W15950  24.167  34.147  14.467
50966W        W15951   2.463   8.584   0.799
50967W        W15952   4.051  40.917   2.897
50968W        W15953  26.780  38.755  12.035
50969W        W15954   7.894  23.072  14.466
50970W        W15955   8.260  38.545  12.124
50971W        W15956  21.094  24.013   0.908
50972W        W15957  29.394  29.050  13.456
50973W        W15958  25.277   6.282   4.116
50974W        W15959  36.567  43.076  10.934
50975W        W15960   7.951   6.520  14.028
50976W        W15961   4.404  41.887  13.369
50977W        W15962  33.634   3.251  12.533
50978W        W15963  19.369   7.161   1.378
50979W        W15964   3.639  20.577   1.665
50980W        W15965  44.505  30.089  12.315
50981W        W15966   2.699  39.770  12.938
50982W        W15967  44.983   3.874   0.878
50983W        W15968  24.673  18.011  12.934
50984W        W15969  10.574  10.139  12.088
50985W        W15970  38.890   2.732   3.037
50986W        W15971  19.668  12.260  12.887
50987W        W15972  33.806  29.710  10.271
50988W        W15973  14.087  40.023   4.183
50989W        W15974  12.458  10.372   0.199
50990W        W15975  11.313  32.296   1.888
50991W        W15976   6.763  27.035   1.861
50992W        W15977   6.236  13.401  11.186
50993W        W15978  23.098  40.306  14.808
50994W        W15979  16.701  11.874   1.174
50995W        W15980   3.245   8.866   0.352
50996W        W15981  32.884  23.203   2.787
50997W        W15982  14.296  16.768   2.949
50998W        W15983  23.903  31.047   5.058
50999W        W15984   0.995   6.215  14.343
51000W        W15985  19.146   4.652  12.223
51001W        W15986   9.518   2.715  11.028
51002W        W15987   5.135  27.679  12.637
51003W        W15988  13.553   6.742  11.047
51004W        W15989  11.642   2.947   5.263
51005W        W15990  35.997  31.165  12.559
51006W        W15991  14.420  29.135   4.511
51007W        W15992  19.064   0.858   1.757
51008W        W15993  32.725  26.103   3.136
51009W        W15994  17.313  18.398  11.972
51010W        W15995   6.402  12.345  14.449
51011W        W15996   7.297  29.126   3.919
51012W        W15997  40.175  44.930   4.706
51013W        W15998   1.475   0.444  12.765
51014W        W15999  40.331  41.998  10.691
51015W        W16000   1.032  42.500  14.417
51016W        W16001  33.445   3.339  12.063
51017W        W16002  30.694  41.364   1.814
51018W        W16003  11.598  27.872   4.235
51019W        W16004  42.157  41.213  14.886
51020W        W16005  17.254   2.708  14.337
51021W        W16006  20.516  12.206   2.330
51022W        W16007  27.586   1.459   1.449
51023W        W16008  41.036  20.729   2.362
51024W        W16009  22.704  42.703   4.693
51025W        W16010  11.724   6.629   4.550
51026W        W16011  19.110  27.563   1.328
51027W        W16012  34.493  19.776  14.744
51028W        W16013   1.357  10.250   4.543
51029W        W16014  22.704   1.805  14.242
51030W        W16015  42.161  18.220   4.072
51031W        W16016  38.128  26.475  10.242
51032W        W16017   4.220  36.566  13.725
51033W        W16018  37.252  43.566   3.298
51034W        W16019  32.845  38.630   1.943
51035W        W16020  12.166  14.219   2.241
51036W        W16021  29.604   3.295   2.132
51037W        W16022  40.327   1.790  11.159
51038W        W16023  30.387   6.945   4.664
51039W        W16024  33.691  32.833   0.830
51040W        W16025  20.908  43.966  12.717
51041W        W16026  16.737   2.309   4.881
51042W        W16027  19.653  34.660  10.469
51043W        W16028  40.861  23.518  13.873
51044W        W16029  13.769  41.292  11.406
51045W        W16030  33.017  20.844   1.233
51046W        W16031  40.664  38.492   1.996
51047W        W16032  29.109  30.715  13.990
51048W        W16033  40.858  21.596  13.378
51049W        W16034  20.484  44.787   2.970
51050W        W16035  16.237  43.898   0.065
51051W        W16036  19.124  26.390   2.072
51052W        W16037  29.104   3.087  10.738
51053W        W16038  25.493  12.424   0.360
51054W        W16039  31.467  22.855  13.027
51055W        W16040  22.977  39.544  13.416
51056W        W16041  38.530   9.134   4.693
51057W        W16042  27.824  22.333   1.955
51058W        W16043  12.161  38.585   2.699
51059W        W16044  40.533  33.115   4.813
51060W        W16045   9.417  37.538  12.512
51061W        W16046  27.926  28.994  12.984
51062W        W16047  24.744   4.421   1.767
51063W        W16048   2.947  27.048  14.214
51064W        W16049   3.548  42.940  14.519
51065W        W16050  10.199  38.039   2.688
51066W        W16051   1.240  20.418   2.527
51067W        W16052  32.788  10.642  14.287
51068W        W16053   8.289  43.195  12.999
51069W        W16054  21.953  27.041   2.245
51070W        W16055   2.544  13.934   4.127
51071W        W16056  21.042  39.823   4.305
51072W        W16057  15.487   3.011   3.226
51073W        W16058  26.257  38.523   2.227
51074W        W16059   7.517  29.947  12.064
51075W        W16060   7.625   7.236   3.782
51076W        W16061  29.452  22.511  12.907
51077W        W16062   8.095  17.036   3.757
51078W        W16063  12.826  43.188   2.613
51079W        W16064  16.270  38.017   2.180
51080W        W16065  37.058  10.250  14.623
51081W        W16066  13.181   7.068   3.385
51082W        W16067  11.251  32.339  11.651
51083W        W16068  31.406  12.508  11.492
51084W        W16069  29.422  35.427   0.426
51085W        W16070   3.352  23.107  12.197
51086W        W16071  30.089  35.500   1.187
51087W        W16072  18.522  21.871   2.774
51088W        W16073  21.147   4.787  11.358
51089W        W16074  43.404   2.440  13.991
51090W        W16075  34.516  21.008   3.200
51091W        W16076  17.664  28.497  14.186
51092W        W16077  14.349  18.072   2.376
51093W        W16078  11.272  43.272  10.994
51094W        W16079  19.092  32.430   0.385
51095W        W16080  34.374  10.939  10.601
51096W        W16081   3.755  42.419   2.768
51097W        W16082  14.611  38.553   4.727
51098W        W16083   2.429  35.532  14.826
51099W        W16084   2.744   1.428   1.700
51100W        W16085  34.272  42.509  12.656
51101W        W16086  44.492   2.239   3.684
51102W        W16087  18.350  22.710  14.843
51103W        W16088  36.519   1.951  13.343
51104W        W16089  35.001  43.807  12.611
51105W        W16090  12.819  12.726   3.331
51106W        W16091  37.674  30.158   2.767
51107W        W16092   9.104  32.087  11.432
51108W        W16093  11.491  30.082  14.763
51109W        W16094  33.074  35.895  13.868
51110W        W16095   0.194  11.425   4.826
51111W        W16096  27.613  42.676   1.885
51112W        W16097  16.194  21.298  14.612
51113W        W16098  43.985  29.674  13.437
51114W        W16099   8.495   7.651  13.325
51115W        W16100  23.070  43.183   2.658
51116W        W16101   0.067  18.749   2.318
51117W        W16102  29.387   7.247  12.450
51118W        W16103  17.003  24.919  12.109
51119W        W16104   5.942  12.139   0.523
51120W        W16105  32.968  10.185  12.898
51121W        W16106  21.989  23.142   4.180
51122W        W16107  24.409  25.994   1.628
51123W        W16108  21.750   8.941  12.940
51124W        W16109  19.174  38.813  13.830
51125W        W16110  22.963  21.694   0.196
51126W        W16111  16.326   8.537  14.206
51127W        W16112  16.941  22.158  13.303
51128W        W16113  19.758  18.442  12.119
51129W        W16114  15.834  12.202  12.505
51130W        W16115  16.857  13.153  11.633
51131W        W16116  28.651  13.602  14.442
51132W        W16117   4.481   8.851  12.970
51133W        W16118   8.419  30.066  13.356
51134W        W16119  17.153  28.696   9.990
51135W        W16120  38.862  32.504  13.037
51136W        W16121  41.630  40.575  11.937
51137W        W16122   3.032   5.299   0.501
51138W        W16123  35.205  11.461   4.412
51139W        W16124  24.564  35.368   0.360
51140W        W16125  12.935  24.832  13.974
51141W        W16126  44.872  17.100   4.576
51142W        W16127  24.687  20.278   3.936
51143W        W16128  20.349   0.848  14.385
51144W        W16129  14.656  30.125   2.618
51145W        W16130  37.441   6.173  12.241
51146W        W16131  29.766  42.287  13.845
51147W        W16132  12.927  19.771   0.279
51148W        W16133  28.756  11.573  14.933
51149W        W16134  38.048  12.768  13.990
51150W        W16135   5.437  33.611   3.591
51151W        W16136  17.798   0.787  11.165
51152W        W16137  44.785  28.698   2.348
51153W        W16138  10.110  41.573  11.663
51154W        W16139  17.564   2.754  11.204
51155W        W16140  35.102  10.642   2.850
51156W        W16141  29.949   0.205  14.984
51157W        W16142  41.858   9.164   3.153
51158W        W16143  39.344  18.175   5.534
51159W        W16144  10.161  20.013  12.440
51160W        W16145  14.237  38.901   0.739
51161W        W16146  27.973  35.988   2.378
51162W        W16147  37.419   5.798  14.569
51163W        W16148  23.890  16.982   0.494
51164W        W16149  25.421  40.418  10.783
51165W        W16150  33.296  11.876  12.928
51166W        W16151  31.570  44.790  14.030
51167W        W16152  32.316  28.636   3.986
51168W        W16153   1.996  33.533   1.368
51169W        W16154   0.881  41.056   0.394
51170W        W16155  15.257  29.155  12.065
51171W        W16156  31.912  43.035   2.596
51172W        W16157  23.534  16.267   1.213
51173W        W16158  20.265   9.169   3.700
51174W        W16159  28.413  21.816   0.822
51175W        W16160  13.076  16.933   2.311
51176W        W16161   9.836   3.835  14.756
51177W        W16162  25.131  28.478  13.082
51178W        W16163  29.418  39.026  12.451
51179W        W16164   0.360  37.153   1.107
51180W        W16165  17.007  20.671   0.205
51181W        W16166  38.666  35.547   5.381
51182W        W16167   1.758  28.442  12.149
51183W        W16168   6.640  18.164  14.777
51184W        W16169  10.821  18.863   0.383
51185W        W16170  43.967  30.154  11.116
51186W        W16171   4.721   0.295  11.533
51187W        W16172  38.511  23.005   0.926
51188W        W16173  33.288  31.815   9.954
51189W        W16174  43.950  44.526   4.280
51190W        W16175   0.478   9.260  14.435
51191W        W16176   8.300  25.504   1.272
51192W        W16177   6.584   5.518   1.301
51193W        W16178  40.146  15.520  14.495
51194W        W16179  25.307  39.920  14.027
51195W        W16180   8.630  36.024   0.559
51196W        W16181  13.254  26.006   3.888
51197W        W16182  23.093   0.599  14.525
51198W        W16183  10.592  37.605  11.512
51199W        W16184  41.953   1.346   3.112
51200W        W16185  27.266   9.891   2.840
51201W        W16186   0.204  31.885   3.423
51202W        W16187  35.358  16.275   1.706
51203W        W16188  30.776  20.333   3.096
51204W        W16189  12.899   9.358  14.468
51205W        W16190   1.057   5.928  12.075
51206W        W16191   9.187  14.792   3.308
51207W        W16192  24.459  16.305  11.504
51208W        W16193  43.966  16.629   2.414
51209W        W16194  38.398   8.262  10.529
51210W        W16195  19.320   4.201   2.153
51211W        W16196  41.809   4.214   2.943
51212W        W16197  26.741  34.403  13.449
51213W        W16198  36.356   4.863  12.862
51214W        W16199  22.509  17.078   0.409
51215W        W16200  29.382  38.529   0.744
51216W        W16201  27.118   5.721  13.032
51217W        W16202  10.906   3.272   2.164
51218W        W16203  26.581  38.552   3.655
51219W        W16204  33.378   1.772   0.879
51220W        W16205  29.273  16.761  13.483
51221W        W16206  18.186   6.201  13.930
51222W        W16207  34.539  43.925  12.368
51223W        W16208  44.071   8.209  10.488
51224W        W16209  29.502  20.167  14.763
51225W        W16210  24.427  32.024   0.978
51226W        W16211   9.719  34.617  12.585
51227W        W16212  16.503  38.987   2.943
51228W        W16213  44.730  30.453  10.655
51229W        W16214  17.815  14.187   1.825
51230W        W16215  14.679   3.467  13.236
51231W        W16216  13.999   7.186   1.423
51232W        W16217  19.511  29.395   5.025
51233W        W16218  18.337  34.595  13.540
51234W        W16219  44.780  18.134   0.316
51235W        W16220  36.888  15.121   0.771
51236W        W16221   1.957  44.002  11.664
51237W        W16222  39.715  15.781  12.860
51238W        W16223  40.574  37.568   2.605
51239W        W16224  42.267  25.559  13.017
51240W        W16225   4.857  14.612   1.243
51241W        W16226  14.894   8.292  13.927
51242W        W16227  29.963  14.509  13.813
51243W        W16228  12.299  14.962  11.103
51244W        W16229   6.911   3.777   3.400
51245W        W16230   2.465  12.805   0.477
51246W        W16231   8.464  12.707   2.219
51247W        W16232  25.624  27.134  10.648
51248W        W16233  29.255  28.311   0.169
51249W        W16234  37.300  29.630   3.555
51250W        W16235  34.920  17.316  10.317
51251W        W16236  20.048   9.647   3.789
51252W        W16237  13.221  16.096  12.092
51253W        W16238  37.598   1.915  14.053
51254W        W16239  26.149   1.970  13.994
51255W        W16240  20.972   1.392  12.072
51256W        W16241  34.491   0.469   4.477
51257W        W16242  43.947  23.233  11.959
51258W        W16243  34.008   2.641  14.650
51259W        W16244  39.249  24.042   3.043
51260W        W16245   2.278  38.587   2.895
51261W        W16246   0.581   3.949  12.072
51262W        W16247  24.958  23.395   2.368
51263W        W16248  34.455  21.286   1.819
51264W        W16249  20.525  31.500  13.544
51265W        W16250  16.947  33.465  13.865
51266W        W16251   7.481  21.986   4.527
51267W        W16252  30.862   1.859   0.730
51268W        W16253  26.930   6.418   1.146
51269W        W16254  10.626  16.307   0.744
51270W        W16255  39.901   3.434  12.400
51271W        W16256  26.489  26.051   3.226
51272W        W16257  34.814  43.343  13.503
51273W        W16258   5.334  38.484   4.134
51274W        W16259  20.703  35.977   0.968
51275W        W16260  31.647  34.186  11.748
51276W        W16261  11.612   8.710  13.424
51277W        W16262  30.227   9.245  13.515
51278W        W16263  20.087  32.500   2.373
51279W        W16264  25.404  20.259   3.367
51280W        W16265  17.740  21.702  13.440
51281W        W16266  34.815  13.818   3.804
51282W        W16267  39.821   4.521   3.627
51283W        W16268  14.662   1.889   1.814
51284W        W16269  13.616  24.954   0.063
51285W        W16270  36.737  13.741   4.191
51286W        W16271   6.177  15.573  12.855
51287W        W16272  42.854  22.695  10.634
51288W        W16273  20.092  19.043   1.342
51289W        W16274  29.113  17.713   1.611
51290W        W16275  25.599   0.444  11.555
51291W        W16276   3.856   3.219  13.274
51292W        W16277  22.852  23.734  11.242
51293W        W16278  43.052  22.961   0.976
51294W        W16279   2.789  25.887  10.751
51295W        W16280  39.506  36.390  11.721
51296W        W16281  28.568  27.189  12.906
51297W        W16282  23.434  18.716   1.654
51298W        W16283  17.828   9.822  11.201
51299W        W16284  38.048   8.445  13.019
51300W        W16285  31.333  40.278   2.806
51301W        W16286  33.816  16.605  13.485
51302W        W16287  22.646  30.227  11.394
51303W        W16288  17.140  18.130   1.321
51304W        W16289   8.644  21.757  12.185
51305W        W16290  40.794  13.039  11.921
51306W        W16291  42.009  20.076   0.235
51307W        W16292  38.049  40.539  12.184
51308W        W16293  44.796  15.136  11.744
51309W        W16294  12.188  29.530   4.172
51310W        W16295  42.328  43.240   0.301
51311W        W16296   1.263  12.156   0.429
51312W        W16297  35.881  24.029  13.258
51313W        W16298  19.615  39.556  14.971
51314W        W16299  21.468  26.924  11.530
51315W        W16300  44.340  25.700   3.783
51316W        W16301  21.277  31.996  13.838
51317W        W16302  23.001   3.932   3.606
51318W        W16303  39.286  10.348  11.150
51319W        W16304  31.590   0.162   5.080
51320W        W16305  31.691  42.358  14.759
51321W        W16306  39.318  40.767   1.920
51322W        W16307  15.621  38.364   2.272
51323W        W16308  16.512  37.789   0.344
51324W        W16309  26.972  41.402   0.571
51325W        W16310  11.376  40.004   1.827
51326W        W16311  14.349  18.576   2.331
51327W        W16312  19.041  26.687   3.174
51328W        W16313  22.076  16.296   2.895
51329W        W16314   0.205  12.076   2.925
51330W        W16315  33.942  28.562   4.149
51331W        W16316  28.947   0.433   0.907
51332W        W16317   7.527  35.406   2.788
51333W        W16318  15.563  44.260   0.897
51334W        W16319  19.617  11.213  12.476
51335W        W16320  12.379  35.010   4.634
51336W        W16321  24.235  29.662  12.506
51337W        W16322  44.142   7.014  11.058
51338W        W16323  43.477  37.629  13.031
51339W        W16324  39.475  44.764   3.698
51340W        W16325  38.893  10.309  14.938
51341W        W16326  41.885  24.139  14.791
51342W        W16327   9.157  18.582  13.403
51343W        W16328  38.955  16.624   1.692
51344W        W16329  12.716   9.747   3.674
51345W        W16330  43.300  28.475   4.547
51346W        W16331  41.522  22.437  11.150
51347W        W16332  25.973  22.057   0.782
51348W        W16333  24.347  17.723  10.422
51349W        W16334  14.309  23.551   0.533
51350W        W16335  31.912  21.318  13.776
51351W        W16336   5.365   0.298   3.186
51352W        W16337  37.831  41.642   1.211
51353W        W16338  37.434   6.528  12.593
51354W        W16339  19.642  41.548  12.114
51355W        W16340  31.893   5.847   3.830
51356W        W16341  19.653  12.740   4.677
51357W        W16342  16.305  21.607  13.667
51358W        W16343  37.079   3.322   3.309
51359W        W16344  10.175  17.649  14.351
51360W        W16345  44.817  33.895  14.318
51361W        W16346   7.740   5.627   1.771
51362W        W16347  16.279  20.190   4.278
51363W        W16348   2.422   9.928   1.157
51364W        W16349  23.642  37.646   4.610
51365W        W16350  31.420   3.662   2.871
51366W        W16351  27.125   0.187   4.977
51367W        W16352  18.617  10.662   1.741
51368W        W16353   7.378  28.051   2.568
51369W        W16354  23.268  24.958  14.782
51370W        W16355  31.938   8.739  13.864
51371W        W16356  42.796  36.550   3.005
51372W        W16357  35.884   9.847   2.792
51373W        W16358   5.214  24.017  14.799
51374W        W16359   1.940  25.201   2.760
51375W        W16360   3.990  24.462  12.507
51376W        W16361  18.137  23.238  14.029
51377W        W16362   2.503  29.902   4.148
51378W        W16363  22.597  33.558  12.419
51379W        W16364  11.864  17.423  10.425
51380W        W16365  19.636  36.463   1.667
51381W        W16366  38.311  43.236   0.460
51382W        W16367   8.513   4.892   2.257
51383W        W16368  28.178   7.483  10.296
51384W        W16369  25.586  26.284  13.963
51385W        W16370  30.592  16.731   3.215
51386W        W16371  32.580   1.385   4.651
51387W        W16372  38.639  21.614   0.342
51388W        W16373  26.444  12.412   4.596
51389W        W16374  30.265  17.708  13.461
51390W        W16375  36.526   6.908  12.650
51391W        W16376   0.686   8.846   3.825
51392W        W16377  22.099   8.293   2.488
51393W        W16378  24.551   4.956  14.904
51394W        W16379  10.219  25.634   4.509
51395W        W16380  23.622  35.003   4.494
51396W        W16381  28.395  37.985  10.528
51397W        W16382  11.212   4.268  10.849
51398W        W16383  19.853  34.016  13.838
51399W        W16384  17.664   8.650  12.443
51400W        W16385   3.790   8.305  13.269
51401W        W16386  19.730  17.170   1.386
51402W        W16387  44.710  40.445  10.652
51403W        W16388  15.035  34.058   2.500
51404W        W16389  16.329  10.433  12.260
51405W        W16390   6.709  23.786   2.379
51406W        W16391   4.936   9.485  11.041
51407W        W16392   6.446   7.519   0.458
51408W        W16393  41.121  10.787   4.739
51409W        W16394  44.347  14.423  11.174
51410W        W16395  12.204   4.755  13.452
51411W        W16396   5.213  22.779  10.674
51412W        W16397  11.578  39.748  14.093
51413W        W16398  18.585  42.432  13.081
51414W        W16399   1.268  30.165   2.283
51415W        W16400  35.617  22.951  12.373
51416W        W16401  26.167  26.123   1.354
51417W        W16402  39.263  34.324  10.624
51418W        W16403  40.004  14.589   4.172
51419W        W16404  36.937   4.754   1.221
51420W        W16405  19.353  27.305  13.447
51421W        W16406  32.916  28.408  12.917
51422W        W16407  43.027  10.253  13.009
51423W        W16408  11.676  21.073  11.056
51424W        W16409  19.444   7.000   3.634
51425W        W16410  24.565  41.370   2.712
51426W        W16411  29.254  36.583  11.756
51427W        W16412  38.632  19.973  11.586
51428W        W16413  25.635  10.302   3.114
51429W        W16414   4.113  15.235  11.486
51430W        W16415  14.434   2.266   4.483
51431W        W16416   3.533  22.565  14.144
51432W        W16417  24.453  16.830   4.578
51433W        W16418  43.319   5.239  13.373
51434W        W16419  35.508  30.044  12.587
51435W        W16420  34.117  29.436   0.309
51436W        W16421  15.816  15.173   3.123
51437W        W16422  13.895  16.350   4.643
51438W        W16423  22.165  16.389   3.467
51439W        W16424  20.683   8.632  13.334
51440W        W16425  26.955  30.069  12.063
51441W        W16426  37.357  10.161   4.650
51442W        W16427  42.599  13.837   2.443
51443W        W16428  40.900  32.137  11.295
51444W        W16429  22.479  16.001  14.981
51445W        W16430   9.257  20.904   3.096
51446W        W16431  30.054  28.138   2.193
51447W        W16432  37.474  17.061  12.506
51448W        W16433  31.250  26.226  13.900
51449W        W16434  14.968  11.312  13.461
51450W        W16435   2.150  18.201   0.368
51451W        W16436  28.226   2.785   5.375
51452W        W16437  14.849   1.483  12.545
51453W        W16438  29.728  14.062   2.182
51454W        W16439  13.799  16.024   4.224
51455W        W16440  14.702  37.661   3.054
51456W        W16441  37.984  16.059   2.788
51457W        W16442  20.681  21.495   1.352
51458W        W16443  12.079  27.272  14.312
51459W        W16444   1.316   1.286   3.469
51460W        W16445   8.312  43.316  11.918
51461W        W16446  41.902  12.218   0.096
51462W        W16447  19.054   6.706   2.339
51463W        W16448   4.204  28.134  12.513
51464W        W16449  25.008   7.627   4.460
51465W        W16450   0.108  29.846  14.755
51466W        W16451  35.344  43.527  10.814
51467W        W16452  12.188  13.336   3.265
51468W        W16453  42.395  31.419   3.721
51469W        W16454  18.580  43.900  13.962
51470W        W16455   3.768  10.643   4.619
51471W        W16456  44.887  11.206  11.659
51472W        W16457  25.707   1.499  13.475
51473W        W16458   7.216  12.756  10.583
51474W        W16459   8.170   4.466  13.979
51475W        W16460  13.142   1.983   4.144
51476W        W16461   0.968   8.350   0.023
51477W        W16462  33.547  32.144  10.937
51478W        W16463  39.001  10.143   1.792
51479W        W16464  17.971   2.761   4.253
51480W        W16465  43.047  22.779   3.424
51481W        W16466   3.815  13.591  12.549
51482W        W16467  35.396   9.772   0.357
51483W        W16468  25.204  22.526  12.807
51484W        W16469  40.365  32.075   2.737
51485W        W16470  36.065  29.420   0.973
51486W        W16471  23.149  14.790   3.905
51487W        W16472   4.483  35.553   2.657
51488W        W16473   3.244   9.664  14.821
51489W        W16474   9.671  43.461   3.631
51490W        W16475  38.009  36.891   3.473
51491W        W16476   6.407  38.019  12.022
51492W        W16477  29.383  14.214  11.244
51493W        W16478  14.566  44.796  13.038
51494W        W16479   7.129  38.157  13.370
51495W        W16480   5.404  13.391  13.499
51496W        W16481  11.711  32.126  13.106
51497W        W16482   8.913  15.651   5.070
51498W        W16483  26.032  34.949  11.636
51499W        W16484  21.261  13.456  14.556
51500W        W16485  38.500   0.014   4.130
51501W        W16486  23.629  20.782  10.708
51502W        W16487  36.594  37.446   5.146
51503W        W16488  40.333   9.042   1.260
51504W        W16489  14.618  43.512  12.480
51505W        W16490  40.469  39.962   1.388
51506W        W16491  40.083  35.058   1.968
51507W        W16492  42.854  38.833   2.217
51508W        W16493  21.072  17.801   3.458
51509W        W16494  23.696   4.450   2.408
51510W        W16495  19.099  30.545   2.287
51511W        W16496  38.425  15.222  11.208
51512W        W16497  28.068  18.003   4.409
51513W        W16498  23.057  24.949   3.310
51514W        W16499  43.780  10.932  13.905
51515W        W16500  29.960   9.928   1.390
51516W        W16501  14.532   2.392   1.748
51517W        W16502   1.743  14.106  12.316
51518W        W16503   4.919  34.649  12.858
51519W        W16504   5.503  21.777  10.984
51520W        W16505  30.006  23.885  14.444
51521W        W16506   6.885  10.315  11.947
51522W        W16507  23.659  13.137  12.084
51523W        W16508  42.513   4.012  11.408
51524W        W16509  25.622  30.756  12.955
51525W        W16510  28.045  17.658  14.433
51526W        W16511  18.701  34.967   4.319
51527W        W16512  40.060  20.155  13.392
51528W        W16513  22.180   0.633   0.410
51529W        W16514  36.030  19.228   2.419
51530W        W16515  26.653  18.198  14.028
51531W        W16516  28.175  29.497   4.576
51532W        W16517   5.268  26.529  10.952
51533W        W16518  34.346   4.191  10.959
51534W        W16519  15.336  29.629  12.977
51535W        W16520  33.997  44.218   1.721
51536W        W16521  18.715  44.867  10.891
51537W        W16522  15.216   9.441   1.256
51538W        W16523  14.666  34.103  12.100
51539W        W16524   9.398  19.460   1.252
51540W        W16525  37.256  23.656  14.947
51541W        W16526  33.129  30.884  12.931
51542W        W16527   0.365  11.761  11.898
51543W        W16528  35.736  32.363  12.948
51544W        W16529  30.806   0.026  12.878
51545W        W16530  20.348  43.917   2.326
51546W        W16531  27.657  23.645  10.606
51547W        W16532  29.611  29.003   5.078
51548W        W16533  40.223   3.291   4.055
51549W        W16534  35.483  25.139  11.531
51550W        W16535   3.148  37.927  11.562
51551W        W16536  38.899  20.769   2.774
51552W        W16537  19.434   3.992  11.692
51553W        W16538  40.829  18.540   1.387
51554W        W16539   9.788  19.310  11.738
51555W        W16540  27.677  21.872  10.599
51556W        W16541  14.071  33.068  14.924
51557W        W16542  18.262  14.599   4.062
51558W        W16543  15.041  20.572  12.329
51559W        W16544  36.767  40.282   2.843
51560W        W16545  10.277  42.607  14.506
51561W        W16546   0.493   3.696  13.452
51562W        W16547  35.902  32.266   2.138
51563W        W16548   1.746   2.293   2.432
51564W        W16549  12.170   4.633   3.373
51565W        W16550  36.405  34.101   3.320
51566W        W16551  16.374  31.955  13.967
51567W        W16552   2.456  10.454   3.787
51568W        W16553  33.095  35.560   0.474
51569W        W16554  32.200  44.092   9.955
51570W        W16555   4.608  16.047  14.323
51571W        W16556   3.478  31.010   1.715
51572W        W16557  44.473   9.687   1.344
51573W        W16558  24.478  41.772  14.689
51574W        W16559   9.482  17.910   0.933
51575W        W16560   4.430  24.456   2.117
51576W        W16561   9.920  16.857   1.682
51577W        W16562  12.815  29.639  14.489
51578W        W16563  12.716  37.790  11.494
51579W        W16564  15.207   3.434   4.865
51580W        W16565  22.178  36.846   1.244
51581W        W16566   7.721   3.810  13.068
51582W        W16567  29.471  30.473   2.683
51583W        W16568  29.877  17.513   2.212
51584W        W16569   3.349  36.092  12.565
51585W        W16570  42.785  36.669   4.538
51586W        W16571  23.243  25.753   2.963
51587W        W16572  38.385  37.420   2.212
51588W        W16573  26.683   6.352   4.851
51589W        W16574  19.698  10.430   4.441
51590W        W16575   8.346   9.335   3.368
51591W        W16576  16.444  22.741  11.592
51592W        W16577  27.742  16.786   2.787
51593W        W16578   7.460  38.418  14.336
51594W        W16579  36.756  40.900  12.930
51595W        W16580  18.033  19.919  13.762
51596W        W16581  15.943  37.653  11.240
51597W        W16582  25.615  42.289  13.401
51598W        W16583  11.261   2.780   1.597
51599W        W16584  30.803  37.264   0.892
51600W        W16585   9.753  37.317   2.245
51601W        W16586   9.477  11.135   4.199
51602W        W16587   2.973  23.596  10.378
51603W        W16588  19.271  11.743   2.841
51604W        W16589   9.623  39.461  13.092
51605W        W16590   7.188  27.125   2.170
51606W        W16591  40.543  11.621  14.948
51607W        W16592  32.304  41.512  13.896
51608W        W16593  24.044  39.579  14.981
51609W        W16594  13.087  26.160  14.537
51610W        W16595  27.053   0.192  11.515
51611W        W16596  15.783   3.751  13.912
51612W        W16597  35.605  30.149  13.509
51613W        W16598  37.385  15.691  12.095
51614W        W16599   1.826  11.214   0.071
51615W        W16600  32.489   3.965  14.559
51616W        W16601   1.689  35.560  11.246
51617W        W16602  20.225   7.057   4.106
51618W        W16603  11.775  31.909  10.754
51619W        W16604  22.458  37.290   1.290
51620W        W16605   4.631  42.316  10.230
51621W        W16606  32.519  16.166   4.318
51622W        W16607  12.575  16.659  14.517
51623W        W16608   5.287  21.587  12.874
51624W        W16609   6.788   8.659   2.598
51625W        W16610  15.901   5.750  13.559
51626W        W16611  18.118  34.832  14.004
51627W        W16612   1.728  40.117  12.059
51628W        W16613   1.258  23.557  13.636
51629W        W16614  21.653   1.670   3.290
51630W        W16615  38.046   3.070   0.645
51631W        W16616  16.561  23.741   0.824
51632W        W16617  19.017   3.175  13.212
51633W        W16618  41.307  23.346  11.714
51634W        W16619  28.940  22.521   1.221
51635W        W16620  32.117  34.141  11.925
51636W        W16621  28.103  19.690   4.453
51637W        W16622  35.400  39.391  14.096
51638W        W16623  29.562  22.543   3.204
51639W        W16624  43.452  29.298  13.353
51640W        W16625  11.481  31.509  13.748
51641W        W16626   0.386  12.435   0.691
51642W        W16627  38.033  22.469  12.044
51643W        W16628  35.433  36.251   3.088
51644W        W16629  34.667  28.045   2.236
51645W        W16630  37.943  29.289  11.320
51646W        W16631   7.872  29.058   2.185
51647W        W16632   0.382  33.542   1.242
51648W        W16633   0.074  38.347   0.009
51649W        W16634   3.692  25.736   0.862
51650W        W16635  29.990   7.604  14.351
51651W        W16636   2.231  30.154  11.128
51652W        W16637   1.624  44.512  11.206
51653W        W16638  34.966  19.611   4.587
51654W        W16639  15.598  26.473  11.214
51655W        W16640  13.127  38.394  13.510
51656W        W16641  38.840  24.960  10.256
51657W        W16642  28.002  31.691   2.692
51658W        W16643  31.648  21.131   1.206
51659W        W16644  10.690  10.231   1.581
51660W        W16645  23.027  21.702  13.383
51661W        W16646  20.962  21.371   2.737
51662W        W16647  35.088  11.862  13.379
51663W        W16648  42.847  22.995   0.486
51664W        W16649   3.950   1.341  13.167
51665W        W16650  32.424   2.745  13.889
51666W        W16651  38.519  41.239   1.964
51667W        W16652  38.073  12.780   3.135
51668W        W16653   7.231  20.239  11.298
51669W        W16654  18.289  17.238   1.864
51670W        W16655  39.079  19.388   4.460
51671W        W16656  10.196  30.406  14.510
51672W        W16657  11.760  11.832  14.459
51673W        W16658   4.266  19.554  10.711
51674W        W16659   0.401  27.491  14.974
51675W        W16660  16.785  44.332   1.415
51676W        W16661   9.160  16.295  14.257
51677W        W16662  13.992  37.418   1.424
51678W        W16663  20.335   7.291  10.629
51679W        W16664  26.749  37.917   0.085
51680W        W16665  41.626   3.563   0.736
51681W        W16666  23.547  42.449  12.733
51682W        W16667   1.629  27.065  12.527
51683W        W16668  43.811  42.412   1.222
51684W        W16669  37.831  25.633  14.911
51685W        W16670  21.290  11.213   0.216
51686W        W16671  28.291   4.260  10.904
51687W        W16672  34.217   1.440  11.955
51688W        W16673  11.485  26.993  11.070
51689W        W16674  14.138  43.504   4.157
51690W        W16675   6.985  23.470  14.892
51691W        W16676  38.757  18.804   4.520
51692W        W16677   1.147  40.958  14.964
51693W        W16678  41.267  17.857   2.759
51694W        W16679  15.158  43.845  14.516
51695W        W16680  29.717  34.155  11.394
51696W        W16681  14.984  22.230  14.859
51697W        W16682   3.695  32.286  11.035
51698W        W16683  39.348  41.301   4.803
51699W        W16684  44.451  35.328  12.247
51700W        W16685   8.307   7.609  12.483
51701W        W16686   5.133  23.512  11.177
51702W        W16687  19.766  30.619  13.634
51703W        W16688  40.914  40.299  12.958
51704W        W16689   9.213  37.482   3.708
51705W        W16690  19.547   2.500   2.395
51706W        W16691  30.062   4.358  11.632
51707W        W16692  25.558  31.945  13.603
51708W        W16693   8.993   5.038   2.053
51709W        W16694  12.135  11.271   2.151
51710W        W16695  42.417   0.031  11.532
51711W        W16696  19.263  29.005   3.963
51712W        W16697  13.770   9.825   4.531
51713W        W16698  20.114   8.051  12.129
51714W        W16699  20.523  30.505   2.522
51715W        W16700  16.759  27.181  14.584
51716W        W16701  24.093  40.387  12.238
51717W        W16702  13.209  25.558   4.132
51718W        W16703  42.004  26.236  13.527
51719W        W16704  37.328  42.323  10.758
51720W        W16705  43.948  16.642   0.880
51721W        W16706   0.908  10.848   1.761
51722W        W16707   5.178   0.913   1.366
51723W        W16708  41.886  35.134  12.928
51724W        W16709  19.223  19.164  14.961
51725W        W16710   1.306   1.250  14.766
51726W        W16711  42.925  41.232   5.044
51727W        W16712  36.749  33.362  11.994
51728W        W16713  30.487  23.631   2.631
51729W        W16714   4.923  28.164   1.840
51730W        W16715   1.809  41.350  14.591
51731W        W16716   9.248  13.385   4.592
51732W        W16717  39.914  11.535   0.668
51733W        W16718  39.770  13.966  10.719
51734W        W16719  39.998  36.543   4.623
51735W        W16720   3.839  40.601  12.119
51736W        W16721  15.822  15.502  11.571
51737W        W16722   6.237  16.657   3.594
51738W        W16723   0.756  10.753   4.935
51739W        W16724  37.827  33.586  10.670
51740W        W16725  31.485   9.658   0.803
51741W        W16726  24.348  44.554   2.394
51742W        W16727   8.683  12.746  13.368
51743W        W16728  10.489  27.067  12.848
51744W        W16729   0.302  16.984  14.771
51745W        W16730  28.167  28.103  11.215
51746W        W16731  29.674  13.538  12.365
51747W        W16732  43.258   8.706  13.403
51748W        W16733  44.953  21.145   4.286
51749W        W16734  11.440  36.295  14.376
51750W        W16735   5.163   5.411  14.946
51751W        W16736   4.805  13.751  11.978
51752W        W16737  26.371   5.374  11.935
51753W        W16738   7.238  37.665  14.912
51754W        W16739  40.525  19.050   3.730
51755W        W16740  42.837   3.611  11.319
51756W        W16741  41.869  13.363  14.830
51757W        W16742  40.575  16.324   0.850
51758W        W16743  12.172  40.004   3.868
51759W        W16744  32.803  20.506  13.023
51760W        W16745  26.139  11.975  12.665
51761W        W16746  20.948  12.208  11.099
51762W        W16747  28.024  27.914   4.665
51763W        W16748  40.957  44.447  12.974
51764W        W16749   0.820  18.346  10.666
51765W        W16750  26.550  11.795  13.578
51766W        W16751  13.856  13.717  11.645
51767W        W16752  13.439  11.672  10.746
51768W        W16753  21.583  22.510  13.350
51769W        W16754  27.004   2.341   0.850
51770W        W16755   6.752   4.411   2.158
51771W        W16756   5.839  10.328   1.506
51772W        W16757   2.588  12.626  11.208
51773W        W16758  10.626   6.033  14.835
51774W        W16759  43.967  28.859   1.330
51775W        W16760  42.529   5.815   0.697
51776W        W16761  40.529   0.002  14.074
51777W        W16762  14.391  32.178  14.859
51778W        W16763  39.449  12.333   0.638
51779W        W16764  19.132  20.472  12.542
51780W        W16765   6.727  41.812  14.087
51781W        W16766  33.736  33.497   2.202
51782W        W16767  17.875  27.085   1.765
51783W        W16768  42.072  17.668  13.902
51784W        W16769   7.438   4.012  12.114
51785W        W16770  41.930   1.144  13.166
51786W        W16771   7.182  14.912   0.739
51787W        W16772  42.401  12.911   0.372
51788W        W16773  28.537  40.068  11.486
51789W        W16774   7.672  24.964  14.313
51790W        W16775  10.180   6.070  11.403
51791W        W16776   4.776  27.594   4.304
51792W        W16777  12.530  16.993   3.442
51793W        W16778  39.284  35.527  12.949
51794W        W16779   1.143  12.926  11.621
51795W        W16780  31.919  41.353   1.286
51796W        W16781  42.566  15.625   0.855
51797W        W16782  23.297  36.732  12.083
51798W        W16783   8.924   6.163   2.945
51799W        W16784  29.534  22.537  11.549
51800W        W16785  12.637  44.578  11.985
51801W        W16786  30.868  17.162  14.905
51802W        W16787  17.894  44.792   0.266
51803W        W16788  24.324  26.576   4.724
51804W        W16789  24.524  29.482   4.494
51805W        W16790   7.699  26.637  10.303
51806W        W16791  18.445  28.386  11.515
51807W        W16792  41.529  20.327  10.516
51808W        W16793  11.675  40.355   1.133
51809W        W16794  39.614  22.098  11.132
51810W        W16795  33.156  26.533  14.367
51811W        W16796  20.511  16.499   1.857
51812W        W16797  23.828  31.962  12.703
51813W        W16798  39.928  28.453   1.110
51814W        W16799   3.652  34.970   1.404
51815W        W16800   0.711  27.170  12.573
51816W        W16801  16.798  14.659  14.794
51817W        W16802  36.867  19.051  11.139
51818W        W16803   0.441  13.071   4.408
51819W        W16804   4.872  24.390  10.711
51820W        W16805  11.094   1.569   1.734
51821W        W16806  22.295  24.104  13.388
51822W        W16807   5.921  33.475   4.205
51823W        W16808  21.983  43.546  12.045
51824W        W16809  15.561   0.979   2.375
51825W        W16810   8.870   8.101  14.906
51826W        W16811  13.852  12.027   3.423
51827W        W16812  39.918  18.560  14.495
51828W        W16813   6.307  27.469   4.044
51829W        W16814  40.055  20.220   3.776
51830W        W16815  20.182  31.449   3.949
51831W        W16816  21.209  37.860  12.874
51832W        W16817  12.204  23.753   1.647
51833W        W16818  29.992  24.078   3.310
51834W        W16819  38.721   4.927  11.022
51835W        W16820  28.778  44.036   3.189
51836W        W16821  16.339  40.966  12.447
51837W        W16822   4.279  38.497  13.525
51838W        W16823  35.076  32.513  11.791
51839W        W16824  12.808  42.282   2.350
51840W        W16825  28.748  17.187   3.815
51841W        W16826  12.266  16.124  14.264
51842W        W16827  19.620  15.835  14.436
51843W        W16828  38.049  38.942  12.922
51844W        W16829  13.232   2.771  14.719
51845W        W16830  38.559  40.555  13.483
51846W        W16831  38.737  13.102   3.162
51847W        W16832  23.154   9.876  13.820
51848W        W16833  34.026  29.617   1.799
51849W        W16834   7.083   0.273  13.700
51850W        W16835  18.603  18.133  12.150
51851W        W16836  43.285  23.150  12.482
51852W        W16837  18.830   3.477   3.913
51853W        W16838  16.769   4.755   4.067
51854W        W16839  13.182  20.274   0.660
51855W        W16840  33.440  30.830   3.928
51856W        W16841  17.581  32.532   3.682
51857W        W16842  39.445  12.919  11.631
51858W        W16843  19.672   9.276  12.939
51859W        W16844  44.499  17.690  11.996
51860W        W16845  19.142   4.746  13.997
51861W        W16846  15.538  30.572  12.984
51862W        W16847  15.841   9.727  10.686
51863W        W16848  19.772  29.287   4.078
51864W        W16849  40.830  33.516   0.730
51865W        W16850  30.878  19.856  10.709
51866W        W16851  31.618  44.248   2.000
51867W        W16852  12.695  11.937  11.330
51868W        W16853   7.593  11.120  13.921
51869W        W16854   6.684  17.898  13.569
51870W        W16855  26.474   9.149   4.389
51871W        W16856  16.325   1.629  11.537
51872W        W16857   2.797  34.982   1.357
51873W        W16858   6.228  20.499  14.458
51874W        W16859   5.996  23.219  14.073
51875W        W16860   4.833  14.250  10.543
51876W        W16861  15.796   8.358   2.735
51877W        W16862  31.154   6.190   2.700
51878W        W16863  25.145  16.747   0.210
51879W        W16864  44.135   5.469  13.994
51880W        W16865  31.433   4.392  10.419
51881W        W16866  30.438  11.441  10.554
51882W        W16867  19.804   8.251   3.755
51883W        W16868  22.753  44.968   0.479
51884W        W16869   6.471   8.068   1.363
51885W        W16870  41.455  21.946  13.837
51886W        W16871  39.035   6.264  13.301
51887W        W16872   7.410  17.062  11.751
51888W        W16873  34.924  17.112   0.840
51889W        W16874  16.651  17.231  12.908
51890W        W16875  36.294   6.652  13.491
51891W        W16876  14.078  15.013  14.025
51892W        W16877  36.790  44.434   9.963
51893W        W16878  40.716  24.954  14.781
51894W        W16879  16.800   1.861  13.805
51895W        W16880   3.672  38.060   3.333
51896W        W16881  10.985  13.771   3.694
51897W        W16882  16.110  15.519  11.153
51898W        W16883   0.299  39.105  13.393
51899W        W16884  36.270  13.728  10.651
51900W        W16885  38.079  15.566  11.306
51901W        W16886   9.200  18.776  14.282
51902W        W16887  24.483  25.246  14.452
51903W        W16888  36.846  42.370   2.684
51904W        W16889  27.561  16.198   4.271
51905W        W16890   1.451  15.686  10.263
51906W        W16891  42.194  17.851   0.920
51907W        W16892  17.513  32.501  13.995
51908W        W16893   8.158  25.532   0.276
51909W        W16894  13.396  30.839   2.815
51910W        W16895  25.184  30.744  14.311
51911W        W16896   6.329   8.719  12.708
51912W        W16897  23.040  19.421   5.062
51913W        W16898  44.965  29.974  10.674
51914W        W16899  21.046  23.748   4.693
51915W        W16900  15.933  24.139  11.458
51916W        W16901  10.347  11.571  11.664
51917W        W16902  41.587  43.367  12.507
51918W        W16903  38.876  13.330  12.119
51919W        W16904  32.414  33.999  12.315
51920W        W16905  14.578  14.277  12.092
51921W        W16906  40.505  15.297  13.561
51922W        W16907  35.192  21.484   0.458
51923W        W16908  22.126  20.831   3.754
51924W        W16909  33.091   5.434   3.410
51925W        W16910  23.750  15.314   0.851
51926W        W16911  27.549  22.707  11.952
51927W        W16912   0.397  44.290  13.733
51928W        W16913  31.908  31.915  11.623
51929W        W16914  40.609  23.126  10.564
51930W        W16915  29.891  37.663  12.416
51931W        W16916  35.496  28.295   2.364
51932W        W16917   6.803  33.516  13.889
51933W        W16918   2.854   0.963   1.857
51934W        W16919  17.220  36.562   0.366
51935W        W16920   9.183   9.256  10.573
51936W        W16921   2.523  13.702  12.482
51937W        W16922  13.449  14.169   0.628
51938W        W16923   2.811  34.806   3.689
51939W        W16924  36.080   9.480  13.857
51940W        W16925  38.610   0.800  12.324
51941W        W16926  13.337   9.251  13.549
51942W        W16927  44.917  40.835  14.331
51943W        W16928  13.804  24.132   4.558
51944W        W16929  38.081  25.958   3.763
51945W        W16930  11.991  33.183   1.270
51946W        W16931  41.788  19.205   2.284
51947W        W16932   4.271  40.375  14.444
51948W        W16933  15.399  35.559   1.143
51949W        W16934  44.714  38.378   3.959
51950W        W16935  42.179   5.364  10.683
51951W        W16936  38.382  16.190  11.527
51952W        W16937  41.861  12.342  10.050
51953W        W16938  43.278  26.729  12.038
51954W        W16939  38.191   2.868   1.879
51955W        W16940   2.303  39.831  14.286
51956W        W16941  16.657  13.840   2.214
51957W        W16942  41.961  33.584  11.587
51958W        W16943  12.608  43.039  11.130
51959W        W16944   7.118   8.037   3.642
51960W        W16945   8.639  33.962   1.471
51961W        W16946  41.997  36.062   1.968
51962W        W16947  38.326   2.186   3.443
51963W        W16948  23.713   5.420   0.906
51964W        W16949  16.843  39.520   2.119
51965W        W16950  21.154  22.780  10.708
51966W        W16951  29.484   1.212   4.200
51967W        W16952  17.302  40.874  11.807
51968W        W16953  20.980   4.606   3.188
51969W        W16954  11.349  41.994  13.203
51970W        W16955  40.555  15.544   3.814
51971W        W16956   5.195  27.166  12.508
51972W        W16957  41.557   4.872   3.295
51973W        W16958  25.195  23.139  12.674
51974W        W16959  14.828  36.560  10.813
51975W        W16960  39.544  28.633   2.387
51976W        W16961  36.159  17.022  10.755
51977W        W16962  37.008  38.859  14.853
51978W        W16963  16.256  22.958  13.450
51979W        W16964  32.588   6.207   0.766
51980W        W16965  36.909  34.985   4.615
51981W        W16966  21.591  33.469   3.680
51982W        W16967   6.179  28.154  13.332
51983W        W16968   1.117  19.838  11.192
51984W        W16969  27.045  42.990  13.774
51985W        W16970   7.446  14.700   0.316
51986W        W16971  43.873  13.888   2.394
51987W        W16972  12.662  40.775  11.524
51988W        W16973   0.324  13.525  11.652
51989W        W16974  42.899  23.911   4.112
51990W        W16975  22.583   4.135   4.645
51991W        W16976  39.604  44.373  14.365
51992W        W16977  11.190  36.339   4.716
51993W        W16978  11.083  18.550   2.719
51994W        W16979  12.464  15.032   2.630
51995W        W16980  34.469  12.549   1.744
51996W        W16981   7.852  27.957  10.919
51997W        W16982  25.522  19.578   2.859
51998W        W16983   8.424  41.278  13.813
51999W        W16984  21.788  27.044   0.564
52000W        W16985  25.755  38.077  13.124
52001W        W16986  13.203  34.206   0.774
52002W        W16987  33.747  42.296  13.522
52003W        W16988  15.862  36.024   4.797
52004W        W16989   0.151  24.518   2.606
52005W        W16990  43.833   4.934   3.307
52006W        W16991   7.364  42.789   3.888
52007W        W16992  35.774  27.209  14.069
52008W        W16993  13.065   8.366  14.300
52009W        W16994  18.692  12.397  12.890
52010W        W16995  27.176  10.084   2.325
52011W        W16996  20.573  44.347   0.315
52012W        W16997  16.735  42.912   3.563
52013W        W16998  37.970  21.110   4.811
52014W        W16999  36.402   4.700   1.291
52015W        W17000  31.456  29.034   0.369
52016W        W17001  36.555  15.175  12.899
52017W        W17002   0.962  14.900  10.101
52018W        W17003  23.090   2.854   4.437
52019W        W17004  40.417  34.018  14.081
52020W        W17005  12.725  21.635  14.908
52021W        W17006  23.629   0.397   0.084
52022W        W17007  35.026   2.676  14.932
52023W        W17008  11.999  36.203   3.200
52024W        W17009  13.849  29.949  10.306
52025W        W17010   0.781  36.878   4.076
52026W        W17011  35.888  12.170   1.461
52027W        W17012  23.743  33.464   1.721
52028W        W17013  31.422   6.922  11.549
52029W        W17014  37.512   2.281   5.008
52030W        W17015  18.332  16.001   0.562
52031W        W17016  39.510  38.630  12.209
52032W        W17017  28.470  19.239   2.124
52033W        W17018  20.274  19.827  13.266
52034W        W17019  40.334  14.434   4.543
52035W        W17020   6.228  41.740   0.474
52036W        W17021  19.993   2.737   3.455
52037W        W17022  18.836   8.915  13.862
52038W        W17023  34.471   3.147  10.972
52039W        W17024   5.846  39.164   0.360
52040W        W17025  26.026  45.000  13.534
52041W        W17026  31.659  28.456  13.397
52042W        W17027  33.742  39.001   4.040
52043W        W17028  12.098  43.431  12.133
52044W        W17029  35.639   1.724   3.776
52045W        W17030  40.427  23.529  10.230
52046W        W17031  29.821   4.193  14.226
52047W        W17032  25.184  28.129   3.231
52048W        W17033   2.768  22.874   4.987
52049W        W17034  38.943  40.949   4.302
52050W        W17035  44.355  44.204   3.489
52051W        W17036  24.683  27.175  10.619
52052W        W17037  26.934  11.188  13.326
52053W        W17038  14.007   1.041  12.414
52054W        W17039  38.357  25.085   3.290
52055W        W17040   7.443  28.126  14.412
52056W        W17041   6.581  33.449  12.967
52057W        W17042  20.680  23.182   0.682
52058W        W17043  20.566  39.268  12.166
52059W        W17044   9.186  35.118  13.444
52060W        W17045  35.408  34.625  14.058
52061W        W17046  44.776   8.436  11.183
52062W        W17047  11.714   8.208   0.786
52063W        W17048  32.345  13.393  12.896
52064W        W17049  41.924  31.820   4.749
52065W        W17050  41.915  22.072   3.249
52066W        W17051  36.445  38.374  12.506
52067W        W17052  39.333  44.892   1.240
52068W        W17053  42.044  26.263  14.964
52069W        W17054  40.917  24.794   3.369
52070W        W17055  31.189  13.707  11.357
52071W        W17056  16.762  14.119  12.565
52072W        W17057   6.700  13.549   0.872
52073W        W17058  12.283  19.040  12.226
52074W        W17059  35.464  33.991   3.450
52075W        W17060  11.636  40.129  13.749
52076W        W17061  34.418  41.412   0.480
52077W        W17062  28.191   5.190  14.113
52078W        W17063  36.936  14.292  10.763
52079W        W17064  19.311  43.295  13.823
52080W        W17065  13.730  26.643  11.665
52081W        W17066  43.441  23.354  11.984
52082W        W17067  22.617  11.528   2.353
52083W        W17068  19.865   6.732  12.997
52084W        W17069  35.312  36.383  12.340
52085W        W17070  28.159  20.514  14.683
52086W        W17071  23.670  24.451   0.858
52087W        W17072  24.198  12.736  14.092
52088W        W17073  35.139   4.454  10.688
52089W        W17074  11.289  11.574   0.578
52090W        W17075  25.475  22.567  11.666
52091W        W17076  38.490  38.785  12.506
52092W        W17077  39.361  18.350  13.130
52093W        W17078  41.311   2.788  11.063
52094W        W17079  11.610  13.307   2.691
52095W        W17080  38.425  30.495  11.002
52096W        W17081   8.105   6.920   2.278
52097W        W17082  32.918  19.926  12.967
52098W        W17083  33.999  15.180  12.013
52099W        W17084  14.810  19.245  10.311
52100W        W17085  15.681  18.403   2.169
52101W        W17086  19.799  27.649  14.382
52102W        W17087  26.169  41.773   0.114
52103W        W17088  29.950  37.438   3.102
52104W        W17089  10.658   5.982  11.146
52105W        W17090  32.485  30.890   3.162
52106W        W17091  19.056   0.159  14.347
52107W        W17092  26.006  10.212   1.272
52108W        W17093  32.839  13.344  12.133
52109W        W17094  31.509   6.742  14.278
52110W        W17095  42.360  41.539   4.314
52111W        W17096  29.477  37.555   3.679
52112W        W17097  12.413  20.005   0.251
52113W        W17098  44.212   9.334  10.931
52114W        W17099  40.548  23.784   1.114
52115W        W17100  41.517   2.483  11.406
52116W        W17101  14.539   0.962   4.249
52117W        W17102  18.894  11.008   3.104
52118W        W17103  15.309   1.021  11.346
52119W        W17104  26.867  44.736  12.518
52120W        W17105  27.387  23.178  14.996
52121W        W17106  34.193  43.803   0.062
52122W        W17107  23.028  37.336  13.805
52123W        W17108  25.724  28.402  11.095
52124W        W17109  16.177  13.319   4.713
52125W        W17110  40.898  41.822   2.447
52126W        W17111  23.981  23.859  14.106
52127W        W17112   1.365  21.114   2.862
52128W        W17113  43.067  31.230   0.390
52129W        W17114  31.420   7.624   4.175
52130W        W17115  32.710  15.118  14.465
52131W        W17116  33.122  22.585   1.852
52132W        W17117   4.833  41.914   4.970
52133W        W17118  33.144   8.877  12.586
52134W        W17119   4.696  17.738   0.477
52135W        W17120  36.426  34.893  14.500
52136W        W17121  15.128  39.152  13.839
52137W        W17122  15.315  38.936   4.749
52138W        W17123   9.604   2.067  14.960
52139W        W17124  34.597  42.283  12.961
52140W        W17125   5.027  21.161   4.956
52141W        W17126  13.194  39.279   0.796
52142W        W17127  30.444   9.480   4.587
52143W        W17128  14.677  23.562  13.712
52144W        W17129  23.090  22.895  11.178
52145W        W17130  35.286  38.360  11.647
52146W        W17131  38.601  24.077  10.767
52147W        W17132   9.193   6.307  12.429
52148W        W17133  34.942  35.672   3.361
52149W        W17134  15.970  17.048   3.754
52150W        W17135  28.035  21.936   4.122
52151W        W17136  18.081  35.478   4.521
52152W        W17137  29.632   1.256  13.960
52153W        W17138   1.186  25.617   0.061
52154W        W17139   3.990  37.544  13.000
52155W        W17140  15.899  25.176  14.742
52156W        W17141  37.019  19.695   0.878
52157W        W17142  33.696   4.267   1.548
52158W        W17143  25.613  18.324   0.054
52159W        W17144   7.672  41.441   2.306
52160W        W17145  29.553  17.774   4.624
52161W        W17146  43.864  22.503   3.726
52162W        W17147  42.463  32.508  13.888
52163W        W17148  41.672   6.355   1.485
52164W        W17149  24.881  35.778   0.291
52165W        W17150   8.831  43.472  11.957
52166W        W17151  23.233  35.498  14.716
52167W        W17152  15.689  27.025  13.302
52168W        W17153  14.640  44.325   0.958
52169W        W17154   2.824  19.599  12.646
52170W        W17155  35.545  20.871   4.975
52171W        W17156  35.509  37.886   4.626
52172W        W17157  35.893   3.932   1.128
52173W        W17158   8.002  24.709  13.407
52174W        W17159  11.100  19.809   0.016
52175W        W17160  20.115  12.290  11.185
52176W        W17161   2.947  35.276  13.895
52177W        W17162  44.328  32.001  11.206
52178W        W17163  26.263  13.238   4.759
52179W        W17164  32.983   3.202   9.862
52180W        W17165  13.265  22.656  11.417
52181W        W17166  37.534   4.177   2.836
52182W        W17167   2.863   9.791  11.659
52183W        W17168  35.896  33.305  14.564
52184W        W17169  18.711  23.743  11.398
52185W        W17170  30.287  22.745  12.039
52186W        W17171   5.526   0.544   1.477
52187W        W17172   5.849  28.401  10.642
52188W        W17173  17.443   7.394   0.045
52189W        W17174  23.150  29.607  14.334
52190W        W17175  22.211   8.325   0.382
52191W        W17176  33.281  31.419   0.835
52192W        W17177   4.871  38.373   0.254
52193W        W17178  42.062  32.707  11.634
52194W        W17179  17.806  29.135   0.686
52195W        W17180  27.154   8.339  13.050
52196W        W17181  38.316   7.179   1.463
52197W        W17182  17.189  18.164  11.505
52198W        W17183  10.695  37.730   0.885
52199W        W17184  42.891   7.170   3.261
52200W        W17185  11.733   4.927  10.675
52201W        W17186   3.451  16.617   0.425
52202W        W17187  21.004  44.650   2.231
52203W        W17188  17.542  44.077  13.154
52204W        W17189  19.140   1.639   2.300
52205W        W17190  30.008   3.117   5.006
52206W        W17191  23.218  34.074  10.200
52207W        W17192  44.287  10.954  13.951
52208W        W17193  38.598  33.933  14.227
52209W        W17194  12.739  32.121  13.359
52210W        W17195  13.691   0.021   3.685
52211W        W17196  35.950  33.532   1.370
52212W        W17197  37.791  38.268  12.384
52213W        W17198  41.010   7.487   2.430
52214W        W17199  13.316  11.919   0.301
52215W        W17200  16.184  41.860  14.412
52216W        W17201  35.579  41.112   4.724
52217W        W17202  36.112  21.116   4.555
52218W        W17203  20.074  22.546  11.609
52219W        W17204  37.188   7.676  12.186
52220W        W17205  36.980  20.972  12.029
52221W        W17206  33.162  36.747   4.226
52222W        W17207  19.701  27.301   4.951
52223W        W17208   9.737   1.264   2.410
52224W        W17209  28.570  11.769  13.046
52225W        W17210  41.005  24.571   1.845
52226W        W17211  15.319  26.603  14.428
52227W        W17212   0.704  25.212  14.346
52228W        W17213  37.540  24.665  13.610
52229W        W17214  15.907  16.752  12.418
52230W        W17215  16.639  13.082  14.803
52231W        W17216  15.765   8.097  13.625
52232W        W17217   0.441  18.278  10.294
52233W        W17218  34.210  24.435   3.842
52234W        W17219  37.919  29.620   2.777
52235W        W17220  41.453  40.782  14.831
52236W        W17221   1.192  27.470  13.114
52237W        W17222  40.993   9.087  14.464
52238W        W17223  10.093  35.877  12.568
52239W        W17224  18.001  18.291   2.733
52240W        W17225  36.276  41.971  11.584
52241W        W17226  22.941  30.988   0.262
52242W        W17227  31.604   6.177  14.926
52243W        W17228   4.675  32.911   5.134
52244W        W17229  35.521  30.037   0.391
52245W        W17230  12.116  13.426   1.750
52246W        W17231  29.236  18.714  13.034
52247W        W17232  29.272   9.190  13.149
52248W        W17233  28.983   7.205  10.969
52249W        W17234  26.827  13.070  11.425
52250W        W17235  34.483  38.581   0.380
52251W        W17236   4.059  34.032   0.395
52252W        W17237  15.566  21.419   5.037
52253W        W17238  22.627  39.237  13.961
52254W        W17239  29.977  20.107  11.690
52255W        W17240  32.878  31.059   1.280
52256W        W17241  13.192  19.757   4.702
52257W        W17242  39.083  41.214  14.719
52258W        W17243  23.248  29.376  13.323
52259W        W17244  18.579  25.956  14.955
52260W        W17245   9.413  20.043  14.872
52261W        W17246   8.856  25.917   0.462
52262W        W17247  24.909  35.633   1.454
52263W        W17248   6.937  13.451  13.773
52264W        W17249  39.584  17.803   2.190
52265W        W17250  33.905  11.313  11.954
52266W        W17251   4.666   2.165   5.074
52267W        W17252   2.346  29.660  11.097
52268W        W17253   2.128  26.725   3.705
52269W        W17254  26.703  32.386  14.755
52270W        W17255  35.002  24.696   0.712
52271W        W17256   6.198  20.247  10.678
52272W        W17257  23.049  44.801   3.859
52273W        W17258  35.072   4.798  13.564
52274W        W17259  22.318   8.942  11.686
52275W        W17260  41.242  11.468   1.776
52276W        W17261  19.803  12.487   0.034
52277W        W17262  12.973  31.118   0.555
52278W        W17263  23.510  26.603   3.660
52279W        W17264   7.071  15.072   4.437
52280W        W17265  21.078   7.637  12.082
52281W        W17266  24.473   3.783   2.372
52282W        W17267  17.962   4.651  11.231
52283W        W17268  21.748  23.500   3.506
52284W        W17269  35.417   0.822  10.776
52285W        W17270   0.035  22.080  11.758
52286W        W17271  44.454  18.524   0.947
52287W        W17272   2.353  41.086   0.279
52288W        W17273  19.687  23.672  14.319
52289W        W17274   5.945  44.451  12.022
52290W        W17275  26.504  13.765  14.328
52291W        W17276  15.312  36.996   3.233
52292W        W17277  41.483  11.659  14.713
52293W        W17278  24.209  33.010  13.862
52294W        W17279  42.327  12.859  10.762
52295W        W17280   1.955  13.693   2.770
52296W        W17281  15.852  12.188   3.337
52297W        W17282  44.763  17.873   2.453
52298W        W17283  27.670  33.391   2.204
52299W        W17284   1.713  27.027  14.474
52300W        W17285  31.554  11.202  13.037
52301W        W17286  30.036  30.331  11.268
52302W        W17287  16.604  40.101  14.123
52303W        W17288  11.158  36.041   0.120
52304W        W17289   4.976   4.812   2.066
52305W        W17290  22.483  14.812  13.571
52306W        W17291  30.598  39.095   1.034
52307W        W17292  38.051  40.865  14.716
52308W        W17293  12.416   3.051  14.748
52309W        W17294  11.299  35.701   3.973
52310W        W17295   9.980   5.839   9.960
52311W        W17296  37.491  36.267   1.792
52312W        W17297   0.499   8.657   1.453
52313W        W17298  13.377  44.599  10.741
52314W        W17299  32.839  30.451  12.928
52315W        W17300  14.931  33.087  13.844
52316W        W17301   2.481  17.370   2.969
52317W        W17302  42.537  40.081  14.516
52318W        W17303  17.113  33.978  14.507
52319W        W17304  40.741  26.729  12.814
52320W        W17305  20.196   2.704  11.869
52321W        W17306   1.476   8.907   3.195
52322W        W17307  11.655  14.619  14.957
52323W        W17308   6.548  32.698   0.752
52324W        W17309  13.147   3.233  11.196
52325W        W17310  34.386  38.087  14.572
52326W        W17311   8.161  12.840  14.370
52327W        W17312   5.954  12.411   2.955
52328W        W17313  32.631  14.589  10.657
52329W        W17314  26.551  12.251  12.487
52330W        W17315   1.188  12.134   1.288
52331W        W17316  14.532   6.283   2.512
52332W        W17317  15.337   8.818   3.546
52333W        W17318  11.075  22.811   4.137
52334W        W17319  21.012  11.600   2.648
52335W        W17320  41.471   6.919  12.840
52336W        W17321  13.135  41.385   2.413
52337W        W17322  40.989  33.976  10.631
52338W        W17323  25.448   2.256   1.769
52339W        W17324  10.979  25.716   1.585
52340W        W17325   0.256  17.210  14.310
52341W        W17326  21.156  32.192  13.341
52342W        W17327  25.740   9.822  14.422
52343W        W17328  34.169  24.443  10.717
52344W        W17329  28.998  32.897   2.423
52345W        W17330   3.761  10.678  14.108
52346W        W17331  12.679   9.746  11.933
52347W        W17332  43.239   6.200   2.769
52348W        W17333   8.642  19.794  11.273
52349W        W17334  24.445  28.874  12.614
52350W        W17335  31.862  39.556   3.187
52351W        W17336  21.253  23.583   3.423
52352W        W17337  15.070  14.133  14.754
52353W        W17338  10.326  17.335  10.364
52354W        W17339  21.052  33.367  12.591
52355W        W17340  24.694  30.658   2.240
52356W        W17341  43.968  26.174   5.085
52357W        W17342  33.023  32.159  12.548
52358W        W17343  31.056  16.042  12.833
52359W        W17344   5.269  37.803  14.081
52360W        W17345   5.202   7.837   3.605
52361W        W17346  19.571  27.652   4.222
52362W        W17347  12.373  21.254   2.416
52363W        W17348  10.268   1.298  14.103
52364W        W17349  17.300  44.840   3.567
52365W        W17350  18.691  18.258  11.647
52366W        W17351  16.970   0.948  13.317
52367W        W17352  33.980  44.457   0.352
52368W        W17353  41.514  22.704  12.141
52369W        W17354   5.036  10.647   2.260
52370W        W17355   0.489  12.161   4.987
52371W        W17356  38.235  24.471   0.334
52372W        W17357  36.199   5.414   0.252
52373W        W17358  40.089  39.407   4.602
52374W        W17359   8.737  36.520   1.677
52375W        W17360  39.925   5.066   3.615
52376W        W17361  43.181  26.553   5.020
52377W        W17362  31.089  39.980   3.780
52378W        W17363  22.916  33.317   2.293
52379W        W17364  24.938  38.065  14.741
52380W        W17365  43.842   2.534  14.286
52381W        W17366  39.364  17.061   0.485
52382W        W17367  19.968  42.320  11.634
52383W        W17368   2.644   5.566  14.895
52384W        W17369  40.190  20.448   1.986
52385W        W17370  21.556  23.735  13.893
52386W        W17371   9.400   8.649   3.707
52387W        W17372  25.269  19.179   0.748
52388W        W17373  19.494  25.401   1.044
52389W        W17374  37.292  44.313   3.395
52390W        W17375  11.134   6.238  11.765
52391W        W17376   3.722   8.365  11.462
52392W        W17377  22.681  31.480   1.822
52393W        W17378  25.484  31.545  12.458
52394W        W17379  26.743   9.338   2.489
52395W        W17380  34.307  29.047  14.496
52396W        W17381  26.479  22.021   0.948
52397W        W17382  14.924  42.826   3.778
52398W        W17383  27.638   1.458  13.307
52399W        W17384  41.091  36.339  10.459
52400W        W17385   8.625  13.217   1.004
52401W        W17386  28.754  30.761  12.951
52402W        W17387  21.191  30.106   5.164
52403W        W17388   4.186  37.920   3.255
52404W        W17389  23.204  17.549   0.737
52405W        W17390  19.012  22.593  13.830
52406W        W17391   3.530  22.778  10.312
52407W        W17392   5.731  26.531  13.043
52408W        W17393  26.999   3.509   2.780
52409W        W17394  10.336   6.771  13.892
52410W        W17395  31.373  41.171  12.075
52411W        W17396  28.865  22.182  14.971
52412W        W17397  43.898   9.648   2.360
52413W        W17398   9.209  25.058   2.476
52414W        W17399   5.036  15.135   0.128
52415W        W17400  33.361   6.140   1.315
52416W        W17401  17.526  18.859   2.258
52417W        W17402  10.590  17.123  11.649
52418W        W17403  43.269  39.072  10.130
52419W        W17404  21.930  35.464  14.283
52420W        W17405  43.469  21.710   9.695
52421W        W17406  42.013  39.783  14.879
52422W        W17407  28.607  16.149  12.161
52423W        W17408  11.832  13.849   0.431
52424W        W17409   9.330  14.061   2.611
52425W        W17410  41.622  16.143  11.648
52426W        W17411  30.015   7.640  13.011
52427W        W17412  40.818  19.314   4.152
52428W        W17413  25.484  41.919  12.132
52429W        W17414   6.734   1.590  10.300
52430W        W17415  19.298   5.420   0.785
52431W        W17416  31.836  38.383   2.556
52432W        W17417  33.053  30.073   2.773
52433W        W17418   1.730  37.960   3.755
52434W        W17419   6.181  40.631   3.718
52435W        W17420  14.764  33.218   3.200
52436W        W17421  14.462  24.017  14.887
52437W        W17422  36.519  42.389  10.432
52438W        W17423  14.806  23.070   3.796
52439W        W17424   9.829  42.541  11.591
52440W        W17425  10.311  20.305   2.252
52441W        W17426  21.946  25.827  14.279
52442W        W17427  20.739  11.257   4.309
52443W        W17428  16.132  14.566  10.410
52444W        W17429  42.387   7.175   0.454
52445W        W17430   2.169  24.678   1.477
52446W        W17431  36.440   7.850   0.723
52447W        W17432  13.511   7.420  14.742
52448W        W17433   6.653  15.141  14.332
52449W        W17434  22.659  12.822   0.778
52450W        W17435  41.493   2.828   1.711
52451W        W17436  34.185  41.197  11.668
52452W        W17437  41.547  23.852  11.147
52453W        W17438  21.208   6.842  14.967
52454W        W17439  19.310  16.731   4.597
52455W        W17440   4.208  23.932   3.142
52456W        W17441   1.010  12.088   5.065
52457W        W17442  36.410  40.966  11.163
52458W        W17443  32.977  36.275   0.790
52459W        W17444  27.974  11.316  11.208
52460W        W17445   9.068  30.185  11.447
52461W        W17446  27.753  29.197  13.473
52462W        W17447  43.011   8.686   4.577
52463W        W17448   5.584  18.732   2.274
52464W        W17449  25.221  21.255  11.491
52465W        W17450  12.853  25.669   2.408
52466W        W17451  34.829  32.634   3.230
52467W        W17452  34.889  37.501   2.695
52468W        W17453  34.896  19.663  10.621
52469W        W17454   9.342  27.819  12.446
52470W        W17455  17.122  35.966  14.767
52471W        W17456   4.353   8.477   4.294
52472W        W17457  34.125  32.664   2.950
52473W        W17458   8.750   9.162  10.031
52474W        W17459  19.266   3.939  12.194
52475W        W17460  37.568  30.477   5.075
52476W        W17461  15.281   0.758   3.336
52477W        W17462  23.205   8.498   3.113
52478W        W17463   4.512   2.049   2.347
52479W        W17464  19.496  40.910  11.268
52480W        W17465  44.820  17.514   4.906
52481W        W17466  12.985  22.052  10.652
52482W        W17467   0.971  26.095  13.454
52483W        W17468  38.948  13.640   1.781
52484W        W17469  20.929   5.737  10.722
52485W        W17470  32.251   5.454   3.295
52486W        W17471   8.299  22.732   1.909
52487W        W17472  44.009  11.657   1.288
52488W        W17473  10.159  38.256  12.632
52489W        W17474  31.121  17.802   2.412
52490W        W17475  40.531   7.567   1.800
52491W        W17476   5.390   8.422   2.470
52492W        W17477  28.528   8.746  13.129
52493W        W17478  39.538  33.819  13.671
52494W        W17479   9.757   7.377  13.391
52495W        W17480  43.396  29.344   2.854
52496W        W17481  19.129  11.705   3.691
52497W        W17482  19.121  42.334   0.225
52498W        W17483   8.735   0.293   4.001
52499W        W17484  29.071  30.536   1.255
52500W        W17485  16.825  18.733   0.969
52501W        W17486  14.388  15.788   3.700
52502W        W17487  31.500  24.184   1.750
52503W        W17488  22.914  26.344   2.275
52504W        W17489  18.826   9.968   0.724
52505W        W17490   5.613   7.329  13.185
52506W        W17491  34.480  36.417  11.988
52507W        W17492  43.908  32.429   0.963
52508W        W17493  35.615  18.079   2.159
52509W        W17494   6.212   8.456   3.418
52510W        W17495  36.580  28.336   3.681
52511W        W17496  20.188   9.885   0.697
52512W        W17497  31.205   5.387   3.217
52513W        W17498   6.933  30.964   4.642
52514W        W17499  14.021  39.825  14.793
52515W        W17500  15.365  29.574  12.451
52516W        W17501  32.005  30.533  13.582
52517W        W17502  28.966   3.662   2.580
52518W        W17503  17.447  41.603  10.400
52519W        W17504  30.181  21.176  10.712
52520W        W17505  12.845   0.470   0.420
52521W        W17506  31.117  15.111   1.530
52522W        W17507  11.021   7.253   4.804
52523W        W17508  44.435  40.926   4.543
52524W        W17509  25.277  11.055   1.941
52525W        W17510  32.406   5.139  11.037
52526W        W17511  28.367  40.056   4.146
52527W        W17512  11.845  20.735  10.696
52528W        W17513   6.275  24.604  13.948
52529W        W17514  33.273  38.541   1.703
52530W        W17515  28.085  20.335   3.241
52531W        W17516  41.050  44.715   4.584
52532W        W17517  26.736  40.451  14.904
52533W        W17518  21.211  12.346  12.203
52534W        W17519  20.013  29.122   4.523
52535W        W17520   6.487   2.989  12.339
52536W        W17521  14.132  23.247   2.724
52537W        W17522  34.005  42.749   1.017
52538W        W17523  42.001  11.886   1.182
52539W        W17524  11.907  10.262  10.962
52540W        W17525  33.573  40.240   3.668
52541W        W17526  32.143  33.841  13.617
52542W        W17527  32.816  33.871  12.030
52543W        W17528   2.815  14.644   3.100
52544W        W17529  29.516  36.169  11.644
52545W        W17530  40.147  28.798   0.145
52546W        W17531  37.377   0.418  10.190
52547W        W17532  39.330  22.500  11.681
52548W        W17533  28.820  28.531   1.464
52549W        W17534  19.241  25.064   4.450
52550W        W17535  41.994  10.743  12.174
52551W        W17536  39.900  39.826  12.015
52552W        W17537  17.864   4.484  12.659
52553W        W17538  43.738  42.860   4.092
52554W        W17539  41.566  35.757   1.786
52555W        W17540  12.085  10.036   0.336
52556W        W17541  20.208  39.186  10.154
52557W        W17542  41.380  13.254   1.255
52558W        W17543  28.654  13.341   4.706
52559W        W17544  39.134   2.330   4.980
52560W        W17545  24.131  21.317   1.217
52561W        W17546  25.196   8.824   2.362
52562W        W17547  38.114  17.794   0.338
52563W        W17548  43.699  29.145   3.239
52564W        W17549   2.612  20.133   4.346
52565W        W17550   9.462  22.430  12.410
52566W        W17551  16.501  23.918  11.030
52567W        W17552  19.602  20.653  13.331
52568W        W17553   3.654  21.655   0.962
52569W        W17554  23.090  15.017  11.090
52570W        W17555  39.825  32.629   4.992
52571W        W17556  12.779  33.306   4.147
52572W        W17557  37.573  18.255  12.855
52573W        W17558  26.274   5.885   4.142
52574W        W17559  38.470  12.380  13.472
52575W        W17560   3.152  18.571  14.375
52576W        W17561  31.984  40.016   3.817
52577W        W17562  39.799   4.001   3.636
52578W        W17563  20.561  14.420  14.637
52579W        W17564  23.032  16.575  14.061
52580W        W17565  37.992  15.559   2.759
52581W        W17566  33.960  10.646   5.414
52582W        W17567  38.391  37.135  14.431
52583W        W17568  19.012  42.138  14.254
52584W        W17569  17.065  30.148  12.989
52585W        W17570  28.703   8.875  12.652
52586W        W17571  37.137   1.810   2.454
52587W        W17572  44.890  36.281   2.741
52588W        W17573  31.042  27.732   1.167
52589W        W17574  38.802   2.181  12.188
52590W        W17575   8.171  36.083   0.829
52591W        W17576   3.900  17.267  13.650
52592W        W17577   2.199  19.274   0.463
52593W        W17578  13.060  17.740  13.561
52594W        W17579   8.130  43.504  14.615
52595W        W17580  11.845   6.246   0.439
52596W        W17581   1.939  16.162   1.744
52597W        W17582  18.880  33.077   3.682
52598W        W17583   1.300  21.248  10.745
52599W        W17584   3.669  14.187  10.709
52600W        W17585  38.171  31.673   0.912
52601W        W17586  38.095   0.786  13.899
52602W        W17587  37.448  24.627  12.611
52603W        W17588  33.895   0.205   2.725
52604W        W17589  41.763   9.786  11.660
52605W        W17590  31.053  32.369   3.735
52606W        W17591  10.565  18.037   2.153
52607W        W17592   1.919  10.329   3.093
52608W        W17593  18.331  24.087   2.567
52609W        W17594   4.897  24.910  10.106
52610W        W17595  43.238  27.027  12.978
52611W        W17596  15.309  36.140   1.838
52612W        W17597  16.760  27.677  11.981
52613W        W17598  42.008   4.157   4.883
52614W        W17599  33.161  16.692  13.003
52615W        W17600  38.327  22.072   0.492
52616W        W17601  40.842  31.438   1.465
52617W        W17602   7.677   6.296  10.372
52618W        W17603  29.509  12.444  14.984
52619W        W17604  28.955  28.501   0.968
52620W        W17605  19.725  29.164  10.583
52621W        W17606  13.080   2.846  13.201
52622W        W17607  42.405   2.515  11.692
52623W        W17608  34.518  13.575  11.172
52624W        W17609  31.893  16.876   2.850
52625W        W17610  43.110  19.223  11.693
52626W        W17611  26.725  12.038   2.395
52627W        W17612  17.113   3.190  14.244
52628W        W17613  17.625   7.419   0.538
52629W        W17614  14.083  23.645  10.732
52630W        W17615  18.705   8.789  14.830
52631W        W17616   9.892   2.053  12.054
52632W        W17617   4.733   2.818   4.628
52633W        W17618  20.808  11.651   0.381
52634W        W17619  42.324   0.466   0.297
52635W        W17620  23.466  42.710  13.990
52636W        W17621  15.932  38.283   2.672
52637W        W17622  11.217  39.889   1.287
52638W        W17623  17.357  19.794   0.920
52639W        W17624  25.614  29.043   4.099
52640W        W17625  33.762  34.401   3.727
52641W        W17626  36.971   2.718   4.025
52642W        W17627   0.178   6.507   0.337
52643W        W17628  32.364  14.580   0.896
52644W        W17629  42.372  44.266  13.524
52645W        W17630   7.807  16.532  11.988
52646W        W17631  27.705  16.758  13.394
52647W        W17632  26.433  14.151   1.962
52648W        W17633  16.685  40.781   0.841
52649W        W17634  23.511  40.417   3.076
52650W        W17635  21.263  40.496   1.495
52651W        W17636  12.132   8.731  14.788
52652W        W17637  16.929  18.446   3.142
52653W        W17638  30.014  44.844   0.829
52654W        W17639   5.383  18.335   2.771
52655W        W17640  21.751  10.681  12.457
52656W        W17641   0.258  13.420   1.466
52657W        W17642  13.986  22.474   4.558
52658W        W17643   6.354  24.587  12.564
52659W        W17644   0.061   4.670  10.847
52660W        W17645  30.720  15.427  14.459
52661W        W17646   1.765  24.453   1.761
52662W        W17647  36.848  26.146  12.520
52663W        W17648  22.244  25.453  14.484
52664W        W17649  42.394   2.812   0.646
52665W        W17650  19.891  41.742  12.843
52666W        W17651   2.688  20.797  11.942
52667W        W17652   2.185  37.183   2.649
52668W        W17653  16.493  20.058   1.007
52669W        W17654  40.453   9.181   4.605
52670W        W17655  33.527  38.555  11.187
52671W        W17656  12.738  41.672   3.016
52672W        W17657   3.450  42.888  10.825
52673W        W17658  10.160  31.458  12.903
52674W        W17659  38.479  40.789   1.110
52675W        W17660  22.113   2.898  14.026
52676W        W17661   3.211  25.129   3.659
52677W        W17662  36.974  33.026  13.112
52678W        W17663  39.341  27.256  13.915
52679W        W17664  16.717   6.735   1.787
52680W        W17665  40.604  27.424   2.817
52681W        W17666  33.118  24.745   2.670
52682W        W17667   2.599   3.660  14.195
52683W        W17668   9.669  31.411  11.595
52684W        W17669  37.315   7.427  13.577
52685W        W17670   5.457  18.307  12.994
52686W        W17671  33.084  10.626   1.262
52687W        W17672  14.534  15.189   1.866
52688W        W17673   4.008  19.978  12.163
52689W        W17674   1.964  19.050  14.778
52690W        W17675  44.708   1.288  12.689
52691W        W17676  18.619  12.199   4.058
52692W        W17677   3.059  41.962  14.750
52693W        W17678  44.028  38.713  13.868
52694W        W17679  44.769  12.712  14.938
52695W        W17680   3.440  28.245   2.187
52696W        W17681  15.133   0.782   1.408
52697W        W17682  36.866  24.107   2.354
52698W        W17683  26.803  26.608   2.639
52699W        W17684  29.299  44.982  12.627
52700W        W17685   6.455  41.705   3.162
52701W        W17686  41.593  10.917  11.885
52702W        W17687   6.858  35.331   2.001
52703W        W17688   6.730  33.857   3.243
52704W        W17689  27.651  41.804   4.118
52705W        W17690  44.708  11.106  14.323
52706W        W17691   1.282  22.501  12.287
52707W        W17692  26.306   4.540   4.539
52708W        W17693   6.289  34.103  12.986
52709W        W17694  37.369   2.683  13.499
52710W        W17695  13.776   9.946   3.129
52711W        W17696  31.536  28.479  11.935
52712W        W17697  19.679  38.774   2.341
52713W        W17698  41.022   6.913   0.790
52714W        W17699  18.818  17.609  14.202
52715W        W17700   3.826   9.208  14.428
52716W        W17701  39.784  22.221  11.603
52717W        W17702   5.533  16.951   3.052
52718W        W17703  29.032  20.142  11.207
52719W        W17704  28.455  40.287   0.469
52720W        W17705  34.085  37.150  12.465
52721W        W17706  44.493   9.348  13.715
52722W        W17707  29.794  38.708  12.627
52723W        W17708  36.578  12.603  13.144
52724W        W17709  18.091  17.663   4.276
52725W        W17710   4.269   1.496  11.348
52726W        W17711  18.921  19.518   2.673
52727W        W17712  21.918  22.727   2.873
52728W        W17713  44.005  13.746   3.392
52729W        W17714  18.608  25.549  11.536
52730W        W17715  34.946   5.265   1.806
52731W        W17716  41.695   7.946   3.742
52732W        W17717  16.262   5.689   0.410
52733W        W17718   7.351  33.892  11.623
52734W        W17719  26.483  32.550   4.067
52735W        W17720  12.831  29.560   1.300
52736W        W17721  21.947   1.028   2.889
52737W        W17722  23.548  28.159  11.033
52738W        W17723  20.007  36.853   1.761
52739W        W17724  17.555  28.541  11.273
52740W        W17725   9.719  30.455  14.824
52741W        W17726  16.230  12.185  12.149
52742W        W17727  29.804  32.617   2.270
52743W        W17728  26.540  20.045   4.111
52744W        W17729  15.049  17.100   3.255
52745W        W17730  35.565  20.754   1.253
52746W        W17731  13.394  37.498  14.293
52747W        W17732  44.740   4.853  14.816
52748W        W17733  29.813  23.139  10.789
52749W        W17734  28.991  33.952  13.006
52750W        W17735  29.925  23.274  11.590
52751W        W17736   9.981   1.510  14.481
52752W        W17737  26.801   5.327   1.431
52753W        W17738   8.134  27.283   3.126
52754W        W17739  19.343  15.416   3.306
52755W        W17740  27.371  27.229   1.963
52756W        W17741  18.171  11.126  12.479
52757W        W17742  40.924   6.046  10.904
52758W        W17743  22.319  40.557   0.028
52759W        W17744  39.497  12.242   0.133
52760W        W17745   9.931  24.163   4.250
52761W        W17746  26.537  22.475   2.674
52762W        W17747   5.414  22.261   3.747
52763W        W17748  28.967  37.104  10.519
52764W        W17749  39.137   6.778  14.915
52765W        W17750  43.058  30.150  11.003
52766W        W17751  33.916  23.063  10.927
52767W        W17752  26.673  41.987   4.303
52768W        W17753  28.653   8.772  14.165
52769W        W17754  20.203  44.376  12.589
52770W        W17755  41.126   5.057   1.806
52771W        W17756  10.787  27.156  11.333
52772W        W17757  43.411  19.139   1.825
52773W        W17758  17.220  30.583   4.610
52774W        W17759  15.385   3.472   3.411
52775W        W17760   5.880  43.767   4.287
52776W        W17761  29.049  10.860   0.937
52777W        W17762   7.332  34.279   3.665
52778W        W17763  18.179  35.324   0.879
52779W        W17764  44.710  12.594   4.089
52780W        W17765  22.824  41.373   0.436
52781W        W17766  43.360  30.951   1.322
52782W        W17767  39.530  13.890  12.559
52783W        W17768  39.080   1.803  14.008
52784W        W17769  35.914  15.369  12.052
52785W        W17770  21.356  40.782   2.722
52786W        W17771  15.829  24.954   4.774
52787W        W17772  17.126   6.776   5.094
52788W        W17773  40.240  28.541   5.503
52789W        W17774  36.017  10.274  11.732
52790W        W17775  28.685  33.979  12.570
52791W        W17776  19.855  27.377  14.946
52792W        W17777   9.679   6.867   0.325
52793W        W17778  30.036  24.970  14.597
52794W        W17779  33.642   5.393   4.654
52795W        W17780  22.085   7.638   2.801
52796W        W17781  27.617   0.165  13.753
52797W        W17782  35.542  40.508  10.678
52798W        W17783   4.570  27.913  13.405
52799W        W17784  27.105  33.573   4.577
52800W        W17785   3.289  19.745  12.436
52801W        W17786  26.021  24.186  10.764
52802W        W17787  10.495  40.739  10.667
52803W        W17788   8.888   0.853   2.654
52804W        W17789  21.771  22.795  13.807
52805W        W17790  35.615   7.807   2.213
52806W        W17791  36.549  29.448  12.854
52807W        W17792  41.453  44.208   5.397
52808W        W17793  23.143  29.543  13.801
52809W        W17794  11.484   5.194  12.143
52810W        W17795  31.587  15.607  10.994
52811W        W17796  23.751  23.415  12.948
52812W        W17797   6.650  25.670  13.851
52813W        W17798  36.201  23.529   0.160
52814W        W17799   7.724  28.614  11.054
52815W        W17800  16.674   9.309  10.637
52816W        W17801  28.017  34.381   3.206
52817W        W17802  37.978  37.111   2.132
52818W        W17803   4.817  14.166   0.249
52819W        W17804  16.692  19.571  13.903
52820W        W17805  31.968  41.377  14.280
52821W        W17806   2.585  39.253   2.252
52822W        W17807  44.275  30.088   1.560
52823W        W17808   1.277  43.411   4.228
52824W        W17809   4.814  37.616  10.237
52825W        W17810  33.262  24.675  11.062
52826W        W17811  30.697  36.051  12.182
52827W        W17812   4.973  12.201  14.418
52828W        W17813   5.716   9.079  13.392
52829W        W17814   4.747  25.929   3.574
52830W        W17815  22.112  23.206  11.651
52831W        W17816  16.343  19.673   2.762
52832W        W17817  25.978   5.660   1.228
52833W        W17818  40.163  15.325  11.507
52834W        W17819  43.549  23.620  13.492
52835W        W17820   0.025  19.848  11.967
52836W        W17821  34.000  20.252   2.421
52837W        W17822  23.707  21.268  14.958
52838W        W17823  39.628   5.497   3.814
52839W        W17824  44.872  27.776   2.750
52840W        W17825  12.274  28.009   0.740
52841W        W17826  37.117   7.096   3.991
52842W        W17827  23.013  39.793  12.507
52843W        W17828   9.211  20.829   1.211
52844W        W17829  17.569   0.960   2.211
52845W        W17830  20.991  29.874   3.235
52846W        W17831   2.776   0.445  14.829
52847W        W17832  20.984   1.692  14.162
52848W        W17833  44.148   8.738  12.602
52849W        W17834  30.298  25.168   1.907
52850W        W17835  39.986  27.362  12.393
52851W        W17836   7.418  20.649  11.025
52852W        W17837  11.763   0.292  12.814
52853W        W17838  37.512  27.583   0.709
52854W        W17839   1.501  44.017  11.152
52855W        W17840  16.712  32.170  12.939
52856W        W17841  40.929  15.794  13.905
52857W        W17842   7.650   0.870  10.752
52858W        W17843   9.715   8.414   1.937
52859W        W17844  11.434  33.401  12.385
52860W        W17845  12.243  36.083   4.280
52861W        W17846  38.905  11.276  13.101
52862W        W17847  21.766  38.811  11.219
52863W        W17848  21.546  34.517   3.277
52864W        W17849  19.100  28.157  11.734
52865W        W17850  32.609   1.464   5.152
52866W        W17851  39.963   7.809   0.854
52867W        W17852  36.323  23.297  13.043
52868W        W17853  14.115  17.068  13.485
52869W        W17854  36.337  31.105   2.667
52870W        W17855  17.814  36.050   4.600
52871W        W17856  43.404  21.444   3.059
52872W        W17857   4.428   6.101  13.397
52873W        W17858  34.886  38.854   3.639
52874W        W17859   6.224  12.147  14.886
52875W        W17860  25.964  12.044  12.188
52876W        W17861   1.428  25.937   0.805
52877W        W17862  13.869  15.134   3.276
52878W        W17863  21.121   2.796  13.832
52879W        W17864  18.996   2.489  11.599
52880W        W17865  22.040  28.189  11.207
52881W        W17866  28.027  27.976  14.900
52882W        W17867  28.819  40.843  11.134
52883W        W17868  29.573  39.167   4.000
52884W        W17869  20.600  17.918  10.724
52885W        W17870  24.408  33.394   4.132
52886W        W17871  19.646  35.208  10.539
52887W        W17872  36.365  28.538  12.048
52888W        W17873  36.486  44.008   2.368
52889W        W17874  44.452  11.918   1.135
52890W        W17875  23.240  11.658  13.933
52891W        W17876  35.655   4.915   5.241
52892W        W17877   2.849  13.143   0.469
52893W        W17878  15.926  25.495   1.618
52894W        W17879  43.307  11.643   2.349
52895W        W17880   5.518  30.949  11.037
52896W        W17881  18.793  32.544  14.970
52897W        W17882   4.236   2.798  13.977
52898W        W17883  25.412  30.383   0.960
52899W        W17884  29.383  17.346   1.850
52900W        W17885  30.920   4.718   3.902
52901W        W17886  44.314  13.608   2.281
52902W        W17887  38.586   2.697  13.959
52903W        W17888  10.042   6.321  13.889
52904W        W17889  29.010   4.415  12.580
52905W        W17890  23.422  34.529   3.183
52906W        W17891  35.283  13.819  13.953
52907W        W17892   6.823  29.581   2.799
52908W        W17893  33.424   9.708  10.766
52909W        W17894  41.342  14.794  13.984
52910W        W17895  28.012   7.162   2.139
52911W        W17896  44.852   5.949   3.663
52912W        W17897  42.457  24.469   3.638
52913W        W17898  17.852  10.854   4.418
52914W        W17899  44.211  17.228   1.973
52915W        W17900  33.823   5.759   3.766
52916W        W17901  39.127  12.188   4.609
52917W        W17902  14.892  12.423  12.532
52918W        W17903  18.061  27.658   2.859
52919W        W17904   2.202  19.028  13.953
52920W        W17905  44.254   0.696  14.334
52921W        W17906  19.030  39.970  11.841
52922W        W17907  15.154  22.183   2.909
52923W        W17908  21.236  30.237  12.281
52924W        W17909   5.760  37.841  14.753
52925W        W17910  24.123  17.079   0.953
52926W        W17911  42.771  14.406  14.725
52927W        W17912  24.197  38.241   2.209
52928W        W17913   0.908  20.606   1.757
52929W        W17914  42.491  36.520  13.395
52930W        W17915  28.689  21.776   2.163
52931W        W17916   0.782  26.934  10.318
52932W        W17917  35.639  17.234  12.464
52933W        W17918  38.368  36.217   3.016
52934W        W17919  10.690  22.507  12.076
52935W        W17920  11.110  17.217  11.617
52936W        W17921  33.784  31.950  14.273
52937W        W17922  10.589  25.120   3.782
52938W        W17923  24.714  17.558  14.102
52939W        W17924   9.370  27.612   0.270
52940W        W17925  30.085  23.938   2.408
52941W        W17926  22.069  32.776   9.666
52942W        W17927  31.149  29.515   1.162
52943W        W17928  30.934   3.570  12.150
52944W        W17929  34.006   9.869   2.798
52945W        W17930  18.503   3.753  13.834
52946W        W17931  14.289  23.201  12.483
52947W        W17932  44.261  29.156   3.236
52948W        W17933  31.392  27.139  12.095
52949W        W17934  44.692  24.733   3.755
52950W        W17935   4.365   7.897   2.086
52951W        W17936   2.328  33.518  10.734
52952W        W17937   7.303  15.710  14.818
52953W        W17938  16.989  24.773   3.389
52954W        W17939   1.822  26.124  12.535
52955W        W17940  41.969   7.473  11.972
52956W        W17941  15.955  17.178  14.932
52957W        W17942  17.278  35.101   2.344
52958W        W17943  12.862   8.834  14.405
52959W        W17944  15.733   2.178   2.814
52960W        W17945  30.096   0.435  10.203
52961W        W17946  14.362  28.599  14.269
52962W        W17947   5.723  39.926   0.874
52963W        W17948  33.353  21.211   2.765
52964W        W17949  22.557  22.994  11.431
52965W        W17950  39.337  42.280  10.477
52966W        W17951  42.936   7.996   4.594
52967W        W17952  18.359  36.042  14.357
52968W        W17953  30.722  12.276   0.509
52969W        W17954  39.463  39.649  12.177
52970W        W17955  41.497  38.008  12.507
52971W        W17956  14.616  18.970   2.677
52972W        W17957  18.427  24.161  11.484
52973W        W17958   9.675  20.243   0.790
52974W        W17959  19.868  19.386  10.723
52975W        W17960  36.924  40.217   1.931
52976W        W17961  26.077  23.139  11.715
52977W        W17962  22.144   6.770   4.078
52978W        W17963   1.585   4.629  13.496
52979W        W17964   7.401  34.380  10.714
52980W        W17965   4.679   8.058  11.411
52981W        W17966   7.895  32.667  13.960
52982W        W17967   5.209  38.494  10.657
52983W        W17968  34.009   3.160  14.598
52984W        W17969   9.904  16.104   3.343
52985W        W17970  15.384  24.668   1.836
52986W        W17971  43.763  26.966  12.871
52987W        W17972  25.835  21.452   4.373
52988W        W17973   2.549  21.769  11.139
52989W        W17974  23.027   8.298  11.178
52990W        W17975  30.892  31.316   3.710
52991W        W17976  33.651  30.635   1.314
52992W        W17977   9.902  40.534   5.094
52993W        W17978  30.139  39.945   1.419
52994W        W17979  17.528   6.407  12.168
52995W        W17980   4.928  34.638  11.492
52996W        W17981  27.986  20.164   2.233
52997W        W17982  18.860  25.095  11.599
52998W        W17983  19.180  43.358  14.739
52999W        W17984  10.398  13.083  13.108
53000W        W17985  24.516  26.684   4.266
53001W        W17986  20.532  16.359   0.106
53002W        W17987  23.951  36.117  13.392
53003W        W17988   6.442   7.480   4.548
53004W        W17989   5.916  30.646   3.127
53005W        W17990  38.401  10.055  14.558
53006W        W17991   2.755  14.572  12.963
53007W        W17992  13.628   7.308   3.261
53008W        W17993  17.764  29.022  12.459
53009W        W17994   8.419   3.459   2.500
53010W        W17995   1.257   7.084   3.859
53011W        W17996  34.876  43.321  14.891
53012W        W17997   8.969  21.124  10.216
53013W        W17998  12.523  31.710   0.100
53014W        W17999   4.260  11.866  11.847
53015W        W18000  43.142  11.776   5.055
53016W        W18001  39.161  23.233   3.167
53017W        W18002  11.745  40.285   0.608
53018W        W18003  28.074  26.664   0.391
53019W        W18004  13.856  32.831   0.349
53020W        W18005  12.787  15.217   2.284
53021W        W18006  35.881  17.777   0.212
53022W        W18007  38.787  34.854  13.386
53023W        W18008  16.085  29.186   2.688
53024W        W18009  23.537  20.096   2.305
53025W        W18010   1.303  15.629  11.099
53026W        W18011   7.992   4.248   3.675
53027W        W18012   6.153   7.073  10.987
53028W        W18013  15.269  13.299   0.919
53029W        W18014  11.845  12.424  13.162
53030W        W18015  18.229   9.247   1.954
53031W        W18016  10.210  29.885  14.526
53032W        W18017   8.820  28.012  13.061
53033W        W18018  35.271   9.382   1.989
53034W        W18019  26.113  19.169   4.548
53035W        W18020   5.914   3.929   3.179
53036W        W18021  24.594  42.307   2.758
53037W        W18022   4.351   4.199   3.719
53038W        W18023  34.506  26.660  11.714
53039W        W18024  12.372  16.109   2.452
53040W        W18025  12.863  18.067  12.881
53041W        W18026  11.297  19.586  12.379
53042W        W18027  21.000  20.078  13.461
53043W        W18028  16.506   2.059   1.784
53044W        W18029   1.453  11.075  10.840
53045W        W18030  31.495  40.758  14.956
53046W        W18031   8.672  24.016  13.537
53047W        W18032  29.138  12.613   0.622
53048W        W18033   7.176  43.551  10.654
53049W        W18034  14.342  38.318  13.015
53050W        W18035  14.324  32.985  11.568
53051W        W18036  44.911   7.488  14.977
53052W        W18037   1.477  43.129   3.720
53053W        W18038  21.530  35.842   0.483
53054W        W18039   1.192   7.852  12.128
53055W        W18040  11.676  12.035  12.338
53056W        W18041  35.374  11.255  14.856
53057W        W18042  42.327  22.987   0.403
53058W        W18043   2.237  22.599  12.196
53059W        W18044  29.006  29.483   0.983
53060W        W18045   6.272  13.582   4.653
53061W        W18046  19.501   6.087  14.480
53062W        W18047  24.039   6.857   4.476
53063W        W18048  26.218   4.233   2.339
53064W        W18049  36.314  26.191  11.635
53065W        W18050   5.409  34.042   0.871
53066W        W18051  42.948  42.750   1.731
53067W        W18052   1.857   5.624  13.479
53068W        W18053  14.288   2.398  13.337
53069W        W18054  36.419   5.307   1.059
53070W        W18055  11.744  36.239  11.631
53071W        W18056   2.868  27.125  11.980
53072W        W18057   7.122  19.064  13.382
53073W        W18058   9.159  17.395  12.429
53074W        W18059  17.727  29.172  14.794
53075W        W18060  39.415  21.936   3.572
53076W        W18061  20.103   4.178  13.586
53077W        W18062  36.000  16.720  13.423
53078W        W18063  27.069   8.727   3.128
53079W        W18064  26.096  27.468  12.798
53080W        W18065  18.654   9.363  12.952
53081W        W18066   6.909  15.780  10.768
53082W        W18067  44.812  19.741   1.370
53083W        W18068  35.537  35.078  14.254
53084W        W18069   7.819  40.518   4.712
53085W        W18070  32.443  26.231  13.583
53086W        W18071  28.955  18.115   0.280
53087W        W18072  40.009   5.207  12.023
53088W        W18073  44.307  35.411   3.879
53089W        W18074  12.543  21.228  11.438
53090W        W18075  27.165  34.944  11.750
53091W        W18076   4.677  13.022  14.879
53092W        W18077  32.014  15.909   3.758
53093W        W18078  38.148  44.569  11.147
53094W        W18079  34.994  22.958  13.548
53095W        W18080  38.376  41.864   0.719
53096W        W18081  13.444  17.154   3.594
53097W        W18082  36.121  35.387  14.434
53098W        W18083  16.285   3.857   4.016
53099W        W18084   6.814   0.712  13.585
53100W        W18085  34.035   6.749  12.846
53101W        W18086  15.266  33.946  14.824
53102W        W18087  29.512  29.918   2.721
53103W        W18088   6.511   3.292  13.544
53104W        W18089  15.793  27.602   0.956
53105W        W18090  29.684  11.965  14.062
53106W        W18091  11.132  44.323  11.449
53107W        W18092   8.762  44.323   4.332
53108W        W18093  43.236  17.156  13.504
53109W        W18094  27.416  23.828   1.978
53110W        W18095  42.413  28.530   4.228
53111W        W18096  16.144  26.544  14.866
53112W        W18097  42.699  28.732  14.758
53113W        W18098  37.168  21.491   4.904
53114W        W18099   1.737  39.886  12.869
53115W        W18100  41.935   6.255  10.673
53116W        W18101  15.620  23.246   1.471
53117W        W18102  35.347   5.612   0.361
53118W        W18103  10.249  23.251  11.209
53119W        W18104  10.795  34.814  12.953
53120W        W18105  33.081  34.035   0.575
53121W        W18106  16.225  24.804  13.046
53122W        W18107  40.405  32.610  14.308
53123W        W18108   6.615  21.444   0.520
53124W        W18109  38.867  33.103  13.854
53125W        W18110  14.304  33.078   2.360
53126W        W18111  35.510  35.260   0.886
53127W        W18112   7.525   1.047  11.236
53128W        W18113  42.995  38.735  12.425
53129W        W18114   7.736  43.816   1.813
53130W        W18115  24.436  26.612   2.318
53131W        W18116  44.491  33.562  11.871
53132W        W18117  11.304  35.543   2.897
53133W        W18118  31.303  43.486   1.394
53134W        W18119  14.243  32.504  14.028
53135W        W18120  32.273  31.175  11.113
53136W        W18121  11.400   4.302   0.425
53137W        W18122  12.642  25.245  13.987
53138W        W18123  30.871  19.234   1.859
53139W        W18124  23.721  22.345  12.376
53140W        W18125  30.372  10.803   2.928
53141W        W18126  39.395  34.217   4.817
53142W        W18127  12.260   5.982  10.378
53143W        W18128  24.696   1.771   2.946
53144W        W18129  11.182  21.962   1.256
53145W        W18130  38.424   4.667  14.000
53146W        W18131  31.423  21.530   0.960
53147W        W18132   0.970   6.219  13.538
53148W        W18133  40.861  43.765   2.363
53149W        W18134  30.218  22.557  14.832
53150W        W18135  16.150  22.320  11.536
53151W        W18136  19.719   3.649   4.280
53152W        W18137  22.207   3.527  14.636
53153W        W18138  31.497  38.780  14.458
53154W        W18139  18.793  24.150   0.182
53155W        W18140   6.275   3.779  12.889
53156W        W18141  29.121  43.684  14.952
53157W        W18142  14.617  33.473   4.131
53158W        W18143  36.289  41.051   0.247
53159W        W18144  34.298  16.837  13.151
53160W        W18145   9.633   4.946   0.502
53161W        W18146   4.788  19.076   3.163
53162W        W18147  22.210  31.936  12.583
53163W        W18148  42.045  12.349  11.920
53164W        W18149  17.101  22.611  14.250
53165W        W18150  30.306  38.166   3.723
53166W        W18151  28.181  42.470  14.597
53167W        W18152  29.052  42.212   0.076
53168W        W18153  16.105  38.995   0.395
53169W        W18154  25.860  23.811   4.953
53170W        W18155   1.021  31.024  13.515
53171W        W18156  19.855  18.885   4.471
53172W        W18157  41.233   4.563   1.829
53173W        W18158  12.182  37.640   4.241
53174W        W18159  35.938  23.909   4.646
53175W        W18160  39.044  36.315  14.738
53176W        W18161  26.420  27.382   4.213
53177W        W18162   9.162  26.700  14.251
53178W        W18163  22.109   8.833  10.872
53179W        W18164  41.005  42.280  14.225
53180W        W18165  44.035  15.863  10.641
53181W        W18166   6.781  38.865   4.743
53182W        W18167  12.723  22.232   0.648
53183W        W18168   4.686  39.796  11.157
53184W        W18169   4.857  14.544  10.983
53185W        W18170  33.791  13.222  12.157
53186W        W18171  30.092  37.179   1.206
53187W        W18172  24.168   5.753  10.796
53188W        W18173  13.872  29.065  14.974
53189W        W18174   9.540   4.849   9.632
53190W        W18175   3.800  43.713  14.487
53191W        W18176  14.751  15.338   2.314
53192W        W18177  43.303  30.947  14.440
53193W        W18178   2.297  31.496  14.337
53194W        W18179  27.429  38.028   4.594
53195W        W18180   5.215   2.367  14.308
53196W        W18181  22.742  11.782   4.270
53197W        W18182  28.478  37.954  14.351
53198W        W18183   6.947  32.063   1.380
53199W        W18184   9.159  29.639  11.149
53200W        W18185  33.368  18.762   2.288
53201W        W18186  37.098  13.320   2.501
53202W        W18187  24.567  40.561   2.215
53203W        W18188  16.363  25.636   0.711
53204W        W18189  10.858  26.016   4.672
53205W        W18190  29.889  26.463  13.889
53206W        W18191  44.995  29.061   3.659
53207W        W18192  37.295  17.628   4.058
53208W        W18193  31.564  25.907  14.519
53209W        W18194   3.023   4.805  11.923
53210W        W18195  35.941  13.691  11.362
53211W        W18196  29.924  28.777   3.986
53212W        W18197  26.368   8.820  12.006
53213W        W18198  39.924  41.919  11.899
53214W        W18199  30.450  16.278  14.079
53215W        W18200  19.646   1.451   2.294
53216W        W18201  42.586  42.411   2.133
53217W        W18202  21.927  15.552   4.614
53218W        W18203  25.296  12.527  13.347
53219W        W18204  40.509  36.356  13.458
53220W        W18205  44.771  37.468   4.911
53221W        W18206  27.139  44.877   3.173
53222W        W18207  22.647  29.406   0.061
53223W        W18208  29.029   4.464   3.168
53224W        W18209  17.049   4.637   2.240
53225W        W18210  25.911   2.860   1.416
53226W        W18211   6.583  35.444   0.262
53227W        W18212   7.879   6.451   0.059
53228W        W18213  12.385  44.266  10.685
53229W        W18214   4.744  28.992  13.136
53230W        W18215  18.647  13.157  10.567
53231W        W18216  17.768   6.379  10.068
53232W        W18217  41.350  20.802  10.407
53233W        W18218  30.393  16.215   1.839
53234W        W18219  14.028   0.570  12.670
53235W        W18220   4.165  17.275   3.014
53236W        W18221  31.987  11.950  14.348
53237W        W18222  21.753  22.207   0.043
53238W        W18223   0.049  21.979  14.873
53239W        W18224  32.241  43.419   1.846
53240W        W18225  16.833  10.693   1.218
53241W        W18226  16.085  31.097  14.398
53242W        W18227  31.053  42.375  11.009
53243W        W18228  43.335  33.453  12.531
53244W        W18229  26.257  32.611  10.365
53245W        W18230  23.625  19.772  10.650
53246W        W18231  44.741   8.238   2.382
53247W        W18232  34.610  44.739  10.690
53248W        W18233  26.057  43.788   1.663
53249W        W18234  16.186  33.912  12.199
53250W        W18235  28.747  29.113  13.281
53251W        W18236   8.484   2.901   3.170
53252W        W18237  31.649  34.480  11.072
53253W        W18238  12.341  17.907  14.782
53254W        W18239  30.131  21.770   1.862
53255W        W18240  15.163  44.855  14.322
53256W        W18241  17.843  32.542   4.124
53257W        W18242  27.056  31.392   1.833
53258W        W18243  35.988   7.204   4.501
53259W        W18244  23.070  32.551  12.854
53260W        W18245  23.062  31.729  11.414
53261W        W18246   7.049  35.592  14.491
53262W        W18247  16.933  10.507   5.060
53263W        W18248  11.038  32.804  13.531
53264W        W18249   4.624  10.159  12.909
53265W        W18250  44.223  37.151   1.500
53266W        W18251   3.339  21.815   1.341
53267W        W18252   5.673   4.890   0.437
53268W        W18253  27.206  13.510  14.372
53269W        W18254  19.319  27.332   9.684
53270W        W18255   4.138  37.384   4.159
53271W        W18256  30.935  10.321   1.779
53272W        W18257  38.607  40.511   2.339
53273W        W18258  39.685  10.731  12.169
53274W        W18259  31.892  10.690  14.121
53275W        W18260   5.267  17.693  11.526
53276W        W18261  42.791   9.914  11.654
53277W        W18262  22.764   7.609   4.967
53278W        W18263  19.589   0.703  14.805
53279W        W18264  28.620  40.599  12.373
53280W        W18265  40.875  38.838  12.854
53281W        W18266  32.579  44.660   2.281
53282W        W18267  13.424  25.686  13.627
53283W        W18268   0.931   8.929  12.115
53284W        W18269   7.408  27.891  13.945
53285W        W18270   5.806   2.323  11.186
53286W        W18271  25.117  15.531  13.382
53287W        W18272  37.526  41.883  13.658
53288W        W18273   5.870  33.005  11.618
53289W        W18274  14.778  21.779   3.012
53290W        W18275  16.990  17.021  13.913
53291W        W18276   9.762  33.890   4.083
53292W        W18277   5.904  16.190   1.292
53293W        W18278  10.858  17.236   3.213
53294W        W18279   3.368   4.214   2.747
53295W        W18280  39.190   2.889   2.220
53296W        W18281   5.737   9.383  12.950
53297W        W18282   7.778   5.968   0.194
53298W        W18283  36.638  43.010   4.312
53299W        W18284  13.342  30.456   3.194
53300W        W18285  37.700  14.008  14.360
53301W        W18286  23.720  30.405  12.466
53302W        W18287   6.734  43.958   3.175
53303W        W18288  10.226   8.536   4.996
53304W        W18289   1.472  36.734   3.637
53305W        W18290   5.222  28.391  13.550
53306W        W18291  37.414   6.263  14.325
53307W        W18292  20.453  44.377  13.460
53308W        W18293  14.776  43.849   2.294
53309W        W18294  23.467  42.049   0.434
53310W        W18295   3.357  34.591   0.586
53311W        W18296  40.400  36.341  14.384
53312W        W18297  21.085  43.536  13.484
53313W        W18298  10.601  28.016   1.854
53314W        W18299   7.650   3.961  11.626
53315W        W18300  29.127  43.894  13.596
53316W        W18301  38.300   5.442  12.885
53317W        W18302  25.893  16.526  12.501
53318W        W18303   4.186  16.249   0.963
53319W        W18304  15.552  29.162   2.181
53320W        W18305  23.222  25.824   4.165
53321W        W18306  11.528  18.646   0.977
53322W        W18307  14.451   7.919  10.705
53323W        W18308  29.039  30.577   2.148
53324W        W18309  36.502  39.432   2.460
53325W        W18310  23.637  20.204   5.375
53326W        W18311  39.534  21.141   1.121
53327W        W18312  43.427  29.668   4.204
53328W        W18313  28.483   4.849  11.985
53329W        W18314  21.872  30.529  10.366
53330W        W18315   7.117  37.976   0.300
53331W        W18316  34.252  27.985   4.652
53332W        W18317  21.657  43.313  11.027
53333W        W18318  26.483  20.034   0.775
53334W        W18319  16.238   0.490  12.514
53335W        W18320  30.140   1.376   9.737
53336W        W18321  23.106   8.999  10.637
53337W        W18322  17.557  44.064   0.035
53338W        W18323  14.360  38.306  10.736
53339W        W18324  16.417  15.268  11.997
53340W        W18325  28.864  28.025  14.194
53341W        W18326  24.017  14.675   4.535
53342W        W18327  19.194  11.523   0.798
53343W        W18328  14.701  37.421  13.710
53344W        W18329  21.846  17.815  11.990
53345W        W18330   5.266  10.254   1.596
53346W        W18331  26.754  35.455  14.315
53347W        W18332  30.500   0.758   2.841
53348W        W18333  13.689  29.996   0.658
53349W        W18334  19.652  12.276  11.882
53350W        W18335  34.068  37.133  11.945
53351W        W18336   7.103  39.491   1.803
53352W        W18337   9.676  17.871  12.945
53353W        W18338  22.573  36.782  12.986
53354W        W18339   9.306   9.909   2.401
53355W        W18340  21.434  20.190  14.355
53356W        W18341   6.632  44.923  10.794
53357W        W18342  43.421  27.358   1.968
53358W        W18343  21.562  41.290  14.880
53359W        W18344  31.913   0.264  12.570
53360W        W18345   9.396   8.835  14.334
53361W        W18346   9.658  28.019   1.925
53362W        W18347  37.597  10.322  13.999
53363W        W18348  20.617  42.446  12.845
53364W        W18349  29.177  16.871   3.137
53365W        W18350  32.446   4.632   4.866
53366W        W18351  29.894   5.691  10.725
53367W        W18352   0.895   0.462  10.062
53368W        W18353  11.081  44.386  10.944
53369W        W18354  34.960  34.164   0.715
53370W        W18355  24.663  12.946   1.753
53371W        W18356  27.953   7.668  10.737
53372W        W18357  29.101  20.956  13.435
53373W        W18358  38.380  24.794   2.159
53374W        W18359  33.222   5.646   1.925
53375W        W18360  20.646  14.208   3.919
53376W        W18361  35.096  25.138  12.962
53377W        W18362  21.071  43.268  14.235
53378W        W18363   2.734  21.446   0.143
53379W        W18364  33.520   5.366  12.817
53380W        W18365  39.441  32.090   2.776
53381W        W18366  43.766  35.693  11.935
53382W        W18367  30.942  40.393   1.453
53383W        W18368  24.677  27.685  10.758
53384W        W18369  13.076  21.080   0.353
53385W        W18370   4.281  29.995  13.417
53386W        W18371  44.296  25.739  13.949
53387W        W18372  11.892  18.620  10.643
53388W        W18373   2.530  14.649   1.166
53389W        W18374  22.743  35.981   4.478
53390W        W18375  18.072   7.655   0.455
53391W        W18376   1.247  15.178  13.571
53392W        W18377   5.800  28.549   3.569
53393W        W18378  15.286  10.202   3.952
53394W        W18379  42.051  26.744  13.391
53395W        W18380  22.492  34.082  13.967
53396W        W18381  44.949  28.506   3.326
53397W        W18382  22.009  30.007  14.021
53398W        W18383  17.671  42.064  11.193
53399W        W18384  38.435  15.304  12.241
53400W        W18385  17.204  20.020  14.925
53401W        W18386  38.966  25.211   2.682
53402W        W18387  27.067  18.622   1.757
53403W        W18388  27.626  30.475  14.360
53404W        W18389   6.661  16.861  14.911
53405W        W18390   8.386  13.795  10.723
53406W        W18391  14.177  14.993  13.506
53407W        W18392   0.606  44.394  11.941
53408W        W18393  15.794  18.895  11.101
53409W        W18394  34.396  30.713  11.296
53410W        W18395  28.550  11.692   2.131
53411W        W18396  36.158  17.121   4.423
53412W        W18397  23.294  42.864   4.116
53413W        W18398  10.034  42.023  14.903
53414W        W18399   7.740  39.253  14.345
53415W        W18400  36.880  32.143   2.087
53416W        W18401  18.362   0.868  12.853
53417W        W18402   6.304   1.547  14.361
53418W        W18403  24.663   4.284   2.281
53419W        W18404   6.729  38.957   3.667
53420W        W18405  38.289   7.122  11.067
53421W        W18406  39.972   1.396  13.383
53422W        W18407  26.763   2.503   3.352
53423W        W18408  29.256  35.302  12.008
53424W        W18409  31.889   5.880   4.368
53425W        W18410  37.271  31.545   0.327
53426W        W18411   7.740  33.369   3.605
53427W        W18412   9.873  16.821   3.906
53428W        W18413  26.036  33.428   3.204
53429W        W18414  25.654  11.756  13.488
53430W        W18415  23.468   8.883   2.674
53431W        W18416  24.978  23.948  13.954
53432W        W18417  44.538   4.387  14.876
53433W        W18418   6.087  10.031   3.318
53434W        W18419  43.589   5.267  11.666
53435W        W18420  44.935   9.598   2.322
53436W        W18421   0.711  41.715   2.318
53437W        W18422   2.031  21.725  11.202
53438W        W18423   6.268   6.441  12.344
53439W        W18424  32.043  31.629   2.750
53440W        W18425  27.384  10.558   2.192
53441W        W18426   8.993  19.892   4.190
53442W        W18427   8.315  37.420  11.702
53443W        W18428  38.383  34.576   4.473
53444W        W18429  22.310  28.072   3.806
53445W        W18430  29.112  21.635   0.865
53446W        W18431   7.649  44.110  10.265
53447W        W18432  36.827  17.966   4.199
53448W        W18433  32.365  25.597  12.882
53449W        W18434  27.513  17.254  13.537
53450W        W18435  44.805  18.163   4.882
53451W        W18436  33.909  26.022  13.534
53452W        W18437  23.433  19.194   0.498
53453W        W18438   4.948  23.455  11.692
53454W        W18439  41.526  43.734   3.609
53455W        W18440  10.286  25.243   0.483
53456W        W18441  28.558  13.181   4.214
53457W        W18442  16.706  36.548   3.690
53458W        W18443  31.957  11.176   1.404
53459W        W18444  38.617  43.500   4.792
53460W        W18445  22.938   5.177   0.347
53461W        W18446  15.533  11.990  13.410
53462W        W18447  42.445  22.371  13.936
53463W        W18448  19.688  11.825  12.125
53464W        W18449  40.208  33.839   1.417
53465W        W18450  42.145  44.913   1.909
53466W        W18451  18.632   1.358  11.932
53467W        W18452  21.522   8.728  12.511
53468W        W18453  20.942  38.510  13.320
53469W        W18454  32.032  28.942   4.309
53470W        W18455  11.515  42.255  11.030
53471W        W18456  21.089  22.018   0.735
53472W        W18457   5.399  28.102   2.128
53473W        W18458   9.906  21.802  12.982
53474W        W18459  10.752  10.542  13.775
53475W        W18460  27.949  17.717   3.601
53476W        W18461  34.035  31.079  10.708
53477W        W18462  29.804  43.822   0.549
53478W        W18463  39.448  16.259   3.705
53479W        W18464  13.707  24.288   0.751
53480W        W18465   9.333  19.039  11.004
53481W        W18466  16.540   9.857   4.124
53482W        W18467  14.873  25.983  11.159
53483W        W18468  34.136  16.208  13.536
53484W        W18469  41.023  39.017  13.867
53485W        W18470   6.409  44.435  11.062
53486W        W18471  18.778   2.396  14.908
53487W        W18472  39.009  18.560   4.139
53488W        W18473  30.492  14.586   2.944
53489W        W18474  23.566  19.793   4.547
53490W        W18475   7.776  40.844   1.472
53491W        W18476  30.033  35.025   0.457
53492W        W18477  33.362  36.598   4.679
53493W        W18478  24.728   5.256   3.236
53494W        W18479  27.009  39.318   4.309
53495W        W18480  27.818  16.783   2.242
53496W        W18481  32.395   9.131   0.782
53497W        W18482  28.194  36.266   4.185
53498W        W18483   0.414  25.294   2.034
53499W        W18484  41.807  34.142  12.006
53500W        W18485   9.624  11.364   3.750
53501W        W18486  22.157  43.430   1.900
53502W        W18487   2.725  19.600  13.155
53503W        W18488  44.926   9.055   2.269
53504W        W18489  40.451  44.819   3.915
53505W        W18490   9.529   4.720  11.479
53506W        W18491  34.591  17.353  14.923
53507W        W18492  11.103  18.602  14.471
53508W        W18493  28.806  29.896   4.691
53509W        W18494  25.646   8.590   2.263
53510W        W18495  14.013  23.077  10.810
53511W        W18496  24.062  30.592  14.274
53512W        W18497  32.737  11.285  11.146
53513W        W18498  20.094  11.966   3.313
53514W        W18499  44.380  11.625   2.626
53515W        W18500   5.896  30.146  13.240
53516W        W18501   6.416  43.227   1.615
53517W        W18502  24.475  11.333  13.381
53518W        W18503  22.680  41.861   3.883
53519W        W18504  35.654  15.648  14.535
53520W        W18505  28.574  18.205  14.912
53521W        W18506  15.867   1.183   1.277
53522W        W18507  25.715   1.302  14.421
53523W        W18508   2.197   2.410  14.784
53524W        W18509  40.018   5.628  12.293
53525W        W18510  40.377  12.141   3.879
53526W        W18511  31.870   8.291  13.567
53527W        W18512  24.077  34.951   4.997
53528W        W18513  10.788  11.543   2.903
53529W        W18514  36.348  11.484  14.942
53530W        W18515  41.242  30.725  11.119
53531W        W18516  40.217  33.975   3.204
53532W        W18517  30.280  15.075   2.112
53533W        W18518  25.061  15.979  12.455
53534W        W18519   4.461   6.313  11.859
53535W        W18520  22.003  18.555   4.544
53536W        W18521   3.343  24.085  13.837
53537W        W18522  42.853   0.389   4.912
53538W        W18523   4.061  32.087   5.034
53539W        W18524  35.789  26.161   3.391
53540W        W18525  32.347  25.510   4.126
53541W        W18526  16.655  34.857   1.531
53542W        W18527  14.343  43.771  10.735
53543W        W18528   3.779  41.454   2.719
53544W        W18529  24.297  32.095   1.477
53545W        W18530  12.860  14.068   2.784
53546W        W18531  11.672  37.594   2.288
53547W        W18532   3.738  39.413   2.076
53548W        W18533  39.728   8.372   3.035
53549W        W18534  29.554  18.652   4.803
53550W        W18535  27.115  22.079  11.586
53551W        W18536   3.716  38.948  13.086
53552W        W18537  25.798   5.233  10.670
53553W        W18538  19.189  30.878  11.172
53554W        W18539  38.193  34.565   9.709
53555W        W18540  42.347  35.498   3.214
53556W        W18541  23.929  30.507   5.163
53557W        W18542   3.662  41.233   4.571
53558W        W18543  21.028  12.565   9.858
53559W        W18544   1.279   0.834  13.620
53560W        W18545   0.704  21.075  12.038
53561W        W18546  17.956  11.827  13.596
53562W        W18547  22.634   5.852  11.793
53563W        W18548  26.107  41.826   0.636
53564W        W18549  22.837  11.809  13.035
53565W        W18550  41.961  17.005  14.437
53566W        W18551   7.191  18.453  11.547
53567W        W18552  29.129  33.271  10.427
53568W        W18553  44.376   6.887  14.489
53569W        W18554  12.249  14.699   0.934
53570W        W18555  25.411  22.042  14.270
53571W        W18556  14.949  35.056  12.699
53572W        W18557   5.350  26.101  11.249
53573W        W18558   5.194  37.465   4.636
53574W        W18559  25.000   0.630   3.744
53575W        W18560   0.619   4.424   4.182
53576W        W18561   7.157  26.253  11.062
53577W        W18562  15.232   6.203   0.799
53578W        W18563  42.561  18.026  12.597
53579W        W18564  38.566  18.273  10.547
53580W        W18565  12.371  38.897   3.136
53581W        W18566   5.724   1.800   3.344
53582W        W18567  15.693  13.336  10.512
53583W        W18568  11.650  19.919  12.560
53584W        W18569  11.246  28.857   2.608
53585W        W18570  27.654   0.135   2.549
53586W        W18571  39.443  37.409  11.480
53587W        W18572  11.241  17.646   0.437
53588W        W18573   1.484  34.586  12.603
53589W        W18574  42.017  40.930  13.037
53590W        W18575  14.031  32.299  13.590
53591W        W18576  29.990  25.574   0.406
53592W        W18577   9.685   3.825   3.199
53593W        W18578  11.795   3.260  12.858
53594W        W18579  42.090  22.395   2.826
53595W        W18580  36.461  17.520  13.908
53596W        W18581   1.932  30.856  12.549
53597W        W18582  23.580   6.280  12.816
53598W        W18583   2.992  37.417   3.617
53599W        W18584  44.845  18.793   2.805
53600W        W18585  26.796  19.250  11.541
53601W        W18586  40.480  39.870   2.298
53602W        W18587  34.114   4.823  11.926
53603W        W18588  40.364  23.999   0.512
53604W        W18589  16.153  25.681  10.250
53605W        W18590  16.752  27.475   1.702
53606W        W18591  20.149  15.794   5.198
53607W        W18592  40.758   6.432   0.820
53608W        W18593  24.591   7.262   3.674
53609W        W18594  23.452  33.325  10.884
53610W        W18595  17.673  26.403  14.955
53611W        W18596  36.389  26.198  14.859
53612W        W18597  37.650   6.148   4.601
53613W        W18598  23.938   9.388   1.846
53614W        W18599  22.909  37.390   4.124
53615W        W18600  10.380  40.919   3.287
53616W        W18601  18.190  43.814   4.735
53617W        W18602  10.258   2.581   0.540
53618W        W18603  13.695   9.803  11.636
53619W        W18604  34.746  18.997  12.996
53620W        W18605  27.140  30.070   1.971
53621W        W18606  18.697   4.397  12.865
53622W        W18607  17.646  41.001   0.768
53623W        W18608   7.648  26.602   3.805
53624W        W18609  22.474  36.312  11.095
53625W        W18610   5.805  27.295  14.406
53626W        W18611  15.851   8.260   0.071
53627W        W18612  21.638  23.826   3.133
53628W        W18613  38.547  17.174   1.029
53629W        W18614  44.426  15.522  13.069
53630W        W18615  28.992  30.689   2.643
53631W        W18616  36.232  36.449  10.365
53632W        W18617   4.388  17.293  11.207
53633W        W18618   3.641   4.986   2.196
53634W        W18619  32.341  43.937   2.574
53635W        W18620  43.771  17.248  13.465
53636W        W18621  39.273  24.852  13.864
53637W        W18622  42.407  41.810   4.758
53638W        W18623   9.780  37.583  12.924
53639W        W18624  43.391  21.081  14.998
53640W        W18625  35.448  10.128   4.065
53641W        W18626  40.782  13.062  11.404
53642W        W18627  23.408  36.427  14.783
53643W        W18628  20.482  41.586   0.715
53644W        W18629   3.013  39.931   1.881
53645W        W18630  23.519  13.619   2.204
53646W        W18631  35.421  40.486  11.186
53647W        W18632   7.038   6.984  12.664
53648W        W18633  32.145   3.364  10.935
53649W        W18634  21.138  33.079   4.751
53650W        W18635  19.688  41.412  11.291
53651W        W18636  31.605  44.419   3.803
53652W        W18637  18.609  40.219  11.633
53653W        W18638  27.863  23.476   2.812
53654W        W18639  37.341  44.989  11.100
53655W        W18640  26.596  38.664   0.530
53656W        W18641  18.243  37.261  10.693
53657W        W18642  32.661  19.977  12.496
53658W        W18643  36.570  29.733  13.819
53659W        W18644  24.975  19.639  13.598
53660W        W18645  36.105  21.491   1.255
53661W        W18646  11.326   4.871   4.278
53662W        W18647   1.838  28.865  11.428
53663W        W18648  24.540  18.346  11.478
53664W        W18649  17.809  29.625  14.330
53665W        W18650  36.364  36.388   3.650
53666W        W18651  17.117  18.213   2.736
53667W        W18652  13.320  29.546  14.418
53668W        W18653  25.276  14.295   4.581
53669W        W18654  20.142  25.203   0.618
53670W        W18655  32.706   5.220  12.018
53671W        W18656   8.771   5.368  12.017
53672W        W18657   8.735  21.635   3.264
53673W        W18658  42.928  41.259  11.999
53674W        W18659  39.011   9.911   4.693
53675W        W18660   3.261  44.678  12.596
53676W        W18661   1.193  26.518  13.663
53677W        W18662  13.060  25.514  13.921
53678W        W18663   9.770  42.848  14.854
53679W        W18664  24.276  20.088   3.624
53680W        W18665  21.518   9.064   2.177
53681W        W18666  16.655   9.716   3.652
53682W        W18667   8.749   5.145   3.026
53683W        W18668  10.699  27.951   2.390
53684W        W18669   9.257  15.578   0.903
53685W        W18670  37.132  18.626  13.937
53686W        W18671  15.937  30.474  11.680
53687W        W18672  32.371  32.853   1.311
53688W        W18673  42.234  44.436   2.515
53689W        W18674  21.658  15.208  14.080
53690W        W18675   8.406  10.008  12.157
53691W        W18676  33.513   1.623   4.631
53692W        W18677   1.276  37.599   0.428
53693W        W18678  36.502  11.133  10.863
53694W        W18679   1.245  22.115   4.623
53695W        W18680  34.012   3.881   1.750
53696W        W18681  20.739  19.493   2.888
53697W        W18682   2.870  16.534   2.742
53698W        W18683   2.913   2.682  11.220
53699W        W18684  13.230  26.857   1.863
53700W        W18685  17.202  12.526   4.312
53701W        W18686  17.189   8.742   4.084
53702W        W18687  10.427  12.384  11.532
53703W        W18688  40.349  38.251  10.686
53704W        W18689   1.387  31.482  10.600
53705W        W18690  18.686  28.692   2.334
53706W        W18691  36.432   2.121   0.790
53707W        W18692   9.549  18.553  12.055
53708W        W18693  39.811  13.271  13.822
53709W        W18694  38.233  32.356  11.040
53710W        W18695  20.653  31.469  11.136
53711W        W18696  11.890  28.490  12.645
53712W        W18697  44.441   3.438   4.090
53713W        W18698  20.196   9.135  13.970
53714W        W18699  16.283  32.569  10.955
53715W        W18700  17.345   5.223  13.085
53716W        W18701   4.783  28.394   3.680
53717W        W18702   3.102  14.151   2.068
53718W        W18703  18.282  31.999  13.497
53719W        W18704   3.747   9.606   3.311
53720W        W18705   6.930   3.234   4.304
53721W        W18706  22.492   1.530   0.287
53722W        W18707  22.014  43.256   2.780
53723W        W18708  15.633  39.564  12.952
53724W        W18709  27.977  10.485   1.346
53725W        W18710   4.986   2.408   0.051
53726W        W18711  21.775  16.401  12.438
53727W        W18712   0.394  15.643  12.288
53728W        W18713  35.657  31.861   0.751
53729W        W18714  32.459  26.555   3.151
53730W        W18715   8.318  18.354   2.623
53731W        W18716  15.492  40.367   2.648
53732W        W18717  29.643  39.401   1.845
53733W        W18718  25.803  26.125  10.770
53734W        W18719  30.081  22.260   3.675
53735W        W18720  43.276  36.982   1.243
53736W        W18721  31.555   8.149  12.212
53737W        W18722  42.959  22.065   4.139
53738W        W18723   3.823   6.320  14.780
53739W        W18724  36.609  14.738   0.982
53740W        W18725  10.632  30.937   3.563
53741W        W18726   6.300  22.652   3.516
53742W        W18727  31.176   2.191  13.983
53743W        W18728  28.858  18.050  11.592
53744W        W18729  42.545   6.292   2.191
53745W        W18730  27.426  38.456   0.487
53746W        W18731   3.964  39.322   4.579
53747W        W18732   9.892  17.693  11.220
53748W        W18733  15.501  12.383  13.731
53749W        W18734  34.127  34.056  10.689
53750W        W18735  22.605  27.075   1.484
53751W        W18736   9.931  23.072   0.732
53752W        W18737  17.635  17.687  12.359
53753W        W18738   3.508   4.620  13.869
53754W        W18739   8.441   3.177  14.031
53755W        W18740  32.556  41.032  12.553
53756W        W18741  44.983  34.631  11.147
53757W        W18742   4.785  37.077   1.549
53758W        W18743  24.554   7.715  13.465
53759W        W18744  36.843   1.894  14.273
53760W        W18745  33.622   1.960   1.829
53761W        W18746   3.261  36.123  11.355
53762W        W18747   4.943   3.262   2.461
53763W        W18748  19.806  31.794   3.905
53764W        W18749  27.970   9.408  11.750
53765W        W18750  38.302  21.697  13.922
53766W        W18751  27.454  12.703   4.463
53767W        W18752  39.106  17.759  14.785
53768W        W18753  27.849  15.612  12.049
53769W        W18754   5.590   5.193   3.661
53770W        W18755   6.332  20.607   0.499
53771W        W18756  24.625  38.892   2.486
53772W        W18757  36.362  10.932  12.159
53773W        W18758  33.681  17.582   1.626
53774W        W18759   0.928  12.285   2.643
53775W        W18760  23.592   3.203   2.653
53776W        W18761  13.573  33.149  10.988
53777W        W18762   2.853  43.388   2.618
53778W        W18763  13.448  22.246  10.288
53779W        W18764  22.174  26.600  14.957
53780W        W18765  44.318  30.599   3.835
53781W        W18766  30.878   8.858   2.656
53782W        W18767  11.718  21.420  11.468
53783W        W18768  34.159   2.083   3.644
53784W        W18769  27.204  39.030  12.202
53785W        W18770  12.131   0.948   1.439
53786W        W18771  38.932   7.156  12.559
53787W        W18772  18.957  38.928   4.745
53788W        W18773  30.681  18.187  13.907
53789W        W18774  32.358  33.058   4.642
53790W        W18775  26.746  44.889  10.577
53791W        W18776  30.704  18.129  14.822
53792W        W18777  28.991  39.433   0.847
53793W        W18778  25.416  25.391  14.443
53794W        W18779  20.004  37.463   2.561
53795W        W18780  44.513  15.780  10.814
53796W        W18781   6.425  14.647   1.964
53797W        W18782  15.544  39.859   4.856
53798W        W18783  42.645   7.843   1.678
53799W        W18784   6.185  37.347   2.920
53800W        W18785  20.464  33.377  13.462
53801W        W18786  20.369  29.637  12.404
53802W        W18787   0.904  31.547   1.583
53803W        W18788   8.292  26.177  14.936
53804W        W18789   1.380   0.973   2.425
53805W        W18790  41.582  33.333   2.390
53806W        W18791  21.759  32.106   1.690
53807W        W18792  17.852  17.686  13.877
53808W        W18793  37.140  21.374  14.043
53809W        W18794  29.932   3.256  14.442
53810W        W18795  23.024  19.257   2.215
53811W        W18796   8.650  24.551  11.419
53812W        W18797  22.698  40.203  11.071
53813W        W18798  15.063   8.776   0.720
53814W        W18799  11.693   9.676  12.130
53815W        W18800  39.133  34.448   0.897
53816W        W18801  40.534  15.793  13.542
53817W        W18802  40.807  25.430   1.861
53818W        W18803  22.539  24.586  13.255
53819W        W18804   0.776   0.556  11.480
53820W        W18805  19.597  25.274   2.630
53821W        W18806  11.146  38.833  13.530
53822W        W18807  23.351  43.441   0.221
53823W        W18808   8.313  44.298  13.590
53824W        W18809  43.081  40.524   0.779
53825W        W18810  24.026   6.733  11.742
53826W        W18811  42.009  42.699  10.127
53827W        W18812  31.469  29.780   0.841
53828W        W18813  39.945   8.878  10.896
53829W        W18814  44.322  38.168   9.824
53830W        W18815   4.313  17.344   2.408
53831W        W18816   0.378  15.411   3.073
53832W        W18817   8.572   0.092   9.864
53833W        W18818   1.006  11.244   3.100
53834W        W18819  17.744  25.034   4.611
53835W        W18820   1.323  16.666  14.274
53836W        W18821  24.450  19.079  10.759
53837W        W18822  38.875  10.092   0.411
53838W        W18823  27.238  34.932   1.787
53839W        W18824  37.529  39.948  14.995
53840W        W18825  19.830  28.032   3.937
53841W        W18826  27.000  18.697  14.826
53842W        W18827  24.521  27.616   2.250
53843W        W18828  38.292  20.540  11.538
53844W        W18829  10.770  12.384   4.539
53845W        W18830  41.235   6.614   3.374
53846W        W18831   2.266   6.357   1.346
53847W        W18832  13.743  35.590   1.605
53848W        W18833  27.898  11.356   1.264
53849W        W18834  36.286  19.497  10.541
53850W        W18835  31.177  39.933   1.230
53851W        W18836  34.038  36.577   4.110
53852W        W18837  23.332  19.719   0.354
53853W        W18838  20.452   2.123   2.418
53854W        W18839  42.109  42.016   1.422
53855W        W18840  11.674  19.277   3.873
53856W        W18841   6.449   1.464   0.439
53857W        W18842  15.343  14.077  12.850
53858W        W18843   7.337  40.834  14.332
53859W        W18844  39.149  27.716   4.040
53860W        W18845   2.508  36.645  10.625
53861W        W18846  15.059  24.262  11.142
53862W        W18847  37.016  11.366   0.961
53863W        W18848  34.151   6.324  13.164
53864W        W18849  24.050   6.784   0.334
53865W        W18850  13.918   5.486   2.816
53866W        W18851  22.494  27.690  11.095
53867W        W18852   5.315  10.665  14.884
53868W        W18853   8.725  36.897  10.591
53869W        W18854  17.177  41.342   2.156
53870W        W18855   4.802  18.089   0.085
53871W        W18856  36.793  42.268   4.689
53872W        W18857  13.761   1.927   2.419
53873W        W18858  38.760   9.956   2.328
53874W        W18859  38.295  34.051   0.690
53875W        W18860  26.605  29.909   2.373
53876W        W18861  41.040  26.604  12.423
53877W        W18862  42.456  29.789   9.869
53878W        W18863  26.167  11.084   4.762
53879W        W18864  20.247  20.262   2.764
53880W        W18865  27.221  38.890   4.091
53881W        W18866  25.980  13.767  12.095
53882W        W18867  39.541  11.521   3.668
53883W        W18868   3.899  26.666  10.792
53884W        W18869   5.524  32.524  12.445
53885W        W18870  10.558  28.873   0.399
53886W        W18871   4.625  43.283   4.595
53887W        W18872  19.638  24.754   2.705
53888W        W18873   3.964  33.978  14.071
53889W        W18874   7.815  30.932   4.783
53890W        W18875  13.309  17.971   5.072
53891W        W18876  36.329  12.772   2.216
53892W        W18877  18.495  40.120  13.982
53893W        W18878  12.250  32.868   4.680
53894W        W18879  39.634  20.120  12.452
53895W        W18880  35.298  23.570   2.726
53896W        W18881   0.294  11.869   4.600
53897W        W18882  35.441  44.623   1.419
53898W        W18883   1.351  14.587  11.654
53899W        W18884  43.200  44.047   1.794
53900W        W18885  22.051  19.344  13.043
53901W        W18886  39.466  41.741   3.802
53902W        W18887   7.185  15.558  14.296
53903W        W18888   2.027   7.382  13.660
53904W        W18889   1.087  23.595   2.115
53905W        W18890  12.689  15.670  11.958
53906W        W18891   4.508  29.355   4.104
53907W        W18892  21.771   5.758  11.115
53908W        W18893  10.708  29.332  12.853
53909W        W18894  35.055  33.177  14.937
53910W        W18895  12.216  41.019  13.929
53911W        W18896  11.294  32.171   2.394
53912W        W18897   2.279  18.439  12.865
53913W        W18898   8.673  27.734   0.954
53914W        W18899  29.794  33.533   3.825
53915W        W18900  32.157  16.566  11.349
53916W        W18901  38.550  11.781   0.354
53917W        W18902  28.949   0.783  12.139
53918W        W18903  22.031  19.323   3.406
53919W        W18904  23.506  30.486   3.784
53920W        W18905  30.467  14.794  11.606
53921W        W18906  37.206  34.852   1.767
53922W        W18907  19.780  18.638  12.607
53923W        W18908  44.829  20.989   2.315
53924W        W18909  26.464  39.778   3.181
53925W        W18910   8.456  25.428  14.442
53926W        W18911  38.420  19.743  14.352
53927W        W18912  29.002  10.080   4.863
53928W        W18913  18.848   9.640  12.077
53929W        W18914  13.166   8.328   0.137
53930W        W18915   4.187  39.263   3.712
53931W        W18916  32.762  44.901   3.792
53932W        W18917  28.440  29.482  11.463
53933W        W18918  33.416  35.344   2.783
53934W        W18919  39.551  16.187  11.146
53935W        W18920  38.829  26.508  14.057
53936W        W18921   4.295  29.868  14.461
53937W        W18922  31.661  20.597  14.070
53938W        W18923  11.339  15.141  11.185
53939W        W18924  24.102  35.909  13.828
53940W        W18925  42.541   3.264   3.666
53941W        W18926  36.656  21.710   2.278
53942W        W18927  33.854   8.787  13.873
53943W        W18928  28.079  44.365   3.721
53944W        W18929  10.858  25.504  11.155
53945W        W18930  16.875  25.200  11.650
53946W        W18931   1.468  33.028   4.076
53947W        W18932  23.164  14.346  14.299
53948W        W18933  36.128   3.253  12.882
53949W        W18934  28.154  23.636   1.419
53950W        W18935  35.038  12.301  11.050
53951W        W18936  42.873   1.879  12.935
53952W        W18937   8.405   8.969   4.315
53953W        W18938  16.029   0.979   4.661
53954W        W18939  18.209   1.805   1.387
53955W        W18940  21.653  13.211  13.331
53956W        W18941  25.493  38.416  13.434
53957W        W18942  18.367  11.883  12.031
53958W        W18943  20.133  19.282   1.812
53959W        W18944  39.251  21.672  10.989
53960W        W18945  25.901  20.619  13.419
53961W        W18946   0.916  15.361   4.596
53962W        W18947  15.765  42.495   2.694
53963W        W18948  40.474   6.684  13.590
53964W        W18949  34.554   0.331   1.945
53965W        W18950  29.035  18.002  11.098
53966W        W18951   2.285   8.866   0.365
53967W        W18952  39.806   0.025   2.138
53968W        W18953  21.082  39.889   3.797
53969W        W18954  22.939  26.661   0.403
53970W        W18955  34.474  42.365   3.692
53971W        W18956  30.044  13.394   4.542
53972W        W18957   7.903   9.666  14.883
53973W        W18958   8.831  18.543   1.427
53974W        W18959  14.817   4.762   2.348
53975W        W18960  44.274  18.201  13.312
53976W        W18961  42.789   1.366   3.413
53977W        W18962  10.124   7.910  12.100
53978W        W18963  36.129  20.771  10.494
53979W        W18964  35.391   0.541   1.943
53980W        W18965  18.948  38.635  12.917
53981W        W18966  19.235  33.892   0.730
53982W        W18967   4.457   9.978  13.706
53983W        W18968   8.887  20.095   1.608
53984W        W18969  19.652  36.815   2.487
53985W        W18970  11.650  44.022  14.453
53986W        W18971  25.494  24.641   2.137
53987W        W18972  21.649  42.890   2.679
53988W        W18973  44.854  16.761   0.946
53989W        W18974  39.630  14.858  11.987
53990W        W18975  39.299  12.345   4.150
53991W        W18976  38.116   1.971  11.109
53992W        W18977  35.395  14.165  11.832
53993W        W18978  34.363  38.416   2.877
53994W        W18979  34.345  36.482  13.946
53995W        W18980   8.768  32.827   0.682
53996W        W18981  16.334  16.055   2.387
53997W        W18982   2.445  36.870   0.302
53998W        W18983  31.955   4.385  13.532
53999W        W18984  21.467   9.385  10.753
54000W        W18985  12.439  35.542  12.510
54001W        W18986  24.115  40.594  14.973
54002W        W18987  42.246  37.836  12.971
54003W        W18988   5.388  26.160  12.277
54004W        W18989   3.465  41.718  14.437
54005W        W18990  17.256  41.371   3.532
54006W        W18991  43.444   4.726  14.202
54007W        W18992  27.896   7.790   0.428
54008W        W18993  41.040   4.039   2.926
54009W        W18994   3.052   7.857   4.318
54010W        W18995  13.560  14.340  12.056
54011W        W18996  35.884  40.312  14.813
54012W        W18997  28.950  26.362  11.216
54013W        W18998   4.672  34.705   3.740
54014W        W18999  34.155   3.462  11.249
54015W        W19000   6.216   1.992  13.466
54016W        W19001   1.416  40.076   1.881
54017W        W19002  35.985  17.719   2.145
54018W        W19003  28.052  27.707   2.834
54019W        W19004  44.258   8.145   3.482
54020W        W19005   7.436  41.066   3.330
54021W        W19006   1.756  15.621  10.713
54022W        W19007  22.670  19.599   2.906
54023W        W19008   3.800   6.644   4.569
54024W        W19009  33.511  44.382   9.960
54025W        W19010  18.587   4.645  14.333
54026W        W19011  20.352  10.060   3.763
54027W        W19012  34.297   1.881  13.435
54028W        W19013  30.129  32.170   4.128
54029W        W19014  27.196  19.605   2.136
54030W        W19015   0.907  17.566   0.254
54031W        W19016  32.418  36.033   1.177
54032W        W19017   2.366   8.856  14.273
54033W        W19018   5.416  12.908   3.296
54034W        W19019  39.603  17.648  10.209
54035W        W19020  23.376  13.580  12.113
54036W        W19021  30.819  10.203   0.306
54037W        W19022  14.641  15.328  14.696
54038W        W19023   2.424   5.896   1.464
54039W        W19024  30.057  10.632   0.854
54040W        W19025  12.095  32.431   4.971
54041W        W19026   3.681  42.996   4.238
54042W        W19027   4.084   6.746   1.678
54043W        W19028  24.199  21.224   0.194
54044W        W19029   8.642  31.211  12.873
54045W        W19030   1.478  21.302   1.811
54046W        W19031  24.312  29.998  14.933
54047W        W19032  34.450   6.867   4.481
54048W        W19033  40.585  25.075  12.049
54049W        W19034  12.911  34.383  14.488
54050W        W19035   2.349   8.867   1.233
54051W        W19036  31.461  26.068   4.068
54052W        W19037  19.217  32.593   0.861
54053W        W19038  42.570  10.722   3.627
54054W        W19039  37.504  36.034  11.016
54055W        W19040  25.390   4.111  13.109
54056W        W19041   4.636   7.256   0.759
54057W        W19042  42.059  23.703   2.178
54058W        W19043  44.845  11.896   4.873
54059W        W19044  39.340   5.283  13.397
54060W        W19045  32.473   1.223  13.451
54061W        W19046   6.267  37.606   0.885
54062W        W19047  29.514  35.179   3.680
54063W        W19048  12.148  34.512   0.866
54064W        W19049  19.345  21.117  13.446
54065W        W19050  28.024  44.441  13.516
54066W        W19051  40.992  44.228   4.683
54067W        W19052  34.047  35.116  12.103
54068W        W19053  41.355   3.265  11.208
54069W        W19054  27.539  41.470  11.963
54070W        W19055  43.924  38.502   1.344
54071W        W19056  37.430  18.859  13.586
54072W        W19057  29.304  10.284  11.872
54073W        W19058  22.177   1.959   3.375
54074W        W19059   3.359  28.680   0.300
54075W        W19060  25.017  26.379  12.019
54076W        W19061  28.808  40.559   3.596
54077W        W19062  19.163  39.786   4.228
54078W        W19063  30.589  35.855   0.783
54079W        W19064  16.236  18.826   3.691
54080W        W19065  18.701  20.738  12.357
54081W        W19066  36.992  23.789   2.790
54082W        W19067   2.708  18.247   0.469
54083W        W19068  30.017   0.855   0.693
54084W        W19069  21.156  26.032   1.223
54085W        W19070  23.490  41.055  14.336
54086W        W19071  11.347  16.577   1.036
54087W        W19072  39.285  24.935  12.415
54088W        W19073  29.821  31.663   2.206
54089W        W19074  32.166  42.575  14.786
54090W        W19075   1.998  34.551  12.394
54091W        W19076  41.568  12.384  13.986
54092W        W19077  41.879   2.728   4.275
54093W        W19078   2.775  25.094  12.477
54094W        W19079   4.960   3.980  11.083
54095W        W19080  35.793  37.094   1.931
54096W        W19081  19.788  42.812   3.101
54097W        W19082  29.177  35.085  13.677
54098W        W19083  25.356  14.322  13.235
54099W        W19084  43.298  35.201   1.201
54100W        W19085  17.555  28.516  12.550
54101W        W19086  28.205  35.520  14.540
54102W        W19087   7.334  21.532  14.915
54103W        W19088   3.083  14.810   1.615
54104W        W19089  35.144  28.981   1.792
54105W        W19090  36.070  36.615  12.823
54106W        W19091   2.743   0.386   3.102
54107W        W19092  16.818  35.937  14.345
54108W        W19093   8.924  29.706   3.143
54109W        W19094  24.404   0.372  12.644
54110W        W19095  15.822   4.227   5.044
54111W        W19096  22.096  23.729  14.081
54112W        W19097  32.535  11.752  11.098
54113W        W19098  36.515  19.070  10.697
54114W        W19099  10.256  13.774   4.425
54115W        W19100  41.862  28.212  12.606
54116W        W19101  38.841  22.560   0.754
54117W        W19102  24.067  41.671  11.660
54118W        W19103  44.940  44.907  11.997
54119W        W19104   5.350  30.415   4.222
54120W        W19105  40.589  32.310  12.462
54121W        W19106  42.052  21.794   2.354
54122W        W19107  40.140   7.784   4.701
54123W        W19108  39.288  20.062   1.711
54124W        W19109   8.739  17.535  13.058
54125W        W19110  20.896  20.505  12.232
54126W        W19111  22.499  18.081  10.664
54127W        W19112  23.630  36.837   1.152
54128W        W19113  30.369   3.495   5.029
54129W        W19114  41.289  27.274   1.849
54130W        W19115  21.161  24.633   3.076
54131W        W19116  36.495  42.843  14.478
54132W        W19117  34.511  20.638   1.278
54133W        W19118  22.302  15.756  13.079
54134W        W19119  37.456  25.075   0.363
54135W        W19120   6.970  19.514   0.585
54136W        W19121  31.452  19.655   3.546
54137W        W19122  36.318  27.154   3.110
54138W        W19123   8.976  11.395  11.111
54139W        W19124   5.676  28.508  12.458
54140W        W19125  18.673  11.337   0.832
54141W        W19126  42.971   3.286  14.898
54142W        W19127   3.520  37.073   4.806
54143W        W19128  32.346  37.939   3.551
54144W        W19129   8.691  31.360   4.420
54145W        W19130  43.179  20.701   5.157
54146W        W19131  39.339   5.932   0.818
54147W        W19132  18.139   4.152   3.508
54148W        W19133  35.544  43.483  12.653
54149W        W19134  35.400  18.068   0.072
54150W        W19135  15.021   9.894  11.768
54151W        W19136  15.221  26.585   3.775
54152W        W19137  43.085  19.651   1.913
54153W        W19138  20.824  37.623   0.352
54154W        W19139   5.545  35.151  14.457
54155W        W19140  19.926  20.207  10.178
54156W        W19141  27.211  35.374   3.470
54157W        W19142   6.324  30.472   0.793
54158W        W19143  24.793  30.248   1.304
54159W        W19144  13.843  23.793   0.894
54160W        W19145  36.824  26.394   3.553
54161W        W19146  11.232  31.946  13.915
54162W        W19147  33.450  17.802   3.294
54163W        W19148  13.647  41.231   3.661
54164W        W19149   6.258  19.025   1.263
54165W        W19150  40.319   4.257  14.395
54166W        W19151   0.878  11.323  12.629
54167W        W19152  44.226  22.547   0.915
54168W        W19153   4.913   0.191   4.112
54169W        W19154  19.762   4.267   0.848
54170W        W19155  24.608  43.386   3.802
54171W        W19156  22.224  12.169   1.206
54172W        W19157  31.529  39.447  12.873
54173W        W19158  42.436  20.864   2.615
54174W        W19159  25.643   8.878  14.251
54175W        W19160  17.306  13.262   2.632
54176W        W19161  20.569  36.596  13.999
54177W        W19162   8.883  10.787  14.857
54178W        W19163  39.087  36.112   2.233
54179W        W19164  21.678  42.965  12.994
54180W        W19165  43.396   8.485   4.167
54181W        W19166  28.220  25.993   1.748
54182W        W19167  28.618  37.423   0.489
54183W        W19168  39.429  17.835   3.684
54184W        W19169   4.887  23.163   2.760
54185W        W19170  12.202  10.334   1.171
54186W        W19171  10.291   3.245   1.683
54187W        W19172   5.858  43.510  12.956
54188W        W19173  16.060   4.626  13.051
54189W        W19174  28.450  24.490  10.659
54190W        W19175  39.096  18.617   5.417
54191W        W19176   1.577  38.568  12.012
54192W        W19177  14.427   0.398   1.836
54193W        W19178  34.814   3.362   5.138
54194W        W19179   6.219  44.186  10.655
54195W        W19180  14.264   3.676   3.065
54196W        W19181  17.253  39.152   1.262
54197W        W19182  35.472  24.414  14.346
54198W        W19183  37.928   7.227   2.958
54199W        W19184   0.955   0.697   3.633
54200W        W19185  21.143   0.511   3.332
54201W        W19186  33.019  29.671  10.715
54202W        W19187  17.070  43.378  14.692
54203W        W19188  14.904  16.809  11.089
54204W        W19189   0.947  25.988   1.887
54205W        W19190   3.518  17.354   0.802
54206W        W19191  14.698   1.708  13.508
54207W        W19192  31.383   8.298  14.909
54208W        W19193  28.019  20.038   4.106
54209W        W19194   8.068   9.920  11.767
54210W        W19195  18.976   2.397  12.577
54211W        W19196   1.203  39.647  13.427
54212W        W19197  22.077  14.551   4.155
54213W        W19198  16.908   8.974   1.354
54214W        W19199   4.541  20.736  14.309
54215W        W19200  20.705  10.632   2.475
54216W        W19201   1.515  10.892  13.044
54217W        W19202   1.792  21.182  10.997
54218W        W19203  12.710  28.672   4.902
54219W        W19204  44.844   5.445   3.644
54220W        W19205  17.340  37.906  13.771
54221W        W19206  16.516   0.536  12.054
54222W        W19207  41.979   3.218  10.296
54223W        W19208   3.794  42.579  14.831
54224W        W19209  21.695  23.000  11.425
54225W        W19210  44.819  26.380   3.204
54226W        W19211  35.803  39.412  12.444
54227W        W19212   0.830  32.848   2.268
54228W        W19213  40.156  44.584   1.214
54229W        W19214  20.370  10.770   1.505
54230W        W19215  10.692  44.665   0.462
54231W        W19216  40.510  27.353  14.020
54232W        W19217   4.083  23.297  11.214
54233W        W19218  34.456   8.559   1.293
54234W        W19219  42.439  27.195   0.465
54235W        W19220  33.110  13.640  14.749
54236W        W19221  18.448  36.178  10.011
54237W        W19222  22.730  23.450  12.935
54238W        W19223  16.844  26.635  13.009
54239W        W19224  16.010  32.660   0.802
54240W        W19225  41.787  28.967  13.199
54241W        W19226  36.040  16.441   2.953
54242W        W19227  35.659   2.235   3.654
54243W        W19228  27.543  25.454  11.927
54244W        W19229  11.194  10.277   1.434
54245W        W19230  23.939  32.501  12.048
54246W        W19231  37.390  36.843  12.018
54247W        W19232  10.153  34.322  10.791
54248W        W19233  34.600  31.397  14.970
54249W        W19234  24.128  15.076  11.172
54250W        W19235  16.288  33.539   2.356
54251W        W19236  10.402  11.963  12.043
54252W        W19237  16.190  10.876  11.443
54253W        W19238  32.527  19.299   0.136
54254W        W19239  38.990   4.840   3.873
54255W        W19240  34.755  10.340   0.701
54256W        W19241  29.919  28.848   1.393
54257W        W19242  19.876  28.206  10.449
54258W        W19243  33.086  22.711  11.076
54259W        W19244  29.677   6.808  12.578
54260W        W19245  14.167  23.609   0.031
54261W        W19246  12.052   9.742  13.447
54262W        W19247  28.046  38.369  10.306
54263W        W19248  35.541  43.453   4.580
54264W        W19249  43.324   7.690   4.749
54265W        W19250   0.584   9.222  12.863
54266W        W19251  26.646  19.675  12.209
54267W        W19252  12.546  24.563  12.213
54268W        W19253  35.055   2.726   1.711
54269W        W19254  41.401  43.839  12.472
54270W        W19255  30.169   1.952  12.106
54271W        W19256   7.774  17.156   1.984
54272W        W19257  13.759   5.744   2.355
54273W        W19258  23.206   2.679   4.902
54274W        W19259   1.034   4.657   2.841
54275W        W19260  15.167  23.587  12.451
54276W        W19261  37.801  44.321   3.452
54277W        W19262  10.311  27.169  13.865
54278W        W19263  13.367   4.195   2.381
54279W        W19264  27.276   9.703  14.338
54280W        W19265  41.026  39.974  10.294
54281W        W19266  36.949  29.112   1.927
54282W        W19267  35.197  15.349  13.899
54283W        W19268   0.393   8.900   1.903
54284W        W19269  34.114  37.878  11.117
54285W        W19270  24.788  21.204   4.143
54286W        W19271   9.496  15.834   0.331
54287W        W19272  18.166  18.829  14.312
54288W        W19273  21.133  36.439  10.954
54289W        W19274  36.395  27.953   0.461
54290W        W19275  26.248   7.701   4.109
54291W        W19276  39.936   5.697  10.655
54292W        W19277   6.465  38.819  10.550
54293W        W19278  10.086  27.168  12.540
54294W        W19279  36.168  17.711   0.650
54295W        W19280  35.605  36.040  10.782
54296W        W19281  16.543  42.921   4.984
54297W        W19282  32.061  34.166   2.421
54298W        W19283  14.923  18.973  13.528
54299W        W19284  38.179  37.674   3.087
54300W        W19285  15.761   6.993  10.637
54301W        W19286   0.594  29.056  12.691
54302W        W19287  30.542   7.113   4.201
54303W        W19288  14.727   2.159  11.546
54304W        W19289  24.450   2.968  14.165
54305W        W19290  18.926  25.041   3.528
54306W        W19291   8.327  25.973   2.769
54307W        W19292   9.884  22.490  11.070
54308W        W19293  26.716  43.588  12.034
54309W        W19294   7.536  44.881   2.300
54310W        W19295   3.186  12.072   0.743
54311W        W19296  41.609  33.103  12.405
54312W        W19297  38.779  36.811  12.010
54313W        W19298   5.879  35.353   0.930
54314W        W19299   6.376  24.553   0.800
54315W        W19300   9.718   4.540   1.741
54316W        W19301   7.402  13.879  12.606
54317W        W19302  35.087  23.599   0.900
54318W        W19303   9.296   0.017   0.426
54319W        W19304  44.974   3.266   3.574
54320W        W19305  39.812  34.896  12.023
54321W        W19306  40.997  12.865   0.030
54322W        W19307  41.539  44.267   1.385
54323W        W19308   2.211  28.696   0.951
54324W        W19309  16.680  12.587  12.793
54325W        W19310  33.261  11.315  11.147
54326W        W19311  33.604  13.143   0.237
54327W        W19312  34.378  32.917  11.498
54328W        W19313  14.755  37.878  13.948
54329W        W19314  25.103  20.793  13.099
54330W        W19315   2.784  17.482   3.542
54331W        W19316  37.883  16.360  11.351
54332W        W19317  10.111  29.941  11.555
54333W        W19318  17.559  21.079  12.442
54334W        W19319   1.264  19.324  11.189
54335W        W19320  15.598  37.674   0.491
54336W        W19321  24.068  21.531   3.674
54337W        W19322   5.116   7.383  13.278
54338W        W19323  20.935  36.637  14.389
54339W        W19324  35.169  34.021  10.532
54340W        W19325   5.391  30.666  12.480
54341W        W19326  25.960  13.209  12.062
54342W        W19327  35.395   2.706  12.309
54343W        W19328  33.622   2.026   2.730
54344W        W19329  33.898  20.585   1.525
54345W        W19330  43.947   0.644  12.991
54346W        W19331   9.828  38.503  14.309
54347W        W19332  41.359  33.817  10.962
54348W        W19333  14.704   1.740  12.112
54349W        W19334  32.487  23.204   3.295
54350W        W19335  35.366  34.759   0.944
54351W        W19336  44.779   9.707   3.246
54352W        W19337  30.133  41.368  11.444
54353W        W19338  30.232  14.804  10.787
54354W        W19339  23.012  29.882  12.789
54355W        W19340  33.356  21.924  13.242
54356W        W19341  40.979  41.044  11.260
54357W        W19342  21.453  20.944  12.359
54358W        W19343  21.336  15.152   1.779
54359W        W19344  17.188  14.102   0.453
54360W        W19345   7.524   1.136  14.080
54361W        W19346  29.958  10.872   2.577
54362W        W19347  38.364  10.567  14.528
54363W        W19348  24.381  24.519   4.572
54364W        W19349  30.549  12.345  14.038
54365W        W19350  19.102  18.537  14.338
54366W        W19351  16.568  41.596  11.095
54367W        W19352  33.563  23.267  10.295
54368W        W19353   9.858   0.911  12.799
54369W        W19354  44.328  20.410  14.076
54370W        W19355  35.330  11.716  13.957
54371W        W19356   9.951   1.711   4.606
54372W        W19357  13.844  39.506   1.360
54373W        W19358  25.762   9.438   2.285
54374W        W19359  40.508  15.116  14.486
54375W        W19360  32.565  40.457   0.501
54376W        W19361  23.630  18.798   0.205
54377W        W19362  36.789  15.994   2.734
54378W        W19363  29.968  25.466   2.201
54379W        W19364  23.820   1.901   3.183
54380W        W19365  25.976  43.498   0.726
54381W        W19366   6.131   6.848  12.059
54382W        W19367  39.314  24.039  13.318
54383W        W19368  40.581  21.890  13.031
54384W        W19369  20.724  21.253   2.304
54385W        W19370  22.731  37.100  13.396
54386W        W19371  30.887  34.393  11.528
54387W        W19372  41.979   3.618  11.036
54388W        W19373  24.450  32.316  12.565
54389W        W19374  16.625  31.562  12.433
54390W        W19375  16.295  29.021  13.494
54391W        W19376  32.949  31.943   0.326
54392W        W19377  43.627   9.902   2.748
54393W        W19378  35.133  16.227  14.693
54394W        W19379  12.275  15.731  10.496
54395W        W19380  39.964  40.226  11.672
54396W        W19381   8.647   2.651   5.037
54397W        W19382  18.650  23.157   2.277
54398W        W19383  20.043  43.907   1.000
54399W        W19384   4.647  12.297   0.668
54400W        W19385  29.438  20.578  12.057
54401W        W19386  32.003  41.962   3.574
54402W        W19387  18.443  28.631  13.830
54403W        W19388   6.419   3.035   4.535
54404W        W19389  40.312  13.118   2.193
54405W        W19390   2.758   0.180   1.250
54406W        W19391  40.448  43.542  14.529
54407W        W19392  21.803  26.585  11.750
54408W        W19393  20.057  11.782  10.292
54409W        W19394  11.282  23.045  12.543
54410W        W19395  21.486  10.886  14.021
54411W        W19396  28.617  30.946   0.140
54412W        W19397   0.265   5.635   2.731
54413W        W19398  43.814  23.214   1.402
54414W        W19399  26.523  36.842  13.390
54415W        W19400  12.177   6.262   3.665
54416W        W19401  33.671  13.604  11.441
54417W        W19402  38.521  18.635   3.228
54418W        W19403  10.514   6.793   9.584
54419W        W19404  34.529   9.374  13.729
54420W        W19405  43.456  11.217   4.287
54421W        W19406  28.006  25.902  12.848
54422W        W19407  29.899  40.458   5.092
54423W        W19408  37.395   0.163   1.255
54424W        W19409  32.601   2.463   4.018
54425W        W19410  15.008  38.438  11.873
54426W        W19411  16.736  13.804  11.972
54427W        W19412   3.792   7.843   2.743
54428W        W19413  44.883  29.073  12.897
54429W        W19414   3.708  17.321  12.656
54430W        W19415  30.028  38.348  13.845
54431W        W19416   0.636  20.604   3.411
54432W        W19417  33.778   9.388  12.637
54433W        W19418   6.326   8.683   4.053
54434W        W19419  12.683  42.001  14.980
54435W        W19420  38.820  33.816   4.124
54436W        W19421  27.532   2.375  11.210
54437W        W19422  16.024  40.584   0.290
54438W        W19423   9.881  21.009  11.052
54439W        W19424   6.890  39.531  13.791
54440W        W19425   4.583  33.674  10.296
54441W        W19426  15.529   5.721   2.402
54442W        W19427  24.212  14.427  10.279
54443W        W19428  14.412   0.271   1.239
54444W        W19429  34.112  41.401   1.878
54445W        W19430  44.012  13.083  13.395
54446W        W19431  34.717  44.293   3.775
54447W        W19432  14.740  18.710   1.199
54448W        W19433   7.178  10.186  10.628
54449W        W19434  21.436  12.785  10.583
54450W        W19435  35.803   2.473   4.144
54451W        W19436   2.047  13.888   4.144
54452W        W19437  23.537   9.822  11.130
54453W        W19438  42.652  41.419  14.925
54454W        W19439  19.134  18.025  14.275
54455W        W19440  18.679  29.179   1.147
54456W        W19441  22.699  25.720   2.142
54457W        W19442  30.925  27.673   2.162
54458W        W19443   2.544  22.438   1.610
54459W        W19444   1.321  35.413  14.404
54460W        W19445  13.273   3.951  12.691
54461W        W19446  13.256  12.742   0.656
54462W        W19447  41.280   1.001   4.552
54463W        W19448  44.208   3.892  13.249
54464W        W19449  28.842  41.388  12.813
54465W        W19450   4.745  35.486  13.817
54466W        W19451   9.269   3.912   2.892
54467W        W19452  19.414  36.686  11.259
54468W        W19453  38.349  41.064  13.408
54469W        W19454  40.460  41.563  13.038
54470W        W19455  40.353  33.013  13.059
54471W        W19456  39.517   6.658  10.632
54472W        W19457  28.227  15.593  10.493
54473W        W19458  44.475   8.895  13.976
54474W        W19459  42.426  11.886  14.361
54475W        W19460   6.904  42.515   4.158
54476W        W19461  24.930  32.455   3.209
54477W        W19462  41.140  24.160  10.384
54478W        W19463  34.464  43.915   2.681
54479W        W19464   2.279  25.498   3.868
54480W        W19465  13.318  10.591  14.902
54481W        W19466  37.008  19.246  12.135
54482W        W19467  39.037  42.743  13.799
54483W        W19468  23.950   8.933   2.859
54484W        W19469   4.151  43.304   2.894
54485W        W19470  26.607  10.775  12.037
54486W        W19471  36.872  37.749  13.410
54487W        W19472  12.020  43.136   0.980
54488W        W19473  16.319  15.747   3.666
54489W        W19474  10.393  39.959   0.705
54490W        W19475  14.308   0.819  12.022
54491W        W19476  18.048   0.368  10.950
54492W        W19477  39.828  43.429   3.552
54493W        W19478   1.269  30.471   0.895
54494W        W19479  17.405  35.455   3.267
54495W        W19480  32.148  24.037   3.345
54496W        W19481  36.834  12.105  14.384
54497W        W19482  14.703  24.021  13.404
54498W        W19483  39.337  20.191  14.003
54499W        W19484  25.471  27.664   2.203
54500W        W19485   7.398  32.139  11.807
54501W        W19486  12.633  20.684  14.519
54502W        W19487  29.501   8.475   3.136
54503W        W19488  28.346  17.949   1.243
54504W        W19489   9.713  34.590  10.871
54505W        W19490  21.748  39.122   0.429
54506W        W19491  31.578  32.987  13.554
54507W        W19492  32.350  30.922  13.485
54508W        W19493  30.428  40.588  11.506
54509W        W19494  32.243  41.389   0.881
54510W        W19495  32.667   9.465  11.535
54511W        W19496  21.642  27.077  11.027
54512W        W19497  31.735  38.044  14.062
54513W        W19498  23.938  34.603   3.161
54514W        W19499  30.946  13.349   0.689
54515W        W19500  22.346  36.002  11.465
54516W        W19501  21.480  15.698   0.373
54517W        W19502   5.708  17.227   4.315
54518W        W19503   9.877  35.520   2.833
54519W        W19504  41.405   5.125   0.936
54520W        W19505  15.740  43.646   2.803
54521W        W19506   9.664  38.694  12.031
54522W        W19507  12.309  41.782   2.216
54523W        W19508  28.087  43.829   4.068
54524W        W19509  40.253  13.668   3.978
54525W        W19510  43.351  18.609  14.750
54526W        W19511  22.621  11.402  11.386
54527W        W19512  33.823  10.648  10.599
54528W        W19513   8.079   8.749   2.742
54529W        W19514  38.332  16.044   2.414
54530W        W19515  14.292   6.308  13.783
54531W        W19516  38.613   5.332   1.035
54532W        W19517  26.480  31.170  13.360
54533W        W19518  38.505  24.073   1.375
54534W        W19519  38.225  41.299   3.388
54535W        W19520  30.496   3.033   1.224
54536W        W19521  10.856  17.251   1.808
54537W        W19522  27.146  13.780   1.977
54538W        W19523  24.550  30.443  15.000
54539W        W19524  38.078  34.964  10.504
54540W        W19525  32.729   3.775  14.980
54541W        W19526   9.236   1.222  14.956
54542W        W19527  31.701   9.411   1.671
54543W        W19528  20.528   8.335   3.314
54544W        W19529   8.487  36.245  14.353
54545W        W19530  40.623  28.991  12.595
54546W        W19531  35.077  35.144  12.934
54547W        W19532   1.976  26.500  14.328
54548W        W19533  16.865  24.566  10.450
54549W        W19534  11.801  32.557  11.912
54550W        W19535   5.671  39.019  11.870
54551W        W19536  32.069  42.379  10.446
54552W        W19537  23.103   3.338  11.830
54553W        W19538  21.467  28.094   1.692
54554W        W19539  20.831  38.726  10.837
54555W        W19540  30.994  16.132  11.658
54556W        W19541   3.121  14.644  13.332
54557W        W19542  20.896  27.433   1.846
54558W        W19543   9.293  22.717   4.555
54559W        W19544  44.764   7.463   3.751
54560W        W19545  31.530  31.161  13.846
54561W        W19546   3.739  27.255   2.195
54562W        W19547  31.469  16.848  12.345
54563W        W19548  26.428   3.903  11.987
54564W        W19549  10.194  42.338   4.352
54565W        W19550  19.297  41.422   2.347
54566W        W19551  39.269  13.612   0.274
54567W        W19552   4.718  17.133   1.906
54568W        W19553  30.125  16.077   1.406
54569W        W19554  28.566   2.483  10.429
54570W        W19555  41.147  42.551   1.922
54571W        W19556  16.618  39.018   2.026
54572W        W19557  42.895  41.317   0.376
54573W        W19558  31.242  38.683  11.094
54574W        W19559  38.961  21.198   0.372
54575W        W19560   7.496   6.631  14.350
54576W        W19561   2.853  38.903   3.820
54577W        W19562  30.777  16.481  12.881
54578W        W19563  13.337   8.924   5.197
54579W        W19564  39.432  32.560  12.948
54580W        W19565  11.875  40.516  11.243
54581W        W19566  35.093   0.219  14.031
54582W        W19567  32.516   1.998  10.827
54583W        W19568  37.021  11.305   0.454
54584W        W19569  26.154  35.321  12.277
54585W        W19570   5.451  27.179   3.706
54586W        W19571   9.272  21.090  13.841
54587W        W19572  42.742  33.640  13.750
54588W        W19573  42.339  41.405   0.336
54589W        W19574  12.494  31.990  11.396
54590W        W19575  29.164  16.148   4.390
54591W        W19576  13.994   7.850   4.548
54592W        W19577  12.663  36.869   3.892
54593W        W19578   0.681   8.888  14.165
54594W        W19579  10.918  19.512  13.001
54595W        W19580   6.809  35.117  10.571
54596W        W19581  21.390  20.730   4.592
54597W        W19582  23.293  41.461  10.720
54598W        W19583  10.742  37.868   3.226
54599W        W19584  38.590  32.515  13.488
54600W        W19585  31.203   8.092   3.636
54601W        W19586  43.276  20.197   1.907
54602W        W19587  42.786  44.555   5.075
54603W        W19588  32.503   9.718   4.540
54604W        W19589  30.436  18.186  12.492
54605W        W19590  17.665  41.040  12.127
54606W        W19591  18.723  40.735   4.584
54607W        W19592  39.504  42.848  11.698
54608W        W19593  31.174  14.022   3.710
54609W        W19594  27.116  10.401   2.736
54610W        W19595   3.912   4.457   0.957
54611W        W19596  20.957  44.773   4.615
54612W        W19597  27.138  31.025  13.445
54613W        W19598   3.330  16.052  11.131
54614W        W19599  43.844  24.427  14.002
54615W        W19600  26.142  11.705  11.422
54616W        W19601   6.701  28.537   1.474
54617W        W19602  18.764  24.348  12.020
54618W        W19603  40.847  12.148  12.333
54619W        W19604  22.303  25.615  13.476
54620W        W19605   2.785  15.018  13.243
54621W        W19606  32.818  15.939   2.621
54622W        W19607  37.995  39.383   2.823
54623W        W19608  41.812  35.993  12.185
54624W        W19609   1.983  34.741  13.947
54625W        W19610  31.466  28.731  10.651
54626W        W19611  44.782  39.650  12.460
54627W        W19612  34.829   4.349  11.072
54628W        W19613   7.302  31.927  13.218
54629W        W19614  12.315  36.300  11.994
54630W        W19615   0.796  10.461   3.723
54631W        W19616   5.143  20.718  13.421
54632W        W19617  10.822  22.628   0.536
54633W        W19618  44.994   7.221  13.868
54634W        W19619   1.897   8.083   5.006
54635W        W19620  27.651  30.960   1.313
54636W        W19621  16.100  38.576   4.700
54637W        W19622   7.813  27.669   1.815
54638W        W19623  14.644  11.449  14.759
54639W        W19624  29.514  22.044   4.613
54640W        W19625  25.258  39.589   4.141
54641W        W19626  25.123  19.128  11.640
54642W        W19627  28.791  17.177   3.313
54643W        W19628  37.620  23.075  10.829
54644W        W19629  12.606  41.511  14.762
54645W        W19630  18.962   5.943   3.663
54646W        W19631  17.648  13.492  11.110
54647W        W19632   0.760   1.654   3.925
54648W        W19633   3.243   2.294   0.807
54649W        W19634  41.851  40.406  11.004
54650W        W19635  25.297   1.439  14.743
54651W        W19636  16.430   3.007  11.743
54652W        W19637  40.574   6.736   3.352
54653W        W19638   2.486   9.683   1.618
54654W        W19639   9.831  22.748  14.448
54655W        W19640  37.911   1.984  12.643
54656W        W19641  22.073  22.600   0.153
54657W        W19642   8.273   1.255   3.813
54658W        W19643  17.974  29.868   0.847
54659W        W19644  16.995  30.896   0.947
54660W        W19645  25.148  22.278  14.967
54661W        W19646  15.086  38.002   3.146
54662W        W19647   5.638  21.439   1.959
54663W        W19648   2.881  13.642   2.833
54664W        W19649  24.032  11.783   0.462
54665W        W19650  26.244   4.755   3.612
54666W        W19651  35.922  34.477  10.568
54667W        W19652  24.056  29.661  12.024
54668W        W19653  33.184  31.546   1.341
54669W        W19654  30.491  27.124   0.943
54670W        W19655  12.383  12.686  13.784
54671W        W19656   4.288  21.231   0.251
54672W        W19657  29.672   4.845   1.343
54673W        W19658  32.629  13.307  11.442
54674W        W19659   1.031  32.380   0.810
54675W        W19660  10.893  23.909   2.474
54676W        W19661   1.270   6.271   1.446
54677W        W19662  40.739  44.927  13.030
54678W        W19663  12.893   1.997  14.521
54679W        W19664  16.179  44.386  14.797
54680W        W19665  15.303   9.124   3.134
54681W        W19666   5.425  16.175   3.099
54682W        W19667   4.709  40.290  12.631
54683W        W19668  29.160   9.709  10.695
54684W        W19669  10.689  31.906   4.135
54685W        W19670  34.160  23.524   0.457
54686W        W19671  14.563  41.113   2.666
54687W        W19672  36.074  44.025   1.936
54688W        W19673  38.648  10.793  14.916
54689W        W19674   6.822  24.953   4.871
54690W        W19675  15.570  26.165  14.528
54691W        W19676   0.412  39.177   0.170
54692W        W19677  26.239  20.375  13.109
54693W        W19678  19.442  38.484  12.870
54694W        W19679  24.629  38.085   4.669
54695W        W19680  17.463  41.408   4.187
54696W        W19681   1.453  13.265  13.837
54697W        W19682   2.018  16.352  13.778
54698W        W19683   6.295  10.802   0.369
54699W        W19684   9.630  34.805   1.672
54700W        W19685   2.524  40.979   2.826
54701W        W19686  38.312  36.290  14.068
54702W        W19687  41.506   6.375  14.558
54703W        W19688   3.023  11.878  14.837
54704W        W19689  16.301  27.708   0.993
54705W        W19690   6.194  13.513   0.174
54706W        W19691  30.675  42.049   3.254
54707W        W19692   0.636  18.694  13.734
54708W        W19693  10.756  41.798  10.920
54709W        W19694  10.791   9.372   0.330
54710W        W19695   8.687  18.832  14.360
54711W        W19696  22.677  35.428  13.967
54712W        W19697  30.303  29.338  13.107
54713W        W19698   6.219  40.141   0.969
54714W        W19699  28.874  36.967   3.701
54715W        W19700   4.846  13.381   5.112
54716W        W19701   0.418  15.147   4.607
54717W        W19702  12.836   6.401   0.301
54718W        W19703  18.657   2.869  14.695
54719W        W19704  21.519  10.180  12.489
54720W        W19705  15.075  15.759   2.340
54721W        W19706   3.278  27.605   3.731
54722W        W19707   4.347  18.811  13.937
54723W        W19708   8.255  25.690   3.726
54724W        W19709  18.290  34.871   2.173
54725W        W19710  26.624  38.814  13.540
54726W        W19711  16.942   9.429  14.721
54727W        W19712   8.375  16.060  12.733
54728W        W19713  11.650  34.603   1.165
54729W        W19714  14.969   2.274  11.069
54730W        W19715  18.996  10.627   2.128
54731W        W19716  42.577  11.589   1.864
54732W        W19717  39.885  23.607   3.517
54733W        W19718   8.122  21.188   1.019
54734W        W19719  10.887  43.840  12.903
54735W        W19720  41.261  10.395  11.146
54736W        W19721  39.833  32.622   4.158
54737W        W19722  21.907  32.379   2.123
54738W        W19723  27.700  34.900  12.685
54739W        W19724  21.103  40.385   2.363
54740W        W19725   4.378  12.405   3.581
54741W        W19726  19.833  14.853  13.162
54742W        W19727  17.515  23.126  14.875
54743W        W19728  26.500  12.518   0.326
54744W        W19729  25.644  40.924   4.001
54745W        W19730  12.299  27.089  13.837
54746W        W19731  41.825  41.609  10.624
54747W        W19732   4.220  32.166  14.814
54748W        W19733  26.647   0.190   5.158
54749W        W19734  30.903  43.293   3.137
54750W        W19735  17.051   2.737  13.405
54751W        W19736   7.317  33.481   1.752
54752W        W19737   0.415  18.988  14.076
54753W        W19738   1.323  31.647   1.241
54754W        W19739   3.443  28.890   2.684
54755W        W19740  24.718  38.157  12.083
54756W        W19741  41.705   9.266   4.705
54757W        W19742  38.133   9.347  14.402
54758W        W19743  14.731  33.420   4.658
54759W        W19744  37.523  40.465   2.261
54760W        W19745   9.447  27.047   1.029
54761W        W19746  14.634  11.199  11.027
54762W        W19747   2.835  20.086   0.352
54763W        W19748  33.140  18.666   0.533
54764W        W19749   0.249  36.777  14.879
54765W        W19750   0.313  35.575  11.395
54766W        W19751  36.120  34.909   2.583
54767W        W19752   5.183   5.294  12.014
54768W        W19753  18.571   0.678   2.720
54769W        W19754   4.202  41.998   1.469
54770W        W19755  16.398   5.386   3.999
54771W        W19756  10.688  33.518   1.742
54772W        W19757  34.973  25.226  13.476
54773W        W19758  12.122  36.452   2.757
54774W        W19759  15.615   7.719   3.914
54775W        W19760   3.825  43.760   0.922
54776W        W19761  10.572  35.656  12.424
54777W        W19762   4.164  11.949   3.430
54778W        W19763  14.057   1.777   3.966
54779W        W19764  39.270   6.604   2.711
54780W        W19765   2.307  30.521  10.459
54781W        W19766  41.052  13.445  11.708
54782W        W19767  11.811  35.070  14.685
54783W        W19768  24.118  41.064   1.941
54784W        W19769  27.910  13.198   0.369
54785W        W19770  41.407  24.664  11.946
54786W        W19771  35.042  33.784   4.740
54787W        W19772   0.820  32.785  10.889
54788W        W19773  36.016  18.037  10.545
54789W        W19774   9.415  38.963  14.192
54790W        W19775  12.363   3.920   1.324
54791W        W19776  10.070  14.712   1.861
54792W        W19777  13.613  14.817   4.647
54793W        W19778   6.669  42.720   3.717
54794W        W19779   9.997   9.700   4.273
54795W        W19780  26.064  44.857   4.587
54796W        W19781  22.905  31.491   0.432
54797W        W19782   0.184   9.396   1.913
54798W        W19783  27.613  23.622   4.955
54799W        W19784   8.674  20.687  10.186
54800W        W19785   1.723  27.490  14.730
54801W        W19786   5.309   2.369   1.267
54802W        W19787   2.014  12.388   0.765
54803W        W19788   9.116  16.091  11.984
54804W        W19789  21.701  16.711  12.001
54805W        W19790  34.612   6.754  14.114
54806W        W19791  29.472  41.330  14.792
54807W        W19792   4.057   6.991  11.409
54808W        W19793  28.647  10.167   1.238
54809W        W19794  38.919   5.631  10.548
54810W        W19795  12.554   6.136   1.642
54811W        W19796  30.574  12.636   4.693
54812W        W19797  31.432  24.467   1.286
54813W        W19798   0.780   5.201   4.592
54814W        W19799  26.963   1.902  13.477
54815W        W19800  43.048  39.068  13.952
54816W        W19801  17.933   8.599   5.510
54817W        W19802  35.024  20.102   4.762
54818W        W19803  34.508  16.841   4.174
54819W        W19804  43.780  37.636  14.267
54820W        W19805  36.030  12.284   3.863
54821W        W19806  12.312  24.952  11.515
54822W        W19807  40.333  12.692  13.622
54823W        W19808  19.228   7.851   3.195
54824W        W19809  10.654  41.792   3.598
54825W        W19810  13.122  35.544  11.724
54826W        W19811   2.905  12.230  10.476
54827W        W19812  38.620  16.733   1.304
54828W        W19813  34.320  38.485  10.665
54829W        W19814  43.968  38.358  13.492
54830W        W19815  41.392  44.764  13.834
54831W        W19816  14.826  31.745   0.952
54832W        W19817  43.355  22.068  14.622
54833W        W19818  37.835  41.832   4.197
54834W        W19819  38.087  26.539   2.308
54835W        W19820  22.632   7.689   0.846
54836W        W19821  24.515  31.431  12.338
54837W        W19822   6.169  19.975   2.696
54838W        W19823  16.043  20.096   2.848
54839W        W19824  32.628   6.198  13.968
54840W        W19825   4.707   1.476  12.125
54841W        W19826  44.194  24.403  11.149
54842W        W19827   0.375  39.519   2.326
54843W        W19828   6.704  37.992  12.442
54844W        W19829  37.314  21.061   0.670
54845W        W19830  30.919  25.074   4.684
54846W        W19831  21.292  14.439  12.880
54847W        W19832  22.523   3.245   2.655
54848W        W19833  25.844  31.983  11.597
54849W        W19834  21.259  44.095  14.591
54850W        W19835  25.570  19.344  14.904
54851W        W19836  43.734  39.516   4.111
54852W        W19837  38.291  19.151   2.009
54853W        W19838  13.503  31.722  12.050
54854W        W19839   0.161  36.263   0.946
54855W        W19840   8.222  36.670   2.739
54856W        W19841  30.836  41.242  13.068
54857W        W19842  37.726  37.594   4.256
54858W        W19843  25.854  24.339   4.964
54859W        W19844  43.352   1.323   4.145
54860W        W19845   0.811   7.202  11.745
54861W        W19846  34.990  34.748   3.277
54862W        W19847   6.777   4.275   9.930
54863W        W19848   5.009  37.288   0.205
54864W        W19849  26.752  37.623   2.659
54865W        W19850  38.803   9.670   1.867
54866W        W19851  44.727  31.838   0.898
54867W        W19852  27.195   3.764  11.538
54868W        W19853  19.607  43.213   3.367
54869W        W19854   3.953  26.454   4.578
54870W        W19855  17.185  35.081  13.997
54871W        W19856  28.951  31.292   1.721
54872W        W19857  24.174  11.344  12.394
54873W        W19858  19.732  31.007   4.057
54874W        W19859  23.359  21.659   0.587
54875W        W19860   8.382  42.553  14.228
54876W        W19861   2.199   3.077  12.706
54877W        W19862  17.877   2.240  14.762
54878W        W19863  33.662   8.248  13.449
54879W        W19864   8.973  24.868   1.349
54880W        W19865   7.128  25.259  10.797
54881W        W19866  22.745  19.342  13.465
54882W        W19867  25.843  27.964  13.446
54883W        W19868   1.889  19.926  14.047
54884W        W19869  23.902  17.469   0.249
54885W        W19870  19.754  33.661   2.840
54886W        W19871  35.578  32.437   2.943
54887W        W19872  30.087  12.781   0.302
54888W        W19873  37.558  14.405   4.174
54889W        W19874  21.178   7.872  13.553
54890W        W19875  23.954   1.778  12.517
54891W        W19876   8.725   0.757   3.775
54892W        W19877   3.010  34.003  14.158
54893W        W19878   9.217   3.332  11.450
54894W        W19879  14.769  39.981  14.393
54895W        W19880  19.312  14.181   0.956
54896W        W19881  40.995   7.704   4.165
54897W        W19882  44.952  44.809  10.887
54898W        W19883  31.412  12.890   3.121
54899W        W19884  44.527  28.455  13.540
54900W        W19885  33.777  17.066   4.696
54901W        W19886  20.102  25.987   4.555
54902W        W19887  18.543   5.401   1.165
54903W        W19888  25.951   2.339  12.896
54904W        W19889  13.737   5.153  13.999
54905W        W19890  35.026  29.938  12.393
54906W        W19891  33.148  34.660  13.482
54907W        W19892   7.800  40.185   0.412
54908W        W19893  41.331  30.693   0.041
54909W        W19894   4.852  25.229  14.564
54910W        W19895  25.728  12.381   3.814
54911W        W19896  17.400  18.651   5.503
54912W        W19897   5.800  15.637  14.160
54913W        W19898  29.371  34.512   1.461
54914W        W19899   4.427  42.327  13.623
54915W        W19900  29.877  35.615   2.805
54916W        W19901  26.965  21.471   1.669
54917W        W19902  14.642  33.539  14.445
54918W        W19903  17.813  30.723   0.894
54919W        W19904  42.882  21.479   3.699
54920W        W19905  35.458   6.397   1.995
54921W        W19906  12.630   8.864  13.343
54922W        W19907   4.301  16.914   2.139
54923W        W19908   8.638  26.774   2.096
54924W        W19909  31.653  39.784  12.460
54925W        W19910   7.855  28.526  13.358
54926W        W19911  29.769  40.451   3.902
54927W        W19912  13.087  23.210   0.291
54928W        W19913  36.061  44.881  11.779
54929W        W19914   3.417   8.700   4.573
54930W        W19915  11.260  42.958  10.553
54931W        W19916  10.794  17.610  11.550
54932W        W19917  37.840  20.726   3.913
54933W        W19918  24.612   6.984   0.956
54934W        W19919  31.708  17.813  10.748
54935W        W19920   1.713  18.661   0.052
54936W        W19921   6.477  34.378  10.666
54937W        W19922  24.187   4.529  11.810
54938W        W19923  33.389  35.991  11.770
54939W        W19924  41.529  24.031   0.230
54940W        W19925  30.469  10.033  10.285
54941W        W19926  30.111  24.695  12.177
54942W        W19927  41.647   6.891   3.481
54943W        W19928   7.182   2.307   2.693
54944W        W19929  28.164   7.571   1.171
54945W        W19930  22.085  17.263   2.921
54946W        W19931  13.127  12.863  13.410
54947W        W19932  29.909  43.529  11.661
54948W        W19933  17.138  16.363  11.872
54949W        W19934   1.633   6.425  13.953
54950W        W19935  16.928  19.868  12.721
54951W        W19936  36.517  41.092   2.907
54952W        W19937  31.640  10.415   1.289
54953W        W19938   3.173  10.669   3.617
54954W        W19939  18.318  34.523  10.335
54955W        W19940   5.308   7.819   1.744
54956W        W19941   5.065   8.659  13.771
54957W        W19942  35.942  44.917  14.336
54958W        W19943   7.797  25.507   3.128
54959W        W19944   7.702  40.691   0.438
54960W        W19945  30.998  12.071  14.067
54961W        W19946  13.593   2.387   2.198
54962W        W19947  23.335   9.681  12.514
54963W        W19948  41.985  14.700  11.570
54964W        W19949   0.505   3.851   3.153
54965W        W19950   1.393   9.246  10.913
54966W        W19951  31.496  33.042  14.491
54967W        W19952  30.643  34.680   3.715
54968W        W19953  21.667   2.197  13.036
54969W        W19954  38.981  17.520  13.011
54970W        W19955  14.542  19.795   2.248
54971W        W19956   3.006  12.721   3.590
54972W        W19957   4.274  25.730   3.596
54973W        W19958   4.440  30.400   4.143
54974W        W19959  10.262  22.561   4.515
54975W        W19960  32.050  37.077  13.177
54976W        W19961  40.049  23.903  10.233
54977W        W19962  37.413  21.990   2.698
54978W        W19963  28.957  10.718   2.850
54979W        W19964  15.804  17.768  10.515
54980W        W19965  40.701  32.645  14.927
54981W        W19966  39.849  42.420  11.023
54982W        W19967  26.219  34.567  11.334
54983W        W19968  32.589  13.300   2.322
54984W        W19969  40.549  43.437   0.408
54985W        W19970  24.658  25.958   3.274
54986W        W19971  34.091  15.614  14.479
54987W        W19972   5.008  43.273  11.654
54988W        W19973   8.468  24.706  10.759
54989W        W19974   2.715  43.353  10.833
54990W        W19975  16.875  13.009  13.000
54991W        W19976  18.410   9.273   0.039
54992W        W19977   7.330  43.409  12.112
54993W        W19978   2.426  14.757   2.363
54994W        W19979  27.172  13.929   1.496
54995W        W19980  43.367  28.971  12.398
54996W        W19981  26.015  31.137   2.673
54997W        W19982  23.877   6.452   3.170
54998W        W19983  43.380   6.562   4.551
54999W        W19984  29.606  18.162   4.985
55000W        W19985  40.037  10.182  12.933
55001W        W19986  28.944  33.358  12.164
55002W        W19987  21.196  13.702   3.644
55003W        W19988   8.946  36.373   3.344
55004W        W19989  41.332  33.002  10.228
55005W        W19990  40.780  43.026   1.910
55006W        W19991  41.577  28.878  13.906
55007W        W19992  26.214  14.633  13.528
55008W        W19993  17.077  35.519  12.053
55009W        W19994   8.209  35.588   3.288
55010W        W19995  33.806  29.222  14.480
55011W        W19996  36.528  19.529   3.907
55012W        W19997  42.918   3.239  11.661
55013W        W19998  17.699  19.365   1.434
55014W        W19999   9.812  25.062   3.314
55015W        W20000  20.064   2.334  14.407
55016W        W20001  14.115   7.071  13.552
55017W        W20002  43.429   6.025   0.902
55018W        W20003   2.526  12.409   0.823
55019W        W20004  32.222  31.281   4.095
55020W        W20005  28.073  35.067   0.445
55021W        W20006  19.781   3.747   0.107
55022W        W20007  31.947  14.707  14.706
55023W        W20008  34.087   5.795  12.394
55024W        W20009  25.761  42.724  11.571
55025W        W20010  40.958   9.189   4.004
55026W        W20011  17.267  10.564  13.944
55027W        W20012  27.472  18.488  12.414
55028W        W20013  16.242  11.437  12.571
55029W        W20014  36.562   2.010   3.872
55030W        W20015  14.171  18.256   5.125
55031W        W20016  28.151  10.288   0.237
55032W        W20017   7.153  31.564   3.857
55033W        W20018  22.089   4.899   0.304
55034W        W20019  21.558  14.407   1.129
55035W        W20020  18.305  20.332   0.146
55036W        W20021  40.564   6.518  14.100
55037W        W20022  21.999  22.316   1.489
55038W        W20023  34.910   8.750  10.415
55039W        W20024  35.994   3.809   4.664
55040W        W20025  40.120  14.821  11.122
55041W        W20026   5.761  38.922  12.799
55042W        W20027  26.407  16.611   1.811
55043W        W20028  33.919  12.086  14.817
55044W        W20029  24.925  40.876   4.378
55045W        W20030  10.304  13.843  10.908
55046W        W20031  27.121  23.769   3.268
55047W        W20032  21.550   8.532  14.017
55048W        W20033  36.369  28.611  11.134
55049W        W20034  20.547  38.928  11.745
55050W        W20035  16.138  18.950   4.293
55051W        W20036  44.307  28.072   4.128
55052W        W20037  19.451   4.230   3.663
55053W        W20038  30.199  26.798  10.963
55054W        W20039  31.379  30.050  13.011
55055W        W20040  42.088  30.425   2.807
55056W        W20041  19.692  18.935  12.214
55057W        W20042  10.070  37.468  13.347
55058W        W20043  16.767  14.866   2.313
55059W        W20044   3.371  26.466  10.679
55060W        W20045  31.073   2.900  10.697
55061W        W20046   9.189  17.739   3.950
55062W        W20047  27.738  19.665   0.489
55063W        W20048  21.465   0.322  13.109
55064W        W20049  38.595  36.044   3.473
55065W        W20050  19.583   2.960  12.988
55066W        W20051  26.646  37.532  14.328
55067W        W20052  10.610   7.229  13.843
55068W        W20053  25.266  17.571  11.537
55069W        W20054  21.001  20.068  12.568
55070W        W20055   9.277  26.958   4.621
55071W        W20056  16.848  30.523  14.400
55072W        W20057  27.768  37.247  12.388
55073W        W20058  16.494  33.721   0.289
55074W        W20059  19.574   2.510  14.415
55075W        W20060  32.079  44.281  13.751
55076W        W20061  24.522  10.851  14.401
55077W        W20062   8.903  19.581  12.088
55078W        W20063  17.334  26.417   1.957
55079W        W20064   9.600  17.361  14.797
55080W        W20065   9.898   2.414   1.774
55081W        W20066  44.941  27.451   3.167
55082W        W20067  40.893  14.250  14.765
55083W        W20068   2.929  28.372   3.808
55084W        W20069  18.058  40.021   2.740
55085W        W20070  24.710  33.640   3.187
55086W        W20071  32.822  23.917   2.336
55087W        W20072   8.082  33.616   2.803
55088W        W20073  41.292   6.828  14.391
55089W        W20074  38.017  33.108  10.545
55090W        W20075  34.887  41.337   2.329
55091W        W20076  10.110  18.891  13.452
55092W        W20077   8.079  25.221   3.866
55093W        W20078  39.102  25.403  13.685
55094W        W20079   8.416  13.615   0.261
55095W        W20080  21.953  17.086   1.487
55096W        W20081   4.675   6.964   3.454
55097W        W20082   0.248   9.768   3.466
55098W        W20083  14.164  40.794  13.083
55099W        W20084  10.849   5.849   3.220
55100W        W20085  23.035   7.886   4.443
55101W        W20086  39.427  27.662  11.662
55102W        W20087  25.006   6.642   0.255
55103W        W20088  36.906  34.265   4.046
55104W        W20089  43.057  24.090   0.298
55105W        W20090  43.741  37.735  13.770
55106W        W20091   1.237  22.527  11.405
55107W        W20092  41.497  11.110   4.517
55108W        W20093   6.430  10.607   1.812
55109W        W20094  26.373  18.367  13.422
55110W        W20095  29.942  39.084   2.647
55111W        W20096  27.452   4.185  12.439
55112W        W20097  42.479  42.498   1.641
55113W        W20098  12.897  26.909   9.791
55114W        W20099  22.185  15.641   1.693
55115W        W20100  36.717   4.893   2.236
55116W        W20101  28.221  26.505   4.108
55117W        W20102   5.728   2.746   2.828
55118W        W20103  44.796  36.557   3.178
55119W        W20104  28.876  18.088  12.431
55120W        W20105  30.564   0.893   3.787
55121W        W20106  34.933  29.449   2.426
55122W        W20107  43.442  34.525  14.250
55123W        W20108   3.294   2.518   3.117
55124W        W20109   2.292  43.435   0.732
55125W        W20110  36.044  11.272   3.811
55126W        W20111   0.712  30.327  10.083
55127W        W20112  26.630  18.318   0.357
55128W        W20113   6.684  13.606  11.540
55129W        W20114  12.138  14.317  13.816
55130W        W20115  35.575  26.164  12.903
55131W        W20116  21.831   6.832  13.061
55132W        W20117  22.685  18.971  13.804
55133W        W20118  13.671   3.039  11.210
55134W        W20119  16.733  16.388   2.373
55135W        W20120  16.119  40.867   2.828
55136W        W20121  11.666  29.686   3.520
55137W        W20122  41.532  11.436  12.036
55138W        W20123  35.590  17.941  13.674
55139W        W20124  17.698  15.243  12.462
55140W        W20125  12.091  24.272  14.850
55141W        W20126  27.023   1.693  11.658
55142W        W20127   5.603  40.251  14.045
55143W        W20128  19.581  42.184   2.361
55144W        W20129  12.474  11.528   1.854
55145W        W20130   4.378  16.522  14.391
55146W        W20131  15.737  27.289   0.547
55147W        W20132  43.082  22.925   5.024
55148W        W20133  29.524   8.938   4.545
55149W        W20134  10.198   1.274  11.143
55150W        W20135  19.718  41.015   3.173
55151W        W20136  20.632  21.689  14.952
55152W        W20137   4.830   9.159  13.811
55153W        W20138  38.443  13.624  13.993
55154W        W20139  21.963  13.135   3.740
55155W        W20140  29.404   7.734   0.938
55156W        W20141  22.591  10.826   2.890
55157W        W20142  29.113  43.506   3.630
55158W        W20143  30.067  28.214  12.448
55159W        W20144  25.602  17.816  13.476
55160W        W20145  11.954   4.558  11.591
55161W        W20146   1.235  13.765  14.919
55162W        W20147  12.159  21.882  10.872
55163W        W20148  37.297  26.223   3.307
55164W        W20149  13.659  23.227   4.179
55165W        W20150  21.764   4.472   0.476
55166W        W20151  24.154   6.160  14.185
55167W        W20152  28.325  40.948   1.658
55168W        W20153  22.656   6.805  11.444
55169W        W20154  17.638  25.317  13.050
55170W        W20155   9.292  39.841  14.298
55171W        W20156  30.252  12.160   2.218
55172W        W20157   4.359  43.640  14.404
55173W        W20158  33.555   1.687  11.098
55174W        W20159  15.173   7.167  13.978
55175W        W20160  36.844  44.450   0.271
55176W        W20161  31.829   4.869   2.783
55177W        W20162  25.094  29.626  14.046
55178W        W20163   1.496  26.389  14.506
55179W        W20164  28.408  17.705  13.299
55180W        W20165  24.509  17.715   1.613
55181W        W20166  30.978   9.736  11.488
55182W        W20167  21.150  42.850  11.338
55183W        W20168  28.590  22.089  10.977
55184W        W20169  30.531  42.509  14.189
55185W        W20170  31.394  35.389  12.522
55186W        W20171  33.102   4.225   0.726
55187W        W20172  19.797  24.622   3.403
55188W        W20173   3.415   7.433   4.730
55189W        W20174  41.352  20.665  12.880
55190W        W20175  27.952  14.863   2.466
55191W        W20176  34.727  20.640  12.279
55192W        W20177  12.138  14.185   0.172
55193W        W20178   2.300  27.725   1.717
55194W        W20179  33.681  10.733  14.494
55195W        W20180  14.522  20.914  11.096
55196W        W20181  15.041  38.662   3.925
55197W        W20182  30.022  30.497   1.485
55198W        W20183  40.867  23.439  12.367
55199W        W20184  31.220  42.342  11.507
55200W        W20185  41.557  24.803  14.931
55201W        W20186  19.726  43.206   1.251
55202W        W20187  10.876  15.494   2.805
55203W        W20188  33.492  19.814  13.314
55204W        W20189  38.891   6.209  12.823
55205W        W20190   6.355  28.547  10.662
55206W        W20191   1.451   5.519   4.046
55207W        W20192  38.545  35.909   4.372
55208W        W20193  27.102  12.973  14.472
55209W        W20194  31.139  21.067  11.650
55210W        W20195  31.591  16.249   4.402
55211W        W20196  29.532  12.817   0.936
55212W        W20197  39.881  39.884   0.224
55213W        W20198  41.815   9.335  14.852
55214W        W20199   9.945  15.885   3.842
55215W        W20200  13.262  38.454   4.505
55216W        W20201   5.389  22.980   3.145
55217W        W20202  20.254   0.706  12.046
55218W        W20203   5.072  43.374  10.826
55219W        W20204   8.951  30.794   0.634
55220W        W20205   5.692  14.575   4.810
55221W        W20206   9.162  35.815   1.847
55222W        W20207  32.712  23.480  12.418
55223W        W20208  21.105  29.160   0.488
55224W        W20209   7.429   4.573  11.457
55225W        W20210   4.276   1.289  13.964
55226W        W20211   7.223  31.012   2.846
55227W        W20212  43.192  31.109   4.107
55228W        W20213  28.445  26.928  11.063
55229W        W20214  19.392  24.044  14.066
55230W        W20215   0.297  30.492  12.378
55231W        W20216   0.067  39.100   4.049
55232W        W20217  37.027  23.664   4.830
55233W        W20218  44.902   3.175   1.374
55234W        W20219   4.702  38.441  10.725
55235W        W20220  33.249   8.244  14.259
55236W        W20221  31.364   0.020   2.687
55237W        W20222  30.470   0.983   0.409
55238W        W20223  23.503   3.876   3.636
55239W        W20224  11.808  26.465   0.327
55240W        W20225  30.078   7.423   2.411
55241W        W20226   7.155   6.339   3.632
55242W        W20227  11.714  41.954   0.002
55243W        W20228  29.227  25.460  11.162
55244W        W20229  27.743  17.533  14.016
55245W        W20230  41.769  13.828   3.734
55246W        W20231  44.520   7.701   3.373
55247W        W20232  17.453  13.217   0.910
55248W        W20233  13.396  38.389  13.946
55249W        W20234  32.153  42.868  11.143
55250W        W20235  43.846  13.312   4.689
55251W        W20236  31.557  13.013  13.397
55252W        W20237   9.581  40.375  11.162
55253W        W20238  31.247  38.368   0.365
55254W        W20239  42.208   0.948   3.359
55255W        W20240  23.773  11.340   3.548
55256W        W20241  30.335  23.118   1.176
55257W        W20242   6.543  13.126   4.846
55258W        W20243  29.385  31.630  10.704
55259W        W20244   4.576  32.231  14.035
55260W        W20245  43.242  38.403   0.369
55261W        W20246  19.540  11.811  13.607
55262W        W20247  30.890  18.029   1.363
55263W        W20248   5.326  14.003   0.256
55264W        W20249  15.318  12.338   3.354
55265W        W20250  40.497  15.203  11.139
55266W        W20251  11.679  31.286  12.720
55267W        W20252  35.999  41.912   2.586
55268W        W20253  20.034  27.326  13.926
55269W        W20254  20.785   0.720  12.627
55270W        W20255  44.527  34.506   0.679
55271W        W20256  32.168  22.787  10.745
55272W        W20257  28.665  14.451   0.791
55273W        W20258  21.818  25.700  13.763
55274W        W20259   9.503   5.987   3.511
55275W        W20260   2.431  10.957  14.340
55276W        W20261   6.811   8.209   2.833
55277W        W20262  32.082  32.483   3.428
55278W        W20263  42.314  17.286  13.658
55279W        W20264  36.393  34.094   4.187
55280W        W20265  13.216  10.457  14.393
55281W        W20266  32.549  39.348   0.313
55282W        W20267   8.657  31.888  11.225
55283W        W20268   2.823  22.246  13.898
55284W        W20269  44.545   2.506   4.161
55285W        W20270  15.803   4.160   9.808
55286W        W20271  29.336  40.057   1.895
55287W        W20272  24.774   4.980  12.928
55288W        W20273  37.953  30.643  11.743
55289W        W20274  29.107  10.394   2.355
55290W        W20275  22.686  28.089   4.572
55291W        W20276   6.229   4.593  10.044
55292W        W20277  36.258  15.184   0.188
55293W        W20278  27.775   6.058  10.172
55294W        W20279  14.479  14.554  10.246
55295W        W20280  17.361  17.640   0.599
55296W        W20281  28.241  19.004   3.551
55297W        W20282  41.079  26.142   3.105
55298W        W20283  32.579  28.970   0.870
55299W        W20284   9.274  40.945  11.449
55300W        W20285  28.733   2.172  12.443
55301W        W20286  44.018  27.112  11.122
55302W        W20287  32.899   3.997   3.306
55303W        W20288  41.474  27.496  13.619
55304W        W20289  24.536  24.771   0.946
55305W        W20290  27.435  35.849   4.102
55306W        W20291  24.749  22.579  13.062
55307W        W20292  30.992   2.539  12.142
55308W        W20293  27.099  13.174  10.428
55309W        W20294  39.612   8.353  12.938
55310W        W20295   4.306  15.693  12.513
55311W        W20296  13.066   8.060   5.006
55312W        W20297  38.350  38.674  14.265
55313W        W20298  14.178  43.005   4.184
55314W        W20299  20.134   6.427   2.787
55315W        W20300  16.435  28.543  10.290
55316W        W20301  15.201  16.654  10.711
55317W        W20302  26.626   0.197   4.187
55318W        W20303  29.694  19.366  14.033
55319W        W20304  37.162  24.234  11.460
55320W        W20305  30.907  42.833  10.237
55321W        W20306  10.622  25.620   0.345
55322W        W20307  43.815   6.907   1.866
55323W        W20308   1.791   1.801   3.165
55324W        W20309   7.371  15.901   2.228
55325W        W20310  21.009  23.119  13.627
55326W        W20311  30.996  34.196   1.453
55327W        W20312  19.251  37.046  14.848
55328W        W20313  35.064  14.070   0.649
55329W        W20314   9.445  28.822  14.374
55330W        W20315   1.661  11.670   2.382
55331W        W20316   7.863  37.543   5.003
55332W        W20317   1.257  11.930  14.554
55333W        W20318   6.744  33.666   4.537
55334W        W20319   4.247  42.353  12.125
55335W        W20320   2.243  36.769  14.423
55336W        W20321  22.557  15.570   2.932
55337W        W20322  44.171   6.711   2.735
55338W        W20323  39.189   5.784  13.457
55339W        W20324  43.479  20.498   3.229
55340W        W20325  25.871   6.740   3.564
55341W        W20326  44.470  44.853  11.146
55342W        W20327  13.890  28.223   0.891
55343W        W20328   2.728  24.783  13.788
55344W        W20329  15.479   9.891  11.053
55345W        W20330  31.483   6.405  11.501
55346W        W20331   0.926  38.563  14.449
55347W        W20332  41.317   9.050   0.002
55348W        W20333   5.911   0.328  11.168
55349W        W20334  14.347  19.323  11.142
55350W        W20335  12.788   3.793   2.660
55351W        W20336  23.933   5.195   3.728
55352W        W20337  43.288   0.489  12.913
55353W        W20338  34.254  31.124  13.929
55354W        W20339  23.766  34.894   0.358
55355W        W20340  38.034   7.204   4.232
55356W        W20341  35.600  29.009  11.173
55357W        W20342  25.203  42.476  12.008
55358W        W20343  34.403  10.858   2.357
55359W        W20344  37.435  13.179  10.624
55360W        W20345  28.692  20.896   0.551
55361W        W20346  16.234  34.799  13.917
55362W        W20347  11.565  22.916  11.533
55363W        W20348  19.717  28.727  13.446
55364W        W20349  33.448  12.256   0.728
55365W        W20350   4.110  38.373   1.379
55366W        W20351  44.484  27.752   3.204
55367W        W20352   5.827  30.627  13.000
55368W        W20353  23.750  26.115  11.528
55369W        W20354  16.787  27.143   2.092
55370W        W20355   9.250  22.789   1.434
55371W        W20356   2.137  40.373  11.188
55372W        W20357  37.122  38.083  11.175
55373W        W20358  23.543   1.664  13.821
55374W        W20359   1.897  33.168  12.088
55375W        W20360   8.343   7.968   2.237
55376W        W20361  43.484  11.400  13.980
55377W        W20362   1.061   8.613   2.477
55378W        W20363  37.115  25.531  14.062
55379W        W20364  23.620  29.072  14.987
55380W        W20365  16.883  25.084   4.923
55381W        W20366  37.432  44.372   0.364
55382W        W20367  31.154  28.593  13.915
55383W        W20368  13.350   1.177  14.008
55384W        W20369  30.600  37.724   5.118
55385W        W20370  19.209  17.750   1.843
55386W        W20371  31.494  22.151   4.417
55387W        W20372  18.624   6.885  11.627
55388W        W20373  20.120  23.851   0.682
55389W        W20374  32.075  24.584  12.592
55390W        W20375  44.054  14.562   1.851
55391W        W20376  13.017   2.599  12.759
55392W        W20377  41.038  11.228   3.375
55393W        W20378  42.940   1.044   1.566
55394W        W20379  26.563  36.378  13.109
55395W        W20380   2.712   3.737  11.824
55396W        W20381   2.364  26.591   3.127
55397W        W20382  41.866  11.862   4.503
55398W        W20383  36.160  17.703   4.756
55399W        W20384   6.763  19.202   4.163
55400W        W20385  14.840  22.604   2.864
55401W        W20386  25.267  23.161  13.570
55402W        W20387   7.752   3.655   1.443
55403W        W20388  29.930   4.728  12.913
55404W        W20389  14.620   2.790  13.493
55405W        W20390   7.066  17.243   2.482
55406W        W20391  20.130  23.561  10.580
55407W        W20392  21.765   6.599   3.768
55408W        W20393  44.046   1.868   3.939
55409W        W20394  38.900  41.791  14.855
55410W        W20395  42.785  17.214   2.137
55411W        W20396   2.669   8.754   2.864
55412W        W20397   1.837   5.270  14.424
55413W        W20398  16.788   9.422   4.279
55414W        W20399   2.685  32.519  14.981
55415W        W20400  36.349  39.101  11.999
55416W        W20401   0.922   2.562  14.428
55417W        W20402  14.138  23.757   1.893
55418W        W20403  42.269  16.967  11.019
55419W        W20404  20.038   9.392   3.299
55420W        W20405  32.359  43.472   0.357
55421W        W20406  28.407  33.874   0.152
55422W        W20407   5.192   7.376   4.045
55423W        W20408  12.241  25.023  13.349
55424W        W20409  41.279  41.838   4.028
55425W        W20410  18.814  41.879   4.007
55426W        W20411  21.222   5.396   2.892
55427W        W20412  26.947  36.084  12.448
55428W        W20413  17.710  27.342   0.422
55429W        W20414  24.446  29.450   3.551
55430W        W20415  34.052  19.576  10.928
55431W        W20416  29.277   2.040   9.979
55432W        W20417  39.933  18.598   0.401
55433W        W20418  44.016  12.345  10.607
55434W        W20419  38.877  23.680   3.229
55435W        W20420   3.650  22.357  12.890
55436W        W20421  11.825  23.750   4.801
55437W        W20422  39.788  19.861  11.999
55438W        W20423  14.194   9.648  13.473
55439W        W20424  35.532  14.982  12.079
55440W        W20425  15.811  41.848  12.849
55441W        W20426  23.210   6.483   1.493
55442W        W20427  42.428  44.257   4.536
55443W        W20428  18.145   5.094   0.261
55444W        W20429   0.795  34.520   3.367
55445W        W20430   8.771  39.182   2.535
55446W        W20431  32.460   5.405  14.300
55447W        W20432  27.567  27.561   2.939
55448W        W20433   9.231  17.046  11.155
55449W        W20434  10.665   1.152  12.370
55450W        W20435  31.069  15.403  10.869
55451W        W20436  40.953  13.628  13.508
55452W        W20437  25.082  18.213   2.191
55453W        W20438   7.160   2.784  12.902
55454W        W20439  21.997  36.521   2.223
55455W        W20440  17.900  13.052  11.051
55456W        W20441  36.533   4.821  13.363
55457W        W20442  33.988   6.400   2.776
55458W        W20443  20.066  36.463   1.379
55459W        W20444  31.417  31.989   3.537
55460W        W20445  20.606   0.718  13.937
55461W        W20446   0.424  31.349   1.768
55462W        W20447  21.262   7.199   3.258
55463W        W20448  36.492  12.224   4.577
55464W        W20449  32.476  30.395   4.135
55465W        W20450  39.441  40.888   2.926
55466W        W20451  42.824  10.267   2.147
55467W        W20452   2.902  37.393   3.107
55468W        W20453  18.988  19.832   0.439
55469W        W20454  36.040   2.416   5.013
55470W        W20455   6.340  24.979  10.237
55471W        W20456  21.678  41.936   4.208
55472W        W20457  18.939  11.134  12.056
55473W        W20458  12.375  19.674   1.186
55474W        W20459  32.961  16.611   0.375
55475W        W20460  43.300  12.970   0.893
55476W        W20461  20.556  36.866  13.522
55477W        W20462  42.527  22.487   4.918
55478W        W20463  32.933  17.479  11.053
55479W        W20464  31.137   7.908  12.912
55480W        W20465  34.908  20.361  11.100
55481W        W20466  16.644  27.136  12.075
55482W        W20467  38.011  37.792  12.365
55483W        W20468   6.948  28.924  13.434
55484W        W20469  18.874  30.395   4.006
55485W        W20470  18.337  26.911   4.924
55486W        W20471  35.710  26.001   0.394
55487W        W20472  38.861  40.998   0.815
55488W        W20473   8.935  14.311  10.888
55489W        W20474  40.347  17.759   0.934
55490W        W20475  30.761  34.903   4.184
55491W        W20476  42.559  42.386  13.054
55492W        W20477   6.764   4.835  12.097
55493W        W20478  28.036  23.030  13.336
55494W        W20479  43.390   8.724  12.036
55495W        W20480  34.895   3.443  14.472
55496W        W20481  31.919  38.267  12.520
55497W        W20482  15.321  31.295   1.309
55498W        W20483  10.614  14.239   1.422
55499W        W20484   7.168   8.178   1.845
55500W        W20485  38.109  32.133  10.486
55501W        W20486   9.212   1.949   1.181
55502W        W20487  24.916  16.540   3.818
55503W        W20488  13.019  43.086  13.766
55504W        W20489  31.983  40.958   3.360
55505W        W20490  12.495  21.692   3.006
55506W        W20491  21.690  34.882   2.323
55507W        W20492  21.958  31.995  11.289
55508W        W20493   2.668  22.032  14.369
55509W        W20494   6.102   1.315  12.042
55510W        W20495  42.900  24.723  12.981
55511W        W20496  11.825  15.329  14.487
55512W        W20497  32.324  35.754   4.022
55513W        W20498  18.214  24.705   3.172
55514W        W20499   6.146  17.766   4.649
55515W        W20500  28.957  27.361  13.671
55516W        W20501   0.280  34.047   3.630
55517W        W20502  43.823   9.280   4.149
55518W        W20503  30.407  43.989  14.846
55519W        W20504  33.285  10.788  14.152
55520W        W20505  11.447   5.529   3.636
55521W        W20506  24.552   5.425  10.243
55522W        W20507   0.321  27.700   3.461
55523W        W20508   0.867   7.247  10.732
55524W        W20509  16.792  34.594   2.562
55525W        W20510  37.365  32.436  14.834
55526W        W20511  25.324  41.304   4.188
55527W        W20512  35.978  14.552   2.183
55528W        W20513  21.319  40.723   4.814
55529W        W20514  30.357   5.965   2.033
55530W        W20515  31.475  19.690  12.874
55531W        W20516  24.972  30.221  12.914
55532W        W20517  12.210   6.780   3.782
55533W        W20518   2.437  29.897  14.572
55534W        W20519  14.832  15.721  14.411
55535W        W20520  25.133  25.994  13.923
55536W        W20521  33.851  20.802   5.067
55537W        W20522   4.032  32.059   2.324
55538W        W20523  35.044  30.664   0.263
55539W        W20524   0.734  26.837  11.373
55540W        W20525  37.314  26.911  11.226
55541W        W20526   7.492  33.515   0.882
55542W        W20527  29.507   7.058   3.642
55543W        W20528  41.638  22.495   3.053
55544W        W20529  14.571  26.073   0.751
55545W        W20530  41.296  33.427   9.934
55546W        W20531  24.163  25.179  10.775
55547W        W20532  29.789  15.128   2.282
55548W        W20533   0.018  13.132  11.743
55549W        W20534   4.383  29.623   0.382
55550W        W20535  38.886  29.678  10.717
55551W        W20536  29.606   2.336  12.979
55552W        W20537  33.408   6.629   1.454
55553W        W20538  10.622  18.835  13.478
55554W        W20539  34.318  44.378   0.866
55555W        W20540  11.051   0.040  12.911
55556W        W20541  35.480  28.108  12.550
55557W        W20542  30.422  11.630   3.715
55558W        W20543  42.719  24.562  14.049
55559W        W20544  16.655  17.037  11.183
55560W        W20545   2.449   6.352   3.709
55561W        W20546  30.882  43.624   4.187
55562W        W20547  21.248  10.141  12.927
55563W        W20548  12.664  25.075   0.667
55564W        W20549  28.181  25.503   0.750
55565W        W20550   2.934   9.957   1.744
55566W        W20551  11.394  15.044  14.369
55567W        W20552   1.293  19.508   0.249
55568W        W20553  19.537  31.217  11.834
55569W        W20554   4.217  24.582   4.302
55570W        W20555  10.156  17.212   1.307
55571W        W20556   1.433  32.228   5.093
55572W        W20557  30.113  35.695   3.264
55573W        W20558  36.234   1.391  11.630
55574W        W20559  41.931  11.105   2.255
55575W        W20560  23.284  31.561   2.947
55576W        W20561  40.454  14.805  13.503
55577W        W20562  39.275  20.532  11.846
55578W        W20563  42.614  42.933  13.873
55579W        W20564   2.158   6.193   4.109
55580W        W20565   4.981   1.922   4.363
55581W        W20566  33.421  12.959   0.702
55582W        W20567  22.927  42.010  12.020
55583W        W20568  12.280  34.327  12.088
55584W        W20569  43.284  19.332   0.324
55585W        W20570   2.825   8.745   4.402
55586W        W20571  33.380  30.074  13.550
55587W        W20572  27.686  38.778  12.889
55588W        W20573   8.441  19.265  12.131
55589W        W20574  32.403   1.247   0.482
55590W        W20575  31.959  15.916  10.742
55591W        W20576  27.748  21.278  11.656
55592W        W20577  13.555   7.085   2.589
55593W        W20578  35.080   4.366   4.388
55594W        W20579  20.104  11.364  14.285
55595W        W20580   8.837  40.203  11.597
55596W        W20581  37.051   8.329   1.130
55597W        W20582  27.863  35.422  12.988
55598W        W20583  23.199  25.765  11.001
55599W        W20584  34.170  17.652   0.749
55600W        W20585   7.931  41.618  11.148
55601W        W20586   3.266  34.414   0.065
55602W        W20587  40.284  30.925  12.416
55603W        W20588  28.349  36.887   3.813
55604W        W20589   3.920  12.415  14.653
55605W        W20590  35.352   1.292   2.635
55606W        W20591  17.874  10.230   3.699
55607W        W20592  10.420   2.839   2.385
55608W        W20593   8.283  35.874   2.239
55609W        W20594  21.750  21.174  11.232
55610W        W20595  34.973  40.034  11.260
55611W        W20596  29.127  18.734   2.637
55612W        W20597   4.318   4.788   4.439
55613W        W20598   6.730  19.865   0.902
55614W        W20599  44.701  44.411  14.286
55615W        W20600   0.881  24.655  10.751
55616W        W20601   8.137  14.826   0.808
55617W        W20602  33.884  35.991   0.239
55618W        W20603  20.252  28.958   1.559
55619W        W20604  33.086   8.802   0.045
55620W        W20605   7.376  14.072   3.115
55621W        W20606  23.665  38.922  10.956
55622W        W20607  25.429  10.776   2.371
55623W        W20608  33.889  29.515  12.986
55624W        W20609  16.226   6.913   0.674
55625W        W20610  30.341  39.516  12.391
55626W        W20611   6.237  44.988  11.605
55627W        W20612  28.093  20.647  11.920
55628W        W20613  35.556  24.736   2.317
55629W        W20614  36.767   2.296   4.285
55630W        W20615  17.057  44.880  12.025
55631W        W20616  33.553  25.533   2.178
55632W        W20617  28.637  30.344   4.510
55633W        W20618  18.041  22.366   4.210
55634W        W20619  44.472  12.190  10.817
55635W        W20620  39.680  18.211   4.641
55636W        W20621  27.114  20.700   4.057
55637W        W20622   4.487  35.899   0.997
55638W        W20623  22.445  42.455  10.647
55639W        W20624  22.760  32.861  11.207
55640W        W20625  14.111   4.710  10.678
55641W        W20626   8.952  41.970  14.319
55642W        W20627  19.560  32.983   0.778
55643W        W20628  34.122  44.944   3.689
55644W        W20629  25.706  18.188   1.982
55645W        W20630  22.502   6.788  11.938
55646W        W20631   7.651   6.809   4.079
55647W        W20632   5.188  13.123   3.771
55648W        W20633  26.504  28.350  13.818
55649W        W20634  36.796  32.886  10.746
55650W        W20635   8.765   5.718   2.660
55651W        W20636  25.480   9.326   1.858
55652W        W20637   6.422   8.740  14.264
55653W        W20638  26.670   2.090   1.183
55654W        W20639  21.233  31.048  10.719
55655W        W20640  30.936   5.828  11.636
55656W        W20641  40.751  26.159  11.248
55657W        W20642  22.987  14.865   4.404
55658W        W20643  27.063  43.865   0.846
55659W        W20644   4.953   4.859  12.533
55660W        W20645  43.756   1.642  12.958
55661W        W20646  24.920  10.179   1.492
55662W        W20647  34.087   8.467  12.604
55663W        W20648  10.092  44.670   0.848
55664W        W20649  40.049  14.970   1.290
55665W        W20650  35.399   7.675  12.261
55666W        W20651  24.521  28.610   3.325
55667W        W20652   4.979  24.050  12.926
55668W        W20653  11.798   2.560  13.515
55669W        W20654   4.938  38.116   2.885
55670W        W20655   5.353  16.538  13.551
55671W        W20656   4.029  32.007   0.980
55672W        W20657  40.535   6.038  11.237
55673W        W20658  13.017  24.955  11.209
55674W        W20659  16.832   1.063   1.862
55675W        W20660  39.700  25.272   1.904
55676W        W20661   7.401  14.393   2.660
55677W        W20662   5.143  15.246  11.522
55678W        W20663  10.069  24.229  11.583
55679W        W20664  38.205   4.341  12.763
55680W        W20665  23.163  23.116   2.782
55681W        W20666   1.728  41.322  14.080
55682W        W20667  20.980  36.019   5.200
55683W        W20668   4.839  25.022  13.623
55684W        W20669  20.712   3.942  14.031
55685W        W20670  20.172  18.986  12.548
55686W        W20671   0.758  11.440  10.962
55687W        W20672  12.598  30.263  12.425
55688W        W20673   8.216  24.615  12.860
55689W        W20674  12.647  37.791  14.322
55690W        W20675   5.312  39.267  13.246
55691W        W20676  18.191   6.192  14.879
55692W        W20677  41.278   6.458   0.869
55693W        W20678   7.307  25.429   4.891
55694W        W20679  38.035  14.095  11.229
55695W        W20680   5.829  20.973   3.415
55696W        W20681  29.518  17.216  13.531
55697W        W20682  33.049   3.239  13.801
55698W        W20683  36.836  25.074   2.440
55699W        W20684   1.079  43.819  14.725
55700W        W20685   2.106  39.861   2.783
55701W        W20686  36.935  33.500   0.383
55702W        W20687  14.055  25.690  14.011
55703W        W20688   0.853  16.426  14.312
55704W        W20689  38.420   6.369   2.446
55705W        W20690  19.555  33.055  14.806
55706W        W20691  11.645  18.285  10.954
55707W        W20692  34.443  42.548   1.272
55708W        W20693  31.685  29.161   1.812
55709W        W20694   5.442  13.511   0.393
55710W        W20695   6.391  42.463   4.278
55711W        W20696  28.982  33.609   1.644
55712W        W20697  15.135  34.293  12.095
55713W        W20698   5.206  22.233  13.028
55714W        W20699  42.030   7.862   0.788
55715W        W20700  33.378  44.445  12.491
55716W        W20701  19.168   6.940  14.494
55717W        W20702  34.655  31.569   1.280
55718W        W20703  25.018  11.383   0.840
55719W        W20704  30.429   7.954   0.232
55720W        W20705   8.097  18.634   0.965
55721W        W20706  14.346  23.736   1.011
55722W        W20707  12.323  12.953   1.694
55723W        W20708  44.425  35.905   0.030
55724W        W20709  21.177  36.832   0.749
55725W        W20710  17.316   9.102  13.862
55726W        W20711  21.274   2.480  11.090
55727W        W20712  24.510  40.036  12.875
55728W        W20713  16.383  12.861  13.096
55729W        W20714   4.913  37.332   3.165
55730W        W20715  28.564  12.593   0.889
55731W        W20716  36.934  27.583   3.492
55732W        W20717  13.130  23.940   4.236
55733W        W20718  19.311   0.955   4.657
55734W        W20719  39.793  13.069   1.311
55735W        W20720  26.953  44.036  12.062
55736W        W20721  17.304  27.497   0.163
55737W        W20722  39.775  21.088   4.100
55738W        W20723  28.462  36.906  12.034
55739W        W20724  22.732   8.713   3.199
55740W        W20725   3.326  13.384  14.205
55741W        W20726  36.811  15.176  12.466
55742W        W20727   5.480   9.395   2.867
55743W        W20728  19.487  11.585   2.371
55744W        W20729  29.144  34.630   0.834
55745W        W20730  26.731  26.142  12.433
55746W        W20731   3.676   0.280   1.178
55747W        W20732  11.040   4.164  11.900
55748W        W20733  30.007  24.982   4.520
55749W        W20734  40.765  14.748   3.291
55750W        W20735   7.420   7.810  12.154
55751W        W20736  40.663  43.738  14.984
55752W        W20737   7.794   6.336   0.575
55753W        W20738   2.430  30.671  12.388
55754W        W20739   3.017  40.071   3.893
55755W        W20740  31.143  30.767   4.914
55756W        W20741  35.608  35.383  12.829
55757W        W20742   0.196  18.087   2.144
55758W        W20743  25.045  25.641   4.786
55759W        W20744  23.171  10.227   3.732
55760W        W20745  36.086  19.125  14.977
55761W        W20746  17.347  17.152   0.393
55762W        W20747  21.664  36.538  11.715
55763W        W20748   2.427  18.048  13.945
55764W        W20749  39.223  10.643  14.163
55765W        W20750  27.994  12.524  10.585
55766W        W20751  18.562  37.621   1.802
55767W        W20752  19.820   7.374  10.631
55768W        W20753  42.069  32.743  14.842
55769W        W20754   3.213  35.681   4.487
55770W        W20755  12.507   8.429  11.045
55771W        W20756  15.170  34.829   2.298
55772W        W20757  37.101  28.606  12.809
55773W        W20758   1.442   7.276   4.810
55774W        W20759  40.760   9.793  13.847
55775W        W20760  26.693   2.128  11.740
55776W        W20761  44.647  28.623  13.058
55777W        W20762   3.266  23.045  11.605
55778W        W20763  12.853   5.197  10.577
55779W        W20764   9.176   3.808  12.969
55780W        W20765  19.826  34.449  14.546
55781W        W20766  18.979  16.521   3.663
55782W        W20767  31.524  40.247   3.688
55783W        W20768   4.446  28.202  14.869
55784W        W20769  20.536  17.535   1.866
55785W        W20770  17.072   1.541   1.892
55786W        W20771  29.658  40.850  14.838
55787W        W20772  31.635  22.601   3.593
55788W        W20773  17.556  20.559  13.134
55789W        W20774  18.024  17.558   1.564
55790W        W20775  26.666  32.064  12.184
55791W        W20776   6.058  42.457  11.304
55792W        W20777   3.590  15.012   3.579
55793W        W20778  40.461  34.399  14.529
55794W        W20779  13.332  18.758   2.355
55795W        W20780  35.658  40.985  12.187
55796W        W20781  12.718  37.932   0.389
55797W        W20782  35.915   3.636   1.535
55798W        W20783  43.804  42.465   3.553
55799W        W20784  25.300   5.051   1.365
55800W        W20785  13.625   9.729   4.035
55801W        W20786  17.643  24.006  10.710
55802W        W20787   5.999  26.080  13.001
55803W        W20788   7.060  15.286  11.020
55804W        W20789   2.969  28.870   4.696
55805W        W20790  15.132  37.074  12.176
55806W        W20791  44.846  41.800   2.147
55807W        W20792   2.980  28.517  10.883
55808W        W20793   9.439  31.133   2.240
55809W        W20794   9.893  34.576   2.104
55810W        W20795   8.926   5.405  13.120
55811W        W20796  41.748  19.467  10.273
55812W        W20797  23.770  32.995  11.141
55813W        W20798  12.539  18.218   1.296
55814W        W20799  32.150  38.891  10.952
55815W        W20800  40.614  36.548  10.961
55816W        W20801  26.465  33.150  11.243
55817W        W20802   5.791  13.537  11.388
55818W        W20803  11.239  25.278   0.792
55819W        W20804  33.919  33.350  11.715
55820W        W20805  23.822  13.177   3.930
55821W        W20806  11.880  24.539  13.933
55822W        W20807  23.054   6.587  13.374
55823W        W20808  21.188  26.750  12.555
55824W        W20809  42.345  42.344  10.928
55825W        W20810  26.453  16.653   4.507
55826W        W20811   6.489  31.925   4.543
55827W        W20812   9.192   4.357   3.669
55828W        W20813   0.408  27.683  12.118
55829W        W20814  31.028  10.648  11.495
55830W        W20815  24.640  10.700  12.992
55831W        W20816  11.668  27.431   2.288
55832W        W20817  13.865  11.530   3.568
55833W        W20818  17.098  17.885  13.046
55834W        W20819  34.054  21.820   0.500
55835W        W20820  28.352   8.658   3.838
55836W        W20821  31.996  32.228   4.102
55837W        W20822  39.850   8.711  12.637
55838W        W20823   4.435  10.309   4.993
55839W        W20824   7.251  11.368  11.598
55840W        W20825  42.429  22.098  13.033
55841W        W20826   0.461  15.177  12.485
55842W        W20827  18.256   5.976  13.455
55843W        W20828  26.275  25.706  13.422
55844W        W20829   7.332  32.654   0.415
55845W        W20830  35.570   9.697   4.656
55846W        W20831  21.709   0.716  14.453
55847W        W20832   6.256   8.349  12.356
55848W        W20833  23.656   7.780  10.688
55849W        W20834  15.044   6.440   1.515
55850W        W20835   0.859  17.995   2.721
55851W        W20836  20.963  35.127   1.130
55852W        W20837  26.070  35.536   2.165
55853W        W20838  38.560  32.037  10.180
55854W        W20839  27.937   1.611   2.782
55855W        W20840   5.168   8.700   0.607
55856W        W20841   9.387   2.393   4.561
55857W        W20842  11.678  26.580   2.043
55858W        W20843   1.541  15.796  14.803
55859W        W20844  28.198  14.759   3.816
55860W        W20845  26.012  37.336  11.050
55861W        W20846  32.973  43.339  14.187
55862W        W20847  29.167   8.165   2.830
55863W        W20848  20.054   3.470  12.349
55864W        W20849  35.438  26.053   2.415
55865W        W20850  32.322  29.668  12.906
55866W        W20851  14.030  39.537   0.866
55867W        W20852  19.075   6.935   0.478
55868W        W20853   2.115   3.951  11.930
55869W        W20854   8.295  12.432  12.099
55870W        W20855  15.367   7.341   1.384
55871W        W20856  27.451   4.319   1.449
55872W        W20857  11.784  21.751  13.205
55873W        W20858  11.929  14.666   1.393
55874W        W20859   2.856   2.370   4.486
55875W        W20860   9.104   4.289  13.095
55876W        W20861  43.024   9.018  10.756
55877W        W20862  35.666  36.101   1.337
55878W        W20863  31.687  11.051   2.367
55879W        W20864  19.696  26.054   3.139
55880W        W20865  23.317  20.504  11.029
55881W        W20866  25.983  13.681  10.758
55882W        W20867  23.063  43.513  13.777
55883W        W20868  39.840  41.867  14.590
55884W        W20869  16.232  15.786   4.623
55885W        W20870  11.400  32.027  11.240
55886W        W20871  21.728  32.233  10.540
55887W        W20872  14.907  19.507   1.799
55888W        W20873  17.294  28.690  10.821
55889W        W20874   2.112  44.537  13.470
55890W        W20875  15.002  22.697  11.952
55891W        W20876  32.963   3.998  11.140
55892W        W20877  13.192  20.098   3.149
55893W        W20878  13.404  22.843   0.488
55894W        W20879  10.169  10.219  10.666
55895W        W20880  26.777  14.978   2.437
55896W        W20881   0.421   9.130  11.125
55897W        W20882  35.081  40.927   4.631
55898W        W20883  23.090  27.922  13.127
55899W        W20884  39.459  42.892   3.596
55900W        W20885  19.619  20.469  13.828
55901W        W20886   1.930   3.306  14.880
55902W        W20887  12.448  32.017   5.010
55903W        W20888  43.535  12.170  12.039
55904W        W20889   5.787  15.215  12.912
55905W        W20890  38.460   1.203   4.673
55906W        W20891  26.522  33.621   4.121
55907W        W20892  34.918  10.289   5.357
55908W        W20893  16.608   1.399   4.533
55909W        W20894  19.594  36.037   3.061
55910W        W20895  35.625  21.129  14.720
55911W        W20896  31.904  19.717  14.837
55912W        W20897  22.313  13.263   1.489
55913W        W20898   3.464  32.874   1.305
55914W        W20899   9.443  41.839  14.432
55915W        W20900  30.783  30.974   2.800
55916W        W20901  42.915  35.882   2.173
55917W        W20902   3.946   4.457   1.492
55918W        W20903  33.031   6.488   3.743
55919W        W20904  11.132  22.678  13.881
55920W        W20905  41.471   5.976   1.135
55921W        W20906   0.266   9.392  12.466
55922W        W20907  44.726  38.855  12.133
55923W        W20908  40.000  15.844   4.494
55924W        W20909  38.032  14.255   4.038
55925W        W20910  44.910   3.453  11.996
55926W        W20911  27.517  40.037   1.357
55927W        W20912  41.811   1.483   2.218
55928W        W20913  23.927  11.886  12.189
55929W        W20914  25.297  12.670  12.519
55930W        W20915  29.087   5.392  14.907
55931W        W20916  15.823  28.446  12.266
55932W        W20917   4.768   5.171   9.886
55933W        W20918   5.712   7.278   3.168
55934W        W20919   0.569   7.374   1.760
55935W        W20920  21.858  40.008  12.889
55936W        W20921  40.890   6.610   4.183
55937W        W20922  42.649  31.658   2.265
55938W        W20923   5.345  38.286   2.388
55939W        W20924   4.778  21.984   0.048
55940W        W20925  21.313  12.524   2.360
55941W        W20926  26.057  44.848  14.042
55942W        W20927  38.160  37.540  11.928
55943W        W20928  16.538  13.603  14.775
55944W        W20929  26.465   8.446  11.640
55945W        W20930  38.997  12.631  13.301
55946W        W20931  27.641  41.235  11.525
55947W        W20932  27.601  29.567  13.084
55948W        W20933   5.708  10.363   3.213
55949W        W20934  23.914  13.329  10.818
55950W        W20935  38.152  11.704  14.962
55951W        W20936  19.218  34.960  11.674
55952W        W20937  36.355  12.862  13.519
55953W        W20938  26.558  34.460   1.761
55954W        W20939  42.020   5.064  13.416
55955W        W20940   1.997  33.409   2.280
55956W        W20941   2.290  39.495   1.822
55957W        W20942  28.953  25.824  11.398
55958W        W20943  34.229  33.302   2.238
55959W        W20944  23.581   7.720   1.117
55960W        W20945  14.615   0.449  12.853
55961W        W20946   2.028  26.217   2.614
55962W        W20947  27.771  20.800  14.463
55963W        W20948  26.471  35.082   0.320
55964W        W20949  44.783  27.213   1.072
55965W        W20950  13.796  34.594  10.734
55966W        W20951  28.923  13.316  14.094
55967W        W20952  24.205  30.183  12.514
55968W        W20953  13.956  32.091  12.764
55969W        W20954  30.563  33.072   2.745
55970W        W20955  37.937   5.993  13.891
55971W        W20956  26.080   5.420   0.767
55972W        W20957  36.840   3.543  12.457
55973W        W20958  18.574  42.687   4.186
55974W        W20959  43.404  28.886   3.680
55975W        W20960  18.245  13.581  11.732
55976W        W20961   0.980  37.049  14.448
55977W        W20962  42.382  30.169   1.310
55978W        W20963  40.422  32.968  12.024
55979W        W20964   2.500  34.074   0.472
55980W        W20965  37.552  23.445   3.735
55981W        W20966  30.190  35.161  11.132
55982W        W20967  41.283   8.299   0.983
55983W        W20968  25.651  39.527   1.709
55984W        W20969  20.156  31.212   0.463
55985W        W20970  42.459   8.809   3.149
55986W        W20971  11.902  41.081   3.314
55987W        W20972  39.080  28.068  11.635
55988W        W20973  15.854  16.595  14.716
55989W        W20974  36.572  29.552  11.924
55990W        W20975  14.763  22.051   2.125
55991W        W20976  14.795   4.407   2.747
55992W        W20977   8.189  43.458  12.563
55993W        W20978  29.937  28.818  13.837
55994W        W20979   0.384  10.126   2.710
55995W        W20980   6.375  40.515  12.427
55996W        W20981  25.186  21.093  10.652
55997W        W20982  40.604  33.142  14.868
55998W        W20983  31.913  39.289  12.576
55999W        W20984  42.955   4.517   0.534
56000W        W20985  37.916  25.995   0.387
56001W        W20986  31.667  24.587   3.722
56002W        W20987  43.283  20.445   3.719
56003W        W20988  25.897  17.039  12.487
56004W        W20989  38.309  28.979   3.214
56005W        W20990  42.534   4.751  14.749
56006W        W20991  14.692   1.654  11.599
56007W        W20992  44.789   1.745  13.576
56008W        W20993  25.261   6.865  13.355
56009W        W20994  44.198  35.394  10.399
56010W        W20995   9.566  36.124  11.520
56011W        W20996   7.648   0.250  11.212
56012W        W20997   9.768   6.417   2.385
56013W        W20998  19.684   9.863  12.934
56014W        W20999   1.908   2.115   0.519
56015W        W21000  26.485  12.773   1.193
56016W        W21001  35.530  11.428  11.053
56017W        W21002   9.847   4.949  11.138
56018W        W21003  36.706  15.609   0.899
56019W        W21004   5.484  43.900  12.877
56020W        W21005   2.751  26.204   3.163
56021W        W21006   1.307  33.411  13.405
56022W        W21007   8.244  23.067   4.399
56023W        W21008  26.594   4.928  12.908
56024W        W21009  42.848  16.141   2.581
56025W        W21010  27.264  26.460   2.752
56026W        W21011   0.172  29.808  13.014
56027W        W21012  32.826  38.731   1.434
56028W        W21013  16.265  22.921  11.149
56029W        W21014  30.986   5.320  10.855
56030W        W21015   0.418   9.683  13.444
56031W        W21016  12.120  17.110   2.118
56032W        W21017  31.237  21.384   4.628
56033W        W21018   8.647  10.384  11.821
56034W        W21019  22.012  36.524  10.494
56035W        W21020   1.827  36.059  13.439
56036W        W21021  35.406  42.521  10.642
56037W        W21022  29.609  41.450  11.137
56038W        W21023   6.911  26.564   1.637
56039W        W21024  23.751  14.788  11.732
56040W        W21025  40.571  20.058   3.663
56041W        W21026   3.357   9.172  14.945
56042W        W21027  38.018  34.113   9.909
56043W        W21028  17.359   2.965   1.617
56044W        W21029  44.315  30.325   2.024
56045W        W21030  23.468  26.776  10.985
56046W        W21031  28.618   7.044  12.451
56047W        W21032  37.501  40.892   4.399
56048W        W21033  22.741  19.810   3.865
56049W        W21034  11.634  24.679  10.394
56050W        W21035  44.849  11.987   3.337
56051W        W21036  13.923   3.152   3.203
56052W        W21037  44.647  36.020  11.077
56053W        W21038  20.627  27.181  11.083
56054W        W21039  16.635  30.375  14.840
56055W        W21040   1.866  25.189   4.096
56056W        W21041  28.428   0.829   2.146
56057W        W21042  36.312  14.808   1.410
56058W        W21043  13.815   0.086   4.494
56059W        W21044   8.975  20.766   4.535
56060W        W21045   9.226  35.300  10.601
56061W        W21046  35.824   6.813  13.380
56062W        W21047  35.070  41.590  12.010
56063W        W21048   0.690  23.938   5.066
56064W        W21049  37.517   7.278  12.133
56065W        W21050  26.241   6.885  11.491
56066W        W21051  19.131  31.879  11.988
56067W        W21052   5.374   7.845   0.846
56068W        W21053  12.627  23.212   0.581
56069W        W21054   3.385  29.386  12.503
56070W        W21055  17.276  44.521  13.056
56071W        W21056  31.140  23.537   2.913
56072W        W21057  37.287  34.941   3.652
56073W        W21058  19.808  28.782   9.773
56074W        W21059  28.716   1.744   1.749
56075W        W21060  44.900  32.336   4.899
56076W        W21061  31.643  16.554  13.349
56077W        W21062  37.576  32.139   0.554
56078W        W21063  28.158  35.514  12.089
56079W        W21064  25.370  19.576   1.869
56080W        W21065  42.358  21.218   4.515
56081W        W21066  37.839  16.847  14.547
56082W        W21067  31.489  20.482   3.252
56083W        W21068  37.995  13.523   2.347
56084W        W21069   2.806  32.696  11.971
56085W        W21070  17.296   9.647  13.874
56086W        W21071  38.432  18.775   0.311
56087W        W21072  14.575  38.085  14.386
56088W        W21073   5.730   8.269  13.189
56089W        W21074  32.308  23.657   0.911
56090W        W21075   4.792  40.059   2.912
56091W        W21076  36.958  39.138   4.822
56092W        W21077  41.218  38.056  12.939
56093W        W21078  39.072  22.185  11.047
56094W        W21079  37.024  35.885   3.308
56095W        W21080  28.594  18.828  14.383
56096W        W21081   8.491  43.952   3.222
56097W        W21082  34.025  30.555   4.896
56098W        W21083  25.686  35.889   1.396
56099W        W21084  22.311  18.931  11.602
56100W        W21085  31.896   8.343  12.581
56101W        W21086   3.787   7.798   3.589
56102W        W21087  13.947  21.279   0.051
56103W        W21088  25.038  36.749  14.369
56104W        W21089  10.210  37.887  13.021
56105W        W21090   9.187  21.322   0.413
56106W        W21091   7.906  29.019  13.643
56107W        W21092  36.344  38.886  10.738
56108W        W21093  19.984  15.560  13.577
56109W        W21094  10.529  23.962  12.347
56110W        W21095   9.643   8.733   1.174
56111W        W21096  35.623  43.302   3.618
56112W        W21097  42.787   5.371  13.944
56113W        W21098  19.661  36.269  14.435
56114W        W21099  11.695  32.547  12.414
56115W        W21100  30.559   6.547   0.365
56116W        W21101   2.309  10.244   4.529
56117W        W21102   6.810   1.906  11.275
56118W        W21103  44.091  18.099  14.506
56119W        W21104   5.686  13.555   2.264
56120W        W21105  19.106  31.374  12.067
56121W        W21106  40.043  41.370   1.345
56122W        W21107  42.460  29.435   0.336
56123W        W21108  26.460  41.456   0.402
56124W        W21109  32.896  37.056  10.567
56125W        W21110  24.217  20.361   4.105
56126W        W21111   2.792  23.020  14.324
56127W        W21112  29.210   8.351  12.143
56128W        W21113  39.039  29.898   1.762
56129W        W21114  25.555  42.879  11.127
56130W        W21115   4.896   7.449  12.225
56131W        W21116  22.764  28.515   3.293
56132W        W21117  13.895  33.649   3.147
56133W        W21118   1.864  15.022   2.413
56134W        W21119   2.448   8.368   4.516
56135W        W21120  37.647   9.871   3.361
56136W        W21121  23.158  36.487   2.667
56137W        W21122  40.418  38.981  14.241
56138W        W21123  28.321  36.468   1.687
56139W        W21124  33.073   8.916  14.512
56140W        W21125  14.097  29.904   4.590
56141W        W21126  17.376  44.878   0.365
56142W        W21127  11.214  11.276   2.713
56143W        W21128   0.203  27.453  13.121
56144W        W21129  43.952  17.744   0.864
56145W        W21130  23.461  41.821  11.067
56146W        W21131  31.210   4.901  11.015
56147W        W21132   3.928  25.209  13.087
56148W        W21133   8.682  10.710   4.465
56149W        W21134  33.379   3.477   1.776
56150W        W21135  42.269  13.954  10.666
56151W        W21136  30.582  32.215  14.772
56152W        W21137  13.359  21.719  13.426
56153W        W21138  35.825  18.160   4.367
56154W        W21139  39.837   1.135   3.042
56155W        W21140   1.100   3.966  12.055
56156W        W21141   0.892  20.019   2.667
56157W        W21142  10.435   0.044  14.378
56158W        W21143  21.791  40.945  10.814
56159W        W21144   3.145  14.172  12.935
56160W        W21145  10.197  19.593  14.991
56161W        W21146  42.550  21.340   1.007
56162W        W21147  41.036  24.784  13.641
56163W        W21148  33.056   3.831   1.963
56164W        W21149  11.692  25.331  14.327
56165W        W21150   2.991  17.250  13.835
56166W        W21151  18.157   4.782   1.198
56167W        W21152  34.925  30.388   2.792
56168W        W21153  30.139  31.189   2.242
56169W        W21154  14.256   6.726  12.063
56170W        W21155   9.895   9.183   1.268
56171W        W21156  27.015  34.581   1.409
56172W        W21157  20.665  15.074  12.025
56173W        W21158  22.782  35.566   1.716
56174W        W21159  23.618  15.573   4.206
56175W        W21160  29.635  25.692  14.054
56176W        W21161  31.349  16.078   1.725
56177W        W21162  10.324  17.362  13.484
56178W        W21163  15.349  25.234   3.232
56179W        W21164  21.193  31.425   0.765
56180W        W21165  23.632   7.302   0.770
56181W        W21166  11.331  28.808   0.062
56182W        W21167  25.417  23.990   2.802
56183W        W21168  37.523   5.708  10.838
56184W        W21169  21.599   5.351   2.535
56185W        W21170  42.671  29.637  10.303
56186W        W21171  11.582  10.339   4.172
56187W        W21172  43.805  27.898  12.969
56188W        W21173   0.305  19.149   1.676
56189W        W21174  38.896  16.164  14.280
56190W        W21175   7.415   9.800  14.124
56191W        W21176  21.847  25.232  12.800
56192W        W21177  29.297  11.069   1.365
56193W        W21178  15.289   0.178  13.923
56194W        W21179   9.534  44.901   1.928
56195W        W21180  40.233   7.358   0.827
56196W        W21181  36.831  27.133  14.169
56197W        W21182   6.194  42.308  13.572
56198W        W21183  28.931   0.977   3.296
56199W        W21184  31.019  31.167   4.576
56200W        W21185  43.380  39.420   1.109
56201W        W21186  34.489  13.545   4.128
56202W        W21187  16.150  40.843   1.940
56203W        W21188  44.370  43.426  13.913
56204W        W21189  20.797   9.830   0.702
56205W        W21190  29.986  21.512  10.387
56206W        W21191   0.406  21.201  12.822
56207W        W21192  28.500   2.227   0.843
56208W        W21193  39.510  22.983  12.559
56209W        W21194  39.779   5.280  14.868
56210W        W21195  11.169  29.180  13.053
56211W        W21196  13.402  14.522   3.878
56212W        W21197  12.572  33.792   0.375
56213W        W21198  21.901   7.514  11.539
56214W        W21199  11.331  18.218   4.640
56215W        W21200  10.888  22.146  14.566
56216W        W21201  13.769   4.309  12.802
56217W        W21202  43.448  17.760  11.355
56218W        W21203  22.418  19.478  11.316
56219W        W21204  36.426  16.541   0.532
56220W        W21205   7.394  23.728   3.740
56221W        W21206   4.361   9.470  13.590
56222W        W21207  32.899   3.475  11.826
56223W        W21208   5.611  40.997  11.971
56224W        W21209  33.208  43.886   0.314
56225W        W21210  14.351  43.770  12.905
56226W        W21211  23.475  41.458   4.181
56227W        W21212  35.858  31.255  11.481
56228W        W21213  20.120  37.066  11.185
56229W        W21214  41.741   3.698   4.897
56230W        W21215  27.494  36.861   1.339
56231W        W21216   9.235   9.426   0.041
56232W        W21217   5.698  38.400  14.849
56233W        W21218  20.694  17.527   4.031
56234W        W21219  40.557  37.459   4.052
56235W        W21220  42.815  40.508  14.502
56236W        W21221   1.010  42.515  11.195
56237W        W21222   4.049  20.076  12.754
56238W        W21223   5.617  13.165  12.227
56239W        W21224  29.712   7.520   3.723
56240W        W21225  13.213   8.394   2.873
56241W        W21226  12.673  18.685   2.736
56242W        W21227  37.587  10.560  12.412
56243W        W21228  15.875   2.903  10.278
56244W        W21229  10.088   6.927  11.211
56245W        W21230  18.656  44.728   3.126
56246W        W21231  17.343   7.161  14.592
56247W        W21232  12.756  27.242   1.137
56248W        W21233  39.454   5.512  14.394
56249W        W21234   5.292  16.092  10.540
56250W        W21235  25.032  33.672  13.453
56251W        W21236  29.430  23.097   3.290
56252W        W21237  35.624  26.904  14.467
56253W        W21238  10.799  22.696  14.494
56254W        W21239  35.299  24.254   0.809
56255W        W21240  21.179  33.255   0.295
56256W        W21241  28.912  13.071  12.957
56257W        W21242  13.903   7.423   0.124
56258W        W21243  34.504  38.580  13.607
56259W        W21244  43.393  30.191  13.022
56260W        W21245  25.497  16.166   1.394
56261W        W21246   1.300  11.248  14.389
56262W        W21247  24.299  26.102   0.268
56263W        W21248  21.595  39.015   2.342
56264W        W21249  23.550  29.632   0.108
56265W        W21250   5.577  43.357  10.700
56266W        W21251   0.373  16.327  10.648
56267W        W21252   0.788   5.134   2.297
56268W        W21253  33.507   0.253  13.991
56269W        W21254  25.506  40.909   2.566
56270W        W21255  13.865   9.135  14.418
56271W        W21256  29.685   7.427  12.041
56272W        W21257  33.519  41.246  10.744
56273W        W21258  11.231  32.478   2.819
56274W        W21259  16.229   3.692  12.772
56275W        W21260  26.029  27.451  14.821
56276W        W21261  39.001  29.374   2.802
56277W        W21262   2.262  18.920   3.546
56278W        W21263   7.379  43.038   4.762
56279W        W21264  38.466  15.423  13.575
56280W        W21265  24.281  29.904  11.640
56281W        W21266   2.010  30.618  13.951
56282W        W21267  42.349  37.559   4.314
56283W        W21268   8.892  29.201   3.044
56284W        W21269  42.713  38.228   5.397
56285W        W21270  37.601  13.749   3.237
56286W        W21271  36.290  38.325  11.642
56287W        W21272  39.215  25.478   0.517
56288W        W21273   5.442  16.163   3.635
56289W        W21274  18.794  43.445   1.512
56290W        W21275   4.846  43.524   4.170
56291W        W21276  25.166  20.867   4.194
56292W        W21277  23.312  29.832   1.218
56293W        W21278  37.068   1.305   4.106
56294W        W21279   3.308  41.833  13.205
56295W        W21280  36.519  21.946  11.725
56296W        W21281  27.258   6.309  14.460
56297W        W21282  29.274  42.360  13.788
56298W        W21283  20.544  44.336   1.170
56299W        W21284   0.480   9.256   2.853
56300W        W21285  18.121  10.947  13.681
56301W        W21286  24.559   3.556  10.635
56302W        W21287   5.914  28.761   2.877
56303W        W21288   7.848  14.268   3.208
56304W        W21289   4.384  43.188  13.767
56305W        W21290  31.619  11.617  14.445
56306W        W21291  11.561  28.641   1.393
56307W        W21292  10.812  42.371  11.553
56308W        W21293   9.154  34.126   1.205
56309W        W21294  13.579  18.594  12.883
56310W        W21295  34.376  21.723  13.138
56311W        W21296  38.597   6.294   0.047
56312W        W21297  36.924  25.535   4.310
56313W        W21298   8.840   9.877   1.735
56314W        W21299   8.369  16.306   1.890
56315W        W21300  17.319  32.079   3.796
56316W        W21301  17.004  24.010  11.952
56317W        W21302  22.255   3.938   4.159
56318W        W21303  37.609   9.132  12.397
56319W        W21304   5.006   1.624  13.880
56320W        W21305  30.925  11.610  10.554
56321W        W21306  16.447  23.642   1.825
56322W        W21307  44.459  42.809   4.681
56323W        W21308   0.369  43.760   4.888
56324W        W21309  21.226  36.531   4.539
56325W        W21310   8.537  12.652   4.509
56326W        W21311  37.991  33.089  12.895
56327W        W21312  38.110  35.822  10.359
56328W        W21313  42.527   4.022   0.732
56329W        W21314  26.575  27.097   2.805
56330W        W21315  23.944  13.775  14.290
56331W        W21316  37.939  20.712   2.580
56332W        W21317  17.335  36.592   1.426
56333W        W21318  22.536  29.173   2.222
56334W        W21319   8.191  14.568  14.863
56335W        W21320   7.129  39.602  12.945
56336W        W21321  10.498  39.541   3.834
56337W        W21322  40.029  27.103   2.135
56338W        W21323  34.604  42.861  13.586
56339W        W21324   9.998  25.671   1.854
56340W        W21325  17.035  32.931  10.590
56341W        W21326  20.318  28.121  14.987
56342W        W21327  22.516  22.193  11.660
56343W        W21328  42.293  15.447  13.381
56344W        W21329  18.536  24.994  14.778
56345W        W21330  40.875  14.598  11.967
56346W        W21331   2.780  12.299   4.443
56347W        W21332  15.728  22.663  13.056
56348W        W21333   8.424  33.540  13.991
56349W        W21334  14.606  18.016  10.283
56350W        W21335  11.777  38.966  10.888
56351W        W21336   4.907  41.602  10.788
56352W        W21337   5.990   6.900  11.543
56353W        W21338  28.180  31.409  10.269
56354W        W21339  34.607   7.566   3.078
56355W        W21340  10.140  33.158   3.735
56356W        W21341  11.395  28.616   0.537
56357W        W21342  25.764  29.027  10.303
56358W        W21343  12.603  22.591  13.940
56359W        W21344   7.895  24.758  14.747
56360W        W21345  39.888   8.932   1.488
56361W        W21346  24.534  12.315   2.603
56362W        W21347  34.182  39.135   4.968
56363W        W21348  38.695  11.569  14.910
56364W        W21349  27.132   4.525  13.826
56365W        W21350   5.198  22.734   3.615
56366W        W21351  31.986  36.406  12.926
56367W        W21352  26.610  29.353  10.053
56368W        W21353  27.695  39.748  11.418
56369W        W21354  36.002  30.362   3.306
56370W        W21355  36.327   1.894   1.334
56371W        W21356  37.470  25.908  13.233
56372W        W21357  30.558  32.526  12.340
56373W        W21358  14.602  14.614  13.021
56374W        W21359  44.361  44.285   1.298
56375W        W21360   4.982  12.060  11.938
56376W        W21361  16.249  23.639   2.313
56377W        W21362  24.522  15.422   1.862
56378W        W21363  32.078  35.890  12.926
56379W        W21364  17.080  21.182   0.367
56380W        W21365  32.255   1.457  13.001
56381W        W21366  10.900   9.345   4.616
56382W        W21367  24.249   1.224  13.308
56383W        W21368  30.521  35.153   0.300
56384W        W21369  17.204  25.067   2.933
56385W        W21370  15.867  37.802  13.983
56386W        W21371  31.165  29.208   1.860
56387W        W21372  17.075   7.388   2.387
56388W        W21373  18.441  38.044   0.128
56389W        W21374   6.649  42.790  13.106
56390W        W21375  38.026   2.885  13.088
56391W        W21376  25.920  12.426  14.113
56392W        W21377  29.239  29.456   1.442
56393W        W21378   7.944   2.981  11.079
56394W        W21379  32.362  17.125   2.789
56395W        W21380  14.800  26.467  12.637
56396W        W21381   9.180  12.475  10.251
56397W        W21382  42.456  12.867  12.540
56398W        W21383  19.717  43.550  12.407
56399W        W21384  27.506  34.550   3.855
56400W        W21385  31.061  19.977   2.842
56401W        W21386  24.031   3.419   1.428
56402W        W21387   4.176  22.008   4.359
56403W        W21388  28.183  44.422  11.444
56404W        W21389  41.435  25.056   1.291
56405W        W21390  19.638   1.940  14.315
56406W        W21391   9.239  27.503   4.536
56407W        W21392  10.881   5.905  13.888
56408W        W21393  40.365  34.229  12.627
56409W        W21394   3.834  42.131   0.243
56410W        W21395  29.516  25.379  12.563
56411W        W21396  40.694  19.544   3.714
56412W        W21397  34.314  11.697  12.906
56413W        W21398  37.312  16.805   0.822
56414W        W21399  15.284  33.056  13.409
56415W        W21400  15.395  42.747  12.757
56416W        W21401  15.556  11.917  12.034
56417W        W21402  16.609   9.199   1.735
56418W        W21403   1.974  26.036  13.448
56419W        W21404  35.933   7.711   0.691
56420W        W21405  24.485  43.832  12.053
56421W        W21406   1.007   4.284   0.300
56422W        W21407  23.967   4.983  11.770
56423W        W21408   6.252   0.912   1.786
56424W        W21409  18.783   0.987   4.473
56425W        W21410   2.370  41.763  11.800
56426W        W21411  25.202  26.115   4.496
56427W        W21412  21.831  14.738  11.917
56428W        W21413  21.495  28.066   3.052
56429W        W21414  36.628   1.933   2.728
56430W        W21415  15.235  44.547   4.937
56431W        W21416   4.026  40.840   3.788
56432W        W21417  17.341  22.782   4.978
56433W        W21418  42.525  34.097  13.930
56434W        W21419   0.386  16.294   0.334
56435W        W21420   6.706  34.060   1.338
56436W        W21421   2.911  21.600   1.136
56437W        W21422  35.844  29.903  10.731
56438W        W21423  43.266  32.959  11.307
56439W        W21424  32.077  25.769  11.613
56440W        W21425  32.603  29.213   2.679
56441W        W21426  18.466  23.617  13.950
56442W        W21427  20.219   3.551  10.934
56443W        W21428  10.372  34.266   2.911
56444W        W21429  31.161  32.613  13.717
56445W        W21430  37.904  39.844  12.981
56446W        W21431  29.690  34.825  11.994
56447W        W21432  40.932  14.959  11.575
56448W        W21433  11.581  14.566  13.099
56449W        W21434   0.684  33.070   1.302
56450W        W21435  16.355  19.316  13.423
56451W        W21436  10.221  21.055  10.690
56452W        W21437  44.885  38.791  13.380
56453W        W21438  36.858   9.451   3.686
56454W        W21439  42.494  32.023  13.708
56455W        W21440  18.708  10.778   3.537
56456W        W21441  34.346  30.637   4.051
56457W        W21442   0.363   5.798   0.750
56458W        W21443   9.845  28.455   0.971
56459W        W21444   7.693  43.292  12.494
56460W        W21445  35.196  44.720  13.918
56461W        W21446  39.857  15.258  12.826
56462W        W21447  36.777   8.703  13.849
56463W        W21448   9.383  34.322   0.788
56464W        W21449  42.030   0.693  10.442
56465W        W21450  28.459  20.748  12.248
56466W        W21451  38.423   5.524  13.377
56467W        W21452  20.363  40.035  14.493
56468W        W21453  28.967  15.703   3.708
56469W        W21454  39.846  12.359  12.039
56470W        W21455   5.871  44.501  11.079
56471W        W21456  29.619  17.060   2.212
56472W        W21457  13.112  41.090   4.267
56473W        W21458   6.319  12.160  11.649
56474W        W21459   4.110  15.458   2.714
56475W        W21460  38.956  15.365   4.038
56476W        W21461  38.332  43.789  13.323
56477W        W21462  44.635  27.592  11.837
56478W        W21463  16.955   1.689   9.995
56479W        W21464  29.640  20.489   1.707
56480W        W21465  25.561   9.382  14.130
56481W        W21466   2.460  41.976   2.613
56482W        W21467  11.306  32.546   1.410
56483W        W21468  43.374  40.723  10.677
56484W        W21469  16.049   3.297  13.924
56485W        W21470  25.944  33.607   3.714
56486W        W21471  13.787  16.305  13.800
56487W        W21472  27.989  36.883   1.793
56488W        W21473  26.791  40.806  12.138
56489W        W21474  16.947  29.965  14.315
56490W        W21475  26.646   5.180   0.280
56491W        W21476  29.661  12.248   2.901
56492W        W21477  20.140  43.117   2.892
56493W        W21478  41.950  35.545  11.031
56494W        W21479  19.848  43.768   2.399
56495W        W21480  41.754  35.608  12.999
56496W        W21481  16.838  11.701   4.485
56497W        W21482   8.244   3.946  14.031
56498W        W21483   5.777  24.519   4.148
56499W        W21484   6.477  26.379  11.799
56500W        W21485  42.884  24.134   4.569
56501W        W21486  41.792  11.165   0.460
56502W        W21487   1.751   3.871  12.824
56503W        W21488  25.777  41.517  11.952
56504W        W21489  17.483  24.661  12.720
56505W        W21490  21.203  15.698  14.848
56506W        W21491  31.191   5.796   0.032
56507W        W21492  37.067  38.205  13.489
56508W        W21493   6.529  42.849   2.724
56509W        W21494   6.270  27.188   2.574
56510W        W21495  43.304  33.423  14.719
56511W        W21496  36.042  25.613  12.939
56512W        W21497  25.650  12.541  10.772
56513W        W21498  27.072  30.884   3.163
56514W        W21499  19.302  18.188  10.886
56515W        W21500  24.697  12.709   0.750
56516W        W21501  20.031   3.906   0.543
56517W        W21502  39.341  14.039  13.889
56518W        W21503  27.453  16.379  14.413
56519W        W21504  43.942  36.783   3.302
56520W        W21505  18.723  33.031  14.334
56521W        W21506  36.403  11.138  12.616
56522W        W21507  38.440   0.053   2.712
56523W        W21508  32.750  10.236   4.492
56524W        W21509   4.411  40.030  13.361
56525W        W21510  19.306  32.189   1.725
56526W        W21511  19.675   1.765  13.812
56527W        W21512  27.297  40.928  12.042
56528W        W21513  20.773  12.146   1.890
56529W        W21514  18.751  36.364   4.705
56530W        W21515   6.128  18.253  14.762
56531W        W21516  10.609  22.019  13.899
56532W        W21517  14.017   4.311   1.536
56533W        W21518   2.291  14.677   3.240
56534W        W21519  16.910  20.462  12.343
56535W        W21520  37.819  14.243  12.150
56536W        W21521  35.014  10.348   0.236
56537W        W21522   6.165  37.517  11.443
56538W        W21523   8.657  42.840  12.692
56539W        W21524  43.315   9.418  12.423
56540W        W21525   8.857  17.144  13.356
56541W        W21526   4.367  13.858   3.632
56542W        W21527  26.001  23.355  14.330
56543W        W21528  33.630  32.594  13.797
56544W        W21529   5.174  32.138  12.407
56545W        W21530  32.552   3.368  12.232
56546W        W21531  43.765  34.014  10.966
56547W        W21532  21.552  23.005  12.441
56548W        W21533  34.447  26.679   3.270
56549W        W21534  21.024  18.557  12.720
56550W        W21535  13.238   9.843   4.354
56551W        W21536   5.026  28.045   4.289
56552W        W21537  22.706  33.715  13.301
56553W        W21538  23.689   2.035   4.560
56554W        W21539  31.404   4.738   3.686
56555W        W21540  38.250  39.135  11.088
56556W        W21541  36.125  35.090  14.850
56557W        W21542   3.258  19.180  10.687
56558W        W21543  30.584  42.469  10.458
56559W        W21544  29.937   2.695  11.030
56560W        W21545  38.217  26.437  13.041
56561W        W21546  17.726  41.339   2.749
56562W        W21547  13.785  12.714   4.356
56563W        W21548  26.675  15.665  11.494
56564W        W21549  28.387  22.751  14.426
56565W        W21550  20.194  21.341   3.288
56566W        W21551  28.595  22.099   1.488
56567W        W21552  16.780  41.280   1.771
56568W        W21553  30.165  37.807  14.836
56569W        W21554  22.069  14.557  13.732
56570W        W21555  43.338  10.455  10.679
56571W        W21556  25.453   6.204  10.704
56572W        W21557  44.285  31.376   1.330
56573W        W21558   5.255  39.802   1.656
56574W        W21559  43.675   1.185   3.253
56575W        W21560  26.762  10.067  12.549
56576W        W21561  12.777  42.824   1.832
56577W        W21562   2.459  23.724   4.103
56578W        W21563   7.274  16.051   3.378
56579W        W21564   6.943  21.152  13.352
56580W        W21565  13.880  38.672   1.064
56581W        W21566  43.220  34.255  11.624
56582W        W21567   4.919  26.013  10.991
56583W        W21568   3.912   6.246   1.407
56584W        W21569  37.755  12.307  11.269
56585W        W21570   2.364  26.750  12.946
56586W        W21571  13.027   1.441   2.155
56587W        W21572  33.229  40.061  11.058
56588W        W21573  13.575  17.808  10.729
56589W        W21574   4.338  18.791   0.404
56590W        W21575   6.415   0.970   5.177
56591W        W21576   8.510  13.222  14.353
56592W        W21577   2.110  31.433  11.214
56593W        W21578  35.592  14.319   3.638
56594W        W21579  35.025   5.300  14.931
56595W        W21580  23.617  33.985   2.340
56596W        W21581  23.460   7.755  12.053
56597W        W21582  33.666  32.591   2.641
56598W        W21583   6.008  23.750   1.878
56599W        W21584   4.387   2.877  11.631
56600W        W21585  34.937  29.188  14.866
56601W        W21586  10.370  11.804   2.126
56602W        W21587  12.396  34.092   1.674
56603W        W21588  22.038  12.938  14.985
56604W        W21589  33.842   6.335   0.422
56605W        W21590   9.944   4.711  13.357
56606W        W21591  36.945  13.423  13.327
56607W        W21592  16.737  40.748  14.741
56608W        W21593   3.736  36.416  12.497
56609W        W21594  28.912  29.076   0.200
56610W        W21595  15.726  13.079   0.797
56611W        W21596   7.477  21.661   1.643
56612W        W21597  20.130  33.683   1.660
56613W        W21598  42.372  44.426   1.994
56614W        W21599  22.517   2.318   4.183
56615W        W21600   7.362   5.666   4.577
56616W        W21601  19.379  39.912   1.011
56617W        W21602  12.572   0.043   2.252
56618W        W21603  12.715  37.450   2.163
56619W        W21604   1.361   8.247   0.436
56620W        W21605  10.402   7.388  11.140
56621W        W21606   3.375  21.559  11.706
56622W        W21607  17.048  10.823  14.830
56623W        W21608  13.329  12.629   4.115
56624W        W21609  28.947  13.809   2.807
56625W        W21610  31.001  39.811   0.341
56626W        W21611   6.976  16.264   4.632
56627W        W21612  24.674  14.099  14.372
56628W        W21613   6.241  20.292   4.512
56629W        W21614  40.903  22.642  13.510
56630W        W21615  14.649  25.191   1.028
56631W        W21616  44.936  20.534   0.737
56632W        W21617  43.322   2.764   4.312
56633W        W21618  16.999  31.650   4.966
56634W        W21619  14.659  19.775   3.310
56635W        W21620   2.417  38.164   4.726
56636W        W21621  15.211   4.220   0.891
56637W        W21622  31.958  19.210  12.531
56638W        W21623  20.553  30.182  11.561
56639W        W21624  43.482  35.282   0.360
56640W        W21625  37.829  23.997   3.019
56641W        W21626  21.145  41.456   3.121
56642W        W21627  38.386  33.111   3.376
56643W        W21628  16.987  13.403   3.031
56644W        W21629  20.466  39.257  14.093
56645W        W21630  31.985  18.249  10.618
56646W        W21631   4.422  11.327  10.340
56647W        W21632  18.712   8.305   0.464
56648W        W21633  10.018  13.157   2.318
56649W        W21634  18.661  29.123   4.792
56650W        W21635  33.348  14.543   2.325
56651W        W21636  23.787  37.344   0.359
56652W        W21637  41.407  28.180  14.252
56653W        W21638   7.432   1.398   3.299
56654W        W21639  35.428   2.178   0.397
56655W        W21640  43.659  38.032  14.832
56656W        W21641   5.279  10.931   2.663
56657W        W21642   9.370   3.363  13.161
56658W        W21643  21.579  10.719  11.532
56659W        W21644  22.524  42.470   2.121
56660W        W21645  20.177   6.384   4.651
56661W        W21646  31.728   8.891  12.603
56662W        W21647  18.607  35.270   2.225
56663W        W21648  21.092  17.985  11.411
56664W        W21649  10.801  11.046   2.993
56665W        W21650   6.905  26.835   3.471
56666W        W21651  30.555  44.213   0.979
56667W        W21652  27.026  16.781  12.089
56668W        W21653  41.100   1.916   1.697
56669W        W21654  43.694   9.037  12.515
56670W        W21655  41.577   0.287  14.790
56671W        W21656   0.858  28.050   2.873
56672W        W21657  20.042  34.888   3.577
56673W        W21658  18.565  34.996  13.762
56674W        W21659   6.249  20.157  13.012
56675W        W21660  12.822  26.227  13.088
56676W        W21661   2.479  31.028  10.589
56677W        W21662  15.563  35.669  11.938
56678W        W21663  29.095  18.823  10.556
56679W        W21664   0.776   8.757  11.143
56680W        W21665   0.417  20.138   3.379
56681W        W21666  37.799  42.950  14.924
56682W        W21667  28.886  12.657  10.481
56683W        W21668   9.190  40.735  13.388
56684W        W21669   8.818   2.993  11.503
56685W        W21670  29.213   4.413  14.947
56686W        W21671  42.779   7.611   2.801
56687W        W21672   7.775  38.753  11.151
56688W        W21673  44.228  25.747  14.817
56689W        W21674  10.926  25.601  14.941
56690W        W21675  29.652  31.833  11.096
56691W        W21676   9.385  38.450  14.015
56692W        W21677  44.726  26.148  12.077
56693W        W21678  33.052  22.544   3.307
56694W        W21679  19.288  42.822   3.260
56695W        W21680  26.550  16.856   2.710
56696W        W21681  18.507   1.679  11.121
56697W        W21682   6.140  31.986  13.541
56698W        W21683   4.698  36.327   0.333
56699W        W21684  10.825  36.804  11.067
56700W        W21685   2.779  34.684  11.190
56701W        W21686  22.279  25.383  13.014
56702W        W21687   4.263  19.327  13.031
56703W        W21688  13.569   1.800   0.389
56704W        W21689  26.076  23.323  12.176
56705W        W21690  28.480  42.042   4.595
56706W        W21691  41.297  11.903  12.121
56707W        W21692  28.207  13.559  12.459
56708W        W21693  13.115   5.175  14.734
56709W        W21694  25.668  39.801   1.287
56710W        W21695  30.251  36.412   1.908
56711W        W21696  30.495  40.215  13.104
56712W        W21697  31.411  34.397  12.138
56713W        W21698  33.542  17.313  10.320
56714W        W21699  17.079  22.043   0.568
56715W        W21700  40.042  23.647   0.235
56716W        W21701  14.562  40.548  12.859
56717W        W21702   5.294  19.226  11.242
56718W        W21703  21.750  23.954  11.600
56719W        W21704   0.006  41.802   0.735
56720W        W21705  34.851   4.903   3.032
56721W        W21706  12.186   0.514   2.788
56722W        W21707  44.946   8.845   4.968
56723W        W21708  11.419   6.231  10.844
56724W        W21709   3.852   3.488  12.338
56725W        W21710  11.416  21.692   3.326
56726W        W21711   3.326  36.549  13.556
56727W        W21712  25.996  12.525   1.084
56728W        W21713  43.174  16.406  12.877
56729W        W21714  17.846  23.458  11.062
56730W        W21715  36.168  24.028  11.560
56731W        W21716  37.788   6.143  10.028
56732W        W21717  20.241   5.612  14.055
56733W        W21718  32.016  44.337  12.341
56734W        W21719  16.942  28.116  13.554
56735W        W21720   3.916  37.325   3.694
56736W        W21721  21.612  31.124   2.072
56737W        W21722  36.569  44.311  10.637
56738W        W21723   3.172  24.976   0.466
56739W        W21724  20.171  18.587  11.746
56740W        W21725   0.832  22.001  13.993
56741W        W21726  25.910  41.334   3.149
56742W        W21727  37.781  43.861   2.632
56743W        W21728  44.264  14.095   1.709
56744W        W21729   0.671   2.272  11.146
56745W        W21730  28.685  12.670  12.142
56746W        W21731   1.364  34.802   3.977
56747W        W21732  27.030  19.715  13.838
56748W        W21733  30.479   4.561  11.416
56749W        W21734  38.411  32.974  14.084
56750W        W21735  22.197   2.363   1.717
56751W        W21736   1.252  40.336   2.689
56752W        W21737  19.307  38.326  11.685
56753W        W21738  12.504   0.983   1.803
56754W        W21739  21.302  20.493  12.535
56755W        W21740  11.804  40.998   1.799
56756W        W21741  30.655  44.494   4.178
56757W        W21742   3.961  38.465  11.294
56758W        W21743  20.109  39.456  12.389
56759W        W21744  35.427  14.703  11.685
56760W        W21745   6.186  17.022   4.297
56761W        W21746  42.806  30.683  12.696
56762W        W21747  11.384   2.880  13.882
56763W        W21748  41.998  20.276  14.764
56764W        W21749   5.568  39.360   3.898
56765W        W21750  33.629  23.354  12.127
56766W        W21751  21.101  40.345   4.054
56767W        W21752  33.565  24.738   1.117
56768W        W21753  32.039  32.690  11.989
56769W        W21754   1.232  25.691   2.196
56770W        W21755  39.842  39.557  10.674
56771W        W21756   1.079  12.920  12.946
56772W        W21757  34.832  23.604   4.033
56773W        W21758  30.922  13.220   1.631
56774W        W21759  39.822  12.425   0.994
56775W        W21760   7.892   7.237   0.551
56776W        W21761  43.579  20.604   0.016
56777W        W21762  37.646  12.828   2.871
56778W        W21763   4.758   4.228  11.494
56779W        W21764   6.314  11.343  11.237
56780W        W21765  34.627   8.703  13.479
56781W        W21766   1.677  30.454  11.710
56782W        W21767  43.668  41.560  13.543
56783W        W21768  44.856  43.977   4.675
56784W        W21769  36.083   2.007  14.715
56785W        W21770  13.218  12.916  12.077
56786W        W21771  28.849  35.562  11.107
56787W        W21772  36.853   3.213   4.312
56788W        W21773  12.406  31.062  11.196
56789W        W21774  13.726  25.142   0.959
56790W        W21775  19.813   3.642  11.630
56791W        W21776  29.023  12.739  14.428
56792W        W21777   2.812   2.988   3.673
56793W        W21778   0.701  40.345  11.666
56794W        W21779   8.832  39.330  11.367
56795W        W21780  12.422  30.963  12.151
56796W        W21781   8.751  12.388  11.082
56797W        W21782   0.366   1.775   4.719
56798W        W21783  20.734  23.510  12.139
56799W        W21784  18.620  26.503   3.390
56800W        W21785  41.097  30.195  12.687
56801W        W21786  29.162   9.615  13.959
56802W        W21787   3.729  34.405  11.031
56803W        W21788  34.240  39.750  12.513
56804W        W21789   3.263   5.914   1.971
56805W        W21790  29.147   6.848  11.603
56806W        W21791  13.682  43.282   3.157
56807W        W21792  44.408  39.436  14.358
56808W        W21793  30.741   4.282   1.839
56809W        W21794  25.466   9.360  11.135
56810W        W21795  29.039  14.409  10.450
56811W        W21796   0.445  16.805   0.252
56812W        W21797  28.970  35.910   1.358
56813W        W21798  30.430  19.807  12.967
56814W        W21799  44.859  43.608  13.800
56815W        W21800  27.556  24.408   1.421
56816W        W21801   9.114  38.670  12.542
56817W        W21802  41.819  42.842  11.933
56818W        W21803  38.541   8.469   0.226
56819W        W21804  11.366  33.904  12.485
56820W        W21805   6.788  36.834  14.967
56821W        W21806  20.360  35.036  12.599
56822W        W21807  36.298  13.620   3.624
56823W        W21808   7.334  13.823  13.114
56824W        W21809  17.437   4.083   0.866
56825W        W21810  42.088  26.780   3.374
56826W        W21811  40.571  11.128  14.646
56827W        W21812  14.472   9.279  10.702
56828W        W21813  30.535  26.471   3.158
56829W        W21814  23.282   2.404  13.390
56830W        W21815   3.726   2.292  14.476
56831W        W21816   9.256   4.185   0.364
56832W        W21817   1.994   1.769  12.389
56833W        W21818   0.850   2.397  11.605
56834W        W21819  43.560   4.238   1.928
56835W        W21820  39.342  43.370   3.747
56836W        W21821  25.223  35.390   2.860
56837W        W21822  26.173  34.206  12.297
56838W        W21823   0.736   5.830   2.871
56839W        W21824  14.953  43.803   1.805
56840W        W21825  24.947   8.995   1.926
56841W        W21826  28.029   2.482   1.855
56842W        W21827  10.115  15.845   4.654
56843W        W21828  32.964  15.987  12.274
56844W        W21829   1.765  41.190   2.278
56845W        W21830  30.171   2.621   5.059
56846W        W21831  29.521  18.845   3.825
56847W        W21832   3.067  36.946  10.838
56848W        W21833  18.774  12.666  10.672
56849W        W21834  44.331  43.014   1.959
56850W        W21835  20.533  22.146  11.086
56851W        W21836  16.307  26.073  14.991
56852W        W21837  41.519   8.366   2.888
56853W        W21838  20.743  17.701  12.613
56854W        W21839   2.702  32.712  11.106
56855W        W21840   9.708  34.092   2.235
56856W        W21841  41.086  28.548   4.733
56857W        W21842  15.107   3.898   2.156
56858W        W21843  17.209  32.681   1.165
56859W        W21844  17.728  20.600   2.587
56860W        W21845   7.221   2.332  13.163
56861W        W21846  27.548  30.710   3.385
56862W        W21847  43.282  40.677  11.582
56863W        W21848  38.905  24.950  13.516
56864W        W21849  27.111   0.947   4.022
56865W        W21850  20.853  39.067  12.997
56866W        W21851  29.967  17.253  10.779
56867W        W21852  22.628  38.761   4.456
56868W        W21853  23.578  30.441  11.600
56869W        W21854  15.630  11.971   2.117
56870W        W21855  21.799  17.587   0.945
56871W        W21856  31.373   4.684  11.461
56872W        W21857  25.687  38.492   3.605
56873W        W21858  18.656   5.187  13.370
56874W        W21859  22.601  42.310   3.590
56875W        W21860  19.165  13.142  14.976
56876W        W21861  38.683   9.918   1.371
56877W        W21862  25.137  12.607  14.461
56878W        W21863  21.273  30.542  14.023
56879W        W21864  15.970   8.650  13.820
56880W        W21865   9.751  25.919  13.036
56881W        W21866  25.702  34.421  12.297
56882W        W21867   2.344   5.912  14.055
56883W        W21868  31.799  32.187   5.099
56884W        W21869   7.238   7.736  13.536
56885W        W21870  26.196  14.030   4.573
56886W        W21871   3.952  35.930   3.228
56887W        W21872   7.942   8.703  11.924
56888W        W21873  34.353  15.953   4.718
56889W        W21874  27.225  20.581   0.414
56890W        W21875  38.938  15.156  10.474
56891W        W21876  43.415  43.834  10.366
56892W        W21877  21.299   4.142   2.214
56893W        W21878   5.328  24.762   4.145
56894W        W21879  41.732  20.196  13.924
56895W        W21880  15.249  13.714  14.485
56896W        W21881  31.261  23.749  13.076
56897W        W21882   7.663  18.457   3.706
56898W        W21883  36.466  35.318  14.032
56899W        W21884  15.540   9.245  14.361
56900W        W21885  33.892   3.812  10.379
56901W        W21886  28.963  26.568  13.415
56902W        W21887  41.311  14.783  11.155
56903W        W21888  32.020  13.125  11.236
56904W        W21889  15.642  24.986  12.407
56905W        W21890  29.697  21.624   3.671
56906W        W21891  39.461  44.516  10.459
56907W        W21892  39.770  11.637   2.355
56908W        W21893   5.703  10.273  10.726
56909W        W21894  39.551   9.896   4.717
56910W        W21895  37.699  39.328  14.932
56911W        W21896  40.301  43.017  14.540
56912W        W21897  35.101   7.321   4.652
56913W        W21898   5.200   0.388   0.499
56914W        W21899  38.849  16.928   5.034
56915W        W21900  18.236  40.428   0.730
56916W        W21901  10.111  16.985  11.627
56917W        W21902  35.264  30.833   3.601
56918W        W21903  18.039  42.218   3.616
56919W        W21904  37.658  17.515  12.815
56920W        W21905  12.391   9.279   3.155
56921W        W21906  43.820   8.428  14.955
56922W        W21907  33.478  21.726   1.254
56923W        W21908  26.153  30.443  12.219
56924W        W21909   9.628  28.329  13.278
56925W        W21910  20.117  34.485   1.006
56926W        W21911  21.760  38.610  13.873
56927W        W21912  26.097  20.557   2.405
56928W        W21913  40.804  44.012   1.894
56929W        W21914  10.983   5.139  11.974
56930W        W21915  36.044   1.376  10.779
56931W        W21916  11.325  41.640   2.815
56932W        W21917  33.525  17.987   4.925
56933W        W21918  34.384  20.215   3.589
56934W        W21919  35.644  41.830  13.074
56935W        W21920  13.904  14.615  14.373
56936W        W21921  16.068  17.243   3.243
56937W        W21922  35.849   8.499   0.186
56938W        W21923  20.196  28.682   4.819
56939W        W21924   1.237  15.609  12.879
56940W        W21925  10.170   9.448   3.122
56941W        W21926  22.215   2.878   1.251
56942W        W21927   4.826  43.615   1.813
56943W        W21928  25.755  10.773   2.914
56944W        W21929   3.835  23.249  12.889
56945W        W21930   3.038  30.483   3.181
56946W        W21931  43.231  12.249   1.673
56947W        W21932  30.417  19.289  12.979
56948W        W21933  18.766   1.703  11.570
56949W        W21934   6.103  30.445  10.649
56950W        W21935  42.003  27.578   0.931
56951W        W21936  10.301   9.624   2.614
56952W        W21937  43.164  19.114  14.830
56953W        W21938   1.799  40.378  12.980
56954W        W21939   7.968   2.450   0.248
56955W        W21940  22.446  34.998   4.484
56956W        W21941  34.417  26.510   4.086
56957W        W21942   1.803  43.862  13.988
56958W        W21943  37.163  28.967   2.821
56959W        W21944  20.685  15.073   3.257
56960W        W21945  27.635  43.387  11.559
56961W        W21946  21.955  43.374  10.576
56962W        W21947  17.585  10.812  14.928
56963W        W21948  34.425   2.350   1.176
56964W        W21949  15.418  16.525  13.270
56965W        W21950  15.595   1.529  13.008
56966W        W21951  39.427  27.617   2.755
56967W        W21952  18.106  36.348  11.528
56968W        W21953   5.334   5.072  11.576
56969W        W21954  36.926  43.693   2.312
56970W        W21955  39.384  12.499  13.839
56971W        W21956  37.390  39.819  13.028
56972W        W21957  31.058  10.428  12.850
56973W        W21958  15.229   0.314  11.190
56974W        W21959  30.896   7.676   3.380
56975W        W21960  30.981   4.458  11.151
56976W        W21961  39.438  10.701   4.864
56977W        W21962  40.526  43.083   0.792
56978W        W21963   1.049  34.253   1.867
56979W        W21964  16.380   5.552  11.186
56980W        W21965   5.387   2.805   0.941
56981W        W21966  36.559   3.368  11.365
56982W        W21967  14.727   2.494  13.089
56983W        W21968  16.024   7.690  12.988
56984W        W21969  29.622   2.581  11.975
56985W        W21970  37.950  24.802  12.530
56986W        W21971  31.100  43.564  10.676
56987W        W21972  36.076  22.777  12.482
56988W        W21973  33.392  24.733   3.144
56989W        W21974  10.310   2.904  12.739
56990W        W21975  40.492   7.172  13.263
56991W        W21976  16.635  42.847   2.151
56992W        W21977  31.557  37.056   2.875
56993W        W21978  35.776  28.046  13.020
56994W        W21979  23.739  14.824  12.228
56995W        W21980  11.832  38.579  11.222
56996W        W21981   5.716  44.402   3.568
56997W        W21982   1.869  40.005   4.337
56998W        W21983  44.863   4.339   0.695
56999W        W21984  25.864   0.736   9.928
57000W        W21985  17.176   8.799  14.807
57001W        W21986  43.467  29.003   1.422
57002W        W21987  15.196  40.986   4.271
57003W        W21988  28.937  30.790   1.690
57004W        W21989  39.050  11.149  14.000
57005W        W21990   8.421  19.785  12.092
57006W        W21991   3.566   8.281   1.964
57007W        W21992  13.381   3.720  12.245
57008W        W21993  34.970  17.107   5.003
57009W        W21994  39.308  11.252   0.300
57010W        W21995  10.412   2.737  14.983
57011W        W21996   2.653  20.028  12.362
57012W        W21997  17.757  32.168  14.272
57013W        W21998  44.880  29.442   0.525
57014W        W21999   7.382  43.174   3.102
57015W        W22000  20.137  31.886   3.071
57016W        W22001  19.092   6.235   3.237
57017W        W22002   6.560  35.341  14.346
57018W        W22003   6.630  30.098  13.953
57019W        W22004  15.123   8.673   4.013
57020W        W22005  25.176   4.340   0.781
57021W        W22006  30.667   3.168   3.345
57022W        W22007   9.298  35.351   0.899
57023W        W22008   6.465  42.355  10.654
57024W        W22009  22.101  42.476   3.627
57025W        W22010  19.066  26.732   2.611
57026W        W22011   7.135   2.389  14.122
57027W        W22012   6.228  33.970   4.176
57028W        W22013   5.906  24.226  14.773
57029W        W22014  29.132  26.486   4.067
57030W        W22015  29.428  43.918  14.583
57031W        W22016  36.917  16.333   0.557
57032W        W22017  42.465  44.655   1.521
57033W        W22018  17.239  15.449  12.399
57034W        W22019  11.628   4.232   2.763
57035W        W22020  15.302  19.064  13.885
57036W        W22021  40.539  25.060   1.577
57037W        W22022  10.862   8.157   3.363
57038W        W22023  40.324   8.885   0.417
57039W        W22024  33.981   5.940   2.338
57040W        W22025  24.512  12.279  11.502
57041W        W22026  22.404  12.237  14.389
57042W        W22027  39.917   6.486   2.160
57043W        W22028   5.976   8.670  11.533
57044W        W22029  19.999   0.703   4.084
57045W        W22030  17.483  14.243  13.743
57046W        W22031  27.741  15.605  10.061
57047W        W22032  29.241  18.229  13.364
57048W        W22033  44.286  33.912  10.946
57049W        W22034  40.254   1.921  11.638
57050W        W22035  35.659  14.024  11.005
57051W        W22036  21.552  12.755   0.018
57052W        W22037   2.251  36.837  11.031
57053W        W22038   6.190  25.401   2.159
57054W        W22039  11.622  41.353  12.217
57055W        W22040  37.765  10.938   9.816
57056W        W22041  17.219  35.830   0.987
57057W        W22042  10.570  29.391   0.301
57058W        W22043  34.548  33.245   1.799
57059W        W22044  42.329  20.237  10.428
57060W        W22045  34.529   0.892   3.695
57061W        W22046   1.436  39.862   3.612
57062W        W22047   5.312   8.888  10.916
57063W        W22048  40.483   9.439  12.646
57064W        W22049   3.674  16.137   0.209
57065W        W22050  16.357  18.668   0.743
57066W        W22051  15.401   6.949  14.385
57067W        W22052  22.544  31.636  13.493
57068W        W22053  19.139  24.591   4.657
57069W        W22054  34.976  20.283   1.395
57070W        W22055  10.152   3.719   1.932
57071W        W22056   4.920  27.201   2.236
57072W        W22057  32.306  32.114   4.971
57073W        W22058  39.534  17.488  13.986
57074W        W22059   5.210  15.349   1.499
57075W        W22060  15.739   2.196   5.125
57076W        W22061  21.042  33.234  10.937
57077W        W22062   4.852  28.518  11.882
57078W        W22063  15.307   7.177  10.370
57079W        W22064  39.522  30.047   0.063
57080W        W22065  10.150  38.232   4.493
57081W        W22066  28.476  11.382   4.581
57082W        W22067  37.486   8.735  10.545
57083W        W22068   2.782  23.456   1.421
57084W        W22069  37.297  42.522  14.727
57085W        W22070  18.049  21.316  13.606
57086W        W22071  19.362  26.947  14.962
57087W        W22072  34.706  12.317   4.017
57088W        W22073  13.075   5.800  13.560
57089W        W22074  13.415  28.540   2.649
57090W        W22075  34.602  25.488  14.969
57091W        W22076  24.917   8.804  12.711
57092W        W22077  40.628  21.244   0.964
57093W        W22078   4.479   6.835  11.703
57094W        W22079   4.752  31.809   4.548
57095W        W22080  44.805  28.042   4.007
57096W        W22081  11.285  36.783  14.287
57097W        W22082   8.156  34.975   0.240
57098W        W22083  39.500   9.417  11.601
57099W        W22084  29.071  13.741   0.972
57100W        W22085  27.889  43.470   3.387
57101W        W22086   7.874   9.993   4.624
57102W        W22087  15.268  19.516  14.713
57103W        W22088  18.073  14.048   1.400
57104W        W22089  14.597  14.212   3.037
57105W        W22090   6.838  20.774  12.488
57106W        W22091  40.178  41.993   4.187
57107W        W22092  38.868  18.497   2.731
57108W        W22093  17.073  27.088  13.010
57109W        W22094  38.705  23.034   3.396
57110W        W22095  23.093  31.753   0.928
57111W        W22096  38.455  37.884   2.448
57112W        W22097  16.566   5.274   1.787
57113W        W22098  43.808  12.701  12.676
57114W        W22099  11.389  37.780  14.307
57115W        W22100  38.836  16.618  10.757
57116W        W22101  36.590  16.552   0.035
57117W        W22102  18.174  27.004   2.211
57118W        W22103  44.476  15.780   3.650
57119W        W22104  14.721  30.622   3.346
57120W        W22105   7.375  32.653  14.050
57121W        W22106   6.543  39.361   0.015
57122W        W22107  24.306  33.503   4.930
57123W        W22108  29.131  42.760   3.116
57124W        W22109  21.987   4.410  14.538
57125W        W22110   6.169   8.137  13.454
57126W        W22111  11.716  42.814  13.520
57127W        W22112   7.836  25.413   0.687
57128W        W22113  30.335   2.469   4.367
57129W        W22114  14.383  32.716   4.575
57130W        W22115  12.399  43.929  13.879
57131W        W22116  14.535  21.733   4.143
57132W        W22117  44.535   2.392  11.917
57133W        W22118  36.152  29.915   2.683
57134W        W22119   6.945  29.092  12.394
57135W        W22120  43.541   9.180   0.220
57136W        W22121   4.850  31.395  12.320
57137W        W22122  41.502  39.685  12.121
57138W        W22123  18.199  21.282  11.791
57139W        W22124   1.248  27.562  14.966
57140W        W22125  44.414   1.046  10.712
57141W        W22126   7.938   7.672  11.103
57142W        W22127   7.739  31.665  10.762
57143W        W22128  17.687  30.026   3.673
57144W        W22129  33.607  24.544   2.671
57145W        W22130  32.888  11.421  11.969
57146W        W22131  23.019   1.386   1.398
57147W        W22132   8.165  29.049   2.622
57148W        W22133   6.814  40.055  13.908
57149W        W22134   9.194   9.631   3.712
57150W        W22135  14.633  29.050  13.070
57151W        W22136   8.966  22.035  10.772
57152W        W22137  33.197   0.858  12.444
57153W        W22138   0.046  42.989   0.430
57154W        W22139   2.065   6.295  14.278
57155W        W22140  28.587  26.150  12.763
57156W        W22141   2.246  37.999   2.193
57157W        W22142   8.828   5.661   3.175
57158W        W22143  42.386  39.084  14.473
57159W        W22144  34.866  12.903   2.875
57160W        W22145  26.147  19.714   4.600
57161W        W22146  30.137  35.101  14.943
57162W        W22147  16.074  14.297  14.406
57163W        W22148  41.973   7.672  12.823
57164W        W22149  42.111  41.144  11.228
57165W        W22150  15.959   9.155  14.905
57166W        W22151  11.251  17.299   0.038
57167W        W22152  34.094  28.496   3.230
57168W        W22153  20.003  30.344   0.740
57169W        W22154   7.694  44.776   1.809
57170W        W22155  23.203  18.923  13.975
57171W        W22156  11.658   3.941  13.416
57172W        W22157  13.139  35.101  14.693
57173W        W22158  21.579   8.161  13.641
57174W        W22159  14.020  24.578   4.787
57175W        W22160  31.583  18.621  13.599
57176W        W22161  32.478  43.246  11.937
57177W        W22162  12.034  38.854   4.637
57178W        W22163   9.086  34.850  13.929
57179W        W22164   9.723  26.450  12.940
57180W        W22165  15.359   8.860   4.897
57181W        W22166   4.164   6.633   9.683
57182W        W22167  40.184  26.644   0.344
57183W        W22168  33.598  26.642   2.158
57184W        W22169   4.890   6.703  12.948
57185W        W22170  31.999   4.216   1.328
57186W        W22171   6.861  43.677   3.720
57187W        W22172  30.706  44.213   1.485
57188W        W22173  25.452  13.778   0.211
57189W        W22174  23.590   5.354   2.432
57190W        W22175  43.252  31.742   1.078
57191W        W22176  17.063   3.221   0.963
57192W        W22177  14.555   9.840   2.233
57193W        W22178  12.095   1.014  13.362
57194W        W22179   5.177  19.790   3.596
57195W        W22180  10.035  34.863  13.893
57196W        W22181  25.680   8.085  11.254
57197W        W22182   9.147  42.641  11.952
57198W        W22183  33.109  11.250  12.411
57199W        W22184   3.905   6.170  13.492
57200W        W22185  39.001   9.645  13.306
57201W        W22186  27.456  39.490   0.365
57202W        W22187  34.358  41.971  10.633
57203W        W22188  33.174  38.900   3.188
57204W        W22189  11.233  41.990  12.717
57205W        W22190  29.905  15.107  14.962
57206W        W22191  30.456  21.295  13.948
57207W        W22192  32.713  43.320   1.626
57208W        W22193  28.432  33.756  12.982
57209W        W22194  24.587  42.868   4.040
57210W        W22195  14.001  42.687   3.786
57211W        W22196  40.580  38.999   4.199
57212W        W22197  31.353   2.203  12.351
57213W        W22198  41.934  19.404   4.982
57214W        W22199  14.471  42.450   3.710
57215W        W22200  12.003  13.565   3.681
57216W        W22201   4.311  24.411   0.765
57217W        W22202  16.298  13.378  13.078
57218W        W22203  29.548  43.936   0.098
57219W        W22204  32.209  31.695  11.994
57220W        W22205  14.328  19.705  12.565
57221W        W22206  23.447  35.049  13.521
57222W        W22207  30.625  19.137   2.313
57223W        W22208  38.584  10.451  11.622
57224W        W22209  44.982   9.344  14.594
57225W        W22210  24.758  38.856   0.856
57226W        W22211  16.203   7.316   2.586
57227W        W22212  43.691  13.694  13.951
57228W        W22213  21.538  24.997  14.379
57229W        W22214  34.879   2.942  14.524
57230W        W22215   6.373  43.641  10.690
57231W        W22216   4.662  35.362  14.319
57232W        W22217  23.176  22.056  14.852
57233W        W22218  35.867  40.490   2.975
57234W        W22219  30.637  27.487  14.545
57235W        W22220   2.210  17.090   2.245
57236W        W22221  35.856  31.841   0.248
57237W        W22222  38.403  29.444  10.688
57238W        W22223  28.399   1.862  14.219
57239W        W22224  35.075  42.361   3.206
57240W        W22225   9.754   6.520   1.350
57241W        W22226   6.454   7.828   4.167
57242W        W22227  20.764  29.714   2.781
57243W        W22228   9.404   0.439   2.233
57244W        W22229  21.649  27.607  10.676
57245W        W22230  25.266  41.730   0.706
57246W        W22231   3.707   7.968  12.425
57247W        W22232  40.472  37.755  11.471
57248W        W22233  23.709   4.330   1.736
57249W        W22234  10.820  29.470  10.717
57250W        W22235  11.273   5.059  10.470
57251W        W22236  28.880  34.314  11.771
57252W        W22237  14.635  36.840  13.035
57253W        W22238   4.834  34.598   1.788
57254W        W22239   4.183  22.484   2.848
57255W        W22240  38.535  23.499   1.499
57256W        W22241  20.956  43.973   4.317
57257W        W22242  28.056  35.875  14.901
57258W        W22243   7.871  28.095  14.128
57259W        W22244  11.370   1.272  10.439
57260W        W22245  37.356  38.125  12.204
57261W        W22246   2.373  37.281  13.385
57262W        W22247  44.547  34.960  13.395
57263W        W22248   7.544  37.158  11.692
57264W        W22249  25.159   0.286   3.388
57265W        W22250  18.766   4.825   3.565
57266W        W22251  24.281  39.756   2.292
57267W        W22252  24.706  26.612  12.934
57268W        W22253  40.178   7.961   1.808
57269W        W22254   3.917  42.113   1.881
57270W        W22255  14.221  39.856  13.481
57271W        W22256  11.094   6.756   2.243
57272W        W22257  36.180  34.847  13.626
57273W        W22258  39.598   9.904   3.826
57274W        W22259  39.574  39.328  14.402
57275W        W22260   2.822  30.945   4.834
57276W        W22261  11.798  30.479  10.591
57277W        W22262   1.055  20.344   3.832
57278W        W22263   1.425  16.229   0.074
57279W        W22264  23.521  36.445   4.260
57280W        W22265  24.020  29.026   2.353
57281W        W22266  44.282  23.089  12.339
57282W        W22267  28.063  41.273  13.020
57283W        W22268   8.985   1.109  13.412
57284W        W22269  42.808  29.408   3.344
57285W        W22270  22.950  20.213  12.461
57286W        W22271  43.469  36.388  12.420
57287W        W22272   5.990  33.995  12.574
57288W        W22273  33.622  18.746   3.167
57289W        W22274  19.196  42.839   0.345
57290W        W22275  36.157  18.134  12.444
57291W        W22276  18.176  34.573   4.514
57292W        W22277  32.731  17.453  14.968
57293W        W22278  42.509  37.859  12.522
57294W        W22279  43.888  42.302   4.563
57295W        W22280  42.652  25.539  12.664
57296W        W22281   7.767  18.848  14.275
57297W        W22282  21.716  17.171  14.874
57298W        W22283  43.521  42.052   4.297
57299W        W22284   0.007  27.920   2.277
57300W        W22285  33.747  41.056   1.795
57301W        W22286   9.247   8.718  13.808
57302W        W22287  22.853  18.291   3.804
57303W        W22288  32.188   2.273   4.827
57304W        W22289   6.331  13.452   2.872
57305W        W22290   1.405  14.949   1.383
57306W        W22291  43.830  27.512  11.374
57307W        W22292  26.672  36.303  14.615
57308W        W22293   0.864  29.707  13.773
57309W        W22294  15.798  38.496  14.325
57310W        W22295  18.139  26.207  14.906
57311W        W22296  19.030  44.702  12.075
57312W        W22297  19.590   0.746   5.042
57313W        W22298  37.428  37.910   1.498
57314W        W22299  39.619  41.733   2.874
57315W        W22300   8.730  14.597   3.075
57316W        W22301  29.647   8.825  14.473
57317W        W22302   4.893  19.829   0.834
57318W        W22303   3.273  14.882   2.306
57319W        W22304   5.256  22.516  13.988
57320W        W22305  10.771  32.608   1.308
57321W        W22306  32.540  23.136  14.713
57322W        W22307   5.218  20.147  11.390
57323W        W22308  38.452  18.538  11.606
57324W        W22309  44.391  30.354  11.895
57325W        W22310  32.869  42.446   4.228
57326W        W22311  20.516  13.580   2.580
57327W        W22312  37.041  43.989   3.076
57328W        W22313  28.956  19.888   0.429
57329W        W22314  13.820  33.033  14.468
57330W        W22315  17.705  38.152   1.924
57331W        W22316  26.628  43.747  12.523
57332W        W22317   1.265  17.221   4.110
57333W        W22318  10.320  29.305   3.558
57334W        W22319  24.771  39.940  10.378
57335W        W22320  42.708  10.375  11.963
57336W        W22321  19.136   0.367   0.378
57337W        W22322  25.908  25.542  13.097
57338W        W22323  25.038  21.907  13.966
57339W        W22324  29.957  36.454  10.797
57340W        W22325  32.976  27.216   1.698
57341W        W22326  40.777  13.810  13.000
57342W        W22327  32.380  15.647   1.662
57343W        W22328  31.423  39.937  13.004
57344W        W22329  33.071  23.047   3.257
57345W        W22330   2.841  28.665   0.286
57346W        W22331  22.321  44.765   0.718
57347W        W22332   3.976  30.857  13.562
57348W        W22333  13.666  19.748  12.137
57349W        W22334   5.596  35.681  14.582
57350W        W22335  17.938  20.269   2.944
57351W        W22336   1.657  30.608   1.794
57352W        W22337  19.319  44.410  12.388
57353W        W22338  32.226   9.912   2.795
57354W        W22339  33.579  33.413   1.206
57355W        W22340  36.388  40.219  14.054
57356W        W22341  31.663  28.596   3.234
57357W        W22342  34.361  16.180   4.176
57358W        W22343  37.440  31.830  11.174
57359W        W22344  40.489  12.294  12.828
57360W        W22345  22.742   7.275  11.212
57361W        W22346  33.392   3.933  10.467
57362W        W22347   9.183  41.365   2.378
57363W        W22348  13.928  36.501  11.199
57364W        W22349  14.665  23.644  12.273
57365W        W22350  25.123  32.895  13.031
57366W        W22351  38.000   1.375  13.485
57367W        W22352  12.646   2.440   2.723
57368W        W22353   0.550  26.609   3.628
57369W        W22354  42.574  10.229   2.611
57370W        W22355  22.565  36.019   1.212
57371W        W22356   8.179  43.072   3.496
57372W        W22357  12.724  14.224  13.432
57373W        W22358  44.555  11.175   1.757
57374W        W22359   6.750  18.477  11.229
57375W        W22360  38.300  32.807   4.939
57376W        W22361  14.711  27.444  12.999
57377W        W22362  25.501  26.514   0.699
57378W        W22363   0.583  42.330   1.888
57379W        W22364  11.485  14.299   9.747
57380W        W22365  39.963  11.148  12.850
57381W        W22366  18.738  16.386   0.932
57382W        W22367   7.232  13.415   3.877
57383W        W22368   8.923  38.251  13.871
57384W        W22369  34.021  16.191  10.714
57385W        W22370  22.635   2.442   0.287
57386W        W22371  38.266  35.761   0.062
57387W        W22372  29.861  11.150   4.136
57388W        W22373  24.148  12.581   2.825
57389W        W22374  38.286   4.091   4.445
57390W        W22375   5.537  23.607   1.794
57391W        W22376  17.906   8.380   9.580
57392W        W22377  18.516  12.413   4.905
57393W        W22378  39.551  13.551   2.348
57394W        W22379  42.378   7.902  13.420
57395W        W22380  13.218  25.697  11.917
57396W        W22381  32.475  11.576  12.574
57397W        W22382  18.705   9.536   4.986
57398W        W22383   9.368  17.009  13.320
57399W        W22384  27.943  38.112  10.745
57400W        W22385  36.038  20.526   0.430
57401W        W22386  42.552  13.323   2.254
57402W        W22387  44.385   3.308   0.671
57403W        W22388  32.964  35.658  14.949
57404W        W22389  10.181   9.331   1.698
57405W        W22390  40.347  20.984   0.570
57406W        W22391  39.140  40.772  12.959
57407W        W22392  35.460  27.104   1.384
57408W        W22393  19.867  28.427   0.793
57409W        W22394  39.253  36.863   2.434
57410W        W22395   8.404  38.300  13.906
57411W        W22396  28.090  28.164  12.406
57412W        W22397   5.205  42.758   1.718
57413W        W22398   0.804  22.005   3.340
57414W        W22399  20.568   3.449  11.664
57415W        W22400  27.663  11.097  13.828
57416W        W22401  15.281   0.320   1.212
57417W        W22402  14.801  33.156   2.270
57418W        W22403  28.905  32.587   3.232
57419W        W22404   2.376  11.317   2.703
57420W        W22405  43.226  15.584   1.717
57421W        W22406   9.765  24.015  11.982
57422W        W22407  13.593   4.678   4.101
57423W        W22408  33.153   8.231   2.753
57424W        W22409  13.067  43.285  10.917
57425W        W22410   5.196  19.600   0.197
57426W        W22411  35.195  20.192  14.969
57427W        W22412  40.360  16.517   1.295
57428W        W22413  32.062  17.268   1.165
57429W        W22414  34.467  23.362  13.555
57430W        W22415  37.484   0.486  12.857
57431W        W22416   4.383  11.191  10.854
57432W        W22417  38.515  40.008  10.942
57433W        W22418  39.523  31.206  11.126
57434W        W22419  17.354  27.238  12.575
57435W        W22420  33.890   2.653   0.500
57436W        W22421  36.027  37.434   3.623
57437W        W22422  17.362  12.401   3.829
57438W        W22423  28.405  19.769  13.786
57439W        W22424  37.435  14.667   3.277
57440W        W22425  10.732   9.886   2.467
57441W        W22426   7.453  42.516  12.113
57442W        W22427  36.045   7.256  10.553
57443W        W22428  41.232  24.559   1.335
57444W        W22429  31.115  34.582   2.415
57445W        W22430  34.889  28.210  13.388
57446W        W22431  33.413  43.316  11.689
57447W        W22432  27.095  10.316  10.221
57448W        W22433  27.995  37.926  12.003
57449W        W22434   6.478  16.023  13.966
57450W        W22435  33.728  44.800  11.216
57451W        W22436  35.479   9.555   5.544
57452W        W22437  17.528  29.585  13.415
57453W        W22438  28.144  28.541   0.774
57454W        W22439  43.953  26.478   4.664
57455W        W22440  26.173  32.896  12.357
57456W        W22441  35.019  13.306   0.367
57457W        W22442  21.868  34.972  11.142
57458W        W22443  24.937   5.238   2.756
57459W        W22444   9.928  32.153  10.967
57460W        W22445  30.553  41.885   1.789
57461W        W22446  36.551   5.773   2.313
57462W        W22447  16.306  35.283   2.862
57463W        W22448  34.600  42.483   2.325
57464W        W22449   6.871   7.834   1.591
57465W        W22450  35.778  37.082  12.015
57466W        W22451  39.312   7.246  14.739
57467W        W22452  40.094   2.389  14.432
57468W        W22453  38.554  36.157   2.242
57469W        W22454  38.512  13.366  10.940
57470W        W22455  18.965   9.996   0.231
57471W        W22456  34.904  23.147   3.402
57472W        W22457   7.862  19.039  12.979
57473W        W22458   8.152   6.833   0.338
57474W        W22459   0.758  30.413   0.848
57475W        W22460  40.121  27.746  11.097
57476W        W22461   1.026  35.036  11.532
57477W        W22462  32.991  34.069  14.560
57478W        W22463  42.236  12.244   3.292
57479W        W22464  35.370  10.652   1.391
57480W        W22465  25.980  34.156  10.572
57481W        W22466  12.312  12.088  10.722
57482W        W22467   6.534  34.488  13.752
57483W        W22468   8.130  34.310  12.598
57484W        W22469  21.147  41.948  14.718
57485W        W22470  15.354  17.557   2.146
57486W        W22471  18.453  25.077   1.704
57487W        W22472  10.876  40.448   0.022
57488W        W22473  29.608   8.437   3.640
57489W        W22474   3.487  18.592  13.399
57490W        W22475  24.260   3.283  11.200
57491W        W22476   5.407  13.863  11.279
57492W        W22477   5.845  41.038  12.420
57493W        W22478  11.626  11.595  12.600
57494W        W22479  33.957  32.329   3.302
57495W        W22480  35.552  16.081   3.940
57496W        W22481  19.234  34.386   0.882
57497W        W22482   3.794  41.667   4.844
57498W        W22483   1.837  13.573  12.967
57499W        W22484   5.276  11.194  14.243
57500W        W22485  35.747  20.338   0.832
57501W        W22486  41.180  34.552   1.039
57502W        W22487  24.037  12.084  10.922
57503W        W22488  11.547  34.363  12.573
57504W        W22489  17.106  15.009  12.646
57505W        W22490  40.269  18.823   2.691
57506W        W22491  28.135   9.852  10.017
57507W        W22492  11.241  28.751  13.842
57508W        W22493  18.949  13.258  14.284
57509W        W22494  35.732  22.205  11.672
57510W        W22495   1.748  42.760  11.130
57511W        W22496  25.138  20.623  11.602
57512W        W22497  14.088  38.531   4.934
57513W        W22498  39.613  12.673  14.786
57514W        W22499  12.568  16.317  11.154
57515W        W22500  27.399  32.873   0.199
57516W        W22501  42.039   1.730  11.978
57517W        W22502   0.248  12.256  12.064
57518W        W22503  20.074  27.117   5.635
57519W        W22504   0.881  15.067  14.883
57520W        W22505  20.771  15.039   0.841
57521W        W22506  38.369   3.747  14.424
57522W        W22507  43.660  28.180  10.219
57523W        W22508  35.381  34.447   0.023
57524W        W22509  22.722  12.410  10.718
57525W        W22510  44.748  38.836   3.133
57526W        W22511  16.337  22.050  13.942
57527W        W22512  27.315  12.883  14.956
57528W        W22513  41.395  18.332  10.688
57529W        W22514  26.203  18.902  13.479
57530W        W22515  37.836  32.013  12.398
57531W        W22516  41.630  37.881   4.702
57532W        W22517  12.712  35.518   3.567
57533W        W22518   7.091  30.052  14.881
57534W        W22519  18.107  18.051   0.355
57535W        W22520  27.938   3.031  13.053
57536W        W22521   6.632  14.474   1.082
57537W        W22522  18.750  11.948   2.784
57538W        W22523  44.761  29.445  14.785
57539W        W22524  38.351  34.179  11.175
57540W        W22525  40.863  32.106   3.236
57541W        W22526  29.446   6.821  13.964
57542W        W22527  13.295  25.058   4.315
57543W        W22528   7.711  12.351   3.440
57544W        W22529  14.353  34.073   0.019
57545W        W22530  44.401  28.546   9.714
57546W        W22531  28.858  20.663  11.223
57547W        W22532   8.801   1.099   2.177
57548W        W22533  37.367  37.408   5.001
57549W        W22534  42.953  31.003   4.554
57550W        W22535  41.807  30.877  14.553
57551W        W22536  32.142  19.774  14.323
57552W        W22537  38.593  14.320   1.790
57553W        W22538  10.288  27.067   4.416
57554W        W22539  44.822   1.068   0.132
57555W        W22540  18.785  12.175  11.906
57556W        W22541   6.294  39.121   0.831
57557W        W22542  18.784   1.236  10.448
57558W        W22543  24.685  29.090   4.196
57559W        W22544  43.668  22.689  13.747
57560W        W22545   2.398   7.347   1.427
57561W        W22546  30.257  15.862  13.339
57562W        W22547   4.323  40.254   2.752
57563W        W22548  41.410   4.348  12.013
57564W        W22549  32.734  23.578   1.935
57565W        W22550  12.072  39.525  13.994
57566W        W22551  37.013  39.945  13.349
57567W        W22552  29.237  38.877  12.948
57568W        W22553  15.912  28.220   0.202
57569W        W22554   7.414  17.869   1.754
57570W        W22555  14.718   1.439   2.069
57571W        W22556  26.093  15.816  12.923
57572W        W22557  34.510  13.495   9.630
57573W        W22558   4.649  10.972   4.501
57574W        W22559   1.684  40.433   0.231
57575W        W22560  37.804  13.332  12.071
57576W        W22561  10.362   2.752  10.815
57577W        W22562   4.830  40.832   0.298
57578W        W22563  38.012  21.997   3.571
57579W        W22564  12.603  15.855  13.804
57580W        W22565  17.293   5.782   1.747
57581W        W22566  21.869   8.376   3.379
57582W        W22567  11.239   9.383   1.637
57583W        W22568  34.564  34.944   2.978
57584W        W22569   7.342   6.839   4.533
57585W        W22570  15.103  29.110   1.930
57586W        W22571   5.225  37.909  10.449
57587W        W22572  11.690   7.603   1.509
57588W        W22573  18.126   8.153  13.204
57589W        W22574  29.046   3.340  12.043
57590W        W22575   6.742  44.428  10.671
57591W        W22576  43.146  34.457  13.361
57592W        W22577  25.199   6.873  10.724
57593W        W22578  37.692  18.850   0.891
57594W        W22579  30.900  27.165  11.852
57595W        W22580  41.887  23.957  10.756
57596W        W22581  15.610  41.478   0.498
57597W        W22582   2.869  17.578  14.566
57598W        W22583   5.985  42.320   1.623
57599W        W22584  16.259  11.340  13.585
57600W        W22585  42.528  42.865   3.875
57601W        W22586   2.548   8.094  12.168
57602W        W22587  38.377  39.059   1.235
57603W        W22588  35.905  30.769  10.714
57604W        W22589  26.111  43.096   5.529
57605W        W22590   6.476   6.011  12.523
57606W        W22591  13.275  43.256   2.343
57607W        W22592  44.772  21.709   1.590
57608W        W22593  42.962  13.176  14.195
57609W        W22594  20.142  27.172  12.348
57610W        W22595  21.734  23.175   2.505
57611W        W22596  44.916  35.592  11.092
57612W        W22597  39.992  40.278  12.968
57613W        W22598   0.950   5.405   4.148
57614W        W22599   3.993  34.066   1.076
57615W        W22600  30.283  26.921   3.267
57616W        W22601   3.906   8.431  12.322
57617W        W22602   7.800  15.118   2.178
57618W        W22603  27.367   4.797  14.348
57619W        W22604  14.900   2.956   4.134
57620W        W22605   3.987  32.558  10.690
57621W        W22606   2.298  38.114  12.562
57622W        W22607  10.173  34.895  11.664
57623W        W22608  32.676  11.909   0.351
57624W        W22609  27.910  25.529   3.165
57625W        W22610  16.147  36.529  12.431
57626W        W22611   2.210   1.529  11.983
57627W        W22612   7.448  21.631  12.451
57628W        W22613  17.938  35.131   1.820
57629W        W22614  29.539   5.935   4.047
57630W        W22615   3.721  27.503  13.373
57631W        W22616  12.209  29.929  12.466
57632W        W22617  26.078  28.191   3.568
57633W        W22618   1.810  25.024  10.640
57634W        W22619  10.256   0.832  14.821
57635W        W22620  41.553  26.301  10.287
57636W        W22621  20.770  29.523   1.783
57637W        W22622  32.814  32.379   2.687
57638W        W22623  37.994  36.271   5.132
57639W        W22624  31.429   0.794  13.977
57640W        W22625  32.954  25.062  10.953
57641W        W22626  26.009  16.049  11.107
57642W        W22627  28.963  35.110  14.442
57643W        W22628  17.638  44.760   4.239
57644W        W22629  25.136  29.705  14.559
57645W        W22630   1.467  36.016  11.066
57646W        W22631  12.221   1.927   4.617
57647W        W22632  43.588  28.157  13.425
57648W        W22633   9.904   3.229   4.171
57649W        W22634   9.817  25.713   4.176
57650W        W22635  16.674  33.480  11.067
57651W        W22636   3.021  20.606   0.334
57652W        W22637  12.131  37.292  14.902
57653W        W22638  30.689   8.045   2.676
57654W        W22639  14.653   3.398   0.359
57655W        W22640  31.687  41.446   0.812
57656W        W22641  23.155  44.971  13.311
57657W        W22642  34.059  43.463  12.882
57658W        W22643  13.649  21.535   0.382
57659W        W22644  27.909   8.423  12.533
57660W        W22645   9.720  13.968   4.630
57661W        W22646  26.532  10.321   3.623
57662W        W22647  25.010  25.183   3.653
57663W        W22648   9.598  17.139   1.388
57664W        W22649   9.119  38.547   2.194
57665W        W22650  15.152   8.357  11.080
57666W        W22651  35.441  33.142  10.733
57667W        W22652  44.996  21.119  11.251
57668W        W22653  43.423  17.708   2.249
57669W        W22654   5.450  18.343   1.437
57670W        W22655  20.497  31.360  12.575
57671W        W22656  27.982   4.857  10.258
57672W        W22657  41.329  26.885   2.672
57673W        W22658  10.365  40.461   3.058
57674W        W22659  27.522  32.014   1.459
57675W        W22660   0.899  19.404  11.956
57676W        W22661  20.272  36.032  13.277
57677W        W22662  34.634  44.763  11.716
57678W        W22663  30.545  40.735  14.044
57679W        W22664   5.731  20.532   4.728
57680W        W22665  27.706  27.153   1.223
57681W        W22666  32.320  41.839  10.878
57682W        W22667  29.646  39.996   3.658
57683W        W22668  42.476  10.581  13.849
57684W        W22669   6.208  10.859  12.077
57685W        W22670  29.972  11.363   0.258
57686W        W22671  29.024   7.469   4.485
57687W        W22672  11.643  15.090  13.590
57688W        W22673  43.951   1.973  11.760
57689W        W22674  32.564  32.654   0.521
57690W        W22675  28.175  28.579  11.030
57691W        W22676  40.321  11.244   3.662
57692W        W22677  28.229  24.959   1.913
57693W        W22678  27.229  10.211   1.811
57694W        W22679  21.583  40.763  12.004
57695W        W22680  33.740  40.830   4.528
57696W        W22681  44.216  40.550  13.424
57697W        W22682  36.687  21.046  11.059
57698W        W22683  43.201  17.470  13.086
57699W        W22684  19.626  38.500   3.746
57700W        W22685  13.227  41.684   0.361
57701W        W22686  25.035   8.695  11.695
57702W        W22687   9.187  40.615   4.211
57703W        W22688  41.261  19.343   2.175
57704W        W22689   0.919  33.976  12.012
57705W        W22690  36.367  10.912   0.799
57706W        W22691   3.782  31.918  13.471
57707W        W22692   8.377  37.341   1.756
57708W        W22693  30.981  37.610  13.501
57709W        W22694  40.650   7.715   4.555
57710W        W22695   6.806  42.228  14.410
57711W        W22696  22.331  41.019  12.882
57712W        W22697  25.201  21.769  13.489
57713W        W22698  41.430  32.991  14.498
57714W        W22699  40.286   9.270   0.810
57715W        W22700   5.231  23.105  12.831
57716W        W22701  38.071  40.954   3.747
57717W        W22702   4.194  28.407   2.850
57718W        W22703  21.520  35.184   4.970
57719W        W22704  38.965  39.794  11.164
57720W        W22705  21.966  35.580  13.446
57721W        W22706  26.648  42.364  11.674
57722W        W22707  29.237   0.858  11.167
57723W        W22708   6.665   5.352  12.158
57724W        W22709  15.566  30.951  10.696
57725W        W22710  28.617   3.501  13.493
57726W        W22711  35.902  10.110   4.684
57727W        W22712  33.886  14.188  10.471
57728W        W22713  15.589   8.780   2.460
57729W        W22714  32.438  25.154  11.552
57730W        W22715  32.206  20.047  11.142
57731W        W22716   9.739  26.440   4.688
57732W        W22717  24.150  25.454   4.693
57733W        W22718   9.210   1.241  14.048
57734W        W22719  12.825   3.459   1.832
57735W        W22720  13.631  38.522  10.605
57736W        W22721   2.001  36.551  10.686
57737W        W22722  28.667  23.708   4.118
57738W        W22723  30.887  41.371   2.742
57739W        W22724  12.165  35.308   9.964
57740W        W22725  12.084  18.053   3.654
57741W        W22726  22.248   3.781   0.744
57742W        W22727  21.669  22.496   1.840
57743W        W22728   1.838  20.546  13.446
57744W        W22729  37.079  10.620   1.795
57745W        W22730  15.717  29.894  12.052
57746W        W22731  13.879  28.501  12.912
57747W        W22732  24.055  39.429   2.819
57748W        W22733   6.871  14.394  13.048
57749W        W22734   0.315   1.379   3.252
57750W        W22735   6.111   1.917   1.841
57751W        W22736  29.142  12.843   3.621
57752W        W22737  44.465  23.188   5.083
57753W        W22738  29.422  32.777  14.364
57754W        W22739   2.558  31.812   0.153
57755W        W22740  13.141  34.572  13.934
57756W        W22741  36.981  35.156   0.424
57757W        W22742  13.527  16.832  13.766
57758W        W22743  33.695  40.371  10.753
57759W        W22744  29.077   2.818   5.056
57760W        W22745  18.509  27.608  11.026
57761W        W22746  17.119  18.776   3.892
57762W        W22747  12.440   9.933  14.806
57763W        W22748  36.445  19.013  13.468
57764W        W22749  16.543  35.395   3.681
57765W        W22750  15.491  27.040  12.798
57766W        W22751  34.851  26.749   4.377
57767W        W22752  17.172  36.580  11.475
57768W        W22753   4.503  35.563   3.769
57769W        W22754  38.824  34.333   2.411
57770W        W22755  38.779  38.322   3.907
57771W        W22756  42.013  44.220  12.879
57772W        W22757  29.416  19.496  14.431
57773W        W22758  19.941  35.780   5.118
57774W        W22759  19.371  28.112   5.296
57775W        W22760  32.430  18.489   2.279
57776W        W22761  14.330   5.204   1.185
57777W        W22762  24.512  18.603  13.475
57778W        W22763  26.593  28.655  12.899
57779W        W22764  39.238  19.712  12.444
57780W        W22765  22.738   3.082  12.050
57781W        W22766  23.357  18.328  10.945
57782W        W22767   2.887  23.132   1.861
57783W        W22768  17.638  17.206   4.474
57784W        W22769   5.614   0.953  12.155
57785W        W22770  17.379  16.732   4.535
57786W        W22771  27.450  32.490  14.411
57787W        W22772   2.997  22.217  12.471
57788W        W22773  21.484  25.740  11.202
57789W        W22774   4.068   3.239  14.222
57790W        W22775  16.336   2.328  12.317
57791W        W22776  25.550  39.546  11.745
57792W        W22777  16.255  42.972  13.497
57793W        W22778  42.912   6.793  12.321
57794W        W22779   0.483   8.264   0.273
57795W        W22780  26.071  38.828   3.062
57796W        W22781  15.129   3.424  10.722
57797W        W22782  41.469  20.260   1.514
57798W        W22783  43.473  16.285   4.087
57799W        W22784  37.027  43.937   3.625
57800W        W22785  40.878   8.224   4.344
57801W        W22786  10.740  24.202   3.882
57802W        W22787  36.524   7.615  11.195
57803W        W22788  44.546  26.808   5.411
57804W        W22789  18.022  14.237   3.304
57805W        W22790   3.137  10.365   4.241
57806W        W22791  44.446  18.500  10.692
57807W        W22792   2.241  22.575  13.352
57808W        W22793  17.488  36.287   4.154
57809W        W22794  24.039  32.425  13.182
57810W        W22795  16.315  23.534   3.592
57811W        W22796  28.334  36.371   3.150
57812W        W22797  14.761  10.250  11.469
57813W        W22798  32.404  35.326  10.960
57814W        W22799  14.517  38.737   3.789
57815W        W22800  33.364  10.406  12.024
57816W        W22801  10.868   7.137   0.484
57817W        W22802   8.933  15.561  12.024
57818W        W22803  33.925   8.249  13.897
57819W        W22804  12.564  18.318  12.093
57820W        W22805  36.020  22.813   3.703
57821W        W22806  16.210  18.798  14.311
57822W        W22807  36.169   5.616  11.199
57823W        W22808  26.719  14.801   4.183
57824W        W22809  40.351  36.424  12.623
57825W        W22810  39.802   3.594  10.669
57826W        W22811  24.028  14.083  13.839
57827W        W22812  17.072  19.522  14.875
57828W        W22813  41.490  11.167  14.883
57829W        W22814  31.974  26.312  10.320
57830W        W22815  24.269  24.174  12.444
57831W        W22816  29.126   8.914  14.323
57832W        W22817   4.194  18.070  12.655
57833W        W22818  40.998   7.838   0.898
57834W        W22819  30.723  28.972   3.721
57835W        W22820   8.243  36.925   3.712
57836W        W22821  34.401  10.159   1.047
57837W        W22822  23.070  13.374  11.133
57838W        W22823   6.961   7.139  11.990
57839W        W22824  21.286  16.226  10.534
57840W        W22825  36.942  17.253   0.447
57841W        W22826  42.323  42.867  13.034
57842W        W22827  30.372  17.022   1.258
57843W        W22828  43.225  24.379  12.044
57844W        W22829  24.013  24.874   2.853
57845W        W22830   5.655  35.437  13.065
57846W        W22831  17.681  39.941  14.447
57847W        W22832  21.203  15.972   0.722
57848W        W22833  18.565  31.607  14.629
57849W        W22834   4.211   4.079   1.870
57850W        W22835  14.999   1.831  10.747
57851W        W22836  38.839  13.856   9.666
57852W        W22837  15.091  43.525  11.960
57853W        W22838  11.694  27.890  10.792
57854W        W22839  17.318   4.748   4.000
57855W        W22840  28.065   8.407   4.175
57856W        W22841  26.147  37.813  12.864
57857W        W22842   0.992  21.548   3.266
57858W        W22843  37.072  40.777  13.959
57859W        W22844   0.360  16.906   4.633
57860W        W22845  33.205  20.117  10.793
57861W        W22846  43.729   1.877   1.255
57862W        W22847  37.483  42.844   2.591
57863W        W22848   7.267  25.794  11.991
57864W        W22849   7.885  42.041  13.510
57865W        W22850  17.108  43.002  10.563
57866W        W22851  37.555  11.791   2.798
57867W        W22852   7.675  14.658  14.836
57868W        W22853  26.152   9.729  11.997
57869W        W22854  29.549  12.058   3.940
57870W        W22855  36.716   2.808  10.627
57871W        W22856   3.325  13.605   0.928
57872W        W22857  24.366   5.070   4.911
57873W        W22858  34.147  30.543   1.331
57874W        W22859   5.925   7.765  12.972
57875W        W22860  37.039  37.931   2.878
57876W        W22861  24.336  13.197  10.533
57877W        W22862  14.145   8.744  13.014
57878W        W22863  22.278   2.001   0.266
57879W        W22864  24.333  44.024   2.319
57880W        W22865  24.485  32.029   4.205
57881W        W22866  30.947  38.286   2.524
57882W        W22867  20.976  16.075  14.402
57883W        W22868  37.822   2.405  13.978
57884W        W22869  18.079  16.492  12.722
57885W        W22870  44.749   4.626  13.949
57886W        W22871  13.220   4.734   4.480
57887W        W22872  30.073   0.631  14.719
57888W        W22873  25.238  36.822  11.186
57889W        W22874  42.931  37.445   1.788
57890W        W22875  22.741  23.588   3.825
57891W        W22876  11.883  14.663  13.524
57892W        W22877   9.426  26.670  13.346
57893W        W22878  42.012  15.017  11.171
57894W        W22879  27.444  38.458  14.049
57895W        W22880  41.920  26.932   2.708
57896W        W22881   4.367  20.333  13.089
57897W        W22882  26.511   9.404   3.716
57898W        W22883  31.763  33.886  12.185
57899W        W22884   5.710  41.031   0.050
57900W        W22885  13.365  16.593  12.299
57901W        W22886  39.110  24.175  10.770
57902W        W22887  25.646  21.250   1.424
57903W        W22888  43.297   7.071   4.542
57904W        W22889  10.800  42.898  12.924
57905W        W22890  11.084  18.048   2.147
57906W        W22891  24.411  21.762  13.904
57907W        W22892  17.155  31.102   4.271
57908W        W22893  23.480   3.391   0.168
57909W        W22894  14.657  40.204  11.176
57910W        W22895  11.406   9.547   4.555
57911W        W22896  40.533   7.713   2.355
57912W        W22897   8.551  24.358   3.099
57913W        W22898  38.044  21.235  13.927
57914W        W22899   0.901  45.000   2.316
57915W        W22900  15.081  12.681   2.293
57916W        W22901  18.640   1.503   2.364
57917W        W22902  23.034  25.662   0.765
57918W        W22903  31.693  18.080   3.031
57919W        W22904  32.321  28.530   0.832
57920W        W22905   8.680  11.804  10.452
57921W        W22906  31.869  22.834   2.594
57922W        W22907  14.671  15.813  11.962
57923W        W22908  15.838  19.369  10.315
57924W        W22909  42.514  36.960   1.770
57925W        W22910  31.656  15.269  12.391
57926W        W22911  41.834  28.409  14.018
57927W        W22912  42.932  16.053   3.609
57928W        W22913   7.728  12.743  10.733
57929W        W22914  18.279  41.551   0.152
57930W        W22915  40.832   7.356  10.717
57931W        W22916   1.372   5.859   1.169
57932W        W22917  33.409  32.443   1.744
57933W        W22918  19.189  10.643  12.931
57934W        W22919   0.973  14.100   3.205
57935W        W22920  15.644   0.574   2.064
57936W        W22921  20.046  13.550   4.909
57937W        W22922  37.365   8.306  14.772
57938W        W22923   2.228   9.142   1.674
57939W        W22924  38.031  44.409  12.112
57940W        W22925   2.259  32.883  13.973
57941W        W22926  25.236  33.156  13.975
57942W        W22927  36.938  32.120  12.026
57943W        W22928   0.688  44.221  11.239
57944W        W22929  21.150  18.769   1.643
57945W        W22930  21.545  29.494   4.597
57946W        W22931  38.249  37.988  12.974
57947W        W22932  43.451  26.993  12.469
57948W        W22933  13.303   4.478  11.577
57949W        W22934  42.324   7.425   1.786
57950W        W22935  35.272  33.993   4.313
57951W        W22936  30.161  15.020  11.236
57952W        W22937  18.460   1.388  13.751
57953W        W22938  36.059  23.882   0.913
57954W        W22939  20.818  25.145   0.928
57955W        W22940   4.970  35.627   3.964
57956W        W22941  38.705  31.155   4.968
57957W        W22942  40.428   3.636  12.500
57958W        W22943  20.580  21.037   1.868
57959W        W22944  36.973  25.078  14.536
57960W        W22945  14.008  10.055  11.008
57961W        W22946  43.950  33.004  12.946
57962W        W22947  17.213  12.752   2.645
57963W        W22948  37.439  17.312   0.861
57964W        W22949   2.243  12.328   5.007
57965W        W22950   0.792  16.218  11.231
57966W        W22951  13.507  24.551   4.543
57967W        W22952  15.696  32.115   1.310
57968W        W22953  38.622  32.150   2.389
57969W        W22954   5.307  38.658  12.602
57970W        W22955   7.009  36.117  14.520
57971W        W22956  10.203  15.617  10.633
57972W        W22957  27.582   9.214  10.631
57973W        W22958  44.439   4.411   1.903
57974W        W22959  10.540   7.449  14.918
57975W        W22960  38.911  23.223  11.092
57976W        W22961  15.526   9.631   2.297
57977W        W22962  42.488  17.895   2.706
57978W        W22963  16.386   1.163   1.236
57979W        W22964  15.978  37.300  13.259
57980W        W22965  31.087  42.237   2.721
57981W        W22966   2.852  33.816   2.223
57982W        W22967  21.255  31.375   3.338
57983W        W22968  32.887  12.203   0.755
57984W        W22969  44.215   8.250   2.404
57985W        W22970  35.569  24.784  10.566
57986W        W22971  27.098  12.899   3.620
57987W        W22972   1.667  20.623  14.285
57988W        W22973  18.591  12.348  14.029
57989W        W22974   1.001  34.340  13.880
57990W        W22975  10.793  28.970  11.958
57991W        W22976  23.347  15.895  12.989
57992W        W22977  17.717  44.401   1.545
57993W        W22978  10.619  33.354   3.750
57994W        W22979   6.212   4.580   3.735
57995W        W22980  21.137  13.775   1.259
57996W        W22981   2.853  27.691   0.258
57997W        W22982   1.182  34.938   2.596
57998W        W22983  10.455  33.108   4.211
57999W        W22984   9.411   7.533   1.811
58000W        W22985   9.071  15.785  11.563
58001W        W22986   5.215  44.336   3.683
58002W        W22987  38.959  39.085   2.305
58003W        W22988  39.003  15.400  14.912
58004W        W22989   6.621   6.719  11.874
58005W        W22990  34.715  42.523   1.709
58006W        W22991  34.738  15.919  12.917
58007W        W22992   0.794  37.779  12.937
58008W        W22993  22.914  38.775  13.880
58009W        W22994  36.896  36.003  14.135
58010W        W22995   6.770  16.995  11.453
58011W        W22996  31.622  25.722   4.750
58012W        W22997   7.190  36.624  14.690
58013W        W22998  31.088  21.690  12.407
58014W        W22999  14.810  10.316   4.107
58015W        W23000  33.287  30.420   0.940
58016W        W23001  42.394  11.386   3.331
58017W        W23002   6.189  29.982   0.688
58018W        W23003  44.352  31.628  13.588
58019W        W23004   7.374  11.247  12.949
58020W        W23005  22.297  38.277   2.779
58021W        W23006  40.900  43.846   0.447
58022W        W23007  21.569  44.001   1.492
58023W        W23008  42.265   6.263   0.782
58024W        W23009  36.403   1.799   3.184
58025W        W23010  44.254  44.715  11.599
58026W        W23011  42.514  43.447  13.940
58027W        W23012  40.325   2.351   1.244
58028W        W23013  25.975  39.444   0.323
58029W        W23014  21.122  15.822   4.366
58030W        W23015  33.819   1.773  14.523
58031W        W23016  39.300  15.049  14.072
58032W        W23017   4.210  37.105  13.235
58033W        W23018   4.074   0.032   3.387
58034W        W23019  20.133  22.708   3.209
58035W        W23020  19.093  15.120  13.552
58036W        W23021  10.443  38.539   2.250
58037W        W23022   3.340   2.239   2.689
58038W        W23023  34.299   5.805  14.444
58039W        W23024  26.933  21.039   3.699
58040W        W23025  23.281   3.812  10.620
58041W        W23026  43.921  36.526  11.311
58042W        W23027  41.386  44.807  12.501
58043W        W23028  11.801  16.115  14.893
58044W        W23029   9.792  41.497   1.108
58045W        W23030  29.889  20.950   4.187
58046W        W23031  41.811   1.977  13.500
58047W        W23032   3.944  36.031  14.886
58048W        W23033  40.525  20.341  11.454
58049W        W23034   0.434  36.870   1.516
58050W        W23035  17.236  19.854  13.260
58051W        W23036   3.233  23.910   4.983
58052W        W23037  16.203  43.263   0.293
58053W        W23038  34.064  10.373   2.831
58054W        W23039   2.823  42.184   2.311
58055W        W23040   5.515  12.692  11.854
58056W        W23041  11.682  35.356  11.173
58057W        W23042   0.252  17.610  12.958
58058W        W23043  23.985  34.028  14.923
58059W        W23044  20.279  25.508   1.475
58060W        W23045  28.521  18.436   1.377
58061W        W23046  33.465  21.750   2.661
58062W        W23047  36.976  31.575   0.733
58063W        W23048  25.200  42.096  13.631
58064W        W23049  15.634   7.780   1.484
58065W        W23050   7.255  13.364  13.369
58066W        W23051  43.837   1.516   4.806
58067W        W23052   8.626  12.796   1.752
58068W        W23053  41.145   6.867   3.798
58069W        W23054  33.876  44.764   1.754
58070W        W23055  19.287  19.439  12.682
58071W        W23056  16.895   5.987  13.366
58072W        W23057  28.049  31.365   3.192
58073W        W23058   1.176   7.180  12.850
58074W        W23059   7.097  41.337   0.563
58075W        W23060  19.327  44.792   1.552
58076W        W23061  24.629   2.002  12.909
58077W        W23062  14.292  13.710   5.065
58078W        W23063   1.694  30.040  12.948
58079W        W23064  38.360  41.810   1.266
58080W        W23065  10.150  35.380  12.510
58081W        W23066   9.737  37.126   0.778
58082W        W23067  22.379  40.655  12.450
58083W        W23068  14.890  21.515  14.355
58084W        W23069  16.116  30.505   1.440
58085W        W23070  26.216  13.172   3.816
58086W        W23071  21.010   5.796  14.548
58087W        W23072  10.407  23.899   1.145
58088W        W23073  14.650  30.653   0.273
58089W        W23074  14.673  10.908  14.835
58090W        W23075  29.901  31.231   5.537
58091W        W23076  21.262   4.326  10.062
58092W        W23077  30.484  13.278   3.327
58093W        W23078   0.716  29.176   1.744
58094W        W23079  15.122  19.720  13.229
58095W        W23080  40.764   8.300  11.065
58096W        W23081  27.068   7.489   1.397
58097W        W23082  37.973  13.024   2.394
58098W        W23083   4.051  14.672  14.355
58099W        W23084   7.158  41.549   1.451
58100W        W23085   1.608   2.982   4.970
58101W        W23086  24.897  44.750   3.770
58102W        W23087  34.901  25.930  14.876
58103W        W23088  19.956  36.661   0.876
58104W        W23089  23.836  24.700  14.045
58105W        W23090  23.023  22.595   0.202
58106W        W23091  37.084   6.885  13.380
58107W        W23092   2.892   8.899  11.831
58108W        W23093   0.949   8.352   3.742
58109W        W23094  25.969   4.287   4.213
58110W        W23095   7.212  11.638   4.243
58111W        W23096  44.945  16.697  13.052
58112W        W23097  21.973  33.094   2.808
58113W        W23098  16.297  30.645  11.037
58114W        W23099  34.131  43.409   4.658
58115W        W23100  19.162  23.131   2.346
58116W        W23101  16.247  40.529   3.643
58117W        W23102  20.304  42.257   4.656
58118W        W23103   1.203   9.940   0.823
58119W        W23104  18.281   2.501   4.577
58120W        W23105   6.612  28.925  13.893
58121W        W23106   1.262   3.447  10.682
58122W        W23107  38.500  38.141  13.427
58123W        W23108  13.724   9.651   2.691
58124W        W23109  41.895   7.318   0.769
58125W        W23110  27.096   8.987   1.329
58126W        W23111  42.449  41.919  12.809
58127W        W23112  17.544   1.691  14.474
58128W        W23113  28.701   2.199   2.425
58129W        W23114   4.263  14.061   0.879
58130W        W23115   7.292  13.576  14.538
58131W        W23116  12.839  11.762  12.934
58132W        W23117  26.687  44.206   0.033
58133W        W23118  36.901  40.457   4.568
58134W        W23119   0.333  25.077  10.992
58135W        W23120  19.496  12.151   1.713
58136W        W23121  10.142  34.352  13.950
58137W        W23122   0.843  27.334  11.250
58138W        W23123   0.940   6.985   1.871
58139W        W23124  41.810  33.792   0.898
58140W        W23125  10.598  32.032   0.257
58141W        W23126  42.978  39.561   2.717
58142W        W23127  35.949   5.222  14.831
58143W        W23128  24.043   0.939   4.488
58144W        W23129   3.991   1.935  11.197
58145W        W23130  37.332  32.025  10.685
58146W        W23131   6.217  17.744  13.383
58147W        W23132  37.386   1.910   1.248
58148W        W23133  34.884  38.082  14.735
58149W        W23134   2.021   3.312   4.296
58150W        W23135  17.785  44.801   3.366
58151W        W23136  32.041   5.107  12.362
58152W        W23137  30.952  43.341  11.115
58153W        W23138  30.663  43.334   4.877
58154W        W23139  20.252  42.248  12.053
58155W        W23140  16.684  29.755   4.692
58156W        W23141   7.358  19.964   2.171
58157W        W23142   2.867  38.830   2.036
58158W        W23143   9.764  35.085  10.658
58159W        W23144   0.780   8.854  10.229
58160W        W23145  43.093  22.154  10.640
58161W        W23146  22.819  29.709  10.155
58162W        W23147  22.484   6.018  14.114
58163W        W23148  22.992  14.373   2.304
58164W        W23149  34.391  27.975  11.051
58165W        W23150  32.987   6.343  12.459
58166W        W23151   0.335  28.141  11.066
58167W        W23152  23.048  34.904   3.285
58168W        W23153   3.845  19.074   1.292
58169W        W23154  14.434  42.843  10.208
58170W        W23155  31.006  15.273   1.047
58171W        W23156  17.326  21.742   3.209
58172W        W23157  25.259  12.840  14.883
58173W        W23158  32.114  21.946   0.547
58174W        W23159   2.013  11.682   1.437
58175W        W23160  10.723   7.816   2.630
58176W        W23161  42.396  44.758  12.173
58177W        W23162   9.341  31.989  13.716
58178W        W23163  22.462   5.002  11.206
58179W        W23164   6.709  18.305  10.754
58180W        W23165  18.502  42.986   2.830
58181W        W23166   1.171   5.614  10.372
58182W        W23167  42.086  22.186  10.658
58183W        W23168  41.863  17.263   3.594
58184W        W23169  37.388  26.012   0.570
58185W        W23170  41.050  35.567   3.606
58186W        W23171  29.686  36.092   4.662
58187W        W23172  14.281  38.948   4.669
58188W        W23173  27.586  21.160  12.508
58189W        W23174  18.284   4.661   3.588
58190W        W23175  26.945  39.569   0.433
58191W        W23176  19.371   2.737   1.920
58192W        W23177  16.810  31.717  11.000
58193W        W23178  38.424  10.868  11.378
58194W        W23179  36.156   6.015   3.350
58195W        W23180  19.098  23.180  14.434
58196W        W23181  26.421  16.244  14.476
58197W        W23182  12.082   3.712   0.335
58198W        W23183  12.381  31.623  12.767
58199W        W23184   4.222   4.944  11.516
58200W        W23185  23.486  14.846  10.760
58201W        W23186   6.153  22.672   1.837
58202W        W23187  18.830  20.147   0.837
58203W        W23188  21.537  33.760   4.623
58204W        W23189  12.053  26.457   2.398
58205W        W23190  21.252  42.528   4.227
58206W        W23191  33.806  23.685  13.849
58207W        W23192  44.007   7.108  13.710
58208W        W23193   1.811  27.989   1.086
58209W        W23194   0.053  14.189  10.660
58210W        W23195  10.956   8.928   1.720
58211W        W23196  20.416  35.135   4.933
58212W        W23197  16.722  21.678   3.269
58213W        W23198  15.417   6.626   2.475
58214W        W23199  39.826   8.092   0.292
58215W        W23200  15.523  15.227  14.661
58216W        W23201  11.783   9.412   1.640
58217W        W23202  16.746   6.525   5.332
58218W        W23203  43.482  34.131  12.054
58219W        W23204  23.168  17.879  11.087
58220W        W23205  12.655   4.025  13.328
58221W        W23206  32.974  31.689  10.448
58222W        W23207  16.888  36.861  11.929
58223W        W23208  23.267   4.247  14.590
58224W        W23209  35.417  44.441  12.307
58225W        W23210  42.083  22.579   3.326
58226W        W23211  24.534  33.539  13.367
58227W        W23212  37.317  15.274  12.501
58228W        W23213  12.636  42.540   3.559
58229W        W23214  23.506  41.886   4.922
58230W        W23215  20.918   7.155  10.738
58231W        W23216  16.080  23.460  14.321
58232W        W23217  17.340   8.113  12.943
58233W        W23218   0.764  27.047   3.792
58234W        W23219  13.276  33.934   2.067
58235W        W23220  41.478  22.666   1.253
58236W        W23221   3.758   6.351   0.899
58237W        W23222  15.278  24.504  14.916
58238W        W23223  28.806  11.416  12.304
58239W        W23224  14.876  38.322  13.190
58240W        W23225  15.376  15.148   1.283
58241W        W23226  31.626  32.209  14.077
58242W        W23227  11.194  26.874  11.472
58243W        W23228  25.196  14.249   0.265
58244W        W23229  38.126  29.547  12.029
58245W        W23230   0.019  36.689  10.062
58246W        W23231  11.225   1.444  10.986
58247W        W23232  44.796  33.961   4.390
58248W        W23233  25.664   4.984  13.598
58249W        W23234  27.977  14.269   1.336
58250W        W23235   4.221   2.230   2.803
58251W        W23236   9.711  22.288  13.013
58252W        W23237   7.860  21.694  13.843
58253W        W23238  37.389   6.851  11.596
58254W        W23239   5.685  20.631   2.417
58255W        W23240  13.729  24.025  13.362
58256W        W23241  24.620   5.860  10.591
58257W        W23242  44.275  25.610   0.660
58258W        W23243  43.247  33.467   0.723
58259W        W23244  10.125  28.657   2.256
58260W        W23245  21.067   9.383   3.481
58261W        W23246  42.105  26.457   2.969
58262W        W23247  34.190  14.449   2.126
58263W        W23248  23.467  32.180  10.199
58264W        W23249  33.513  40.348   4.564
58265W        W23250  39.344  42.707  14.214
58266W        W23251  24.067  43.981   0.547
58267W        W23252  36.093   0.466   1.508
58268W        W23253  10.809  41.291  13.950
58269W        W23254  35.817  27.494   1.741
58270W        W23255  10.249  32.649   4.506
58271W        W23256  34.437   1.043  11.616
58272W        W23257  34.056  21.994   3.213
58273W        W23258  33.331   3.327   0.837
58274W        W23259  12.860  26.155   3.592
58275W        W23260  23.137   4.776  11.928
58276W        W23261   8.158  42.866   0.910
58277W        W23262  30.508  37.350   1.566
58278W        W23263  29.946  27.343  14.322
58279W        W23264  16.429  21.120   1.350
58280W        W23265  11.273  28.442  11.503
58281W        W23266   2.960  28.757  12.850
58282W        W23267  15.412   0.309  14.429
58283W        W23268  16.000  23.612  11.917
58284W        W23269  40.547  30.583  12.117
58285W        W23270  31.612   7.618  12.194
58286W        W23271   7.267  36.927  12.475
58287W        W23272  42.398  43.254  11.207
58288W        W23273  35.500   4.522   4.800
58289W        W23274   2.273   5.272   2.839
58290W        W23275  38.686   8.823   2.698
58291W        W23276  31.573   1.136  10.714
58292W        W23277  11.787  43.006   0.306
58293W        W23278  34.724  31.277   1.689
58294W        W23279  22.192  34.221  11.960
58295W        W23280   3.661  24.016  14.858
58296W        W23281  38.637  38.941   2.706
58297W        W23282  15.404  16.066  12.526
58298W        W23283  34.545   5.500  11.548
58299W        W23284  25.634  17.157  13.983
58300W        W23285  24.657   6.329  12.834
58301W        W23286  25.311  38.310  12.951
58302W        W23287  36.482   7.457   4.549
58303W        W23288  17.843  13.599   0.031
58304W        W23289  35.084  35.996  10.815
58305W        W23290   6.424  35.526  13.855
58306W        W23291  18.826   1.818   4.483
58307W        W23292  34.302  25.024  14.750
58308W        W23293  36.982  38.567  13.131
58309W        W23294  10.221  14.251   4.597
58310W        W23295  18.220  41.053   4.453
58311W        W23296  22.758  14.611  11.132
58312W        W23297  16.734   7.746  14.380
58313W        W23298  12.680   6.030   0.624
58314W        W23299  23.370   7.631  13.956
58315W        W23300   1.505  14.565  12.530
58316W        W23301  29.499  29.960   1.799
58317W        W23302  35.916  21.547   4.354
58318W        W23303  27.702  24.679   3.264
58319W        W23304  36.826  37.124  12.799
58320W        W23305  35.497  38.508   0.394
58321W        W23306   7.641  36.903   2.280
58322W        W23307  39.380  25.690   1.871
58323W        W23308  39.582  19.360   4.532
58324W        W23309  12.132  35.294   1.332
58325W        W23310  36.088   7.478   1.143
58326W        W23311  12.913  34.022   1.704
58327W        W23312  37.915   1.716   4.161
58328W        W23313  40.991   8.693   1.799
58329W        W23314  43.040  30.665  11.117
58330W        W23315  34.967   6.171  14.065
58331W        W23316  24.311  34.326   1.829
58332W        W23317  20.980  16.622   0.232
58333W        W23318  36.131  34.960  10.523
58334W        W23319  13.226  15.614  11.870
58335W        W23320   7.643   8.279  14.293
58336W        W23321  22.185  11.057   1.269
58337W        W23322  40.453  24.163  13.482
58338W        W23323  21.504  24.592   4.407
58339W        W23324  25.400   6.725  14.316
58340W        W23325   0.693  39.498  13.417
58341W        W23326  29.110  15.526  13.851
58342W        W23327   9.205   8.402   2.146
58343W        W23328  22.247   9.460  13.087
58344W        W23329  37.037  25.485   2.194
58345W        W23330   3.830  22.768  13.775
58346W        W23331  33.434  20.316  13.424
58347W        W23332   5.870  31.846   3.863
58348W        W23333  10.378   0.788  11.910
58349W        W23334  31.541  37.756  14.457
58350W        W23335  21.111  37.722   3.307
58351W        W23336  14.080  21.570   1.365
58352W        W23337   0.176  40.882   0.761
58353W        W23338  17.520  44.574  14.978
58354W        W23339  23.669   2.768  13.439
58355W        W23340  36.500  32.116  11.466
58356W        W23341  20.271  33.762   2.675
58357W        W23342  39.931   6.504   3.785
58358W        W23343   3.702  26.878   0.327
58359W        W23344  20.755   9.203   3.851
58360W        W23345  36.508  30.160   3.705
58361W        W23346  14.836  35.917   4.604
58362W        W23347   8.651  13.684  11.998
58363W        W23348  26.611  30.438   2.379
58364W        W23349   0.485  33.536  13.782
58365W        W23350  15.675  14.241   4.667
58366W        W23351  33.515  10.831   2.303
58367W        W23352  24.670  28.180  12.960
58368W        W23353  10.741  44.374  10.558
58369W        W23354   7.167  33.131  14.058
58370W        W23355  38.495  17.747  11.727
58371W        W23356   4.754  24.045   2.364
58372W        W23357  21.104  32.402   0.897
58373W        W23358   0.975  33.344   2.396
58374W        W23359  17.199   8.544   1.363
58375W        W23360  43.596  35.012  14.837
58376W        W23361  22.165  35.813  13.878
58377W        W23362  27.918  12.357  14.328
58378W        W23363   2.904  40.280  11.842
58379W        W23364  38.348  36.993   2.494
58380W        W23365   2.399  16.149   1.528
58381W        W23366  24.250  32.983   2.817
58382W        W23367   6.660   6.228  12.062
58383W        W23368  40.122  31.595  12.978
58384W        W23369  27.079  35.062   1.274
58385W        W23370  25.562  18.405  10.814
58386W        W23371  32.168  12.360   1.976
58387W        W23372  41.025  28.633  11.483
58388W        W23373  23.938  31.023   1.669
58389W        W23374  26.165  19.586  10.458
58390W        W23375  31.939  28.887  14.399
58391W        W23376   8.766  43.545   2.204
58392W        W23377  33.702  15.608  10.743
58393W        W23378  13.294   5.135  12.170
58394W        W23379  12.664  42.241  11.605
58395W        W23380  24.594   0.790   4.993
58396W        W23381  31.548   8.597  10.646
58397W        W23382  42.563  18.969  12.900
58398W        W23383  41.827  18.236  12.927
58399W        W23384  15.654  33.425   4.707
58400W        W23385  33.101   2.542  14.579
58401W        W23386  43.069  34.317  10.356
58402W        W23387  29.655   2.818   2.925
58403W        W23388   8.944  16.674  12.981
58404W        W23389   1.936  38.354   1.962
58405W        W23390  11.310  40.318   4.670
58406W        W23391  29.102  32.910  14.791
58407W        W23392  31.110  31.601   3.332
58408W        W23393   5.898  11.903  12.221
58409W        W23394  15.669  13.937  14.292
58410W        W23395   2.312   7.459   4.568
58411W        W23396  16.232   9.947   2.798
58412W        W23397  18.540   6.545   2.425
58413W        W23398   3.984  40.716  11.119
58414W        W23399  28.696  22.600   0.746
58415W        W23400  23.554  35.180  14.987
58416W        W23401  30.120  18.048   3.297
58417W        W23402  32.349  34.460  13.059
58418W        W23403   3.853  26.444   3.819
58419W        W23404  32.533   8.909  13.155
58420W        W23405  38.265  24.772  11.174
58421W        W23406  44.441  36.860   3.757
58422W        W23407  13.581   4.887   2.737
58423W        W23408  10.041  34.522  13.487
58424W        W23409   9.202  26.567  12.879
58425W        W23410  39.558   5.320  10.229
58426W        W23411  31.690  41.693   3.885
58427W        W23412   0.167   2.234  11.089
58428W        W23413  23.483  37.949  14.022
58429W        W23414  28.521  21.070  13.997
58430W        W23415  23.051   6.219  10.957
58431W        W23416  42.476  33.618   2.269
58432W        W23417   6.163   4.698  12.916
58433W        W23418  12.874  38.599  11.120
58434W        W23419  32.039  17.365  10.787
58435W        W23420  16.553  29.154  13.070
58436W        W23421  43.964  35.475   2.456
58437W        W23422  27.660  25.447   3.609
58438W        W23423  14.285  21.266  11.395
58439W        W23424   4.470  11.742  10.682
58440W        W23425  32.450   4.940   1.915
58441W        W23426   8.647   1.051  14.243
58442W        W23427  33.072   5.154   0.772
58443W        W23428  30.524  30.356  12.921
58444W        W23429  33.041  37.026   0.252
58445W        W23430  40.458  12.582  10.577
58446W        W23431   2.278   4.362  11.667
58447W        W23432  27.535  41.288  12.952
58448W        W23433  25.559  32.465   0.293
58449W        W23434  43.334   3.665   2.039
58450W        W23435  37.110  18.988  13.119
58451W        W23436   7.823   1.840  13.133
58452W        W23437  33.243  18.940  12.924
58453W        W23438  38.350   2.046   3.965
58454W        W23439  22.007  25.463   3.699
58455W        W23440  39.338  33.575   2.396
58456W        W23441  11.186   4.110  11.364
58457W        W23442  40.124  38.338  14.449
58458W        W23443  29.689  38.252  11.173
58459W        W23444  23.718  20.712  12.462
58460W        W23445   3.227  18.239  11.603
58461W        W23446   8.881  11.840  12.061
58462W        W23447  18.182  39.279   2.163
58463W        W23448  32.622  27.617   0.900
58464W        W23449  27.102  22.008   1.611
58465W        W23450  41.018  19.554   1.693
58466W        W23451  19.324  14.785  12.206
58467W        W23452  40.812   3.461  14.068
58468W        W23453  39.395  41.658   4.328
58469W        W23454   7.386  23.808  11.811
58470W        W23455  44.496  27.122   1.853
58471W        W23456  24.111  11.734   2.269
58472W        W23457  21.720  36.411   4.632
58473W        W23458  43.839  29.955  13.034
58474W        W23459  23.926  14.040  14.767
58475W        W23460  13.733  28.943  10.741
58476W        W23461  19.448  34.887  10.876
58477W        W23462  19.371   6.036  12.735
58478W        W23463  20.601  21.992  13.159
58479W        W23464  17.657  36.472  13.543
58480W        W23465  14.776  23.290   5.177
58481W        W23466   6.281  12.130   1.587
58482W        W23467  16.100   8.345   3.213
58483W        W23468   5.221  42.457   4.887
58484W        W23469  31.964  13.258   4.250
58485W        W23470   6.448  15.299   5.030
58486W        W23471  41.482  12.884   1.748
58487W        W23472   9.749  44.714   1.463
58488W        W23473  11.775  29.106   1.343
58489W        W23474   6.817  32.616   2.612
58490W        W23475  35.986   9.882  12.075
58491W        W23476  35.622  38.440  14.325
58492W        W23477   7.894   4.705  14.818
58493W        W23478  32.334  28.511  10.413
58494W        W23479  29.683  13.099   5.020
58495W        W23480  26.057  18.315  12.822
58496W        W23481   0.459  16.019  11.954
58497W        W23482  35.397  15.651  13.501
58498W        W23483  36.542  36.273  13.860
58499W        W23484   0.309  36.068   0.490
58500W        W23485  13.272  19.782   1.431
58501W        W23486  10.511  34.013   4.758
58502W        W23487  15.324  36.567   0.888
58503W        W23488  35.776  44.135   4.104
58504W        W23489  10.791   1.632   4.549
58505W        W23490  18.756  17.079  13.576
58506W        W23491  17.348  28.274   3.751
58507W        W23492  35.324  37.609  10.565
58508W        W23493   7.371  28.864  12.171
58509W        W23494   1.967   2.562   5.019
58510W        W23495  21.498  37.914   4.070
58511W        W23496  19.657  13.018   1.787
58512W        W23497   2.140   9.719   2.843
58513W        W23498  43.046   8.376  14.426
58514W        W23499  32.386  24.593  13.035
58515W        W23500   0.950  23.488  14.432
58516W        W23501  33.967  41.554   0.000
58517W        W23502  33.974   4.918   4.221
58518W        W23503  38.076  37.333  11.406
58519W        W23504  20.553  32.684  11.166
58520W        W23505  22.743  20.571  12.102
58521W        W23506  44.504  15.145   5.049
58522W        W23507  40.476  10.619  10.832
58523W        W23508  40.520  20.821  10.123
58524W        W23509  10.057  18.694  14.845
58525W        W23510  10.689  19.716   3.288
58526W        W23511  33.963  33.900  13.785
58527W        W23512  13.553  29.616  13.908
58528W        W23513  23.881   7.860   2.102
58529W        W23514  32.361  15.730   4.576
58530W        W23515  41.188   1.796   4.977
58531W        W23516  16.301  20.174  12.027
58532W        W23517   8.202  15.026   1.590
58533W        W23518   2.784   8.638  14.456
58534W        W23519  43.582  32.874   5.046
58535W        W23520  21.078   0.561  14.896
58536W        W23521  44.492  30.056  10.384
58537W        W23522  38.117  19.844  11.101
58538W        W23523  15.123  15.145   3.813
58539W        W23524  19.232  36.953  10.754
58540W        W23525  20.649  10.806  14.797
58541W        W23526   7.726  23.975   3.132
58542W        W23527  40.126  26.617  11.256
58543W        W23528  41.252  20.517  14.352
58544W        W23529  13.957  34.556  12.465
58545W        W23530   1.506  14.270   2.862
58546W        W23531  10.098   7.124   4.169
58547W        W23532  35.757  34.482   2.908
58548W        W23533  20.507  44.882  10.744
58549W        W23534  32.505  12.572  12.399
58550W        W23535  30.770  38.510  11.060
58551W        W23536  38.787  33.417  13.407
58552W        W23537  36.972  23.102  11.607
58553W        W23538  38.054  25.090   1.511
58554W        W23539   3.747   7.689  14.405
58555W        W23540  42.270  28.233   9.880
58556W        W23541  36.990  21.481  12.152
58557W        W23542  25.777   6.661  11.541
58558W        W23543   8.842  21.101  13.417
58559W        W23544  25.707  10.894  11.145
58560W        W23545  21.034  16.587  11.713
58561W        W23546  21.518  30.155  11.606
58562W        W23547  18.665   2.257  13.914
58563W        W23548  18.341   9.886   1.807
58564W        W23549  37.271  43.040  12.112
58565W        W23550  23.277  34.204  12.292
58566W        W23551  26.900  21.690  13.697
58567W        W23552  11.788   4.881   1.712
58568W        W23553   6.517  17.316   2.756
58569W        W23554   7.746   0.389   2.152
58570W        W23555  19.008  10.635  11.970
58571W        W23556   9.653  36.536   4.660
58572W        W23557  11.183  22.234  12.667
58573W        W23558  42.511  25.525  12.145
58574W        W23559   0.806  44.950  13.413
58575W        W23560  39.435  11.228  13.006
58576W        W23561  12.703  25.518  12.583
58577W        W23562  35.327  31.958   0.342
58578W        W23563  20.078  24.135  11.122
58579W        W23564  22.540   8.425  12.563
58580W        W23565  21.036  13.125  10.663
58581W        W23566  13.792  32.692  13.348
58582W        W23567  15.093  39.097  10.568
58583W        W23568  44.323  42.671  12.913
58584W        W23569  27.443  29.984  12.271
58585W        W23570  12.106  23.759  14.861
58586W        W23571  44.009  42.926   1.250
58587W        W23572  39.280   5.944   1.881
58588W        W23573   1.775  44.721   0.295
58589W        W23574   4.393  26.092   0.359
58590W        W23575  33.299   6.625   2.304
58591W        W23576   8.440  42.966   4.786
58592W        W23577  35.585  25.637   4.586
58593W        W23578  19.615  43.936   3.658
58594W        W23579  24.466   2.591   2.922
58595W        W23580  31.586   8.666  12.152
58596W        W23581   2.891   0.983  12.579
58597W        W23582   9.128  31.827   2.837
58598W        W23583  19.599  11.187   1.834
58599W        W23584  24.881  23.009   1.826
58600W        W23585  18.839   8.405  11.597
58601W        W23586  16.562  19.173   0.221
58602W        W23587  40.175  15.254  14.009
58603W        W23588  40.843  19.790  11.673
58604W        W23589   8.049  16.495   1.522
58605W        W23590   4.314  29.619   3.705
58606W        W23591  15.564  17.105  12.244
58607W        W23592  20.714  41.318  12.568
58608W        W23593  44.884  16.568  10.666
58609W        W23594   0.573  28.630   4.482
58610W        W23595  31.716  12.075  11.416
58611W        W23596  29.002   6.842  10.587
58612W        W23597  13.710   4.444  11.897
58613W        W23598  20.785  22.563  14.825
58614W        W23599  23.392  36.049  11.178
58615W        W23600   0.732  29.061   0.871
58616W        W23601  21.638  18.772  12.222
58617W        W23602  25.223  19.068  12.484
58618W        W23603  24.995   9.516   1.902
58619W        W23604   5.415   3.011  10.722
58620W        W23605  13.800  11.666  13.878
58621W        W23606  31.143  20.528   4.488
58622W        W23607  42.047   1.520   1.768
58623W        W23608  39.609  29.932   4.655
58624W        W23609  16.274  24.176   3.140
58625W        W23610   8.220   3.387  14.437
58626W        W23611   6.498   8.802   0.767
58627W        W23612   8.642  39.547  10.426
58628W        W23613  11.197  11.932  12.560
58629W        W23614   2.970  20.882  14.886
58630W        W23615  25.023  34.175  14.779
58631W        W23616  15.996   1.308   2.605
58632W        W23617  11.261   1.232  13.597
58633W        W23618   3.799   1.878   4.594
58634W        W23619  22.067  12.343  12.844
58635W        W23620  14.180  37.617   1.876
58636W        W23621   2.923   6.822  11.543
58637W        W23622   1.884  25.205   3.581
58638W        W23623   7.375  19.646  14.080
58639W        W23624  17.877  22.068  13.030
58640W        W23625   6.919  19.171   1.857
58641W        W23626  39.243   7.328   1.092
58642W        W23627  10.769  43.822   2.605
58643W        W23628  42.264   2.333  13.871
58644W        W23629  37.381  27.447   2.167
58645W        W23630   6.151   8.368  14.478
58646W        W23631  36.541   5.476  14.463
58647W        W23632  25.977  25.479  12.591
58648W        W23633   4.696  10.229   2.216
58649W        W23634  32.278  22.007  10.933
58650W        W23635  32.929  41.855  12.563
58651W        W23636  35.817  16.203   2.470
58652W        W23637  32.010  30.199   2.823
58653W        W23638  10.208  10.491  14.318
58654W        W23639  24.952  39.372  12.501
58655W        W23640  41.950  39.779   2.296
58656W        W23641  19.714  34.402   2.327
58657W        W23642  36.340  40.861  10.635
58658W        W23643  16.191  19.552   0.271
58659W        W23644  43.708  41.447  14.924
58660W        W23645  15.637  22.414   3.795
58661W        W23646  37.359  42.710   9.969
58662W        W23647  43.362  24.317  14.260
58663W        W23648  13.264  43.525  13.896
58664W        W23649  23.921  33.979   3.626
58665W        W23650  24.469  27.562  11.666
58666W        W23651  37.795  20.553   0.317
58667W        W23652  37.136  26.587  12.525
58668W        W23653  34.469   7.083  12.348
58669W        W23654  30.266  38.525  14.281
58670W        W23655  36.395  24.761   1.799
58671W        W23656  20.674  34.141  14.258
58672W        W23657  41.251  23.572  13.098
58673W        W23658  38.409  40.782   4.548
58674W        W23659  19.646   4.708   4.504
58675W        W23660  29.261  14.317   0.265
58676W        W23661  25.066  26.541   1.634
58677W        W23662   9.634  35.372  11.253
58678W        W23663  25.968   4.602  13.749
58679W        W23664  21.253  25.233  14.972
58680W        W23665  36.494  32.217  10.954
58681W        W23666   2.208  22.016  10.804
58682W        W23667  10.009  12.940   4.583
58683W        W23668  40.412  14.792  14.009
58684W        W23669   1.891  25.949   1.734
58685W        W23670  14.302  38.332   0.217
58686W        W23671   4.001  25.463   0.575
58687W        W23672  16.593  23.235  11.439
58688W        W23673  24.128  44.873  12.086
58689W        W23674  23.561  30.006  10.767
58690W        W23675  28.408  37.410  14.973
58691W        W23676  43.005  23.148  12.933
58692W        W23677  16.593  22.692   1.573
58693W        W23678  24.150   7.667  10.783
58694W        W23679  37.716  28.930   1.508
58695W        W23680  26.869   7.350   5.055
58696W        W23681  29.865  16.214   3.196
58697W        W23682  23.544  12.690   0.847
58698W        W23683   8.735   3.458   0.407
58699W        W23684  39.843   7.347   4.670
58700W        W23685  19.346  21.809  11.967
58701W        W23686  25.620  33.807  10.418
58702W        W23687  42.253  42.046  11.706
58703W        W23688  26.601  42.566  11.200
58704W        W23689  44.928  38.054  11.459
58705W        W23690  14.241  44.418   3.185
58706W        W23691  23.845  20.571  10.271
58707W        W23692   3.766  32.924  13.020
58708W        W23693   3.506  15.519   4.156
58709W        W23694   6.781  10.667  13.470
58710W        W23695  22.029  33.810  11.163
58711W        W23696   5.326  43.057   9.399
58712W        W23697   0.973  23.294  12.514
58713W        W23698  15.473   6.399  14.779
58714W        W23699   9.206   4.705   0.369
58715W        W23700   3.156  20.002  14.490
58716W        W23701  11.132  34.164   3.933
58717W        W23702  43.838  30.494  13.101
58718W        W23703  23.562  20.121  13.603
58719W        W23704   5.975  22.206   0.758
58720W        W23705  13.429  22.130  13.742
58721W        W23706  32.167  28.710   3.101
58722W        W23707  30.763  14.063   0.218
58723W        W23708  28.459   3.132  14.772
58724W        W23709   7.672  18.942   2.856
58725W        W23710  18.600  17.239   4.411
58726W        W23711  14.286   3.294   2.071
58727W        W23712   1.458  43.757  12.408
58728W        W23713   0.090  28.970  12.449
58729W        W23714  33.696  23.291   1.374
58730W        W23715  15.655   1.854   0.084
58731W        W23716  20.052  23.003   1.863
58732W        W23717  23.938  20.794   0.014
58733W        W23718  19.039  32.967  13.893
58734W        W23719  41.874  18.330   4.607
58735W        W23720   6.850   3.443   1.507
58736W        W23721  10.652  13.582   0.897
58737W        W23722  30.862  32.489  13.307
58738W        W23723  29.882  17.303   1.723
58739W        W23724  20.613  43.029  14.072
58740W        W23725   7.283   1.691  10.462
58741W        W23726  41.894  12.820  11.035
58742W        W23727  17.109  41.804   3.808
58743W        W23728  35.117   7.236   0.928
58744W        W23729   5.758   5.405  14.228
58745W        W23730  34.217  34.887  11.664
58746W        W23731  16.152   6.259   3.457
58747W        W23732  14.022  30.569  13.883
58748W        W23733   2.257  24.202   4.074
58749W        W23734  13.703  42.254   1.942
58750W        W23735  13.233  16.622  12.947
58751W        W23736  18.001  32.959  11.150
58752W        W23737   9.361  32.502  13.892
58753W        W23738  43.332   3.104   2.182
58754W        W23739  12.718  18.114  13.394
58755W        W23740  18.738  14.736   3.360
58756W        W23741  44.821  32.891   0.834
58757W        W23742  43.334  24.527  12.760
58758W        W23743   6.380   4.958  12.501
58759W        W23744  29.018  10.905   2.352
58760W        W23745  21.473  14.862  10.700
58761W        W23746   1.309  20.651  13.511
58762W        W23747  27.933  15.099   2.940
58763W        W23748  32.911  30.244  13.418
58764W        W23749  38.757  15.632  10.543
58765W        W23750   5.001  28.045  10.453
58766W        W23751  16.780  24.126   3.057
58767W        W23752  43.342   8.296   4.694
58768W        W23753   5.278  36.601  10.364
58769W        W23754  24.250  28.620  13.661
58770W        W23755   8.723  35.860  14.598
58771W        W23756  18.612  19.937  12.631
58772W        W23757  19.271  34.172   2.218
58773W        W23758  17.497  20.237  11.109
58774W        W23759  37.058  20.195  14.723
58775W        W23760  32.229  15.260  11.569
58776W        W23761  14.227  37.260   0.975
58777W        W23762  14.132  32.000  11.504
58778W        W23763  19.088  41.459   4.020
58779W        W23764   5.479  11.685  10.920
58780W        W23765  20.296  42.074  13.003
58781W        W23766  27.575   9.796  13.886
58782W        W23767   1.244  32.190   1.230
58783W        W23768  44.193  28.777  12.787
58784W        W23769   8.646  14.832   1.759
58785W        W23770  26.387  22.624  12.536
58786W        W23771  19.666  39.600   3.164
58787W        W23772  43.791  28.829  10.655
58788W        W23773  23.663   5.648  14.349
58789W        W23774  40.948  21.548  12.860
58790W        W23775  44.611  38.621  14.930
58791W        W23776  17.356  32.018  12.331
58792W        W23777  37.127  39.348   0.530
58793W        W23778   2.500  44.207   3.273
58794W        W23779  23.807  10.230   2.902
58795W        W23780  12.614  26.408   4.397
58796W        W23781  38.754  20.491   4.280
58797W        W23782  32.648  30.575   1.298
58798W        W23783  32.270   7.427   4.744
58799W        W23784  23.470  21.204  11.711
58800W        W23785  38.796  17.059   3.163
58801W        W23786   0.439  14.068  12.868
58802W        W23787  39.095  42.737  10.486
58803W        W23788   3.798  31.572  14.374
58804W        W23789  24.704  14.734   2.336
58805W        W23790  20.749  18.562  14.085
58806W        W23791  38.369  38.274   4.216
58807W        W23792  13.365  34.321   2.408
58808W        W23793  42.772  17.411  13.422
58809W        W23794  33.940  16.121  12.255
58810W        W23795  35.645  42.335   0.919
58811W        W23796   6.425  38.483  11.844
58812W        W23797   4.683  12.799   1.943
58813W        W23798  10.558  15.607  11.847
58814W        W23799  31.592  26.644   0.239
58815W        W23800  11.968  28.951  11.239
58816W        W23801  36.067  25.650  11.556
58817W        W23802  11.123  20.216  14.040
58818W        W23803   6.992  22.136   0.772
58819W        W23804  42.068   5.261   1.877
58820W        W23805  30.538  34.433  13.336
58821W        W23806   2.847  38.359   1.730
58822W        W23807  33.999  37.913  13.996
58823W        W23808  10.920   5.803   1.198
58824W        W23809  29.284  21.340  10.847
58825W        W23810  39.790  42.628  12.322
58826W        W23811  37.837   0.310   5.248
58827W        W23812   4.914  32.486  13.334
58828W        W23813  38.507  14.791   1.534
58829W        W23814  35.796   9.300   3.097
58830W        W23815  23.159   0.250   0.294
58831W        W23816  36.173   5.174  11.449
58832W        W23817  18.094  23.680   0.200
58833W        W23818  34.855  37.824   1.888
58834W        W23819   3.473  27.990   3.176
58835W        W23820   6.284  39.385   2.828
58836W        W23821  28.155  39.153   9.885
58837W        W23822  19.721  43.445   4.354
58838W        W23823  33.855  26.146   3.407
58839W        W23824  25.752  13.741  13.863
58840W        W23825  33.308  44.437   3.336
58841W        W23826  28.344  37.034   4.537
58842W        W23827  14.407  13.310   0.888
58843W        W23828  14.898  25.547   1.900
58844W        W23829   0.258   8.456  14.824
58845W        W23830   5.634  43.242  13.577
58846W        W23831  32.457   8.942  11.609
58847W        W23832  24.873   3.970  12.925
58848W        W23833  15.938   4.559   5.411
58849W        W23834  38.540  33.245   5.044
58850W        W23835  26.460  42.378  14.985
58851W        W23836  44.445  28.350   5.489
58852W        W23837  29.189  42.763   0.835
58853W        W23838  35.617  43.762   3.805
58854W        W23839  43.281  14.301  14.496
58855W        W23840  14.710  27.409  14.430
58856W        W23841   6.692  41.899  10.707
58857W        W23842  29.926  36.016   0.309
58858W        W23843  44.376  26.303   5.420
58859W        W23844  15.246  17.158   1.399
58860W        W23845  42.526   8.272   3.837
58861W        W23846  13.633  28.502   1.237
58862W        W23847  14.709  41.019   0.309
58863W        W23848  17.483  33.054  11.305
58864W        W23849  20.125  34.420  14.984
58865W        W23850  14.534   9.317   4.577
58866W        W23851  27.151   7.450  11.090
58867W        W23852   6.694   0.774  13.084
58868W        W23853   6.818  40.563   0.260
58869W        W23854   0.458  33.408  13.260
58870W        W23855  19.790  15.440   0.904
58871W        W23856  38.769  34.420  14.390
58872W        W23857  35.534  43.956   4.769
58873W        W23858  20.830  31.057  12.841
58874W        W23859  22.130   3.394   1.367
58875W        W23860   5.189  34.753  14.237
58876W        W23861  27.424  33.801   4.910
58877W        W23862   2.627  43.519  12.988
58878W        W23863  24.634  25.618  10.778
58879W        W23864  31.862  42.604   0.193
58880W        W23865  36.262   2.660  14.479
58881W        W23866   2.742  42.967  13.922
58882W        W23867  26.761  41.940   3.793
58883W        W23868  12.836  30.633   0.425
58884W        W23869  14.494  17.861   5.007
58885W        W23870  30.199   8.048   1.873
58886W        W23871   9.793   2.834  12.819
58887W        W23872  44.218  30.509  12.401
58888W        W23873  36.388  17.760  12.671
58889W        W23874  20.261  44.314   0.742
58890W        W23875   0.789  23.838   4.230
58891W        W23876  33.958  29.800  11.267
58892W        W23877  23.953  42.989  14.631
58893W        W23878  37.276  33.071  10.675
58894W        W23879  20.147  11.616  10.782
58895W        W23880  28.709  13.664  12.550
58896W        W23881  34.529  15.237  12.089
58897W        W23882  25.506  36.184   3.343
58898W        W23883  44.037   8.905   4.627
58899W        W23884  34.320   6.825  13.684
58900W        W23885  23.132  41.286  12.508
58901W        W23886   6.307  30.403  13.019
58902W        W23887  14.090  36.440  12.481
58903W        W23888  17.663  25.388  14.791
58904W        W23889  22.767  44.587   4.293
58905W        W23890   2.794  19.215  14.073
58906W        W23891  31.099  12.544   2.809
58907W        W23892  28.650  37.396   2.692
58908W        W23893  26.055  20.520  11.371
58909W        W23894  36.237   9.112   2.167
58910W        W23895  24.527  35.850  14.512
58911W        W23896  39.546  22.877   3.198
58912W        W23897  25.862   5.972   9.781
58913W        W23898   4.788  16.589   0.945
58914W        W23899  27.516  26.403  11.110
58915W        W23900   7.904  19.487   0.469
58916W        W23901  20.331  23.041   0.316
58917W        W23902  23.649  31.471  13.205
58918W        W23903  30.975  11.819  11.030
58919W        W23904  29.477   0.003   0.015
58920W        W23905  40.294  10.709   1.014
58921W        W23906  38.836  23.200  13.588
58922W        W23907  19.031   0.937   2.638
58923W        W23908   1.505  35.339   3.784
58924W        W23909   0.926  21.566  14.250
58925W        W23910  17.046   2.736  11.269
58926W        W23911   9.944  12.834  12.670
58927W        W23912  33.927  28.134   3.850
58928W        W23913   4.399  34.683   1.510
58929W        W23914  17.784  18.231  11.759
58930W        W23915  33.553  24.086  14.871
58931W        W23916   4.862   5.833  11.242
58932W        W23917  10.578  36.971   3.702
58933W        W23918  30.387  30.295   2.384
58934W        W23919  32.585   5.906  10.515
58935W        W23920  41.480  12.419  11.560
58936W        W23921  17.336  35.315   1.876
58937W        W23922  28.098  16.509   1.821
58938W        W23923  11.347  10.301   2.793
58939W        W23924  37.037   6.147  11.144
58940W        W23925  10.751  21.013  13.843
58941W        W23926   8.677  44.030  13.862
58942W        W23927  22.781  31.437   2.884
58943W        W23928  26.515  29.441  13.939
58944W        W23929  28.631  35.452   3.779
58945W        W23930  30.245  37.001  11.089
58946W        W23931  27.078  26.968   4.728
58947W        W23932  20.222  39.577  13.488
58948W        W23933  10.844   0.235   4.171
58949W        W23934  38.076  29.116   4.139
58950W        W23935  20.633  41.147  12.075
58951W        W23936  10.693   0.161   2.278
58952W        W23937  16.635   1.647  12.850
58953W        W23938  41.287  23.301  14.043
58954W        W23939  35.357  25.233  10.690
58955W        W23940  16.592  30.108   5.070
58956W        W23941  19.462  15.708   1.265
58957W        W23942   7.241  20.294   2.604
58958W        W23943  17.502  41.747   4.598
58959W        W23944  37.283  39.552  10.940
58960W        W23945  23.242  12.782   1.423
58961W        W23946  14.725   4.752   0.270
58962W        W23947  26.790  27.478   4.580
58963W        W23948  18.117  25.248  14.619
58964W        W23949   8.363  39.089  10.392
58965W        W23950  32.654  22.902  10.607
58966W        W23951  30.280  37.112   2.463
58967W        W23952  42.307   7.903   1.238
58968W        W23953  16.638  14.799   0.247
58969W        W23954  27.438  12.158  14.480
58970W        W23955  26.008  16.188  14.855
58971W        W23956  18.204  28.673  13.337
58972W        W23957  37.791  21.785  12.552
58973W        W23958  37.854  21.119  11.736
58974W        W23959  27.863   6.757   2.444
58975W        W23960  28.452  39.032   3.687
58976W        W23961  42.401  12.297  11.487
58977W        W23962  23.373  13.197  14.838
58978W        W23963  27.534  34.581  11.774
58979W        W23964  27.406  30.009  14.441
58980W        W23965  15.952  23.041   2.343
58981W        W23966  11.057  27.111  14.481
58982W        W23967  32.343  21.611  12.478
58983W        W23968  35.815  15.710   2.656
58984W        W23969  27.401   6.694   0.983
58985W        W23970  32.189  32.621   4.911
58986W        W23971  26.409  31.988  11.557
58987W        W23972  29.414  15.253   0.109
58988W        W23973  41.418  13.960   5.066
58989W        W23974  39.350   5.733  13.941
58990W        W23975  25.966  32.146   4.644
58991W        W23976  25.607  19.677   2.353
58992W        W23977  13.599   4.789  10.727
58993W        W23978   4.633   1.663   2.855
58994W        W23979  10.606  19.313   0.243
58995W        W23980  34.355  33.390  11.980
58996W        W23981   6.996  33.410  14.441
58997W        W23982  18.224   9.885   3.148
58998W        W23983  22.180  16.207   0.384
58999W        W23984  31.826  41.423  12.103
59000W        W23985  35.481  42.676   3.148
59001W        W23986  15.558  18.606  13.766
59002W        W23987  42.991   2.120  14.217
59003W        W23988  17.763  39.018  12.027
59004W        W23989  34.053  32.371  14.075
59005W        W23990  38.311  43.958  10.397
59006W        W23991  43.947  32.512  10.556
59007W        W23992  17.108  34.888   0.010
59008W        W23993   6.946  30.515  13.913
59009W        W23994  16.176   9.316   3.433
59010W        W23995   0.784  28.224  12.479
59011W        W23996   8.857  38.434  12.967
59012W        W23997  18.043  35.443  14.444
59013W        W23998  10.128  27.910   1.606
59014W        W23999  30.032  42.923   0.278
59015W        W24000  15.387  30.386  13.447
59016W        W24001  40.061  23.802   1.342
59017W        W24002  44.711  39.364  12.028
59018W        W24003  12.324  15.191   3.078
59019W        W24004  13.721   7.393  11.777
59020W        W24005  31.102   8.709  14.975
59021W        W24006  16.680   1.014  11.927
59022W        W24007  35.451  27.516   0.433
59023W        W24008   4.871  12.448  14.873
59024W        W24009  42.245   5.975   4.163
59025W        W24010  19.744  41.338  12.575
59026W        W24011   5.775   9.343  11.012
59027W        W24012  14.044  38.056   4.731
59028W        W24013  27.884  39.498  13.962
59029W        W24014   7.652  10.507  12.530
59030W        W24015   5.337   8.232   3.313
59031W        W24016   4.375  37.767   1.236
59032W        W24017  36.103  44.775  12.587
59033W        W24018   5.319  41.849  13.287
59034W        W24019  26.718  26.092  14.562
59035W        W24020  34.706  23.893  12.440
59036W        W24021  29.948  39.362   3.555
59037W        W24022  40.854  22.139  14.362
59038W        W24023  44.999  15.330   1.353
59039W        W24024  18.047  38.531   1.788
59040W        W24025  18.612  20.256  14.220
59041W        W24026  40.597   7.199  10.080
59042W        W24027  38.558  43.065  14.465
59043W        W24028  44.629   8.615  12.510
59044W        W24029  41.686  38.048   1.158
59045W        W24030  23.051  41.220  13.896
59046W        W24031  29.422   8.763  13.411
59047W        W24032  30.648   1.197  11.892
59048W        W24033   7.711  22.575   3.678
59049W        W24034  35.103  37.841  12.002
59050W        W24035  34.602   8.751  14.353
59051W        W24036  30.036  29.081  10.499
59052W        W24037  39.500  36.869  11.535
59053W        W24038   4.696  19.277   4.031
59054W        W24039  42.753  34.370   1.918
59055W        W24040  24.967  39.277   1.819
59056W        W24041   5.312   0.961  13.391
59057W        W24042  25.338  44.898  13.139
59058W        W24043   3.417  42.079  10.798
59059W        W24044   5.747  37.153  11.423
59060W        W24045  42.852  31.890   4.138
59061W        W24046  20.113  17.042  10.206
59062W        W24047  40.394  19.782  13.264
59063W        W24048  23.546   8.347  11.239
59064W        W24049  21.419  37.568   2.189
59065W        W24050   1.312  15.831   1.605
59066W        W24051   5.299  14.891   1.227
59067W        W24052  26.296  18.026   4.083
59068W        W24053   6.679  17.734  11.645
59069W        W24054  35.082   0.813   0.429
59070W        W24055  43.437  24.136   2.966
59071W        W24056  30.587   2.668   2.599
59072W        W24057  17.206  37.075  14.047
59073W        W24058  10.997   6.779  12.343
59074W        W24059   9.306  39.415   0.020
59075W        W24060   3.398  40.853  12.370
59076W        W24061  14.926  10.321   3.591
59077W        W24062  14.778  37.169   3.210
59078W        W24063  25.075   7.260  12.472
59079W        W24064   8.453  41.860   4.894
59080W        W24065  18.749  36.799   2.237
59081W        W24066  41.119  31.483   0.447
59082W        W24067  23.864   4.343  10.250
59083W        W24068   6.903  31.685  11.152
59084W        W24069  13.248  26.262  12.820
59085W        W24070  27.727  14.669   4.060
59086W        W24071  12.808  31.320   0.998
59087W        W24072  12.100  27.447  10.677
59088W        W24073  34.295   3.523  11.751
59089W        W24074  19.821  24.977  13.345
59090W        W24075   5.078  40.629   3.086
59091W        W24076  39.421  40.758  10.627
59092W        W24077  29.408  11.682   2.566
59093W        W24078  13.692   3.448  11.957
59094W        W24079  15.296  11.139  12.349
59095W        W24080   4.403  18.099   3.862
59096W        W24081  31.352  23.489   2.005
59097W        W24082  30.883  30.453   2.814
59098W        W24083  38.487  23.079  13.234
59099W        W24084  34.938  31.089   1.259
59100W        W24085  17.845  35.996  10.904
59101W        W24086  34.868   5.657   3.756
59102W        W24087  10.300  29.075  14.979
59103W        W24088  18.826  41.218   2.359
59104W        W24089  36.621  14.836  12.082
59105W        W24090   1.215  18.128   3.913
59106W        W24091  19.121   4.449  13.447
59107W        W24092  33.899  39.947  12.837
59108W        W24093  27.801  21.440   5.083
59109W        W24094   4.193  22.698  14.912
59110W        W24095   6.958  28.535  14.881
59111W        W24096   0.982   9.761  10.653
59112W        W24097  21.649  30.744  10.784
59113W        W24098   1.447  39.559  13.891
59114W        W24099  18.578  31.883  10.397
59115W        W24100   8.381  40.038  13.367
59116W        W24101  18.095  23.463  13.275
59117W        W24102  39.658  43.491  11.223
59118W        W24103  18.734  28.257  12.562
59119W        W24104  42.167  38.952   1.189
59120W        W24105  34.484  41.572   3.137
59121W        W24106  33.828  39.251   2.774
59122W        W24107  28.667   5.266   0.776
59123W        W24108  13.590  13.232  11.905
59124W        W24109  18.803   2.366   4.603
59125W        W24110  42.277  33.620  14.009
59126W        W24111  17.063  10.259   4.140
59127W        W24112  18.496  14.582  14.465
59128W        W24113  28.775   2.531   1.160
59129W        W24114  28.083  42.716  10.667
59130W        W24115  18.891  13.290  12.880
59131W        W24116  24.681  28.382  13.456
59132W        W24117   6.124  25.949   0.110
59133W        W24118  36.673   3.832  11.594
59134W        W24119  26.118   4.473   1.828
59135W        W24120  31.548   7.158  11.989
59136W        W24121  38.837  20.986   4.290
59137W        W24122  34.431  14.668  13.442
59138W        W24123  35.620  35.561  14.385
59139W        W24124  23.761  15.574   2.840
59140W        W24125  31.600  34.333   3.851
59141W        W24126  23.194   4.407  10.767
59142W        W24127  15.585  22.287  11.124
59143W        W24128  26.031  37.345   0.269
59144W        W24129  42.294  18.074  14.974
59145W        W24130  35.645  18.151  12.413
59146W        W24131  41.706  15.742   2.386
59147W        W24132   7.452  36.385  14.289
59148W        W24133  18.709  26.749  12.021
59149W        W24134  26.925   6.545  14.159
59150W        W24135  35.791  25.094   3.234
59151W        W24136  44.842  24.543  11.566
59152W        W24137  25.492  18.036   3.468
59153W        W24138  43.076  12.149  12.239
59154W        W24139  38.429  35.352  10.368
59155W        W24140   7.275  11.520  14.650
59156W        W24141  28.228  33.880   2.675
59157W        W24142  13.574  10.792  11.654
59158W        W24143   9.347  25.760   0.400
59159W        W24144  24.033  26.219  13.236
59160W        W24145  10.230   0.384   5.029
59161W        W24146   6.790  11.831  10.972
59162W        W24147  24.355   9.879  14.404
59163W        W24148  18.354  13.373   2.147
59164W        W24149  39.243  16.847   4.097
59165W        W24150  30.893   3.744   0.717
59166W        W24151  39.430   2.072  10.594
59167W        W24152  33.872  36.532  11.145
59168W        W24153   3.864  20.694  13.969
59169W        W24154   2.479  13.302  14.683
59170W        W24155  44.387  40.745   5.026
59171W        W24156  21.660  28.965   4.553
59172W        W24157  11.141  18.714  11.711
59173W        W24158  44.089  38.444   3.308
59174W        W24159  22.715  16.640   1.282
59175W        W24160  17.141  43.256  11.281
59176W        W24161  25.184  23.708  13.492
59177W        W24162   8.745  24.611   1.754
59178W        W24163  13.405  43.366   1.244
59179W        W24164  13.741  40.038   4.588
59180W        W24165  31.457   9.907  13.429
59181W        W24166  34.115  13.565  12.341
59182W        W24167  19.774  21.042   3.251
59183W        W24168  19.042  41.954   0.556
59184W        W24169  16.748  40.914   4.239
59185W        W24170   6.943   0.874   2.340
59186W        W24171  14.571  38.470   0.701
59187W        W24172  22.783   1.897   4.107
59188W        W24173  42.546  14.730   1.433
59189W        W24174  42.021   2.766  10.561
59190W        W24175  12.182  33.670  10.715
59191W        W24176  31.735  44.565  14.477
59192W        W24177  31.526  27.444  13.427
59193W        W24178  31.471  22.127   0.245
59194W        W24179  34.630  44.951   2.311
59195W        W24180  13.855  34.994  11.665
59196W        W24181  33.064  40.324   1.538
59197W        W24182  21.538  35.134   4.439
59198W        W24183  17.717  14.227   0.878
59199W        W24184  38.558   2.230  14.199
59200W        W24185  21.527  16.526  11.535
59201W        W24186  43.470  13.572   2.231
59202W        W24187  32.590  12.649   3.738
59203W        W24188  13.389   9.736  13.924
59204W        W24189  33.674   9.351  13.957
59205W        W24190  26.931  31.605   2.728
59206W        W24191   9.384  15.047  11.074
59207W        W24192  39.818  19.149   1.697
59208W        W24193  35.955   3.103  11.203
59209W        W24194   0.134  41.355  10.681
59210W        W24195  41.632  35.001  12.008
59211W        W24196  31.311  20.175  12.824
59212W        W24197  22.009  35.009  10.637
59213W        W24198   3.188  21.644  13.850
59214W        W24199   4.204  31.627   3.824
59215W        W24200  18.305  21.935   3.257
59216W        W24201  37.597  29.606   4.551
59217W        W24202  12.243  41.357   0.094
59218W        W24203  34.471  17.208   3.258
59219W        W24204  27.032  15.824   2.154
59220W        W24205  33.988  19.683  13.475
59221W        W24206   2.883  41.063   0.335
59222W        W24207  27.037  29.681  12.382
59223W        W24208  41.377   9.758   1.222
59224W        W24209   4.781  16.834  10.610
59225W        W24210  22.990  32.344   2.425
59226W        W24211  12.318  37.779  13.576
59227W        W24212   8.714  41.744  13.855
59228W        W24213  37.980  27.147  14.837
59229W        W24214  32.628  11.653  14.427
59230W        W24215   7.712  37.242  13.927
59231W        W24216  34.507  13.860  14.866
59232W        W24217  10.597  24.575   3.211
59233W        W24218  29.351   6.855   0.925
59234W        W24219   6.706   9.002  11.862
59235W        W24220   6.879  36.609   3.843
59236W        W24221  37.277  32.027   4.980
59237W        W24222  25.634  22.196  10.966
59238W        W24223   5.896   9.280   1.427
59239W        W24224  38.666   1.724   2.204
59240W        W24225   5.290  29.934   0.848
59241W        W24226  15.013   9.580   2.219
59242W        W24227  27.158   2.997   4.466
59243W        W24228  26.909   1.390   2.705
59244W        W24229  35.999  24.895  13.559
59245W        W24230  12.622  22.108  14.735
59246W        W24231  13.237   0.887   1.456
59247W        W24232  35.162  29.604   0.272
59248W        W24233  40.538  18.034   3.341
59249W        W24234  40.895  36.534  14.402
59250W        W24235   4.609  44.322  10.703
59251W        W24236  23.521  41.036   4.526
59252W        W24237  13.165  20.924   4.903
59253W        W24238  22.661  15.312   0.712
59254W        W24239  34.709   2.247  11.672
59255W        W24240   7.365  31.639  11.681
59256W        W24241   5.732  37.736   3.674
59257W        W24242   2.705  36.089   2.830
59258W        W24243  13.263  42.038   1.747
59259W        W24244   4.855   2.407   1.514
59260W        W24245  12.876  17.961   2.200
59261W        W24246   0.719  10.116   4.091
59262W        W24247  27.502  31.263  14.147
59263W        W24248  15.594   1.898   2.056
59264W        W24249  14.182  13.916  11.253
59265W        W24250  22.936  28.048   1.856
59266W        W24251  41.430  20.618   4.614
59267W        W24252  41.364   4.556   1.018
59268W        W24253  10.464  31.093   2.374
59269W        W24254   9.793   5.459  12.117
59270W        W24255  11.150   1.928  12.681
59271W        W24256  22.108  39.990   1.625
59272W        W24257  38.485  10.606   2.449
59273W        W24258  11.923  41.427  13.120
59274W        W24259  37.523  21.087  12.735
59275W        W24260   4.356   6.603   3.743
59276W        W24261  14.386  10.965   2.464
59277W        W24262  39.134  31.695  14.843
59278W        W24263  17.468  12.876  12.542
59279W        W24264  24.887   1.740  13.972
59280W        W24265  34.762  38.840  12.183
59281W        W24266   3.252  18.291   0.498
59282W        W24267  37.834   8.829  13.895
59283W        W24268  44.780  30.839   0.950
59284W        W24269   0.575   2.849  11.667
59285W        W24270  29.486  40.438   4.775
59286W        W24271  13.719  31.508   0.761
59287W        W24272  32.620  22.646   1.053
59288W        W24273   5.809   4.716  14.985
59289W        W24274  10.923  11.166   0.706
59290W        W24275  32.006  10.338   0.912
59291W        W24276  35.119  13.721   3.321
59292W        W24277  42.663  37.820   1.328
59293W        W24278   8.202  25.659  14.015
59294W        W24279  42.132  12.365   4.323
59295W        W24280  17.319   9.575  14.381
59296W        W24281   4.301  19.830  13.138
59297W        W24282  25.999  29.861  14.468
59298W        W24283  12.734  41.580  13.463
59299W        W24284   0.972  43.124   0.520
59300W        W24285  32.250  14.614  12.756
59301W        W24286  13.047  12.277   0.736
59302W        W24287   5.644  34.595   3.722
59303W        W24288   8.276  35.009   1.635
59304W        W24289  41.709  41.181  14.559
59305W        W24290  19.512  22.736   4.156
59306W        W24291  31.157  44.010  12.063
59307W        W24292  19.970   2.917   0.100
59308W        W24293  14.835  15.645  10.753
59309W        W24294  38.194  12.803  10.419
59310W        W24295  35.421   7.861  14.804
59311W        W24296  34.382  25.708   1.868
59312W        W24297  23.339  11.803  12.903
59313W        W24298  15.263   6.853   1.294
59314W        W24299  19.841  19.739   2.868
59315W        W24300  19.404  33.098   3.740
59316W        W24301  18.078  29.054   1.389
59317W        W24302  21.812  12.819   3.338
59318W        W24303   3.421  22.356  14.604
59319W        W24304   1.786   8.022  13.979
59320W        W24305   1.959  43.115  13.489
59321W        W24306  29.711   6.448  11.170
59322W        W24307  12.209  42.273   0.176
59323W        W24308  13.293  17.197   4.544
59324W        W24309  26.912   2.696   9.636
59325W        W24310  10.842  13.199  13.333
59326W        W24311  15.235  19.354  12.850
59327W        W24312  37.465  39.358  11.381
59328W        W24313  21.641  34.025  14.433
59329W        W24314  29.301   0.459  11.920
59330W        W24315  26.507  28.608  14.319
59331W        W24316  15.968  29.790   2.720
59332W        W24317  32.614  30.632  14.443
59333W        W24318  10.874   7.471  11.852
59334W        W24319  19.293   4.287  14.762
59335W        W24320  34.006   1.982   4.971
59336W        W24321  26.322   1.445  12.848
59337W        W24322  20.039   3.890   4.684
59338W        W24323  34.910  36.107  12.598
59339W        W24324  18.300  30.029   1.265
59340W        W24325  22.609  40.471   2.523
59341W        W24326  37.508  31.426  10.422
59342W        W24327  44.542  39.787   2.748
59343W        W24328  33.654  10.310   1.744
59344W        W24329  39.131  19.633  13.841
59345W        W24330  23.463  15.751   2.441
59346W        W24331  36.380  10.212   4.476
59347W        W24332  17.261  34.579   2.291
59348W        W24333  23.571  40.319   0.558
59349W        W24334  29.169   8.199   1.870
59350W        W24335  32.311  40.887  10.757
59351W        W24336  25.909  25.167  11.167
59352W        W24337  19.350  22.284   1.811
59353W        W24338  28.302   7.050  11.633
59354W        W24339  16.726  13.681  13.295
59355W        W24340  29.120   1.380  11.896
59356W        W24341  33.019  16.241  10.952
59357W        W24342   2.071  28.563   2.744
59358W        W24343  16.141  19.571  12.489
59359W        W24344  11.506   2.454  10.717
59360W        W24345   4.092  14.225  12.172
59361W        W24346  21.667  10.066  13.782
59362W        W24347  16.957  21.276  13.072
59363W        W24348  42.733  13.764  12.954
59364W        W24349  32.279   0.376  10.667
59365W        W24350  32.885  17.531   2.251
59366W        W24351  21.217  38.347   4.137
59367W        W24352  16.269  21.975   0.368
59368W        W24353  21.403   1.152  12.841
59369W        W24354  35.461  14.336  11.358
59370W        W24355   8.916  35.021  11.182
59371W        W24356  28.306  41.982  14.896
59372W        W24357   3.382   9.888   0.279
59373W        W24358  11.743  11.204  11.282
59374W        W24359   5.835  40.973   0.529
59375W        W24360   1.599   6.745   4.896
59376W        W24361  29.537  36.424  13.063
59377W        W24362  33.676  43.650   3.770
59378W        W24363   3.336  13.147  12.115
59379W        W24364  44.874   8.439  12.089
59380W        W24365   3.316  19.592  12.936
59381W        W24366   0.380  10.627   2.586
59382W        W24367  14.616  24.485   3.226
59383W        W24368  31.714  19.644   2.179
59384W        W24369   1.475  25.757  11.091
59385W        W24370  28.495   6.426   1.846
59386W        W24371   0.838  10.843   3.382
59387W        W24372  16.842  44.996  12.843
59388W        W24373  12.371   5.211   3.710
59389W        W24374  28.604   3.426   4.501
59390W        W24375  38.382   4.924   1.787
59391W        W24376  42.128  42.542  11.647
59392W        W24377  11.678  30.951   0.916
59393W        W24378   2.222  13.694  14.884
59394W        W24379  13.386  36.375   3.718
59395W        W24380  14.284  20.610  14.872
59396W        W24381  26.088   1.836   2.400
59397W        W24382  43.213  25.493  14.787
59398W        W24383   0.233  31.173  13.962
59399W        W24384   5.298   6.573   3.879
59400W        W24385  10.614   5.964  13.438
59401W        W24386  32.233   6.177  13.040
59402W        W24387  44.419  31.439  13.103
59403W        W24388  40.496  35.217   2.722
59404W        W24389   9.369  12.820  14.495
59405W        W24390  19.521  39.200  11.580
59406W        W24391  23.592  29.519  10.554
59407W        W24392  32.410   0.215  13.383
59408W        W24393  20.549   9.759  11.627
59409W        W24394  23.713  16.738   0.947
59410W        W24395  43.468   6.471  11.088
59411W        W24396  31.415   0.287   3.127
59412W        W24397   7.451  19.339  11.646
59413W        W24398  42.345  40.072   0.424
59414W        W24399   2.604  19.187  11.322
59415W        W24400   1.481   0.342   0.594
59416W        W24401   2.482  14.192  14.859
59417W        W24402   5.167  36.288   0.035
59418W        W24403  14.109   9.721  11.953
59419W        W24404  32.610  34.621  14.413
59420W        W24405  41.765  13.184   3.196
59421W        W24406   9.490  27.129   3.268
59422W        W24407   5.364   1.965  14.032
59423W        W24408  32.954  20.445   1.582
59424W        W24409  15.082  36.898  14.292
59425W        W24410  27.900  40.302  12.948
59426W        W24411   1.638  24.910  11.129
59427W        W24412   6.850  20.622  13.065
59428W        W24413  38.022  38.923  13.943
59429W        W24414  20.271  18.137  11.995
59430W        W24415  40.949  34.303   4.227
59431W        W24416  37.574  36.102  14.337
59432W        W24417   2.823  34.822   0.853
59433W        W24418  31.142  18.234  11.993
59434W        W24419   0.068  12.320   4.703
59435W        W24420  18.474  33.095  12.375
59436W        W24421  10.265   1.307   4.679
59437W        W24422  15.086   3.820   3.634
59438W        W24423  11.745  43.722  12.529
59439W        W24424  10.238  27.811  10.920
59440W        W24425  12.901  12.277   1.850
59441W        W24426  24.944  14.681   3.685
59442W        W24427   0.698   3.221   2.360
59443W        W24428  10.227   7.719  13.917
59444W        W24429   5.751  12.324   0.964
59445W        W24430   8.756  24.922   2.264
59446W        W24431  17.167  32.530  12.532
59447W        W24432   4.705  32.080  13.577
59448W        W24433  16.349  12.214  14.559
59449W        W24434  23.940  10.379   3.818
59450W        W24435  35.562   6.086  12.183
59451W        W24436  15.287  17.466  12.020
59452W        W24437  27.577  16.543   1.802
59453W        W24438  16.187  42.912  10.414
59454W        W24439  19.637  13.565  12.162
59455W        W24440  36.943   9.987   0.702
59456W        W24441  34.907   3.049   3.037
59457W        W24442   3.007   6.298  11.131
59458W        W24443  30.587  11.777   2.336
59459W        W24444  40.382   3.879  14.056
59460W        W24445  34.087  35.921   3.747
59461W        W24446   0.819  41.365   0.992
59462W        W24447   1.002  32.576  12.201
59463W        W24448  21.217  21.153   3.266
59464W        W24449  38.422  42.275   3.259
59465W        W24450   0.815  21.707   3.779
59466W        W24451  39.153   3.283   1.377
59467W        W24452  42.489  23.958   1.238
59468W        W24453  11.186  30.163  10.695
59469W        W24454   8.199  44.488  12.437
59470W        W24455   1.135  15.947   4.155
59471W        W24456  22.145  35.410  11.125
59472W        W24457   1.888  26.363   2.118
59473W        W24458  40.597  27.702   5.000
59474W        W24459  10.081   8.354   2.385
59475W        W24460  30.485   3.997  10.696
59476W        W24461  33.867  12.667  10.747
59477W        W24462  30.539  38.803  13.645
59478W        W24463  14.696   0.475  11.143
59479W        W24464   8.341  21.106  13.331
59480W        W24465  26.952  10.179   3.199
59481W        W24466  20.844  17.186  13.816
59482W        W24467  22.944  15.341   1.170
59483W        W24468   1.550  28.673   2.722
59484W        W24469  25.817  25.409   3.403
59485W        W24470  29.898   4.270   3.262
59486W        W24471  19.613  29.546  11.208
59487W        W24472  41.590   1.915   0.454
59488W        W24473  26.131   6.353   4.321
59489W        W24474  43.256   2.135  11.961
59490W        W24475  33.216   6.078  11.604
59491W        W24476  24.941   5.997   1.407
59492W        W24477  17.083  11.739   0.067
59493W        W24478  37.310  25.132  12.555
59494W        W24479  37.851  37.428   5.197
59495W        W24480   2.980  22.759  12.320
59496W        W24481  10.231   7.792   4.512
59497W        W24482  10.693   0.441  11.485
59498W        W24483  36.459   0.646  14.968
59499W        W24484  33.517  29.433   3.138
59500W        W24485   4.901  35.494  11.517
59501W        W24486  16.762  15.177   1.012
59502W        W24487  15.995  19.320  11.343
59503W        W24488  15.569  11.528   0.989
59504W        W24489   0.359  40.936  13.390
59505W        W24490   0.567  31.282   1.177
59506W        W24491  16.074  16.335  10.723
59507W        W24492   8.705  23.541   4.437
59508W        W24493  12.618  21.446  10.997
59509W        W24494   3.970  31.962   0.479
59510W        W24495  31.838  21.838  10.730
59511W        W24496  42.332   8.873   4.554
59512W        W24497   1.985   7.922   1.880
59513W        W24498   7.588  29.484  11.078
59514W        W24499  29.588  38.024   0.757
59515W        W24500  34.900  36.039   1.884
59516W        W24501  33.145   5.887  12.200
59517W        W24502   5.075  29.437  11.889
59518W        W24503  25.607  10.890   0.357
59519W        W24504   8.746   5.921   1.359
59520W        W24505   8.667  30.878   2.993
59521W        W24506  33.486  15.600  13.493
59522W        W24507  29.741  30.803  14.915
59523W        W24508   5.952  36.788   1.774
59524W        W24509  10.561  41.290   3.572
59525W        W24510  33.323  35.054   2.337
59526W        W24511  11.278  33.082   2.346
59527W        W24512  16.606  39.164   3.618
59528W        W24513  44.346  39.007   1.399
59529W        W24514  40.941  28.123  12.180
59530W        W24515   8.380  31.441  11.100
59531W        W24516  31.064  21.582  11.874
59532W        W24517  16.986  16.839  11.789
59533W        W24518  32.627  25.567   1.768
59534W        W24519  21.561  14.669  13.304
59535W        W24520   0.724  21.305   1.505
59536W        W24521  20.027  33.648  11.735
59537W        W24522  26.664  20.220   3.098
59538W        W24523   5.564  23.256  13.795
59539W        W24524   2.337   9.437   0.377
59540W        W24525  10.329   1.330  12.028
59541W        W24526  22.235  44.158  14.835
59542W        W24527  22.409  39.326  10.714
59543W        W24528  21.523  20.121   1.318
59544W        W24529  40.341  40.903  11.010
59545W        W24530   8.417  15.160  11.346
59546W        W24531  19.834  20.401  10.651
59547W        W24532  24.668   5.713   2.932
59548W        W24533  42.010  26.884   0.587
59549W        W24534   0.179  15.029  11.154
59550W        W24535  33.252  17.065  11.162
59551W        W24536  41.065  37.846  11.938
59552W        W24537   2.393  33.434   1.035
59553W        W24538  26.206   5.591  13.813
59554W        W24539   0.281  20.198  11.685
59555W        W24540   0.732  24.429   1.846
59556W        W24541  25.589  44.041  11.390
59557W        W24542  37.986  30.348   2.191
59558W        W24543   6.328  24.636   4.884
59559W        W24544  24.326  24.277  10.421
59560W        W24545   6.468  27.861  12.798
59561W        W24546   9.662  22.786   0.378
59562W        W24547  36.979  37.176  13.353
59563W        W24548  20.428   2.478   4.444
59564W        W24549  42.087  28.866  14.016
59565W        W24550   7.770  34.790   3.283
59566W        W24551  12.930  24.900  12.087
59567W        W24552  36.334  40.571   2.779
59568W        W24553  26.907  13.195  12.993
59569W        W24554  36.498  38.520   2.337
59570W        W24555  34.958  40.806   4.142
59571W        W24556  24.458  34.556   3.111
59572W        W24557  17.625  23.063   0.380
59573W        W24558  12.547   3.454  12.635
59574W        W24559  13.713  26.922  13.068
59575W        W24560  26.412  26.614   2.975
59576W        W24561  14.005  34.932   4.243
59577W        W24562  31.825  43.902  11.098
59578W        W24563  37.270  18.178   0.296
59579W        W24564  27.262  25.160   1.361
59580W        W24565  23.093   2.679  12.582
59581W        W24566  10.421  37.844   3.667
59582W        W24567   8.859  35.000  14.536
59583W        W24568   4.353  12.692   2.683
59584W        W24569  18.087  35.655  13.601
59585W        W24570  27.629   7.748  11.195
59586W        W24571  33.120   7.287   4.529
59587W        W24572  34.110  43.187   2.824
59588W        W24573  37.974   2.158  11.707
59589W        W24574  35.845  14.292  12.587
59590W        W24575  44.482  19.636  14.904
59591W        W24576  30.649   1.729  10.612
59592W        W24577  38.480  17.583   3.908
59593W        W24578   0.313  44.439  10.972
59594W        W24579  22.661  38.415  12.619
59595W        W24580   9.805   3.526  10.725
59596W        W24581  44.962  17.339  11.089
59597W        W24582  37.348   3.039   4.217
59598W        W24583  23.704   8.808   1.756
59599W        W24584   0.922  22.185   1.455
59600W        W24585  16.761  44.895   4.597
59601W        W24586   5.367   4.606  13.729
59602W        W24587  28.637  10.913   1.702
59603W        W24588  25.255  14.248  10.489
59604W        W24589  33.702  41.306   2.693
59605W        W24590  26.075  29.386   3.112
59606W        W24591  35.371   3.678  10.709
59607W        W24592  37.102  10.117   3.991
59608W        W24593   7.481   4.012  12.643
59609W        W24594  14.169   2.960   3.635
59610W        W24595  25.130  42.518   3.823
59611W        W24596  36.332  33.018  14.490
59612W        W24597  18.300  37.390  12.973
59613W        W24598  18.670  21.518   2.409
59614W        W24599  15.698  25.226  10.582
59615W        W24600  30.750  33.786   0.182
59616W        W24601  27.517   6.942   0.336
59617W        W24602  10.569  25.019  14.857
59618W        W24603  28.944   1.929  14.436
59619W        W24604  30.962   2.409  13.536
59620W        W24605  38.361  44.418  13.857
59621W        W24606  32.716   7.798  13.346
59622W        W24607  44.059  32.590  13.480
59623W        W24608  14.413  25.142  13.450
59624W        W24609  14.065  27.836   9.867
59625W        W24610  44.273  23.621   4.545
59626W        W24611  19.271  22.297   4.344
59627W        W24612  23.988   2.852  11.057
59628W        W24613   3.271  10.724   2.752
59629W        W24614  14.213  34.407   1.650
59630W        W24615   6.863   4.901   2.192
59631W        W24616  16.150  26.492  11.142
59632W        W24617  35.085  18.296  11.618
59633W        W24618  38.071   9.187  13.451
59634W        W24619  19.029  41.028  11.479
59635W        W24620  35.114  27.986   2.517
59636W        W24621  15.264   3.723  13.953
59637W        W24622  18.685   4.719   0.254
59638W        W24623  15.460   0.883  12.381
59639W        W24624  12.828  36.544   2.183
59640W        W24625  34.592  39.347  14.353
59641W        W24626  35.014  10.478   3.692
59642W        W24627  32.156  30.549   1.412
59643W        W24628  31.862  10.266   2.738
59644W        W24629  20.610  26.122   1.418
59645W        W24630   0.286   1.197   1.642
59646W        W24631   9.331  25.988   4.073
59647W        W24632  13.739  21.949   3.752
59648W        W24633  13.690  31.918  14.356
59649W        W24634  35.425  11.109  12.898
59650W        W24635  34.673  22.522  13.553
59651W        W24636  35.496  14.185   4.135
59652W        W24637   1.897  35.598  13.139
59653W        W24638  36.917  19.689   2.460
59654W        W24639  39.036   4.466   2.046
59655W        W24640  39.410   8.135  13.429
59656W        W24641   0.105  28.189  10.130
59657W        W24642   2.410  37.349   2.107
59658W        W24643  30.924   4.869   4.397
59659W        W24644  10.598  17.477   1.408
59660W        W24645  32.405   4.684  13.615
59661W        W24646  23.132  21.434  12.028
59662W        W24647  21.095  42.721  12.833
59663W        W24648  42.638  28.991   4.164
59664W        W24649  15.047  21.757   4.006
59665W        W24650  13.748   9.275   1.330
59666W        W24651  21.154  33.037   4.166
59667W        W24652   2.941  42.853   2.651
59668W        W24653  25.936   4.032  13.033
59669W        W24654  28.185  33.853  14.258
59670W        W24655  33.883   3.852   4.564
59671W        W24656  15.992  23.906   1.849
59672W        W24657  43.955  22.942  14.906
59673W        W24658  16.153   6.472  12.572
59674W        W24659  20.532  28.953  12.925
59675W        W24660  39.740  24.079  11.895
59676W        W24661  40.871  28.494   1.286
59677W        W24662   8.194  23.754  11.613
59678W        W24663   3.032   1.868  12.164
59679W        W24664  34.775   5.945   1.213
59680W        W24665  14.408  23.155  13.943
59681W        W24666  16.518   0.333   3.136
59682W        W24667  37.941  44.971   2.918
59683W        W24668  23.220  10.246   1.807
59684W        W24669  39.091  12.357   1.509
59685W        W24670   6.489  16.382  14.804
59686W        W24671  28.825  12.382   3.242
59687W        W24672  15.185  19.805   0.836
59688W        W24673  27.090  41.257   4.652
59689W        W24674  41.285   7.667   1.290
59690W        W24675  44.264  41.331   0.894
59691W        W24676   2.710  34.593  13.494
59692W        W24677  29.436   0.930   3.313
59693W        W24678  36.375  27.838  10.888
59694W        W24679  41.920  38.771  11.563
59695W        W24680  44.689   7.969   3.804
59696W        W24681  28.681  14.813   1.709
59697W        W24682   3.863  10.505  10.275
59698W        W24683  36.867  36.411  12.355
59699W        W24684  31.284  25.135   0.612
59700W        W24685   7.950  29.392  14.066
59701W        W24686   6.408  24.146  14.866
59702W        W24687  33.124  12.577  11.907
59703W        W24688  17.623  25.210   1.515
59704W        W24689  43.887   0.346  13.450
59705W        W24690  35.433   3.171   0.352
59706W        W24691  10.585  15.398   2.365
59707W        W24692  25.581  15.813  11.248
59708W        W24693  33.838  28.643   3.651
59709W        W24694  14.272  30.081  13.932
59710W        W24695  37.802   0.373   0.119
59711W        W24696   7.105  22.162   4.174
59712W        W24697  30.233   4.116   4.296
59713W        W24698  27.071  24.674   1.352
59714W        W24699   9.056  12.176   3.825
59715W        W24700  15.914  36.684  11.979
59716W        W24701  14.532  22.537   2.350
59717W        W24702  32.965   3.865   4.255
59718W        W24703  40.411  41.079   3.222
59719W        W24704   3.174  20.770  12.471
59720W        W24705  38.549  28.957  12.078
59721W        W24706   3.755  34.823  13.573
59722W        W24707  11.647  32.837  11.191
59723W        W24708  20.573  37.805   1.672
59724W        W24709  15.485  20.376  12.541
59725W        W24710  30.665  28.958  12.168
59726W        W24711   4.267   4.408  11.469
59727W        W24712  40.309   5.451   4.452
59728W        W24713  23.482  10.649   3.824
59729W        W24714  25.115  28.641  13.583
59730W        W24715  22.260  14.056  14.032
59731W        W24716  10.145  12.426  11.985
59732W        W24717  38.054  28.381  11.650
59733W        W24718  32.678  37.022  11.035
59734W        W24719   4.722  25.963   1.979
59735W        W24720  23.738  19.783  11.569
59736W        W24721  42.696   6.137   3.998
59737W        W24722  31.009  40.984  14.053
59738W        W24723  33.893   0.324  14.336
59739W        W24724  20.738  32.297   4.840
59740W        W24725  17.626  19.202  12.145
59741W        W24726  18.599   5.948  14.722
59742W        W24727  13.110  12.230   3.825
59743W        W24728  44.228  32.893  11.182
59744W        W24729   1.952   1.197   0.409
59745W        W24730   4.833  31.626   2.407
59746W        W24731  30.199   5.748   1.251
59747W        W24732  42.756  37.180   4.707
59748W        W24733  35.437  21.623  14.921
59749W        W24734   0.486   9.947  14.768
59750W        W24735  20.457   5.154  14.341
59751W        W24736   2.484  12.340  14.265
59752W        W24737  27.151   6.896  12.812
59753W        W24738  18.454  34.427   4.117
59754W        W24739  24.210  37.949  12.443
59755W        W24740   1.183  26.175  11.047
59756W        W24741  34.842  38.444  13.117
59757W        W24742  38.410   2.485  12.410
59758W        W24743  19.074  16.549  11.109
59759W        W24744  29.143  41.816   1.911
59760W        W24745  34.819  25.141   3.379
59761W        W24746  26.425  32.638  13.569
59762W        W24747  32.930   6.719  12.087
59763W        W24748  16.209  29.062   1.683
59764W        W24749  44.656  42.948   3.670
59765W        W24750  34.134  41.835   1.098
59766W        W24751  31.571  23.235   0.782
59767W        W24752  33.699  18.291  14.506
59768W        W24753  34.738  21.775   4.286
59769W        W24754   1.057   4.425  12.482
59770W        W24755  27.561  42.387   1.432
59771W        W24756  27.144  15.745   2.669
59772W        W24757  44.309  19.600  12.570
59773W        W24758  31.831   4.128  11.575
59774W        W24759  20.038  26.946   3.272
59775W        W24760  42.261  29.576   2.022
59776W        W24761  16.171  14.750  11.908
59777W        W24762   4.270  31.258   1.529
59778W        W24763   3.491  14.905   4.142
59779W        W24764  44.402  24.707  14.141
59780W        W24765  26.962  36.506   2.328
59781W        W24766  34.771  28.357   2.734
59782W        W24767  13.414   5.408   2.813
59783W        W24768   5.164  15.108   4.598
59784W        W24769   6.740  27.633   4.612
59785W        W24770  30.132  40.364  10.697
59786W        W24771  16.763  19.323   1.638
59787W        W24772   2.671  30.476   1.867
59788W        W24773  32.627  29.016   3.626
59789W        W24774  23.757  21.632   4.472
59790W        W24775  34.320  12.850   0.721
59791W        W24776  16.670  25.603  11.941
59792W        W24777   7.711  25.033   1.009
59793W        W24778   8.807  22.098  11.625
59794W        W24779  27.040  29.354   3.574
59795W        W24780  32.398  38.592   0.774
59796W        W24781  25.537   0.735  13.719
59797W        W24782   5.114  25.941  13.030
59798W        W24783   3.710   8.796   2.771
59799W        W24784   6.821  13.698  13.329
59800W        W24785  11.555  34.871  12.525
59801W        W24786  15.555   8.738   0.911
59802W        W24787  39.549  12.541  10.701
59803W        W24788  23.625   6.174  14.267
59804W        W24789  12.912   7.174  11.047
59805W        W24790  15.546  39.527   1.783
59806W        W24791   1.386  38.395   0.183
59807W        W24792  36.009  36.864  13.402
59808W        W24793  41.970  21.121   4.168
59809W        W24794   2.453   3.570   2.286
59810W        W24795  23.542   2.304   1.194
59811W        W24796   5.747   8.888  11.928
59812W        W24797  12.337   8.898   1.914
59813W        W24798  25.651  12.547  11.677
59814W        W24799   7.790  35.688  10.712
59815W        W24800  36.826   7.251   1.839
59816W        W24801  44.469   9.948   4.139
59817W        W24802  10.401  26.042  10.633
59818W        W24803  41.544   9.284  11.483
59819W        W24804  34.479  12.075  14.325
59820W        W24805  38.943  39.336  10.940
59821W        W24806  28.900  39.294  13.951
59822W        W24807  16.537   2.517   1.007
59823W        W24808   4.341   4.443   2.572
59824W        W24809  17.559  29.821   3.209
59825W        W24810  24.956   4.869  11.557
59826W        W24811  42.458   9.420   3.951
59827W        W24812   0.306  19.088  13.553
59828W        W24813  29.029  19.206   2.384
59829W        W24814   3.146  30.202   2.172
59830W        W24815  32.737  17.433  11.536
59831W        W24816  41.289  39.346   1.316
59832W        W24817  29.496  40.880   3.775
59833W        W24818  31.670  14.617   1.864
59834W        W24819  22.670   0.811  12.562
59835W        W24820  10.335   8.304   0.969
59836W        W24821  35.008  40.563   4.985
59837W        W24822  33.404  15.471   1.710
59838W        W24823  18.997  15.391   4.314
59839W        W24824  19.061  25.878   4.176
59840W        W24825  34.739  39.612  12.620
59841W        W24826  21.787   0.402  13.508
59842W        W24827   3.943  15.682   0.309
59843W        W24828  30.717  39.518   1.770
59844W        W24829  43.355   3.694   4.212
59845W        W24830  44.784  41.944  12.437
59846W        W24831   0.498   8.874  10.688
59847W        W24832  41.459  14.778   2.863
59848W        W24833  21.226   1.082   4.156
59849W        W24834  21.034  29.932   1.962
59850W        W24835   6.471  39.888   3.466
59851W        W24836  28.878  24.481  14.877
59852W        W24837   2.759  11.784  10.778
59853W        W24838   9.804  38.737  13.803
59854W        W24839  27.163  24.785   3.134
59855W        W24840   4.288  21.309  12.097
59856W        W24841  38.336  41.282   4.943
59857W        W24842   1.998  15.487   0.995
59858W        W24843  26.783  22.294   1.274
59859W        W24844  44.932  30.315  14.913
59860W        W24845  43.553  31.390  13.437
59861W        W24846  37.788  31.843   4.119
59862W        W24847  32.143  38.475  10.650
59863W        W24848  37.554   2.379  11.938
59864W        W24849  37.337  34.306   0.945
59865W        W24850  28.623  19.133   3.883
59866W        W24851   4.923  44.334  13.284
59867W        W24852  27.288  12.417   3.654
59868W        W24853  43.763  32.125   1.909
59869W        W24854   8.863  36.531  13.347
59870W        W24855  20.137  19.494  12.408
59871W        W24856  10.384  24.416   4.181
59872W        W24857   1.877   1.374  13.150
59873W        W24858  14.756   8.797  13.412
59874W        W24859  44.484  36.706   1.373
59875W        W24860  30.569   5.752  13.581
59876W        W24861  10.865  39.368  14.521
59877W        W24862  42.890  43.265   3.943
59878W        W24863   1.027  21.581  13.746
59879W        W24864  26.413  25.556   3.328
59880W        W24865  42.035   6.402   2.180
59881W        W24866  20.530  17.262  12.924
59882W        W24867  30.108   6.032   4.392
59883W        W24868  13.044  25.063  12.558
59884W        W24869  30.535  12.149  13.520
59885W        W24870   3.707   5.392   1.857
59886W        W24871  13.142  14.742   4.273
59887W        W24872  42.567  30.734  11.897
59888W        W24873   0.662  18.299   2.329
59889W        W24874  38.480  31.667   4.947
59890W        W24875  14.852  32.536  12.916
59891W        W24876  24.027  10.440   5.033
59892W        W24877   1.264  14.111  12.544
59893W        W24878  12.856  31.000   3.612
59894W        W24879  29.592   3.150   0.705
59895W        W24880   1.043  42.801  13.464
59896W        W24881  39.292  44.148   2.917
59897W        W24882   1.775  31.996   0.797
59898W        W24883  36.054  12.641  10.544
59899W        W24884  35.059  36.663   3.118
59900W        W24885  36.137  29.398  13.915
59901W        W24886   4.125  10.253  12.929
59902W        W24887  34.323  44.881  12.130
59903W        W24888  22.051   9.690   3.133
59904W        W24889  18.243  13.040   2.552
59905W        W24890   6.696  37.366   3.162
59906W        W24891  42.870   0.120  13.097
59907W        W24892  16.245  29.114   3.183
59908W        W24893   5.833  36.060  14.300
59909W        W24894   9.036  16.751  13.624
59910W        W24895  40.440  42.827  11.138
59911W        W24896   7.167   3.664  12.415
59912W        W24897   7.875  15.487   3.502
59913W        W24898  27.273  41.817   1.955
59914W        W24899   5.740  19.374   4.101
59915W        W24900  13.355   0.255   4.244
59916W        W24901  23.663   0.982   2.230
59917W        W24902  44.292  36.276  12.575
59918W        W24903  42.373  28.373  14.883
59919W        W24904  18.557  44.568   1.080
59920W        W24905   6.259  44.706  13.407
59921W        W24906  41.249  41.503  11.653
59922W        W24907   3.180   2.862  13.897
59923W        W24908   2.860   4.791   3.373
59924W        W24909  31.957  23.050  13.440
59925W        W24910   2.153  35.981   3.742
59926W        W24911  44.007   7.962  11.925
59927W        W24912   2.137  38.628   1.594
59928W        W24913  36.542  36.478  14.355
59929W        W24914  11.404   7.186  13.534
59930W        W24915  31.320   4.150   2.767
59931W        W24916   2.346  30.247   4.536
59932W        W24917  13.344  20.730  11.188
59933W        W24918   3.917  39.856   1.815
59934W        W24919  17.525  11.646   3.429
59935W        W24920   7.734   4.396  11.869
59936W        W24921  21.589   5.869  12.585
59937W        W24922  13.562  24.705   1.311
59938W        W24923  44.254  12.562  14.378
59939W        W24924   9.841  29.093   3.750
59940W        W24925  19.238  34.927  14.623
59941W        W24926   5.290  18.091  14.331
59942W        W24927  21.214  20.795   1.565
59943W        W24928  29.425  32.999   2.172
59944W        W24929  33.360  35.452  13.968
59945W        W24930   3.015  13.761  12.647
59946W        W24931  41.458  42.014  13.657
59947W        W24932  38.796  23.818  12.971
59948W        W24933  12.102  22.007   1.354
59949W        W24934  10.802  34.281   2.249
59950W        W24935  12.835   3.930  11.041
59951W        W24936  11.087  29.167  14.132
59952W        W24937  17.221  22.957  13.711
59953W        W24938  17.008  20.624   4.267
59954W        W24939  17.863  23.087   2.849
59955W        W24940  13.820  14.247   3.748
59956W        W24941  21.037  32.718  11.912
59957W        W24942  34.908  35.509  11.921
59958W        W24943  30.857   5.674  14.037
59959W        W24944  30.489  24.165  10.917
59960W        W24945  10.311  10.127   0.317
59961W        W24946  18.177  24.502  11.191
59962W        W24947  15.844   1.022   1.895
59963W        W24948   5.103   3.419  14.846
59964W        W24949   5.836  37.013  14.323
59965W        W24950  20.284  42.063   0.804
59966W        W24951  24.759  36.889  12.077
59967W        W24952   0.809  42.404   2.823
59968W        W24953  29.654   5.300  14.549
59969W        W24954  17.906   7.846  14.345
59970W        W24955  13.530  38.997   3.634
59971W        W24956  40.252  31.654   4.077
59972W        W24957  34.974  23.140  12.897
59973W        W24958  17.162   6.393  11.205
59974W        W24959   5.859  11.796  10.569
59975W        W24960  14.143  17.659   4.568
59976W        W24961  37.591  37.494  14.918
59977W        W24962  42.745  34.348   0.900
59978W        W24963  33.778  25.569  13.768
59979W        W24964  32.482   0.695   1.358
59980W        W24965   2.777  31.582  14.585
59981W        W24966  23.600  24.218  14.135
59982W        W24967   2.252  21.042   4.769
59983W        W24968  14.227  42.711  12.561
59984W        W24969  37.273  42.215   4.951
59985W        W24970  19.776  37.293  14.486
59986W        W24971  44.743  30.221   1.740
59987W        W24972  15.495  18.565  14.276
59988W        W24973  24.749  28.135   4.542
59989W        W24974  16.398  12.603  14.924
59990W        W24975   7.264  28.711   0.251
59991W        W24976  28.702  29.646  11.883
59992W        W24977   6.440  39.363  12.296
59993W        W24978  14.752  16.312  11.150
59994W        W24979  15.862  30.796   0.622
59995W        W24980  30.515  12.072   0.954
59996W        W24981  21.323  18.309   5.033
59997W        W24982  13.704  14.258  14.675
59998W        W24983  15.336  24.070  12.596
59999W        W24984  31.552  34.169  12.563
60000W        W24985  24.924  18.031  11.612
60001W        W24986  38.965  39.297   3.563
60002W        W24987  41.333  40.022   4.123
60003W        W24988  33.581   3.202   2.167
60004W        W24989  35.426  21.084   0.743
60005W        W24990  14.818  32.192   3.757
60006W        W24991  12.848  44.052   2.235
60007W        W24992   1.568   7.806   4.190
60008W        W24993   0.889  29.952  11.709
60009W        W24994  13.349   9.871   4.860
60010W        W24995   4.607   9.634   2.555
60011W        W24996  29.159  29.069  10.918
60012W        W24997  43.801  22.453  13.308
60013W        W24998   3.181   0.284   4.922
60014W        W24999   9.429  28.469  12.032
60015W        W25000  14.705  44.693  14.827
60016W        W25001   7.324   8.487  13.005
60017W        W25002  16.679  25.004  12.821
60018W        W25003  11.841   2.785   4.742
60019W        W25004  15.869  32.483  13.120
60020W        W25005  40.824  19.249   3.304
60021W        W25006   2.901   7.811   0.828
60022W        W25007   0.460  25.169  13.884
60023W        W25008  16.886  24.284  11.550
60024W        W25009   7.796  43.425  11.869
60025W        W25010  44.664  31.329   0.975
60026W        W25011  34.390  29.178   4.589
60027W        W25012  25.959  26.481  11.972
60028W        W25013  13.322   4.633   0.429
60029W        W25014  22.019  22.713  12.559
60030W        W25015  13.624  21.543   4.398
60031W        W25016  12.689  15.654   3.645
60032W        W25017  40.002  38.174   4.150
60033W        W25018  19.079  33.398  13.511
60034W        W25019  21.323  30.096   2.891
60035W        W25020  39.074  29.355  10.348
60036W        W25021  12.694  44.984   3.751
60037W        W25022  34.112  16.690   0.814
60038W        W25023  37.039  21.178   3.611
60039W        W25024  29.138   5.107   5.172
60040W        W25025   7.907  24.130  13.929
60041W        W25026   9.725  39.259   2.196
60042W        W25027  35.540   0.180   2.298
60043W        W25028   2.916  41.550  11.069
60044W        W25029  31.149  20.061   3.347
60045W        W25030  40.075  25.036  12.007
60046W        W25031   4.146   2.860   4.610
60047W        W25032  13.672   1.503  14.947
60048W        W25033   0.917  25.990   0.966
60049W        W25034  12.701  16.735  12.058
60050W        W25035  33.886  33.487   2.732
60051W        W25036  18.727  16.197   0.279
60052W        W25037  40.852  39.503   4.209
60053W        W25038  24.491  17.257  12.525
60054W        W25039  28.440  10.325   3.130
60055W        W25040  25.588   5.460   0.272
60056W        W25041  41.899  42.626  10.627
60057W        W25042  15.691  20.509  14.563
60058W        W25043  42.795  31.922  13.237
60059W        W25044  40.313   0.315   3.737
60060W        W25045  33.006  16.904  14.937
60061W        W25046  36.539  18.840   0.709
60062W        W25047  28.015  11.638   4.570
60063W        W25048  34.761  19.631  11.485
60064W        W25049  23.980  40.628   0.501
60065W        W25050   2.880   9.792  10.831
60066W        W25051   2.359  38.908   1.219
60067W        W25052   0.226  21.120  11.791
60068W        W25053  24.936  37.361   4.236
60069W        W25054   7.839  16.180   1.157
60070W        W25055  19.050  19.936  13.397
60071W        W25056  38.618   6.869  14.952
60072W        W25057  39.872  31.493  13.941
60073W        W25058  41.727  27.221   4.197
60074W        W25059  40.612  10.236   2.734
60075W        W25060  39.728  14.956   2.772
60076W        W25061  25.854  21.321  12.852
60077W        W25062   4.459  27.930   0.750
60078W        W25063  14.241  20.810   0.790
60079W        W25064  35.269  20.176  13.190
60080W        W25065  15.324  15.005  11.988
60081W        W25066  35.539   8.156  13.480
60082W        W25067   7.832  44.957  11.611
60083W        W25068  23.829  25.779  13.424
60084W        W25069  41.815  33.856  11.193
60085W        W25070  20.542  19.086   2.068
60086W        W25071  25.147  12.322  12.891
60087W        W25072  21.017  24.478  14.803
60088W        W25073  44.879  27.571   0.704
60089W        W25074  13.154   6.620   1.275
60090W        W25075  31.043  38.108  13.356
60091W        W25076  37.456  43.990   4.614
60092W        W25077  15.882  36.945  13.648
60093W        W25078  16.749  35.668  13.906
60094W        W25079  37.908  26.156  10.702
60095W        W25080  17.903  39.499  11.918
60096W        W25081  28.403  23.263   3.304
60097W        W25082  19.647  14.701   1.140
60098W        W25083  35.561  41.441   0.560
60099W        W25084   1.389  44.859  12.596
60100W        W25085  26.622  19.978  13.996
60101W        W25086  23.759  32.022   1.519
60102W        W25087  29.856  40.365  12.521
60103W        W25088  34.267   4.716   3.837
60104W        W25089  33.594  33.909  11.425
60105W        W25090  39.218  31.563  12.923
60106W        W25091  39.110  33.570  13.780
60107W        W25092  38.344  25.967  13.547
60108W        W25093  39.352  24.592   4.208
60109W        W25094  27.707   2.921   0.295
60110W        W25095  22.607  35.525   3.122
60111W        W25096   0.862  17.979  13.039
60112W        W25097  28.447  15.650  12.063
60113W        W25098  34.638   5.010   0.231
60114W        W25099  20.706   7.619  10.743
60115W        W25100  33.025   5.947   0.545
60116W        W25101  27.599  31.377   0.492
60117W        W25102   4.363  19.119  12.539
60118W        W25103  40.543  43.946  10.669
60119W        W25104  41.724  19.074  11.884
60120W        W25105  16.270  28.578   2.338
60121W        W25106  25.176  43.545  12.043
60122W        W25107  16.195   8.740   0.620
60123W        W25108  19.081  33.551   1.146
60124W        W25109  14.687  34.567  11.894
60125W        W25110  22.934  10.727  11.107
60126W        W25111  33.361   2.019   3.195
60127W        W25112  35.359  15.721   3.609
60128W        W25113  27.531  29.654  13.606
60129W        W25114  44.638  35.697   5.153
60130W        W25115   7.143   8.190  14.333
60131W        W25116  35.915  22.123   4.106
60132W        W25117  27.498  32.087  14.760
60133W        W25118  32.510  15.663  11.434
60134W        W25119  43.853  21.335   0.939
60135W        W25120   3.670  25.956  14.336
60136W        W25121  32.885  23.187  10.980
60137W        W25122   6.736  22.943  12.691
60138W        W25123  15.152  39.976   0.313
60139W        W25124   2.968  29.875  10.674
60140W        W25125  18.115   8.713  13.860
60141W        W25126  12.189  14.671   1.988
60142W        W25127  21.778  11.221  12.417
60143W        W25128   2.416  17.132   0.263
60144W        W25129  42.874  43.327  12.379
60145W        W25130  41.486  24.762   1.735
60146W        W25131  10.425  25.491  14.777
60147W        W25132   6.847  27.807   1.926
60148W        W25133  10.776  33.998   4.308
60149W        W25134  39.923  34.868  12.941
60150W        W25135   2.499   7.411  14.040
60151W        W25136   5.858  21.079   1.169
60152W        W25137   4.207   2.682   0.960
60153W        W25138  39.805   5.322  13.610
60154W        W25139  38.785  35.574  10.011
60155W        W25140  34.029  30.469   0.309
60156W        W25141  34.583  41.561   0.988
60157W        W25142  37.598  21.415   0.405
60158W        W25143  39.369  30.902   3.156
60159W        W25144  39.040   9.416  14.389
60160W        W25145  25.650  18.535  11.854
60161W        W25146   0.425  25.698   4.207
60162W        W25147  14.703  10.687  13.080
60163W        W25148  36.522   9.680  10.725
60164W        W25149  28.874   6.207  12.828
60165W        W25150  26.647   3.266  13.939
60166W        W25151  33.362  25.155  11.783
60167W        W25152  21.687  15.135  13.020
60168W        W25153  29.353  22.079  11.399
60169W        W25154  23.990  12.747  12.014
60170W        W25155   6.903  24.675   3.597
60171W        W25156  11.222  43.738   0.415
60172W        W25157  38.267   7.346   3.766
60173W        W25158   8.408  21.247   4.098
60174W        W25159   7.749  18.504   4.714
60175W        W25160  18.769  20.744  10.227
60176W        W25161   4.408  38.851  12.949
60177W        W25162  39.978   2.675  10.826
60178W        W25163  33.154  14.391  13.710
60179W        W25164  22.202  37.929  13.442
60180W        W25165  19.648  27.080  12.561
60181W        W25166  24.164   3.234   0.294
60182W        W25167   5.439  43.757   2.318
60183W        W25168  25.788  36.016   0.031
60184W        W25169   6.591   6.865  12.367
60185W        W25170   2.938  17.731   3.127
60186W        W25171  24.088   0.805  11.593
60187W        W25172  17.245  11.078  13.936
60188W        W25173   8.609  21.610  11.686
60189W        W25174  20.245  21.709  11.994
60190W        W25175   1.176  22.583   2.169
60191W        W25176  25.479   0.700   4.900
60192W        W25177  38.692  15.761  14.060
60193W        W25178  33.197  23.364   3.667
60194W        W25179  30.948  35.135   1.854
60195W        W25180   3.375  40.379  12.089
60196W        W25181  39.037  21.748   1.207
60197W        W25182  10.296  15.122  13.007
60198W        W25183  43.047   1.519   2.614
60199W        W25184   6.348  24.360   0.335
60200W        W25185  10.789  18.693   3.213
60201W        W25186   6.345  15.342  12.380
60202W        W25187  13.625  35.906  12.067
60203W        W25188  25.044  39.827   2.417
60204W        W25189  25.973  11.605  11.902
60205W        W25190  25.244   3.334  13.372
60206W        W25191  24.455   7.279  10.621
60207W        W25192   7.349  29.584  14.874
60208W        W25193  27.565  35.434   2.588
60209W        W25194  32.829  38.880   0.922
60210W        W25195  19.509  17.926   5.315
60211W        W25196  21.735  35.522   4.166
60212W        W25197  24.411  22.696  12.669
60213W        W25198  22.755  14.861   1.580
60214W        W25199  14.313  18.255  11.572
60215W        W25200  28.970  21.772  14.379
60216W        W25201  23.582   1.903  14.263
60217W        W25202   9.691  19.429   4.251
60218W        W25203   4.373  30.139   0.820
60219W        W25204  37.459  35.302   1.750
60220W        W25205  25.479  23.881   1.890
60221W        W25206  31.190  11.897  14.506
60222W        W25207  37.729   1.805   0.857
60223W        W25208  21.518  11.702   2.810
60224W        W25209  18.783  16.769  14.467
60225W        W25210  20.754  25.033  11.986
60226W        W25211   8.177  32.903  14.322
60227W        W25212  40.249  41.333  14.475
60228W        W25213  38.260  35.392   0.780
60229W        W25214  39.125  15.294   3.559
60230W        W25215  41.452  19.059  13.427
60231W        W25216  31.526  37.088   4.828
60232W        W25217   5.856  33.509  11.501
60233W        W25218  42.504  21.972  12.525
60234W        W25219  11.937  11.973  13.454
60235W        W25220  30.910  31.174  14.389
60236W        W25221  35.365  42.895  12.893
60237W        W25222  44.532   7.844  11.113
60238W        W25223  31.448  10.272   1.767
60239W        W25224  44.521  38.255  11.009
60240W        W25225  26.586   4.352   1.992
60241W        W25226  37.628  27.046   9.729
60242W        W25227   2.108  38.448   2.434
60243W        W25228  19.640   7.280   2.800
60244W        W25229  32.341  25.917   2.794
60245W        W25230  36.977  18.597  13.438
60246W        W25231  20.204  42.908   1.956
60247W        W25232   4.255  11.080   2.699
60248W        W25233  31.395   1.493  12.362
60249W        W25234  24.181   3.017  12.984
60250W        W25235  26.667   7.767   2.248
60251W        W25236  18.881   6.135  12.668
60252W        W25237  22.145  31.937  14.797
60253W        W25238   0.702  17.816   1.258
60254W        W25239   8.913  25.670   4.222
60255W        W25240   7.653   6.810   1.714
60256W        W25241  16.569  33.363  10.557
60257W        W25242  28.694  21.706  14.902
60258W        W25243  40.535  33.484  12.120
60259W        W25244  15.727  11.702   3.166
60260W        W25245  10.203  35.353  10.787
60261W        W25246  38.575  34.939  14.584
60262W        W25247   3.310  37.968   0.317
60263W        W25248  16.309  14.082   1.872
60264W        W25249  16.886   7.212  11.574
60265W        W25250  21.995  13.706  12.012
60266W        W25251   0.240  19.482   0.771
60267W        W25252  33.660  16.805  14.408
60268W        W25253  12.526  42.852  13.851
60269W        W25254  44.891  42.292  10.758
60270W        W25255   2.248  19.603  10.198
60271W        W25256  14.178  41.057  12.051
60272W        W25257  12.150  22.230   4.141
60273W        W25258  44.458   6.745   3.687
60274W        W25259  44.698  41.324  12.123
60275W        W25260  12.771  29.907  14.982
60276W        W25261  20.553   3.303   4.084
60277W        W25262  25.420  13.772   3.774
60278W        W25263  29.432  31.067   1.773
60279W        W25264  17.571  20.635  11.654
60280W        W25265  43.544  41.517  11.182
60281W        W25266  36.612  36.111  12.041
60282W        W25267  17.279  42.368  14.792
60283W        W25268  17.818  16.170   3.821
60284W        W25269   4.561  17.183   3.349
60285W        W25270  28.474  10.679  12.859
60286W        W25271  10.171   7.168  13.584
60287W        W25272  13.844  43.957  10.684
60288W        W25273   7.327  27.607   3.355
60289W        W25274  32.996   6.349  11.155
60290W        W25275  34.266  15.479   4.542
60291W        W25276  30.854  42.844  10.753
60292W        W25277  17.062  11.180  14.422
60293W        W25278  29.462  21.489   3.219
60294W        W25279  32.147  13.330   3.166
60295W        W25280  12.910  22.272   1.564
60296W        W25281   1.880   6.141   4.557
60297W        W25282  24.626  21.661  10.977
60298W        W25283  19.075  10.143   2.375
60299W        W25284  22.735   4.856   1.129
60300W        W25285  37.110  32.654   4.096
60301W        W25286   3.244  36.104  11.928
60302W        W25287  23.217  21.506   2.845
60303W        W25288  41.847  24.415  12.111
60304W        W25289  43.915  29.558  12.077
60305W        W25290   8.258  28.037  10.574
60306W        W25291  41.338  42.822  11.384
60307W        W25292  43.411  44.053  12.562
60308W        W25293  37.637   3.768   3.664
60309W        W25294  16.570  37.027  13.065
60310W        W25295   9.315  33.220   1.422
60311W        W25296  34.637  12.463  12.382
60312W        W25297  43.382  36.341  10.169
60313W        W25298  10.828  28.557   4.281
60314W        W25299   2.983  18.701  13.430
60315W        W25300   8.481   4.015  13.537
60316W        W25301   9.965  27.580  13.837
60317W        W25302  44.442   5.157   4.902
60318W        W25303  23.731  44.213   4.593
60319W        W25304  36.401  21.215   3.164
60320W        W25305  33.637   5.297  14.050
60321W        W25306  21.981  13.719  14.339
60322W        W25307  11.589  16.646   0.560
60323W        W25308   9.639  10.179   3.235
60324W        W25309  33.186   1.246  12.825
60325W        W25310  18.549  31.783  11.207
60326W        W25311  25.005  27.082  13.906
60327W        W25312  26.595   0.063  13.377
60328W        W25313  37.851  36.937   0.292
60329W        W25314  28.504   4.421  13.176
60330W        W25315   6.228  24.612   4.372
60331W        W25316  44.808  23.076   2.385
60332W        W25317  43.828  34.193   4.138
60333W        W25318  25.664  39.048   0.246
60334W        W25319  41.085  30.020  14.438
60335W        W25320  44.590  34.993   0.871
60336W        W25321  23.296  39.856   0.710
60337W        W25322  34.882  14.802   4.099
60338W        W25323  44.421   9.238   3.629
60339W        W25324   3.806  27.164  11.552
60340W        W25325   1.485  18.573   4.089
60341W        W25326  34.616   0.565   1.455
60342W        W25327  28.245  21.584  11.879
60343W        W25328   8.174   6.825   1.755
60344W        W25329   0.719  30.388  12.645
60345W        W25330   9.948  43.868  11.563
60346W        W25331  36.462  27.482  12.911
60347W        W25332  20.209  13.387   3.072
60348W        W25333  20.178  33.985   1.212
60349W        W25334   1.123  10.488   4.124
60350W        W25335  15.382  34.667  13.488
60351W        W25336  12.112  28.532  14.826
60352W        W25337  41.920  34.605  12.878
60353W        W25338   6.482  16.314  12.692
60354W        W25339  23.986  28.002  12.971
60355W        W25340  33.831  17.054  11.251
60356W        W25341  32.882  36.505  12.512
60357W        W25342   0.400  21.059  13.847
60358W        W25343  42.034  36.517  13.653
60359W        W25344  37.959  34.063   2.740
60360W        W25345   1.722   3.212  12.531
60361W        W25346  11.355  37.622   1.864
60362W        W25347  23.468  24.654  12.435
60363W        W25348   5.406  29.018   2.303
60364W        W25349   6.220  37.327   3.429
60365W        W25350   5.819  12.352  12.467
60366W        W25351   5.289  28.459   3.575
60367W        W25352  36.591   7.279  11.650
60368W        W25353  43.846  34.503   1.419
60369W        W25354  33.888  10.733   1.923
60370W        W25355  14.662  19.757  12.981
60371W        W25356  22.251  15.573  11.231
60372W        W25357  35.684  43.722  13.400
60373W        W25358  17.124  10.775  11.887
60374W        W25359   0.967  31.775  10.644
60375W        W25360  33.114  31.660   4.018
60376W        W25361  10.109  43.405  13.032
60377W        W25362  43.379  28.699   2.232
60378W        W25363  34.908  15.775  14.811
60379W        W25364  22.510  25.005   2.813
60380W        W25365  25.939  15.834   3.066
60381W        W25366  27.171   5.682   1.670
60382W        W25367   7.330  30.975   4.996
60383W        W25368   0.483   2.208   1.781
60384W        W25369   1.735  42.287   1.048
60385W        W25370  11.191  11.101  11.551
60386W        W25371   1.394   4.214  14.020
60387W        W25372   6.406  33.053  11.525
60388W        W25373  26.185  41.944   1.132
60389W        W25374  41.427   9.779   0.714
60390W        W25375  28.591  14.306  14.660
60391W        W25376  24.168   4.165  11.373
60392W        W25377  38.915  19.813   1.342
60393W        W25378  24.459  33.414  11.861
60394W        W25379  32.495  27.383   2.847
60395W        W25380  16.704   8.359   2.190
60396W        W25381  34.709  36.837   4.875
60397W        W25382  14.856   2.974   1.005
60398W        W25383  13.865   6.202   9.811
60399W        W25384  42.383  38.611   5.145
60400W        W25385  32.136  36.528   2.226
60401W        W25386  11.231   3.834  12.415
60402W        W25387  28.214  23.450   0.187
60403W        W25388   5.762  41.876  13.047
60404W        W25389  15.885  29.460  14.197
60405W        W25390  17.030  21.463  10.652
60406W        W25391   9.412   8.114   2.633
60407W        W25392   2.004  42.444   3.251
60408W        W25393  37.105  13.445   3.947
60409W        W25394  11.590   4.407  11.207
60410W        W25395  23.475  22.587   2.130
60411W        W25396  26.198  27.612   0.975
60412W        W25397  25.608  25.656  14.837
60413W        W25398  22.175  12.685  11.161
60414W        W25399  40.647  30.347  13.654
60415W        W25400  34.838  23.275  10.935
60416W        W25401  42.938  22.175   2.586
60417W        W25402  34.267  26.093  13.889
60418W        W25403   6.159   8.958  12.270
60419W        W25404  20.773  40.875  14.913
60420W        W25405   0.051  22.794  13.851
60421W        W25406  20.730  43.080  11.190
60422W        W25407  23.272  10.375  13.515
60423W        W25408   0.541  11.661  11.392
60424W        W25409  42.593   8.396   4.603
60425W        W25410  13.758  11.071  12.071
60426W        W25411  13.678  33.368   3.608
60427W        W25412   7.616  23.471   0.478
60428W        W25413  44.900  10.584   0.779
60429W        W25414   7.752  13.206   0.814
60430W        W25415  12.626  39.773  12.650
60431W        W25416  12.544  14.741   3.370
60432W        W25417  27.097  26.929  14.453
60433W        W25418  24.811  42.455   0.349
60434W        W25419  41.996  43.542  13.905
60435W        W25420  14.343  20.170   4.516
60436W        W25421  13.649  44.750   4.136
60437W        W25422  42.952  36.431  11.352
60438W        W25423  18.151  14.689   3.072
60439W        W25424  42.110   7.170  13.476
60440W        W25425  39.768  26.529  12.045
60441W        W25426  27.038   6.749   0.239
60442W        W25427  38.047  20.069   1.259
60443W        W25428  25.371  28.192  13.512
60444W        W25429   7.196  17.712  12.970
60445W        W25430   1.751  24.859   1.260
60446W        W25431  27.467  43.235   3.152
60447W        W25432   6.400  29.033   2.231
60448W        W25433  30.907  25.146  14.791
60449W        W25434   7.886  29.628   1.831
60450W        W25435  32.173  43.963   0.346
60451W        W25436  31.180  28.019  11.644
60452W        W25437   5.313  37.476   3.798
60453W        W25438   9.390  14.599   2.617
60454W        W25439   5.397  40.278  13.208
60455W        W25440   8.275  28.962   0.883
60456W        W25441  40.593  22.564   2.362
60457W        W25442  12.363  24.808  13.961
60458W        W25443  36.888  28.382  13.604
60459W        W25444  11.659  20.567  11.166
60460W        W25445   0.278  28.990   3.203
60461W        W25446   9.934  19.706  12.890
60462W        W25447   0.780  21.801   2.464
60463W        W25448  34.787  21.039  10.727
60464W        W25449   3.359  27.701  14.351
60465W        W25450  15.539  37.535  14.991
60466W        W25451  34.891   9.698   2.888
60467W        W25452   8.934   6.967   1.222
60468W        W25453   5.341   0.193   1.867
60469W        W25454  31.597  35.053  12.147
60470W        W25455   0.843   7.548   4.605
60471W        W25456  27.751   4.600   2.260
60472W        W25457  40.726   4.022   3.739
60473W        W25458  23.199  33.502   1.629
60474W        W25459  37.397  41.085   0.276
60475W        W25460  43.923  38.541   5.102
60476W        W25461   3.232   2.948  12.016
60477W        W25462  27.125  27.037   3.388
60478W        W25463  35.369  14.266  13.295
60479W        W25464   9.230   7.036  14.018
60480W        W25465  42.318  33.455  14.959
60481W        W25466  40.244   5.874   4.159
60482W        W25467  39.723  31.618  10.604
60483W        W25468   1.780  43.290   0.797
60484W        W25469  37.552  40.454   4.093
60485W        W25470  25.168   0.337   0.759
60486W        W25471  14.514  12.486  14.785
60487W        W25472  17.794  24.061  14.517
60488W        W25473   5.290  25.700  12.594
60489W        W25474  32.063  16.779   4.852
60490W        W25475   8.309  22.610   4.709
60491W        W25476  24.656  14.383  11.066
60492W        W25477  23.620  34.396  14.073
60493W        W25478  34.374  15.853  13.979
60494W        W25479  39.576  42.955  14.605
60495W        W25480   3.208  18.716   0.822
60496W        W25481   0.439  10.209   1.455
60497W        W25482  37.897  41.545  11.250
60498W        W25483   4.828  32.872   0.534
60499W        W25484  41.412   0.193  11.576
60500W        W25485  15.508  41.452  12.989
60501W        W25486  38.763  28.295  10.873
60502W        W25487  25.120  18.098   0.237
60503W        W25488   6.430  30.065  11.654
60504W        W25489  42.992  37.942   0.296
60505W        W25490  37.060   9.299  12.606
60506W        W25491  33.166  27.041   3.118
60507W        W25492  33.068  44.307   1.868
60508W        W25493  22.357   1.666  13.852
60509W        W25494   5.876  26.278  14.342
60510W        W25495  27.866  38.042   0.283
60511W        W25496  24.246  41.669  13.388
60512W        W25497  36.368  10.667   1.275
60513W        W25498  15.318  29.881  13.435
60514W        W25499  22.498  28.621  10.671
60515W        W25500  10.710  28.135   2.884
60516W        W25501  15.849  44.517   1.855
60517W        W25502   9.644  44.313   4.129
60518W        W25503  39.957  39.521   2.674
60519W        W25504   9.520  20.097  11.273
60520W        W25505  28.023   9.328  14.743
60521W        W25506  27.602  44.719  14.066
60522W        W25507  11.683  26.726  13.441
60523W        W25508  18.125  32.412  14.725
60524W        W25509  22.237  41.507   4.857
60525W        W25510  32.032  39.948   1.786
60526W        W25511  15.393   5.478  14.961
60527W        W25512   3.682  36.974  14.576
60528W        W25513  44.008   1.164  13.840
60529W        W25514  28.643  43.737  11.128
60530W        W25515   1.300  43.541   0.816
60531W        W25516  27.008   2.797   0.610
60532W        W25517  17.101  21.058   3.729
60533W        W25518   3.355  33.753   2.365
60534W        W25519  27.236  26.152   3.202
60535W        W25520  12.139  41.298   2.275
60536W        W25521  18.957   3.874  11.558
60537W        W25522   4.923   0.779  11.589
60538W        W25523  40.184   4.630   2.799
60539W        W25524  30.362  14.362   3.403
60540W        W25525  32.508  37.494  14.020
60541W        W25526  34.480  30.067   0.974
60542W        W25527  30.709  42.401  11.425
60543W        W25528  42.262  31.015  14.354
60544W        W25529   4.849   2.808  12.941
60545W        W25530  24.052   0.689  14.936
60546W        W25531  35.981   2.771  12.992
60547W        W25532  19.323   4.537   0.664
60548W        W25533  26.793   2.904  10.333
60549W        W25534  43.733  44.404  12.369
60550W        W25535  31.179   8.442  13.153
60551W        W25536  28.068  33.929  11.979
60552W        W25537  24.568   7.352   2.026
60553W        W25538  26.612   7.488   2.682
60554W        W25539  25.066  21.132  12.355
60555W        W25540  36.466   9.169  10.730
60556W        W25541   0.216  27.168   2.808
60557W        W25542  25.200  35.035  13.429
60558W        W25543  33.079   7.614  13.021
60559W        W25544   2.820  18.793  11.580
60560W        W25545   6.383  27.329   1.097
60561W        W25546   5.383   5.168  12.497
60562W        W25547  14.290  24.457   0.079
60563W        W25548  42.744   2.207  11.961
60564W        W25549  21.583   2.017  13.573
60565W        W25550   1.161   8.399  11.146
60566W        W25551  14.113  20.213  11.296
60567W        W25552  24.101  29.444  11.531
60568W        W25553   1.629  34.972   4.902
60569W        W25554  24.229  18.238  12.652
60570W        W25555  10.450   4.321   4.147
60571W        W25556  39.867  29.180   4.269
60572W        W25557  42.792  25.401  13.789
60573W        W25558  28.941   9.115  14.810
60574W        W25559  25.525  29.624   3.222
60575W        W25560  16.299  23.032   1.916
60576W        W25561   3.186  31.053  11.987
60577W        W25562  37.376  42.613  11.510
60578W        W25563  34.144  39.999   4.555
60579W        W25564  35.575  23.489   4.586
60580W        W25565  33.091  29.183  11.084
60581W        W25566  35.967   4.406   1.318
60582W        W25567  36.993  33.442  12.444
60583W        W25568  43.368  11.382  12.553
60584W        W25569   6.712   3.695   1.947
60585W        W25570  16.172   7.340   3.651
60586W        W25571   4.131  11.798  11.338
60587W        W25572  40.403  10.556   3.123
60588W        W25573  43.808   6.772   2.370
60589W        W25574  24.186  15.862  11.571
60590W        W25575   8.335   8.815   3.303
60591W        W25576   7.115  36.648  11.168
60592W        W25577  39.549  34.998   0.327
60593W        W25578  37.468  17.868   0.977
60594W        W25579   2.834  20.754   3.378
60595W        W25580  13.870  15.542  14.281
60596W        W25581  22.734   5.187  10.655
60597W        W25582  32.429   9.416   5.413
60598W        W25583  34.104  42.055  11.968
60599W        W25584  30.118  39.368   3.046
60600W        W25585   3.302  39.968   4.309
60601W        W25586   7.803  22.211  13.985
60602W        W25587   3.129  19.717   2.858
60603W        W25588  37.878  11.132  10.683
60604W        W25589  32.858  40.456  11.105
60605W        W25590  36.666  17.126   4.575
60606W        W25591  37.815   8.222  13.436
60607W        W25592  14.103  14.117   1.261
60608W        W25593  14.014   2.385   1.882
60609W        W25594  27.090  27.523  10.371
60610W        W25595  35.824  13.159  12.092
60611W        W25596  35.901   2.693   3.692
60612W        W25597   1.492   3.057   0.818
60613W        W25598  26.174  16.040   2.663
60614W        W25599  16.186  30.038   9.913
60615W        W25600  38.053  19.554  14.032
60616W        W25601  32.621  42.097  11.214
60617W        W25602   0.449  29.982  12.483
60618W        W25603  26.757   5.937  11.064
60619W        W25604  17.729  19.575  13.257
60620W        W25605   6.021  18.002   2.403
60621W        W25606   0.808  16.777   2.175
60622W        W25607  21.141  40.906  14.309
60623W        W25608  28.226   1.735   1.886
60624W        W25609   6.841   7.729   2.084
60625W        W25610  31.180  44.075  10.664
60626W        W25611   1.960  31.510   4.654
60627W        W25612  28.768  43.765   4.495
60628W        W25613  13.981  38.139   3.038
60629W        W25614   6.404  15.374  14.714
60630W        W25615  24.346  31.585   2.155
60631W        W25616  39.559  38.695  10.800
60632W        W25617  18.180  12.671  11.310
60633W        W25618  22.633  36.581  13.466
60634W        W25619   7.656   5.180   3.245
60635W        W25620  14.718  12.896  12.548
60636W        W25621  28.386  36.783   0.066
60637W        W25622  19.775  40.817   3.708
60638W        W25623   7.297  37.882   4.238
60639W        W25624  41.054  39.051  12.433
60640W        W25625  17.993  15.219  14.920
60641W        W25626   3.450  41.415   0.712
60642W        W25627  30.498  14.731  14.847
60643W        W25628  26.600  10.858  13.066
60644W        W25629  26.447  41.299   3.220
60645W        W25630   5.270   0.846   3.150
60646W        W25631  29.940  31.884   2.765
60647W        W25632  15.753  23.558   2.435
60648W        W25633  17.438  18.635   4.983
60649W        W25634  44.020  10.377   2.918
60650W        W25635  24.531  36.940   0.447
60651W        W25636   5.850   2.167  13.158
60652W        W25637  26.979  23.521  11.648
60653W        W25638  13.025  41.185   0.322
60654W        W25639   2.345   6.669   4.141
60655W        W25640   5.442   0.615  12.518
60656W        W25641   3.980   4.957   1.700
60657W        W25642  24.660  34.868  10.631
60658W        W25643  31.929   7.688   1.467
60659W        W25644   6.239  25.011  11.465
60660W        W25645  36.137  31.340   4.553
60661W        W25646  37.653   1.458   1.262
60662W        W25647  12.838  26.151   2.229
60663W        W25648   0.796  32.922   4.778
60664W        W25649  34.285  11.304  13.335
60665W        W25650  27.538   4.223   1.956
60666W        W25651  38.463  29.206   3.655
60667W        W25652  18.852   5.277  10.542
60668W        W25653  17.029  31.969  13.290
60669W        W25654  32.442  35.416   0.027
60670W        W25655  25.064  12.320   1.153
60671W        W25656  17.891   8.644  14.312
60672W        W25657  39.093  40.038  12.374
60673W        W25658  39.355  13.321   1.919
60674W        W25659  12.759   3.961   1.733
60675W        W25660  29.990  26.892  13.592
60676W        W25661  12.337  31.666   3.552
60677W        W25662  31.373   0.364  14.887
60678W        W25663  30.395  17.835  12.918
60679W        W25664  25.073  24.905  12.895
60680W        W25665  41.517   8.567  14.828
60681W        W25666  14.853   7.128   2.738
60682W        W25667  36.030  36.509   0.850
60683W        W25668  43.668  34.919  12.788
60684W        W25669  34.101   2.957   0.082
60685W        W25670  31.948  12.789  13.979
60686W        W25671  31.824  33.437  13.598
60687W        W25672  12.566  43.710   0.632
60688W        W25673  43.995  24.366  10.661
60689W        W25674  18.269  30.638  10.956
60690W        W25675  40.320  23.527   0.685
60691W        W25676   9.762   3.773   4.125
60692W        W25677  37.501  31.379  10.928
60693W        W25678   9.217  21.241   2.694
60694W        W25679  17.762  28.042  14.932
60695W        W25680  12.470  40.990  14.787
60696W        W25681  18.554   7.877  10.604
60697W        W25682   7.459  41.948   0.823
60698W        W25683  38.782  29.338  14.507
60699W        W25684  37.141  32.692  13.976
60700W        W25685  14.199  22.081   3.939
60701W        W25686  42.724  19.956  10.224
60702W        W25687  38.292  14.776  10.534
60703W        W25688  36.886   9.772  12.449
60704W        W25689  13.539  27.250  14.385
60705W        W25690   0.505   8.174  12.852
60706W        W25691   5.413  17.688  12.535
60707W        W25692  22.561   9.747   3.095
60708W        W25693   1.715  19.826   4.364
60709W        W25694  28.533  39.827  11.950
60710W        W25695  37.915   1.470  11.152
60711W        W25696  13.251  27.524  13.500
60712W        W25697  44.545  32.675  13.606
60713W        W25698  26.701  32.130  13.499
60714W        W25699  42.325  21.382   2.752
60715W        W25700  16.412   8.834   1.467
60716W        W25701  21.914   7.833   0.317
60717W        W25702  40.931  28.106  11.681
60718W        W25703   0.038  25.694  11.806
60719W        W25704  19.248  44.858   2.055
60720W        W25705   4.367  13.383   3.325
60721W        W25706   9.959  33.726  14.934
60722W        W25707  32.204  11.879   3.700
60723W        W25708   2.372  17.532   2.475
60724W        W25709  19.665  28.156  13.514
60725W        W25710  37.887   3.445  13.369
60726W        W25711  41.544   2.870  13.759
60727W        W25712  28.850  15.775   4.580
60728W        W25713   5.309  40.032  14.932
60729W        W25714  37.366  16.572   3.192
60730W        W25715   7.853  33.000  12.796
60731W        W25716  41.212  43.397   3.358
60732W        W25717  36.428   8.113  13.358
60733W        W25718   8.100  11.372   2.385
60734W        W25719  11.712  17.034   4.146
60735W        W25720  31.040   2.920   1.242
60736W        W25721  15.169  39.047   4.271
60737W        W25722  28.586  11.594   2.636
60738W        W25723  17.201  37.335   0.883
60739W        W25724  13.556  14.714   2.154
60740W        W25725  30.950  42.473   0.993
60741W        W25726  36.360   5.312  12.588
60742W        W25727  20.530   0.621   0.866
60743W        W25728   7.238  11.891   3.758
60744W        W25729  31.097  12.598  12.657
60745W        W25730  21.968  41.814   0.332
60746W        W25731  30.425  36.877  11.557
60747W        W25732  42.004   3.927   0.786
60748W        W25733   8.320  36.559  13.065
60749W        W25734  23.546  21.704  12.475
60750W        W25735  40.310  42.262   1.256
60751W        W25736  17.290  34.779  13.587
60752W        W25737  20.139   2.463   2.632
60753W        W25738  26.910  38.474   1.291
60754W        W25739  27.117  32.261   5.188
60755W        W25740   7.040  15.740   3.007
60756W        W25741   6.821  40.518  13.551
60757W        W25742  14.148  25.016  11.637
60758W        W25743  40.150  40.414   3.309
60759W        W25744  42.452  27.768  13.394
60760W        W25745  41.477  37.473   0.295
60761W        W25746  42.684   3.554   4.062
60762W        W25747  34.015  19.750   2.208
60763W        W25748  15.055  36.527   0.033
60764W        W25749   3.347  36.546   0.704
60765W        W25750  39.871  15.584   1.867
60766W        W25751  14.363  42.101  12.076
60767W        W25752  44.145   5.980  10.213
60768W        W25753   3.975  25.254   3.086
60769W        W25754  20.336  15.459   1.078
60770W        W25755  21.386  31.184  12.550
60771W        W25756   1.646  37.790   3.178
60772W        W25757  31.461   5.317  10.611
60773W        W25758  23.611  16.167  14.709
60774W        W25759   9.791  25.982   3.735
60775W        W25760  41.568  36.414  12.950
60776W        W25761  33.314   5.683   3.830
60777W        W25762  12.158  23.473   2.603
60778W        W25763   9.868   7.821   1.358
60779W        W25764  24.949  21.292  10.202
60780W        W25765   4.832  32.281   4.378
60781W        W25766  13.657  30.688   2.386
60782W        W25767  44.562  14.995  10.306
60783W        W25768   3.277  41.394   2.578
60784W        W25769  32.889  33.607   3.652
60785W        W25770  27.224  29.256   2.834
60786W        W25771   5.730  33.573   0.237
60787W        W25772  13.702  38.343   4.240
60788W        W25773   9.674   4.633  12.393
60789W        W25774   1.015  22.976  12.965
60790W        W25775  41.282  19.858  11.407
60791W        W25776  21.453  30.829  14.462
60792W        W25777  34.155  35.835   2.352
60793W        W25778   8.734   8.945  12.450
60794W        W25779   4.710  30.491  10.556
60795W        W25780  18.665  20.488  12.807
60796W        W25781  18.094  40.871   0.493
60797W        W25782  14.997  34.534   0.773
60798W        W25783  30.644  22.614   3.190
60799W        W25784  32.244  10.584   2.724
60800W        W25785  29.477  30.274  13.859
60801W        W25786   6.662  29.907   1.894
60802W        W25787  21.720  28.525  10.975
60803W        W25788  17.263  41.392   0.768
60804W        W25789  15.879  30.419  14.313
60805W        W25790  36.418  29.477   3.106
60806W        W25791  14.712  33.939   3.921
60807W        W25792  41.197   7.290  11.649
60808W        W25793   5.344  40.389   4.323
60809W        W25794  10.563   5.491   1.855
60810W        W25795   3.489  36.560   2.642
60811W        W25796  21.726   6.238  11.342
60812W        W25797   3.433   7.456   3.812
60813W        W25798   0.050  39.519   3.673
60814W        W25799  21.696  13.924   1.891
60815W        W25800  26.879   5.392  14.836
60816W        W25801  11.351  16.756  10.741
60817W        W25802  28.438   3.259  13.912
60818W        W25803  43.557   7.203  12.553
60819W        W25804  38.892   3.551  11.675
60820W        W25805  15.302  20.202  10.657
60821W        W25806  18.623  32.053  11.969
60822W        W25807  12.836   6.712  14.771
60823W        W25808  37.484  27.120   1.227
60824W        W25809  15.613  21.845   4.718
60825W        W25810   8.989  44.087   3.111
60826W        W25811  10.798  42.741   0.424
60827W        W25812  25.028   7.606   4.993
60828W        W25813  29.371   5.493   2.737
60829W        W25814  29.789  23.598  12.962
60830W        W25815  31.664  37.801   3.172
60831W        W25816  27.604   4.509  10.312
60832W        W25817  25.972  16.456   4.553
60833W        W25818   7.312  35.118   1.883
60834W        W25819   5.143   5.588  11.590
60835W        W25820   0.743   4.798  14.653
60836W        W25821  31.653  42.698   4.041
60837W        W25822  35.875  27.937   1.458
60838W        W25823  25.190  10.798   4.766
60839W        W25824  22.306  21.118   0.718
60840W        W25825  17.280   3.829  10.704
60841W        W25826  18.739  44.910  14.699
60842W        W25827  31.082  41.064   4.551
60843W        W25828  19.531  28.175  12.165
60844W        W25829  21.715  41.506   3.930
60845W        W25830   7.076  29.092  10.530
60846W        W25831  33.346  20.011   1.625
60847W        W25832  23.230   1.581  11.180
60848W        W25833  44.311  34.539   2.786
60849W        W25834   4.678  33.003  13.407
60850W        W25835  37.987  14.825  12.915
60851W        W25836  26.621  43.435   2.316
60852W        W25837  27.154  32.891  11.831
60853W        W25838  26.990  13.455   1.562
60854W        W25839  24.972  32.885   0.130
60855W        W25840   5.706   4.588  10.824
60856W        W25841  28.646  34.772  13.026
60857W        W25842  19.608   7.370  13.665
60858W        W25843  42.076  42.815   1.493
60859W        W25844   6.482   8.106  11.960
60860W        W25845  30.243  14.751   1.729
60861W        W25846  37.427  23.533   2.905
60862W        W25847   4.391  25.230  12.809
60863W        W25848  30.476  15.867   0.780
60864W        W25849  36.386  24.988  12.750
60865W        W25850   1.965  23.741  11.593
60866W        W25851   3.176  22.601   0.028
60867W        W25852   7.492  19.085   1.865
60868W        W25853   7.672  39.850   4.170
60869W        W25854  31.121  38.390   4.683
60870W        W25855  21.674  13.288  14.860
60871W        W25856   5.647  19.739   1.384
60872W        W25857  17.475  18.168  13.273
60873W        W25858  21.577  33.581   3.177
60874W        W25859  28.489  35.312  11.654
60875W        W25860  16.253  38.343   3.684
60876W        W25861  20.388  18.582   2.271
60877W        W25862   3.933   3.997   1.199
60878W        W25863  33.097   7.338  14.467
60879W        W25864  35.101  43.928  11.588
60880W        W25865  14.018  40.434  14.303
60881W        W25866  43.695  24.237  11.918
60882W        W25867  31.915  19.044   1.791
60883W        W25868  38.609   0.810  13.896
60884W        W25869   6.097  33.359   2.881
60885W        W25870   3.046  36.894  11.549
60886W        W25871   7.447   6.264  14.721
60887W        W25872  14.165  33.970  11.231
60888W        W25873  43.363  27.178   2.451
60889W        W25874  13.635  34.157  12.701
60890W        W25875  27.092  35.854   2.384
60891W        W25876   4.400   9.525   1.194
60892W        W25877   1.213  12.698   4.139
60893W        W25878  25.620  44.541  11.180
60894W        W25879  15.453   7.309  14.770
60895W        W25880  39.987   9.712  11.122
60896W        W25881  12.562  35.054  12.416
60897W        W25882  23.968  22.254   0.870
60898W        W25883   2.904  17.523   2.667
60899W        W25884  18.166   3.850   0.776
60900W        W25885   2.214   4.021   1.367
60901W        W25886  23.272  20.238   0.265
60902W        W25887   2.847  17.312  12.433
60903W        W25888  44.225  44.080   1.761
60904W        W25889  11.333  36.404   2.326
60905W        W25890  37.664   2.371   1.169
60906W        W25891  11.708   6.789  12.950
60907W        W25892  26.916  10.720   4.095
60908W        W25893  38.568  19.554   1.817
60909W        W25894   4.314  15.763  14.022
60910W        W25895  10.690  29.537  14.816
60911W        W25896  33.623  20.481  13.893
60912W        W25897   5.367  28.411   1.689
60913W        W25898   1.934  18.888   4.205
60914W        W25899  37.836   4.462  11.893
60915W        W25900  26.051  23.015   0.296
60916W        W25901  39.477  44.260  12.928
60917W        W25902   8.106  34.106   4.081
60918W        W25903   2.749  22.761   3.193
60919W        W25904  26.448   5.940  11.486
60920W        W25905  11.097   8.801  14.879
60921W        W25906  18.152   3.978   0.183
60922W        W25907  31.575  12.248  14.537
60923W        W25908   1.954  32.142   5.069
60924W        W25909   8.456  34.168   2.848
60925W        W25910   2.228  40.074  12.086
60926W        W25911   8.456  29.427   3.801
60927W        W25912  42.329  44.732   4.058
60928W        W25913  37.141  37.128  14.998
60929W        W25914  28.225  21.102  10.710
60930W        W25915  42.456   9.185  13.814
60931W        W25916  22.653  33.206   1.861
60932W        W25917  26.727   1.902   1.652
60933W        W25918  33.136  26.866  12.800
60934W        W25919  36.538   0.222   0.852
60935W        W25920  24.195  36.010  12.137
60936W        W25921   5.450   3.363   0.210
60937W        W25922  21.712  16.025   2.580
60938W        W25923  34.654  15.613   1.804
60939W        W25924   4.661  34.946   4.496
60940W        W25925   9.531  37.390   2.725
60941W        W25926  41.803  14.633   4.752
60942W        W25927  23.044   3.141   0.959
60943W        W25928  36.394   6.174  10.352
60944W        W25929  42.088  38.094  10.319
60945W        W25930  16.348  33.900  13.961
60946W        W25931  19.616  43.714  13.531
60947W        W25932  38.281  24.011  13.599
60948W        W25933  40.460  20.569   1.560
60949W        W25934  17.816   1.885  14.038
60950W        W25935  16.771  27.985  10.948
60951W        W25936  18.379  20.704   4.496
60952W        W25937  23.583   3.289   1.654
60953W        W25938  14.205   0.395   3.119
60954W        W25939  11.328  29.954  12.546
60955W        W25940  28.962  16.579   2.171
60956W        W25941  15.969  30.483  10.631
60957W        W25942  31.190  27.001  10.958
60958W        W25943  15.131  30.617   0.477
60959W        W25944  19.798  32.427  14.919
60960W        W25945  33.728  18.836  14.764
60961W        W25946   6.228   9.095  11.738
60962W        W25947   9.607  26.564  11.586
60963W        W25948  17.521  23.072   4.208
60964W        W25949  29.468   2.891   3.452
60965W        W25950  22.995  23.607   1.880
60966W        W25951  28.098  38.146   1.436
60967W        W25952  43.825  19.355  11.929
60968W        W25953  14.079  19.565   2.209
60969W        W25954  14.135   9.532   0.922
60970W        W25955  20.571  23.592  10.322
60971W        W25956   8.826  30.820   3.878
60972W        W25957  17.932  23.641  14.269
60973W        W25958  32.110  12.634   0.284
60974W        W25959   4.221  40.511  11.521
60975W        W25960  18.345  32.227   2.500
60976W        W25961  30.464  36.554  12.638
60977W        W25962   6.301  16.254  13.550
60978W        W25963   2.462  14.088   0.881
60979W        W25964  12.590  23.713   1.265
60980W        W25965  33.019   6.189   2.368
60981W        W25966   5.139  26.642  12.444
60982W        W25967   9.900  12.927  14.429
60983W        W25968  28.605  31.184   3.260
60984W        W25969  32.457  31.412   3.196
60985W        W25970  42.135  30.715  11.625
60986W        W25971  39.296  26.239  14.038
60987W        W25972   9.475  44.233   3.094
60988W        W25973  31.409  41.351   1.305
60989W        W25974  38.436   5.393  14.282
60990W        W25975  40.192  30.924  11.902
60991W        W25976  11.844   8.730   2.155
60992W        W25977  37.285  37.420   4.471
60993W        W25978  21.519  30.022  14.926
60994W        W25979   7.192  31.808  12.736
60995W        W25980  36.099  33.159   2.096
60996W        W25981  22.480  21.284  11.605
60997W        W25982  15.721  41.016   0.278
60998W        W25983  13.893   0.955   1.806
60999W        W25984   3.612  13.405   0.554
61000W        W25985  19.831  42.941  11.160
61001W        W25986  25.966  17.022   2.666
61002W        W25987  35.377   6.184   4.036
61003W        W25988  20.461  30.472   0.540
61004W        W25989   2.420   9.250  12.500
61005W        W25990  11.172  35.435   0.829
61006W        W25991  29.550   7.434   3.203
61007W        W25992  13.705  23.112   2.444
61008W        W25993   5.357   0.550   4.106
61009W        W25994  30.717   8.948   2.171
61010W        W25995   2.311  34.504   0.270
61011W        W25996   7.728  12.552  14.821
61012W        W25997  26.087  30.955  13.076
61013W        W25998  19.678   5.477  10.100
61014W        W25999  15.272  34.495   2.696
61015W        W26000   3.005  15.633  12.515
61016W        W26001   4.660  43.504  11.976
61017W        W26002  36.899  44.249  11.039
61018W        W26003  16.529  34.380  13.889
61019W        W26004  20.128  16.542   3.291
61020W        W26005   2.747  22.789  14.793
61021W        W26006  41.884  30.340   1.351
61022W        W26007  20.054  24.124   1.990
61023W        W26008  20.328  41.834  13.968
61024W        W26009   6.851  41.310  14.202
61025W        W26010   1.858  28.089  13.008
61026W        W26011   5.174  43.838   3.243
61027W        W26012  20.611  24.296  13.440
61028W        W26013  10.790  28.335  13.116
61029W        W26014  34.583  24.751  10.791
61030W        W26015  29.538  30.346   0.285
61031W        W26016  15.643  41.937  11.635
61032W        W26017  43.386  42.005  11.042
61033W        W26018   4.075  18.186  11.925
61034W        W26019  26.473  24.799  12.512
61035W        W26020  27.545   0.828  14.594
61036W        W26021   1.243  39.795  11.211
61037W        W26022  11.415  43.969  12.219
61038W        W26023  37.001  20.303  10.701
61039W        W26024  18.755  40.979  12.959
61040W        W26025  20.064  12.193   4.178
61041W        W26026  33.819  42.769   2.663
61042W        W26027  30.894  15.402   4.063
61043W        W26028  17.800  42.380  14.777
61044W        W26029  15.001   4.260  12.452
61045W        W26030  35.806  37.278   4.160
61046W        W26031  39.071  30.060  12.432
61047W        W26032  41.835  26.194  14.497
61048W        W26033   5.788  38.962   4.587
61049W        W26034  31.626   6.577   1.671
61050W        W26035  24.185  32.949  11.902
61051W        W26036  17.399  30.409   2.729
61052W        W26037  35.162  14.734   4.921
61053W        W26038  17.685  26.937   1.281
61054W        W26039  18.792  29.463  14.326
61055W        W26040   0.781  22.544  13.515
61056W        W26041  25.978  18.771  14.231
61057W        W26042  16.945  26.289  12.368
61058W        W26043  31.648  29.831  14.969
61059W        W26044   6.656   5.784   2.677
61060W        W26045  16.767  12.214   2.060
61061W        W26046  16.336  42.968  14.459
61062W        W26047  20.274  30.425   3.048
61063W        W26048  16.572  39.459   0.793
61064W        W26049  39.421  43.606  10.775
61065W        W26050  25.848  37.104   1.934
61066W        W26051  13.536  19.489   1.795
61067W        W26052  27.724  20.072   4.526
61068W        W26053  16.641  22.486  14.035
61069W        W26054  42.711   5.211  14.456
61070W        W26055  12.545  35.397  11.613
61071W        W26056  24.496  19.036   0.383
61072W        W26057  12.642  35.505   4.772
61073W        W26058  31.959  13.125  12.142
61074W        W26059  23.125   4.769   1.608
61075W        W26060   8.758   2.806   1.290
61076W        W26061  34.711   1.425   0.615
61077W        W26062  13.618  23.219  14.342
61078W        W26063  38.537  37.102   1.377
61079W        W26064  27.518  26.908  12.015
61080W        W26065  17.156  14.745  13.607
61081W        W26066   4.584  38.189   1.463
61082W        W26067   1.326  42.262  12.633
61083W        W26068  37.631   6.721   0.804
61084W        W26069  21.243  39.549  13.839
61085W        W26070   9.703  15.376   2.698
61086W        W26071   7.697  44.925   0.804
61087W        W26072  20.618   2.479  10.732
61088W        W26073  12.105  18.802   1.816
61089W        W26074  25.075   2.746   4.118
61090W        W26075  22.677   7.634   2.726
61091W        W26076  34.589   4.621  13.135
61092W        W26077  10.582   3.315  13.960
61093W        W26078  28.907  14.046  14.344
61094W        W26079   7.960  34.596  10.698
61095W        W26080   1.022  23.179  11.737
61096W        W26081  39.373   2.663  12.692
61097W        W26082  31.631  11.369  12.542
61098W        W26083  13.673   7.017   3.748
61099W        W26084  16.231  24.599   4.016
61100W        W26085  20.162   2.133   0.013
61101W        W26086  29.889  18.511  14.954
61102W        W26087  28.929   9.725   3.736
61103W        W26088  23.275  24.823  13.066
61104W        W26089   4.732  12.816  13.587
61105W        W26090   3.090  34.790  13.773
61106W        W26091  19.885  20.544   3.376
61107W        W26092  33.198  15.059   2.409
61108W        W26093  21.121   7.863   0.027
61109W        W26094   7.392  30.104  10.628
61110W        W26095   1.439  37.737  12.244
61111W        W26096  33.335  31.373  11.251
61112W        W26097  17.171  28.036   0.939
61113W        W26098  15.147  37.583   3.830
61114W        W26099   2.638  26.246  12.062
61115W        W26100  10.267  41.275   4.153
61116W        W26101  21.527  21.457  12.529
61117W        W26102   3.851  36.336   3.542
61118W        W26103  13.803  38.059   2.575
61119W        W26104   6.632  26.506   3.177
61120W        W26105  35.375  40.381   4.239
61121W        W26106  37.867  34.466   1.625
61122W        W26107  32.458  27.132   0.767
61123W        W26108  44.843  11.085   0.682
61124W        W26109  31.869  26.798  13.925
61125W        W26110  43.500  35.486  13.647
61126W        W26111  14.833  17.462   4.446
61127W        W26112   4.214   5.190  10.976
61128W        W26113  37.614  12.483   1.032
61129W        W26114  31.022  40.555  10.596
61130W        W26115   8.400  29.180  13.550
61131W        W26116  17.677   4.264  12.227
61132W        W26117  24.114  37.087   0.760
61133W        W26118  31.474  16.873  11.460
61134W        W26119  14.854  18.067   0.967
61135W        W26120  35.048  23.977  14.920
61136W        W26121   0.794  19.254   2.359
61137W        W26122   1.432  10.094  11.850
61138W        W26123   3.887  43.298   3.884
61139W        W26124   1.442  39.750   0.264
61140W        W26125  29.017  36.547  13.109
61141W        W26126  26.643  35.649   2.199
61142W        W26127  37.957   0.319  11.841
61143W        W26128  37.979  10.179   4.257
61144W        W26129  13.912   2.870  14.201
61145W        W26130  27.555  15.771  12.952
61146W        W26131  42.275  36.933   2.288
61147W        W26132  20.466  25.513   4.507
61148W        W26133   3.402   4.917   3.304
61149W        W26134  17.595  24.753   1.260
61150W        W26135  25.153   7.417   3.592
61151W        W26136  12.860  32.923  11.559
61152W        W26137  25.515  41.030  12.422
61153W        W26138  11.714  39.768   3.688
61154W        W26139  36.302  33.726  11.121
61155W        W26140  30.375  12.351  14.534
61156W        W26141  12.579  12.422   0.917
61157W        W26142   7.437  19.325  13.080
61158W        W26143   2.507  37.431  12.920
61159W        W26144  22.291   6.091   0.845
61160W        W26145   0.070   9.790   0.028
61161W        W26146  30.375   8.713  11.695
61162W        W26147  16.522  18.764   4.582
61163W        W26148  30.131  21.826   3.973
61164W        W26149  39.538  38.982  12.602
61165W        W26150   9.870  43.366  14.776
61166W        W26151  32.037  26.681   2.360
61167W        W26152   4.019  38.476  13.040
61168W        W26153   8.314  34.200  10.732
61169W        W26154   6.942  16.990  11.964
61170W        W26155   0.517  32.155  11.513
61171W        W26156  13.619  31.757   4.547
61172W        W26157  41.631  13.709  13.056
61173W        W26158   1.057  34.989   3.117
61174W        W26159  44.895  42.548   4.759
61175W        W26160  16.728  10.717   3.012
61176W        W26161  22.236  37.003  10.535
61177W        W26162  18.343  34.632   5.008
61178W        W26163  43.813  30.544  14.863
61179W        W26164   8.125  17.996   3.699
61180W        W26165  42.999  10.948   0.883
61181W        W26166  27.348  14.610   0.839
61182W        W26167  34.041  42.889  14.685
61183W        W26168   1.676  26.963   4.179
61184W        W26169   2.887  36.638  11.967
61185W        W26170  20.569  31.985   0.340
61186W        W26171  12.888  27.216  12.922
61187W        W26172   8.597  28.417   3.721
61188W        W26173  14.568  31.445   2.815
61189W        W26174  11.993  36.023  13.463
61190W        W26175  43.041   4.787  10.714
61191W        W26176   0.715  34.179  12.442
61192W        W26177  38.121  43.607   2.940
61193W        W26178  40.919   0.876  14.367
61194W        W26179  37.426  40.916   4.914
61195W        W26180  16.282  17.344  10.623
61196W        W26181  32.456  29.486   3.799
61197W        W26182  28.903  44.335   4.112
61198W        W26183  44.502  22.144   1.710
61199W        W26184  17.136  39.319  14.894
61200W        W26185  36.072   8.848   3.893
61201W        W26186  42.832  20.404  13.401
61202W        W26187  35.346  13.864   4.973
61203W        W26188  23.040   1.443   3.134
61204W        W26189  10.885  33.503   4.170
61205W        W26190  29.412  28.792  11.261
61206W        W26191  26.242  26.825   0.290
61207W        W26192  30.104  19.626  11.942
61208W        W26193  15.893  25.211  12.895
61209W        W26194  24.130  11.368  11.411
61210W        W26195  42.418  40.129   2.341
61211W        W26196  21.125  16.225  13.937
61212W        W26197  11.128  24.783   4.449
61213W        W26198  41.659  10.608  11.447
61214W        W26199  36.969  19.977   0.438
61215W        W26200  23.098  11.702  11.468
61216W        W26201  38.101   6.747   3.138
61217W        W26202  25.213  32.865   3.074
61218W        W26203  10.637   5.308   4.922
61219W        W26204  16.632  39.086  12.937
61220W        W26205  34.002  36.595  11.990
61221W        W26206  33.066  27.454  11.197
61222W        W26207  14.416  26.665  12.357
61223W        W26208  42.720  22.411  12.771
61224W        W26209  27.500  42.359  12.339
61225W        W26210  36.502  40.540  11.490
61226W        W26211  19.271  13.654   0.978
61227W        W26212  34.212  42.336   0.834
61228W        W26213   1.154  30.987  12.139
61229W        W26214   4.958  15.754  11.604
61230W        W26215  18.607   0.308   0.549
61231W        W26216  10.476  15.106  14.487
61232W        W26217  22.638  19.487   0.954
61233W        W26218  23.686  12.153   2.195
61234W        W26219  12.755  13.028   1.399
61235W        W26220  36.524   8.648   3.768
61236W        W26221  22.950  11.643  14.389
61237W        W26222  38.390   5.693  13.860
61238W        W26223  30.045  32.051  10.310
61239W        W26224  17.475  10.741   0.802
61240W        W26225  37.920  16.595  13.330
61241W        W26226  24.178  22.263   0.387
61242W        W26227  33.990  36.971   1.332
61243W        W26228  35.440   3.858   0.894
61244W        W26229  32.109  19.479   0.817
61245W        W26230  28.107   3.899   3.889
61246W        W26231   3.176   0.967  13.186
61247W        W26232  25.307   2.510   0.310
61248W        W26233  37.444   7.565  14.485
61249W        W26234  44.969   5.423  13.441
61250W        W26235  23.586  25.618  11.600
61251W        W26236  18.363   4.453   2.221
61252W        W26237  35.063  14.790  10.690
61253W        W26238   8.053  18.790   1.949
61254W        W26239  24.967   9.020  14.463
61255W        W26240  38.354  23.554  11.599
61256W        W26241  31.883  26.208  11.867
61257W        W26242  12.238   3.814   3.399
61258W        W26243  23.196   4.774  14.411
61259W        W26244  38.962   8.170   0.128
61260W        W26245  22.964  19.163   3.748
61261W        W26246  33.599  13.570   1.951
61262W        W26247  37.342  23.230   0.282
61263W        W26248  21.804  23.652   4.002
61264W        W26249  29.526  30.781  11.907
61265W        W26250  24.115  14.374   4.109
61266W        W26251   7.620   8.860  12.268
61267W        W26252  28.648  27.281   3.281
61268W        W26253  42.817  28.899  12.950
61269W        W26254  30.573  13.781  11.634
61270W        W26255  32.485  34.372   3.567
61271W        W26256  18.120  27.022   0.335
61272W        W26257  35.956  42.700  13.540
61273W        W26258  42.367  20.748   1.832
61274W        W26259  24.580  34.504  13.839
61275W        W26260  39.004  29.980   4.648
61276W        W26261   8.432   4.982  12.088
61277W        W26262  24.966   5.967  13.058
61278W        W26263  31.647  33.834   3.639
61279W        W26264  14.071  17.765   0.594
61280W        W26265  15.851  34.649   3.235
61281W        W26266  29.944  22.321  13.190
61282W        W26267   3.122  10.082  10.484
61283W        W26268  26.675  11.318  13.804
61284W        W26269  44.247  28.383  12.449
61285W        W26270  33.374  40.484  14.819
61286W        W26271   6.960  42.064  14.991
61287W        W26272  34.533  30.200  13.866
61288W        W26273   6.831  41.149   1.574
61289W        W26274  11.541  18.262   1.361
61290W        W26275   0.780   9.347  12.412
61291W        W26276  23.565  17.126  13.554
61292W        W26277   8.324  18.370   2.112
61293W        W26278  36.342   0.742  14.010
61294W        W26279  13.099  24.160  14.543
61295W        W26280   1.210  43.115  13.846
61296W        W26281  35.437  44.185   0.595
61297W        W26282  24.160  23.972   3.698
61298W        W26283   8.858  33.101  14.894
61299W        W26284  36.932  40.368   1.404
61300W        W26285   8.874  31.066  14.816
61301W        W26286  32.322   2.458  12.215
61302W        W26287   3.960  30.587   0.240
61303W        W26288  10.595  14.787   3.528
61304W        W26289   6.859  28.884   4.062
61305W        W26290   0.504  36.335   3.772
61306W        W26291  42.522   8.745   3.657
61307W        W26292  32.162  40.214  12.481
61308W        W26293  24.693  17.090  14.401
61309W        W26294  27.007  25.453  11.109
61310W        W26295  33.670  41.767  11.954
61311W        W26296  29.051  25.720  12.930
61312W        W26297  23.673   1.377  14.256
61313W        W26298  32.410  23.647  14.573
61314W        W26299  14.582  35.489   4.769
61315W        W26300  23.140  15.172  14.046
61316W        W26301  41.118  37.908  10.686
61317W        W26302  11.897  37.984   3.202
61318W        W26303  44.803  31.736  11.074
61319W        W26304  40.991  42.874   3.296
61320W        W26305  29.671  13.581   1.376
61321W        W26306  19.595  43.343   2.230
61322W        W26307  33.104  31.068   1.740
61323W        W26308  38.545   7.284  11.827
61324W        W26309  35.644   1.739  13.438
61325W        W26310  32.946  24.462   2.202
61326W        W26311  13.845  32.690  12.838
61327W        W26312   0.218  32.041  13.330
61328W        W26313  25.424   5.433  14.771
61329W        W26314   7.237  34.400  14.794
61330W        W26315  11.442  16.038  10.635
61331W        W26316  22.663  18.641   2.470
61332W        W26317  18.344   2.798   1.911
61333W        W26318   7.090  36.755  14.081
61334W        W26319  42.910  35.818  14.912
61335W        W26320  25.795  17.811   2.836
61336W        W26321  20.003  11.217  11.513
61337W        W26322  21.198   7.715   3.411
61338W        W26323  42.051   4.909   3.132
61339W        W26324  24.594  37.270   5.038
61340W        W26325  38.516   4.458   2.692
61341W        W26326  30.528  11.477   1.898
61342W        W26327  27.999  19.485   3.993
61343W        W26328  40.342  19.545  14.514
61344W        W26329   0.942  15.798  13.571
61345W        W26330   0.219  12.892   3.113
61346W        W26331  38.731  39.576   3.203
61347W        W26332   1.541  23.413   1.962
61348W        W26333   1.076  26.168  11.934
61349W        W26334  39.713  33.965   3.264
61350W        W26335  18.966   8.314   3.302
61351W        W26336  39.334   6.867  14.409
61352W        W26337  14.749  24.141  12.433
61353W        W26338   0.454  44.065   2.214
61354W        W26339  44.456  13.606   3.155
61355W        W26340  29.459  18.635  11.706
61356W        W26341  27.694  22.853   1.968
61357W        W26342  38.891  35.161   2.353
61358W        W26343   6.177   4.775   2.836
61359W        W26344  25.006   7.295   2.295
61360W        W26345  27.631  29.021   4.074
61361W        W26346  11.369  41.922   0.391
61362W        W26347  32.113  44.248  10.861
61363W        W26348  28.719   8.336  13.901
61364W        W26349  13.160   6.845   3.837
61365W        W26350  10.620  16.683  10.503
61366W        W26351  28.950  30.608  13.503
61367W        W26352  22.231  20.802  11.539
61368W        W26353   5.941   1.795  11.799
61369W        W26354  14.749  24.675  11.176
61370W        W26355   0.534  22.469  12.233
61371W        W26356  33.049  27.896   2.373
61372W        W26357  24.225  35.926  13.009
61373W        W26358  29.822   3.254  10.867
61374W        W26359  37.122  23.025  12.087
61375W        W26360   1.163  36.754  12.920
61376W        W26361  41.782  13.831   2.781
61377W        W26362  43.839  25.671  12.327
61378W        W26363  34.833   8.515   2.088
61379W        W26364  15.870   8.262  14.117
61380W        W26365  37.570   6.850  14.109
61381W        W26366  34.861  26.850  12.678
61382W        W26367  39.478  30.155   1.538
61383W        W26368  37.924  43.397  13.448
61384W        W26369  26.080   6.065  13.959
61385W        W26370  35.630  30.963   0.826
61386W        W26371   3.582  18.224  12.847
61387W        W26372  10.914  16.142   3.137
61388W        W26373  23.257  21.003  14.810
61389W        W26374   3.322  11.383   4.610
61390W        W26375  36.798  42.931  14.070
61391W        W26376  25.979  12.774   2.129
61392W        W26377  42.337  40.915   2.885
61393W        W26378  26.757   8.019  11.826
61394W        W26379  42.039  34.080  14.128
61395W        W26380  18.316  38.018   2.555
61396W        W26381  30.617  25.609  14.227
61397W        W26382  42.077  31.111   1.630
61398W        W26383  32.536  34.917  12.910
61399W        W26384  24.685  24.083   4.593
61400W        W26385   8.861   0.929  14.697
61401W        W26386  28.549  41.016   2.732
61402W        W26387  17.076  39.359  13.065
61403W        W26388  16.174  26.950   4.531
61404W        W26389   9.465  39.337  13.564
61405W        W26390  39.541  18.691   3.342
61406W        W26391  27.717  21.756  13.351
61407W        W26392  33.330  43.930  12.417
61408W        W26393  31.265  36.992   2.173
61409W        W26394  10.490   5.888   9.843
61410W        W26395   4.790  30.686  13.546
61411W        W26396  25.545  33.870   0.710
61412W        W26397  28.172  10.304  10.344
61413W        W26398  18.060  10.334  10.582
61414W        W26399  33.560  12.294  12.736
61415W        W26400   1.577  30.828  13.511
61416W        W26401  43.018   0.565   2.821
61417W        W26402   7.341   1.895  12.930
61418W        W26403   7.317  41.021   2.354
61419W        W26404  21.560   3.672  10.689
61420W        W26405  13.741  19.118  13.864
61421W        W26406  21.088  16.721  13.820
61422W        W26407   3.346  26.465   4.686
61423W        W26408   2.264   2.926  14.687
61424W        W26409  24.683  44.980  13.377
61425W        W26410   5.689   8.249  11.436
61426W        W26411  14.725  39.729   4.525
61427W        W26412  10.089  11.999  11.610
61428W        W26413  13.671  33.862   2.391
61429W        W26414   3.841  16.745  10.746
61430W        W26415  20.591   7.708  13.011
61431W        W26416  37.826   7.405  10.627
61432W        W26417  20.676  34.221  11.063
61433W        W26418  30.561   1.245   3.212
61434W        W26419  31.887   9.238  14.033
61435W        W26420   0.461  25.768   1.830
61436W        W26421  42.381  11.093  14.738
61437W        W26422  24.840  13.562   0.724
61438W        W26423  15.254  42.360  12.073
61439W        W26424   0.762  15.644  13.097
61440W        W26425  18.656  15.498   1.580
61441W        W26426  24.270  37.732   2.224
61442W        W26427  21.228   1.697  11.673
61443W        W26428  34.953   2.663   4.062
61444W        W26429  22.518   6.464  13.830
61445W        W26430  35.841  38.461   1.214
61446W        W26431  39.826  43.841   1.686
61447W        W26432  44.500  37.795  11.226
61448W        W26433   6.413   3.805   5.002
61449W        W26434  16.784  23.145  13.523
61450W        W26435  37.793  14.698  10.635
61451W        W26436  13.265   0.109  10.710
61452W        W26437  33.461  35.856   1.452
61453W        W26438  20.380   5.717  12.885
61454W        W26439  12.472  13.345   0.797
61455W        W26440   6.208  10.063   4.116
61456W        W26441   3.191  20.396  11.136
61457W        W26442  44.837  16.365  13.566
61458W        W26443  39.422  18.290   2.017
61459W        W26444  40.342  43.380  12.026
61460W        W26445  22.653  22.271  10.754
61461W        W26446  14.417   9.769   1.324
61462W        W26447  25.134  12.203  12.352
61463W        W26448  32.439  27.692   4.431
61464W        W26449  19.876   6.799   4.564
61465W        W26450  38.635  32.050   5.290
61466W        W26451   0.336   6.141   4.420
61467W        W26452   3.767  37.774   2.004
61468W        W26453  41.326  34.561   3.637
61469W        W26454  32.140  24.857  11.855
61470W        W26455  41.787  18.197   0.114
61471W        W26456  20.973  37.724   2.423
61472W        W26457  19.201   1.684  14.442
61473W        W26458  21.594  28.128  10.459
61474W        W26459  14.886  10.585   3.132
61475W        W26460  18.017  20.677  10.698
61476W        W26461  36.900  24.617  14.275
61477W        W26462   0.964  10.562   0.463
61478W        W26463  35.089  10.694  12.503
61479W        W26464  30.570  27.909  14.052
61480W        W26465   5.467  40.788  13.291
61481W        W26466  25.621  12.763   4.163
61482W        W26467  14.865  14.161  13.093
61483W        W26468  38.166  35.834   1.499
61484W        W26469  14.758   2.289   2.611
61485W        W26470  24.893   2.462  12.025
61486W        W26471  24.692  43.366   0.811
61487W        W26472  38.914  19.170  10.687
61488W        W26473   7.324  22.959  14.379
61489W        W26474  17.282   1.900   1.258
61490W        W26475  19.529  40.155  10.732
61491W        W26476  43.325   4.026   2.403
61492W        W26477  21.544  39.634  13.161
61493W        W26478  29.177  40.962  13.961
61494W        W26479  40.668  22.014   0.464
61495W        W26480  42.761  23.717  13.041
61496W        W26481  10.753   6.331   2.418
61497W        W26482  31.593  24.717  12.684
61498W        W26483  42.311  41.480   2.551
61499W        W26484   3.018  37.932  13.780
61500W        W26485  24.501  11.799  14.512
61501W        W26486  27.703  32.676  14.809
61502W        W26487   2.333  28.440  12.235
61503W        W26488  44.665  40.516  12.588
61504W        W26489   0.114  29.456   2.857
61505W        W26490  19.268  21.750   1.136
61506W        W26491  22.314  15.567  13.832
61507W        W26492  17.520   7.575   3.667
61508W        W26493   4.349   9.810   4.859
61509W        W26494  12.838  34.159   2.779
61510W        W26495  30.869  11.126  11.587
61511W        W26496  26.634  39.142   0.307
61512W        W26497  33.539  28.257  11.439
61513W        W26498   5.340  34.996   0.952
61514W        W26499  23.767  42.566   0.407
61515W        W26500  42.954  32.262  13.592
61516W        W26501  30.559  37.004  13.837
61517W        W26502  37.581  35.587  13.504
61518W        W26503   3.170  44.977   4.143
61519W        W26504  37.799  32.081   1.815
61520W        W26505  32.149  42.308   3.231
61521W        W26506  19.659  12.877  10.652
61522W        W26507  39.766  19.806   4.725
61523W        W26508  35.105  44.472   2.757
61524W        W26509   5.026  32.273  11.191
61525W        W26510   5.423  28.989   2.834
61526W        W26511  20.627   5.760  11.149
61527W        W26512  43.985  34.110   2.757
61528W        W26513   4.924  20.546   4.287
61529W        W26514  25.439  24.943   2.602
61530W        W26515  28.239  23.525  14.462
61531W        W26516  19.782  17.068  11.509
61532W        W26517  34.672  15.161   3.797
61533W        W26518  43.387   1.702  13.501
61534W        W26519  41.902   5.190   4.526
61535W        W26520  41.185  41.183   3.257
61536W        W26521  28.213  32.986  14.221
61537W        W26522  17.068  33.161  11.040
61538W        W26523  18.127  29.221  14.481
61539W        W26524   3.368  29.887  12.429
61540W        W26525  32.967   8.928   3.257
61541W        W26526  24.840  27.655   4.806
61542W        W26527  21.223  42.586   2.789
61543W        W26528  39.745  31.683   4.060
61544W        W26529   9.649  23.992  14.565
61545W        W26530  15.216   4.157  13.024
61546W        W26531  32.856  19.701  14.755
61547W        W26532  25.222  22.498   4.952
61548W        W26533  17.649  28.944  10.522
61549W        W26534  23.410  10.290   3.243
61550W        W26535  35.503  20.344   4.151
61551W        W26536   4.867  34.044   2.509
61552W        W26537  41.328   8.354   4.568
61553W        W26538   7.358  23.017   4.753
61554W        W26539  29.948  15.344   1.826
61555W        W26540  22.609  30.344   9.845
61556W        W26541  29.151  10.160   1.447
61557W        W26542  16.020  10.904   2.748
61558W        W26543   5.397   7.648  12.406
61559W        W26544  11.713  40.942   2.842
61560W        W26545  39.830  19.547   3.157
61561W        W26546  36.711   9.756   4.629
61562W        W26547  11.483  40.110  12.079
61563W        W26548  35.522  41.869   3.820
61564W        W26549  37.494   6.709  13.091
61565W        W26550  27.208  25.466  14.462
61566W        W26551   5.837   1.665  13.361
61567W        W26552  38.150  33.486  14.833
61568W        W26553  29.600  28.989   0.794
61569W        W26554  43.415  17.215  14.817
61570W        W26555   2.855  35.775   2.445
61571W        W26556  31.457  14.837   3.390
61572W        W26557   4.318  19.576   4.211
61573W        W26558  18.753  31.685  12.343
61574W        W26559  30.335  17.383   4.925
61575W        W26560  13.103  27.636   4.609
61576W        W26561  22.377  15.189  12.403
61577W        W26562  17.594  18.985   0.352
61578W        W26563  15.742  18.098   4.825
61579W        W26564  22.951  34.892  14.991
61580W        W26565  28.336   0.820  13.956
61581W        W26566  28.013  15.299   1.179
61582W        W26567  18.818  20.252   0.210
61583W        W26568  22.147  38.491  11.406
61584W        W26569  20.092  28.196   4.532
61585W        W26570  28.267  38.381   0.328
61586W        W26571  30.055  26.896  14.100
61587W        W26572  32.579  43.048   3.343
61588W        W26573  17.563  28.105  12.948
61589W        W26574  16.524  42.103  11.603
61590W        W26575  43.360  37.132  14.943
61591W        W26576  11.076  30.756  12.838
61592W        W26577  38.050  23.022   4.014
61593W        W26578  35.892  27.247  13.446
61594W        W26579   6.030   6.967  10.451
61595W        W26580  12.528   3.375   2.863
61596W        W26581  30.261  34.829   3.391
61597W        W26582  16.743  43.388  10.496
61598W        W26583   1.356   9.692  13.109
61599W        W26584  15.042  12.703   1.740
61600W        W26585  38.903  34.396   1.896
61601W        W26586  35.842  25.171   2.377
61602W        W26587  23.569  33.526   2.602
61603W        W26588  32.722  27.180   3.707
61604W        W26589   3.796  23.620   4.450
61605W        W26590  25.121  18.278  12.862
61606W        W26591  37.710   8.999  10.115
61607W        W26592  19.658  22.328  11.343
61608W        W26593  41.606   4.469   1.506
61609W        W26594  39.900   0.622   3.832
61610W        W26595  32.656  42.706   0.768
61611W        W26596  42.049  23.885   3.140
61612W        W26597  23.250  18.202   4.585
61613W        W26598  38.728   8.098   1.158
61614W        W26599  23.733  11.351   0.526
61615W        W26600   0.441  20.723  10.468
61616W        W26601  10.261  25.146   1.882
61617W        W26602  42.270  24.234  14.421
61618W        W26603  35.010  35.381   3.786
61619W        W26604  19.330  34.515   1.370
61620W        W26605  43.111  13.447   4.432
61621W        W26606  20.538  29.147  14.260
61622W        W26607  18.317  26.710  10.835
61623W        W26608   7.801  22.553   0.810
61624W        W26609  23.260  26.132   2.603
61625W        W26610  31.644  21.227   0.274
61626W        W26611   6.190  34.821   1.530
61627W        W26612  44.923  10.382   2.682
61628W        W26613  41.804   9.944  14.014
61629W        W26614   6.833  36.468   1.654
61630W        W26615  43.572  20.522   2.189
61631W        W26616  37.949  35.033  13.929
61632W        W26617  41.454  41.274  11.228
61633W        W26618  17.652  29.529  12.496
61634W        W26619  34.029  39.426  12.153
61635W        W26620   7.921   8.796   0.450
61636W        W26621   0.790  19.905  10.697
61637W        W26622  10.631  36.770  11.975
61638W        W26623   4.306  19.078  10.946
61639W        W26624   6.952   2.707  14.490
61640W        W26625   4.765   2.647  13.931
61641W        W26626  23.668   4.397   4.743
61642W        W26627  39.106  20.578  13.711
61643W        W26628  27.618  40.825   0.792
61644W        W26629  43.848  31.200   1.953
61645W        W26630  26.046  42.907   2.093
61646W        W26631  12.118  28.601  10.885
61647W        W26632  40.523  27.913  11.397
61648W        W26633  25.197  44.321   2.188
61649W        W26634  22.347  37.413  12.453
61650W        W26635  33.457   4.663  12.355
61651W        W26636  36.872  40.291  14.037
61652W        W26637  28.279  41.203   0.310
61653W        W26638  28.969   3.910  13.468
61654W        W26639  27.326  15.552  11.936
61655W        W26640  43.950   1.569   1.610
61656W        W26641  42.545  34.855   1.824
61657W        W26642  15.580  25.737   4.564
61658W        W26643   0.730  13.221  12.492
61659W        W26644  13.096   6.124  12.044
61660W        W26645   3.794  19.636   0.040
61661W        W26646  30.421  16.164   0.103
61662W        W26647   2.913  30.993  11.523
61663W        W26648  32.163  41.373   3.077
61664W        W26649   5.827  16.957   4.736
61665W        W26650  44.178  38.076   1.491
61666W        W26651  16.560  37.797   4.102
61667W        W26652  20.973  36.259   4.197
61668W        W26653  37.123  25.695  12.654
61669W        W26654  41.806  21.781  14.761
61670W        W26655  42.764  15.710  13.556
61671W        W26656  10.289  14.211   1.041
61672W        W26657  32.840   5.683   4.076
61673W        W26658  16.506  11.304   1.812
61674W        W26659  38.002  18.752   4.097
61675W        W26660  12.688  24.131   1.015
61676W        W26661  14.043  29.775  10.771
61677W        W26662   0.986  21.742   4.315
61678W        W26663   3.394   6.019   4.258
61679W        W26664  18.368  34.317   0.805
61680W        W26665  39.568  17.736  11.751
61681W        W26666  25.062  39.459  14.044
61682W        W26667  33.864  14.647   1.312
61683W        W26668  38.300  35.966   3.902
61684W        W26669  23.566   7.078   4.580
61685W        W26670  20.827  14.099   0.783
61686W        W26671  31.023  16.302  13.406
61687W        W26672   7.695   0.222  12.082
61688W        W26673  17.216  11.907   1.015
61689W        W26674  18.716  39.392  12.071
61690W        W26675  44.981   4.002   1.732
61691W        W26676  30.493  15.771  14.775
61692W        W26677   7.319   7.986   1.385
61693W        W26678  36.665  10.868  11.269
61694W        W26679   0.870  33.812   5.049
61695W        W26680  26.963  27.455  14.419
61696W        W26681  28.073  30.049  13.942
61697W        W26682   6.353  40.748   0.378
61698W        W26683  31.611  11.928  12.579
61699W        W26684  36.885  37.069   0.476
61700W        W26685   8.621  40.073   2.492
61701W        W26686  36.424  23.144   3.340
61702W        W26687  23.274  44.464  11.104
61703W        W26688  16.582   8.484  11.113
61704W        W26689  42.402  27.524  12.948
61705W        W26690  23.891  19.665  11.086
61706W        W26691  19.187  11.808   1.248
61707W        W26692  32.188  12.889   4.503
61708W        W26693  38.777  39.633  11.661
61709W        W26694  32.873  20.599  14.799
61710W        W26695  19.057   3.421   0.233
61711W        W26696  14.808  13.127  13.958
61712W        W26697  40.995  33.489   3.213
61713W        W26698   6.509  34.515   2.237
61714W        W26699  14.126  29.637  14.745
61715W        W26700   5.791  10.358   4.255
61716W        W26701  29.629  15.869   2.678
61717W        W26702   5.793   2.991   0.171
61718W        W26703  40.803  43.478   3.685
61719W        W26704  41.523  42.882  10.381
61720W        W26705  32.813   6.455  14.380
61721W        W26706  26.263  23.148   1.494
61722W        W26707  30.585   1.790   3.316
61723W        W26708   2.370  13.086  11.224
61724W        W26709  33.756   7.235   9.837
61725W        W26710  31.311  19.094   4.470
61726W        W26711  32.641  20.726   0.238
61727W        W26712  23.285  41.235  13.248
61728W        W26713  17.361  22.789  11.886
61729W        W26714  36.800  28.544   4.447
61730W        W26715  38.507   1.844  11.402
61731W        W26716  22.643  21.595   4.614
61732W        W26717  36.253  19.934   5.203
61733W        W26718   0.949   8.126  13.588
61734W        W26719  30.057  44.333   0.792
61735W        W26720  29.359  31.488   2.880
61736W        W26721  14.453  24.905  14.874
61737W        W26722  31.052  18.184   0.251
61738W        W26723  18.638  32.903   1.355
61739W        W26724   7.150  25.250   1.837
61740W        W26725   3.012  18.111  14.555
61741W        W26726  12.126   3.313  13.777
61742W        W26727  26.877   9.835   4.962
61743W        W26728  43.389  43.886  13.526
61744W        W26729  27.846  27.664   0.522
61745W        W26730  37.964  18.159   1.825
61746W        W26731  11.101  34.923  13.365
61747W        W26732   1.446  10.738  14.427
61748W        W26733  12.368  26.203  13.955
61749W        W26734  25.319  34.908   4.127
61750W        W26735  37.644  39.797   4.590
61751W        W26736  30.707  15.188   2.387
61752W        W26737   7.482  13.928   0.051
61753W        W26738  31.516   3.192   1.909
61754W        W26739  26.104  17.101   3.862
61755W        W26740   3.020  33.408  12.414
61756W        W26741   5.649  12.691   1.963
61757W        W26742  15.677  12.820  11.127
61758W        W26743   6.296  29.933   3.554
61759W        W26744   7.354   9.793  13.632
61760W        W26745  29.002   5.406  11.461
61761W        W26746  18.474  32.493  13.506
61762W        W26747  12.185  25.454  10.723
61763W        W26748  12.774   2.852   2.416
61764W        W26749  24.012  38.454   2.644
61765W        W26750   1.361   1.970   2.179
61766W        W26751  38.111  10.056   5.149
61767W        W26752  34.524  20.504   0.372
61768W        W26753  37.634   7.722  11.884
61769W        W26754  23.921   1.013  14.559
61770W        W26755  11.319  37.126   0.245
61771W        W26756  11.627  24.195   2.198
61772W        W26757  44.638  14.557   9.945
61773W        W26758   4.361  26.974   1.005
61774W        W26759  36.020  26.848  13.745
61775W        W26760  27.614  16.423   3.138
61776W        W26761  17.252   3.707  13.362
61777W        W26762  36.098  16.874   2.697
61778W        W26763  24.978  10.913  14.116
61779W        W26764   7.290  18.974   3.321
61780W        W26765  40.387  16.061   0.368
61781W        W26766  40.486   9.982  12.763
61782W        W26767  38.209  26.002  12.713
61783W        W26768  44.755   0.871  14.249
61784W        W26769   9.363   9.756   4.724
61785W        W26770   5.914  15.260   3.286
61786W        W26771  11.358   3.885   4.653
61787W        W26772  17.574  31.596  14.897
61788W        W26773   7.890  34.521   3.788
61789W        W26774  39.612  10.667  10.817
61790W        W26775  31.206  19.639  13.322
61791W        W26776  32.362   2.869  10.937
61792W        W26777  18.049   5.348   0.927
61793W        W26778  43.516  34.090  13.968
61794W        W26779  38.257  44.554   0.823
61795W        W26780  31.667  43.291  12.901
61796W        W26781  29.126   3.334   3.823
61797W        W26782   1.930  24.495  14.895
61798W        W26783  21.903  38.159   3.314
61799W        W26784   9.178   9.267   4.082
61800W        W26785  17.342  13.869  14.469
61801W        W26786  36.069  27.469   1.286
61802W        W26787  16.995   1.184   4.949
61803W        W26788  13.690   1.887   4.872
61804W        W26789  15.935   3.834  10.178
61805W        W26790   6.033  10.324   1.012
61806W        W26791   5.883  20.128  14.346
61807W        W26792  11.083  36.010  14.113
61808W        W26793  35.568  16.635  14.530
61809W        W26794   2.791   7.060   0.195
61810W        W26795  16.694  23.248   4.567
61811W        W26796  24.599  30.479  12.653
61812W        W26797  11.668  14.236  14.081
61813W        W26798  19.291  21.593   0.252
61814W        W26799  42.408  36.957  12.635
61815W        W26800  15.398   1.731   3.672
61816W        W26801   2.377  22.548  13.843
61817W        W26802  34.033  13.344  13.519
61818W        W26803   1.903   6.352   2.267
61819W        W26804  12.153   5.274  11.662
61820W        W26805   2.539  13.831  10.759
61821W        W26806  15.315   4.293   1.400
61822W        W26807  43.434  26.480  14.835
61823W        W26808  17.130  13.383  10.679
61824W        W26809  23.443  26.655   4.173
61825W        W26810  20.704   4.745   1.411
61826W        W26811   7.414  14.900   2.481
61827W        W26812   9.588  10.586   0.861
61828W        W26813  43.522  10.354   1.642
61829W        W26814  34.399  10.909   3.223
61830W        W26815  11.531  11.353  14.374
61831W        W26816  10.024   1.104   3.810
61832W        W26817  24.967  15.887   3.187
61833W        W26818  42.337   3.674   1.606
61834W        W26819  24.906  31.618   2.174
61835W        W26820   0.490  25.067   4.624
61836W        W26821  29.152  39.091   2.822
61837W        W26822  30.911  27.448  11.000
61838W        W26823  25.062  41.112  14.987
61839W        W26824  14.107  44.018   4.117
61840W        W26825  37.956  31.332  14.286
61841W        W26826   4.746   1.019  11.135
61842W        W26827  37.528   8.587  13.010
61843W        W26828   9.637  35.651   3.615
61844W        W26829  39.412  30.271  10.683
61845W        W26830  32.129  22.470   1.383
61846W        W26831  17.991  42.438  10.423
61847W        W26832  21.563  23.286   0.680
61848W        W26833   0.703  10.383   1.860
61849W        W26834   8.639  12.694  11.481
61850W        W26835   6.753  30.565   3.752
61851W        W26836  40.535  21.139   2.782
61852W        W26837  33.980  19.174  13.355
61853W        W26838  13.313   5.850   2.130
61854W        W26839  40.855  27.279   4.805
61855W        W26840  22.498  10.361   4.135
61856W        W26841   3.217  27.857   1.792
61857W        W26842  16.554  38.315  12.577
61858W        W26843  33.841  39.057   0.598
61859W        W26844  29.512  19.131  10.397
61860W        W26845  12.987   4.709  10.368
61861W        W26846  37.389  33.688   1.163
61862W        W26847  35.033  34.397  14.327
61863W        W26848  11.704  31.944  14.435
61864W        W26849  11.069  26.583   0.320
61865W        W26850  30.496  43.943   4.218
61866W        W26851   4.576  35.029  11.483
61867W        W26852  25.951  34.993  14.447
61868W        W26853  30.655  30.577  14.468
61869W        W26854   3.241  43.828   3.235
61870W        W26855  19.003  44.090   4.076
61871W        W26856  21.010  21.101  14.366
61872W        W26857   3.745  44.444   2.786
61873W        W26858  31.754  15.783   1.622
61874W        W26859  35.305  17.830   3.244
61875W        W26860  25.614  28.188  13.054
61876W        W26861  12.821  14.931   1.423
61877W        W26862  12.605  14.408   4.197
61878W        W26863  40.281   6.783   0.409
61879W        W26864  12.095  12.594   4.508
61880W        W26865  18.325  23.445  11.256
61881W        W26866  21.874   9.708   3.636
61882W        W26867  23.179  37.440   4.756
61883W        W26868  10.157  30.945  13.016
61884W        W26869  28.673  15.337   0.843
61885W        W26870   4.361  41.846   4.682
61886W        W26871  10.373  14.912   2.448
61887W        W26872  31.462  35.812  13.358
61888W        W26873   8.250  31.543  12.977
61889W        W26874  44.985   3.649  13.677
61890W        W26875  38.021  19.319  12.100
61891W        W26876  12.240  37.588   1.800
61892W        W26877  37.657  26.474   2.010
61893W        W26878  28.577  24.014  12.448
61894W        W26879  30.435  19.251   4.062
61895W        W26880  30.180  13.328  10.642
61896W        W26881  40.288   5.212  12.503
61897W        W26882  31.128  44.322   4.006
61898W        W26883  33.997  10.143   4.091
61899W        W26884  21.607  10.670   0.977
61900W        W26885  38.500   8.703   1.652
61901W        W26886  18.052  41.991   0.769
61902W        W26887  43.275  19.565  14.295
61903W        W26888  26.101  14.695   1.257
61904W        W26889  13.327  40.138  11.626
61905W        W26890  38.770   1.214  10.954
61906W        W26891  25.311  31.195  14.099
61907W        W26892   5.016  36.103   3.186
61908W        W26893  36.953  35.427   1.802
61909W        W26894  24.625  40.466   3.273
61910W        W26895  30.834  26.283   2.241
61911W        W26896  35.311  24.977  14.793
61912W        W26897  36.012   6.657   2.659
61913W        W26898  39.686  21.599   4.089
61914W        W26899  27.690  30.012   2.832
61915W        W26900  31.619  36.870   3.368
61916W        W26901  27.927  24.457   4.540
61917W        W26902  24.198  40.776   3.299
61918W        W26903   4.003  28.124  12.052
61919W        W26904  41.270  32.057   1.691
61920W        W26905  30.647  24.024   5.033
61921W        W26906  24.249  18.562  10.818
61922W        W26907  37.878   2.018   3.740
61923W        W26908  17.882   0.209  12.037
61924W        W26909   8.889  19.318  11.242
61925W        W26910  37.757  25.958  13.668
61926W        W26911  36.330  21.572  13.781
61927W        W26912  44.757  10.421   1.287
61928W        W26913  35.653   8.421   3.382
61929W        W26914  19.978  39.595   3.919
61930W        W26915   4.755  20.188  11.552
61931W        W26916   7.803  30.802  10.788
61932W        W26917  19.723  41.323   4.694
61933W        W26918   3.614  28.892   4.433
61934W        W26919   3.891  32.061  10.617
61935W        W26920  41.677  40.224  14.187
61936W        W26921   2.929  40.805  11.610
61937W        W26922  15.811   0.416  11.145
61938W        W26923  17.077  42.862  13.987
61939W        W26924  24.550  29.659   3.088
61940W        W26925  29.025  17.715  10.611
61941W        W26926  27.065  21.569   4.581
61942W        W26927   5.656  10.216  11.596
61943W        W26928  22.271  11.172   1.761
61944W        W26929  14.491  43.113  10.644
61945W        W26930  19.394  18.115  14.886
61946W        W26931  40.493  20.502  10.551
61947W        W26932  34.668  16.683  14.114
61948W        W26933  20.993  23.634  13.469
61949W        W26934  10.884   3.312   5.346
61950W        W26935  22.159  16.700   4.179
61951W        W26936  13.794  31.931   3.802
61952W        W26937   7.318  13.376   4.853
61953W        W26938  14.670   5.435   0.648
61954W        W26939  39.677  25.508   1.297
61955W        W26940  20.125  23.516  10.070
61956W        W26941  39.403  10.246   1.150
61957W        W26942  33.145   5.269   4.734
61958W        W26943  36.534  40.912   4.377
61959W        W26944   8.390   9.520  11.941
61960W        W26945  33.883  24.002   0.466
61961W        W26946  31.848  13.607  12.921
61962W        W26947  37.608   2.856  11.231
61963W        W26948  12.371  25.082   4.156
61964W        W26949  19.532  44.454   1.215
61965W        W26950   9.725  17.553  12.096
61966W        W26951  32.664  44.036   1.179
61967W        W26952   8.761   0.740  12.492
61968W        W26953  26.033  33.120   5.009
61969W        W26954  41.042  42.096   2.859
61970W        W26955  42.196  41.497  14.465
61971W        W26956  34.671  39.968   4.881
61972W        W26957  10.788  31.622   2.844
61973W        W26958  24.920   4.336  13.310
61974W        W26959  29.061  33.916  10.601
61975W        W26960  31.845   4.191  12.464
61976W        W26961  26.003  18.351   2.368
61977W        W26962  26.664  41.955  14.804
61978W        W26963   9.956   4.986   4.574
61979W        W26964   9.598  37.094   1.769
61980W        W26965  38.330  12.634   1.639
61981W        W26966  44.851  22.583   2.561
61982W        W26967  24.217  25.006   3.751
61983W        W26968  29.974  22.675   0.304
61984W        W26969  43.869  31.233   2.832
61985W        W26970  15.077   8.630   3.139
61986W        W26971  15.668   2.173   3.592
61987W        W26972  39.876  18.899   1.256
61988W        W26973  37.866  21.018  14.347
61989W        W26974   6.977   6.184   2.761
61990W        W26975  11.104  12.762  13.525
61991W        W26976  38.823  40.958   0.271
61992W        W26977  11.867  38.362  14.414
61993W        W26978  35.822  32.366   4.489
61994W        W26979   5.277  12.424   1.732
61995W        W26980  19.536  20.092   2.217
61996W        W26981   9.391  30.659  13.926
61997W        W26982  20.382  35.555   0.915
61998W        W26983  35.052  44.381  13.554
61999W        W26984   5.863   2.001  10.796
62000W        W26985  43.562  38.468   3.314
62001W        W26986  11.687  20.334   3.717
62002W        W26987  17.570   0.950   3.402
62003W        W26988   0.702  21.253   5.040
62004W        W26989  10.645   7.121  11.513
62005W        W26990  12.101   3.213  14.331
62006W        W26991  15.592  28.633   0.261
62007W        W26992  28.812  10.355  13.620
62008W        W26993  36.981  41.223   1.964
62009W        W26994  18.343  20.149   1.448
62010W        W26995   0.936  37.486   2.580
62011W        W26996  39.240   5.726  12.123
62012W        W26997  41.924   0.386   1.669
62013W        W26998   2.979  24.560  14.378
62014W        W26999  18.619  17.758  14.681
62015W        W27000  31.914   1.323   4.495
62016W        W27001  35.919   0.456   1.998
62017W        W27002  33.413  16.626  10.921
62018W        W27003   7.347  24.931   5.068
62019W        W27004  14.323   0.896   3.054
62020W        W27005  32.418  37.728  11.891
62021W        W27006  29.242  26.118  14.098
62022W        W27007   9.808  41.429  13.948
62023W        W27008  15.291  33.821   1.207
62024W        W27009  36.506  32.929   3.633
62025W        W27010  13.119  28.248  12.144
62026W        W27011   2.911  42.689   1.201
62027W        W27012   6.128  31.402   3.800
62028W        W27013  18.652  29.642  13.427
62029W        W27014   8.254  30.548  13.489
62030W        W27015  33.322  39.089  13.496
62031W        W27016   6.799  39.596  14.294
62032W        W27017  41.326  41.365   4.267
62033W        W27018  20.668   2.809   0.797
62034W        W27019  19.215  35.453   3.731
62035W        W27020   1.916   4.434  12.084
62036W        W27021  14.028  30.346  13.389
62037W        W27022  15.934  40.762  12.205
62038W        W27023  34.836  17.530  14.503
62039W        W27024   3.944  42.679  14.308
62040W        W27025   6.398  11.379   3.739
62041W        W27026  42.211  30.472   1.815
62042W        W27027  21.167  11.686   4.893
62043W        W27028   3.262   8.604   1.153
62044W        W27029  18.391   2.925  10.967
62045W        W27030  31.950  14.614   4.150
62046W        W27031  12.378  27.196   4.063
62047W        W27032  37.864  16.790   3.176
62048W        W27033   7.315  26.651   1.947
62049W        W27034   4.341  11.943  13.399
62050W        W27035  24.994  16.124   4.166
62051W        W27036  32.381  39.805  14.356
62052W        W27037   9.355  20.484   4.768
62053W        W27038   7.813  33.150   1.841
62054W        W27039   9.293   6.763   4.236
62055W        W27040  30.537  38.373  11.515
62056W        W27041   2.634   8.203   2.252
62057W        W27042  17.278   7.938   2.283
62058W        W27043   0.898   0.923   2.173
62059W        W27044   7.912  31.851   4.447
62060W        W27045   0.513  14.697   1.856
62061W        W27046  37.390  36.980   4.726
62062W        W27047  19.560  19.099   1.225
62063W        W27048   2.495   8.281   3.732
62064W        W27049  18.176   7.520  10.561
62065W        W27050  21.120  29.983  14.310
62066W        W27051  34.962  40.494   3.410
62067W        W27052   1.225  44.475   4.472
62068W        W27053  39.755  24.352  11.449
62069W        W27054   6.074  35.190   1.891
62070W        W27055   5.969  37.324   0.587
62071W        W27056  28.732   9.268  12.182
62072W        W27057  39.229  10.862   3.166
62073W        W27058   7.274  12.182   3.180
62074W        W27059  32.056   2.861   0.378
62075W        W27060  33.661   3.263   1.286
62076W        W27061  38.249  18.099  11.456
62077W        W27062  22.129  29.638  14.403
62078W        W27063  10.911  21.193  14.591
62079W        W27064   0.477  21.658   4.775
62080W        W27065  29.601  36.680   4.058
62081W        W27066  41.219  13.445  13.942
62082W        W27067  28.131   3.368   0.788
62083W        W27068  38.883  14.781  11.809
62084W        W27069  29.202  29.049   3.576
62085W        W27070  40.849   1.277   2.957
62086W        W27071  21.635  35.893  14.943
62087W        W27072  12.958  35.659   2.130
62088W        W27073   3.381  24.457  10.699
62089W        W27074   0.840  38.495   4.636
62090W        W27075  32.113   4.379  14.032
62091W        W27076  40.458  18.883   3.214
62092W        W27077  37.408   4.009   2.332
62093W        W27078  13.677  39.252   4.567
62094W        W27079  41.958  10.226   1.226
62095W        W27080  12.009   6.331   4.151
62096W        W27081  14.625  11.294   4.308
62097W        W27082  29.618  34.526   0.472
62098W        W27083   7.454  31.467  12.475
62099W        W27084  10.505  40.943  13.384
62100W        W27085   7.343  27.033   1.085
62101W        W27086   1.369  22.174  11.745
62102W        W27087  29.135  20.490  11.627
62103W        W27088   5.563   2.034  11.528
62104W        W27089  37.343  28.729   1.829
62105W        W27090  28.412  29.210   4.211
62106W        W27091  40.593  12.061   4.828
62107W        W27092  43.054  13.627  13.373
62108W        W27093  31.196   0.066  12.087
62109W        W27094  23.673  41.028   1.273
62110W        W27095  40.516  26.579  12.375
62111W        W27096  26.016  30.793  13.550
62112W        W27097  39.570  22.297  12.097
62113W        W27098  42.543  26.697   4.110
62114W        W27099  20.832  35.480   3.642
62115W        W27100   4.827  34.374  14.228
62116W        W27101  16.517  23.223   3.151
62117W        W27102  18.071  43.253   4.785
62118W        W27103  16.550   7.004  12.469
62119W        W27104  27.123  30.675  14.339
62120W        W27105  30.967  32.199   2.297
62121W        W27106  26.980  26.598  12.432
62122W        W27107   0.254   5.714  14.893
62123W        W27108  16.262  44.250  11.595
62124W        W27109   4.319  22.104  10.936
62125W        W27110  17.567  29.915  13.939
62126W        W27111  21.622   8.156   2.254
62127W        W27112  34.932   8.388   1.167
62128W        W27113   2.786  36.915   2.375
62129W        W27114   4.340  31.144   4.686
62130W        W27115  12.313  15.167   3.582
62131W        W27116  27.238  10.214  13.414
62132W        W27117  10.776  17.875   4.269
62133W        W27118  43.837  31.751   2.818
62134W        W27119  16.781  11.810  13.860
62135W        W27120  13.404   4.822  14.965
62136W        W27121  42.267  40.629   2.451
62137W        W27122  24.244   5.304  11.106
62138W        W27123   8.819  31.375   2.996
62139W        W27124  19.593   9.086  10.296
62140W        W27125  10.594  42.484  12.002
62141W        W27126  11.934  10.406  11.469
62142W        W27127  22.863   4.194  12.197
62143W        W27128   7.604  30.040  14.758
62144W        W27129  34.402  32.611  11.050
62145W        W27130  19.128  10.599  13.799
62146W        W27131  34.837   3.433  10.572
62147W        W27132  19.810   1.756   4.149
62148W        W27133  43.261  12.068  12.893
62149W        W27134   2.181  12.694   3.132
62150W        W27135  44.773  34.949  12.511
62151W        W27136  36.791  12.388  12.489
62152W        W27137  44.173   3.397   3.093
62153W        W27138  25.080  17.064  11.524
62154W        W27139   8.648  41.343   4.867
62155W        W27140  32.933   8.282   0.222
62156W        W27141  35.798  22.191   1.680
62157W        W27142  23.226  16.183  14.346
62158W        W27143  25.253  27.169  12.516
62159W        W27144  17.723   2.995  13.160
62160W        W27145  39.919  37.645   4.285
62161W        W27146   9.743  37.950  14.301
62162W        W27147  35.626  30.592   0.334
62163W        W27148  43.044  27.444  14.061
62164W        W27149  12.867  23.716   2.274
62165W        W27150  35.059  25.588   4.606
62166W        W27151  14.820   2.461   3.619
62167W        W27152  29.518  10.572   0.868
62168W        W27153  12.522  31.401  11.795
62169W        W27154  23.069  25.386   2.022
62170W        W27155  19.058  37.406  10.932
62171W        W27156  24.452   5.886  13.012
62172W        W27157  23.002   5.555   3.712
62173W        W27158  31.632   5.448   2.311
62174W        W27159   1.712  43.315  13.075
62175W        W27160  19.772  19.615   2.376
62176W        W27161  29.920  12.126   4.347
62177W        W27162  33.047  22.548  10.599
62178W        W27163  32.077   9.196   2.328
62179W        W27164  27.119   4.844   3.345
62180W        W27165  40.586  21.078   3.672
62181W        W27166  32.584  31.498   2.704
62182W        W27167   4.809  26.737  11.590
62183W        W27168  17.558  15.577  14.051
62184W        W27169   2.401  37.481   3.042
62185W        W27170   5.924  36.951   3.131
62186W        W27171  28.455   4.865  14.462
62187W        W27172  12.230  26.961  14.696
62188W        W27173  41.407  14.826   3.809
62189W        W27174  43.279  20.973  11.905
62190W        W27175  25.605   3.891  12.669
62191W        W27176  35.599  26.484  13.873
62192W        W27177  16.740  20.399  11.826
62193W        W27178  38.533  10.166   4.645
62194W        W27179   6.574  22.249  11.532
62195W        W27180  40.036  42.510  14.539
62196W        W27181  19.987  31.177   4.633
62197W        W27182  12.399  36.863   2.952
62198W        W27183  25.679  15.254   4.766
62199W        W27184  10.438   9.586   4.007
62200W        W27185  44.446  16.009  11.276
62201W        W27186  35.032  33.360  13.521
62202W        W27187  31.889  12.290  12.161
62203W        W27188  18.076  27.941   3.283
62204W        W27189  15.739   0.652  12.011
62205W        W27190  44.591  41.784   2.587
62206W        W27191  31.059  41.791  14.444
62207W        W27192  19.440   9.252   1.212
62208W        W27193  11.559   0.384   3.609
62209W        W27194  39.786   0.441   1.274
62210W        W27195  19.978  38.741  14.889
62211W        W27196  25.889   2.278   2.670
62212W        W27197  34.575  25.190  11.101
62213W        W27198  29.894  11.606   4.360
62214W        W27199  33.981  28.473   4.667
62215W        W27200   7.398  22.186   0.465
62216W        W27201   4.202  14.204  14.558
62217W        W27202  24.522  23.136  13.864
62218W        W27203  29.048  12.574  13.042
62219W        W27204  35.329   1.713   4.215
62220W        W27205  11.457  14.542  14.469
62221W        W27206   8.724  41.927   3.119
62222W        W27207   2.095  25.718  14.940
62223W        W27208  18.918  31.847   1.928
62224W        W27209  43.747  25.515  14.811
62225W        W27210  28.701  10.534   0.678
62226W        W27211  28.681  33.633   4.109
62227W        W27212   7.976  30.898   3.800
62228W        W27213  35.562  18.126   2.699
62229W        W27214  43.497   2.237   3.356
62230W        W27215  25.549  33.887  14.753
62231W        W27216   1.703   4.240   3.262
62232W        W27217  40.343  35.347   3.206
62233W        W27218  10.254  13.350   0.019
62234W        W27219   4.376  24.748   1.700
62235W        W27220  34.067  41.382  13.467
62236W        W27221   4.942  34.128   2.019
62237W        W27222   0.641  28.111   3.731
62238W        W27223  44.554  39.474  11.417
62239W        W27224   4.896  41.360  10.301
62240W        W27225   8.866  41.606   2.728
62241W        W27226  21.398  42.033  12.546
62242W        W27227  38.533   4.908  14.465
62243W        W27228  39.606  18.683   0.853
62244W        W27229   7.811  15.573   0.772
62245W        W27230  28.993  39.814  12.672
62246W        W27231  39.889  28.906   2.757
62247W        W27232   9.795   9.584   0.880
62248W        W27233  31.078  35.518  10.326
62249W        W27234  34.537  41.797  11.163
62250W        W27235   5.860   8.587   2.715
62251W        W27236  15.348  42.063  10.586
62252W        W27237   4.851  27.631   4.838
62253W        W27238  43.859  28.991   4.438
62254W        W27239   5.969  35.562   3.733
62255W        W27240  34.063   1.241   2.743
62256W        W27241  34.474  35.867  13.518
62257W        W27242   6.153  42.908   4.027
62258W        W27243  34.113  32.445  11.472
62259W        W27244  28.486  22.654   2.651
62260W        W27245   2.741   5.593  10.664
62261W        W27246  23.845  20.516  11.133
62262W        W27247  26.168  19.207   3.685
62263W        W27248  29.563   6.116  13.848
62264W        W27249  41.864  10.888   2.725
62265W        W27250  43.865  21.927  13.348
62266W        W27251  32.145  26.698  14.418
62267W        W27252  27.693  18.249   4.701
62268W        W27253  34.766  39.040   5.033
62269W        W27254  17.386  17.995  13.774
62270W        W27255   9.260  12.269  11.113
62271W        W27256  31.661  18.199   2.207
62272W        W27257   8.418  17.836  14.990
62273W        W27258   3.840  29.201  12.418
62274W        W27259  15.189  27.960   2.533
62275W        W27260  32.209  15.287  14.419
62276W        W27261  36.517  33.912   2.745
62277W        W27262  40.935  41.322  12.928
62278W        W27263  15.110  21.017  14.497
62279W        W27264  12.289  38.188   4.190
62280W        W27265   4.342   9.865  13.228
62281W        W27266  43.418  26.112  10.512
62282W        W27267  31.780  20.748   4.078
62283W        W27268  14.810  18.152  14.949
62284W        W27269  27.533  28.169  13.127
62285W        W27270  38.491  39.474   3.665
62286W        W27271  10.187  41.970   4.725
62287W        W27272  29.011  38.418  11.588
62288W        W27273   6.202  22.993   1.167
62289W        W27274  26.190   7.254  13.850
62290W        W27275  23.096  28.476  12.213
62291W        W27276  26.917  28.538  12.023
62292W        W27277   6.470  17.346  14.919
62293W        W27278  39.543  36.402   1.148
62294W        W27279   3.379   2.403  13.378
62295W        W27280  33.044  20.146   0.013
62296W        W27281  35.117  31.426   4.672
62297W        W27282  22.444  33.094   1.241
62298W        W27283  39.993  39.083   4.222
62299W        W27284  39.939  22.553   3.260
62300W        W27285  22.094  18.699   9.588
62301W        W27286  21.135   1.313   3.703
62302W        W27287   2.176  38.412  13.887
62303W        W27288  39.795   7.687  12.539
62304W        W27289  24.179  12.599   4.964
62305W        W27290  32.414  31.910  11.568
62306W        W27291   8.691  33.159  13.519
62307W        W27292   9.244  35.317  11.584
62308W        W27293  16.737  39.799  11.488
62309W        W27294   3.591  44.960  11.244
62310W        W27295  38.813   6.790  14.490
62311W        W27296  31.495  44.216   1.499
62312W        W27297  15.832  24.447  13.477
62313W        W27298  37.299   9.771   0.362
62314W        W27299   8.378  23.548  12.197
62315W        W27300  42.075  36.436  14.554
62316W        W27301   8.255  38.359   2.176
62317W        W27302  29.073  23.288  11.468
62318W        W27303  11.334  34.819   1.770
62319W        W27304   9.253  10.326  12.535
62320W        W27305  18.693  12.174  10.533
62321W        W27306   4.262  26.138   2.828
62322W        W27307  40.982   6.000   2.335
62323W        W27308  30.410  20.750  14.814
62324W        W27309   5.528  40.524   0.019
62325W        W27310  22.572   6.297  10.683
62326W        W27311  44.066  21.412  14.475
62327W        W27312  31.046  11.079  13.990
62328W        W27313  18.256  44.358   4.658
62329W        W27314  11.757  41.919  14.031
62330W        W27315   8.392  42.738   2.271
62331W        W27316  11.475  37.523   0.548
62332W        W27317   4.207  44.100   3.595
62333W        W27318  18.788  42.575  10.878
62334W        W27319  23.152  31.499  13.378
62335W        W27320  39.614  12.051  13.798
62336W        W27321  27.024  39.955  11.865
62337W        W27322  23.062   7.090  11.614
62338W        W27323  15.812   4.405   1.357
62339W        W27324  29.310   9.347   3.736
62340W        W27325  17.555  41.296   1.789
62341W        W27326  20.345   7.679  11.087
62342W        W27327  34.550  27.655   0.447
62343W        W27328  17.074  18.719   1.420
62344W        W27329  15.553  27.060   1.626
62345W        W27330   5.674   1.650   1.769
62346W        W27331   9.180  44.459   4.005
62347W        W27332  14.180  39.597   4.471
62348W        W27333  11.901   9.227  12.080
62349W        W27334   8.321   7.290   3.623
62350W        W27335  39.046   9.189   0.418
62351W        W27336  16.050   0.775   2.345
62352W        W27337  38.989  32.440   1.495
62353W        W27338  17.243  19.291  11.215
62354W        W27339   6.773  40.944   0.701
62355W        W27340  43.811  14.665   3.560
62356W        W27341  22.330   4.516   2.717
62357W        W27342   1.517  11.752   3.734
62358W        W27343   1.889  10.363   3.609
62359W        W27344   5.507  32.362   3.244
62360W        W27345  10.902  31.054  11.102
62361W        W27346  38.532  41.420   0.426
62362W        W27347  39.424  29.050  11.569
62363W        W27348  20.330  40.615  11.156
62364W        W27349  10.854   4.347   0.451
62365W        W27350  29.866  10.266  13.880
62366W        W27351   3.419  15.161  10.745
62367W        W27352  37.932   1.173   2.161
62368W        W27353  32.569  34.127  14.289
62369W        W27354   0.744  39.291  14.296
62370W        W27355   8.263  23.455   2.718
62371W        W27356   2.487  16.295  12.854
62372W        W27357  12.452  42.424   3.079
62373W        W27358  25.928  25.652  11.018
62374W        W27359  44.718  26.028  13.960
62375W        W27360  18.280  10.889   3.225
62376W        W27361  15.807  14.909  10.196
62377W        W27362  14.251  10.647   0.006
62378W        W27363  38.873  11.087  12.633
62379W        W27364   6.395   2.382   0.347
62380W        W27365  40.356  21.254   9.852
62381W        W27366  44.388   3.774  14.196
62382W        W27367  38.754  32.015  12.860
62383W        W27368   6.632  33.576   2.132
62384W        W27369  24.433  20.606   3.631
62385W        W27370  36.901  12.149  12.947
62386W        W27371  43.326  19.295   1.182
62387W        W27372  15.778  27.460  12.069
62388W        W27373   0.079  23.401  13.442
62389W        W27374  29.862  22.108  13.687
62390W        W27375  21.025  12.472   4.149
62391W        W27376  19.228   3.918  11.117
62392W        W27377  37.902  40.050  12.009
62393W        W27378  21.668  43.328  12.480
62394W        W27379   0.866   9.019  13.686
62395W        W27380   0.299  43.029  12.973
62396W        W27381   3.535  40.517   2.297
62397W        W27382  18.668   8.540   1.284
62398W        W27383  13.618   3.287  12.439
62399W        W27384  31.685   7.900  11.250
62400W        W27385  18.508   4.967   2.220
62401W        W27386  43.994  30.613  11.371
62402W        W27387  34.557   8.791   1.737
62403W        W27388  20.767   2.736  11.159
62404W        W27389  30.106  36.962   0.242
62405W        W27390   0.254  36.866  10.537
62406W        W27391  39.161   4.782  13.502
62407W        W27392   2.820  42.000  13.875
62408W        W27393  14.157   6.775   3.737
62409W        W27394   5.475  17.336  13.867
62410W        W27395  35.705   5.251   0.288
62411W        W27396  28.966   5.203   2.609
62412W        W27397  35.927  42.274  14.826
62413W        W27398   2.636  42.743   0.262
62414W        W27399   0.908   0.260  14.853
62415W        W27400  15.516  19.067  14.489
62416W        W27401  41.564   0.369   4.268
62417W        W27402  43.261   0.701  14.249
62418W        W27403   7.362  39.724  11.121
62419W        W27404  18.502  18.199   2.631
62420W        W27405  38.969  26.688  11.068
62421W        W27406   6.767  22.528   3.775
62422W        W27407  23.384  37.236   4.320
62423W        W27408  18.607   2.442  14.398
62424W        W27409  25.783   5.027   0.504
62425W        W27410   0.238   7.026   3.304
62426W        W27411  31.970   9.226  13.107
62427W        W27412  28.567   4.930   2.821
62428W        W27413   0.511  15.111   9.882
62429W        W27414  11.214  42.405  10.612
62430W        W27415  43.034  40.267   0.306
62431W        W27416  32.393   9.385  14.936
62432W        W27417  34.087  43.894  12.608
62433W        W27418  29.478  29.009  10.482
62434W        W27419   6.205  21.596  13.236
62435W        W27420  18.680  44.961  12.371
62436W        W27421   5.037  38.536  12.145
62437W        W27422  30.949  28.682  10.711
62438W        W27423  22.836  30.214   3.756
62439W        W27424   8.881  16.791  12.048
62440W        W27425  19.227  35.265  12.586
62441W        W27426  24.978   1.745  11.661
62442W        W27427  28.674  13.074   3.715
62443W        W27428   1.857   4.736   3.246
62444W        W27429   4.995   0.886   3.881
62445W        W27430  12.350  13.881  13.597
62446W        W27431  32.458  42.771   3.749
62447W        W27432  19.114  21.256   2.601
62448W        W27433  33.339   5.138   1.348
62449W        W27434  29.761  37.911  13.722
62450W        W27435  27.169  44.382  14.808
62451W        W27436  40.877  42.774   4.197
62452W        W27437  40.852  23.530   2.990
62453W        W27438   5.167   4.246  13.391
62454W        W27439  26.446  35.509   3.822
62455W        W27440  28.532  44.046  11.578
62456W        W27441  28.159  26.925  13.844
62457W        W27442  24.077  20.685  13.074
62458W        W27443  32.771  39.387   0.782
62459W        W27444  15.664   8.700   1.427
62460W        W27445   6.375   3.379  10.757
62461W        W27446   3.373  24.968  10.804
62462W        W27447  25.955  10.634  14.109
62463W        W27448  23.943  28.979  12.540
62464W        W27449   9.663   2.424   2.226
62465W        W27450  21.487  11.654   1.696
62466W        W27451  23.603  24.119   1.532
62467W        W27452  37.375  42.346   2.385
62468W        W27453  33.968  36.264   0.723
62469W        W27454  18.250  42.841  13.369
62470W        W27455  35.345  11.791   3.317
62471W        W27456  44.374   6.708  12.071
62472W        W27457  31.190  31.594  14.532
62473W        W27458  24.995   6.927   3.689
62474W        W27459   0.452  43.017  14.354
62475W        W27460  41.253  22.828  11.723
62476W        W27461   1.437  43.654   3.804
62477W        W27462  44.796  13.195  12.191
62478W        W27463  19.734  39.377  13.600
62479W        W27464  15.876   5.469   0.675
62480W        W27465  11.790  40.218  12.523
62481W        W27466   7.296  21.479   1.196
62482W        W27467  17.294  30.014   4.654
62483W        W27468  37.567  33.507   1.643
62484W        W27469  40.186  11.114  13.300
62485W        W27470  44.242  17.179  13.960
62486W        W27471   8.934  43.388   1.733
62487W        W27472   2.202  42.470   0.208
62488W        W27473  17.020  33.963   0.996
62489W        W27474  38.204  13.521  11.812
62490W        W27475  16.498  37.070   4.581
62491W        W27476  44.007  10.331   3.432
62492W        W27477  29.219  10.367  13.266
62493W        W27478  12.153   7.884   1.178
62494W        W27479  24.744  27.002   3.932
62495W        W27480  14.657   5.005  12.080
62496W        W27481  28.985  44.915  10.744
62497W        W27482   8.251  27.957   1.866
62498W        W27483  26.414  34.993  12.920
62499W        W27484  12.893  28.210   3.928
62500W        W27485   6.457  10.741  14.191
62501W        W27486  22.985   6.107  11.452
62502W        W27487  17.633  16.287  11.969
62503W        W27488  12.315  29.316  10.085
62504W        W27489   2.748  19.726   3.252
62505W        W27490   2.297  12.126   4.545
62506W        W27491  12.067  40.080   2.900
62507W        W27492  42.631  25.089  14.208
62508W        W27493   1.906  30.459  10.865
62509W        W27494  39.485  17.865  10.676
62510W        W27495   5.952  16.081  13.931
62511W        W27496  37.801  20.050   4.571
62512W        W27497  20.119   7.295  14.290
62513W        W27498  16.840  32.033   2.879
62514W        W27499  22.273  39.549  14.232
62515W        W27500  39.911  26.256   1.477
62516W        W27501  20.808  14.303  14.191
62517W        W27502  24.156  20.717  13.921
62518W        W27503  16.517   4.802  10.763
62519W        W27504   2.866  38.936   2.905
62520W        W27505  19.750   0.788  12.198
62521W        W27506   3.316  27.578   0.473
62522W        W27507  42.700  42.894  11.479
62523W        W27508  27.726  35.891  13.878
62524W        W27509   9.241  38.499  11.578
62525W        W27510   9.628  32.864  11.845
62526W        W27511  43.896  14.738  11.981
62527W        W27512  40.099  29.987  12.426
62528W        W27513  12.510   8.939   0.439
62529W        W27514  29.924  23.197  13.272
62530W        W27515   7.183  18.060  10.722
62531W        W27516  17.278  20.295   3.349
62532W        W27517  30.358  28.592   3.726
62533W        W27518  41.003  10.222  14.040
62534W        W27519  40.404   5.246  10.818
62535W        W27520   2.409  28.385  14.374
62536W        W27521  10.660  15.134   1.428
62537W        W27522   3.994  35.181  10.704
62538W        W27523   7.616  16.918  10.668
62539W        W27524  35.270  42.462   2.731
62540W        W27525  21.668  44.844  14.950
62541W        W27526  19.176  27.130   2.943
62542W        W27527  41.807   8.926   4.326
62543W        W27528   5.934  27.682   3.772
62544W        W27529   6.789   4.025   5.387
62545W        W27530  30.150  23.090  11.184
62546W        W27531  19.487  38.987   0.795
62547W        W27532  18.023  32.599  12.389
62548W        W27533  32.851  43.294  12.299
62549W        W27534  30.596  12.927   1.921
62550W        W27535  11.315  24.672  11.317
62551W        W27536   0.991  24.543   2.292
62552W        W27537  15.716  26.915   2.975
62553W        W27538  38.507   1.464   2.693
62554W        W27539  13.366  26.259  13.743
62555W        W27540  38.397   4.920  11.394
62556W        W27541  11.709  19.189   2.738
62557W        W27542  21.498  33.909   3.924
62558W        W27543  40.905  42.137  13.420
62559W        W27544   6.419  34.117   4.629
62560W        W27545  36.038  16.551  12.432
62561W        W27546  11.469  19.680   5.099
62562W        W27547  11.086  28.112   2.088
62563W        W27548  39.325   6.178  12.536
62564W        W27549  28.108  17.778   3.107
62565W        W27550  13.787   6.872  14.477
62566W        W27551   2.798  28.630   1.693
62567W        W27552  20.748  11.188   0.157
62568W        W27553  33.672   0.222   0.008
62569W        W27554  43.643   8.143  11.603
62570W        W27555  23.739   7.379   2.752
62571W        W27556  25.731  34.570   1.970
62572W        W27557  24.793  12.560  12.563
62573W        W27558  13.342  12.555  10.471
62574W        W27559  10.766  38.824  12.989
62575W        W27560  18.604  15.609  12.561
62576W        W27561  43.426  33.724  14.332
62577W        W27562   5.022  40.388   5.110
62578W        W27563  35.158  13.242  11.548
62579W        W27564  10.255   3.388  11.619
62580W        W27565   0.486  22.080   1.783
62581W        W27566  12.685  19.211  11.898
62582W        W27567  35.382  30.360  14.935
62583W        W27568  12.329  41.044   1.859
62584W        W27569  17.161   8.217   0.465
62585W        W27570  36.935  16.667  14.244
62586W        W27571  40.506  20.040  14.483
62587W        W27572  11.104   8.622  13.532
62588W        W27573   9.942  37.800  14.844
62589W        W27574  40.322  32.562  12.817
62590W        W27575  22.578  43.811   0.020
62591W        W27576  24.729  22.289  11.184
62592W        W27577  37.079   7.901  12.637
62593W        W27578  37.154  40.014  10.555
62594W        W27579  28.922  34.360   1.238
62595W        W27580  11.806   2.230   4.786
62596W        W27581  41.380  34.102  13.480
62597W        W27582  36.488  35.298   0.969
62598W        W27583  21.806  37.423  12.387
62599W        W27584  12.889  27.736  13.117
62600W        W27585  24.317  15.116   4.547
62601W        W27586  22.607  19.716   4.347
62602W        W27587  33.528  22.350  10.619
62603W        W27588  27.257  33.544   3.629
62604W        W27589  28.259   8.504   0.843
62605W        W27590  32.382   6.086   3.051
62606W        W27591  13.184  23.976  14.036
62607W        W27592   5.989   3.727  11.133
62608W        W27593  20.815   0.402   2.622
62609W        W27594  19.499   0.349  12.234
62610W        W27595   9.568  17.235   3.713
62611W        W27596  11.120  23.597  10.456
62612W        W27597   6.103  17.260   2.373
62613W        W27598  36.390  36.030   4.136
62614W        W27599   3.454   5.277   0.215
62615W        W27600  40.877  14.671   9.813
62616W        W27601   0.473  41.012   1.752
62617W        W27602  25.498   4.991   0.062
62618W        W27603  25.704  27.927  10.187
62619W        W27604  29.967  15.575   1.364
62620W        W27605   9.177  17.188   4.048
62621W        W27606   3.456   0.779   4.146
62622W        W27607   3.267  27.377  13.957
62623W        W27608  28.667  23.178   3.759
62624W        W27609  18.876  13.571   1.321
62625W        W27610  33.872  23.937   2.558
62626W        W27611  12.196  42.830   3.288
62627W        W27612  20.878  25.459   2.909
62628W        W27613  15.542  40.558   4.047
62629W        W27614   7.708  44.412  10.707
62630W        W27615  39.331  13.853   2.775
62631W        W27616  40.531   2.035   0.071
62632W        W27617  15.691   0.689  10.690
62633W        W27618  15.592  39.617   4.338
62634W        W27619  11.438  38.347   4.178
62635W        W27620   0.216  39.500  12.653
62636W        W27621  38.923   1.967  10.617
62637W        W27622  10.484  35.026   1.861
62638W        W27623  25.961  34.632   1.208
62639W        W27624  30.910  36.373  14.512
62640W        W27625  30.649  20.120   0.877
62641W        W27626  33.437  26.222  10.365
62642W        W27627  29.948  38.923   0.236
62643W        W27628  25.471  29.031  10.761
62644W        W27629  29.632  44.024  13.588
62645W        W27630  33.089   4.265   2.231
62646W        W27631   7.278  28.939   1.909
62647W        W27632  23.197  35.318   4.323
62648W        W27633  27.226   9.053  14.962
62649W        W27634  41.523  28.669  10.032
62650W        W27635  22.999  27.707   3.043
62651W        W27636  36.788  38.852  13.963
62652W        W27637  25.202  10.239  11.559
62653W        W27638  31.528  21.564  14.531
62654W        W27639  39.840   0.578  12.064
62655W        W27640  44.961  19.171  13.961
62656W        W27641  18.720  31.167  14.855
62657W        W27642  15.060  22.352   2.415
62658W        W27643  14.221  29.750   3.316
62659W        W27644   5.250   8.326   1.980
62660W        W27645   3.511   6.930   2.387
62661W        W27646  33.187  33.445   4.625
62662W        W27647  31.519  23.225  11.097
62663W        W27648   0.918  33.463  11.971
62664W        W27649   6.634  10.337   4.139
62665W        W27650  41.369  20.510   3.598
62666W        W27651  16.659  25.635  13.913
62667W        W27652  10.417  25.562  10.884
62668W        W27653  14.506   7.673   1.433
62669W        W27654  43.247  13.138   4.058
62670W        W27655  33.109  37.665   4.112
62671W        W27656  21.855  32.462   1.285
62672W        W27657  13.021  37.506   1.207
62673W        W27658  33.696   7.119  10.326
62674W        W27659  39.981   8.919   0.039
62675W        W27660   8.107   4.351   3.106
62676W        W27661  24.662   0.702  11.125
62677W        W27662  40.589  40.339   3.080
62678W        W27663  16.150   1.055   0.361
62679W        W27664  22.109  23.846   4.610
62680W        W27665  19.219  32.549   4.325
62681W        W27666   8.815  14.858  14.499
62682W        W27667  11.725  33.141  14.033
62683W        W27668   1.439  36.829  13.361
62684W        W27669   1.196  15.788   0.199
62685W        W27670  25.627   1.258   0.096
62686W        W27671  39.881   9.653  12.022
62687W        W27672  23.914  32.121   4.145
62688W        W27673   9.180   0.330   0.034
62689W        W27674  39.901   4.603  11.510
62690W        W27675  20.794  44.809  12.971
62691W        W27676  32.834   4.811  13.903
62692W        W27677   6.152   6.896  13.742
62693W        W27678   2.925  16.249  13.791
62694W        W27679  26.025   0.061  12.078
62695W        W27680  11.979  18.293  12.739
62696W        W27681   2.291  30.598   2.717
62697W        W27682  33.282  15.281   4.146
62698W        W27683  26.873  37.339   4.821
62699W        W27684  35.093  39.881   4.541
62700W        W27685   9.743  21.258  14.736
62701W        W27686  21.564  19.235   3.169
62702W        W27687  11.348  43.473  11.647
62703W        W27688  12.576   9.856   0.293
62704W        W27689  21.203  20.340   2.911
62705W        W27690  23.616  26.891   1.437
62706W        W27691  23.765  44.927  14.429
62707W        W27692  21.657   7.346  12.423
62708W        W27693  40.772   9.659  13.019
62709W        W27694  40.900  11.152   0.596
62710W        W27695  20.332  18.009   3.199
62711W        W27696  21.472  30.927   3.136
62712W        W27697  11.287   9.965   2.332
62713W        W27698  30.922  10.223  10.729
62714W        W27699   9.876  14.886   2.639
62715W        W27700  11.526  19.214   4.872
62716W        W27701  16.874  30.763  13.081
62717W        W27702  13.754  43.558  14.066
62718W        W27703   4.986  39.968  10.723
62719W        W27704  13.756  16.676   3.648
62720W        W27705  44.988  30.075   3.657
62721W        W27706  22.422  36.371  14.928
62722W        W27707  39.943  31.499  11.069
62723W        W27708   0.783  35.585  14.449
62724W        W27709  11.943  11.714   1.918
62725W        W27710  32.416   2.175   2.281
62726W        W27711  29.016  33.898  14.807
62727W        W27712  23.172  44.912  11.968
62728W        W27713  33.080  16.912   4.220
62729W        W27714  12.289  33.686  11.519
62730W        W27715  22.639  20.304  10.730
62731W        W27716   3.161   8.402  13.423
62732W        W27717   8.788   1.015  12.933
62733W        W27718  13.254   8.869  12.841
62734W        W27719  28.254  20.030   0.990
62735W        W27720   7.335  19.565  12.623
62736W        W27721  12.603  21.769   2.477
62737W        W27722  42.736  29.577  11.140
62738W        W27723  28.408   8.158   3.617
62739W        W27724  29.394  16.722   0.409
62740W        W27725  41.721  44.274  12.453
62741W        W27726  28.273  13.379   3.826
62742W        W27727  28.414   3.410   1.786
62743W        W27728  17.027  17.034   3.353
62744W        W27729  29.263  16.194   2.410
62745W        W27730   5.000  22.199   1.770
62746W        W27731  40.595  41.843   2.924
62747W        W27732   6.644   9.045   4.800
62748W        W27733   6.257  19.034  14.427
62749W        W27734   5.116  44.301  12.819
62750W        W27735   2.816  18.745   4.660
62751W        W27736   2.942  43.995   4.535
62752W        W27737  34.482  22.482  13.037
62753W        W27738  25.075  35.848   4.423
62754W        W27739   0.352  43.962  11.969
62755W        W27740  17.415  11.196  10.689
62756W        W27741  12.817  42.635  13.430
62757W        W27742   3.655  43.511   3.044
62758W        W27743  23.050  32.973   0.227
62759W        W27744   6.395   3.361   2.800
62760W        W27745  28.848  36.590   0.853
62761W        W27746  16.659  20.841  12.063
62762W        W27747  10.199  24.909  11.982
62763W        W27748   2.485   3.000  13.390
62764W        W27749   5.800  22.618   4.842
62765W        W27750  16.688   2.168  10.645
62766W        W27751  40.203  20.312  14.806
62767W        W27752  39.101   9.600   3.815
62768W        W27753  42.794  25.207   3.573
62769W        W27754  40.111  11.833  10.791
62770W        W27755   6.347  28.702   0.429
62771W        W27756  22.709  11.837  14.826
62772W        W27757  36.698  43.378  14.367
62773W        W27758   5.948   9.535  13.395
62774W        W27759  11.553  38.349   3.285
62775W        W27760  15.352   2.868  10.236
62776W        W27761   3.189  23.569  12.073
62777W        W27762  13.640  29.472  10.613
62778W        W27763  30.617  25.915   1.442
62779W        W27764   3.671   9.604   2.318
62780W        W27765  39.387  35.025  13.042
62781W        W27766   2.586  22.526  12.569
62782W        W27767  41.097  43.052   3.782
62783W        W27768  14.248  10.474   0.488
62784W        W27769  44.861  26.997   3.404
62785W        W27770  20.156  19.789   1.819
62786W        W27771  13.874  27.165  13.989
62787W        W27772  25.263  42.158  10.624
62788W        W27773  43.221  38.524   4.340
62789W        W27774  35.042   0.850   3.704
62790W        W27775  41.241  20.430  13.331
62791W        W27776  38.580  29.489  13.249
62792W        W27777   7.239   0.093   2.798
62793W        W27778   8.017  31.649  14.919
62794W        W27779  26.235  43.034  10.658
62795W        W27780  28.596  31.220  12.041
62796W        W27781  26.518  24.740  10.692
62797W        W27782   0.335  23.616   1.467
62798W        W27783  29.091  20.044   1.309
62799W        W27784  34.632  35.546  14.269
62800W        W27785  19.223  32.666   1.930
62801W        W27786  43.933  39.806  10.837
62802W        W27787  14.757  33.122  12.418
62803W        W27788  36.634  38.847   4.029
62804W        W27789   5.801  19.389  11.993
62805W        W27790  29.007   9.474  11.123
62806W        W27791  31.659   2.507   4.098
62807W        W27792  32.582  32.577   4.576
62808W        W27793  16.923  14.596  11.881
62809W        W27794   2.175   3.861  14.430
62810W        W27795  17.718   9.281   2.120
62811W        W27796  42.450  28.540   2.272
62812W        W27797  24.097  19.848   1.679
62813W        W27798   2.749   1.169  13.412
62814W        W27799  31.331   7.384   3.251
62815W        W27800  16.141  30.370  14.738
62816W        W27801  17.605  37.403   0.242
62817W        W27802  21.736  19.314  14.896
62818W        W27803  39.050  29.540  13.519
62819W        W27804  43.495  41.380   3.073
62820W        W27805  18.927  41.011   4.205
62821W        W27806  26.367   9.803  11.251
62822W        W27807  44.663  24.110   1.507
62823W        W27808  18.473   1.432   3.289
62824W        W27809  39.671  17.533   5.172
62825W        W27810  26.394  24.826   0.713
62826W        W27811   1.105  35.820  14.091
62827W        W27812   2.074  25.560  14.443
62828W        W27813  23.226  19.154  11.175
62829W        W27814   2.171  26.507  13.389
62830W        W27815   9.350  11.767  11.133
62831W        W27816  40.066  21.069  12.901
62832W        W27817  38.409  37.621  11.122
62833W        W27818   5.379  39.637  12.583
62834W        W27819   4.921  36.936  11.145
62835W        W27820  17.645  35.967  14.851
62836W        W27821  10.268  14.742  11.163
62837W        W27822   6.625  17.825   3.757
62838W        W27823  19.209  22.286  12.809
62839W        W27824  27.638  34.877  14.083
62840W        W27825  37.490   5.904  11.295
62841W        W27826  32.417  42.449   1.203
62842W        W27827  13.033  39.932  14.000
62843W        W27828  14.140  41.034  13.532
62844W        W27829  22.942   0.249   1.325
62845W        W27830  30.935  23.161  12.464
62846W        W27831  27.731   0.948   1.396
62847W        W27832  33.473  12.081   4.530
62848W        W27833  12.383  19.232  14.883
62849W        W27834  14.806   3.990   0.715
62850W        W27835  16.229  27.511   0.527
62851W        W27836  12.939  15.829  12.825
62852W        W27837   0.761  17.585  11.336
62853W        W27838  33.308  16.377  14.504
62854W        W27839  14.584   9.878  12.068
62855W        W27840  29.300  32.960   4.777
62856W        W27841  29.624  24.896   1.394
62857W        W27842  16.050   8.828   1.106
62858W        W27843  35.073  14.132   2.180
62859W        W27844  43.876  25.436  13.923
62860W        W27845  11.872  15.999   4.207
62861W        W27846  25.702  39.014   3.367
62862W        W27847  15.702   2.499  13.287
62863W        W27848  35.060  13.610  12.829
62864W        W27849  11.360  18.752   4.633
62865W        W27850  32.327  33.696  10.479
62866W        W27851   1.369  15.979   1.103
62867W        W27852  15.512  24.027  11.725
62868W        W27853  20.309  13.197  13.669
62869W        W27854  29.707  42.664   0.699
62870W        W27855  34.304   7.669   4.140
62871W        W27856  11.108   7.912  12.928
62872W        W27857  14.303  10.726  14.031
62873W        W27858  43.422  25.212   2.168
62874W        W27859   5.849  18.111   1.899
62875W        W27860   5.277  19.440  13.727
62876W        W27861  13.170  40.429  10.713
62877W        W27862  42.566  41.058   4.258
62878W        W27863  19.079  20.643  10.652
62879W        W27864   1.019   7.347   3.152
62880W        W27865  37.035  15.212  12.021
62881W        W27866  13.068  12.611  14.786
62882W        W27867  44.251  43.528   4.232
62883W        W27868  12.305  18.326  10.647
62884W        W27869  31.473  37.551   2.773
62885W        W27870  35.545   9.175  14.443
62886W        W27871  40.345   5.972  12.076
62887W        W27872  27.244  23.124  11.832
62888W        W27873  14.804  38.156   0.361
62889W        W27874  24.274   1.418   1.889
62890W        W27875   8.221  25.243  12.066
62891W        W27876   3.748  36.892   2.325
62892W        W27877  22.813   7.635  12.777
62893W        W27878  20.237  10.386   3.278
62894W        W27879  38.764   6.133  10.613
62895W        W27880  40.014  12.130   2.307
62896W        W27881  43.799  22.242   0.963
62897W        W27882  44.902  19.020  13.198
62898W        W27883  39.536  31.181   4.026
62899W        W27884  25.476   2.024   0.394
62900W        W27885  40.409  13.144   3.821
62901W        W27886   2.359   2.812  10.654
62902W        W27887   5.691   3.351  11.873
62903W        W27888  32.525  20.966  13.005
62904W        W27889  42.852  17.809   3.374
62905W        W27890  12.798  26.868   4.176
62906W        W27891  43.894  36.054   1.267
62907W        W27892  19.433   8.403   0.025
62908W        W27893  22.964  22.524   4.687
62909W        W27894  27.443  41.215   3.331
62910W        W27895  30.898  29.598   0.716
62911W        W27896   1.355   4.960  14.718
62912W        W27897   1.168  23.576  12.057
62913W        W27898  21.678   3.856  12.578
62914W        W27899  32.492  35.085   4.777
62915W        W27900   3.201  10.187  14.835
62916W        W27901  39.354   8.389   2.111
62917W        W27902  40.557  18.434   4.102
62918W        W27903  42.861  36.072   1.183
62919W        W27904  29.741  12.038   0.553
62920W        W27905  28.925  43.936  14.418
62921W        W27906  31.321  41.089  13.453
62922W        W27907   1.256  22.714  13.350
62923W        W27908   3.652  33.976  11.552
62924W        W27909  25.957  43.955  14.716
62925W        W27910  38.421  26.386  11.672
62926W        W27911   8.046  32.848   0.173
62927W        W27912  16.558   4.859  11.688
62928W        W27913  28.164   9.771  12.493
62929W        W27914  39.409  29.497  14.955
62930W        W27915  35.006  17.826   1.901
62931W        W27916  37.378  18.755   4.616
62932W        W27917   2.199  33.834   4.493
62933W        W27918  38.004  24.227   1.537
62934W        W27919  24.558  19.715  13.302
62935W        W27920   3.005  29.378  13.898
62936W        W27921   0.201  40.056  12.043
62937W        W27922   8.316  14.559   3.869
62938W        W27923  16.703  37.786   1.423
62939W        W27924  41.228   6.409  11.124
62940W        W27925  24.771  24.517  10.617
62941W        W27926  16.064  41.097   3.674
62942W        W27927  33.671  42.982   4.153
62943W        W27928  31.965  17.706   0.245
62944W        W27929  17.191  33.466   2.193
62945W        W27930   7.402   1.427  13.185
62946W        W27931   9.388  19.856   2.378
62947W        W27932   1.440  32.248  12.540
62948W        W27933  13.214  26.764   0.352
62949W        W27934   9.300  34.887  11.972
62950W        W27935  42.013  31.562   3.364
62951W        W27936  27.683  12.561  11.404
62952W        W27937  24.360  12.268  14.338
62953W        W27938  11.708  37.163  12.900
62954W        W27939  28.038   0.754  10.386
62955W        W27940  14.703  36.951   1.845
62956W        W27941   3.801  40.380  13.532
62957W        W27942   7.704   5.674  13.908
62958W        W27943  33.940   1.157  11.597
62959W        W27944  29.618  26.140  10.724
62960W        W27945  31.681   4.248   4.614
62961W        W27946  39.974  14.333   3.728
62962W        W27947  36.021  19.128   0.471
62963W        W27948  13.808  27.470   4.935
62964W        W27949   3.968  39.320   2.665
62965W        W27950  42.361  30.465  12.514
62966W        W27951   4.012  38.323   3.619
62967W        W27952   3.451  21.132   4.547
62968W        W27953   2.523  27.205  14.921
62969W        W27954  14.563  32.325   2.593
62970W        W27955  40.917   8.223  11.989
62971W        W27956  27.865  12.149  13.414
62972W        W27957  18.725   3.412  11.648
62973W        W27958   1.167  20.040   0.259
62974W        W27959   7.843  20.578   1.892
62975W        W27960  26.787  42.822   4.517
62976W        W27961  44.272  13.752   1.327
62977W        W27962  23.926  28.137  10.675
62978W        W27963  16.386  42.489   0.913
62979W        W27964  39.778  21.722   1.821
62980W        W27965  37.107  12.793   0.932
62981W        W27966  13.139  13.660  14.783
62982W        W27967   5.286  35.020  10.352
62983W        W27968   3.486  43.339  13.798
62984W        W27969  40.017  36.731   4.140
62985W        W27970  32.853  37.527   4.541
62986W        W27971  11.475  10.100  12.295
62987W        W27972  41.209  36.064   3.605
62988W        W27973   3.117  23.326   2.293
62989W        W27974  21.526  43.392   2.858
62990W        W27975  26.360  10.739  14.985
62991W        W27976  20.763  44.441   2.693
62992W        W27977   3.342  23.938  10.685
62993W        W27978   9.654  17.113   4.266
62994W        W27979  27.623   6.130  14.811
62995W        W27980   0.510   6.721  14.972
62996W        W27981  10.846  11.555  13.830
62997W        W27982  42.558  13.250   1.318
62998W        W27983  13.711   2.684   4.731
62999W        W27984  27.903  16.223  12.680
63000W        W27985  36.051  24.368   1.838
63001W        W27986   7.715  20.111  14.033
63002W        W27987   9.852   0.637  13.475
63003W        W27988  44.841  31.990   0.415
63004W        W27989  32.415  26.860   2.729
63005W        W27990  33.633  35.787   2.964
63006W        W27991  40.031   7.837  12.123
63007W        W27992   5.665   5.149  14.674
63008W        W27993  10.810  10.804   0.307
63009W        W27994  21.527  28.120  13.606
63010W        W27995  25.929  13.555  11.613
63011W        W27996  36.126  35.634   3.251
63012W        W27997  44.069  22.933  10.237
63013W        W27998  15.848   4.981   0.823
63014W        W27999  13.139  13.077  12.905
63015W        W28000  34.089  33.391   4.538
63016W        W28001  21.721   4.141  14.893
63017W        W28002   0.020  39.982  13.775
63018W        W28003  28.448  10.063   3.574
63019W        W28004   4.445   0.403   4.241
63020W        W28005   9.378   2.354   0.865
63021W        W28006  19.005  33.656   0.309
63022W        W28007  20.007  26.655  12.430
63023W        W28008  30.411  19.197  11.978
63024W        W28009  44.761  36.056   4.597
63025W        W28010  10.299  35.634  11.992
63026W        W28011   6.185  44.672   5.174
63027W        W28012  25.502  40.487   2.265
63028W        W28013   9.790  23.786  10.667
63029W        W28014  12.767  21.718   3.851
63030W        W28015   3.073  32.519   4.741
63031W        W28016  10.378  25.662  11.380
63032W        W28017  25.828  30.210   1.314
63033W        W28018  39.184  22.895   3.563
63034W        W28019  17.343  30.885   2.498
63035W        W28020  18.435  11.695  13.391
63036W        W28021   6.627  24.077  14.278
63037W        W28022   5.669   5.461  12.031
63038W        W28023  21.193  17.609   3.912
63039W        W28024  10.711  14.435   3.156
63040W        W28025  40.946  27.648  11.364
63041W        W28026  25.802  23.542  11.538
63042W        W28027  24.784  22.730  14.415
63043W        W28028  25.215  13.701  14.754
63044W        W28029  31.651  40.960  12.465
63045W        W28030  42.489   3.027   3.205
63046W        W28031  31.878  14.739   2.692
63047W        W28032  30.432  40.789  11.996
63048W        W28033  12.840  40.832  10.625
63049W        W28034  12.338  33.660   1.947
63050W        W28035  41.916  26.730   2.044
63051W        W28036  29.123  30.620  11.630
63052W        W28037  23.336  16.867   2.366
63053W        W28038  20.183  22.579   0.829
63054W        W28039  24.485   3.013  13.657
63055W        W28040  28.931   7.916  11.504
63056W        W28041  27.998  12.382   2.146
63057W        W28042  23.696  32.136  13.521
63058W        W28043  31.049  37.448   2.219
63059W        W28044  22.578  38.919  11.353
63060W        W28045  17.140  31.552  12.056
63061W        W28046  20.449  21.642  11.114
63062W        W28047  21.842  19.712   1.239
63063W        W28048  18.638  42.053   0.231
63064W        W28049  34.073  44.889  12.918
63065W        W28050  10.717  15.170  13.596
63066W        W28051  18.583  34.888  11.896
63067W        W28052  26.703  20.510   4.315
63068W        W28053  12.579  14.699   4.680
63069W        W28054   3.729  37.591  10.739
63070W        W28055  13.909   2.260   4.546
63071W        W28056   7.819  39.454   0.795
63072W        W28057  27.813   2.351  11.647
63073W        W28058  29.482  39.753  13.482
63074W        W28059  19.975   2.826  14.590
63075W        W28060   2.781  20.386  14.920
63076W        W28061  44.985  36.912   0.321
63077W        W28062   9.949  38.460   2.483
63078W        W28063  38.784  12.771   3.880
63079W        W28064  21.560  44.686  12.537
63080W        W28065  15.288  32.980  11.715
63081W        W28066  29.424  24.973  11.152
63082W        W28067  24.647   0.138   4.531
63083W        W28068  16.737  35.615   3.119
63084W        W28069  12.138  12.203  12.166
63085W        W28070  39.832  11.184   0.270
63086W        W28071  19.296  40.357  11.140
63087W        W28072  23.738  14.245   4.450
63088W        W28073  18.470   3.278  14.470
63089W        W28074  32.048   4.465   3.328
63090W        W28075  33.384  32.205   0.357
63091W        W28076  38.465  23.583   2.006
63092W        W28077  34.154  18.613  14.967
63093W        W28078  29.555  39.925  12.577
63094W        W28079  40.308  27.047   0.005
63095W        W28080  21.493  18.647  10.120
63096W        W28081  40.569   1.488  12.572
63097W        W28082   0.196  40.643   1.515
63098W        W28083  43.455  44.847   1.355
63099W        W28084  13.861  28.599  13.409
63100W        W28085  41.431  39.339  14.895
63101W        W28086  13.696  15.072  14.377
63102W        W28087  28.976   5.711   2.417
63103W        W28088  36.917  38.875   2.950
63104W        W28089  42.372  41.878   0.993
63105W        W28090  40.348  38.272   3.764
63106W        W28091  38.613  40.805  13.002
63107W        W28092  39.082  43.715   0.395
63108W        W28093  10.734  43.612   0.254
63109W        W28094   2.399  17.802   3.264
63110W        W28095  11.640  29.157  13.400
63111W        W28096  11.242  39.042   3.713
63112W        W28097   2.832  34.504   0.441
63113W        W28098  27.075  13.344   2.368
63114W        W28099  30.711  24.148  14.678
63115W        W28100  15.568  29.202   1.110
63116W        W28101   4.213  36.461  11.110
63117W        W28102  18.171   5.411  12.475
63118W        W28103   7.128  26.202   4.642
63119W        W28104  11.909  38.026  12.366
63120W        W28105  34.396   2.346  14.314
63121W        W28106  25.774  11.931  14.008
63122W        W28107  43.990  26.601  14.787
63123W        W28108   0.774  34.975   2.278
63124W        W28109   3.366  24.037   1.175
63125W        W28110  43.279  11.045  14.912
63126W        W28111   2.385  25.248   3.388
63127W        W28112  11.703  42.733   0.767
63128W        W28113  10.283  19.192   4.094
63129W        W28114  39.404  21.435  12.360
63130W        W28115   2.940  26.917  14.996
63131W        W28116   7.673   2.868  12.915
63132W        W28117  26.225   9.742   1.216
63133W        W28118  12.836  36.960   4.404
63134W        W28119  28.684  16.018  13.111
63135W        W28120   8.406  44.902   1.294
63136W        W28121  18.412  37.541   1.282
63137W        W28122   1.413  20.656   4.571
63138W        W28123  35.180  15.648   0.458
63139W        W28124  18.042  18.545   1.256
63140W        W28125  12.632  28.657  13.883
63141W        W28126  18.700  16.926   1.842
63142W        W28127  17.044  21.716  12.801
63143W        W28128  26.678  26.964   2.312
63144W        W28129  17.942   1.382   2.379
63145W        W28130  16.258  14.143   0.961
63146W        W28131  17.106  43.193   3.785
63147W        W28132  24.204  39.887   4.652
63148W        W28133  17.149  30.008   2.023
63149W        W28134  38.938  42.859  12.887
63150W        W28135  16.728  11.250  12.531
63151W        W28136  15.242  23.122   1.794
63152W        W28137  17.146  42.471   3.116
63153W        W28138  22.234  44.904   2.172
63154W        W28139   2.084   5.850  12.138
63155W        W28140  16.964  33.567   4.573
63156W        W28141  20.093  12.536  11.700
63157W        W28142  32.795  19.009   1.269
63158W        W28143   5.318  12.584  14.367
63159W        W28144  26.926   3.277  14.999
63160W        W28145  26.684  36.374   0.997
63161W        W28146  18.040   8.667   0.528
63162W        W28147  12.905  27.895   1.604
63163W        W28148  27.659  31.322   3.534
63164W        W28149  27.493  32.090  13.820
63165W        W28150   4.826   9.971   0.759
63166W        W28151   4.472  36.901  10.906
63167W        W28152   0.467  42.746   0.223
63168W        W28153   0.872  32.136  13.376
63169W        W28154  30.341  24.062  11.434
63170W        W28155  15.952  36.823   1.440
63171W        W28156  26.664  44.151  10.289
63172W        W28157  27.017  27.240  13.097
63173W        W28158  28.423   2.888  12.868
63174W        W28159  30.319  44.894  12.899
63175W        W28160  20.719  19.871  10.310
63176W        W28161  40.941  15.745  11.098
63177W        W28162   0.271   7.443  12.454
63178W        W28163  35.178  20.905   4.578
63179W        W28164  17.988  18.190  10.289
63180W        W28165  21.454  44.546   2.452
63181W        W28166  39.339  31.547  13.896
63182W        W28167  28.887  19.515   4.179
63183W        W28168  35.556  39.905   3.180
63184W        W28169  31.350   2.989  14.366
63185W        W28170  44.374  23.874  10.303
63186W        W28171  10.771   7.624   0.338
63187W        W28172  38.098  18.987  12.986
63188W        W28173  20.187  10.238   4.608
63189W        W28174   5.818  18.104  14.310
63190W        W28175  31.819  17.737  12.522
63191W        W28176  23.483  21.726   0.100
63192W        W28177  23.448   5.827  13.917
63193W        W28178  44.000  44.317   4.762
63194W        W28179  38.434  13.570  13.050
63195W        W28180  31.608   3.197  13.357
63196W        W28181  44.553   9.061  12.794
63197W        W28182   7.248  20.695   0.205
63198W        W28183  25.543  10.586  13.418
63199W        W28184  10.147  31.524   2.359
63200W        W28185  25.947  19.630  14.735
63201W        W28186  15.011  31.575  14.003
63202W        W28187  33.355  34.331   4.021
63203W        W28188   1.377  35.355  10.516
63204W        W28189  43.452   2.632  12.175
63205W        W28190   2.824   5.498  11.778
63206W        W28191  17.593   0.970  14.727
63207W        W28192  42.478  40.855  14.682
63208W        W28193  13.056  28.306   4.500
63209W        W28194   8.427  12.156  13.033
63210W        W28195  40.555  15.596  10.788
63211W        W28196  42.392  29.206   1.559
63212W        W28197  28.250  19.303  11.621
63213W        W28198  36.127  34.246  10.990
63214W        W28199  23.056  18.702   1.317
63215W        W28200   8.352   3.963   3.395
63216W        W28201  14.785  42.911  11.554
63217W        W28202  19.629  31.947   1.309
63218W        W28203   5.754  17.174  12.515
63219W        W28204  25.042  41.850  10.960
63220W        W28205   6.372  29.133   0.147
63221W        W28206   2.396  30.299   9.936
63222W        W28207  38.243  41.794   3.246
63223W        W28208   0.412  40.373   4.652
63224W        W28209  13.511  28.424  11.028
63225W        W28210  27.478   5.313  11.946
63226W        W28211  37.982  43.721   3.832
63227W        W28212   5.150   4.480  10.207
63228W        W28213  22.886  36.783  10.407
63229W        W28214  13.359  43.066   4.672
63230W        W28215   3.835  44.493  14.018
63231W        W28216  13.091  40.282  14.884
63232W        W28217  30.572  19.048  13.558
63233W        W28218  26.352  22.836  10.611
63234W        W28219  29.251  25.971  11.027
63235W        W28220  42.773  16.897  13.432
63236W        W28221  18.720  20.546  13.329
63237W        W28222  22.270   7.192  10.305
63238W        W28223  15.058   7.748   1.406
63239W        W28224  25.013  19.088   0.310
63240W        W28225   8.401  42.434  12.517
63241W        W28226  24.010   7.910  14.401
63242W        W28227  25.188  38.956   4.962
63243W        W28228  26.133  32.393   3.118
63244W        W28229  37.454  19.617   3.502
63245W        W28230  23.055  38.179   4.105
63246W        W28231  29.149  29.562   3.807
63247W        W28232   4.805  19.718  13.722
63248W        W28233   4.597  44.485  12.877
63249W        W28234  41.412   3.358   3.725
63250W        W28235  21.568  23.173   3.873
63251W        W28236  22.448  19.121   3.647
63252W        W28237   6.211  39.006   1.767
63253W        W28238  11.486  39.274   4.121
63254W        W28239  39.035  33.040   0.841
63255W        W28240   4.335  41.274  11.091
63256W        W28241  43.490  10.389   2.824
63257W        W28242  34.552  41.943   4.446
63258W        W28243  30.382   4.438   2.698
63259W        W28244  21.405  18.271   1.581
63260W        W28245  26.063   5.249  12.485
63261W        W28246  10.775  33.412   2.874
63262W        W28247   7.877  30.677  11.487
63263W        W28248  44.568  35.511  12.687
63264W        W28249  28.971  29.477   3.338
63265W        W28250  24.504  23.663  13.999
63266W        W28251  15.797   4.721  12.472
63267W        W28252   8.324  22.400  13.313
63268W        W28253   6.712  37.856  13.501
63269W        W28254   7.671  39.952  11.977
63270W        W28255  34.520  40.524   4.209
63271W        W28256  30.106  29.945   4.703
63272W        W28257  16.812  41.971   0.225
63273W        W28258  15.786   1.384  14.843
63274W        W28259  22.949  10.868  12.790
63275W        W28260  18.332  17.355  14.293
63276W        W28261   0.884   7.709  11.733
63277W        W28262   2.115   4.982  12.045
63278W        W28263  44.929  12.215  12.498
63279W        W28264  37.460  33.315   4.600
63280W        W28265  12.142  30.572  11.409
63281W        W28266  22.603  23.655   4.681
63282W        W28267   8.656  20.577  14.950
63283W        W28268  11.134  10.151  10.579
63284W        W28269  33.107  13.997  12.439
63285W        W28270  25.176  36.480   1.011
63286W        W28271  39.439   4.560   4.024
63287W        W28272   4.853  11.331   0.523
63288W        W28273  32.624  42.527   3.291
63289W        W28274   1.696  15.308  12.004
63290W        W28275  16.683  10.268  11.447
63291W        W28276  37.863   2.226  14.918
63292W        W28277  10.149  14.558  11.624
63293W        W28278  22.160  16.181   4.060
63294W        W28279  15.270   6.821   2.933
63295W        W28280  34.585  32.580   2.686
63296W        W28281  39.824  10.350   4.803
63297W        W28282   0.586  32.975  14.540
63298W        W28283  21.478  13.224  11.498
63299W        W28284  15.204  25.905  10.758
63300W        W28285  19.622  12.815  14.179
63301W        W28286  33.608  20.656   0.422
63302W        W28287  42.779  38.462   4.730
63303W        W28288  21.700   5.153   4.110
63304W        W28289  17.201   5.859  13.775
63305W        W28290   6.748  23.036   3.932
63306W        W28291  39.120  14.957   2.187
63307W        W28292  39.986  36.878   2.806
63308W        W28293  32.297   7.552   4.231
63309W        W28294  33.640  41.256  12.092
63310W        W28295  23.572  11.090  13.361
63311W        W28296  42.392  30.115   2.160
63312W        W28297  33.823  37.423   5.132
63313W        W28298  25.694  22.905  11.978
63314W        W28299  35.320  22.586  12.098
63315W        W28300  43.302  36.372  14.487
63316W        W28301  24.175   7.665   2.802
63317W        W28302   5.106  27.520  12.124
63318W        W28303  14.145  29.986   0.997
63319W        W28304  20.036   6.193   0.956
63320W        W28305  41.373  29.336  11.547
63321W        W28306  25.179  10.209   0.235
63322W        W28307  18.192  36.958   1.831
63323W        W28308  18.500  17.684   1.388
63324W        W28309  10.676  21.233   3.101
63325W        W28310  15.046  44.678   4.259
63326W        W28311  41.255   9.772  13.929
63327W        W28312  10.989  44.272   3.276
63328W        W28313  23.140  23.346   2.317
63329W        W28314   7.238  34.589  14.306
63330W        W28315  38.004  17.126  11.594
63331W        W28316  28.997  18.526  11.459
63332W        W28317  35.113  36.933   2.339
63333W        W28318  39.326  34.451   5.275
63334W        W28319  44.973  16.295   2.263
63335W        W28320  22.109  23.047  14.868
63336W        W28321  24.844   6.453   1.646
63337W        W28322  40.330  26.983  13.011
63338W        W28323   3.709  31.157   4.226
63339W        W28324  10.877   2.633   3.328
63340W        W28325  40.594  32.968   5.321
63341W        W28326  18.733  12.552  13.559
63342W        W28327   7.655  15.670   1.318
63343W        W28328  39.382  26.013  12.608
63344W        W28329  11.730   4.666   3.103
63345W        W28330  12.396  42.314  14.679
63346W        W28331  41.500  23.094  10.249
63347W        W28332  44.558   7.205   0.231
63348W        W28333  18.099  32.021   3.375
63349W        W28334  20.860  22.350  10.744
63350W        W28335  23.521  33.622  13.504
63351W        W28336  40.870  24.140  12.969
63352W        W28337  17.124  17.872   3.758
63353W        W28338   3.743   0.320  14.667
63354W        W28339   3.475  19.987  12.025
63355W        W28340   3.970  14.556   1.182
63356W        W28341  31.363  41.068  11.051
63357W        W28342  11.673  21.249  12.865
63358W        W28343  29.132  16.081  13.787
63359W        W28344   2.478  43.310   3.580
63360W        W28345  31.323   0.298  10.690
63361W        W28346  29.923  18.040  11.172
63362W        W28347  40.267   1.490  14.406
63363W        W28348  44.954   6.209  11.346
63364W        W28349   2.883  27.991   2.782
63365W        W28350  30.951  26.143   4.070
63366W        W28351  34.915  42.778   4.524
63367W        W28352   5.080  43.998  13.662
63368W        W28353  23.436  26.002   1.440
63369W        W28354  20.796  41.818   3.046
63370W        W28355  40.358  20.806  14.799
63371W        W28356  18.488   0.914   4.059
63372W        W28357  14.465  40.381  13.998
63373W        W28358  38.284   5.923   4.315
63374W        W28359  18.833   6.705  12.094
63375W        W28360  14.101   8.243   0.327
63376W        W28361  31.656   8.369  11.721
63377W        W28362  38.372  11.839  12.504
63378W        W28363   7.052   2.812   4.012
63379W        W28364  27.961  24.324  10.842
63380W        W28365   3.145  32.955  11.657
63381W        W28366  30.579  33.398  11.642
63382W        W28367  22.685   2.528  11.556
63383W        W28368  32.401  43.725   0.798
63384W        W28369  21.720   5.603   3.313
63385W        W28370  36.183  21.126  11.185
63386W        W28371  28.675  10.002   0.729
63387W        W28372  36.738   0.334   9.965
63388W        W28373  21.750  31.882  11.891
63389W        W28374  40.772   1.986   1.239
63390W        W28375   2.898  18.744   1.238
63391W        W28376  44.076  34.939   0.769
63392W        W28377   1.211  23.569   0.476
63393W        W28378  28.226   3.731  10.667
63394W        W28379  11.167  30.384   1.827
63395W        W28380  30.949  44.867   1.835
63396W        W28381   9.356   7.864   2.193
63397W        W28382  41.825  12.847  13.942
63398W        W28383  14.386   8.694  11.160
63399W        W28384  31.654  41.826   1.311
63400W        W28385  17.874   0.037  13.813
63401W        W28386  13.692  27.237   4.048
63402W        W28387  29.753  10.732   0.431
63403W        W28388   8.099  19.199   3.611
63404W        W28389  19.912  24.748   4.810
63405W        W28390  17.234  32.017  12.831
63406W        W28391  25.606  10.414   4.140
63407W        W28392   9.342  39.924  12.509
63408W        W28393  35.144  22.832  11.048
63409W        W28394  20.131  29.978   3.588
63410W        W28395  42.732   0.411  11.654
63411W        W28396  21.771  36.986  10.747
63412W        W28397  13.084   0.473  13.626
63413W        W28398  24.156  30.573   2.208
63414W        W28399   0.265   3.190  11.204
63415W        W28400  26.971  27.221  10.777
63416W        W28401  16.304  26.614  12.043
63417W        W28402  42.033   3.975   3.357
63418W        W28403  38.621  21.247   3.857
63419W        W28404  27.108  40.959   0.788
63420W        W28405  32.585  24.285  13.408
63421W        W28406  33.311  32.082  11.781
63422W        W28407  17.246   7.711   4.099
63423W        W28408   1.275  42.056  14.018
63424W        W28409  36.023   4.875  13.262
63425W        W28410  11.579  38.988   1.248
63426W        W28411  11.482  28.371   3.823
63427W        W28412   1.343  22.523   4.048
63428W        W28413  42.727  17.695  10.758
63429W        W28414  28.312  35.454  11.183
63430W        W28415   0.488  27.575  10.381
63431W        W28416   5.643   4.713  10.278
63432W        W28417  40.960  33.103   0.403
63433W        W28418  15.126  36.028   3.717
63434W        W28419  21.152  31.951   4.128
63435W        W28420  36.660  19.929   0.022
63436W        W28421   9.259   1.443  12.587
63437W        W28422   1.062  35.993  12.799
63438W        W28423  44.278   2.735   2.530
63439W        W28424  32.560  16.257   3.290
63440W        W28425  40.782  17.213   0.162
63441W        W28426   5.303  16.772  14.474
63442W        W28427  16.607  13.315  10.756
63443W        W28428  29.201  26.259  12.094
63444W        W28429  27.776  14.927   0.865
63445W        W28430   1.252  38.510  12.854
63446W        W28431   4.501   1.953  12.927
63447W        W28432  19.240  27.037   1.339
63448W        W28433  32.635   9.060   1.726
63449W        W28434  43.525  11.579   3.249
63450W        W28435  19.098  12.375  14.522
63451W        W28436  17.717  13.900   0.457
63452W        W28437  39.263  15.700  10.608
63453W        W28438  29.347  35.571  11.051
63454W        W28439   7.073  37.011  11.535
63455W        W28440  28.027  34.606  10.749
63456W        W28441  38.726  25.027  11.168
63457W        W28442  21.280  12.220   3.746
63458W        W28443  23.621  39.033   4.498
63459W        W28444  18.261   4.956  12.013
63460W        W28445  31.197  22.068  12.025
63461W        W28446  31.477  12.735   0.283
63462W        W28447  40.346  31.758   4.979
63463W        W28448   0.387  16.509  12.838
63464W        W28449   3.760  44.386   3.686
63465W        W28450   2.522   5.484  13.829
63466W        W28451  41.749   0.408  11.971
63467W        W28452  12.612   5.476  10.961
63468W        W28453   5.868  27.653  14.788
63469W        W28454  27.139   6.746  13.318
63470W        W28455  21.657   8.532   1.740
63471W        W28456  13.386   8.904   0.700
63472W        W28457  41.807  15.245  10.755
63473W        W28458  15.829  15.536   2.752
63474W        W28459   6.513  42.305   1.281
63475W        W28460  23.120  41.412  14.369
63476W        W28461  30.679  12.758  12.919
63477W        W28462  26.460  15.184  11.593
63478W        W28463   8.818  39.794  12.604
63479W        W28464  43.554  28.989  14.936
63480W        W28465  21.201  19.247   2.762
63481W        W28466   5.291  38.857   2.221
63482W        W28467  34.014   0.890   3.662
63483W        W28468  25.041  10.868  14.624
63484W        W28469   9.758  17.305   0.704
63485W        W28470  23.054   7.465   3.304
63486W        W28471   8.308  39.423   3.174
63487W        W28472  16.300  30.429  13.425
63488W        W28473   7.267  38.230   0.714
63489W        W28474  36.136  37.307  11.224
63490W        W28475  11.371  25.758   0.946
63491W        W28476  36.819  32.922  11.718
63492W        W28477  17.265  21.645  13.826
63493W        W28478  42.284  39.941  13.451
63494W        W28479  28.922  40.154   1.205
63495W        W28480  20.034  37.471  14.916
63496W        W28481   1.421  35.148   2.123
63497W        W28482  21.528   3.359  12.473
63498W        W28483  31.963  20.504  11.455
63499W        W28484   2.524   1.715   3.775
63500W        W28485  19.137  32.153  12.934
63501W        W28486  13.791   3.776  13.991
63502W        W28487  17.072   9.595  11.871
63503W        W28488   8.707  17.720   3.744
63504W        W28489  10.363  39.159  14.313
63505W        W28490   4.685  31.032  10.659
63506W        W28491   4.466  32.456   3.983
63507W        W28492   5.514  19.460   2.286
63508W        W28493  36.666  17.453  11.685
63509W        W28494   7.165  11.830   0.427
63510W        W28495  24.080  30.411   0.248
63511W        W28496   4.489  38.608   3.679
63512W        W28497  23.092   1.561   1.873
63513W        W28498  35.613  31.327  10.677
63514W        W28499   4.446  41.075   1.218
63515W        W28500  28.396  31.402   2.341
63516W        W28501  24.912  39.480  14.963
63517W        W28502   7.881  36.413   4.091
63518W        W28503  37.308  15.881   4.557
63519W        W28504  16.535  38.331   4.120
63520W        W28505  20.981  22.996   1.771
63521W        W28506  18.557  15.075  14.351
63522W        W28507  17.504  20.746   0.372
63523W        W28508   1.045  32.931  12.987
63524W        W28509  32.568  34.871   4.301
63525W        W28510  13.886  32.029  10.293
63526W        W28511  17.643  16.122   1.319
63527W        W28512   5.747  41.886  12.541
63528W        W28513  14.207  19.667   3.117
63529W        W28514  30.416  34.821   2.290
63530W        W28515   5.798  16.875   3.874
63531W        W28516  13.676   0.242  12.960
63532W        W28517  37.752  12.083  11.729
63533W        W28518  34.067   8.099   0.735
63534W        W28519  31.789  24.519   5.088
63535W        W28520   0.390  37.235   3.284
63536W        W28521  34.663  42.054   3.278
63537W        W28522  31.694   8.136   3.636
63538W        W28523  16.711   9.174  11.981
63539W        W28524  21.755  36.119  13.931
63540W        W28525  32.531  34.028  13.314
63541W        W28526   3.798   7.230  13.542
63542W        W28527  41.830  13.363  13.883
63543W        W28528  21.268   0.285  11.784
63544W        W28529  21.433  13.174   4.570
63545W        W28530  39.960   7.357   3.304
63546W        W28531  17.268  24.893  14.206
63547W        W28532  30.850  28.980  11.690
63548W        W28533   2.450   9.945   0.283
63549W        W28534   8.383  24.935   4.265
63550W        W28535   5.786  33.352   3.326
63551W        W28536  11.441  43.205  12.491
63552W        W28537  13.369  28.526  13.406
63553W        W28538   7.189  41.680  13.888
63554W        W28539   8.135  27.714   4.720
63555W        W28540  21.568  35.885  11.636
63556W        W28541  44.585  40.172   3.546
63557W        W28542  38.576  38.961  12.984
63558W        W28543  36.516  41.432   0.573
63559W        W28544   3.250  44.483   1.049
63560W        W28545   5.292   7.472  11.141
63561W        W28546  16.862   2.160   3.559
63562W        W28547  38.529  14.735  12.207
63563W        W28548  12.777   1.677   1.336
63564W        W28549  11.305  32.034  10.470
63565W        W28550  23.001  39.968   4.689
63566W        W28551  13.803  16.017   1.561
63567W        W28552  21.099   0.850   0.428
63568W        W28553   9.833   5.067   5.382
63569W        W28554  21.049  28.143   0.740
63570W        W28555   1.320  10.149  10.883
63571W        W28556  22.107  26.890  14.547
63572W        W28557  30.328   2.668   0.073
63573W        W28558  30.444  42.424   0.852
63574W        W28559  35.042  21.962   0.331
63575W        W28560   2.230  10.657  11.655
63576W        W28561  30.654  20.435  12.374
63577W        W28562  27.506  13.909  11.533
63578W        W28563  12.132   8.608   0.376
63579W        W28564  21.214   1.022   5.159
63580W        W28565  34.844  44.453   3.271
63581W        W28566  32.229  41.361   1.694
63582W        W28567   0.831  23.297   4.272
63583W        W28568  33.312  15.600   4.537
63584W        W28569  23.778  40.262   1.727
63585W        W28570  13.119  33.594   3.658
63586W        W28571  35.566  10.331  14.013
63587W        W28572   7.026  42.508   1.934
63588W        W28573  43.430  24.226  11.479
63589W        W28574   4.310  38.384   0.026
63590W        W28575  24.972  39.733  14.494
63591W        W28576   4.165  31.296  13.796
63592W        W28577  40.848   3.652   0.821
63593W        W28578  35.995   7.665  14.785
63594W        W28579  31.175  30.528   3.309
63595W        W28580  10.340  40.481   0.869
63596W        W28581  24.642  34.872  11.626
63597W        W28582  25.145  34.302   1.207
63598W        W28583  20.262   0.784  12.546
63599W        W28584  21.780  22.940   2.059
63600W        W28585  22.623  22.241   4.953
63601W        W28586  25.473  27.929  11.118
63602W        W28587  17.123  10.259  11.720
63603W        W28588  36.876  37.121   4.686
63604W        W28589  31.202  39.388  11.549
63605W        W28590   9.853   2.725   2.578
63606W        W28591  13.170   0.246   0.079
63607W        W28592   4.181  13.722  13.421
63608W        W28593  32.207  32.373  11.640
63609W        W28594  31.979  32.901  14.326
63610W        W28595  29.374  24.542  12.714
63611W        W28596  13.182  43.252  14.966
63612W        W28597  18.775  41.977   2.992
63613W        W28598  23.077  44.048  13.744
63614W        W28599  24.154   9.938  13.825
63615W        W28600  13.990   1.312  14.596
63616W        W28601  29.817   0.536  11.948
63617W        W28602  26.291   4.203  13.631
63618W        W28603   8.696  44.370   2.803
63619W        W28604   9.502  10.385   1.329
63620W        W28605   4.280  30.428  10.851
63621W        W28606  29.979  35.633  12.660
63622W        W28607  12.661  20.842   2.708
63623W        W28608  33.775   6.704  12.016
63624W        W28609  23.349   3.379   3.079
63625W        W28610  36.917   5.479  13.170
63626W        W28611  29.443   7.038  13.472
63627W        W28612   5.757  12.132  10.936
63628W        W28613  15.309  27.374  14.462
63629W        W28614   8.624   0.729   4.267
63630W        W28615   5.520  33.042  11.221
63631W        W28616  12.065  22.812   0.740
63632W        W28617  16.244  40.888  13.067
63633W        W28618  26.074  39.547  13.327
63634W        W28619   1.988  18.482   3.338
63635W        W28620  18.623  29.679  11.541
63636W        W28621  42.891  14.212   1.350
63637W        W28622  21.238  26.569   4.755
63638W        W28623  20.237  43.792  10.326
63639W        W28624  41.766  13.250  12.842
63640W        W28625  31.471  30.931   4.541
63641W        W28626  29.604  44.951  10.797
63642W        W28627  39.807  27.044  11.137
63643W        W28628   3.279  28.293  11.650
63644W        W28629  14.810  10.078  14.472
63645W        W28630  18.228  16.652   1.054
63646W        W28631  35.376  43.324   0.004
63647W        W28632  36.545  24.773  12.107
63648W        W28633  11.280  36.233  12.111
63649W        W28634  23.721   3.757   1.843
63650W        W28635   0.265  35.848  14.371
63651W        W28636  40.662  27.199  13.554
63652W        W28637  27.609  37.921  12.957
63653W        W28638  35.941   7.304  14.295
63654W        W28639  23.584  31.407  10.644
63655W        W28640  38.458  31.319   3.336
63656W        W28641  26.722   5.490  12.767
63657W        W28642  14.587  12.065  14.023
63658W        W28643   3.039  22.577  11.512
63659W        W28644  44.353   0.565  13.363
63660W        W28645  21.788  39.649  11.395
63661W        W28646  20.219  30.640  13.386
63662W        W28647  36.686  34.673   2.845
63663W        W28648   9.645  14.721   0.909
63664W        W28649   6.386  26.557  10.587
63665W        W28650  40.620  13.781   0.919
63666W        W28651   8.752   5.103  12.474
63667W        W28652  22.497   4.875  10.274
63668W        W28653  15.628   7.219  11.257
63669W        W28654  11.020   1.474   3.849
63670W        W28655  28.752   9.865  14.440
63671W        W28656  37.931   3.081   4.626
63672W        W28657   3.937   7.997  13.984
63673W        W28658  17.889  13.075   3.280
63674W        W28659  23.715   1.517  12.021
63675W        W28660  40.836  35.946   0.919
63676W        W28661  20.587  29.235   3.691
63677W        W28662   7.672  38.667   3.566
63678W        W28663  43.957  41.011  14.740
63679W        W28664  14.111  38.521  12.025
63680W        W28665   9.547  41.852  12.636
63681W        W28666   6.438  31.524  12.484
63682W        W28667  34.933  35.927   3.830
63683W        W28668  40.577  20.311  12.474
63684W        W28669   9.738  36.313  13.296
63685W        W28670   2.644  18.418   2.647
63686W        W28671  19.255  28.523  14.338
63687W        W28672  22.217   8.625   4.630
63688W        W28673  15.775  11.133  11.624
63689W        W28674   9.607   0.944  11.970
63690W        W28675  21.122   4.704  11.875
63691W        W28676  22.153  29.923  10.539
63692W        W28677   1.298  31.803  13.340
63693W        W28678   0.822  30.437   2.236
63694W        W28679  33.025  11.956   4.856
63695W        W28680  43.196  21.917   3.670
63696W        W28681  40.726  24.606   1.350
63697W        W28682   3.738  37.515   4.625
63698W        W28683   5.143  11.109   4.379
63699W        W28684  43.970  22.100   4.070
63700W        W28685   7.170  41.538   3.227
63701W        W28686  34.999  26.599   3.350
63702W        W28687   1.323   7.663  13.001
63703W        W28688  38.830  16.772   0.766
63704W        W28689   4.132  34.808  14.470
63705W        W28690   7.972  16.628  12.771
63706W        W28691  38.502  25.580  14.327
63707W        W28692   7.130  44.853   4.645
63708W        W28693  25.581  17.358   0.799
63709W        W28694  31.066  37.080   4.630
63710W        W28695  22.621  34.717   0.932
63711W        W28696  38.453  32.960  12.596
63712W        W28697  42.466  39.641   0.798
63713W        W28698  34.340  14.713  11.048
63714W        W28699  32.920  37.195   4.158
63715W        W28700   9.587  19.735  11.589
63716W        W28701  17.662  16.824   4.115
63717W        W28702  27.367  39.212   2.836
63718W        W28703  21.603  18.114  13.395
63719W        W28704  30.670  25.687  11.173
63720W        W28705   6.014  13.663  14.738
63721W        W28706   4.614  24.018   1.868
63722W        W28707  41.919   2.131  13.008
63723W        W28708  34.773   3.263   0.776
63724W        W28709  25.877  26.645   2.236
63725W        W28710  43.775  31.501   1.270
63726W        W28711   5.319  38.176  12.397
63727W        W28712  26.112   9.179  10.724
63728W        W28713  25.919  29.410  12.818
63729W        W28714  12.377   3.863  11.284
63730W        W28715  22.136  43.718  13.868
63731W        W28716  15.207  44.208   1.299
63732W        W28717  14.678  33.871  11.140
63733W        W28718  39.007  10.330  10.698
63734W        W28719  11.292  40.632   2.845
63735W        W28720  10.206   5.503   5.186
63736W        W28721  24.152   9.303   0.404
63737W        W28722   3.858  32.690   4.034
63738W        W28723  41.442  28.887  11.787
63739W        W28724  35.379  29.230   1.416
63740W        W28725  38.035  13.780  12.230
63741W        W28726  20.180  26.666  10.131
63742W        W28727  21.211  39.955   1.404
63743W        W28728  21.809  11.484  12.851
63744W        W28729  22.932  23.108   1.729
63745W        W28730  16.088  22.630  11.961
63746W        W28731   4.792  32.748   2.487
63747W        W28732  19.652  12.273  12.384
63748W        W28733  35.510  10.745   1.896
63749W        W28734  29.609  35.330  14.828
63750W        W28735   6.429  24.185  12.890
63751W        W28736  13.439  28.158  14.968
63752W        W28737   1.452   5.638  14.353
63753W        W28738  40.327  39.283  11.539
63754W        W28739  32.279  26.613   1.535
63755W        W28740   6.437   0.326   2.841
63756W        W28741  13.271  26.282   4.929
63757W        W28742  40.633  31.410   0.560
63758W        W28743  38.328  14.122  13.895
63759W        W28744  17.984  34.977   0.058
63760W        W28745  13.255  14.989   3.756
63761W        W28746  10.206  11.988   4.560
63762W        W28747   0.166  17.120   2.130
63763W        W28748  29.639  30.592  11.459
63764W        W28749  24.725  19.771  11.395
63765W        W28750  40.606   5.780  11.674
63766W        W28751  35.028  24.309   0.348
63767W        W28752  11.787  26.988  13.920
63768W        W28753  30.973   6.131  13.308
63769W        W28754  44.435   8.200   0.168
63770W        W28755  28.151  10.881   1.977
63771W        W28756  35.159  37.938   2.807
63772W        W28757   2.794  35.967  10.599
63773W        W28758  30.838  16.564  13.844
63774W        W28759  34.459  39.945   3.183
63775W        W28760  32.856   9.926  13.774
63776W        W28761   0.430  12.785   0.313
63777W        W28762  33.198  41.547   4.852
63778W        W28763  24.431  33.159   0.224
63779W        W28764  41.541   6.849   1.744
63780W        W28765  34.564  41.498   4.140
63781W        W28766   0.531  35.120  11.587
63782W        W28767  14.512  40.883  11.519
63783W        W28768   9.181  15.616  14.464
63784W        W28769   9.408  36.856   2.704
63785W        W28770   8.450   1.099  11.049
63786W        W28771  13.458  17.320   2.227
63787W        W28772  34.836   9.394   0.159
63788W        W28773  26.550  16.857  11.940
63789W        W28774  32.446   9.409  13.202
63790W        W28775  29.578  13.522  13.994
63791W        W28776   9.676  39.309   2.730
63792W        W28777  14.852  22.336   1.168
63793W        W28778  37.732  17.129  10.753
63794W        W28779   5.850  24.983   4.434
63795W        W28780  21.997  30.903   0.863
63796W        W28781  43.291   7.461  11.101
63797W        W28782  30.497  17.996   1.038
63798W        W28783  13.838  38.979  12.052
63799W        W28784  19.767  41.652   0.236
63800W        W28785   8.102  38.229  13.400
63801W        W28786   1.815  33.643  12.354
63802W        W28787   8.319  43.461   3.155
63803W        W28788   2.476  23.412  14.515
63804W        W28789   3.244  30.070  11.070
63805W        W28790   5.295  44.695  13.164
63806W        W28791   9.752   4.812  10.105
63807W        W28792  20.734  23.522   1.843
63808W        W28793   3.722  40.437   3.626
63809W        W28794  36.968   7.878   3.611
63810W        W28795   8.287  19.537   0.796
63811W        W28796  23.980  10.769   4.159
63812W        W28797  28.431   0.539   3.319
63813W        W28798   1.975  39.392  11.596
63814W        W28799   1.202  17.053   3.027
63815W        W28800   8.029  37.084  14.344
63816W        W28801   5.391  29.950  10.645
63817W        W28802   6.337  27.358  12.111
63818W        W28803  25.287  39.770  12.678
63819W        W28804  42.010   1.679   4.334
63820W        W28805   5.474  38.317  14.364
63821W        W28806  26.453   0.647  14.913
63822W        W28807   2.694  36.450   2.148
63823W        W28808  37.072   9.840   3.223
63824W        W28809  28.224  29.132   1.929
63825W        W28810  22.614   2.118  13.829
63826W        W28811  12.104  40.572   1.926
63827W        W28812  14.032  11.668  13.407
63828W        W28813  16.817  31.257   2.245
63829W        W28814  10.237  23.258   5.213
63830W        W28815  29.817   2.149  11.090
63831W        W28816  41.349  20.511  11.989
63832W        W28817   6.617  44.228  14.316
63833W        W28818  33.594   8.935   0.713
63834W        W28819  18.122  40.819  11.234
63835W        W28820  18.852  31.613  10.766
63836W        W28821  40.651  34.905   3.202
63837W        W28822  12.647  40.504  14.767
63838W        W28823  22.453  38.799  12.323
63839W        W28824  32.992  30.422  13.913
63840W        W28825  11.933   3.485  13.314
63841W        W28826  14.785   8.257   4.117
63842W        W28827  25.697   3.530   2.513
63843W        W28828  34.030  14.145   1.132
63844W        W28829  32.979  27.580  11.673
63845W        W28830  20.590  24.337  12.516
63846W        W28831  11.383  37.505  13.873
63847W        W28832  16.744  36.472  10.688
63848W        W28833  10.427  23.740  11.223
63849W        W28834  12.596  15.041  11.534
63850W        W28835  36.498  43.481  13.339
63851W        W28836  14.886   8.601   0.257
63852W        W28837  34.545  40.574   3.692
63853W        W28838  22.086   0.768   2.451
63854W        W28839   2.366   6.508  12.467
63855W        W28840  41.902  21.810  11.897
63856W        W28841   0.016  37.323   9.732
63857W        W28842   1.024  26.514  10.518
63858W        W28843  16.091  44.856   1.188
63859W        W28844  31.962  10.586   0.085
63860W        W28845  18.789  12.794  14.936
63861W        W28846  38.443  35.446  11.631
63862W        W28847   3.754  23.107   4.054
63863W        W28848  35.789  17.318   4.726
63864W        W28849   2.952  21.740  14.758
63865W        W28850  20.922   6.438  14.863
63866W        W28851  23.145  38.631  12.887
63867W        W28852   3.257   1.239   4.167
63868W        W28853  11.908  36.595   1.364
63869W        W28854  37.800  23.278   2.654
63870W        W28855  27.010  20.681   0.905
63871W        W28856  42.678  14.303  11.853
63872W        W28857  33.385  20.546  14.835
63873W        W28858  19.754  24.565   1.884
63874W        W28859  11.407   8.652   4.890
63875W        W28860  24.757  37.922   2.237
63876W        W28861  35.371  21.131  11.621
63877W        W28862   1.178  25.483   0.680
63878W        W28863   8.757  10.936   0.848
63879W        W28864   5.348  19.611   1.805
63880W        W28865  39.606  14.831   1.033
63881W        W28866  13.880  25.358  13.630
63882W        W28867   8.629  36.568   4.681
63883W        W28868   6.629  25.166   2.677
63884W        W28869  28.389  42.001  12.362
63885W        W28870  12.238  32.072  13.116
63886W        W28871  28.543  37.739   2.276
63887W        W28872   4.215  32.635  13.929
63888W        W28873  44.164   8.150  14.693
63889W        W28874   4.829  37.098   2.534
63890W        W28875  10.722  41.001  11.508
63891W        W28876  11.697  21.102   4.578
63892W        W28877  10.005  14.276   5.089
63893W        W28878   9.622  44.066   2.295
63894W        W28879  34.996  42.883   3.203
63895W        W28880   0.101  38.054  10.235
63896W        W28881  22.749   3.944   0.722
63897W        W28882  20.167  24.539  13.532
63898W        W28883  34.787  42.626  11.173
63899W        W28884  20.459   6.646  14.554
63900W        W28885  30.651  17.687  12.488
63901W        W28886  19.418  26.676  11.467
63902W        W28887  35.512   1.960   0.879
63903W        W28888  16.237  13.830  12.036
63904W        W28889  31.567  43.365   3.733
63905W        W28890  29.895  16.797   0.396
63906W        W28891   0.025  11.299  13.046
63907W        W28892  29.924  14.269  14.441
63908W        W28893  38.495  20.250  12.848
63909W        W28894  14.368  41.920   3.691
63910W        W28895  24.074   7.915  12.895
63911W        W28896   4.846  25.770   1.077
63912W        W28897   7.730  29.407   0.343
63913W        W28898  14.825  15.968   4.917
63914W        W28899  37.250  17.837  12.877
63915W        W28900  29.111  42.646  12.192
63916W        W28901  13.114  43.477   1.682
63917W        W28902  43.436  31.486   0.110
63918W        W28903   4.442  22.727  12.249
63919W        W28904  43.291   5.704  11.561
63920W        W28905  22.949   9.305  12.615
63921W        W28906  10.492  33.245  11.971
63922W        W28907  20.079   7.288   4.564
63923W        W28908  11.235   6.399   2.605
63924W        W28909  11.929  22.015  13.892
63925W        W28910  36.351   2.196  11.329
63926W        W28911  19.763  28.224   1.272
63927W        W28912  44.232   1.864   1.242
63928W        W28913  37.850  31.818  14.387
63929W        W28914  13.832  15.268   4.529
63930W        W28915   1.595  31.942  11.890
63931W        W28916  34.888  26.992  10.658
63932W        W28917  28.509  40.815   1.187
63933W        W28918   5.791  42.487   0.642
63934W        W28919  32.929  30.712  11.342
63935W        W28920  31.990  11.646  13.328
63936W        W28921  29.895  22.781  12.940
63937W        W28922  12.723  32.206   2.212
63938W        W28923  31.445   8.665   4.141
63939W        W28924   6.820  25.571  11.092
63940W        W28925  17.553   2.658  13.510
63941W        W28926  31.152  12.029  13.569
63942W        W28927  15.585  29.631  13.801
63943W        W28928  24.403   2.742   3.728
63944W        W28929  20.967  33.527  13.474
63945W        W28930  15.363   7.911   2.681
63946W        W28931  33.902  19.174   1.356
63947W        W28932  35.325  26.086  11.569
63948W        W28933  20.467  11.846   3.675
63949W        W28934   4.916  44.875   2.583
63950W        W28935  15.383  40.345   4.712
63951W        W28936  18.368   9.672  14.450
63952W        W28937  33.190   9.206  13.400
63953W        W28938  30.460  35.694   3.679
63954W        W28939   6.337  10.315   3.692
63955W        W28940  31.523  40.736   2.670
63956W        W28941  24.892  23.393  14.803
63957W        W28942  18.227   1.818   2.325
63958W        W28943  29.486  44.198  11.116
63959W        W28944   3.233  22.711   4.491
63960W        W28945   8.718   2.127   1.398
63961W        W28946   0.593  21.459  13.517
63962W        W28947  30.366  32.046  14.325
63963W        W28948  19.240   9.594  12.933
63964W        W28949  37.584  31.401  11.947
63965W        W28950  38.752  15.826   2.236
63966W        W28951   4.142  20.236   3.124
63967W        W28952  42.326   7.714  14.378
63968W        W28953  24.064  39.382   4.648
63969W        W28954  44.754  14.093  11.155
63970W        W28955  12.602  18.173  11.054
63971W        W28956  14.925  44.366   0.149
63972W        W28957  44.428  35.675   0.486
63973W        W28958   9.771  35.384   2.337
63974W        W28959  34.109  33.482  11.273
63975W        W28960  11.343  12.583   0.462
63976W        W28961   5.933  29.714   3.267
63977W        W28962  13.894  31.569   4.152
63978W        W28963   3.214  16.404   0.016
63979W        W28964  33.784  22.183  13.368
63980W        W28965  19.804  19.646  13.455
63981W        W28966  43.911  44.596   1.176
63982W        W28967  23.169  31.557  12.859
63983W        W28968  30.582  14.405   4.236
63984W        W28969   3.980   1.149   1.457
63985W        W28970   5.956  15.557  11.486
63986W        W28971   1.997  44.199   2.699
63987W        W28972  10.310  33.389  11.478
63988W        W28973  31.659  22.288  11.003
63989W        W28974  43.387  34.864  10.972
63990W        W28975  33.089  44.034   3.568
63991W        W28976   9.072  37.018  13.391
63992W        W28977   4.814  17.618  11.195
63993W        W28978  36.555  43.834   1.025
63994W        W28979  26.142  38.333   3.812
63995W        W28980  37.097  38.502  14.418
63996W        W28981  32.575   2.035  12.400
63997W        W28982   3.954  29.974  12.991
63998W        W28983  20.989   6.915   3.849
63999W        W28984  14.838   5.102  14.273
64000W        W28985   7.748  19.234  10.767
64001W        W28986   3.918   3.294   1.760
64002W        W28987  44.847  16.735  12.129
64003W        W28988  33.167  36.326   2.779
64004W        W28989  44.493  38.064   4.305
64005W        W28990   9.939  16.166  11.612
64006W        W28991   0.518   0.036   1.496
64007W        W28992  19.522  38.346  13.587
64008W        W28993  38.447   0.789   1.372
64009W        W28994  36.384  15.114  13.755
64010W        W28995   0.414  23.804   0.954
64011W        W28996  36.295  26.480   3.872
64012W        W28997  14.796  18.795   2.215
64013W        W28998  18.066  19.182   0.910
64014W        W28999  16.182  21.795   4.205
64015W        W29000  23.801  19.802  12.090
64016W        W29001  29.573   7.860  14.032
64017W        W29002  17.669  36.867   1.149
64018W        W29003  20.509   8.422   4.187
64019W        W29004  18.243   5.833   0.890
64020W        W29005  26.529  44.973  11.882
64021W        W29006  38.284   0.399  14.866
64022W        W29007  31.023  30.058   0.914
64023W        W29008  40.330  29.604   3.833
64024W        W29009   7.642  42.858   0.933
64025W        W29010  26.402  43.194  11.901
64026W        W29011  32.487  17.647  12.887
64027W        W29012  25.440  16.915   1.636
64028W        W29013  11.457  30.910   0.403
64029W        W29014  28.901  12.369  13.528
64030W        W29015   9.094  32.638   2.367
64031W        W29016  30.590  27.695  11.324
64032W        W29017   8.097  10.858  13.252
64033W        W29018   4.778   9.134  14.952
64034W        W29019  23.991   5.323   4.677
64035W        W29020   2.008   3.697  11.115
64036W        W29021  15.978  15.585   0.972
64037W        W29022  14.634  20.326   1.342
64038W        W29023  43.395   5.212  12.465
64039W        W29024  39.308   7.994   0.476
64040W        W29025  44.035  40.755   1.701
64041W        W29026   3.264   7.035   2.883
64042W        W29027   0.139  43.512  12.071
64043W        W29028  18.404  20.796  14.849
64044W        W29029  21.536  35.324  11.339
64045W        W29030  29.165   5.181   0.890
64046W        W29031  17.601  32.856  12.568
64047W        W29032   0.967   1.280  12.414
64048W        W29033  39.860   3.654  14.782
64049W        W29034  32.078  19.272  13.478
64050W        W29035  14.152  19.882   2.625
64051W        W29036   1.426  21.488  13.024
64052W        W29037   6.320  36.213   2.853
64053W        W29038  14.769   0.769   2.759
64054W        W29039  38.798   5.911  11.494
64055W        W29040  28.230  32.565  13.926
64056W        W29041  19.382   3.420  14.804
64057W        W29042  40.107  11.838  12.905
64058W        W29043  21.953  24.632  14.999
64059W        W29044  29.147  44.691  14.011
64060W        W29045   2.670  12.694   2.309
64061W        W29046  13.266  25.173   1.188
64062W        W29047  16.377   9.294   0.840
64063W        W29048  41.298  15.183  10.751
64064W        W29049  36.469  31.313   4.122
64065W        W29050  25.707   2.791  12.068
64066W        W29051  33.758  24.548  11.021
64067W        W29052  29.689  14.038   0.354
64068W        W29053  28.862  14.119   4.336
64069W        W29054   0.825  10.910   0.875
64070W        W29055  24.239  17.911   3.677
64071W        W29056  44.525  27.845   5.551
64072W        W29057   4.781  44.261  11.421
64073W        W29058  36.024   4.953  10.630
64074W        W29059  17.032   4.301   4.106
64075W        W29060  17.232  18.986   0.757
64076W        W29061  16.055  14.862   1.704
64077W        W29062  40.900   1.272   4.840
64078W        W29063  30.790  24.471  11.188
64079W        W29064  34.046  44.237   2.837
64080W        W29065   5.441  26.413   2.592
64081W        W29066  10.237  16.847  13.549
64082W        W29067  27.027  37.511   3.079
64083W        W29068  11.595  27.943   2.177
64084W        W29069  22.208   7.428  14.424
64085W        W29070   1.772  24.092  13.230
64086W        W29071  17.277  35.601   0.522
64087W        W29072   1.586  43.060   1.337
64088W        W29073  35.938   3.336   0.277
64089W        W29074   8.097  27.529  10.661
64090W        W29075  25.386  20.547  13.464
64091W        W29076  15.294   0.010   4.588
64092W        W29077  44.323   7.406  11.323
64093W        W29078  34.463  23.300   1.813
64094W        W29079  44.074  35.177  12.573
64095W        W29080  35.098  41.332  11.575
64096W        W29081  31.140  22.449   3.651
64097W        W29082  44.467  26.460   2.779
64098W        W29083  40.835  42.513  13.798
64099W        W29084   9.186  37.328  14.927
64100W        W29085  40.295  23.598   5.411
64101W        W29086   2.392  35.406  12.828
64102W        W29087  30.585  11.289  13.043
64103W        W29088  44.383  42.044   2.177
64104W        W29089   3.906  23.548   2.177
64105W        W29090  30.518  30.877   0.924
64106W        W29091  11.119   6.658   4.663
64107W        W29092  33.498  27.850   3.602
64108W        W29093  19.283  15.662  10.931
64109W        W29094  40.514  25.416  11.280
64110W        W29095  23.944  23.202   0.682
64111W        W29096  34.084  10.532  14.777
64112W        W29097  25.558  15.283   3.775
64113W        W29098  30.887  14.677  14.500
64114W        W29099   1.358   9.805   2.140
64115W        W29100  40.446   4.033   0.112
64116W        W29101  24.965  10.792   4.322
64117W        W29102  41.024   5.963  11.406
64118W        W29103  24.738   2.813   1.722
64119W        W29104   4.801  15.587  13.918
64120W        W29105  18.847  24.645   3.199
64121W        W29106  14.416   8.219   1.031
64122W        W29107  29.250  29.295   0.541
64123W        W29108  18.791  44.281  14.628
64124W        W29109  42.956  25.226   1.201
64125W        W29110  11.257  19.495   2.656
64126W        W29111  15.626  19.801   1.404
64127W        W29112  25.776   9.818  12.712
64128W        W29113  29.578  18.760   2.406
64129W        W29114   6.292   2.596   2.377
64130W        W29115   8.383  20.122   1.675
64131W        W29116  26.508  36.485   2.875
64132W        W29117   4.722  21.171  14.461
64133W        W29118  19.913  44.895   3.687
64134W        W29119  31.112   3.955  14.447
64135W        W29120   2.211  28.391   3.198
64136W        W29121  32.456  42.527  14.066
64137W        W29122  44.003  27.976   2.485
64138W        W29123  37.526  23.974   1.702
64139W        W29124  20.127  44.120  11.818
64140W        W29125  15.931  37.697   1.844
64141W        W29126  29.517  36.547  14.049
64142W        W29127  11.253  25.527  14.059
64143W        W29128   0.219  30.437   3.351
64144W        W29129  41.736  26.288   1.828
64145W        W29130  32.948  28.048   0.806
64146W        W29131  13.161  43.505  11.387
64147W        W29132  31.227  14.710  10.435
64148W        W29133  41.945  24.275   5.411
64149W        W29134  12.393  41.743   3.620
64150W        W29135  22.979   7.907  14.272
64151W        W29136  33.560  30.768   2.244
64152W        W29137  36.115  18.660  13.733
64153W        W29138  43.520  15.220  13.043
64154W        W29139  22.500  19.046   2.174
64155W        W29140  37.441  20.133   2.684
64156W        W29141  43.383  21.146   0.838
64157W        W29142  19.842  11.319  12.001
64158W        W29143   8.678  16.637   3.159
64159W        W29144  11.923  21.076   0.818
64160W        W29145   5.699  42.661   3.962
64161W        W29146  27.465  44.306   4.538
64162W        W29147  39.798  21.747   2.762
64163W        W29148  38.461   4.681   3.154
64164W        W29149  33.358  36.488  14.298
64165W        W29150   6.419  13.880  11.172
64166W        W29151  41.348  30.858   2.747
64167W        W29152  37.922   5.169   0.468
64168W        W29153  15.878  40.948  12.690
64169W        W29154  21.660  27.710  11.782
64170W        W29155  29.575  40.076  10.771
64171W        W29156  14.303  11.755   3.294
64172W        W29157   8.168  32.927   2.146
64173W        W29158  41.957  16.538   2.914
64174W        W29159  32.011   6.170  10.724
64175W        W29160  30.385  33.752  12.006
64176W        W29161  10.357   1.707   3.345
64177W        W29162  26.609  26.820  10.704
64178W        W29163  44.923  24.494  10.084
64179W        W29164  42.167   9.252   4.927
64180W        W29165  37.759   5.006   2.311
64181W        W29166  42.727  13.781   4.281
64182W        W29167  26.212   7.276   0.659
64183W        W29168  15.245  11.784   1.346
64184W        W29169  37.546  25.984   3.730
64185W        W29170  37.018  14.173   1.616
64186W        W29171  37.510  31.440  14.512
64187W        W29172  13.924  11.135  13.381
64188W        W29173   9.485  35.539  13.939
64189W        W29174  12.809  22.974   2.497
64190W        W29175  25.337  41.042  14.559
64191W        W29176   1.445  43.508  11.135
64192W        W29177  28.100  18.973   4.058
64193W        W29178  21.583  20.577  13.118
64194W        W29179  24.547  10.300   5.149
64195W        W29180  14.604  35.495   0.355
64196W        W29181   9.856  27.092  10.933
64197W        W29182  37.560  14.085  11.490
64198W        W29183  19.998  20.245  13.462
64199W        W29184  29.782  33.466  14.454
64200W        W29185   4.851  18.752  13.833
64201W        W29186  20.194  31.096  14.949
64202W        W29187  24.473   0.719   3.706
64203W        W29188  44.874  33.314  10.626
64204W        W29189  34.691  31.580  10.733
64205W        W29190  36.481  31.622   1.309
64206W        W29191  30.569  22.786  11.172
64207W        W29192  17.859  25.140  11.678
64208W        W29193  20.268  40.888   3.925
64209W        W29194  18.590  22.207   1.372
64210W        W29195   6.935  21.115   0.278
64211W        W29196  20.131  12.428   0.450
64212W        W29197  26.289  10.312   1.739
64213W        W29198  37.520  22.367   4.663
64214W        W29199  23.700  11.701  10.763
64215W        W29200  32.995   5.161   2.652
64216W        W29201  32.858  32.514  10.893
64217W        W29202   6.799  44.279  12.620
64218W        W29203  26.731   1.972   3.484
64219W        W29204  37.413   7.039   4.820
64220W        W29205  21.120  32.710   0.467
64221W        W29206  40.824   4.363  14.566
64222W        W29207  36.872  16.741   3.156
64223W        W29208   5.698  27.629   2.513
64224W        W29209   2.275  21.510   4.078
64225W        W29210  32.539  18.334   0.450
64226W        W29211  23.097  30.995  13.506
64227W        W29212  33.154   4.977   3.156
64228W        W29213  18.612   6.002   0.235
64229W        W29214   8.605  16.055   0.559
64230W        W29215  42.523  27.593  11.194
64231W        W29216  35.848  11.158   2.439
64232W        W29217  40.068  28.274  11.125
64233W        W29218  23.214   3.761   1.791
64234W        W29219  25.516  25.891  11.191
64235W        W29220  24.746  35.358  12.509
64236W        W29221   8.769  31.674   0.348
64237W        W29222   3.404  25.039  11.323
64238W        W29223  44.701  22.589   1.567
64239W        W29224  31.500   2.278   4.525
64240W        W29225  16.052  29.595   0.045
64241W        W29226  21.210  36.545  11.437
64242W        W29227  18.796  41.114  13.805
64243W        W29228   3.512  31.080  13.525
64244W        W29229  26.636   0.583  11.210
64245W        W29230  44.854  15.393   2.781
64246W        W29231  21.573   7.101   1.277
64247W        W29232  37.565  12.125   2.399
64248W        W29233  43.475  24.044  12.919
64249W        W29234  40.519   0.016  11.680
64250W        W29235  30.177   6.298  11.927
64251W        W29236  31.435   9.913   3.287
64252W        W29237   9.809  44.505  14.948
64253W        W29238   5.023   3.113   4.950
64254W        W29239  13.167  29.632   0.872
64255W        W29240  36.526  22.263  12.139
64256W        W29241   1.328  43.015   0.879
64257W        W29242  36.541  17.441  12.233
64258W        W29243   8.348  40.498   4.768
64259W        W29244  18.711  39.802   0.352
64260W        W29245  11.428   6.150  14.407
64261W        W29246  37.080  41.664  12.937
64262W        W29247   3.340   3.656   1.937
64263W        W29248  39.365  44.947   1.802
64264W        W29249  12.807  10.091   4.143
64265W        W29250   5.441  11.983   4.202
64266W        W29251  43.751  40.478   1.338
64267W        W29252  36.371  23.411  14.695
64268W        W29253  16.350  39.287  13.404
64269W        W29254  12.402  17.648   3.645
64270W        W29255  43.851  19.087  13.333
64271W        W29256  16.597   3.281  12.149
64272W        W29257  30.149  40.383   0.768
64273W        W29258  29.527  21.293   4.049
64274W        W29259  43.365  41.244  13.102
64275W        W29260  15.221  32.989   0.647
64276W        W29261   8.535  14.628  12.117
64277W        W29262   2.840  14.790  13.775
64278W        W29263  30.639  43.090  13.336
64279W        W29264   3.086  20.524  14.468
64280W        W29265  35.368  17.566  11.147
64281W        W29266  32.181  23.086   2.223
64282W        W29267  37.647  18.357   3.958
64283W        W29268  14.587  13.257   2.627
64284W        W29269  24.136  36.845   1.272
64285W        W29270  44.775  43.554   4.358
64286W        W29271   4.853   4.793   3.528
64287W        W29272  40.473  37.592   1.336
64288W        W29273  44.436  21.199  14.808
64289W        W29274  11.110   0.954   4.005
64290W        W29275  16.391  30.251  11.395
64291W        W29276  18.004  14.025  11.709
64292W        W29277   1.774  40.022   0.548
64293W        W29278  18.237  43.993  11.562
64294W        W29279  44.931  23.382   3.260
64295W        W29280  13.627   1.877  12.658
64296W        W29281  37.110  15.906   1.382
64297W        W29282   8.181  35.214  14.232
64298W        W29283  11.778  27.878   0.916
64299W        W29284  16.327  32.041   2.846
64300W        W29285  43.359  35.861  10.012
64301W        W29286  29.634  14.649   1.294
64302W        W29287   6.860  38.410   0.173
64303W        W29288  44.879  26.737  11.166
64304W        W29289  43.219   6.516   0.981
64305W        W29290   5.314   1.504  14.284
64306W        W29291   0.503  10.768  12.008
64307W        W29292   1.654  29.861  11.648
64308W        W29293   0.321  30.565   2.360
64309W        W29294   2.003   1.785   3.650
64310W        W29295  16.576  14.087   4.989
64311W        W29296  36.424  44.580   4.667
64312W        W29297  11.152  22.144   3.155
64313W        W29298  31.943  42.258  12.704
64314W        W29299  12.177  38.664   1.828
64315W        W29300  43.627  14.801  14.741
64316W        W29301  40.564   5.242   1.771
64317W        W29302  40.027  14.088  11.161
64318W        W29303  40.235  31.874  14.454
64319W        W29304  22.370  40.535   0.548
64320W        W29305  42.503  28.046  12.920
64321W        W29306  44.953  39.580  11.124
64322W        W29307   3.420   7.657  12.752
64323W        W29308  12.810   6.049   3.251
64324W        W29309  16.098  10.843   1.722
64325W        W29310  16.146  19.510  13.869
64326W        W29311  18.273  36.953  11.926
64327W        W29312  14.664  23.085   2.114
64328W        W29313   4.975  44.187   0.450
64329W        W29314  38.940  14.740  11.285
64330W        W29315   1.710  36.490   2.269
64331W        W29316   6.337  15.041   0.355
64332W        W29317  17.485   5.796   2.670
64333W        W29318   1.183  21.627   2.151
64334W        W29319  31.403  37.982  11.555
64335W        W29320  32.825  36.348  13.991
64336W        W29321  42.326   8.870   1.577
64337W        W29322  23.484  16.861  14.019
64338W        W29323   3.692  35.892   4.595
64339W        W29324   4.123  43.570  12.023
64340W        W29325   1.886   2.326  11.823
64341W        W29326  10.445   5.339   2.757
64342W        W29327  44.842  37.384  12.812
64343W        W29328  39.585   2.365  10.990
64344W        W29329  15.805   2.322   4.622
64345W        W29330  29.572  29.435   3.572
64346W        W29331  28.311  44.038  13.415
64347W        W29332  26.428  17.054  13.159
64348W        W29333  33.883  23.544  10.620
64349W        W29334  33.009  29.615  14.983
64350W        W29335  13.816  43.682  14.566
64351W        W29336  44.257  31.563   2.157
64352W        W29337  41.763  42.245  10.281
64353W        W29338  38.844  41.831   4.177
64354W        W29339   3.706  29.143   3.303
64355W        W29340  33.723  11.716   2.489
64356W        W29341  29.476  22.116  11.888
64357W        W29342  26.126  11.888  13.262
64358W        W29343   3.990  38.821   3.598
64359W        W29344  24.107  30.441  14.748
64360W        W29345  34.148  18.644  11.968
64361W        W29346  19.506  39.707  11.554
64362W        W29347   6.203  25.176  12.581
64363W        W29348  30.941  40.777   4.143
64364W        W29349  43.058   9.127  12.055
64365W        W29350   5.386  12.401  13.436
64366W        W29351  39.375  37.502  12.436
64367W        W29352  27.007  11.153   0.322
64368W        W29353  41.613   9.123  10.657
64369W        W29354   1.852  35.490  10.760
64370W        W29355  19.677  41.525   4.210
64371W        W29356  44.096  13.926   0.849
64372W        W29357   2.095   2.962   1.450
64373W        W29358  14.310  18.290  13.811
64374W        W29359   2.218  40.242   0.355
64375W        W29360  33.488  39.431  12.169
64376W        W29361  21.748  24.207   4.134
64377W        W29362  18.595  31.915  12.796
64378W        W29363  19.271  14.212  13.503
64379W        W29364  15.587  36.970  14.482
64380W        W29365  18.285  39.364  14.142
64381W        W29366  20.055  38.620   1.960
64382W        W29367  21.990  34.038   4.612
64383W        W29368  32.161  43.799   4.525
64384W        W29369  34.784  38.162   4.112
64385W        W29370  38.607  18.591   0.781
64386W        W29371  39.453  11.007   1.875
64387W        W29372   8.790  37.438  13.332
64388W        W29373  22.653  41.950  10.664
64389W        W29374  30.410  22.625   4.739
64390W        W29375  14.677   2.937  12.883
64391W        W29376  37.618  20.896   1.735
64392W        W29377  29.135  34.139  14.347
64393W        W29378  43.622  26.117   1.320
64394W        W29379  39.291   8.401   3.692
64395W        W29380  16.295   2.391  13.720
64396W        W29381   6.634  18.297  13.940
64397W        W29382  27.645  43.962  12.423
64398W        W29383  11.187  34.006   1.164
64399W        W29384  19.667  12.898   3.537
64400W        W29385  17.051  13.552   0.966
64401W        W29386  37.925  26.805  12.813
64402W        W29387  31.118  39.723  12.668
64403W        W29388  26.089   8.428   4.838
64404W        W29389  14.532   5.716  14.828
64405W        W29390  32.090   3.735  12.345
64406W        W29391  35.834  40.476  13.532
64407W        W29392  23.896  33.310   4.133
64408W        W29393  44.594  29.944  14.766
64409W        W29394  41.044  19.930   3.915
64410W        W29395  41.342  15.891   0.398
64411W        W29396  43.414  25.669  11.986
64412W        W29397  37.106  27.306   3.890
64413W        W29398   7.606  27.226   3.112
64414W        W29399  34.082  24.598   1.319
64415W        W29400  25.550   7.125  11.551
64416W        W29401   0.962  10.170   1.433
64417W        W29402   7.888   3.340  12.851
64418W        W29403  31.167   3.683   0.260
64419W        W29404  28.694  12.821  14.837
64420W        W29405  32.088  39.670   0.292
64421W        W29406  22.295   0.331  11.629
64422W        W29407  28.699  27.551   2.296
64423W        W29408   9.272  10.269   4.727
64424W        W29409  15.297  30.960   3.449
64425W        W29410  42.785   1.215  12.214
64426W        W29411  38.571   7.802   3.757
64427W        W29412  22.254  10.069  11.762
64428W        W29413  44.909   5.877   1.872
64429W        W29414  16.580  31.903   1.706
64430W        W29415  15.725  40.709  14.868
64431W        W29416   4.801   6.226   0.735
64432W        W29417  35.504  22.644  11.637
64433W        W29418  42.911   6.921   3.706
64434W        W29419  36.894  37.315  10.679
64435W        W29420  30.861  24.753   3.414
64436W        W29421  32.887  30.698  12.435
64437W        W29422   8.733  15.365  12.570
64438W        W29423  40.569  11.412   3.238
64439W        W29424   1.192  21.033   4.300
64440W        W29425  29.628   2.410  13.962
64441W        W29426  25.786  29.966   1.920
64442W        W29427  14.083  30.448   4.619
64443W        W29428  30.855   8.243   0.067
64444W        W29429  27.566  27.971  10.484
64445W        W29430   5.674  44.509  10.603
64446W        W29431  28.168  24.462   2.015
64447W        W29432  35.964  24.888  13.048
64448W        W29433   0.197   4.708   3.976
64449W        W29434  15.195  13.697   0.012
64450W        W29435  34.515  44.088   4.656
64451W        W29436  24.731   9.110  10.629
64452W        W29437  36.324  44.244  13.949
64453W        W29438  22.168  32.132  10.296
64454W        W29439   2.354  35.475   4.798
64455W        W29440  21.598  43.064   9.985
64456W        W29441  31.043   0.729   3.747
64457W        W29442  39.011   4.301   1.208
64458W        W29443  31.504  27.569  14.385
64459W        W29444  16.806  17.081   0.326
64460W        W29445  18.092  26.180   2.842
64461W        W29446  20.180  40.986   3.416
64462W        W29447  12.963  43.528  13.455
64463W        W29448  15.174  10.165   4.470
64464W        W29449  12.728  37.043  14.935
64465W        W29450  22.559  23.119  11.938
64466W        W29451   8.771  14.271   0.243
64467W        W29452  20.243   7.636  12.458
64468W        W29453  36.362  28.444   4.153
64469W        W29454  16.204  22.998  10.642
64470W        W29455  15.452  38.488  11.564
64471W        W29456  29.539  26.664  12.029
64472W        W29457  43.023  18.659   2.434
64473W        W29458  28.358  25.133  10.931
64474W        W29459  15.053  31.225  13.100
64475W        W29460  11.218  42.344   1.148
64476W        W29461  41.744  12.059  10.583
64477W        W29462   9.792  21.663   1.406
64478W        W29463  38.404  31.580  14.376
64479W        W29464  27.396   4.017  10.585
64480W        W29465  12.728  32.564   1.204
64481W        W29466  27.558  22.666   4.913
64482W        W29467  35.844  43.316   1.348
64483W        W29468  41.890  31.079   0.758
64484W        W29469  14.799  16.738   2.192
64485W        W29470  30.723  13.147  13.348
64486W        W29471  13.574  14.252  13.799
64487W        W29472  18.361   4.916   3.158
64488W        W29473   8.649  23.540   1.881
64489W        W29474  20.863  23.281   4.950
64490W        W29475   5.625   4.647  12.995
64491W        W29476  42.077   4.235   3.831
64492W        W29477  16.644  38.327   3.257
64493W        W29478   3.235  29.676  12.910
64494W        W29479  31.135  28.644   4.152
64495W        W29480   5.469  44.493   1.306
64496W        W29481   1.526   8.244  12.068
64497W        W29482  38.645   5.578   2.849
64498W        W29483  23.488  26.001  11.962
64499W        W29484  32.846  12.191  12.075
64500W        W29485  21.068   5.694   1.303
64501W        W29486   0.453  15.781   4.880
64502W        W29487   9.299  36.563  13.102
64503W        W29488  16.147   8.421  13.387
64504W        W29489  35.600  26.711  12.098
64505W        W29490  22.515   5.301   2.756
64506W        W29491  24.256  22.003   3.771
64507W        W29492  20.685  44.628   0.741
64508W        W29493  23.529   0.484   2.323
64509W        W29494  16.573  18.263   2.751
64510W        W29495  19.246   3.935  13.504
64511W        W29496  41.231   5.200  13.014
64512W        W29497  13.585  15.264  13.900
64513W        W29498  10.565   0.651  12.406
64514W        W29499  17.230  16.764   0.774
64515W        W29500   6.256  22.206  13.071
64516W        W29501  12.384  18.652   2.243
64517W        W29502  20.237  31.510  11.621
64518W        W29503  14.943   7.241  14.935
64519W        W29504  16.756  11.165   3.282
64520W        W29505  23.630  16.259   3.197
64521W        W29506   9.033  35.312   1.743
64522W        W29507   6.315   5.389   2.650
64523W        W29508   0.297   6.801   2.834
64524W        W29509  23.588   1.680   1.799
64525W        W29510   8.810  14.115   3.258
64526W        W29511   9.937  34.176   1.763
64527W        W29512  22.269  19.805  14.367
64528W        W29513  40.280  15.373   1.028
64529W        W29514  32.815  26.268   1.869
64530W        W29515  38.167  26.530   1.188
64531W        W29516  25.123   6.802   2.307
64532W        W29517   5.031   9.961  10.888
64533W        W29518  21.125  31.594  14.265
64534W        W29519  21.523   3.030   0.751
64535W        W29520  40.944  12.652   4.216
64536W        W29521  36.182   7.989   1.185
64537W        W29522  13.281  28.587  12.504
64538W        W29523  16.627  25.204  13.535
64539W        W29524  43.341  36.244  11.053
64540W        W29525   7.973  30.137  12.226
64541W        W29526  34.471   2.409   2.086
64542W        W29527  37.587  22.703  13.578
64543W        W29528  19.197  12.869  14.513
64544W        W29529  16.595  15.742   3.175
64545W        W29530  14.612   9.939   3.763
64546W        W29531  23.986  23.515   2.644
64547W        W29532   5.772  15.339   0.413
64548W        W29533  23.926   1.574  13.023
64549W        W29534  24.587  14.326   2.886
64550W        W29535  13.890   0.811   3.318
64551W        W29536  35.499   2.452   1.672
64552W        W29537   7.232   7.230  13.797
64553W        W29538   2.842  39.648   4.128
64554W        W29539  25.650  15.561  10.625
64555W        W29540   6.789  37.359  14.869
64556W        W29541  27.527  14.612   3.195
64557W        W29542  17.567  23.522   2.910
64558W        W29543  37.101  25.440  12.192
64559W        W29544  32.150  19.099   3.273
64560W        W29545  15.740  30.599   5.067
64561W        W29546   3.522  16.716   3.225
64562W        W29547   8.907   0.322  13.493
64563W        W29548  38.456  14.319  10.751
64564W        W29549  37.449  11.973   1.911
64565W        W29550  22.665  12.281   2.734
64566W        W29551  19.713   3.227   4.600
64567W        W29552  11.957  12.392  12.620
64568W        W29553  29.199  23.148  10.853
64569W        W29554  26.532  10.448  10.574
64570W        W29555   9.437  10.751  14.836
64571W        W29556   5.745  18.023   4.824
64572W        W29557  10.323  18.119   4.263
64573W        W29558  32.570  31.586  13.021
64574W        W29559   5.673  25.134  10.543
64575W        W29560  11.743   5.857  11.094
64576W        W29561  12.567  37.358  10.617
64577W        W29562  15.995  44.750   4.133
64578W        W29563  42.657  34.172  11.599
64579W        W29564  16.852  31.588  13.569
64580W        W29565  31.844  23.164   3.544
64581W        W29566   6.677  41.062  12.859
64582W        W29567  25.640   3.119  11.613
64583W        W29568  43.975  23.850  10.662
64584W        W29569  25.474  35.449   2.335
64585W        W29570  32.838  40.062  10.737
64586W        W29571  30.338  33.154   1.410
64587W        W29572  21.151  41.869   3.436
64588W        W29573  30.849  44.964   2.774
64589W        W29574  29.646   4.185  10.912
64590W        W29575  23.242  43.294  12.476
64591W        W29576  29.938  30.382   4.913
64592W        W29577   7.934  14.147   4.274
64593W        W29578  13.108   3.839  13.486
64594W        W29579  38.590   0.178  13.029
64595W        W29580  17.332  23.631  12.075
64596W        W29581  42.458  32.171   1.404
64597W        W29582   1.896   5.759   4.205
64598W        W29583  19.515  18.669  13.581
64599W        W29584   1.531   1.114  13.975
64600W        W29585  30.293   8.949  11.200
64601W        W29586  34.344   5.949  13.515
64602W        W29587   7.654   7.724   3.633
64603W        W29588  17.037  10.680  11.394
64604W        W29589  12.292   8.931   1.385
64605W        W29590  31.518  42.052   4.862
64606W        W29591  16.661  28.913  12.638
64607W        W29592  36.371   1.381  13.773
64608W        W29593  23.415   0.426   1.399
64609W        W29594  18.087   1.259   4.218
64610W        W29595  27.721  20.851  10.782
64611W        W29596  24.639  40.774   0.005
64612W        W29597  28.990   9.412  14.398
64613W        W29598   0.213  27.398   9.602
64614W        W29599  25.071   9.608   0.428
64615W        W29600  18.631   3.293  12.121
64616W        W29601  34.461  19.819  12.819
64617W        W29602  34.714  44.236  14.738
64618W        W29603  17.169  12.028   4.163
64619W        W29604  31.506   2.732   4.822
64620W        W29605  24.192  34.055  10.268
64621W        W29606   0.448  27.282   4.674
64622W        W29607  18.035  24.520   2.678
64623W        W29608  22.578  40.278  14.684
64624W        W29609  22.131  10.827   2.654
64625W        W29610  41.393  22.956  11.254
64626W        W29611  26.544  13.321   1.350
64627W        W29612  35.401  20.445   4.681
64628W        W29613   9.644  17.348  12.995
64629W        W29614  41.529  24.008   3.013
64630W        W29615  17.550  36.964   2.455
64631W        W29616  26.408   1.238   0.832
64632W        W29617  41.082  26.386   0.191
64633W        W29618   9.513  32.608  12.635
64634W        W29619  38.384  32.513   2.730
64635W        W29620  40.825  36.694   1.341
64636W        W29621  12.545  21.272   4.607
64637W        W29622  32.069   5.325  13.975
64638W        W29623  38.825  36.800   3.543
64639W        W29624  23.247  25.988  11.505
64640W        W29625  35.373   6.255  14.999
64641W        W29626  43.402  20.085   2.902
64642W        W29627  38.123  12.633   2.663
64643W        W29628  40.379  13.703   4.951
64644W        W29629  29.494  30.642   4.101
64645W        W29630  23.995  41.364  10.390
64646W        W29631  10.844  16.751  10.954
64647W        W29632   6.760  22.072  12.854
64648W        W29633  41.762   6.058  11.936
64649W        W29634  10.768   2.717  12.600
64650W        W29635  15.258  39.920  12.472
64651W        W29636  15.700   8.763   1.950
64652W        W29637  13.715  15.673   1.939
64653W        W29638  15.456  16.163   1.409
64654W        W29639   0.590   7.080  14.461
64655W        W29640  14.741  32.592  11.888
64656W        W29641   8.163  21.042  10.501
64657W        W29642   9.852   4.719   0.916
64658W        W29643  16.172   3.892  14.816
64659W        W29644  38.289  38.160  10.172
64660W        W29645  11.849  12.754   2.621
64661W        W29646  14.455  13.762  12.832
64662W        W29647  15.681  32.406   3.165
64663W        W29648  43.889  17.681   2.481
64664W        W29649  36.824   0.374   0.431
64665W        W29650   0.771   5.744  14.970
64666W        W29651  38.834  34.587   0.491
64667W        W29652  29.974  12.687  11.196
64668W        W29653  36.931  10.090   0.110
64669W        W29654  38.522  44.904  11.184
64670W        W29655  44.856  28.632   1.148
64671W        W29656  11.804   7.638   0.301
64672W        W29657   3.273  28.399   1.661
64673W        W29658  24.251  22.497   4.657
64674W        W29659  40.433  10.251   1.323
64675W        W29660  10.444  34.178  13.498
64676W        W29661   5.190  33.141   0.790
64677W        W29662   3.403  40.093  10.771
64678W        W29663  32.023   9.134   3.246
64679W        W29664  40.432  16.765   1.779
64680W        W29665  13.143   2.071   3.244
64681W        W29666   9.302  39.739   1.323
64682W        W29667  24.196   4.042  14.958
64683W        W29668  30.058  30.018   1.650
64684W        W29669  26.416  16.117  11.413
64685W        W29670  39.973  12.819   3.805
64686W        W29671  17.148  18.363   3.594
64687W        W29672   3.679  36.462  14.398
64688W        W29673  29.935  34.873   3.859
64689W        W29674  33.223  26.148   3.323
64690W        W29675   6.385  10.374  12.081
64691W        W29676  21.134   3.648   2.308
64692W        W29677  17.075  24.669   4.194
64693W        W29678  37.782  13.755   3.738
64694W        W29679   3.987  31.855  11.115
64695W        W29680   7.356   6.965  10.918
64696W        W29681  24.426  38.325  13.012
64697W        W29682   0.379  26.911  11.739
64698W        W29683   4.992  30.119  14.994
64699W        W29684  36.502   8.302   2.886
64700W        W29685   6.818  24.493  11.274
64701W        W29686  15.282  31.375  13.583
64702W        W29687  26.991  39.918   2.273
64703W        W29688  36.346   7.095   3.608
64704W        W29689  33.532  15.220   3.358
64705W        W29690  33.581  39.397   4.813
64706W        W29691   3.974  37.317  12.109
64707W        W29692  16.212  13.199  12.222
64708W        W29693  43.261  14.123   4.175
64709W        W29694  10.958  18.726   3.706
64710W        W29695  41.430  38.973   1.657
64711W        W29696   9.205  15.332  10.673
64712W        W29697  28.029   5.221   0.052
64713W        W29698   9.096   7.923   0.856
64714W        W29699   7.252  11.617   3.330
64715W        W29700  21.043  35.048   0.633
64716W        W29701  40.853  17.860  14.486
64717W        W29702  42.207  11.846  13.846
64718W        W29703  23.430   1.210   1.701
64719W        W29704  21.499  32.730   4.412
64720W        W29705   1.564   9.290  11.394
64721W        W29706  12.026  43.260  13.516
64722W        W29707  21.650  23.769  12.963
64723W        W29708  14.622  43.011  12.551
64724W        W29709   3.534  26.344   4.222
64725W        W29710  21.240  26.089   1.748
64726W        W29711  34.353   4.065  10.460
64727W        W29712  26.491   5.021   4.604
64728W        W29713   6.132   4.663   0.514
64729W        W29714   1.764  15.086  10.714
64730W        W29715  13.705  33.183  12.756
64731W        W29716  37.351  19.273   3.111
64732W        W29717   6.210  15.574  13.834
64733W        W29718  44.684  44.916  14.461
64734W        W29719  24.669  35.453  13.404
64735W        W29720  30.031  24.686  11.668
64736W        W29721   2.038  34.857  14.477
64737W        W29722   5.399  15.252   3.262
64738W        W29723  38.266   4.236   1.735
64739W        W29724  10.385   2.986   4.130
64740W        W29725  36.698  11.102  14.494
64741W        W29726  11.391  44.596   3.162
64742W        W29727  32.563  30.854  10.689
64743W        W29728   7.236  33.733   4.901
64744W        W29729  20.741   3.746  13.560
64745W        W29730   1.473  44.508   4.017
64746W        W29731   6.122   3.297  14.893
64747W        W29732   8.834  31.912  13.634
64748W        W29733   9.777   0.430  13.000
64749W        W29734  35.440   7.090   0.019
64750W        W29735  40.567  32.589  13.315
64751W        W29736  17.306  24.452  12.105
64752W        W29737  18.855   0.721  10.290
64753W        W29738  17.302  18.267  14.725
64754W        W29739  13.718  26.301   0.608
64755W        W29740  39.929  15.051  12.356
64756W        W29741   1.719  31.616   3.264
64757W        W29742  20.220  28.414   1.529
64758W        W29743  10.948  19.231  14.359
64759W        W29744  11.314   2.876   2.100
64760W        W29745  42.228  22.579  12.925
64761W        W29746  30.162   9.940   2.855
64762W        W29747  37.529  12.268  14.055
64763W        W29748  15.039  20.391   1.709
64764W        W29749  42.527  35.599  12.553
64765W        W29750   7.928   0.733  14.901
64766W        W29751  15.974  21.112  12.991
64767W        W29752  27.260   4.789  13.394
64768W        W29753  34.194  18.085  14.396
64769W        W29754  42.793  31.076  13.558
64770W        W29755  34.873   7.041  13.137
64771W        W29756  11.291  39.262   0.503
64772W        W29757  11.740  37.073   1.386
64773W        W29758   0.312   4.995  14.412
64774W        W29759  31.866  22.010  11.370
64775W        W29760   5.267  21.747   0.024
64776W        W29761  42.814  12.598   0.249
64777W        W29762  39.033  40.519   0.920
64778W        W29763  32.135  43.438   2.363
64779W        W29764  15.524   8.356   3.197
64780W        W29765  26.955  29.745  14.503
64781W        W29766  23.503  11.599  13.457
64782W        W29767  26.836  41.342  11.118
64783W        W29768  40.951  27.872   2.840
64784W        W29769  30.657  20.775  13.991
64785W        W29770  33.325  38.066   3.871
64786W        W29771  20.657   7.318   3.985
64787W        W29772  10.361  23.213   1.794
64788W        W29773  41.007  29.679   3.002
64789W        W29774  18.424  20.019   2.878
64790W        W29775  10.023  37.530   2.711
64791W        W29776  22.751  37.088  14.970
64792W        W29777  28.562  41.064  13.112
64793W        W29778   8.619  20.142   2.478
64794W        W29779  42.328   2.776   4.529
64795W        W29780  30.210  38.128   2.653
64796W        W29781   5.240  16.063  14.523
64797W        W29782  34.372  43.571   3.041
64798W        W29783  11.155  36.461  13.869
64799W        W29784   7.207  36.123   1.781
64800W        W29785  27.508   7.786   3.181
64801W        W29786   8.788  19.209   4.690
64802W        W29787  35.669  28.880  11.993
64803W        W29788  27.265  30.279  13.040
64804W        W29789   2.196  13.662   0.951
64805W        W29790   1.223   0.894   0.186
64806W        W29791  24.915  12.167  14.282
64807W        W29792   0.929  24.018  12.935
64808W        W29793   1.759   0.379  14.609
64809W        W29794  22.771  20.762  14.032
64810W        W29795  11.430  22.150   3.603
64811W        W29796  30.955  17.928  12.945
64812W        W29797  22.676  40.878   3.934
64813W        W29798  26.492  35.078   5.010
64814W        W29799  11.297  18.673   0.295
64815W        W29800  21.701   8.380  14.519
64816W        W29801  17.318  34.527  10.617
64817W        W29802  44.383   0.946   1.644
64818W        W29803  43.231   4.997  13.823
64819W        W29804  35.005   3.733   1.710
64820W        W29805  18.334  28.196   3.712
64821W        W29806  42.068  16.592   2.416
64822W        W29807  13.881   7.365   4.056
64823W        W29808  29.814  42.989  10.678
64824W        W29809   5.750  26.204   3.915
64825W        W29810  14.231   2.508  11.474
64826W        W29811  44.415   8.609   3.725
64827W        W29812  31.843  23.011   4.043
64828W        W29813   3.207  10.682  13.950
64829W        W29814  28.951  19.727  12.979
64830W        W29815  18.519  43.986  10.750
64831W        W29816  28.514  17.795   2.256
64832W        W29817   9.473  25.187  14.029
64833W        W29818  31.761   0.226  10.400
64834W        W29819  26.187  30.416   4.029
64835W        W29820  25.696  17.119   1.240
64836W        W29821  27.206  16.575  13.385
64837W        W29822  25.034  38.925   2.194
64838W        W29823  17.146  18.645  10.205
64839W        W29824  21.247   7.758   1.392
64840W        W29825  40.865  40.423   0.928
64841W        W29826   4.440  28.015   2.580
64842W        W29827  13.127  26.526   4.497
64843W        W29828  35.410   7.634   0.737
64844W        W29829   2.287  20.684   0.974
64845W        W29830  26.613  27.014  11.614
64846W        W29831   1.935  36.886   3.453
64847W        W29832  13.385  39.034   0.327
64848W        W29833  37.041  42.320  11.194
64849W        W29834   1.120  21.996  12.148
64850W        W29835   9.617   5.442  14.833
64851W        W29836  42.477   4.596   1.450
64852W        W29837   0.330  27.008  13.562
64853W        W29838  31.437   5.402  11.119
64854W        W29839  20.263   5.784  11.557
64855W        W29840  34.883  10.756   1.524
64856W        W29841  31.119  17.687   4.890
64857W        W29842   0.933   3.995  14.877
64858W        W29843   3.620  24.991   0.217
64859W        W29844  15.270  27.887  14.582
64860W        W29845   9.210  28.528  14.748
64861W        W29846   1.466   3.694  11.129
64862W        W29847  34.557  23.413  12.592
64863W        W29848   0.388  23.294   1.075
64864W        W29849  35.508  34.040   2.926
64865W        W29850   5.412   8.690   3.543
64866W        W29851  43.490  12.545   2.326
64867W        W29852  27.902   0.105   4.515
64868W        W29853  10.657   1.231   0.884
64869W        W29854  30.373  27.573   3.801
64870W        W29855  40.433  24.500   0.439
64871W        W29856  28.922  17.150   0.923
64872W        W29857  29.053  21.797   0.337
64873W        W29858  12.947   1.335  12.629
64874W        W29859  39.153   7.080  10.688
64875W        W29860  20.997  26.169  13.380
64876W        W29861   5.766  41.035   1.037
64877W        W29862  29.069  10.608  10.289
64878W        W29863  26.658   6.966   2.572
64879W        W29864   7.820  38.424  13.022
64880W        W29865  16.220  38.617   3.246
64881W        W29866  18.481  42.998   0.279
64882W        W29867  19.082   0.260  12.936
64883W        W29868   0.794   6.265  14.849
64884W        W29869  28.269  38.026  12.431
64885W        W29870  37.808  38.300   3.628
64886W        W29871  33.461  29.917  10.592
64887W        W29872   7.634  22.555  14.365
64888W        W29873  38.926  44.858  13.301
64889W        W29874  43.235  44.585  14.052
64890W        W29875  41.356   9.577  10.747
64891W        W29876  21.066  10.752  14.277
64892W        W29877   5.264   4.079   1.255
64893W        W29878  24.382   6.651  14.332
64894W        W29879   2.675  20.204  14.446
64895W        W29880   9.153  36.441   3.826
64896W        W29881  25.737  15.692   3.503
64897W        W29882  12.784  12.614   0.422
64898W        W29883  35.891  42.511   4.931
64899W        W29884  26.931  25.224  13.477
64900W        W29885  17.811  39.322  13.920
64901W        W29886  12.727   7.885  13.503
64902W        W29887   6.888  35.451   0.693
64903W        W29888  22.038  21.543  12.592
64904W        W29889   0.572  41.275   4.237
64905W        W29890  30.560  34.325   4.562
64906W        W29891  29.353  11.288   3.248
64907W        W29892   3.749  22.235   0.307
64908W        W29893  24.123  13.660   3.562
64909W        W29894  16.595  24.804   1.345
64910W        W29895  36.688   6.303   3.465
64911W        W29896  12.231   4.703  12.500
64912W        W29897   4.273  26.007  11.693
64913W        W29898  14.748  41.098   1.684
64914W        W29899   8.911  24.481  13.566
64915W        W29900   5.395   2.383  13.317
64916W        W29901  19.667  27.504  12.898
64917W        W29902   1.330  34.197  11.229
64918W        W29903  33.112  18.221   4.670
64919W        W29904  11.489  38.825   0.297
64920W        W29905  15.831   9.579  11.752
64921W        W29906  39.799  12.052  12.482
64922W        W29907  22.961   3.322  13.289
64923W        W29908  31.116  36.193   1.821
64924W        W29909  28.167   1.263  12.343
64925W        W29910  26.002  21.328  11.142
64926W        W29911  17.308   4.488  13.800
64927W        W29912  17.020  37.714   2.656
64928W        W29913  14.166   5.492  12.534
64929W        W29914  40.344  42.930   1.651
64930W        W29915  27.445  28.931   2.168
64931W        W29916  20.252  26.383   1.961
64932W        W29917  43.497  32.340  10.748
64933W        W29918  36.021  40.182   2.517
64934W        W29919  28.069   3.768   0.030
64935W        W29920  28.240  41.899  14.383
64936W        W29921  19.676  15.467  10.539
64937W        W29922  42.834   0.445  13.484
64938W        W29923  28.177   0.270  14.990
64939W        W29924  10.669   2.168  12.519
64940W        W29925  23.284  11.063   2.690
64941W        W29926  18.542  15.140   0.298
64942W        W29927   3.441  27.039   2.641
64943W        W29928   1.045  19.230   1.925
64944W        W29929   7.143  36.882   2.448
64945W        W29930  29.629   4.385  10.433
64946W        W29931  26.205  34.977   3.984
64947W        W29932  14.812  22.742   4.956
64948W        W29933  20.975  26.660  13.241
64949W        W29934  34.101  28.487   1.329
64950W        W29935  33.482  16.690   4.504
64951W        W29936  35.034  25.504   1.388
64952W        W29937  44.328  41.727  12.977
64953W        W29938  26.562  30.799   3.324
64954W        W29939  12.654   3.310  10.756
64955W        W29940   2.249  32.931   1.180
64956W        W29941  11.758   5.537  11.860
64957W        W29942  19.811  36.952   3.466
64958W        W29943  24.317  11.821  13.128
64959W        W29944  15.135  30.951  14.490
64960W        W29945  43.147   0.555   0.602
64961W        W29946  19.026  26.567  13.809
64962W        W29947  44.197  40.946   0.549
64963W        W29948  14.686  20.013  14.399
64964W        W29949  34.550  24.099  14.732
64965W        W29950  10.939  27.600   4.149
64966W        W29951  38.006  34.916   3.328
64967W        W29952  12.958  30.018  13.360
64968W        W29953   3.032  39.168  12.516
64969W        W29954  25.483  18.321  13.546
64970W        W29955  13.116  27.818   9.487
64971W        W29956  17.535  35.528  14.539
64972W        W29957   1.233   1.412  11.549
64973W        W29958  15.501  18.782   4.619
64974W        W29959  42.905  10.756  12.309
64975W        W29960  32.983  18.097  11.003
64976W        W29961  36.998  16.702  14.751
64977W        W29962  40.313  11.894   1.896
64978W        W29963  11.158  17.648   3.951
64979W        W29964  20.015   8.358   3.292
64980W        W29965  29.687  23.044  14.524
64981W        W29966  16.920   6.684  10.846
64982W        W29967  17.666  41.262   4.654
64983W        W29968  20.987  41.503  11.773
64984W        W29969  43.999  31.862  10.492
64985W        W29970  10.556  23.066   0.378
64986W        W29971   1.651   6.784  12.008
64987W        W29972  15.342  23.073  12.033
64988W        W29973  23.171  44.314   4.039
64989W        W29974   2.671   0.662  11.151
64990W        W29975  10.472  17.094  10.792
64991W        W29976  32.875  44.302  12.532
64992W        W29977  40.965   5.843  14.438
64993W        W29978   4.873   1.203  13.593
64994W        W29979  40.945  23.967  12.471
64995W        W29980  29.850  29.915   0.286
64996W        W29981  15.787  14.833  10.725
64997W        W29982   7.681  18.624   1.577
64998W        W29983  31.535  25.656   3.727
64999W        W29984  40.977  42.792  12.818
65000W        W29985  12.358  24.246   0.638
65001W        W29986  38.345  32.152   1.933
65002W        W29987  11.835  15.256  10.716
65003W        W29988  37.964   9.878  12.862
65004W        W29989  26.676   6.931  12.625
65005W        W29990  11.355   5.655  12.354
65006W        W29991  44.471   5.385  12.480
65007W        W29992  43.378  18.154  13.347
65008W        W29993  28.856  18.224   3.266
65009W        W29994   6.011  42.421   1.117
65010W        W29995  35.303  12.167  14.801
65011W        W29996  25.279  31.772  12.874
65012W        W29997  10.341  15.148  13.979
65013W        W29998  15.784  13.404  12.929
65014W        W29999  42.958  35.664   2.658
65015W        W30000  19.417  31.843   2.101
65016W        W30001   8.480  22.816   0.789
65017W        W30002  16.136  18.546   0.289
65018W        W30003  44.444  15.315   2.254
65019W        W30004   0.205  30.049  13.842
65020W        W30005  32.695   5.718   3.210
65021W        W30006  34.381  40.324  12.047
65022W        W30007   4.978  30.604  14.552
65023W        W30008  38.404  29.332  11.589
65024W        W30009   8.544  41.762  12.164
65025W        W30010   7.512  13.123  14.453
65026W        W30011  16.828   9.587  12.807
65027W        W30012  16.188   3.236   2.395
65028W        W30013  36.466  42.389  11.361
65029W        W30014  42.425  14.168  13.037
65030W        W30015   0.850  10.820  12.410
65031W        W30016  44.890  16.828  14.484
65032W        W30017  42.845  22.733  12.396
65033W        W30018  42.010  38.417   4.777
65034W        W30019   3.752   0.936   1.042
65035W        W30020  10.165  24.586   4.595
65036W        W30021  24.155  30.054  14.430
65037W        W30022  17.784  41.951   1.240
65038W        W30023  26.049  37.773   2.686
65039W        W30024   9.116  31.601   4.602
65040W        W30025  14.041  16.820  11.456
65041W        W30026  43.168   3.807   1.531
65042W        W30027  36.083  31.601   2.763
65043W        W30028  26.259  23.812  14.301
65044W        W30029  25.505  16.348   0.036
65045W        W30030  36.714  42.229   1.792
65046W        W30031  19.287  30.300  11.266
65047W        W30032  37.982  10.113   0.749
65048W        W30033   5.622  43.734  13.380
65049W        W30034   8.863  18.070   0.028
65050W        W30035   0.297  21.204  12.319
65051W        W30036  22.159  27.693   0.708
65052W        W30037  21.894  26.367   2.780
65053W        W30038   0.506  13.506  11.168
65054W        W30039  40.887  15.421   1.712
65055W        W30040  21.950  43.412  12.959
65056W        W30041  31.630  10.226   3.657
65057W        W30042   2.326  41.459  14.849
65058W        W30043  25.611  18.170  12.593
65059W        W30044   6.253  17.666  10.892
65060W        W30045  39.930  41.409  12.005
65061W        W30046   1.084   5.402  14.674
65062W        W30047   6.269  13.694   4.117
65063W        W30048  42.448  38.091  14.327
65064W        W30049   8.629  36.882   1.316
65065W        W30050  37.016   2.019  12.452
65066W        W30051  23.054  39.038  14.285
65067W        W30052  33.640  44.913  10.728
65068W        W30053  44.442  33.589   4.446
65069W        W30054  18.534   5.419   9.371
65070W        W30055  15.505  40.041   3.986
65071W        W30056  34.862  30.760   1.661
65072W        W30057  30.848  35.089   2.370
65073W        W30058  17.704  18.134   0.025
65074W        W30059  13.177  16.998   0.943
65075W        W30060  33.545  37.784  13.790
65076W        W30061  37.556  32.175   1.369
65077W        W30062  24.071  21.983  11.602
65078W        W30063  36.011  37.236   4.621
65079W        W30064   9.368  22.894  11.618
65080W        W30065  22.626   4.647   3.807
65081W        W30066  15.132  24.408   3.222
65082W        W30067  11.606  20.671  11.971
65083W        W30068  23.759  29.723   2.832
65084W        W30069  19.994  32.384  13.256
65085W        W30070  32.834  28.872  11.576
65086W        W30071  24.232  14.049  11.231
65087W        W30072  44.299   1.304   4.626
65088W        W30073   2.720   9.593   4.212
65089W        W30074  41.021   4.815   3.358
65090W        W30075  28.186  23.062   2.886
65091W        W30076  32.176  33.299  11.632
65092W        W30077  18.370  40.507  14.660
65093W        W30078  27.360  19.943   1.776
65094W        W30079  15.802   9.290  10.972
65095W        W30080  39.661  17.696   4.663
65096W        W30081  42.817   2.812  13.624
65097W        W30082  27.047   5.193  13.042
65098W        W30083  11.661  41.428  13.826
65099W        W30084  21.226  35.935   0.936
65100W        W30085   8.263   7.643   3.988
65101W        W30086  40.884  31.122  11.659
65102W        W30087  39.998  24.309   1.209
65103W        W30088  10.834  11.052   3.948
65104W        W30089  36.273   3.564  13.729
65105W        W30090   9.869  15.062   5.014
65106W        W30091  14.201  20.759  12.008
65107W        W30092  19.534   8.288   0.979
65108W        W30093  18.605  36.375  11.272
65109W        W30094  10.919  18.321  11.482
65110W        W30095  43.651  36.900  11.575
65111W        W30096  21.920  26.538   0.417
65112W        W30097  12.862  35.327   3.108
65113W        W30098   2.285  31.004   3.057
65114W        W30099  25.029  22.957  14.004
65115W        W30100  13.175  11.852  14.416
65116W        W30101  13.050  30.023   1.245
65117W        W30102   7.628  26.579  11.157
65118W        W30103  27.131   8.754   4.553
65119W        W30104  22.315  40.117  14.253
65120W        W30105   8.072  11.202  14.057
65121W        W30106  21.241  43.973  13.135
65122W        W30107  24.664   6.608   2.756
65123W        W30108   7.290  34.885   4.136
65124W        W30109  37.818  43.459   3.334
65125W        W30110   1.405  38.538  14.218
65126W        W30111   6.083  31.312  12.045
65127W        W30112  21.965   6.794   1.357
65128W        W30113   8.302  31.814  12.037
65129W        W30114  36.861  34.410  10.552
65130W        W30115  44.429  25.160  10.724
65131W        W30116  41.082  40.521   0.445
65132W        W30117  19.203   2.492  10.710
65133W        W30118  43.059  25.489   1.900
65134W        W30119   3.737  16.535  12.023
65135W        W30120  26.475  25.544   1.263
65136W        W30121  36.039  33.409  12.092
65137W        W30122  16.851   0.266   1.460
65138W        W30123  16.218  19.655  11.986
65139W        W30124  34.631  22.073  13.807
65140W        W30125  22.802   4.577   1.978
65141W        W30126  35.850  33.905  11.242
65142W        W30127   2.457   4.433   0.471
65143W        W30128  42.599  32.372  10.770
65144W        W30129  16.667  17.625  13.225
65145W        W30130  43.065   1.919  14.688
65146W        W30131  19.127  16.244   4.630
65147W        W30132   9.296  37.961   1.454
65148W        W30133  13.685  11.860  14.354
65149W        W30134  26.643  37.444  11.646
65150W        W30135  10.471   2.642   3.738
65151W        W30136  34.120   1.376  10.688
65152W        W30137  27.161  11.945  12.423
65153W        W30138  33.301  40.599  13.328
65154W        W30139  35.415   3.668   3.252
65155W        W30140  43.198  20.186  10.239
65156W        W30141  31.824  22.882   1.348
65157W        W30142  27.884  15.802   3.711
65158W        W30143  30.007   4.784   3.242
65159W        W30144   3.391  21.212  14.893
65160W        W30145  33.341  29.642   5.079
65161W        W30146   7.107   3.673  14.635
65162W        W30147  28.502   6.323   1.321
65163W        W30148  44.170  41.260   1.762
65164W        W30149   2.724   1.941   4.188
65165W        W30150  16.381  32.916  12.581
65166W        W30151  40.333   1.988  10.681
65167W        W30152  41.401   7.425  12.999
65168W        W30153  32.909  36.071   3.183
65169W        W30154  20.008  34.014  12.122
65170W        W30155  21.163   7.335   0.709
65171W        W30156  35.146  36.042   1.407
65172W        W30157  34.121   6.808  10.273
65173W        W30158  20.603  34.929  13.062
65174W        W30159  25.133  35.247  11.975
65175W        W30160  44.360  13.684  11.467
65176W        W30161  34.554  35.433   0.611
65177W        W30162  14.710  44.461   3.411
65178W        W30163  31.366   5.870   3.805
65179W        W30164  19.991  24.129  11.647
65180W        W30165   4.371   3.669   3.616
65181W        W30166  13.810  36.171  13.506
65182W        W30167  32.315  20.155  11.638
65183W        W30168   3.807  43.921   2.743
65184W        W30169  13.838  44.506   3.695
65185W        W30170   9.189  14.841   2.199
65186W        W30171  10.858   9.911   3.803
65187W        W30172   8.815  23.903   2.196
65188W        W30173  24.183  18.746  12.975
65189W        W30174  17.977  23.241  11.579
65190W        W30175  20.792  40.933  11.626
65191W        W30176   6.781   9.985   0.322
65192W        W30177   5.229  44.722   0.870
65193W        W30178  16.081  41.716  13.357
65194W        W30179  43.361  30.752   0.802
65195W        W30180  15.642  26.032   0.874
65196W        W30181  27.436  26.346   3.665
65197W        W30182   0.407  28.224  12.080
65198W        W30183  36.045   7.488   3.148
65199W        W30184  37.862  25.555   5.133
65200W        W30185   1.306  17.906  13.986
65201W        W30186  20.253   8.346  10.718
65202W        W30187   4.682  29.103  10.250
65203W        W30188  12.100   6.312  14.836
65204W        W30189  27.566  34.928   2.510
65205W        W30190  17.494  15.125  14.834
65206W        W30191   6.745  25.895   4.413
65207W        W30192   6.647  14.950  14.918
65208W        W30193  40.484  11.814   2.910
65209W        W30194  10.708  26.520  11.970
65210W        W30195  33.469  39.836   1.224
65211W        W30196   4.089   4.572   2.063
65212W        W30197  11.888   0.343   3.183
65213W        W30198  30.417  20.084  10.733
65214W        W30199  17.868  12.460   3.707
65215W        W30200  31.047  27.275  13.356
65216W        W30201  29.964  13.208   1.610
65217W        W30202  11.440  10.734  14.977
65218W        W30203  30.266  35.337  11.986
65219W        W30204  21.316  14.936  12.722
65220W        W30205  26.704  37.092  12.966
65221W        W30206  34.145   8.477  13.456
65222W        W30207  29.922  35.488   0.237
65223W        W30208  43.394  36.247   2.769
65224W        W30209   5.482  23.062   4.755
65225W        W30210  16.591   5.645   0.811
65226W        W30211   6.952   0.022   4.180
65227W        W30212  11.191   5.266  11.479
65228W        W30213  26.640  41.448   3.725
65229W        W30214  30.369   3.849   0.816
65230W        W30215  11.131  21.214  10.638
65231W        W30216  36.814   3.748  10.708
65232W        W30217  23.440  21.216   4.459
65233W        W30218  38.698  16.613  14.407
65234W        W30219  12.591   7.169  14.852
65235W        W30220  17.776  12.595   3.181
65236W        W30221  11.092  12.877   4.352
65237W        W30222  10.630  13.626   2.716
65238W        W30223  32.378  13.123   2.755
65239W        W30224  13.404  14.344  14.278
65240W        W30225  41.629  31.412  14.759
65241W        W30226   3.128  35.795   3.750
65242W        W30227   1.314  39.427   2.236
65243W        W30228  19.272  15.694  14.798
65244W        W30229  24.294  17.302   1.922
65245W        W30230  42.739  15.131   1.749
65246W        W30231  14.184  23.023   3.200
65247W        W30232   0.908  20.312   4.732
65248W        W30233  41.314  19.689  12.866
65249W        W30234   8.229  23.565   4.665
65250W        W30235  21.987   9.359  10.750
65251W        W30236   9.181   0.439  12.439
65252W        W30237  13.797  16.121   3.320
65253W        W30238  25.122  12.520  11.382
65254W        W30239  16.352  25.814  12.928
65255W        W30240  29.968  14.094  11.961
65256W        W30241  16.236  26.439   3.677
65257W        W30242   1.961  23.641  14.231
65258W        W30243  25.612  15.237   4.265
65259W        W30244  17.274  26.023   3.793
65260W        W30245   2.899  40.890   1.308
65261W        W30246  20.761   7.642  12.503
65262W        W30247  29.615   4.915   4.048
65263W        W30248  36.361  17.638   0.028
65264W        W30249   6.785  32.197  11.153
65265W        W30250  10.761  19.383   4.212
65266W        W30251   4.046   0.316   1.566
65267W        W30252   2.335   3.048  12.198
65268W        W30253  38.952  26.996   0.799
65269W        W30254  10.140  27.415   2.292
65270W        W30255  28.031   3.817   0.555
65271W        W30256  35.479  20.116  11.743
65272W        W30257   7.355  23.804  14.724
65273W        W30258  28.471  27.700  12.855
65274W        W30259   5.644  31.875   3.408
65275W        W30260  35.271  32.160   4.135
65276W        W30261  42.112  23.689  11.403
65277W        W30262   3.187   2.320  14.420
65278W        W30263  30.495  25.415   2.319
65279W        W30264  14.683  32.834   2.645
65280W        W30265  29.703  34.033  12.469
65281W        W30266  11.597  13.424   1.801
65282W        W30267  37.444   1.782   3.920
65283W        W30268  19.249  26.737  12.822
65284W        W30269  33.411  42.575  14.501
65285W        W30270  34.025  12.613  14.801
65286W        W30271   6.269  12.308   2.088
65287W        W30272  35.653  11.754  13.541
65288W        W30273  43.272  13.158   3.202
65289W        W30274  13.063  28.943   2.477
65290W        W30275   9.897  33.853   1.364
65291W        W30276  12.313  25.053   0.254
65292W        W30277  19.843  28.532  11.875
65293W        W30278  35.530  39.021  13.771
65294W        W30279  44.334  19.775  11.335
65295W        W30280   7.276   3.133  10.091
65296W        W30281  31.433  16.077  13.210
65297W        W30282  43.715  36.699  14.561
65298W        W30283  14.611  19.488   3.767
65299W        W30284  35.518  27.019   4.872
65300W        W30285  43.784  29.947   3.885
65301W        W30286  37.436  16.659  12.081
65302W        W30287   5.012  37.507  12.848
65303W        W30288  43.281  31.076  11.956
65304W        W30289   4.556  17.054   0.791
65305W        W30290  32.934  28.991   4.645
65306W        W30291  34.308   8.082   1.334
65307W        W30292  18.188  12.799  11.804
65308W        W30293  38.028  11.753   2.617
65309W        W30294  23.114  25.760  14.412
65310W        W30295  13.384  39.220  13.514
65311W        W30296  27.797  18.517   0.912
65312W        W30297  44.366   0.740   4.656
65313W        W30298  33.894  33.204  14.950
65314W        W30299  15.152  23.768  14.453
65315W        W30300   5.358   6.018  13.009
65316W        W30301  23.193  14.164   1.754
65317W        W30302   7.268  32.969  14.559
65318W        W30303  36.033  16.304  11.961
65319W        W30304  39.562  34.717   4.892
65320W        W30305  34.412   5.768  10.675
65321W        W30306   1.950  24.250   2.745
65322W        W30307  11.194  40.937  11.687
65323W        W30308  23.648  26.019  12.942
65324W        W30309  28.940  38.222  12.460
65325W        W30310  15.187  33.589   2.662
65326W        W30311  24.655   9.230  14.064
65327W        W30312   0.608  42.642  14.731
65328W        W30313   2.685  19.476   2.810
65329W        W30314  32.168  21.193   3.711
65330W        W30315   0.726  31.466  13.835
65331W        W30316  39.393  22.553  11.180
65332W        W30317  11.280   3.876   2.864
65333W        W30318  19.027  38.917   3.635
65334W        W30319  36.846  11.763   0.663
65335W        W30320   9.885  23.175  13.033
65336W        W30321  23.207  15.762   1.786
65337W        W30322  13.502  26.840   0.800
65338W        W30323  37.426  19.204   3.805
65339W        W30324  39.380   8.077   3.294
65340W        W30325  39.850  19.601   4.154
65341W        W30326  42.108  14.757  14.902
65342W        W30327  28.445  38.488  10.618
65343W        W30328   8.108  19.683   3.799
65344W        W30329  20.111  30.952   1.309
65345W        W30330  24.417  26.583  14.467
65346W        W30331  14.784  32.916   4.849
65347W        W30332  42.827  31.037  13.053
65348W        W30333  36.681  35.547  11.029
65349W        W30334   9.448  17.806  12.447
65350W        W30335  17.051   3.676   5.013
65351W        W30336  40.112  35.364  13.365
65352W        W30337  11.743  18.570   0.005
65353W        W30338  12.299  19.555  14.485
65354W        W30339   1.170   8.602   4.119
65355W        W30340  19.193  25.833  14.330
65356W        W30341   7.154  26.782  11.125
65357W        W30342  15.206  24.204  13.493
65358W        W30343  13.674   3.138   4.507
65359W        W30344   7.318   1.960  13.925
65360W        W30345  35.618  16.144   3.436
65361W        W30346  14.421   7.442   2.725
65362W        W30347  11.591  33.997   3.740
65363W        W30348  37.415   1.874   1.988
65364W        W30349  25.475  38.693  14.059
65365W        W30350  13.175  43.922   4.238
65366W        W30351  40.615  14.812   2.813
65367W        W30352  29.737  17.690  13.525
65368W        W30353  40.947  27.159  12.581
65369W        W30354  30.959  31.109   0.833
65370W        W30355   8.201  21.233  12.431
65371W        W30356  18.103  25.664  14.930
65372W        W30357   3.790  19.667  12.512
65373W        W30358  38.460  42.177  11.905
65374W        W30359  32.093  21.001   0.105
65375W        W30360  38.331  28.685  14.039
65376W        W30361  16.172  19.691   3.658
65377W        W30362  25.556  11.265  13.572
65378W        W30363  18.949  35.639   2.437
65379W        W30364   4.972  17.252   3.653
65380W        W30365  12.017  10.805   1.330
65381W        W30366  26.801  42.126   2.793
65382W        W30367  13.708  44.139  11.544
65383W        W30368  42.313  21.727   1.676
65384W        W30369   2.790  25.722  13.728
65385W        W30370  18.602  40.800   0.670
65386W        W30371   7.132  38.869   0.266
65387W        W30372  10.297  41.535  10.772
65388W        W30373  28.557  33.659  13.932
65389W        W30374  33.603  12.893   3.658
65390W        W30375  40.189  22.057   4.808
65391W        W30376  22.980  23.507  14.711
65392W        W30377   9.717  25.397  13.187
65393W        W30378  40.833  36.556   4.928
65394W        W30379  19.959  10.867  12.210
65395W        W30380   7.759  11.369   3.250
65396W        W30381  27.522  29.827   0.835
65397W        W30382  15.187  18.788   0.515
65398W        W30383   6.155  18.757  14.857
65399W        W30384  15.464  40.467   1.665
65400W        W30385  14.271   9.091   0.668
65401W        W30386   6.607   7.116  12.925
65402W        W30387  12.381  39.160  14.515
65403W        W30388  33.952  27.414  10.735
65404W        W30389  22.253  15.316   3.747
65405W        W30390  37.870  34.530  14.108
65406W        W30391  38.854  42.522  14.260
65407W        W30392   5.443  16.508   2.155
65408W        W30393  21.480  16.827   1.835
65409W        W30394  24.063  35.133  14.274
65410W        W30395  20.841  20.750   2.373
65411W        W30396  38.003  30.467   4.722
65412W        W30397  42.799  11.078  14.246
65413W        W30398   4.757  42.605  10.674
65414W        W30399  32.030  38.238  13.263
65415W        W30400  36.243  14.296   2.559
65416W        W30401  14.311  29.719   0.199
65417W        W30402   3.331  17.746  14.726
65418W        W30403   6.854  11.334  11.947
65419W        W30404  39.544  38.894  14.096
65420W        W30405   9.044   0.434   4.953
65421W        W30406  29.633  44.674  11.219
65422W        W30407   2.697   6.975   1.623
65423W        W30408  41.059  24.550   9.916
65424W        W30409  29.034  43.209   5.080
65425W        W30410  33.621  14.178   3.411
65426W        W30411  19.163  16.703   0.810
65427W        W30412  24.737  18.338  14.943
65428W        W30413  43.296  40.536   3.326
65429W        W30414   3.956  21.751  11.015
65430W        W30415   9.917  15.739  11.885
65431W        W30416  19.290   6.505   3.637
65432W        W30417  33.082  38.280  11.155
65433W        W30418  12.869  36.496  12.080
65434W        W30419   1.158  41.006   0.835
65435W        W30420  11.843  35.176  14.149
65436W        W30421   7.223  22.724   1.815
65437W        W30422  20.227  37.246  13.780
65438W        W30423  21.485  22.994  11.887
65439W        W30424  22.661  29.622  14.556
65440W        W30425  44.885   8.292   1.100
65441W        W30426  39.924   5.430  11.098
65442W        W30427  12.675  12.254  12.142
65443W        W30428   7.316  26.219  12.772
65444W        W30429   7.316  36.124  12.882
65445W        W30430  42.893  28.374  12.875
65446W        W30431  30.003  32.129   2.313
65447W        W30432  11.314  35.082   3.123
65448W        W30433   1.346  40.503  13.872
65449W        W30434  12.306  14.637  11.673
65450W        W30435  36.834  12.766  11.042
65451W        W30436  32.972   5.796  14.960
65452W        W30437  31.973  41.577   2.645
65453W        W30438  26.579  41.046   0.701
65454W        W30439  37.751   7.237   0.892
65455W        W30440  22.135  31.394   2.103
65456W        W30441  33.592  23.757   2.134
65457W        W30442  39.040  25.437  12.635
65458W        W30443  23.408   6.450  12.320
65459W        W30444  10.441  40.409  12.407
65460W        W30445  22.692   5.153   4.621
65461W        W30446  16.076  39.986   3.420
65462W        W30447  34.602  14.669  10.453
65463W        W30448  43.445  36.414  11.539
65464W        W30449   5.887  19.477   4.589
65465W        W30450  39.322   4.524   3.208
65466W        W30451  26.908  20.543  14.398
65467W        W30452  19.418  26.940   0.853
65468W        W30453  40.930  20.248   4.301
65469W        W30454  33.575   6.660   0.020
65470W        W30455  39.944  23.178   3.843
65471W        W30456  27.191  38.683  13.611
65472W        W30457   9.927  41.461   0.263
65473W        W30458  10.296  11.038   3.238
65474W        W30459  44.405   4.752  12.084
65475W        W30460  12.714   8.664   4.499
65476W        W30461  42.600  37.339   2.174
65477W        W30462  31.009   1.166   3.455
65478W        W30463  41.264  14.611   3.342
65479W        W30464  18.350  21.033   1.015
65480W        W30465  43.433   1.926  13.980
65481W        W30466  31.635  35.033  13.964
65482W        W30467  34.316  31.841  12.898
65483W        W30468   1.188   2.134  13.921
65484W        W30469  23.229   6.141  11.921
65485W        W30470  35.235  14.626   2.706
65486W        W30471  37.855  15.084   1.722
65487W        W30472   9.203   1.270   0.519
65488W        W30473  44.709  11.933  11.206
65489W        W30474  38.972  15.227  13.435
65490W        W30475  19.443  22.603  13.439
65491W        W30476  29.469   0.819  10.709
65492W        W30477  31.053  39.875   4.303
65493W        W30478   1.395  20.641  12.635
65494W        W30479  43.247  30.196   3.259
65495W        W30480  31.028  11.892   0.627
65496W        W30481   4.422  18.293  13.925
65497W        W30482  22.232   0.597   2.956
65498W        W30483   7.781  28.076  12.365
65499W        W30484  29.918  15.143  12.029
65500W        W30485  15.345   2.248   2.356
65501W        W30486  17.048  23.485   0.392
65502W        W30487  25.655  31.200   3.058
65503W        W30488  26.431  14.008   0.391
65504W        W30489  21.908   2.358   4.772
65505W        W30490  27.421   4.917  12.850
65506W        W30491   2.006  10.140  14.328
65507W        W30492  26.092  38.985  14.881
65508W        W30493  19.510  44.038  10.557
65509W        W30494  34.989   9.395   1.182
65510W        W30495  21.133  34.594  13.534
65511W        W30496  43.539   9.714  14.988
65512W        W30497   2.343  36.275  10.955
65513W        W30498  21.574   3.900  12.065
65514W        W30499  16.145  12.736  14.456
65515W        W30500  25.553  41.061  14.093
65516W        W30501  19.970  30.732   0.302
65517W        W30502  22.074  37.604   1.415
65518W        W30503  19.812  34.102   1.910
65519W        W30504  19.795  13.741   4.143
65520W        W30505  19.606  31.907  11.178
65521W        W30506  38.025  37.356   9.983
65522W        W30507  26.906   8.741  12.874
65523W        W30508  27.193  32.482  14.876
65524W        W30509  11.731  21.352   3.588
65525W        W30510  31.433   6.319  13.500
65526W        W30511   0.357  21.656  13.099
65527W        W30512  33.525  15.783  11.511
65528W        W30513  24.188   9.531   3.432
65529W        W30514   6.744  17.218  14.489
65530W        W30515  10.418  12.196  13.052
65531W        W30516  44.654  40.292  13.545
65532W        W30517   9.655  26.134   1.785
65533W        W30518  39.456   8.684   0.709
65534W        W30519  26.538  22.743   1.349
65535W        W30520  40.230   9.188  11.188
65536W        W30521   5.638  15.736   1.434
65537W        W30522  18.560  10.332   0.956
65538W        W30523   2.447  20.967   0.005
65539W        W30524  42.706  40.002   2.755
65540W        W30525  16.975   5.230   3.223
65541W        W30526  31.365  30.335   2.688
65542W        W30527   7.089   3.337  11.054
65543W        W30528  31.515   5.762   4.806
65544W        W30529  29.754  30.046  13.463
65545W        W30530   2.499  18.781  12.536
65546W        W30531  21.053  28.065  12.134
65547W        W30532  27.756   2.752   5.669
65548W        W30533  43.815  26.592   1.451
65549W        W30534  37.863  11.374  11.133
65550W        W30535  13.309  30.821  10.095
65551W        W30536  15.761   5.205  14.032
65552W        W30537  34.258  22.458   3.340
65553W        W30538  15.798  23.304  11.084
65554W        W30539  38.485   3.621   3.059
65555W        W30540  18.273  42.147   1.198
65556W        W30541  40.050  32.074   1.494
65557W        W30542   3.163  26.500  13.579
65558W        W30543  13.744  31.324  10.747
65559W        W30544  39.256  32.414   3.689
65560W        W30545  41.213  34.830   4.098
65561W        W30546  23.486   8.719   4.057
65562W        W30547   7.701   2.966  10.591
65563W        W30548   8.044  28.021   0.211
65564W        W30549  19.909  25.030  12.398
65565W        W30550  41.782  33.169   3.461
65566W        W30551  21.484   1.267   0.271
65567W        W30552  18.533  10.279  14.356
65568W        W30553  14.725   6.327   3.021
65569W        W30554   1.112   1.444  14.301
65570W        W30555   3.885  36.814   3.760
65571W        W30556   1.604  23.928   1.635
65572W        W30557  30.613  16.973   2.345
65573W        W30558  35.007   5.463   1.322
65574W        W30559   1.286   6.699  14.371
65575W        W30560  16.753  25.926  14.762
65576W        W30561   3.954  16.580   0.239
65577W        W30562  17.596  10.239   4.129
65578W        W30563  20.756  34.365  13.803
65579W        W30564  21.274  39.553   3.463
65580W        W30565  23.480  32.773  12.581
65581W        W30566  30.494  30.222   1.474
65582W        W30567  13.758  20.283   1.532
65583W        W30568  42.372  18.599   1.271
65584W        W30569  40.659  12.260   1.690
65585W        W30570  31.267  17.691  12.578
65586W        W30571  16.334  22.015   3.370
65587W        W30572  18.534  31.849   1.041
65588W        W30573  20.049   9.278   4.157
65589W        W30574   7.370  21.524  13.890
65590W        W30575  41.999   7.201   3.218
65591W        W30576  44.186  38.733  13.165
65592W        W30577  37.183  10.668   4.568
65593W        W30578  44.026   6.886  12.463
65594W        W30579  23.110  22.886  13.024
65595W        W30580  29.150   1.545   9.828
65596W        W30581  39.584  25.550   2.348
65597W        W30582   0.547  24.010   3.804
65598W        W30583  36.195  28.528  12.786
65599W        W30584  35.091  21.851  11.139
65600W        W30585  11.562  10.885   4.399
65601W        W30586  12.867  17.720   3.372
65602W        W30587  21.422  37.980   2.550
65603W        W30588  31.939  14.990   3.136
65604W        W30589  33.878  44.016   4.063
65605W        W30590  36.441  11.344  11.881
65606W        W30591  15.033  17.579   1.074
65607W        W30592  43.254  17.355   3.297
65608W        W30593  19.114   9.096  12.982
65609W        W30594  23.608  28.548   2.728
65610W        W30595  32.008  44.024   1.696
65611W        W30596  24.335  22.203   2.182
65612W        W30597  15.786  37.557  10.762
65613W        W30598  30.030  43.705   0.069
65614W        W30599  10.374  37.483   4.087
65615W        W30600  28.410  37.949  13.378
65616W        W30601   9.037  36.174  14.360
65617W        W30602   7.260  30.996  14.420
65618W        W30603  34.443  15.362  11.592
65619W        W30604  35.623  42.057   4.967
65620W        W30605  18.375  11.327  14.668
65621W        W30606  16.313   2.707   1.493
65622W        W30607  18.792  30.189   1.395
65623W        W30608  34.074   6.514  14.989
65624W        W30609   0.469  37.371  10.499
65625W        W30610  34.827  36.414   1.216
65626W        W30611  38.787  19.830   3.563
65627W        W30612   2.157  22.122  14.509
65628W        W30613   3.350  18.378   3.151
65629W        W30614  12.547  17.792  11.484
65630W        W30615  14.281  36.699   2.733
65631W        W30616  20.171  10.875   4.729
65632W        W30617   8.269   6.442   1.375
65633W        W30618   6.374  42.792  13.528
65634W        W30619  28.152  14.545   4.295
65635W        W30620  34.113   0.802  14.509
65636W        W30621   5.674  23.124   4.284
65637W        W30622  37.323  29.377   3.107
65638W        W30623   2.307  34.820  11.081
65639W        W30624  27.745  15.649  14.289
65640W        W30625  42.714  44.188  11.127
65641W        W30626  39.112  30.920  11.089
65642W        W30627   9.191  26.740   3.506
65643W        W30628  11.684  24.735  12.021
65644W        W30629  41.548  19.515  12.053
65645W        W30630  40.802  14.785  11.103
65646W        W30631  27.214  41.399   2.872
65647W        W30632   1.745   0.447   1.059
65648W        W30633  15.830  37.763   2.799
65649W        W30634  25.153  43.626   2.642
65650W        W30635  23.603  13.126   1.267
65651W        W30636  22.199   8.375  14.407
65652W        W30637  26.520  35.683  12.335
65653W        W30638   8.212   4.405  10.781
65654W        W30639  18.847  16.644  10.628
65655W        W30640  21.908  15.830  14.422
65656W        W30641  37.911  38.285  10.906
65657W        W30642  22.109   6.346   4.397
65658W        W30643  22.021  38.811   0.739
65659W        W30644  17.893  22.171  13.532
65660W        W30645  41.361  15.553  10.008
65661W        W30646  17.688  43.052  14.779
65662W        W30647   2.179  43.404  10.749
65663W        W30648  33.105   0.480  11.062
65664W        W30649  18.025  31.015   3.705
65665W        W30650   5.848  35.474  12.509
65666W        W30651  19.903  38.765   4.997
65667W        W30652  21.244  42.974   1.837
65668W        W30653  35.954  38.430   0.718
65669W        W30654   0.451  28.202  11.566
65670W        W30655  39.959  25.728  12.542
65671W        W30656  29.085  17.145   0.298
65672W        W30657  22.743  10.907  11.541
65673W        W30658  23.697  25.496  12.983
65674W        W30659  37.032  31.008  13.986
65675W        W30660  25.970  22.651  11.563
65676W        W30661   4.213  13.208  11.817
65677W        W30662  32.385  11.300  14.768
65678W        W30663   1.686   7.717  12.025
65679W        W30664  11.681  40.466  12.968
65680W        W30665  11.494  13.878  12.500
65681W        W30666  30.357  13.679  13.008
65682W        W30667  16.112  38.875  14.502
65683W        W30668  28.676   8.411  10.752
65684W        W30669  14.274  12.463   2.137
65685W        W30670   6.336  19.529  14.406
65686W        W30671  23.658  23.595  14.459
65687W        W30672  34.619  34.869  12.951
65688W        W30673  20.095  36.355   1.929
65689W        W30674   3.339   1.530  14.424
65690W        W30675  24.481  14.166   1.403
65691W        W30676  38.776  43.246   1.308
65692W        W30677  18.812  17.794   2.725
65693W        W30678  17.805  10.170  13.315
65694W        W30679  11.983  28.102   1.842
65695W        W30680   1.639  23.997  14.453
65696W        W30681  22.152  17.310   3.942
65697W        W30682  18.548  35.546  14.379
65698W        W30683  40.944  24.730  12.201
65699W        W30684  34.411   9.364   0.532
65700W        W30685  14.763   6.318  13.569
65701W        W30686  31.122   4.098  14.945
65702W        W30687  13.870  24.220  12.054
65703W        W30688  35.370  20.713  13.006
65704W        W30689   2.882  42.734  14.382
65705W        W30690   3.724  11.954  14.378
65706W        W30691  36.797  31.130  14.953
65707W        W30692   6.968  14.177  14.358
65708W        W30693  18.659  13.675  12.410
65709W        W30694   5.901  35.048   3.718
65710W        W30695  37.373  30.498  12.439
65711W        W30696   2.763   7.862  12.587
65712W        W30697  11.098  13.143  13.897
65713W        W30698  25.522  13.286  12.339
65714W        W30699  24.338   9.303  14.482
65715W        W30700  11.415  37.300  13.397
65716W        W30701  28.246   8.403   1.723
65717W        W30702  35.781  28.793  12.500
65718W        W30703  34.502   9.861   3.211
65719W        W30704  38.494  33.676  11.280
65720W        W30705  32.852  36.005   0.370
65721W        W30706  34.986  36.893   1.380
65722W        W30707  27.999  12.831  14.542
65723W        W30708   3.529   4.685   1.772
65724W        W30709  44.412   3.781   3.335
65725W        W30710   8.946   1.950   2.370
65726W        W30711  25.177   5.216   4.051
65727W        W30712  23.466   9.492   2.232
65728W        W30713  29.437   1.054   1.995
65729W        W30714  32.608  29.906  11.592
65730W        W30715  22.219  27.459   1.946
65731W        W30716  10.645  17.250   0.911
65732W        W30717   4.066  39.923  14.352
65733W        W30718  24.999  23.486  10.689
65734W        W30719  43.796  14.316   4.672
65735W        W30720   2.294   3.867   2.669
65736W        W30721  24.006  26.618   3.763
65737W        W30722   8.454   7.168  14.803
65738W        W30723  14.789   3.622  11.528
65739W        W30724  12.597  37.498   4.567
65740W        W30725  20.279   1.369  14.274
65741W        W30726   0.925  38.672   1.740
65742W        W30727   4.931   5.438  12.424
65743W        W30728  42.784  38.866  11.001
65744W        W30729  25.219  20.061  13.775
65745W        W30730  29.396  26.198   0.781
65746W        W30731   3.039  24.684  12.323
65747W        W30732  15.253  12.524  11.644
65748W        W30733  33.305   2.927   4.081
65749W        W30734  39.803   5.292   3.151
65750W        W30735  34.875  17.938   0.438
65751W        W30736  26.131  25.530   3.772
65752W        W30737  10.799  33.519   9.913
65753W        W30738  22.136   5.554  11.412
65754W        W30739  15.214  41.413  14.544
65755W        W30740  24.425  13.368  13.033
65756W        W30741  23.746  34.610  13.497
65757W        W30742  27.976   5.882  14.412
65758W        W30743   5.960   7.763  12.453
65759W        W30744   8.600  25.377  11.688
65760W        W30745  19.070   0.195  11.086
65761W        W30746  12.788  11.847   1.596
65762W        W30747   1.223  24.891  12.083
65763W        W30748  16.057  43.262  11.718
65764W        W30749  10.128   6.870   0.663
65765W        W30750  41.543   7.745   1.756
65766W        W30751  29.958  39.820   0.544
65767W        W30752   2.218   2.232  12.517
65768W        W30753  38.846  14.371  14.885
65769W        W30754  34.073  23.348   3.560
65770W        W30755  38.889  12.924   0.964
65771W        W30756  43.056  11.150  12.933
65772W        W30757   1.381  29.967   1.820
65773W        W30758  33.222  20.147   2.439
65774W        W30759   7.444  40.023   3.718
65775W        W30760  14.950  44.384   2.414
65776W        W30761  37.051  24.763  12.283
65777W        W30762   7.289  21.339  14.404
65778W        W30763  26.900   9.734   0.702
65779W        W30764  23.737  36.631   1.628
65780W        W30765   5.776  26.530   2.982
65781W        W30766   9.754  40.465  14.289
65782W        W30767  43.458  29.705  11.879
65783W        W30768  35.885  15.056   0.503
65784W        W30769   7.636  23.039  12.420
65785W        W30770  11.259   7.847  11.165
65786W        W30771   8.296   0.788   3.504
65787W        W30772   1.368  32.560  14.457
65788W        W30773   0.304   1.896   3.071
65789W        W30774   3.686  13.175   2.929
65790W        W30775  22.651  34.877  12.862
65791W        W30776  44.416  28.678   1.494
65792W        W30777  31.348  30.083  11.616
65793W        W30778   6.518  27.943   4.184
65794W        W30779  32.884   1.553  11.118
65795W        W30780  14.321  22.187  14.034
65796W        W30781  41.743  37.885   3.718
65797W        W30782  24.476  38.305  11.183
65798W        W30783   5.963  38.579  10.663
65799W        W30784   5.757  22.227   3.328
65800W        W30785   2.262  21.047   1.358
65801W        W30786  13.593   7.409  12.789
65802W        W30787  18.479   2.877  13.256
65803W        W30788  44.297  36.419   3.201
65804W        W30789   5.832   5.580   3.395
65805W        W30790  19.575  21.160   0.326
65806W        W30791  19.336  26.655   4.707
65807W        W30792   9.421  20.832   4.304
65808W        W30793  14.731  12.772   4.691
65809W        W30794  21.442  12.431  14.580
65810W        W30795  37.966  40.348  11.041
65811W        W30796  28.077  38.917  14.793
65812W        W30797  37.053  34.942  13.939
65813W        W30798  22.185  35.311  13.821
65814W        W30799   1.924  41.375  10.992
65815W        W30800   2.248  32.008  13.702
65816W        W30801   2.455  27.030  14.010
65817W        W30802   3.561  12.868  12.539
65818W        W30803   4.721  10.912  10.270
65819W        W30804  37.220  27.889   1.889
65820W        W30805  43.311  29.362   4.790
65821W        W30806  15.654  40.804   3.607
65822W        W30807   8.262  31.515   0.896
65823W        W30808   0.020   7.339   1.671
65824W        W30809   2.863   7.863   1.930
65825W        W30810  20.112  16.227   1.643
65826W        W30811  34.102  35.639  12.909
65827W        W30812   8.767   9.395   4.376
65828W        W30813  19.654   0.491   0.288
65829W        W30814   4.524   2.225  10.531
65830W        W30815  29.263  44.390  13.629
65831W        W30816  28.202  22.948  10.073
65832W        W30817  28.031   8.967   1.297
65833W        W30818   9.127  14.075   1.727
65834W        W30819  39.761  10.514   0.812
65835W        W30820  44.777  30.701  11.122
65836W        W30821   3.465  33.005   4.172
65837W        W30822   0.144  20.674  10.945
65838W        W30823   5.891  21.492   3.494
65839W        W30824   9.629  40.527  12.991
65840W        W30825   1.902  32.416   0.454
65841W        W30826  13.668  35.910  13.948
65842W        W30827  17.090  34.501   1.387
65843W        W30828   9.884   1.518   1.272
65844W        W30829   3.193  20.910  11.123
65845W        W30830  23.022   7.089  10.783
65846W        W30831  38.384  14.997   2.387
65847W        W30832  27.647  39.923  11.924
65848W        W30833  27.021   2.759   2.294
65849W        W30834  19.398  37.416   4.653
65850W        W30835  34.325  10.240   4.522
65851W        W30836   0.304  19.784   0.323
65852W        W30837   0.062  34.940  11.553
65853W        W30838  36.451  28.193  12.493
65854W        W30839  29.104  19.242  13.021
65855W        W30840  29.295  18.034   3.473
65856W        W30841  31.032  39.361  14.007
65857W        W30842   2.373   6.887   0.449
65858W        W30843   4.419  21.654   1.285
65859W        W30844  44.369   7.733  14.322
65860W        W30845  25.762  26.006   2.709
65861W        W30846   0.513  19.152   5.037
65862W        W30847   2.787  16.875   4.681
65863W        W30848  20.658  11.544  10.972
65864W        W30849   1.345  28.686   0.654
65865W        W30850   5.699   2.865  11.123
65866W        W30851  25.624  26.854  10.050
65867W        W30852  13.353   3.011  11.614
65868W        W30853  20.207  26.219   0.241
65869W        W30854  23.452  36.868   3.924
65870W        W30855  11.166  13.361   0.724
65871W        W30856  10.665  28.151  14.049
65872W        W30857   9.279  41.850  11.973
65873W        W30858  26.222  20.674  12.323
65874W        W30859  12.898  28.614  14.319
65875W        W30860  32.571  29.479   0.980
65876W        W30861   0.867  39.013   2.719
65877W        W30862  18.745  43.750  14.534
65878W        W30863  20.908  37.118   2.919
65879W        W30864  44.362  26.959  10.232
65880W        W30865  41.073  37.442   2.577
65881W        W30866   9.298  38.846  13.690
65882W        W30867  42.175  36.474   1.620
65883W        W30868  10.694  37.445  14.577
65884W        W30869  27.028   5.548  13.990
65885W        W30870  12.070  21.036  11.409
65886W        W30871  23.482  23.171  12.016
65887W        W30872  36.399  26.853  11.019
65888W        W30873  10.080  40.319  11.202
65889W        W30874  13.320  14.049   3.694
65890W        W30875   8.198  10.676  14.745
65891W        W30876   8.630  11.863   1.752
65892W        W30877  27.723  35.995  11.602
65893W        W30878  38.161  29.453   0.736
65894W        W30879  30.513  44.407   3.314
65895W        W30880   5.432  13.407   1.399
65896W        W30881  16.776  16.049  12.111
65897W        W30882  43.546  19.594   3.648
65898W        W30883  38.902   3.616  14.446
65899W        W30884  38.224  18.946   0.777
65900W        W30885  22.160   5.103   0.775
65901W        W30886  30.177   2.734  13.203
65902W        W30887  10.671  26.351   3.312
65903W        W30888  41.730  38.947  10.694
65904W        W30889  27.137  23.185  10.856
65905W        W30890  35.495  38.267   0.885
65906W        W30891  36.451  44.933  14.446
65907W        W30892   7.825   8.136  14.767
65908W        W30893  20.057  17.171   4.667
65909W        W30894  12.214  24.045  11.642
65910W        W30895   5.539  27.611   2.041
65911W        W30896  35.985  19.550  13.786
65912W        W30897  22.770  40.377  13.354
65913W        W30898  11.314  39.269  10.239
65914W        W30899   0.328  38.355  10.609
65915W        W30900   7.386  26.078  10.631
65916W        W30901  28.597  42.494  12.270
65917W        W30902  25.958  44.936  11.185
65918W        W30903  43.088  32.853   1.913
65919W        W30904  36.570  34.592   4.291
65920W        W30905  30.457   6.610  13.937
65921W        W30906  25.129  38.263  14.243
65922W        W30907  23.488  43.061   1.336
65923W        W30908  30.236  40.236   4.068
65924W        W30909  37.992  15.429   4.094
65925W        W30910  30.208  12.332   1.399
65926W        W30911   9.960  41.815   2.241
65927W        W30912  38.984  11.859   0.987
65928W        W30913  41.344  36.484   0.291
65929W        W30914  28.613  26.415   4.847
65930W        W30915  20.155  22.087   1.019
65931W        W30916  33.821  13.667   0.245
65932W        W30917  35.638  38.514   2.249
65933W        W30918  34.301   0.191   4.870
65934W        W30919  40.407  32.262  14.762
65935W        W30920  30.993   0.460  11.084
65936W        W30921   0.229  17.604   1.805
65937W        W30922  40.477  40.138  11.638
65938W        W30923   1.814  23.548  13.317
65939W        W30924  29.553  18.048  11.987
65940W        W30925   8.152  37.434   2.234
65941W        W30926   6.972  40.800   3.295
65942W        W30927  18.679  11.226  12.499
65943W        W30928  12.222  43.344   1.428
65944W        W30929  43.439   5.946  11.996
65945W        W30930  33.613  19.811  10.761
65946W        W30931  11.288  35.559  13.000
65947W        W30932  32.091  18.436   4.464
65948W        W30933   8.216  35.059   3.342
65949W        W30934  43.890  11.372  14.819
65950W        W30935  38.553  17.845   2.165
65951W        W30936  37.173  38.680  13.630
65952W        W30937  32.927  34.102   3.514
65953W        W30938  38.780   5.822   4.352
65954W        W30939   6.946   9.874   3.180
65955W        W30940  31.068  17.186  11.595
65956W        W30941  12.813   7.451   0.303
65957W        W30942  14.167  13.761   0.317
65958W        W30943  32.350  25.035   1.425
65959W        W30944  33.945  24.503  11.499
65960W        W30945  35.424  28.570   1.926
65961W        W30946  12.397   2.620  11.559
65962W        W30947   0.778   0.049  11.510
65963W        W30948   3.594  26.241  12.972
65964W        W30949  25.880  28.625   3.360
65965W        W30950  42.519  43.321   3.599
65966W        W30951   9.762  31.047  14.554
65967W        W30952  19.821  18.750  13.993
65968W        W30953  42.294   6.845  13.031
65969W        W30954  11.875   0.449   4.052
65970W        W30955  13.657   9.143  10.919
65971W        W30956  28.104  10.098  14.323
65972W        W30957  15.092  14.233  12.421
65973W        W30958  10.655  13.841   1.792
65974W        W30959   6.492  14.538   0.535
65975W        W30960   5.508  14.352  11.158
65976W        W30961   0.986  27.021  13.005
65977W        W30962  25.195  32.444  14.434
65978W        W30963  23.137  37.567   3.657
65979W        W30964   0.513  29.567   4.205
65980W        W30965  25.964   6.382   0.993
65981W        W30966  31.613  38.300  12.096
65982W        W30967   2.935   9.336   0.804
65983W        W30968   0.316  28.926  10.670
65984W        W30969   3.291  42.349  12.085
65985W        W30970  37.114  36.436  10.940
65986W        W30971   6.729   2.905   2.412
65987W        W30972  10.856  17.823   1.726
65988W        W30973  31.458  16.836   0.361
65989W        W30974  19.451  10.722   4.849
65990W        W30975  34.040   4.692  10.898
65991W        W30976  43.983  25.755   4.156
65992W        W30977  14.265  20.234   2.253
65993W        W30978  20.147  37.286  11.637
65994W        W30979  40.056   6.638  12.466
65995W        W30980  26.640  20.525  11.271
65996W        W30981   5.243   6.701   0.297
65997W        W30982   4.446  28.069  13.920
65998W        W30983   8.299  44.410   4.101
65999W        W30984  32.360  18.538  11.673
66000W        W30985  14.586  44.894  12.185
66001W        W30986  37.535  12.763  13.859
66002W        W30987  21.120  43.214   3.620
66003W        W30988  13.204  18.649  11.517
66004W        W30989  34.115  12.762   3.471
66005W        W30990   7.717  32.551   4.227
66006W        W30991  38.195  13.690   4.731
66007W        W30992  24.500  23.126   2.166
66008W        W30993  38.877  41.299  10.780
66009W        W30994   4.363  25.225  14.813
66010W        W30995  18.828  27.880  11.368
66011W        W30996  35.434  42.414   0.365
66012W        W30997  40.933  36.915   1.788
66013W        W30998  13.501   4.022   3.068
66014W        W30999  32.057  34.714   2.315
66015W        W31000  34.669  18.735   0.046
66016W        W31001  43.361   9.394  10.645
66017W        W31002  29.727  39.214  10.735
66018W        W31003  36.792  44.255   1.251
66019W        W31004  24.690  38.448  14.492
66020W        W31005   8.652  13.317   2.821
66021W        W31006  37.976  21.862  14.794
66022W        W31007  12.138  15.104  13.439
66023W        W31008  39.072  25.528   2.255
66024W        W31009  30.559  22.878   2.130
66025W        W31010  11.041  34.342  12.566
66026W        W31011  23.009  26.616   4.535
66027W        W31012  29.827  36.872   4.671
66028W        W31013  37.951  16.873   4.090
66029W        W31014  24.159  36.549  10.957
66030W        W31015  30.446  14.898   3.362
66031W        W31016  19.695  20.516  14.708
66032W        W31017   1.365  22.947   1.786
66033W        W31018   6.757  24.440   3.121
66034W        W31019  39.854   6.245  10.657
66035W        W31020  36.612  20.495  14.757
66036W        W31021  28.223   4.869   4.502
66037W        W31022  38.329   9.998   0.375
66038W        W31023  24.296  32.457   3.987
66039W        W31024  12.730  18.062  14.399
66040W        W31025  40.961  22.960  14.779
66041W        W31026  24.294  18.332   2.823
66042W        W31027  17.977   5.894  12.502
66043W        W31028  25.475  12.746   2.356
66044W        W31029   6.870  19.742   2.411
66045W        W31030  18.600   0.187   2.887
66046W        W31031  26.950  34.956  11.294
66047W        W31032  25.936  18.078   1.505
66048W        W31033  41.546   8.762   0.838
66049W        W31034   3.175  43.260  12.885
66050W        W31035  17.830  13.606   1.398
66051W        W31036   6.859  31.064  14.758
66052W        W31037   4.354  17.781  10.949
66053W        W31038  36.490  21.932  14.427
66054W        W31039  33.821   7.920   1.248
66055W        W31040   8.996  26.422   2.211
66056W        W31041  27.132   0.770  14.294
66057W        W31042  35.681  33.025  12.165
66058W        W31043  28.352  15.093  13.996
66059W        W31044  37.290  21.223   4.118
66060W        W31045  41.314  34.922  14.832
66061W        W31046   4.885  31.638   1.339
66062W        W31047  24.680  29.939  12.593
66063W        W31048   4.070  32.583   4.883
66064W        W31049  26.990   9.740   1.711
66065W        W31050   9.122  15.849   3.178
66066W        W31051  19.652  25.945   4.225
66067W        W31052  26.135  25.573  10.563
66068W        W31053  10.621   2.719  14.494
66069W        W31054  13.059  14.721  14.838
66070W        W31055  38.045  17.846   2.275
66071W        W31056  28.173  43.953   2.658
66072W        W31057   9.584  25.196  14.957
66073W        W31058  35.887  43.415   0.016
66074W        W31059   0.970  22.119  12.626
66075W        W31060  37.156   9.787  10.534
66076W        W31061  30.559  12.214  11.630
66077W        W31062  44.418  34.065   0.352
66078W        W31063  11.849  36.726   3.123
66079W        W31064  23.111   3.619   2.286
66080W        W31065  16.051   4.375  13.501
66081W        W31066  12.170  17.717   1.365
66082W        W31067  29.585  10.799   4.765
66083W        W31068   8.294  12.323   4.220
66084W        W31069  13.228  10.899  14.087
66085W        W31070  27.578  43.018   0.341
66086W        W31071   1.155  23.214  10.417
66087W        W31072  34.552  13.139   1.907
66088W        W31073   6.273  39.812  12.029
66089W        W31074  28.345  39.394   2.559
66090W        W31075  14.082   6.384   3.390
66091W        W31076  11.417   4.706  13.414
66092W        W31077  18.642  44.008   3.711
66093W        W31078  32.961  15.073  12.158
66094W        W31079  29.527  16.536  13.097
66095W        W31080  20.550  37.358  14.934
66096W        W31081  31.675  18.552   1.024
66097W        W31082  42.005  10.635   0.902
66098W        W31083  33.861   7.687   2.323
66099W        W31084  22.133  36.852   0.714
66100W        W31085  22.682  23.517  11.663
66101W        W31086  44.081  42.980  13.500
66102W        W31087  37.262  13.516  14.239
66103W        W31088  23.206  27.453  13.857
66104W        W31089  29.084   4.987   0.360
66105W        W31090  33.422   4.309  10.820
66106W        W31091   9.396   6.861   1.981
66107W        W31092   3.715  40.037  12.970
66108W        W31093  40.203   2.445   2.964
66109W        W31094  19.767   2.286  13.971
66110W        W31095  26.536  12.081   1.863
66111W        W31096  44.774  18.186   3.532
66112W        W31097  12.791  33.356   3.273
66113W        W31098  24.602   7.933  11.609
66114W        W31099  12.780  29.062   5.255
66115W        W31100  20.805  28.172   4.123
66116W        W31101   6.924  26.150  11.886
66117W        W31102  36.093  35.807   1.346
66118W        W31103  12.814  12.002   1.109
66119W        W31104   8.101  29.572  11.102
66120W        W31105   6.398  16.208   3.394
66121W        W31106  16.635   6.446  13.376
66122W        W31107  29.875  42.165  11.661
66123W        W31108  42.426  31.705  11.629
66124W        W31109  42.786   4.818   4.147
66125W        W31110   2.495  18.477   2.124
66126W        W31111  13.307  39.522  11.237
66127W        W31112  27.484  39.959  12.819
66128W        W31113  27.731  27.002  13.523
66129W        W31114  23.755  44.237  12.513
66130W        W31115   3.807  14.001  11.205
66131W        W31116   7.206  35.957   2.275
66132W        W31117  32.575   9.305   2.200
66133W        W31118  13.645  10.143  14.310
66134W        W31119   8.303  36.010  13.858
66135W        W31120  29.070  38.335   1.328
66136W        W31121  39.992  10.363  13.953
66137W        W31122  25.773  41.214  10.080
66138W        W31123  14.440  29.579   1.935
66139W        W31124  43.915  40.763   0.173
66140W        W31125  12.146  13.595  14.530
66141W        W31126   0.791  27.868  11.183
66142W        W31127   9.221  12.348  12.528
66143W        W31128   4.512  31.371  14.744
66144W        W31129  36.404  35.530   4.434
66145W        W31130  22.139  40.496   4.380
66146W        W31131  29.413   7.457  13.742
66147W        W31132  23.279  15.808   1.286
66148W        W31133  17.365  41.444   1.291
66149W        W31134  15.816  25.726  12.969
66150W        W31135   6.828  24.495  14.527
66151W        W31136  29.222   4.482  11.009
66152W        W31137  25.204   3.424   2.388
66153W        W31138  27.637   1.345  12.444
66154W        W31139  32.655   0.051  12.403
66155W        W31140  16.722   3.478   0.662
66156W        W31141  37.832   8.648  11.684
66157W        W31142  28.336  21.174  12.520
66158W        W31143   5.480  33.727   4.531
66159W        W31144  39.083  23.598   1.377
66160W        W31145  18.780  34.619   0.885
66161W        W31146  20.727   7.830   3.211
66162W        W31147   1.974  41.741  13.855
66163W        W31148   9.710  21.683   3.716
66164W        W31149  25.442   7.829  14.100
66165W        W31150  33.396  25.606   4.999
66166W        W31151  18.332  12.833   3.302
66167W        W31152  32.361  34.842  11.560
66168W        W31153  29.577  40.314  11.234
66169W        W31154  11.649  36.616  11.282
66170W        W31155  17.708  26.163   3.532
66171W        W31156   8.319  26.486   1.805
66172W        W31157  31.377  27.907   4.543
66173W        W31158   4.921   1.283   3.094
66174W        W31159   2.497  36.939  12.102
66175W        W31160  41.963  32.909   1.176
66176W        W31161  23.164  10.789  13.831
66177W        W31162   5.969  20.143   1.285
66178W        W31163  13.113  42.246   3.603
66179W        W31164  29.090  16.144   4.918
66180W        W31165  29.748  24.913   4.957
66181W        W31166  23.636  21.518   1.964
66182W        W31167  40.614  26.600   3.681
66183W        W31168  44.936   2.685  10.680
66184W        W31169  31.043  43.771  12.516
66185W        W31170  39.611  24.613   2.436
66186W        W31171  35.418  29.145  12.350
66187W        W31172  41.698   2.473   1.271
66188W        W31173   6.986   6.763   3.380
66189W        W31174   2.359   7.384   2.819
66190W        W31175  11.890   9.741   4.210
66191W        W31176  30.720  28.131   2.773
66192W        W31177  28.461   6.601  11.139
66193W        W31178   1.307   6.394   3.283
66194W        W31179  24.595  43.986  12.594
66195W        W31180  19.456   5.511  12.845
66196W        W31181  17.913  36.906  13.504
66197W        W31182  17.957  31.164   3.147
66198W        W31183  10.112  27.141  14.931
66199W        W31184   4.698   9.624  12.973
66200W        W31185  37.119  24.292  12.801
66201W        W31186  43.251  34.985  14.446
66202W        W31187  44.038  44.713  13.726
66203W        W31188   5.404  41.596   3.206
66204W        W31189   6.978  31.248   4.218
66205W        W31190   8.432  13.613   2.152
66206W        W31191  16.882  43.338   2.179
66207W        W31192  33.118  39.796  11.516
66208W        W31193  40.909  25.277   3.550
66209W        W31194  41.025  10.708  12.576
66210W        W31195  23.279  22.568   4.285
66211W        W31196  42.079   4.863  12.469
66212W        W31197   4.972  44.694  11.934
66213W        W31198  27.041  41.758   4.568
66214W        W31199  19.697  16.006  14.946
66215W        W31200  27.577  31.638  12.921
66216W        W31201   5.196   1.227  11.230
66217W        W31202  18.838  10.630   1.289
66218W        W31203  34.039  43.672   1.457
66219W        W31204  11.757   9.785   3.547
66220W        W31205   5.373  22.623  12.657
66221W        W31206  44.299   8.896   0.853
66222W        W31207   6.313  39.567  13.727
66223W        W31208  27.746  14.935   3.606
66224W        W31209  18.208  15.792  12.194
66225W        W31210  32.608   7.460  12.900
66226W        W31211  21.813   2.226   4.140
66227W        W31212  34.480   1.850   0.842
66228W        W31213  20.969  11.179  11.220
66229W        W31214  26.478  39.770   2.138
66230W        W31215  12.720  16.220  12.027
66231W        W31216   2.017  30.033   4.869
66232W        W31217  39.510   9.642  14.407
66233W        W31218  14.861  20.791  14.920
66234W        W31219  43.839  37.317   1.807
66235W        W31220   8.792  17.512   4.241
66236W        W31221  29.806  38.367   3.715
66237W        W31222  13.231   1.404  13.531
66238W        W31223  25.915  19.021   4.098
66239W        W31224  31.038  13.703   1.901
66240W        W31225  12.917   9.383  11.067
66241W        W31226  37.875  13.030  13.565
66242W        W31227  38.438   9.886  13.059
66243W        W31228  21.611  14.795  13.796
66244W        W31229  22.429  18.607   3.739
66245W        W31230  21.161  44.104   0.266
66246W        W31231   8.108  12.467   1.210
66247W        W31232  41.940  44.733  12.944
66248W        W31233  19.048  44.189  12.001
66249W        W31234  38.066  18.481   0.893
66250W        W31235  39.077   2.304  14.774
66251W        W31236  42.053  28.756   3.268
66252W        W31237  30.771  44.196   0.426
66253W        W31238  34.623  26.362  14.609
66254W        W31239  13.127  11.423   2.893
66255W        W31240  32.936   7.433   1.295
66256W        W31241   6.143   8.838   1.552
66257W        W31242  34.183  23.461   1.386
66258W        W31243  39.382   4.768   1.776
66259W        W31244  28.526  17.674  11.843
66260W        W31245   0.011  38.883   2.670
66261W        W31246  10.396  10.587   1.330
66262W        W31247  35.952  11.235  11.637
66263W        W31248  44.244   1.903  12.992
66264W        W31249  20.629   0.628   3.441
66265W        W31250  34.926  13.308   4.271
66266W        W31251  34.515  29.389  11.899
66267W        W31252  18.780  38.614  10.771
66268W        W31253  10.637  10.707   1.783
66269W        W31254  20.299  32.500  12.863
66270W        W31255  38.882  34.915   3.117
66271W        W31256  28.957  24.408  12.388
66272W        W31257   6.446  38.901   3.229
66273W        W31258  34.170   6.889   1.668
66274W        W31259  38.488  22.457  14.619
66275W        W31260   4.255  21.677   2.290
66276W        W31261  41.816  40.333   4.064
66277W        W31262  43.211  16.113   1.744
66278W        W31263  11.623  43.044   4.864
66279W        W31264  40.620  19.210  12.807
66280W        W31265  34.792  22.080   1.162
66281W        W31266  15.490  37.408  13.071
66282W        W31267  39.824  14.853  13.128
66283W        W31268  42.102  14.684  14.049
66284W        W31269   9.026  23.688  11.242
66285W        W31270  43.816  16.770   9.819
66286W        W31271  38.601  14.196   0.299
66287W        W31272  25.012  17.393   3.003
66288W        W31273  22.128   1.350  13.441
66289W        W31274   4.310   7.938  11.035
66290W        W31275  28.206  43.547  13.548
66291W        W31276  39.297  19.213  11.047
66292W        W31277   6.698  30.066   2.862
66293W        W31278  32.145  22.103   2.638
66294W        W31279  17.067  17.556  14.039
66295W        W31280  15.222   3.157  11.136
66296W        W31281  22.104  17.229  14.477
66297W        W31282  17.178  10.360   4.612
66298W        W31283   3.950   4.171   2.394
66299W        W31284  30.174  15.146   0.830
66300W        W31285   0.783  36.980   9.805
66301W        W31286  27.196  33.006   2.934
66302W        W31287  26.851  23.062  11.458
66303W        W31288  29.403  13.044   0.484
66304W        W31289   5.403  20.468   3.132
66305W        W31290  40.341  22.259   3.363
66306W        W31291   1.421  10.351   2.851
66307W        W31292  30.401  40.675   0.422
66308W        W31293  16.515  25.169   0.984
66309W        W31294  15.698  27.458  13.028
66310W        W31295  34.576   3.834   3.352
66311W        W31296  35.007  15.384  14.472
66312W        W31297  37.515  11.748  11.222
66313W        W31298  15.570  23.475  14.400
66314W        W31299  13.669  14.613   0.471
66315W        W31300  40.504   7.295   3.190
66316W        W31301  11.717   0.836  13.021
66317W        W31302   1.509  19.699  14.360
66318W        W31303  10.619  31.712  11.410
66319W        W31304  15.836  16.124  14.052
66320W        W31305  22.518   7.683   2.216
66321W        W31306  25.774  17.618  11.446
66322W        W31307   8.614  14.584   0.837
66323W        W31308  29.578  28.026  14.850
66324W        W31309   2.474  36.540   2.650
66325W        W31310  20.484  24.304  11.514
66326W        W31311  11.604  42.301  12.011
66327W        W31312   0.211  38.073   1.253
66328W        W31313  22.159  36.757   1.783
66329W        W31314  29.493  15.694   1.122
66330W        W31315  38.306  22.564   0.744
66331W        W31316  18.377  14.537   2.642
66332W        W31317   2.350  29.709   4.605
66333W        W31318  32.435  11.849  14.887
66334W        W31319  14.995  18.680   4.974
66335W        W31320  33.648  44.953  13.211
66336W        W31321  41.943  41.373   0.680
66337W        W31322   7.738  25.147  13.466
66338W        W31323  25.836  28.602   3.856
66339W        W31324  22.255  35.079  11.509
66340W        W31325  13.645  23.541   0.046
66341W        W31326  29.612  21.675  13.540
66342W        W31327   9.781  10.386  12.409
66343W        W31328  26.534   3.490   0.955
66344W        W31329   3.331  13.920  14.219
66345W        W31330  44.905  36.399   0.492
66346W        W31331  32.904  35.027  14.326
66347W        W31332  19.462  38.204   4.156
66348W        W31333  23.242  44.322   0.420
66349W        W31334   0.388  31.677  14.178
66350W        W31335  36.385  21.413  13.259
66351W        W31336  20.131   4.463  11.102
66352W        W31337  35.652  42.885   4.047
66353W        W31338  23.036  40.338   1.413
66354W        W31339  36.963  11.397   1.464
66355W        W31340  39.366   0.353  13.968
66356W        W31341  44.276   2.016  12.149
66357W        W31342  44.761  25.556   0.437
66358W        W31343  26.355  29.106  12.790
66359W        W31344  34.796  31.634  13.023
66360W        W31345  12.082   9.822   2.502
66361W        W31346  36.981   8.638  10.559
66362W        W31347   2.768  33.373  14.767
66363W        W31348  43.381   4.687   3.236
66364W        W31349  13.963  24.684   1.012
66365W        W31350   4.726  42.461   0.628
66366W        W31351  35.441   2.944  11.212
66367W        W31352   8.759   1.524  12.875
66368W        W31353  35.319   3.198   2.679
66369W        W31354   8.701  31.017  10.933
66370W        W31355  20.068  23.001  12.394
66371W        W31356  29.499  22.621   1.196
66372W        W31357  14.087  18.813   1.872
66373W        W31358  33.708   5.216   0.991
66374W        W31359   2.957  35.044   3.235
66375W        W31360  19.691  31.467  13.269
66376W        W31361  26.496  36.051  11.112
66377W        W31362  23.087  43.718  13.324
66378W        W31363  25.580  17.712  14.001
66379W        W31364  25.992  29.098  10.752
66380W        W31365   8.428  17.949  11.208
66381W        W31366  33.180   7.052   3.262
66382W        W31367  20.251  13.321   2.212
66383W        W31368  22.591  19.613  10.660
66384W        W31369   2.917  23.157  12.954
66385W        W31370  30.544  25.690  13.236
66386W        W31371   7.872  22.352   4.561
66387W        W31372  15.319  33.591  11.051
66388W        W31373  16.184  11.302   4.148
66389W        W31374  30.668  24.717   3.932
66390W        W31375  14.725  17.056   2.821
66391W        W31376  17.918  37.025   3.804
66392W        W31377  32.689  23.432   3.830
66393W        W31378  19.267  29.370   1.821
66394W        W31379  23.670  30.318  14.478
66395W        W31380  38.735  44.453   4.980
66396W        W31381  29.015  12.859   1.063
66397W        W31382   1.786  23.737   1.189
66398W        W31383  32.143  36.604  13.384
66399W        W31384  36.559  27.917  14.400
66400W        W31385  41.210  14.633  12.932
66401W        W31386  14.876  22.115   1.617
66402W        W31387  41.580  39.488  10.910
66403W        W31388  23.355  28.712  14.322
66404W        W31389  21.532   4.140   1.280
66405W        W31390  37.929  34.023  10.930
66406W        W31391  37.363   9.850  14.439
66407W        W31392  13.884  40.419   3.886
66408W        W31393   0.272  13.934   1.451
66409W        W31394   1.804  40.102   4.863
66410W        W31395   6.948  36.303  10.798
66411W        W31396  21.585  29.467   1.505
66412W        W31397   4.753  38.889  14.393
66413W        W31398  16.084   0.255  12.074
66414W        W31399   2.439  39.820   1.125
66415W        W31400  25.751  13.708  14.776
66416W        W31401  41.835  39.310  12.381
66417W        W31402   8.428   1.808   1.721
66418W        W31403  33.082  19.123   0.838
66419W        W31404  28.138  33.348   1.313
66420W        W31405  20.763  13.555   0.782
66421W        W31406  25.458   7.604   0.418
66422W        W31407   3.170  41.278  14.344
66423W        W31408   6.250  37.469  13.199
66424W        W31409  15.666  43.483  11.443
66425W        W31410   6.678  40.752   3.716
66426W        W31411  32.975  23.840  12.722
66427W        W31412  16.620   4.856   1.271
66428W        W31413   6.170  29.439   1.976
66429W        W31414  34.437  21.535   3.199
66430W        W31415  30.354  37.713   4.600
66431W        W31416  27.083  43.965   4.408
66432W        W31417  35.722  11.592   1.320
66433W        W31418  13.395  23.857   2.267
66434W        W31419  38.521  11.767   4.380
66435W        W31420  37.521  44.721   2.684
66436W        W31421  34.156   8.251  14.364
66437W        W31422  24.589   9.744   3.693
66438W        W31423  10.351  12.080  14.430
66439W        W31424   2.128  31.112   1.287
66440W        W31425  12.434  40.089  13.035
66441W        W31426  31.042  28.067  13.949
66442W        W31427  21.475   4.431  14.478
66443W        W31428  13.971  29.068   0.884
66444W        W31429   7.829  23.785  10.646
66445W        W31430  13.557  17.891  13.500
66446W        W31431  41.293  37.602  14.792
66447W        W31432   4.795  39.038   1.450
66448W        W31433  23.202  17.257  10.965
66449W        W31434   7.335  28.256   1.194
66450W        W31435   0.576   2.348   5.182
66451W        W31436   3.660  15.310  11.734
66452W        W31437   1.252  38.573  10.754
66453W        W31438  32.111  14.858   4.569
66454W        W31439  37.121  23.542  10.795
66455W        W31440  10.414  15.814  14.756
66456W        W31441  29.618  32.918  13.419
66457W        W31442  14.737  32.617  13.929
66458W        W31443  31.635  43.003   4.457
66459W        W31444  33.090  14.775   4.874
66460W        W31445  32.715   4.233   1.869
66461W        W31446  38.588  15.975  12.822
66462W        W31447   3.835  25.659   3.874
66463W        W31448   7.146  37.398   3.656
66464W        W31449  12.662  29.247  12.491
66465W        W31450  40.104  37.966   2.981
66466W        W31451   7.904   1.158  12.133
66467W        W31452  37.400  37.739   3.302
66468W        W31453  43.929  25.957   4.623
66469W        W31454  44.546  31.858   4.120
66470W        W31455  14.271  35.606  11.190
66471W        W31456  20.128  17.285   1.681
66472W        W31457   4.932  40.220   3.407
66473W        W31458  35.543  23.799   2.248
66474W        W31459   5.284  37.399  11.566
66475W        W31460  12.193   3.361  11.079
66476W        W31461  28.617  24.279  13.444
66477W        W31462  23.239  23.384  11.168
66478W        W31463   5.373  11.684   1.222
66479W        W31464  18.628   7.383  13.253
66480W        W31465   2.114  23.767  12.949
66481W        W31466  13.749  25.613  11.259
66482W        W31467  18.645   0.514   3.762
66483W        W31468   1.497  31.209   0.393
66484W        W31469  18.519  10.360  11.980
66485W        W31470  37.628  37.044  10.287
66486W        W31471  24.144  25.754  13.021
66487W        W31472  13.010   5.450   0.690
66488W        W31473   8.822   6.875   5.002
66489W        W31474   6.345  37.787   2.719
66490W        W31475  32.537  14.203   2.781
66491W        W31476  29.810  39.347  11.553
66492W        W31477  24.551  38.310   4.218
66493W        W31478  42.206  33.086   3.185
66494W        W31479   6.235  29.823   1.611
66495W        W31480  14.748  31.527   4.408
66496W        W31481   7.628   4.639   1.682
66497W        W31482   2.470  20.527   2.621
66498W        W31483  35.208  29.564   4.290
66499W        W31484  33.331  40.079  10.543
66500W        W31485  43.490   0.925  13.860
66501W        W31486   7.342  16.579  12.873
66502W        W31487  19.869  35.772  14.432
66503W        W31488  13.880   8.773  10.251
66504W        W31489  43.663  41.814   0.406
66505W        W31490   9.865  43.224   4.196
66506W        W31491  35.259  19.168  12.992
66507W        W31492  20.161  20.450   4.565
66508W        W31493  41.318  33.068   3.155
66509W        W31494  25.364  39.710   0.894
66510W        W31495  22.949   7.834  13.758
66511W        W31496  26.642   5.860  13.683
66512W        W31497   3.364  14.775  14.876
66513W        W31498  39.126  10.676  14.692
66514W        W31499  17.126  38.390   3.404
66515W        W31500  13.784  30.815  10.732
66516W        W31501   5.166  26.171   3.810
66517W        W31502  36.527   2.902  11.102
66518W        W31503   4.022  12.763   3.736
66519W        W31504  15.716  11.301  10.237
66520W        W31505  14.870  25.660  14.376
66521W        W31506   2.531  34.706   3.271
66522W        W31507  10.414  30.128   4.652
66523W        W31508  43.931  35.767   1.706
66524W        W31509  35.077  21.995  14.787
66525W        W31510  20.079  23.510  13.377
66526W        W31511   4.893  36.594  11.631
66527W        W31512  21.165  39.525   2.595
66528W        W31513   5.148   0.298   4.548
66529W        W31514  11.125  39.517  14.077
66530W        W31515  42.074  32.636  12.528
66531W        W31516   6.182  42.898   3.513
66532W        W31517  29.704  22.697   1.682
66533W        W31518  19.929   6.391  11.510
66534W        W31519  15.732  38.791   5.019
66535W        W31520  43.550  21.479   2.169
66536W        W31521  26.506  37.579   0.397
66537W        W31522   7.494  13.628   2.397
66538W        W31523  32.395   0.420   2.776
66539W        W31524  17.232  44.539   3.970
66540W        W31525  39.354  25.091   2.305
66541W        W31526  18.599  29.191  14.725
66542W        W31527  25.896  17.262   0.365
66543W        W31528  24.192   3.445  12.606
66544W        W31529   7.718  31.545   1.674
66545W        W31530  35.510  27.995   0.198
66546W        W31531  23.555  14.068  14.054
66547W        W31532  12.705  24.972  13.535
66548W        W31533  22.000  26.702   0.905
66549W        W31534  30.530  16.255  13.562
66550W        W31535   2.203  39.680  12.892
66551W        W31536  40.917  14.585  12.489
66552W        W31537  30.229  10.530  12.920
66553W        W31538  35.612  38.946  11.641
66554W        W31539   7.228  39.513   3.721
66555W        W31540  28.563  30.514   1.967
66556W        W31541  28.971  42.190  12.427
66557W        W31542  16.551  32.105   3.318
66558W        W31543   8.562  35.443   1.588
66559W        W31544  42.601   9.924  13.298
66560W        W31545   2.825  18.704  12.936
66561W        W31546  27.150   8.213  12.091
66562W        W31547  32.912  15.261   0.759
66563W        W31548   8.380  27.461   2.676
66564W        W31549  15.133  26.576  13.922
66565W        W31550  13.229  25.942   2.897
66566W        W31551  16.389  24.973   4.777
66567W        W31552  38.029  39.894  12.496
66568W        W31553  29.836  41.228   3.504
66569W        W31554  42.227  21.552  13.627
66570W        W31555  30.942   1.606  10.089
66571W        W31556  15.039  41.710  12.481
66572W        W31557   4.626  35.387  11.103
66573W        W31558  24.950   7.926  13.171
66574W        W31559  36.343  15.643  14.953
66575W        W31560  41.263  23.140  12.225
66576W        W31561  29.605  40.274  13.398
66577W        W31562  26.467  33.077  10.711
66578W        W31563  42.514  16.650  14.306
66579W        W31564  23.762  14.410   0.926
66580W        W31565  13.610   3.990  13.550
66581W        W31566  37.019  12.384   1.247
66582W        W31567  13.835  13.269  12.902
66583W        W31568  40.293  14.587  13.063
66584W        W31569  34.872   1.578   1.526
66585W        W31570   4.475   7.817   4.325
66586W        W31571   9.273  16.055  13.781
66587W        W31572  28.942  34.793  10.816
66588W        W31573  42.231  20.643   0.500
66589W        W31574  30.035  21.719   0.968
66590W        W31575  37.945  22.675   4.826
66591W        W31576  37.091  38.298  10.673
66592W        W31577  10.781   8.091  14.242
66593W        W31578  30.879  29.027  13.883
66594W        W31579  24.836   3.340  13.027
66595W        W31580  12.239   2.454  13.770
66596W        W31581  11.304  35.554   3.473
66597W        W31582  25.196   4.947  13.352
66598W        W31583   9.751  25.775   1.411
66599W        W31584  22.465   0.833  14.071
66600W        W31585   2.779   4.817   0.338
66601W        W31586  27.562  33.887   2.237
66602W        W31587  33.594  32.394  14.866
66603W        W31588  29.488   1.984   1.308
66604W        W31589   8.863  19.044  10.737
66605W        W31590   0.494   9.182  13.371
66606W        W31591  11.318  29.740   4.919
66607W        W31592  32.463  23.481   1.388
66608W        W31593   0.741  14.875   0.996
66609W        W31594  10.076   1.659   3.760
66610W        W31595  42.415  18.296   1.810
66611W        W31596  22.025  29.820   4.637
66612W        W31597  40.208   7.715  13.901
66613W        W31598   3.855  13.516  10.999
66614W        W31599  37.570  42.475   3.746
66615W        W31600  40.058  24.282   4.838
66616W        W31601  37.807   8.519  14.309
66617W        W31602  18.411  19.664  14.505
66618W        W31603  27.200  39.658  13.380
66619W        W31604  22.559  21.647   1.907
66620W        W31605   1.293   3.653   4.189
66621W        W31606  38.524   6.222   0.551
66622W        W31607  31.915  21.022  11.016
66623W        W31608  39.494   5.880  14.761
66624W        W31609  21.081  28.480   1.150
66625W        W31610  29.136   1.461   3.295
66626W        W31611   3.610  16.839  14.966
66627W        W31612  15.800  21.577   1.757
66628W        W31613  19.374  16.867  13.008
66629W        W31614   1.062   7.650  13.447
66630W        W31615  31.380  36.925   1.332
66631W        W31616  41.435  31.685   4.632
66632W        W31617  32.672  17.718   0.910
66633W        W31618  33.501  16.404   2.116
66634W        W31619  39.094  42.860   0.489
66635W        W31620   5.075  32.045   2.168
66636W        W31621   6.749   2.059   2.825
66637W        W31622  21.068  44.029  13.635
66638W        W31623  34.910  29.907   3.138
66639W        W31624  15.735   1.198  12.100
66640W        W31625  28.053  37.048  14.803
66641W        W31626   0.257  13.648  13.185
66642W        W31627   8.757  27.932   1.504
66643W        W31628  16.566  41.469  12.116
66644W        W31629  17.760  27.627  12.825
66645W        W31630  19.508  20.125  13.446
66646W        W31631  24.162  15.277  14.329
66647W        W31632  25.041   6.932  12.875
66648W        W31633  10.220  28.845  14.507
66649W        W31634  43.681  34.670   4.161
66650W        W31635  17.999   8.610  13.362
66651W        W31636  19.333  27.132  10.207
66652W        W31637  28.645  28.104   3.562
66653W        W31638  23.736   8.075   4.578
66654W        W31639  13.650  39.001   1.438
66655W        W31640  24.254  34.935  13.811
66656W        W31641  26.820  21.278   3.264
66657W        W31642   0.425  24.170  12.927
66658W        W31643  38.821  34.071   0.714
66659W        W31644  18.448  37.569  12.471
66660W        W31645  44.512   0.917  14.731
66661W        W31646  10.782  26.919  13.850
66662W        W31647  44.570   9.668  11.153
66663W        W31648  31.426  22.103   3.382
66664W        W31649  10.219  32.778   5.059
66665W        W31650   6.723  24.052  13.388
66666W        W31651  11.834  14.931  12.578
66667W        W31652  27.196   7.889   4.276
66668W        W31653   5.262  24.725   2.628
66669W        W31654  20.426   0.290  14.278
66670W        W31655  13.692   9.132   2.735
66671W        W31656  23.720  11.630  14.790
66672W        W31657  11.666  12.445   3.023
66673W        W31658  11.803  25.244  13.416
66674W        W31659  10.802  30.931   0.892
66675W        W31660  23.133   2.588  11.225
66676W        W31661  42.773   4.452  13.535
66677W        W31662  29.275  32.018  12.338
66678W        W31663  14.375  24.450  14.563
66679W        W31664  41.833  42.917  11.422
66680W        W31665  27.868  38.355  13.103
66681W        W31666  33.151   5.972   3.129
66682W        W31667  32.783  21.549  12.231
66683W        W31668  43.507   6.315   3.795
66684W        W31669  44.860  11.903  11.967
66685W        W31670  38.017  44.754   4.131
66686W        W31671  16.884  22.183  12.022
66687W        W31672   3.477  42.388  13.445
66688W        W31673  27.964   5.561   4.916
66689W        W31674  15.934   7.821  12.507
66690W        W31675  42.374   0.797   2.442
66691W        W31676  41.912   3.419   2.411
66692W        W31677  18.639   5.485   2.211
66693W        W31678   4.186  21.098  11.571
66694W        W31679   0.502  39.357   3.911
66695W        W31680  40.756  22.613  11.660
66696W        W31681   2.250  18.143  13.442
66697W        W31682  10.827   2.451   1.681
66698W        W31683  19.192  28.942   2.355
66699W        W31684   7.797   6.072  12.544
66700W        W31685  27.612  26.935   2.790
66701W        W31686  42.769  27.689  12.618
66702W        W31687  41.068   2.288  11.576
66703W        W31688   3.637  10.616  13.626
66704W        W31689  10.756   3.266  11.491
66705W        W31690  42.296  36.547   0.721
66706W        W31691  30.389   5.275   4.862
66707W        W31692   5.757   7.680   2.427
66708W        W31693   8.401  40.921   2.296
66709W        W31694  41.924  43.108   1.916
66710W        W31695  24.006   4.663   9.849
66711W        W31696  16.085  28.557   1.836
66712W        W31697  38.879  25.941   0.717
66713W        W31698  43.487   1.723   2.234
66714W        W31699  42.939  30.382   2.307
66715W        W31700   4.392  15.350  11.072
66716W        W31701   5.330   8.789   4.534
66717W        W31702   0.016  38.051   1.766
66718W        W31703  11.315  11.764   4.142
66719W        W31704   1.798  38.731   3.667
66720W        W31705  26.595  19.028  14.286
66721W        W31706   9.938  42.898  13.879
66722W        W31707  31.078  43.061  13.062
66723W        W31708  23.082  29.526   3.265
66724W        W31709  15.857  24.628   3.664
66725W        W31710  11.282  12.961   1.904
66726W        W31711  14.080  35.462  11.657
66727W        W31712  38.601  29.071   2.780
66728W        W31713  21.300   5.426  14.808
66729W        W31714  41.278  26.182  11.191
66730W        W31715  37.525  11.335   0.513
66731W        W31716  28.205  44.972   1.179
66732W        W31717   4.072  12.820  13.893
66733W        W31718  33.608  11.924   2.976
66734W        W31719   0.746  22.457   9.577
66735W        W31720  14.184  33.469   3.844
66736W        W31721  12.394  35.510   2.803
66737W        W31722  16.991  41.830  11.668
66738W        W31723   5.501  19.812  11.954
66739W        W31724   2.943  12.629   0.518
66740W        W31725   8.977  17.729  11.569
66741W        W31726  31.735  17.492  14.818
66742W        W31727  14.898  43.701  10.715
66743W        W31728  24.348  29.511   1.224
66744W        W31729  38.690  28.681   4.527
66745W        W31730  14.463  22.259  14.959
66746W        W31731  36.846   8.054  12.076
66747W        W31732   3.116  37.559   4.111
66748W        W31733  41.205  19.294  14.386
66749W        W31734  26.672  35.779  10.728
66750W        W31735  24.013  36.401   4.522
66751W        W31736  33.183  11.280  14.551
66752W        W31737  42.597   5.550   0.023
66753W        W31738  18.341  25.026  10.434
66754W        W31739   8.829  19.007   0.532
66755W        W31740  27.071  27.454   3.077
66756W        W31741  17.494  22.738   1.193
66757W        W31742  29.637  31.547  14.303
66758W        W31743   6.351   6.180  13.341
66759W        W31744  28.393  20.187  10.712
66760W        W31745  32.345  12.644  13.570
66761W        W31746  44.510   5.918   1.206
66762W        W31747  19.138   1.038  13.286
66763W        W31748   0.343  36.021   4.161
66764W        W31749  35.968  22.465  13.846
66765W        W31750   2.767   5.135  13.505
66766W        W31751   8.611  19.504  11.693
66767W        W31752   8.940  23.975   0.264
66768W        W31753  41.378  37.338  11.305
66769W        W31754  44.344   5.810   3.622
66770W        W31755  35.566  31.471   1.604
66771W        W31756  21.968  36.935   2.717
66772W        W31757  38.626  26.709  12.875
66773W        W31758  35.842  26.979   0.936
66774W        W31759  24.083  23.950  11.259
66775W        W31760  37.140   0.534  14.469
66776W        W31761  40.818  20.748   0.093
66777W        W31762  40.149   3.800   2.817
66778W        W31763  20.620   2.997  10.717
66779W        W31764  33.927  17.997   4.521
66780W        W31765  17.068  19.628   1.910
66781W        W31766  30.438  24.964  14.954
66782W        W31767  17.949   1.592   4.584
66783W        W31768  44.859   1.913   1.954
66784W        W31769  33.844  25.429  10.632
66785W        W31770  31.883  11.971   1.776
66786W        W31771  39.288  16.528   3.173
66787W        W31772  22.305  28.598  14.300
66788W        W31773   0.332   1.896   2.167
66789W        W31774  43.730  32.237   4.072
66790W        W31775  22.015  44.008  13.448
66791W        W31776  15.615  35.321   1.877
66792W        W31777  37.383   5.706   4.535
66793W        W31778  19.732   6.420  14.000
66794W        W31779  10.607  17.163   2.286
66795W        W31780  14.545  17.486  14.361
66796W        W31781  33.370  42.866  13.747
66797W        W31782   8.495  33.088   0.277
66798W        W31783  42.330  33.977  14.842
66799W        W31784  40.826  33.314   9.734
66800W        W31785   9.315  16.101  12.921
66801W        W31786  20.727  25.095   1.461
66802W        W31787  15.345  42.860   0.275
66803W        W31788  35.387  43.213   3.176
66804W        W31789  17.850  23.499  12.036
66805W        W31790   9.238  20.017  11.971
66806W        W31791  11.170  14.624   2.511
66807W        W31792  31.483  40.669  12.069
66808W        W31793   3.014   7.456  13.949
66809W        W31794  38.838  40.576   1.875
66810W        W31795   1.035   5.245  12.433
66811W        W31796  12.779  29.648   2.195
66812W        W31797  22.745  24.704   0.648
66813W        W31798   9.502  25.496  12.043
66814W        W31799  20.098  26.851   1.733
66815W        W31800  11.631  40.543   2.199
66816W        W31801  15.192  41.563  10.566
66817W        W31802  33.640  31.987   1.831
66818W        W31803  30.710  23.083   4.855
66819W        W31804  34.960  27.360   0.274
66820W        W31805  15.074  19.768   2.241
66821W        W31806  34.346  40.332   1.825
66822W        W31807  16.431  10.702   0.898
66823W        W31808  11.596  25.403   3.137
66824W        W31809  28.984  23.603  10.685
66825W        W31810  32.461  10.783   2.311
66826W        W31811  16.110  34.093   3.062
66827W        W31812  36.396  41.438  10.938
66828W        W31813  13.281  28.077  11.661
66829W        W31814   6.416  30.609  13.912
66830W        W31815  19.719  12.412   3.831
66831W        W31816  41.348  29.357  10.703
66832W        W31817  35.464   3.939  14.963
66833W        W31818  32.703   5.225   3.086
66834W        W31819   2.946  32.959   4.236
66835W        W31820   2.711  18.695   0.746
66836W        W31821  44.346   7.382   0.734
66837W        W31822  28.380  28.676   2.157
66838W        W31823  30.382  37.455  13.060
66839W        W31824  28.271   2.945  12.016
66840W        W31825  20.486  42.367  11.608
66841W        W31826  15.331  10.433  13.391
66842W        W31827  35.159   1.283  10.757
66843W        W31828  10.398  30.574  14.035
66844W        W31829  36.450  28.191   4.599
66845W        W31830   8.104   8.238   1.844
66846W        W31831  12.253  24.644   2.477
66847W        W31832  27.441  32.227   4.317
66848W        W31833  13.766  40.121  13.450
66849W        W31834  34.821  34.614   1.804
66850W        W31835   4.151  24.759  11.132
66851W        W31836  36.240   4.623  14.435
66852W        W31837   0.620  24.714   2.723
66853W        W31838   9.358   1.802  11.297
66854W        W31839   1.849  21.593   0.224
66855W        W31840   6.429  20.758   4.694
66856W        W31841  33.682  35.436  12.700
66857W        W31842  32.211  37.062  14.201
66858W        W31843  11.263  21.695   3.835
66859W        W31844  17.201   4.292   1.873
66860W        W31845  18.255  23.755  14.706
66861W        W31846  40.725  20.786   4.104
66862W        W31847  32.431   1.340  12.055
66863W        W31848  31.392  22.286  11.468
66864W        W31849   2.537  22.968  13.522
66865W        W31850  27.544  21.104  11.187
66866W        W31851  34.194  27.161  12.033
66867W        W31852  11.764  39.468  11.154
66868W        W31853  25.291  29.721  11.207
66869W        W31854   1.162  36.787  10.545
66870W        W31855   9.174  17.741  12.870
66871W        W31856  17.621   1.912  12.390
66872W        W31857  28.562  28.829  13.716
66873W        W31858  22.151  20.456   4.121
66874W        W31859  26.797  25.653   4.544
66875W        W31860  14.340  27.107  13.780
66876W        W31861  10.745  28.919  13.817
66877W        W31862  42.245  13.739   9.617
66878W        W31863  17.534  24.049  11.206
66879W        W31864  19.341  19.609   3.118
66880W        W31865  27.531  42.909   1.386
66881W        W31866   3.816   0.568  12.946
66882W        W31867   6.916   7.301   1.748
66883W        W31868  44.020  16.067   3.652
66884W        W31869  17.284   0.940   1.204
66885W        W31870  18.797  37.918  12.030
66886W        W31871  36.531  19.938   4.214
66887W        W31872  38.776  18.979  13.278
66888W        W31873  33.205  43.565  12.798
66889W        W31874  41.962  26.479   2.486
66890W        W31875   1.749  28.961   0.822
66891W        W31876  32.949  21.148  11.449
66892W        W31877  38.492   4.894  10.557
66893W        W31878   6.179  25.789   1.160
66894W        W31879  13.245  35.515   3.410
66895W        W31880   5.493  14.772   1.725
66896W        W31881  24.326  37.456  12.546
66897W        W31882  41.792  26.341  11.295
66898W        W31883   4.312  37.718  14.160
66899W        W31884  39.888  30.450   0.019
66900W        W31885   6.395  26.806   0.289
66901W        W31886  30.932   7.055  11.195
66902W        W31887   7.969  19.031  11.226
66903W        W31888  41.376  14.970  13.494
66904W        W31889  41.957  33.546   0.468
66905W        W31890   3.500   8.170  13.722
66906W        W31891  17.515  14.734  12.497
66907W        W31892  28.033  23.467  10.899
66908W        W31893  29.514  28.838   2.718
66909W        W31894   3.256  36.192   4.578
66910W        W31895  18.858   8.824  10.702
66911W        W31896  30.876  37.982  11.551
66912W        W31897  37.593  38.480  11.903
66913W        W31898  43.374  32.961   0.306
66914W        W31899  43.981  41.956  13.743
66915W        W31900  10.174   8.379   3.246
66916W        W31901  23.577  17.768   4.420
66917W        W31902  36.588   1.856  13.838
66918W        W31903  27.059   7.218  11.715
66919W        W31904  44.383  44.249  13.565
66920W        W31905  15.159  24.211   2.171
66921W        W31906  31.172  10.968   2.527
66922W        W31907  36.308  44.731  13.080
66923W        W31908  40.407  11.346  13.689
66924W        W31909   8.617  42.928  13.967
66925W        W31910  34.261  17.168   1.520
66926W        W31911  12.957  26.932   0.765
66927W        W31912  28.681  36.360   2.740
66928W        W31913   3.012  38.410   4.791
66929W        W31914  30.548  23.014   3.855
66930W        W31915  12.540   0.720  13.369
66931W        W31916  20.979  11.703  14.435
66932W        W31917  27.030  18.292   2.269
66933W        W31918  16.769   5.855   4.522
66934W        W31919  37.806  24.538  10.854
66935W        W31920  43.889  37.141  14.371
66936W        W31921  34.381   7.362   1.732
66937W        W31922   1.156  29.160  12.549
66938W        W31923  37.243  12.219   2.818
66939W        W31924   0.428  42.563  12.027
66940W        W31925   1.376   6.362  12.113
66941W        W31926  27.443   1.830  12.349
66942W        W31927  20.197  22.193   3.906
66943W        W31928  40.801   3.880  14.382
66944W        W31929   4.279  30.252  10.370
66945W        W31930  14.927  33.068   1.466
66946W        W31931  10.412  41.796   2.767
66947W        W31932  34.880   6.460   0.427
66948W        W31933  32.456   0.234   1.151
66949W        W31934  22.241   5.537   1.722
66950W        W31935  18.553  24.463   2.823
66951W        W31936  25.692  10.759   1.913
66952W        W31937  31.058  15.631  10.354
66953W        W31938   7.669  33.124  11.020
66954W        W31939  16.428  29.898  14.839
66955W        W31940  44.251  12.384   1.364
66956W        W31941  30.605  43.954  11.504
66957W        W31942   3.675  25.687  13.062
66958W        W31943  21.869   4.262   4.073
66959W        W31944   8.687  17.588   0.358
66960W        W31945  20.707   7.372   0.026
66961W        W31946  35.659  37.905  12.969
66962W        W31947   4.741  21.070  14.980
66963W        W31948  12.873  10.794   3.223
66964W        W31949  34.505  43.080   3.156
66965W        W31950  40.816  10.600  11.232
66966W        W31951  34.655  31.447   3.704
66967W        W31952   8.776  22.662   1.712
66968W        W31953   2.896  24.154   1.976
66969W        W31954  32.856  42.391  13.762
66970W        W31955  15.626  27.442  14.024
66971W        W31956   4.414  33.451  13.452
66972W        W31957  32.173   4.000  12.798
66973W        W31958  28.507  42.229  13.224
66974W        W31959  34.682   4.821   1.894
66975W        W31960  23.871   5.856  11.780
66976W        W31961  11.701  40.210   4.122
66977W        W31962  21.232  34.914   3.120
66978W        W31963  37.166  15.809  13.910
66979W        W31964  11.858  23.290  10.622
66980W        W31965   0.844  20.708   0.725
66981W        W31966  31.509  25.546  12.299
66982W        W31967  28.528  11.837  12.062
66983W        W31968  28.712  18.534   2.854
66984W        W31969  39.824  16.640  11.190
66985W        W31970   9.488   9.651   4.187
66986W        W31971   6.612   2.038  11.745
66987W        W31972  32.671  44.868   0.350
66988W        W31973  27.919  22.721   3.695
66989W        W31974   8.718  32.156   2.741
66990W        W31975  18.559  10.843   0.913
66991W        W31976  29.150  42.334   4.790
66992W        W31977  24.680  17.059   3.789
66993W        W31978  27.624  17.104  12.529
66994W        W31979  10.308   5.427  10.020
66995W        W31980  27.239   7.701  14.860
66996W        W31981   2.363  20.565   4.117
66997W        W31982  41.511  32.722   0.983
66998W        W31983  34.860  38.051  12.398
66999W        W31984  29.552   0.586   3.689
67000W        W31985  11.292  14.181   3.771
67001W        W31986  35.124  16.752   2.792
67002W        W31987  18.206   7.894   3.260
67003W        W31988  21.004   4.546   4.106
67004W        W31989  12.282  31.844  12.092
67005W        W31990  42.863  39.680  14.499
67006W        W31991  16.036  29.909  14.524
67007W        W31992   4.435  30.037   1.432
67008W        W31993   0.737  37.683   2.081
67009W        W31994  30.104  11.835   4.753
67010W        W31995  19.305  44.266  14.752
67011W        W31996  28.457  16.352   2.194
67012W        W31997  34.642   1.862   0.310
67013W        W31998  33.306  23.269   4.729
67014W        W31999  25.077   8.105   2.632
67015W        W32000   7.860  27.065  14.239
67016W        W32001  35.883  42.507   4.391
67017W        W32002   4.206  26.750  14.835
67018W        W32003  19.534   2.591   0.306
67019W        W32004   9.216  24.233  14.269
67020W        W32005  29.427  29.955   9.774
67021W        W32006   6.971  11.645   2.723
67022W        W32007  41.583   6.450  12.583
67023W        W32008  31.369  42.620   1.872
67024W        W32009  44.991  20.769   0.280
67025W        W32010  19.608  38.575  14.047
67026W        W32011  15.250   6.308   2.873
67027W        W32012  31.878  39.894  10.725
67028W        W32013  22.293  15.286   2.441
67029W        W32014  40.470  22.576   1.434
67030W        W32015  19.244  39.448  11.937
67031W        W32016  22.915  33.618   2.728
67032W        W32017  31.064  30.139  14.439
67033W        W32018   8.853  12.986  13.813
67034W        W32019  43.730   5.764  12.541
67035W        W32020  33.820  11.770  10.650
67036W        W32021  14.660  18.652  11.862
67037W        W32022  18.199   2.273   3.637
67038W        W32023   2.414  29.507   0.772
67039W        W32024  36.608  26.024  12.970
67040W        W32025  28.033  43.891  13.884
67041W        W32026  25.480  38.028   4.949
67042W        W32027  34.576   4.215   1.122
67043W        W32028  32.538  27.577  11.365
67044W        W32029   8.426   8.620   1.775
67045W        W32030  27.955  36.979  11.986
67046W        W32031  18.699  33.999   3.933
67047W        W32032  12.152  12.861   2.188
67048W        W32033  32.973   8.755   2.760
67049W        W32034  42.842  14.736   3.211
67050W        W32035  39.629  44.240   4.707
67051W        W32036  14.738  10.389  14.929
67052W        W32037  31.122  31.661   4.734
67053W        W32038  39.918  23.911   4.481
67054W        W32039   0.984  34.090   3.063
67055W        W32040  41.783  22.104   5.463
67056W        W32041  18.250  21.132  10.786
67057W        W32042  42.848  22.098  13.786
67058W        W32043  39.771  39.293   1.264
67059W        W32044  30.419  21.211   2.347
67060W        W32045  44.942  40.616   2.871
67061W        W32046  30.246   8.233   1.005
67062W        W32047  26.792  32.212   0.882
67063W        W32048  25.969  43.022   4.068
67064W        W32049  21.029  22.232  11.236
67065W        W32050  20.763  39.495   2.247
67066W        W32051  26.659  10.209  11.393
67067W        W32052   3.785  43.396   2.558
67068W        W32053  42.071  38.407   2.820
67069W        W32054  11.652  22.563   2.763
67070W        W32055  33.554   9.927   4.246
67071W        W32056   7.824  11.350  12.102
67072W        W32057  40.878  42.576   2.872
67073W        W32058  30.232  13.346  13.399
67074W        W32059  26.112  13.267   2.911
67075W        W32060   9.867  40.582  10.750
67076W        W32061  36.781   6.466  13.439
67077W        W32062  29.933  17.633  11.973
67078W        W32063  33.509  33.339   0.704
67079W        W32064  10.856  14.093   2.794
67080W        W32065  15.811  23.432   3.813
67081W        W32066  18.065  36.052   2.689
67082W        W32067   3.951  15.064   3.068
67083W        W32068  40.405  41.901   1.632
67084W        W32069   1.013  43.647  14.140
67085W        W32070   6.757  37.479   0.788
67086W        W32071   7.704  33.461   0.009
67087W        W32072  40.128   0.445   0.833
67088W        W32073  44.988  14.779  14.391
67089W        W32074   5.377  23.114   1.637
67090W        W32075  38.734  33.035  14.488
67091W        W32076   9.276  29.737   4.630
67092W        W32077  10.724  33.772   1.134
67093W        W32078  35.950  41.241   3.378
67094W        W32079  10.466   0.826   4.809
67095W        W32080  37.598   1.280   0.754
67096W        W32081  38.540  33.053  10.533
67097W        W32082   1.274  31.614   4.530
67098W        W32083  30.863  38.082  10.711
67099W        W32084  29.504   6.539   3.766
67100W        W32085  13.166  29.911   3.923
67101W        W32086  24.432  27.310  14.221
67102W        W32087  40.800  39.342  12.064
67103W        W32088  13.368  23.190  14.801
67104W        W32089  34.634  41.259  11.949
67105W        W32090  22.224  38.871  10.519
67106W        W32091  18.095  26.584   2.539
67107W        W32092   4.155  21.561   0.826
67108W        W32093  34.281   9.213  14.530
67109W        W32094  28.982  12.071  13.118
67110W        W32095   5.969  23.418   1.476
67111W        W32096   1.979  31.739   4.187
67112W        W32097  20.059   1.763   2.370
67113W        W32098  42.603  43.237  13.451
67114W        W32099  16.806  33.625  12.972
67115W        W32100  27.680  29.333   3.648
67116W        W32101  39.772  21.477   3.217
67117W        W32102  19.221   6.992  10.307
67118W        W32103  31.428  40.421  11.634
67119W        W32104  20.139  20.713  13.313
67120W        W32105  38.354   3.445  12.445
67121W        W32106  23.981  35.175   4.171
67122W        W32107  34.453  18.743  10.650
67123W        W32108  16.247  41.970  10.970
67124W        W32109   2.369  23.153  12.067
67125W        W32110   1.348   8.496  11.623
67126W        W32111  40.990  38.727   3.134
67127W        W32112  12.677   7.824  11.651
67128W        W32113  32.143  42.980   2.125
67129W        W32114  24.209  38.735   2.244
67130W        W32115  19.367  22.734  11.141
67131W        W32116  30.096  31.623  11.207
67132W        W32117  24.054   8.671   4.082
67133W        W32118   0.341  11.470  14.418
67134W        W32119  13.359  44.998  11.579
67135W        W32120  29.739  15.625   0.235
67136W        W32121  44.395  43.194  12.999
67137W        W32122   9.232  21.032  11.841
67138W        W32123  41.439  35.459   0.980
67139W        W32124  23.780   0.423   2.795
67140W        W32125   6.114  27.020   4.270
67141W        W32126  34.527  34.198  11.137
67142W        W32127  29.807  12.880  13.516
67143W        W32128  24.511   0.948   1.847
67144W        W32129  16.350   3.731   4.493
67145W        W32130  31.910   4.789   3.708
67146W        W32131   4.193   0.352   3.795
67147W        W32132  27.408  35.442   1.716
67148W        W32133   7.982  35.158  11.541
67149W        W32134  18.717  27.483  10.570
67150W        W32135  28.456  29.384   3.352
67151W        W32136   3.714  44.034   0.490
67152W        W32137   5.130  35.548  13.060
67153W        W32138   4.364  19.050   4.469
67154W        W32139  39.915  16.784  12.324
67155W        W32140  11.887  23.027   2.649
67156W        W32141  24.628   4.959  12.416
67157W        W32142   2.713  22.755  10.548
67158W        W32143  34.907  29.731  11.164
67159W        W32144  39.461   0.236   2.747
67160W        W32145  18.543  25.896  14.066
67161W        W32146   5.080  39.374   4.054
67162W        W32147  21.849  17.038   0.988
67163W        W32148  30.463  39.722   4.727
67164W        W32149   0.405  20.952   2.439
67165W        W32150  13.872  40.440   0.154
67166W        W32151  38.833  43.555  14.519
67167W        W32152  12.866  33.626   2.155
67168W        W32153  41.357  12.939   4.082
67169W        W32154  42.223  12.634   0.782
67170W        W32155  23.546  27.228   1.853
67171W        W32156  40.889  26.544   5.426
67172W        W32157  18.289   2.288   1.210
67173W        W32158  34.294  38.598  14.901
67174W        W32159  35.589  36.703   2.219
67175W        W32160  12.350  18.571   0.484
67176W        W32161  42.016  44.982  11.856
67177W        W32162  12.852  43.533   2.198
67178W        W32163   4.330  18.803   1.406
67179W        W32164  29.447   6.634   4.559
67180W        W32165   8.608  28.519   4.619
67181W        W32166   0.750  40.454  10.818
67182W        W32167  37.875   6.838   4.566
67183W        W32168   0.257  33.525   1.765
67184W        W32169  14.755  17.464  13.339
67185W        W32170  18.973  22.684   0.373
67186W        W32171   6.170  31.625   1.337
67187W        W32172  37.060   1.009  13.296
67188W        W32173  38.174   0.598  14.391
67189W        W32174  24.978  29.446  12.114
67190W        W32175  36.264  43.511   2.336
67191W        W32176   3.454  12.994   4.622
67192W        W32177   3.387  26.663   3.806
67193W        W32178  16.179   8.732  12.456
67194W        W32179   1.088  13.656   1.815
67195W        W32180  44.166   3.433  13.539
67196W        W32181  18.635  37.604  10.696
67197W        W32182  20.634  36.615  13.027
67198W        W32183  35.580  39.497  10.844
67199W        W32184  23.117  43.247  14.222
67200W        W32185   9.847   1.666  11.182
67201W        W32186  19.160  17.566   4.081
67202W        W32187  12.826  34.805   1.294
67203W        W32188  43.344   0.290  14.532
67204W        W32189  12.308  18.353  14.514
67205W        W32190  28.767  40.680   2.369
67206W        W32191  43.108   1.497   1.764
67207W        W32192  15.050  17.647  11.620
67208W        W32193  22.601  10.174  10.504
67209W        W32194  39.838  35.365  13.811
67210W        W32195  36.647   5.123   4.538
67211W        W32196   4.923  29.064  11.566
67212W        W32197  30.485   8.781  13.463
67213W        W32198  19.478  41.761   0.776
67214W        W32199  26.636  42.056  11.231
67215W        W32200  42.869  21.795   4.997
67216W        W32201   8.819  33.054   3.662
67217W        W32202  12.383  23.046   2.766
67218W        W32203  41.992  25.433   0.237
67219W        W32204  21.578  43.323   3.913
67220W        W32205   9.098  12.632   1.653
67221W        W32206  17.047  33.892   4.133
67222W        W32207   7.782  26.408   0.484
67223W        W32208  23.243  25.421   3.355
67224W        W32209  25.527  20.584   2.793
67225W        W32210  37.819  25.500   1.718
67226W        W32211  11.733   5.942   3.646
67227W        W32212  28.935  26.156   0.561
67228W        W32213  34.987   0.465  10.360
67229W        W32214   5.161   3.356  13.523
67230W        W32215  44.831  40.108   3.087
67231W        W32216  24.959  28.978  12.779
67232W        W32217  41.491   3.647   1.615
67233W        W32218  15.391  29.624  14.278
67234W        W32219   0.513  43.750  12.411
67235W        W32220  34.428  14.131  14.330
67236W        W32221   1.618  42.316   2.070
67237W        W32222  36.566  17.843   0.954
67238W        W32223  34.966   0.737   4.606
67239W        W32224  18.908  34.201  12.837
67240W        W32225   0.775   0.355   0.786
67241W        W32226  37.932  20.519  14.406
67242W        W32227  35.276   3.380   0.789
67243W        W32228  33.886  37.400  13.705
67244W        W32229  41.974  26.008   2.713
67245W        W32230  30.646  29.201   1.861
67246W        W32231  37.331   2.206   0.811
67247W        W32232  44.999  32.361   3.480
67248W        W32233  21.136  34.893   4.187
67249W        W32234  34.339  27.031   2.164
67250W        W32235  38.819  12.449  14.479
67251W        W32236   2.216  19.229   2.749
67252W        W32237   9.309   9.629  10.932
67253W        W32238  34.917  15.340   1.425
67254W        W32239   7.536  22.614   3.190
67255W        W32240  19.989  31.640   4.388
67256W        W32241  21.622  29.961   4.918
67257W        W32242  14.790   6.896  11.609
67258W        W32243  44.630  32.198  11.547
67259W        W32244  15.207  29.231   2.989
67260W        W32245  34.184  32.559   1.221
67261W        W32246   3.940  37.429   1.056
67262W        W32247   3.942  20.724   1.266
67263W        W32248   2.886  41.470  14.776
67264W        W32249  22.195   1.531  14.347
67265W        W32250   6.937  37.819   3.342
67266W        W32251  40.769  13.736  14.010
67267W        W32252  25.021  27.169   3.084
67268W        W32253  29.956  25.669  12.960
67269W        W32254  31.050  12.883  12.028
67270W        W32255  29.151   2.631  13.893
67271W        W32256  18.039  42.026  13.433
67272W        W32257  33.043  42.262   1.879
67273W        W32258  23.238  34.974   0.406
67274W        W32259  22.234  31.397  12.920
67275W        W32260   6.018  31.460   0.742
67276W        W32261  22.441  33.544   0.492
67277W        W32262  30.932   6.922   4.533
67278W        W32263   1.968  29.559   3.146
67279W        W32264  17.698  20.064  13.111
67280W        W32265  25.494  23.946  11.885
67281W        W32266  23.284  36.540  10.651
67282W        W32267   8.927  30.010  11.916
67283W        W32268  13.852   0.357   2.738
67284W        W32269   5.136   0.237   3.664
67285W        W32270  40.833  36.121   2.770
67286W        W32271   6.122  19.530   1.329
67287W        W32272  21.343  29.686  12.372
67288W        W32273  17.577  29.066   1.356
67289W        W32274  40.593  32.548   3.192
67290W        W32275  25.195  18.315  11.969
67291W        W32276  40.333   0.059   3.297
67292W        W32277  28.412  37.274   1.343
67293W        W32278  41.359  28.072  10.379
67294W        W32279   0.577  34.470   1.990
67295W        W32280   1.879  11.038  12.705
67296W        W32281  23.255  40.188  12.293
67297W        W32282  31.996   6.818  14.491
67298W        W32283  34.157  12.581  12.477
67299W        W32284  43.747  19.140   2.268
67300W        W32285  34.329  15.666   3.653
67301W        W32286   9.365  40.919   0.857
67302W        W32287  20.154  37.577  13.386
67303W        W32288   8.653  24.094   4.142
67304W        W32289   7.901  17.032   2.836
67305W        W32290   1.311  10.790   0.786
67306W        W32291  39.814  12.333  14.223
67307W        W32292  36.380   6.259   2.512
67308W        W32293  15.500  28.876   2.672
67309W        W32294  20.708  42.809   1.332
67310W        W32295   8.851  29.416  10.756
67311W        W32296  13.863   9.248  13.386
67312W        W32297  19.005  12.498   2.190
67313W        W32298  26.755  43.903  13.404
67314W        W32299  43.316   4.755   4.117
67315W        W32300  35.046  26.061   3.739
67316W        W32301  31.380  32.074  14.526
67317W        W32302   5.314  14.603  12.113
67318W        W32303  38.539  31.118  14.093
67319W        W32304  31.627  22.910   1.817
67320W        W32305  27.444  36.094  12.050
67321W        W32306   9.712  33.814  12.156
67322W        W32307  39.863  16.781  13.792
67323W        W32308  37.354   5.260   3.357
67324W        W32309  12.378   1.427  13.954
67325W        W32310   3.105  29.858  14.036
67326W        W32311  25.892  11.362  11.153
67327W        W32312  15.639  35.362  12.367
67328W        W32313   2.895  17.137  11.428
67329W        W32314  12.857  27.696   2.393
67330W        W32315  39.397  40.500   1.362
67331W        W32316  15.748  43.966   9.941
67332W        W32317  15.583  20.923  10.385
67333W        W32318  27.355  25.054  11.124
67334W        W32319  44.030  19.697   3.384
67335W        W32320  42.192   9.749   1.825
67336W        W32321   1.918  18.029   1.757
67337W        W32322   9.666  21.996  12.563
67338W        W32323  21.169  26.347  13.837
67339W        W32324  22.710  11.585   0.527
67340W        W32325  21.137  29.051   4.653
67341W        W32326  24.709  39.903   1.494
67342W        W32327  23.628  36.078   4.631
67343W        W32328   0.018  37.398  13.878
67344W        W32329   1.904  18.061  12.911
67345W        W32330  39.065  38.185   4.402
67346W        W32331  14.849  21.548   2.231
67347W        W32332   6.120  12.755   0.446
67348W        W32333  40.962  28.149  11.188
67349W        W32334  22.500  25.614   3.734
67350W        W32335  21.568  38.330   3.712
67351W        W32336  36.505   0.279   1.779
67352W        W32337  27.030  14.592   2.666
67353W        W32338  27.943  12.207  12.431
67354W        W32339   1.529  26.175   2.799
67355W        W32340  18.566  25.422   2.724
67356W        W32341  31.771  24.781  12.210
67357W        W32342  21.101   7.294   1.222
67358W        W32343  27.244  29.355   0.609
67359W        W32344   5.733  37.408   4.561
67360W        W32345   5.892  20.586  14.073
67361W        W32346  23.497  35.421   3.577
67362W        W32347  16.116   0.737   1.366
67363W        W32348   0.365  11.639   1.257
67364W        W32349  40.656  32.832  12.501
67365W        W32350  43.624  33.515  13.458
67366W        W32351  10.564  30.647  10.649
67367W        W32352  14.778  42.420  13.725
67368W        W32353   5.270   2.450   1.794
67369W        W32354   0.285   7.160  14.856
67370W        W32355  15.528  26.778  11.628
67371W        W32356  27.052  22.328  12.048
67372W        W32357   9.712  42.511   2.797
67373W        W32358  23.650  44.479   4.169
67374W        W32359   0.794  32.890  13.884
67375W        W32360  15.808  22.544   2.178
67376W        W32361   7.952   6.918  14.428
67377W        W32362  43.810  30.498  10.773
67378W        W32363  19.109  26.983  12.380
67379W        W32364  22.399   4.301   1.860
67380W        W32365   1.555  43.419  14.082
67381W        W32366  18.067  27.198  13.006
67382W        W32367  35.569   8.713  13.364
67383W        W32368  17.590  37.111  10.048
67384W        W32369   0.898  14.271  11.225
67385W        W32370   6.752  39.375   4.624
67386W        W32371  12.103  26.264   4.296
67387W        W32372  40.990  32.759  11.620
67388W        W32373  13.814  11.857   3.999
67389W        W32374  21.609  35.381  12.379
67390W        W32375  11.327   4.297   3.175
67391W        W32376  18.226   3.516   4.567
67392W        W32377  20.180   6.424   1.913
67393W        W32378  25.531  13.408   2.584
67394W        W32379  14.991  37.449  12.902
67395W        W32380  21.494  19.076   1.932
67396W        W32381  14.164   4.811   3.737
67397W        W32382  21.957   4.408  12.651
67398W        W32383  10.132  44.217   4.226
67399W        W32384   0.391  17.164  13.357
67400W        W32385  38.952  29.117   3.822
67401W        W32386  37.175  10.851   2.909
67402W        W32387  16.617  32.148  14.427
67403W        W32388  31.465   3.825   0.645
67404W        W32389  14.378  26.216   3.726
67405W        W32390  24.146  39.326  11.657
67406W        W32391  12.048  37.864  13.148
67407W        W32392  28.195  26.431  11.552
67408W        W32393   3.783  16.810  13.338
67409W        W32394  18.784  15.903  14.824
67410W        W32395  35.075  33.805   2.186
67411W        W32396  40.389  44.941   0.894
67412W        W32397  44.276  10.910   4.245
67413W        W32398  26.537  15.837   3.696
67414W        W32399  28.162  14.394   2.399
67415W        W32400  41.526  24.192  11.783
67416W        W32401   3.018  34.009   0.490
67417W        W32402   4.160  43.339  10.694
67418W        W32403  18.761  14.761  13.050
67419W        W32404   8.216  39.474  13.179
67420W        W32405  11.322  17.695   2.870
67421W        W32406   3.210  39.879  12.065
67422W        W32407   6.826  10.360   0.675
67423W        W32408  14.529  32.523  10.683
67424W        W32409  43.552  14.328   3.810
67425W        W32410  33.521  22.856  10.650
67426W        W32411   8.282  33.512  12.151
67427W        W32412  30.502  25.181  13.948
67428W        W32413  23.018  23.482  13.879
67429W        W32414  10.606  22.731  10.711
67430W        W32415  35.232  17.787  13.294
67431W        W32416  17.774  34.953   2.293
67432W        W32417  39.812  30.664   3.315
67433W        W32418  32.207  36.873   1.824
67434W        W32419  26.953  20.848   2.787
67435W        W32420  41.737   4.269  11.571
67436W        W32421  11.827   7.826   2.394
67437W        W32422  25.701  29.482  10.533
67438W        W32423  29.006  15.248   0.453
67439W        W32424  24.336  28.016  12.595
67440W        W32425  15.024   2.813  13.821
67441W        W32426  24.812  40.374   0.836
67442W        W32427   5.242  31.280   1.192
67443W        W32428  24.321  29.561  11.056
67444W        W32429  30.645  17.508   1.221
67445W        W32430  26.586  40.557  13.994
67446W        W32431  41.245  43.116   4.276
67447W        W32432  29.412  16.006  12.109
67448W        W32433  16.719  31.693  11.497
67449W        W32434  21.113  36.904  14.838
67450W        W32435  21.465  23.548  12.541
67451W        W32436  38.241  28.706  12.539
67452W        W32437  22.127  27.638   2.434
67453W        W32438  23.534  19.784   2.704
67454W        W32439   0.357  15.738  12.779
67455W        W32440   0.288  35.360  14.244
67456W        W32441  44.344  12.768  11.609
67457W        W32442  15.463  14.143   0.084
67458W        W32443  32.565  31.161  14.461
67459W        W32444  24.165  41.168  13.334
67460W        W32445  14.079   6.196   5.225
67461W        W32446  35.180  38.894  11.402
67462W        W32447  13.671  39.507   2.823
67463W        W32448  18.102  32.607   2.763
67464W        W32449  24.465  14.318  13.924
67465W        W32450  34.831  21.649  14.053
67466W        W32451  36.925  19.352   4.223
67467W        W32452   9.776  26.906  11.948
67468W        W32453   3.325  22.951   4.957
67469W        W32454   8.240   3.518  11.096
67470W        W32455  14.046  34.027   2.814
67471W        W32456   2.257  35.274  11.488
67472W        W32457  29.521  20.128  11.432
67473W        W32458   7.066  10.416   2.270
67474W        W32459  12.839  40.367   4.806
67475W        W32460  33.949  11.688  11.583
67476W        W32461  12.588  38.951  13.293
67477W        W32462  39.172  25.502   1.401
67478W        W32463  14.809   5.360  12.903
67479W        W32464  42.690  33.846   4.715
67480W        W32465  34.078  42.491   2.285
67481W        W32466   1.169  26.188   4.115
67482W        W32467  18.498   1.784   1.895
67483W        W32468   6.624  37.371   2.158
67484W        W32469   2.778   9.143   0.334
67485W        W32470  39.989   5.401   0.416
67486W        W32471  20.315   6.727  11.115
67487W        W32472  29.381  39.643   3.924
67488W        W32473   9.753   5.500   3.909
67489W        W32474  14.983  44.559   0.640
67490W        W32475  16.824  12.498   2.881
67491W        W32476  14.126  19.715  11.479
67492W        W32477  37.980  10.834  11.125
67493W        W32478  31.296  39.300  13.308
67494W        W32479   6.159  37.412   2.382
67495W        W32480  38.719  34.035   3.121
67496W        W32481  20.799  17.680  13.119
67497W        W32482  34.027   5.003   3.303
67498W        W32483  35.812  44.501  10.005
67499W        W32484   5.910  34.904   5.101
67500W        W32485   2.762  17.232   4.309
67501W        W32486  25.064  24.593  14.338
67502W        W32487  19.716  12.805  13.653
67503W        W32488  17.779  15.948  13.507
67504W        W32489   6.104  21.245   1.698
67505W        W32490  12.212  40.127   0.231
67506W        W32491  33.772  11.366  11.154
67507W        W32492  39.499  29.105  12.089
67508W        W32493  37.368  18.073   2.555
67509W        W32494  16.223  22.434  12.474
67510W        W32495  23.233  23.421  12.955
67511W        W32496   4.222   6.920  14.368
67512W        W32497  12.648  41.349   2.191
67513W        W32498   1.705  43.826   2.913
67514W        W32499  17.201  31.847   2.022
67515W        W32500  21.691  38.814   2.803
67516W        W32501  40.465   3.755  13.426
67517W        W32502  21.613  30.981   1.553
67518W        W32503  31.720   6.701   3.370
67519W        W32504   6.171  33.581  10.340
67520W        W32505  11.935  41.605   3.401
67521W        W32506  24.662  31.355   1.778
67522W        W32507   0.963   6.918   0.337
67523W        W32508  38.789   9.632  12.804
67524W        W32509  26.101   9.232  13.549
67525W        W32510  24.402   4.466  12.360
67526W        W32511   1.556  10.562  12.623
67527W        W32512   9.139  34.809   1.856
67528W        W32513  13.818  17.566   3.730
67529W        W32514   8.919  36.057   2.896
67530W        W32515  28.838  33.314  11.673
67531W        W32516  14.242  10.936  13.001
67532W        W32517  17.301  44.887   4.609
67533W        W32518  29.606  40.470   1.676
67534W        W32519  18.614  32.695   0.428
67535W        W32520   5.272  34.525  13.256
67536W        W32521  26.084  37.281   3.646
67537W        W32522  40.541  16.808  13.913
67538W        W32523  35.166  10.761   0.493
67539W        W32524   4.496  16.881   4.250
67540W        W32525  20.563   5.866   4.588
67541W        W32526  38.433  28.219  12.491
67542W        W32527  43.264  43.963   4.383
67543W        W32528  36.696   5.330  11.129
67544W        W32529  34.887  17.788   2.712
67545W        W32530   2.117  28.048  13.983
67546W        W32531  39.372  18.886  10.661
67547W        W32532  10.552  39.662  11.788
67548W        W32533  13.610  21.735  11.987
67549W        W32534  26.573  19.114   4.172
67550W        W32535  30.908   0.381   1.693
67551W        W32536  14.177   5.274  11.188
67552W        W32537  11.994  11.273  10.367
67553W        W32538  26.271  40.082  12.309
67554W        W32539   5.420   4.956   1.775
67555W        W32540  11.302  39.246   3.241
67556W        W32541  30.805  30.275   0.293
67557W        W32542  32.033  44.930  13.108
67558W        W32543  29.719   1.154   0.998
67559W        W32544   8.719  19.312   0.951
67560W        W32545  17.092  12.547   1.836
67561W        W32546  32.404  20.020  12.954
67562W        W32547  14.167  16.755   1.946
67563W        W32548  30.176  34.168   1.534
67564W        W32549  38.521  16.680   0.280
67565W        W32550  40.718  30.954  11.070
67566W        W32551   4.614  13.478  14.089
67567W        W32552  43.469  17.823  12.011
67568W        W32553  31.349  31.533   3.807
67569W        W32554  27.467  26.575  13.760
67570W        W32555  44.323   7.452  10.817
67571W        W32556  33.666  30.918  13.445
67572W        W32557  34.892  14.201  14.868
67573W        W32558   8.210  16.544  13.708
67574W        W32559  34.562  15.357  14.793
67575W        W32560   0.941  23.971   0.855
67576W        W32561  38.197  27.151  11.363
67577W        W32562  34.490   6.250  10.497
67578W        W32563  32.758  27.468  14.085
67579W        W32564  21.995   8.221   0.890
67580W        W32565  37.769  20.405  13.472
67581W        W32566   5.827  22.022  13.408
67582W        W32567  10.223  33.168  13.580
67583W        W32568  24.537  24.680  11.623
67584W        W32569  42.751  37.075  13.353
67585W        W32570  29.672  20.518   4.394
67586W        W32571  19.997  36.563  14.927
67587W        W32572  39.534  11.684  11.102
67588W        W32573  39.229  10.239  12.529
67589W        W32574  36.126  17.319   0.331
67590W        W32575  29.457  14.122   3.660
67591W        W32576  44.562  33.934   1.491
67592W        W32577  18.611  44.927  11.876
67593W        W32578   9.196  22.172   2.322
67594W        W32579  14.190  13.679   3.712
67595W        W32580   0.784   7.490  13.042
67596W        W32581  25.718  41.533   0.859
67597W        W32582  15.862  13.909   3.157
67598W        W32583  23.150  32.158  14.518
67599W        W32584  44.464  24.210  12.865
67600W        W32585   0.912  21.080  13.647
67601W        W32586  18.651  32.405  13.008
67602W        W32587  33.012  11.152  11.556
67603W        W32588  28.906  43.097  14.124
67604W        W32589  21.880  16.039   1.872
67605W        W32590   1.254  26.017  10.564
67606W        W32591  20.548  40.960  13.459
67607W        W32592  39.072   2.247  14.265
67608W        W32593  19.438  16.468   2.705
67609W        W32594  11.041  30.927  14.531
67610W        W32595  43.323  43.454  12.059
67611W        W32596  18.243   4.158  12.925
67612W        W32597  29.067  24.239   0.356
67613W        W32598  37.503  43.527  13.802
67614W        W32599  16.168  10.604  12.919
67615W        W32600   2.290  22.060  14.009
67616W        W32601  41.939  15.733  12.548
67617W        W32602  25.538  43.805   1.692
67618W        W32603  27.160  23.021  13.371
67619W        W32604  20.704  43.838   0.217
67620W        W32605   8.785  32.540   3.671
67621W        W32606  16.627   9.132  13.542
67622W        W32607   6.287  25.902  11.689
67623W        W32608   1.569   7.825  14.822
67624W        W32609  10.807  18.492   2.269
67625W        W32610  18.499  30.720  11.439
67626W        W32611  29.946  34.018   4.811
67627W        W32612  23.703  21.906  13.309
67628W        W32613  11.387  24.683  14.775
67629W        W32614  11.985   0.049  13.496
67630W        W32615   4.176   8.560   1.198
67631W        W32616  34.453  34.546  13.807
67632W        W32617  11.639  11.944   2.932
67633W        W32618  17.551  39.083   4.613
67634W        W32619  29.200  32.131   1.339
67635W        W32620  13.533  42.743   2.336
67636W        W32621  24.134  36.406   2.558
67637W        W32622  32.907  43.533  10.421
67638W        W32623  43.186  15.865   2.213
67639W        W32624  37.120  41.503   0.401
67640W        W32625  31.114   8.243   9.891
67641W        W32626   4.134   5.656   4.570
67642W        W32627  44.439   0.883   2.885
67643W        W32628  31.382  28.131   3.235
67644W        W32629  24.466  29.972  12.121
67645W        W32630  30.488  25.978  11.923
67646W        W32631   2.125  27.892   4.259
67647W        W32632  28.197  37.455  12.150
67648W        W32633   9.762  39.158   1.693
67649W        W32634   5.336  42.055  13.997
67650W        W32635  43.834  33.450  14.506
67651W        W32636   9.809  38.112   1.681
67652W        W32637  41.051  14.765   4.275
67653W        W32638  27.852   0.705  10.867
67654W        W32639   7.172  30.690   0.325
67655W        W32640  26.230   8.036  11.192
67656W        W32641   7.659   2.171   4.269
67657W        W32642  24.765  32.130   3.757
67658W        W32643  23.467  39.367  13.384
67659W        W32644  20.578  20.360  12.627
67660W        W32645  11.724  20.459  14.919
67661W        W32646   5.255  15.748   3.350
67662W        W32647  39.500  30.788   3.695
67663W        W32648  25.839  23.100  11.277
67664W        W32649  14.882  18.731   1.704
67665W        W32650  13.864  14.109  14.187
67666W        W32651  17.660   3.425   0.432
67667W        W32652  43.837  27.570   2.209
67668W        W32653  39.562   5.502   1.774
67669W        W32654   7.182  21.641  13.422
67670W        W32655  12.240  37.635  12.277
67671W        W32656   3.954  25.317   1.090
67672W        W32657  39.020  23.131  12.580
67673W        W32658  10.025  40.105   1.791
67674W        W32659  22.839  25.551   0.299
67675W        W32660  30.485  21.257   1.032
67676W        W32661  28.577  31.439   0.456
67677W        W32662  31.042   4.659   0.433
67678W        W32663  43.595   1.698   3.305
67679W        W32664   9.646  39.630   3.160
67680W        W32665   7.871  39.077  13.836
67681W        W32666  42.255  16.960   3.742
67682W        W32667  14.687   4.134   2.298
67683W        W32668  11.783  36.147  12.139
67684W        W32669  43.290  23.955   0.751
67685W        W32670  23.218  43.345   2.145
67686W        W32671  32.953  19.942   4.552
67687W        W32672  25.625  13.022   1.643
67688W        W32673  28.263  37.503   0.908
67689W        W32674  19.051  43.690   4.421
67690W        W32675  31.358  38.597   2.678
67691W        W32676  29.956  19.281  10.632
67692W        W32677  13.279  13.705   0.739
67693W        W32678  34.161  11.180   1.860
67694W        W32679  19.753  33.383   5.156
67695W        W32680  13.853  18.689   1.396
67696W        W32681  33.988  28.532  11.590
67697W        W32682   8.363  37.924   2.492
67698W        W32683  19.170  33.454  11.968
67699W        W32684   9.842  40.576   1.746
67700W        W32685  44.234  23.947  12.454
67701W        W32686   1.447  34.743  11.626
67702W        W32687  27.637  11.739  12.540
67703W        W32688  37.068  17.209  14.930
67704W        W32689  29.269   0.949   1.120
67705W        W32690  20.236  12.305   3.718
67706W        W32691  26.987  19.519   1.666
67707W        W32692  38.020  36.025  12.822
67708W        W32693  21.113   1.382   4.587
67709W        W32694   9.533  15.132  14.087
67710W        W32695   8.856  16.554  14.884
67711W        W32696  40.049   4.123   0.713
67712W        W32697   5.579  40.799   2.837
67713W        W32698  30.107   0.638   0.232
67714W        W32699   5.313  31.753  12.721
67715W        W32700  30.184  22.731  13.385
67716W        W32701   4.272  32.762   1.193
67717W        W32702  11.113   2.224  10.430
67718W        W32703  32.339   5.783   4.095
67719W        W32704   8.412  38.487  14.404
67720W        W32705  20.064   7.804   2.795
67721W        W32706  33.657  39.821   4.481
67722W        W32707  40.014   6.738  10.796
67723W        W32708  26.079  41.037  12.473
67724W        W32709  17.075  11.228  12.158
67725W        W32710  37.064  19.866   4.257
67726W        W32711  30.185  13.366  12.414
67727W        W32712  20.102   7.431  10.197
67728W        W32713   1.524   5.438   0.468
67729W        W32714   9.905  18.741   4.820
67730W        W32715  20.049   6.677  12.514
67731W        W32716  14.300   1.401   4.239
67732W        W32717  10.342  42.791   2.903
67733W        W32718   4.919  37.854   3.760
67734W        W32719   1.972  25.896  11.204
67735W        W32720  28.803  22.267   2.838
67736W        W32721  26.446  11.998   0.434
67737W        W32722  16.591   8.345  12.076
67738W        W32723  21.535   5.088   1.262
67739W        W32724  20.513  19.800  12.602
67740W        W32725  13.789  41.847   1.501
67741W        W32726  38.452   5.212   3.156
67742W        W32727  14.263  28.539  13.754
67743W        W32728  35.080  39.956  14.817
67744W        W32729  36.833  25.079  14.042
67745W        W32730  21.060  22.571   4.472
67746W        W32731  15.568  25.136  11.070
67747W        W32732   7.655  15.672  12.575
67748W        W32733  32.120  39.564   3.632
67749W        W32734  19.580   3.964  12.925
67750W        W32735  37.940   3.311   4.117
67751W        W32736  12.859   8.100  11.239
67752W        W32737  25.428  17.365  11.113
67753W        W32738  41.417  34.303  14.278
67754W        W32739  43.978  24.893  12.797
67755W        W32740  30.874  12.361  11.203
67756W        W32741  44.465  13.215  13.146
67757W        W32742   2.831   4.379  11.705
67758W        W32743  43.614  22.318   0.470
67759W        W32744  21.499  23.176  10.990
67760W        W32745   6.951  15.336  14.721
67761W        W32746  40.918   8.367   1.378
67762W        W32747  18.785   5.818   3.135
67763W        W32748  18.181  33.911  14.315
67764W        W32749  25.714  15.506  13.070
67765W        W32750  32.195  31.220  13.088
67766W        W32751  26.532  11.488   4.240
67767W        W32752  23.692  15.740  13.571
67768W        W32753  20.231  30.171   2.198
67769W        W32754  33.956  22.587  13.115
67770W        W32755  11.339  34.358  13.482
67771W        W32756  30.836  40.400   2.875
67772W        W32757  25.957   7.470   4.544
67773W        W32758  26.233  11.730  10.918
67774W        W32759  41.875  19.971  10.281
67775W        W32760  16.134  44.471  13.448
67776W        W32761   7.712  25.369   4.585
67777W        W32762  37.564  15.178  12.071
67778W        W32763   5.162  15.298   2.801
67779W        W32764   2.326  19.697  13.500
67780W        W32765  39.263  28.617  13.908
67781W        W32766  18.602   6.779   0.652
67782W        W32767  42.487  37.559  14.356
67783W        W32768  17.670   1.075  10.760
67784W        W32769   8.457  26.684   1.307
67785W        W32770   5.972   7.343  13.537
67786W        W32771  11.077  23.025  13.439
67787W        W32772  16.530  26.607   4.756
67788W        W32773  20.820  44.530  10.959
67789W        W32774  15.811   9.782   4.651
67790W        W32775  30.897  17.362  12.776
67791W        W32776  36.172  29.441   4.344
67792W        W32777  14.329   4.698  12.913
67793W        W32778  44.188  33.456  14.882
67794W        W32779  39.366  23.093  13.429
67795W        W32780  19.282  33.145  11.563
67796W        W32781  44.651   2.175  10.209
67797W        W32782  16.677   6.495  12.475
67798W        W32783  32.524  40.417   4.906
67799W        W32784  22.767  43.224   4.512
67800W        W32785  32.488  13.216  10.957
67801W        W32786  36.978  44.318  14.445
67802W        W32787  10.633  31.397  13.083
67803W        W32788  29.781   7.173  14.146
67804W        W32789  20.535  30.547  11.012
67805W        W32790  14.826  13.577  13.683
67806W        W32791  23.432   3.457  11.471
67807W        W32792  42.264  20.966   0.034
67808W        W32793  23.129  15.287  14.550
67809W        W32794  33.814  44.313   0.836
67810W        W32795  28.565  43.645   0.772
67811W        W32796  41.036  19.989   1.303
67812W        W32797   2.467  23.200   0.006
67813W        W32798  24.802   7.463   3.202
67814W        W32799   4.057  38.425   2.363
67815W        W32800  21.635   2.855  11.006
67816W        W32801  42.934  41.992   2.216
67817W        W32802  37.689  37.477  11.717
67818W        W32803  43.451  15.074   4.273
67819W        W32804  40.377   7.301   4.663
67820W        W32805   8.776  36.863   2.291
67821W        W32806  37.576  23.168  14.279
67822W        W32807   1.393  10.976  14.885
67823W        W32808  28.281  21.772   1.759
67824W        W32809  18.087  43.756  12.579
67825W        W32810   6.655  33.365  10.554
67826W        W32811  10.852  22.561  13.434
67827W        W32812  41.207   3.366  14.435
67828W        W32813  37.555  40.998   2.864
67829W        W32814   2.488  39.092  11.865
67830W        W32815  36.680  43.659   2.769
67831W        W32816  10.180  30.188   1.279
67832W        W32817   1.392  35.889  10.575
67833W        W32818  11.093  31.955   9.977
67834W        W32819  27.246  12.808  10.770
67835W        W32820   7.737  24.478   3.339
67836W        W32821   8.740  14.221  13.304
67837W        W32822  25.062   3.829  13.396
67838W        W32823  44.887  27.213  12.791
67839W        W32824  33.087  34.146  10.727
67840W        W32825  40.850  14.794  14.733
67841W        W32826   0.377  26.493   1.152
67842W        W32827  32.446   6.293  11.514
67843W        W32828  44.386  21.111  12.448
67844W        W32829  12.850  43.718  12.317
67845W        W32830  18.173  41.803  14.623
67846W        W32831  27.046   0.435   1.777
67847W        W32832  35.619  34.928   2.691
67848W        W32833   5.371  10.175   4.040
67849W        W32834  30.068  43.224  14.792
67850W        W32835  36.675   4.356   2.736
67851W        W32836  16.352  22.861   2.816
67852W        W32837  41.345   9.209   4.347
67853W        W32838  26.180   4.980   4.165
67854W        W32839   9.557   0.426  14.339
67855W        W32840  19.552  17.631   1.282
67856W        W32841   5.210  10.096   1.094
67857W        W32842  21.160   6.274  14.440
67858W        W32843  15.649  11.387  12.055
67859W        W32844  19.370  23.445   3.213
67860W        W32845  21.790  17.233   4.303
67861W        W32846  10.493  26.039   2.067
67862W        W32847  37.561  31.397  11.430
67863W        W32848  39.990   3.769  13.259
67864W        W32849  34.143   7.881   0.250
67865W        W32850  10.759  15.870   0.509
67866W        W32851  25.610  14.302  10.867
67867W        W32852  29.225  44.610   0.409
67868W        W32853  42.020   0.666   4.120
67869W        W32854  44.002  40.646   2.737
67870W        W32855   2.206  38.821  12.796
67871W        W32856  34.299  27.241  14.464
67872W        W32857   0.454   9.167   2.342
67873W        W32858  40.359  18.330  11.332
67874W        W32859  37.807  25.047  13.893
67875W        W32860  19.641   1.321   4.988
67876W        W32861  41.581   8.171  12.922
67877W        W32862   2.278  40.072  13.799
67878W        W32863  18.849  27.714  11.857
67879W        W32864  10.628  15.705   1.918
67880W        W32865  33.934   0.870   0.851
67881W        W32866  20.697  17.163   3.111
67882W        W32867  35.941  36.118   3.020
67883W        W32868  22.679  29.911   4.460
67884W        W32869  38.628   0.384  14.479
67885W        W32870  34.453  22.049   2.356
67886W        W32871   2.776  26.002   0.943
67887W        W32872  41.995  18.267   0.624
67888W        W32873  19.822  32.923   4.834
67889W        W32874   5.838   4.861   0.924
67890W        W32875   0.238   9.708   2.953
67891W        W32876  44.832  36.476   3.694
67892W        W32877  33.840  19.178   2.241
67893W        W32878  21.695  13.280  14.333
67894W        W32879  33.716  31.137   4.640
67895W        W32880  16.855  38.013  13.895
67896W        W32881  24.551  27.890   2.694
67897W        W32882   7.696   3.454   3.020
67898W        W32883   1.839  25.466   1.918
67899W        W32884  19.512   8.765  13.100
67900W        W32885  34.409  19.697   3.700
67901W        W32886  30.933   6.753   3.525
67902W        W32887   7.701  41.126  12.006
67903W        W32888   7.953   2.293   4.683
67904W        W32889  13.364  33.763  14.896
67905W        W32890  14.600  26.606  11.725
67906W        W32891  32.984  25.375  10.550
67907W        W32892  16.621  32.464  12.503
67908W        W32893   6.440   8.714  13.226
67909W        W32894  39.826  22.812   4.186
67910W        W32895   8.252  12.124  14.785
67911W        W32896  40.915  36.563  13.882
67912W        W32897  25.949  40.495  12.998
67913W        W32898  27.146  38.825  14.784
67914W        W32899  24.240   2.382   0.205
67915W        W32900  27.647  27.176   4.136
67916W        W32901   1.278   3.951  10.729
67917W        W32902  16.342  20.721  10.561
67918W        W32903  43.813   0.996  14.285
67919W        W32904  44.739   3.933  13.202
67920W        W32905  32.109   6.267   4.036
67921W        W32906  13.154  23.440  13.955
67922W        W32907  15.779  22.791   3.110
67923W        W32908  34.860  26.263   4.195
67924W        W32909   5.726  42.168   3.812
67925W        W32910  29.286  38.405  14.370
67926W        W32911  11.391  35.787  11.261
67927W        W32912   6.933   9.763  12.483
67928W        W32913  36.256  32.918   0.462
67929W        W32914  22.737  20.783  11.629
67930W        W32915  12.110  18.557   4.194
67931W        W32916  34.404  15.507   1.303
67932W        W32917  17.771  17.575  10.970
67933W        W32918  14.239  13.339   1.676
67934W        W32919  23.102   0.994   4.015
67935W        W32920  28.756  32.535  13.941
67936W        W32921  23.545   2.929  11.421
67937W        W32922  12.896  44.367  10.582
67938W        W32923  11.386  21.811  12.888
67939W        W32924  30.021  38.310  11.617
67940W        W32925  11.113   1.421  12.420
67941W        W32926  44.476  18.030   4.481
67942W        W32927   6.912  12.499  13.187
67943W        W32928  41.787  29.639  11.498
67944W        W32929   2.056  17.744   2.820
67945W        W32930  39.038  44.213   0.318
67946W        W32931   4.016  44.872   2.904
67947W        W32932  17.110  29.908   3.412
67948W        W32933  31.397  26.140  11.596
67949W        W32934  24.497  18.205  10.505
67950W        W32935  36.810  33.699  14.897
67951W        W32936  42.202  43.287   1.276
67952W        W32937  31.080  38.987   1.232
67953W        W32938  15.599  20.189   3.997
67954W        W32939  30.084  10.296   0.439
67955W        W32940  18.940  36.569  11.616
67956W        W32941  37.962  44.083  12.598
67957W        W32942  38.911   0.945  10.527
67958W        W32943  21.801  40.265   0.781
67959W        W32944  14.304  31.040   0.170
67960W        W32945  11.196  43.283   4.644
67961W        W32946   5.164   2.768  12.496
67962W        W32947  23.555  11.593  11.660
67963W        W32948  17.758  44.192   2.538
67964W        W32949   1.877  30.346  12.560
67965W        W32950  30.496   0.062   0.804
67966W        W32951   9.309  10.684   2.662
67967W        W32952  31.890  36.031   2.180
67968W        W32953  42.714  41.507  14.429
67969W        W32954  21.228  34.554   2.353
67970W        W32955   9.239  22.788   3.627
67971W        W32956  16.788  43.717  12.139
67972W        W32957   0.943  17.715  14.771
67973W        W32958  32.229  27.061   1.267
67974W        W32959  16.707  39.600   3.892
67975W        W32960  33.523  17.887  12.196
67976W        W32961  44.921  16.050   3.740
67977W        W32962  41.977  42.266   2.348
67978W        W32963   2.380  34.341   9.874
67979W        W32964  22.308  18.334   4.161
67980W        W32965  11.355  25.940  10.596
67981W        W32966  37.427   0.121  14.320
67982W        W32967  27.978  13.682   4.122
67983W        W32968  11.385   8.392  12.899
67984W        W32969  16.224  37.626   0.826
67985W        W32970  31.804  42.793  14.494
67986W        W32971  28.856  37.021   4.596
67987W        W32972  30.459  32.548   3.392
67988W        W32973  11.207  24.521  14.331
67989W        W32974  40.725   4.794  13.795
67990W        W32975   0.014  41.331   1.438
67991W        W32976  11.385  20.499  14.391
67992W        W32977   7.147   1.501  14.065
67993W        W32978  26.201  10.306   0.795
67994W        W32979  24.459  31.693   0.289
67995W        W32980  24.935  41.712  11.796
67996W        W32981  21.514  26.390   2.323
67997W        W32982  24.446  41.904   4.056
67998W        W32983   6.333  22.490  13.548
67999W        W32984  27.363  41.459   2.340
68000W        W32985  40.792  14.659   4.741
68001W        W32986  22.752  13.562   3.578
68002W        W32987  36.561  16.615   1.539
68003W        W32988  42.282  18.106   1.351
68004W        W32989  36.022  28.500  13.266
68005W        W32990  33.331   6.369  13.541
68006W        W32991  43.001  34.609   3.657
68007W        W32992  40.927   8.167   3.843
68008W        W32993   1.376  41.707   2.704
68009W        W32994   2.510  11.076  11.511
68010W        W32995  14.895  38.142   4.811
68011W        W32996   0.326  33.020   1.922
68012W        W32997  18.113  36.606   0.363
68013W        W32998  16.681  13.768  11.024
68014W        W32999  19.664  26.470   0.857
68015W        W33000  33.171  38.062   3.383
68016W        W33001  25.022   9.902   1.069
68017W        W33002  24.218   3.961  12.347
68018W        W33003  12.750  31.041   1.415
68019W        W33004  23.071  26.628  14.805
68020W        W33005  24.003  40.177  13.049
68021W        W33006  32.506  33.886   3.866
68022W        W33007  15.665  25.638  11.507
68023W        W33008   9.315  11.128  12.254
68024W        W33009  36.425  14.595   1.872
68025W        W33010  15.360  25.767  12.648
68026W        W33011   2.718  20.533  12.388
68027W        W33012   3.565  28.039   4.586
68028W        W33013   8.210  20.524   1.369
68029W        W33014  17.214  11.594  14.029
68030W        W33015  32.049  42.505  11.903
68031W        W33016  27.120   2.572   2.983
68032W        W33017   8.036  28.200  10.108
68033W        W33018  28.392  14.888  11.468
68034W        W33019  36.459  20.417   2.611
68035W        W33020  30.661  20.786  12.775
68036W        W33021  11.595  33.219   3.641
68037W        W33022  13.199   8.106   3.285
68038W        W33023  15.308  40.049  10.610
68039W        W33024  34.953  18.463   1.317
68040W        W33025  32.547  34.157  13.791
68041W        W33026  41.117  16.324  13.969
68042W        W33027  44.551   0.378   2.917
68043W        W33028  35.961  41.477  14.335
68044W        W33029  23.957   5.806  12.920
68045W        W33030  40.924  10.131   0.400
68046W        W33031  40.291  11.005  10.164
68047W        W33032  38.789  41.606  13.523
68048W        W33033  40.954  17.159  13.368
68049W        W33034  18.870  27.212   4.624
68050W        W33035   0.792  22.608   3.842
68051W        W33036  16.338  12.814   1.402
68052W        W33037  13.656  43.496   3.635
68053W        W33038  23.782   6.760  12.740
68054W        W33039  40.610  35.187   1.838
68055W        W33040   7.956  21.491   1.758
68056W        W33041  29.078  10.743  11.745
68057W        W33042  23.896   7.646  13.871
68058W        W33043   8.346  10.905   2.276
68059W        W33044   4.074  12.642  10.269
68060W        W33045   8.827   8.733  12.924
68061W        W33046   7.722  31.522   4.089
68062W        W33047  43.463   8.913   0.670
68063W        W33048  22.729  31.359  13.068
68064W        W33049   1.276  27.256   0.423
68065W        W33050   3.516  42.527   0.396
68066W        W33051  19.648  17.422   5.364
68067W        W33052  17.333  19.041  13.905
68068W        W33053   5.156  32.383  10.707
68069W        W33054  32.124  36.126  14.858
68070W        W33055   3.426  35.819   0.074
68071W        W33056  39.441  38.091   0.361
68072W        W33057   0.314  20.764   1.649
68073W        W33058  26.471  33.347  14.914
68074W        W33059   0.118  12.591   1.156
68075W        W33060  21.937  26.004   2.391
68076W        W33061  14.416  21.751  14.321
68077W        W33062  22.228   1.416   2.106
68078W        W33063  34.038  36.449   1.676
68079W        W33064  36.030  36.194  13.108
68080W        W33065   3.502  42.971  11.808
68081W        W33066  33.821  16.979   3.759
68082W        W33067  13.532  22.921  10.600
68083W        W33068  28.528  34.136  12.101
68084W        W33069  16.073  44.894  14.837
68085W        W33070  27.888  11.292   2.763
68086W        W33071  18.784  10.723  14.206
68087W        W33072  23.257  22.159   0.348
68088W        W33073  31.538  32.682  10.639
68089W        W33074  11.700   3.497  14.932
68090W        W33075  28.060  43.122   0.232
68091W        W33076   7.703   4.262   0.793
68092W        W33077  44.371   5.948  10.699
68093W        W33078  16.219  12.778  11.836
68094W        W33079  18.775  29.107   3.780
68095W        W33080  37.216  20.192   0.842
68096W        W33081  19.525  16.249  11.135
68097W        W33082  19.771  28.174  12.634
68098W        W33083  43.496   9.964  13.808
68099W        W33084  32.819  14.869   2.773
68100W        W33085   6.084  27.593  12.492
68101W        W33086   7.239  18.340   1.838
68102W        W33087  29.538   6.226   1.722
68103W        W33088  33.624  23.227   2.253
68104W        W33089  31.411  37.634  12.860
68105W        W33090  36.091  30.711  11.604
68106W        W33091   4.201  40.235  12.900
68107W        W33092   7.113  12.597   1.849
68108W        W33093  19.121  25.224   2.851
68109W        W33094   8.261  18.187   0.760
68110W        W33095  43.779  27.081   3.880
68111W        W33096  33.058  26.758  14.829
68112W        W33097  43.479  33.781  10.624
68113W        W33098   1.388  11.583  10.697
68114W        W33099  22.625  37.015   2.028
68115W        W33100  14.027  30.956  14.304
68116W        W33101  15.220  40.304   0.713
68117W        W33102  13.483  15.345   0.204
68118W        W33103  12.363  12.608   2.635
68119W        W33104  32.162  30.043   1.918
68120W        W33105   6.847  39.739  14.807
68121W        W33106  29.643   6.454   0.770
68122W        W33107  37.324  27.187   3.382
68123W        W33108  18.023   1.823  13.083
68124W        W33109  22.686  37.801  13.122
68125W        W33110  40.355  33.899   2.307
68126W        W33111  26.652  18.981  12.403
68127W        W33112  20.133   6.396  13.334
68128W        W33113   9.291  26.643   1.853
68129W        W33114  12.525  36.586  11.239
68130W        W33115  13.196  13.838  12.333
68131W        W33116  39.348  30.854  13.486
68132W        W33117  39.639  24.508   0.516
68133W        W33118  10.639  30.578   0.026
68134W        W33119   6.898  25.962  12.887
68135W        W33120  36.515   3.818   4.597
68136W        W33121  40.281  40.080  14.919
68137W        W33122  10.573  18.328  11.130
68138W        W33123  30.833  19.550  10.265
68139W        W33124  15.138  28.013   3.052
68140W        W33125   4.929  39.674   1.163
68141W        W33126   7.247  25.613   3.253
68142W        W33127  41.891  10.335  10.642
68143W        W33128  44.468   8.193  11.922
68144W        W33129   8.606  17.038   1.243
68145W        W33130  26.241  11.607   0.732
68146W        W33131   6.587  19.852  13.371
68147W        W33132  42.044  41.637  11.086
68148W        W33133   2.916  35.699  12.178
68149W        W33134  41.375  34.371  13.053
68150W        W33135  36.710  20.148   0.854
68151W        W33136   5.904  34.535  12.473
68152W        W33137  38.517  38.782   4.103
68153W        W33138   7.562   5.804  10.248
68154W        W33139   6.715  36.793  10.884
68155W        W33140   7.806  39.254  12.542
68156W        W33141   6.318  22.727   4.022
68157W        W33142  41.489  18.619  14.719
68158W        W33143  23.721   7.137   1.804
68159W        W33144   5.449  23.549  12.576
68160W        W33145   7.905  20.427  14.418
68161W        W33146  36.413  16.566  12.958
68162W        W33147  44.309  30.939  14.285
68163W        W33148  15.057  43.261  12.587
68164W        W33149  42.888  44.733   0.776
68165W        W33150  26.470  40.781   3.191
68166W        W33151  32.021   1.897   3.178
68167W        W33152  17.864  22.199   4.674
68168W        W33153  38.638  10.565   0.437
68169W        W33154   3.068  34.795   2.183
68170W        W33155  43.071  34.730   1.115
68171W        W33156  27.116  40.740   4.937
68172W        W33157  17.664   6.613  13.054
68173W        W33158  37.818  38.008  11.931
68174W        W33159  22.919  42.799  13.310
68175W        W33160   3.507  31.119  14.417
68176W        W33161  24.661  38.307   1.000
68177W        W33162  37.222  23.573   3.372
68178W        W33163   1.666  21.496  12.376
68179W        W33164  31.500   0.553  12.570
68180W        W33165  27.173  25.682  13.561
68181W        W33166   6.846  44.508  13.052
68182W        W33167  38.434   8.530  14.344
68183W        W33168  21.451  24.241  11.976
68184W        W33169  34.430   6.094   2.655
68185W        W33170  33.167  43.275   1.907
68186W        W33171  33.793  40.887  11.735
68187W        W33172  42.786  23.112  13.499
68188W        W33173  27.950  33.419  14.469
68189W        W33174  36.336  13.221  10.749
68190W        W33175  24.999  22.683  13.563
68191W        W33176  23.876  18.606  12.551
68192W        W33177   0.340  26.659   0.308
68193W        W33178  30.565  44.949   0.253
68194W        W33179  15.781  34.374   2.787
68195W        W33180  25.061  33.796   1.015
68196W        W33181   5.872  35.327   4.174
68197W        W33182  28.976  34.304  10.943
68198W        W33183  42.162  32.411  14.431
68199W        W33184   4.116  43.379   1.914
68200W        W33185  22.743  22.118   2.718
68201W        W33186  38.249  28.704  13.501
68202W        W33187  31.865  43.311   0.446
68203W        W33188  34.494   4.292   3.092
68204W        W33189  24.706  37.821  12.493
68205W        W33190  13.720  21.857   2.928
68206W        W33191  35.435  42.409   4.118
68207W        W33192  32.680   3.293  12.729
68208W        W33193  22.534  24.726   4.648
68209W        W33194  40.070  23.790   4.977
68210W        W33195  27.665  14.656   1.547
68211W        W33196  22.153   7.285   2.146
68212W        W33197  35.550  29.355   3.713
68213W        W33198  12.130   4.425  14.961
68214W        W33199  26.098  30.900   3.111
68215W        W33200  16.883  30.227   0.262
68216W        W33201  22.128  22.411  10.750
68217W        W33202   9.179  42.320   3.819
68218W        W33203  44.920  18.666  14.361
68219W        W33204  34.974  11.096  11.561
68220W        W33205  23.342  21.662   4.130
68221W        W33206  43.371   2.743  14.431
68222W        W33207   0.739  35.432   4.365
68223W        W33208  20.619  37.965  11.039
68224W        W33209  42.521   8.884  14.752
68225W        W33210   8.195  11.778  10.685
68226W        W33211  13.216  19.200   2.080
68227W        W33212   5.251  19.962  14.146
68228W        W33213  34.129   5.235   4.638
68229W        W33214   1.265   6.151  12.566
68230W        W33215  29.034  18.992   4.163
68231W        W33216  23.170   9.959  10.756
68232W        W33217  20.692   6.154  13.609
68233W        W33218   2.296  27.416   3.416
68234W        W33219  12.099   8.920  13.340
68235W        W33220  13.672   9.668   3.538
68236W        W33221  17.617  17.100  11.113
68237W        W33222   9.467  10.763  12.599
68238W        W33223  28.806  31.128  13.848
68239W        W33224  15.063  35.818   1.474
68240W        W33225   9.531  44.656  11.234
68241W        W33226  19.197  30.590  10.747
68242W        W33227  29.782  18.094   3.685
68243W        W33228   5.118  30.921  13.947
68244W        W33229  37.915  39.182   2.368
68245W        W33230   7.738  25.552   1.224
68246W        W33231  36.943  25.029   0.553
68247W        W33232  17.355  21.103   2.882
68248W        W33233  24.728  41.355  12.089
68249W        W33234  33.043  16.631   2.229
68250W        W33235  30.644   0.495  13.120
68251W        W33236  35.228  19.182  13.912
68252W        W33237   0.512  33.015   2.904
68253W        W33238  35.712  39.753   0.314
68254W        W33239  31.988  42.786  13.499
68255W        W33240  13.897  11.652  12.543
68256W        W33241  32.888  27.874  13.808
68257W        W33242  14.189   6.432  12.815
68258W        W33243  20.088  35.409  10.726
68259W        W33244  20.277  36.356  11.899
68260W        W33245  18.516  43.333  11.231
68261W        W33246  34.740  39.424   4.249
68262W        W33247  14.349  17.179  11.617
68263W        W33248   1.500  19.190   4.262
68264W        W33249  40.587  12.507   9.909
68265W        W33250   4.421   1.358   3.388
68266W        W33251  27.618  39.644   2.746
68267W        W33252  33.519  31.323   4.165
68268W        W33253  32.175   2.412  14.472
68269W        W33254  36.059  11.074   3.336
68270W        W33255  37.946  26.402  13.482
68271W        W33256   9.325  29.002   4.036
68272W        W33257  21.111   3.962   0.799
68273W        W33258  13.572  19.656   2.297
68274W        W33259  34.343  42.186  11.525
68275W        W33260  14.731  28.630  14.766
68276W        W33261  32.153  23.257  11.724
68277W        W33262  30.564   0.343   2.543
68278W        W33263  28.588   4.392  14.130
68279W        W33264  39.376  32.599   2.725
68280W        W33265  42.508  30.932  14.993
68281W        W33266  12.285  43.364   4.595
68282W        W33267  28.034  36.821  12.520
68283W        W33268  25.916  13.861   3.670
68284W        W33269   0.066  24.993   1.366
68285W        W33270  33.647  22.663  13.591
68286W        W33271   0.492   4.166   3.756
68287W        W33272   0.814  35.862   4.093
68288W        W33273  33.552  25.745   3.282
68289W        W33274   4.724   0.078   0.047
68290W        W33275  34.061  21.605   1.883
68291W        W33276  17.191  36.799   0.869
68292W        W33277   0.054  25.970  13.589
68293W        W33278  36.620  44.663   0.929
68294W        W33279  39.428  35.685  13.846
68295W        W33280   0.540  39.817  13.820
68296W        W33281  31.054   1.348  13.514
68297W        W33282  32.605  14.323   3.645
68298W        W33283  28.446  19.124   0.805
68299W        W33284  23.248   8.386  14.346
68300W        W33285  40.837  41.802  14.332
68301W        W33286  32.653  33.965   1.945
68302W        W33287  44.313  25.650   2.265
68303W        W33288  30.523  30.111  11.148
68304W        W33289  30.656  20.953   0.231
68305W        W33290  37.932  17.837  11.043
68306W        W33291   6.255  43.805   0.433
68307W        W33292   4.909  35.556   2.353
68308W        W33293  35.545   9.396  10.126
68309W        W33294  41.283  14.467  13.601
68310W        W33295  44.064  25.512  10.613
68311W        W33296  11.363  42.860  12.861
68312W        W33297  12.129  31.167   1.776
68313W        W33298  39.549  11.309  11.473
68314W        W33299  40.964  11.592  11.458
68315W        W33300  14.880  29.115  14.890
68316W        W33301  44.530   0.290   0.390
68317W        W33302  13.810  19.410  13.439
68318W        W33303  15.712  20.658  12.937
68319W        W33304   3.372  39.151  13.433
68320W        W33305  39.781   7.593   2.695
68321W        W33306  29.060  10.346   0.987
68322W        W33307   6.226  17.147   3.748
68323W        W33308   4.795  29.913   0.980
68324W        W33309   4.300  12.272   1.816
68325W        W33310  37.934   8.210   2.353
68326W        W33311  23.100  37.601  12.854
68327W        W33312   4.957  10.949   3.689
68328W        W33313  10.687  16.074  12.092
68329W        W33314  27.012  13.182   4.067
68330W        W33315  22.514  17.602   0.478
68331W        W33316  31.443   8.398   3.249
68332W        W33317  22.760  32.278   1.391
68333W        W33318   7.830  39.952  14.944
68334W        W33319  16.653  29.242   0.483
68335W        W33320  39.555  42.883   4.706
68336W        W33321  15.679  34.870   4.965
68337W        W33322  21.109  13.838  14.240
68338W        W33323  23.598  31.980   0.340
68339W        W33324  41.047  31.997   3.778
68340W        W33325  39.521  25.016  12.880
68341W        W33326   3.008  35.346  11.619
68342W        W33327  34.669  22.488  12.519
68343W        W33328   7.655  38.177   3.745
68344W        W33329  30.408   2.766   3.556
68345W        W33330  33.637   0.693   0.434
68346W        W33331  28.162   7.798  13.520
68347W        W33332  15.981  13.131   2.300
68348W        W33333  13.922  25.904   4.458
68349W        W33334  14.118  37.341   2.323
68350W        W33335  12.545  24.995  12.524
68351W        W33336  37.987  13.049  11.702
68352W        W33337   5.778   6.779   0.415
68353W        W33338  42.106  27.136   1.420
68354W        W33339  28.058  22.018  13.972
68355W        W33340   9.138   4.792   9.969
68356W        W33341   8.715  24.596  12.663
68357W        W33342  19.350   7.067  12.641
68358W        W33343  34.657  34.543  12.544
68359W        W33344  34.948  11.192   1.252
68360W        W33345  23.052  20.769   3.877
68361W        W33346  26.177   4.391  12.007
68362W        W33347  40.527  25.825  11.619
68363W        W33348  23.581  26.512  14.796
68364W        W33349  23.455  39.882  11.748
68365W        W33350  20.244  20.740   5.000
68366W        W33351  32.792  11.275  13.538
68367W        W33352  21.023  43.347  12.090
68368W        W33353  27.729  26.592  12.891
68369W        W33354  26.004   3.342   1.717
68370W        W33355  12.949   6.450  13.555
68371W        W33356  35.622  34.356  13.029
68372W        W33357  22.883  36.447   1.290
68373W        W33358  21.979  15.753   0.304
68374W        W33359   7.449  15.724   2.704
68375W        W33360  40.632  36.975   0.067
68376W        W33361  13.109  13.175  11.102
68377W        W33362  29.546  13.595   3.609
68378W        W33363   3.936  24.655   1.976
68379W        W33364  40.916  20.132  13.694
68380W        W33365  30.997  23.413  13.446
68381W        W33366  10.893   9.242  12.172
68382W        W33367  25.820  28.131  12.572
68383W        W33368  41.319  33.492   1.976
68384W        W33369  38.904  15.176   3.112
68385W        W33370   6.873  10.166   1.676
68386W        W33371  30.727  20.852   1.273
68387W        W33372  33.497   5.246  13.553
68388W        W33373  11.922   4.890  14.816
68389W        W33374  21.402   4.242   3.768
68390W        W33375  23.122  18.852   0.262
68391W        W33376  12.536  17.288  11.360
68392W        W33377   1.930  36.709  11.661
68393W        W33378  41.793   9.433   4.193
68394W        W33379  13.624  34.103  14.476
68395W        W33380  24.943  10.105  11.145
68396W        W33381  13.129  20.257   1.626
68397W        W33382   7.399  31.140   0.552
68398W        W33383  15.101  13.024  11.694
68399W        W33384  27.348   3.861   5.012
68400W        W33385  37.400  33.551  14.367
68401W        W33386  19.557  12.328   4.326
68402W        W33387   6.328   4.318   4.155
68403W        W33388   6.636  18.319   3.044
68404W        W33389  10.955  38.351   1.565
68405W        W33390  27.682   1.254  14.327
68406W        W33391  11.799  16.531   4.145
68407W        W33392  25.309  40.868  11.910
68408W        W33393   4.702  40.993   1.713
68409W        W33394   5.812  16.225  12.360
68410W        W33395  18.057  31.043   0.519
68411W        W33396  41.402  24.254   1.712
68412W        W33397  31.095   4.713   1.545
68413W        W33398  42.596  21.152  13.777
68414W        W33399  31.128   5.361   4.377
68415W        W33400  39.317   7.375   4.671
68416W        W33401  14.593  31.496   4.896
68417W        W33402  30.804   8.963  11.173
68418W        W33403  10.765  28.866   3.427
68419W        W33404  34.150   2.259   0.723
68420W        W33405  12.788  36.466   1.164
68421W        W33406  26.701   1.049  14.304
68422W        W33407  33.687  37.019  11.018
68423W        W33408  28.550  41.547   3.633
68424W        W33409  34.682  43.638   0.271
68425W        W33410  42.806  33.969   3.255
68426W        W33411  14.215  25.037   1.285
68427W        W33412  33.965  17.489   1.200
68428W        W33413   3.456   5.329   9.961
68429W        W33414  15.807  21.848   3.383
68430W        W33415  35.605   0.248   1.529
68431W        W33416  38.365  44.014   4.065
68432W        W33417  38.443   1.258   2.197
68433W        W33418  15.082   4.175  14.336
68434W        W33419  24.419   4.989  11.537
68435W        W33420   4.378  22.568  10.746
68436W        W33421  38.003  16.161  13.958
68437W        W33422  10.784  40.717   1.705
68438W        W33423  22.066  37.423  14.216
68439W        W33424  16.864  14.827   2.831
68440W        W33425   9.749   2.014  11.561
68441W        W33426   4.845   7.218  11.752
68442W        W33427  41.339   6.834  13.332
68443W        W33428   2.229  36.861   1.178
68444W        W33429  29.244  38.222   3.107
68445W        W33430  11.364  19.022   0.658
68446W        W33431  15.883  15.214  11.967
68447W        W33432   1.526  35.871  12.616
68448W        W33433   1.745  10.960  13.534
68449W        W33434  37.144   9.745   4.353
68450W        W33435  23.224  33.376   4.096
68451W        W33436  16.149  24.676   0.404
68452W        W33437  21.034   0.371   4.545
68453W        W33438  12.626  13.691  10.682
68454W        W33439  13.747   0.817  13.016
68455W        W33440  22.979  30.249   5.068
68456W        W33441  42.762  22.608   1.821
68457W        W33442  21.534  13.836   2.791
68458W        W33443  21.306  10.613  10.434
68459W        W33444  11.667  17.686  14.615
68460W        W33445  29.592  33.420  13.616
68461W        W33446  35.551   1.988  13.886
68462W        W33447  15.970  32.515   2.285
68463W        W33448  15.764  15.694  12.549
68464W        W33449  39.379  29.076   4.133
68465W        W33450  44.226  25.645  13.115
68466W        W33451  10.435   8.196  13.881
68467W        W33452  17.618  40.285  12.656
68468W        W33453  30.129  33.537   4.814
68469W        W33454   4.274   5.635   3.612
68470W        W33455  41.399  19.983  11.884
68471W        W33456  17.607  23.225   1.404
68472W        W33457   2.436  14.854  12.284
68473W        W33458  18.460   9.248  12.472
68474W        W33459   8.107  23.595   0.386
68475W        W33460  15.292  13.659  11.711
68476W        W33461  28.180  21.713   3.686
68477W        W33462  26.838  44.751   2.375
68478W        W33463  12.796  25.411  12.079
68479W        W33464   2.691  21.770  13.805
68480W        W33465   0.958   5.263  10.749
68481W        W33466  31.280  19.807  12.405
68482W        W33467  36.039  26.037   1.984
68483W        W33468  44.371  42.288   1.705
68484W        W33469  15.871  25.166  13.946
68485W        W33470   9.048  32.925  13.844
68486W        W33471   8.038  28.522   0.747
68487W        W33472  32.971  16.445  12.555
68488W        W33473  30.098  24.657   1.828
68489W        W33474   9.682  33.024   3.474
68490W        W33475  17.713  11.774  14.546
68491W        W33476  37.293  28.509   2.668
68492W        W33477   8.410   8.373  13.884
68493W        W33478  13.801  27.533  12.106
68494W        W33479  32.416  27.258  13.448
68495W        W33480  10.756  36.521   1.275
68496W        W33481  15.079  20.831  11.861
68497W        W33482  42.335  17.260  14.184
68498W        W33483   8.507  28.452   0.998
68499W        W33484  44.143  11.484   4.902
68500W        W33485  42.390  39.334  14.965
68501W        W33486  19.423  18.770   2.304
68502W        W33487  26.688  30.841  13.678
68503W        W33488  25.025  29.179   2.275
68504W        W33489   0.480  35.825   3.687
68505W        W33490  38.901  32.390   2.810
68506W        W33491  26.057  42.140  14.133
68507W        W33492  41.023   7.364   4.668
68508W        W33493  29.421  35.901  13.411
68509W        W33494   2.354  38.292  14.349
68510W        W33495   2.081   6.312  13.738
68511W        W33496  24.641  34.380  14.392
68512W        W33497  10.607  34.626  12.529
68513W        W33498  27.892  30.207   0.883
68514W        W33499  26.409  39.097   2.777
68515W        W33500  39.083  16.779  10.344
68516W        W33501   1.302   2.522  13.067
68517W        W33502   8.234  30.030   3.682
68518W        W33503  10.783  29.449  13.813
68519W        W33504  10.337  13.873   2.200
68520W        W33505  44.275  18.159  11.993
68521W        W33506  34.454   4.729  14.820
68522W        W33507  21.023   2.850  12.980
68523W        W33508  30.201  31.648   0.431
68524W        W33509  29.232  33.853   2.677
68525W        W33510  30.386  13.135  11.971
68526W        W33511  26.403  38.517   1.402
68527W        W33512  22.071  17.993  10.385
68528W        W33513  31.861  24.994   4.779
68529W        W33514   2.778  20.489  13.332
68530W        W33515  28.549  34.401   1.847
68531W        W33516  20.261   4.908  10.836
68532W        W33517  41.383   0.473  12.821
68533W        W33518  33.436  44.930   2.664
68534W        W33519  19.582  28.610   2.251
68535W        W33520   2.910  18.682  13.942
68536W        W33521  43.067  26.462  10.641
68537W        W33522  33.814   4.924   1.441
68538W        W33523  39.820  33.787  11.972
68539W        W33524  31.395  28.191   1.159
68540W        W33525  32.621  42.597  11.132
68541W        W33526  43.132   7.276   0.037
68542W        W33527  36.483  29.485  14.301
68543W        W33528  23.661  44.320   1.837
68544W        W33529  20.378   6.603   0.944
68545W        W33530   0.493  10.735   0.278
68546W        W33531  23.364   2.483  12.134
68547W        W33532  21.013  31.081  11.561
68548W        W33533  38.678  42.391   1.964
68549W        W33534   9.962  22.661  12.359
68550W        W33535  31.991   1.268  14.762
68551W        W33536  13.880  44.964  11.675
68552W        W33537  42.858  17.255   1.628
68553W        W33538  15.193  10.579  11.097
68554W        W33539  11.673  12.337  11.253
68555W        W33540  34.393  40.416   0.329
68556W        W33541  17.160  42.894  14.881
68557W        W33542  10.984  16.105  12.526
68558W        W33543   5.276  35.374  14.881
68559W        W33544   8.134  44.314  10.403
68560W        W33545  27.109  14.718   1.801
68561W        W33546  43.366  36.611   0.810
68562W        W33547   1.286   7.376  11.941
68563W        W33548  30.124  23.305   3.743
68564W        W33549  10.715  19.527   2.342
68565W        W33550   8.977  19.262   3.757
68566W        W33551  11.255  37.531  12.126
68567W        W33552  43.901  43.905  13.393
68568W        W33553   5.013  35.062  11.173
68569W        W33554  40.634   4.399   4.649
68570W        W33555  41.600   8.294   0.549
68571W        W33556  44.080  23.964  13.805
68572W        W33557  31.881   1.288   0.267
68573W        W33558  12.708  35.562  13.607
68574W        W33559   6.115  44.007  11.676
68575W        W33560  43.430  40.102   2.274
68576W        W33561  26.155  33.182   2.727
68577W        W33562  16.484   9.933   1.408
68578W        W33563  26.261  39.862   4.553
68579W        W33564   2.714  33.606   2.677
68580W        W33565  27.425  42.429   4.113
68581W        W33566  16.818  34.629   3.097
68582W        W33567  37.957  15.559  13.504
68583W        W33568  16.264  25.821   1.847
68584W        W33569  36.852  43.268   3.080
68585W        W33570  39.732  18.066   5.155
68586W        W33571  39.871  18.392   1.291
68587W        W33572  16.046  17.563   0.525
68588W        W33573  39.748  15.499  10.621
68589W        W33574  33.343  19.733   0.012
68590W        W33575   6.182  32.384   4.624
68591W        W33576  12.671  29.716   4.050
68592W        W33577  18.210  34.967   4.135
68593W        W33578  25.981  24.327  11.977
68594W        W33579  35.812  37.873   0.417
68595W        W33580  26.544   7.371  10.431
68596W        W33581  40.836  10.087  11.165
68597W        W33582  31.479  15.631   2.694
68598W        W33583  35.023  12.767   0.481
68599W        W33584  31.914  39.110  14.343
68600W        W33585   5.827  17.693  13.748
68601W        W33586  37.100  10.761  12.740
68602W        W33587  40.951  32.604  11.059
68603W        W33588   4.378   0.714   1.730
68604W        W33589   9.341  12.428  13.494
68605W        W33590  40.246   4.988   3.196
68606W        W33591  42.752  20.194  12.010
68607W        W33592   1.012  13.146   0.106
68608W        W33593  20.294  26.999   4.595
68609W        W33594  38.175  23.437  10.726
68610W        W33595  44.331  14.714  11.655
68611W        W33596   2.422  17.046  13.925
68612W        W33597  17.752  14.667  13.918
68613W        W33598  31.408  38.004  10.706
68614W        W33599  36.566  30.088   4.539
68615W        W33600   9.972  35.077   1.929
68616W        W33601  32.942  42.768  12.310
68617W        W33602  26.581  27.490  12.578
68618W        W33603  41.982  26.016  14.031
68619W        W33604  23.108  44.763   1.314
68620W        W33605  24.730  14.084  12.618
68621W        W33606  14.875  26.180   0.310
68622W        W33607   3.264  21.498  12.204
68623W        W33608  18.766  19.407  14.796
68624W        W33609  24.979   0.745  11.633
68625W        W33610   3.234  38.148   2.864
68626W        W33611  40.873  16.172  12.104
68627W        W33612   5.909  17.766  14.685
68628W        W33613  26.100  10.668   0.434
68629W        W33614   7.355  41.874   4.934
68630W        W33615   9.026  24.997   3.707
68631W        W33616  21.208  15.327   4.514
68632W        W33617  14.139  18.762   2.778
68633W        W33618  33.482   6.724   3.577
68634W        W33619  35.923   5.935  13.935
68635W        W33620  15.625  40.894   1.954
68636W        W33621  18.995  29.188   3.296
68637W        W33622  39.314  21.658   4.412
68638W        W33623  11.867  28.838   4.260
68639W        W33624  24.073  28.086   2.800
68640W        W33625   7.115  15.635  12.626
68641W        W33626  18.134  42.622   2.714
68642W        W33627  17.589  14.034   4.614
68643W        W33628  15.077  17.880  13.537
68644W        W33629  41.460  41.979   3.114
68645W        W33630  17.005  37.418   2.234
68646W        W33631  38.533  41.946   2.196
68647W        W33632   8.612  29.717  11.119
68648W        W33633  29.615  15.918   4.192
68649W        W33634  33.276  38.237  13.853
68650W        W33635   6.354  33.160   2.266
68651W        W33636  38.346  26.109  12.133
68652W        W33637  12.966  10.846   0.908
68653W        W33638   6.855   3.406  10.241
68654W        W33639  10.703   9.397   1.674
68655W        W33640  16.101  42.356   0.498
68656W        W33641  28.503   7.441   1.914
68657W        W33642  30.460   3.437  14.520
68658W        W33643   5.370  11.647  14.903
68659W        W33644  13.128   3.849   0.358
68660W        W33645  18.651  17.160   3.124
68661W        W33646  32.758   0.757  14.822
68662W        W33647  11.944  19.287  13.552
68663W        W33648  10.160  11.946   1.664
68664W        W33649   2.720  30.570   0.089
68665W        W33650  31.596  14.338  13.892
68666W        W33651  34.589  28.153   4.263
68667W        W33652  32.667  28.601   2.152
68668W        W33653  13.789  38.453  13.094
68669W        W33654   2.452  20.518   3.115
68670W        W33655  28.567  25.314   4.052
68671W        W33656  20.902  21.750  13.954
68672W        W33657  18.774  16.339  11.864
68673W        W33658   9.419   4.918  14.708
68674W        W33659   9.135  20.104   0.718
68675W        W33660  20.205   3.892  11.368
68676W        W33661   5.134  30.792  10.724
68677W        W33662   1.851  17.036  12.774
68678W        W33663   6.808  17.736  14.998
68679W        W33664   6.852  31.715   1.006
68680W        W33665  41.545  37.492   3.998
68681W        W33666  42.662   0.421   0.741
68682W        W33667  25.366  34.851   0.279
68683W        W33668  29.953   3.236   4.135
68684W        W33669   9.792  29.201  12.319
68685W        W33670  22.975  33.924  13.864
68686W        W33671  44.386   3.863   2.819
68687W        W33672  16.265  36.804   4.175
68688W        W33673  28.625  34.617   0.282
68689W        W33674  28.192  17.598  11.052
68690W        W33675  28.189   3.826   2.512
68691W        W33676   8.737  12.457   4.921
68692W        W33677   0.468  29.330  13.133
68693W        W33678  20.349  10.625   2.850
68694W        W33679  31.790  40.359  13.253
68695W        W33680  21.063  13.901   4.098
68696W        W33681  13.558  29.389  11.471
68697W        W33682  15.332  29.366  13.458
68698W        W33683  30.922  39.896  13.135
68699W        W33684  19.017  28.194  13.070
68700W        W33685  12.523  43.227   0.861
68701W        W33686  29.838   2.709   9.753
68702W        W33687   3.600  27.698   0.907
68703W        W33688  39.838  19.054  12.520
68704W        W33689   4.168  40.343   4.582
68705W        W33690  29.322  38.542   3.666
68706W        W33691  28.147  41.934  11.892
68707W        W33692  16.085  42.226  13.111
68708W        W33693   5.721  10.773   2.893
68709W        W33694  38.359  17.102  12.177
68710W        W33695   3.161  23.038   3.247
68711W        W33696  10.905  10.788   2.199
68712W        W33697  13.352  30.018   3.453
68713W        W33698  16.583  18.093   1.734
68714W        W33699  39.282  20.380   4.228
68715W        W33700   9.211  27.325  12.450
68716W        W33701  32.789  22.300   2.896
68717W        W33702   8.659  41.431   3.811
68718W        W33703   5.689  41.947   1.342
68719W        W33704  15.676  35.986   4.270
68720W        W33705  36.372  33.550  13.358
68721W        W33706   0.994  31.687   4.101
68722W        W33707  23.534  11.193   0.060
68723W        W33708  18.135  18.366  11.190
68724W        W33709  15.552  17.015  13.991
68725W        W33710  15.996  19.242  14.454
68726W        W33711  38.414  35.261   2.164
68727W        W33712  14.111  42.448  13.014
68728W        W33713   2.492   0.880  14.822
68729W        W33714   2.310  40.088  14.782
68730W        W33715   4.889  17.644   4.577
68731W        W33716  18.030  16.598  13.783
68732W        W33717  14.748  33.114   3.776
68733W        W33718  36.965  20.964   0.312
68734W        W33719  29.912  26.723   2.265
68735W        W33720  10.141  27.297  12.056
68736W        W33721  31.182   1.585  14.417
68737W        W33722  33.620   0.319  11.977
68738W        W33723  21.709  34.561  10.898
68739W        W33724  33.957  36.837  11.530
68740W        W33725  30.055  40.250   0.262
68741W        W33726   1.813  34.364  11.620
68742W        W33727  33.683  26.517  14.277
68743W        W33728  26.396   7.320   2.245
68744W        W33729  25.015  14.530  12.611
68745W        W33730   2.781   5.325   2.641
68746W        W33731  11.313   1.808  11.429
68747W        W33732  23.209   0.970   0.458
68748W        W33733  14.154  27.053   2.256
68749W        W33734  30.643  42.754  12.926
68750W        W33735  39.828  43.427  12.099
68751W        W33736  22.669  44.409   3.842
68752W        W33737  43.252  30.563   4.549
68753W        W33738  37.081  39.029  12.375
68754W        W33739  35.936   2.711   1.655
68755W        W33740  14.433  26.136  13.484
68756W        W33741  44.726   6.703   4.138
68757W        W33742  12.688  22.195   4.599
68758W        W33743  33.984  42.281  13.962
68759W        W33744  14.031  24.478  14.174
68760W        W33745  36.601  24.564  12.555
68761W        W33746  41.341   8.715   4.180
68762W        W33747  44.291  27.780  13.105
68763W        W33748   7.636  28.396   3.760
68764W        W33749  28.478  14.608  11.051
68765W        W33750  17.390  40.267   1.804
68766W        W33751   8.676   8.084  13.551
68767W        W33752  14.902  18.459  12.613
68768W        W33753   2.412   9.652   3.301
68769W        W33754  33.715  41.398  11.593
68770W        W33755   6.782  33.123   1.865
68771W        W33756  32.438  36.159   0.661
68772W        W33757  41.392  44.909  10.699
68773W        W33758  34.392   1.846   3.232
68774W        W33759  37.629  26.425   0.350
68775W        W33760  42.539  20.537   0.067
68776W        W33761  25.700  34.434  14.447
68777W        W33762  15.174  37.911  13.039
68778W        W33763  19.891  27.315   4.473
68779W        W33764  15.685  10.866   0.234
68780W        W33765  38.309  11.480  11.378
68781W        W33766   1.318   1.368   1.403
68782W        W33767   0.797  24.872   9.891
68783W        W33768  14.200  14.231  14.555
68784W        W33769   0.464  17.142  11.165
68785W        W33770   7.529  35.185   4.481
68786W        W33771  34.338   9.395   4.548
68787W        W33772   7.851  22.438   1.863
68788W        W33773  18.861  40.355  14.595
68789W        W33774  27.637  18.151   0.579
68790W        W33775  13.030   3.336   2.791
68791W        W33776  16.276  11.386  11.502
68792W        W33777  44.298  37.355  12.485
68793W        W33778   1.671  36.576   3.131
68794W        W33779   1.502  30.251   1.358
68795W        W33780  41.933  16.626  10.299
68796W        W33781  35.628  31.546   4.619
68797W        W33782  27.911  42.303  11.577
68798W        W33783  15.149  10.568  10.576
68799W        W33784  41.593  32.961  14.019
68800W        W33785  32.976  14.141   2.260
68801W        W33786   8.818  35.097   3.740
68802W        W33787  22.212   9.293  14.378
68803W        W33788   4.555  39.119  13.936
68804W        W33789   4.756   9.889  11.335
68805W        W33790  13.077  39.789   3.085
68806W        W33791  38.250  15.665  10.430
68807W        W33792  20.579  21.539   1.865
68808W        W33793  29.490  10.237  14.242
68809W        W33794  26.584  22.150   0.057
68810W        W33795  41.961  21.755  13.002
68811W        W33796   7.898  13.879  14.410
68812W        W33797  14.292   5.764   5.019
68813W        W33798   1.154  11.047   0.335
68814W        W33799  38.994  17.266   0.784
68815W        W33800  15.872  28.942   3.545
68816W        W33801  36.404  27.740  11.398
68817W        W33802  17.189   4.927   0.584
68818W        W33803   1.017   3.967   3.180
68819W        W33804  17.749  14.201  14.197
68820W        W33805   6.271  14.442   3.666
68821W        W33806  27.633  33.496   1.323
68822W        W33807  43.815  35.452   2.960
68823W        W33808  35.875  14.721   4.500
68824W        W33809  37.648  16.296   4.545
68825W        W33810  31.499  11.425   1.466
68826W        W33811  42.222  43.795  13.076
68827W        W33812   6.824  11.385  11.292
68828W        W33813  14.093  37.988   4.186
68829W        W33814  44.367  18.708   1.910
68830W        W33815  36.996   9.979   1.219
68831W        W33816  22.544  37.055   0.456
68832W        W33817  16.092  19.119   1.409
68833W        W33818  41.221  37.344   1.725
68834W        W33819  44.503  33.642  13.204
68835W        W33820  38.522  12.847   0.265
68836W        W33821   4.115  37.559   2.858
68837W        W33822  37.072  42.292   0.269
68838W        W33823  13.060   5.282  11.137
68839W        W33824  24.567   8.333  14.021
68840W        W33825  39.364  37.905  12.893
68841W        W33826  43.224  11.873  13.909
68842W        W33827  34.517  18.220   2.728
68843W        W33828  14.685  32.362   0.259
68844W        W33829  10.769  42.497  14.316
68845W        W33830  11.940   9.324  11.148
68846W        W33831   7.640  27.234  13.407
68847W        W33832  19.059   7.574   1.339
68848W        W33833   9.052   5.275   1.057
68849W        W33834   2.954  18.676   0.290
68850W        W33835   0.472  19.316  13.102
68851W        W33836  42.225   3.246  13.354
68852W        W33837  22.249  10.385  12.158
68853W        W33838   0.378  32.123   2.399
68854W        W33839  35.352  40.217   3.594
68855W        W33840   8.623  30.475   4.246
68856W        W33841  13.397   6.812   2.991
68857W        W33842  13.133   9.860  10.970
68858W        W33843   0.078  15.163  10.289
68859W        W33844  26.675  31.184   2.994
68860W        W33845  41.313  20.459   2.703
68861W        W33846  28.082  31.535   0.245
68862W        W33847  29.568  34.388   3.214
68863W        W33848   2.417  41.111  10.930
68864W        W33849  39.342  17.157   4.674
68865W        W33850   3.818  38.016   4.699
68866W        W33851  40.535  42.418  14.391
68867W        W33852  36.150  13.145   3.728
68868W        W33853  36.810  39.350  14.110
68869W        W33854   6.722   0.241  12.261
68870W        W33855  24.470  33.684  12.297
68871W        W33856  32.789   7.740   0.888
68872W        W33857  26.730  16.764  11.464
68873W        W33858  43.192  34.700  12.870
68874W        W33859  29.080  33.417  13.888
68875W        W33860   5.825  15.316  11.908
68876W        W33861  15.399  29.501   0.686
68877W        W33862   7.355   9.156   1.176
68878W        W33863  17.298  31.913  14.486
68879W        W33864  22.419  23.588   2.753
68880W        W33865   4.468  12.605  12.462
68881W        W33866   5.450  23.507  14.890
68882W        W33867  23.708  36.013  11.952
68883W        W33868   7.416  26.640   0.146
68884W        W33869   4.922   6.865   2.671
68885W        W33870  29.802   8.530  13.064
68886W        W33871  41.155  25.538   1.459
68887W        W33872  14.131  28.349   1.355
68888W        W33873   3.894  35.858   0.378
68889W        W33874  26.418  41.938   4.782
68890W        W33875  18.891  21.293   3.400
68891W        W33876   4.248  44.360   0.920
68892W        W33877   8.674   5.601  12.459
68893W        W33878   4.681   0.957  12.030
68894W        W33879   5.656  35.495   1.861
68895W        W33880   1.198  44.311  14.514
68896W        W33881  37.254  18.805  12.046
68897W        W33882  40.984  43.581   2.825
68898W        W33883  42.908  43.264  14.983
68899W        W33884  32.042   2.908  12.192
68900W        W33885  37.550  10.961   4.321
68901W        W33886  17.630   5.361   1.798
68902W        W33887   1.528  43.217  12.389
68903W        W33888  12.857  30.565   3.338
68904W        W33889  11.218   3.420  12.099
68905W        W33890  15.900  43.686  11.001
68906W        W33891  25.687  35.187   3.303
68907W        W33892  29.026  35.164   1.752
68908W        W33893  36.542  24.117   0.962
68909W        W33894   5.936  19.209  14.791
68910W        W33895  16.638  23.098   9.890
68911W        W33896  36.511  10.088   0.411
68912W        W33897  36.456  32.856  14.977
68913W        W33898  29.064  26.190   0.079
68914W        W33899  15.264  44.548  12.074
68915W        W33900  23.059  30.366  12.965
68916W        W33901  20.661   7.176  14.551
68917W        W33902   6.705   8.128   4.515
68918W        W33903  17.183  41.015   1.550
68919W        W33904  16.726  12.240  14.165
68920W        W33905  12.134  27.827   1.397
68921W        W33906  24.611  22.640  13.928
68922W        W33907  42.939   3.602   0.338
68923W        W33908  38.821  11.141  10.715
68924W        W33909   0.323  26.393  12.534
68925W        W33910  24.543  41.840  11.108
68926W        W33911  14.902  31.097   0.384
68927W        W33912   0.260   4.917   2.148
68928W        W33913  28.837  26.498   1.390
68929W        W33914  14.918   3.116  11.535
68930W        W33915  40.823  32.436   3.624
68931W        W33916   4.652   2.362   0.500
68932W        W33917   9.444  40.121   0.435
68933W        W33918  31.194  38.474  10.630
68934W        W33919  15.765   7.255  12.932
68935W        W33920  40.963  37.010   2.881
68936W        W33921  43.100   9.410   0.020
68937W        W33922  33.997  16.567   2.224
68938W        W33923  32.625   3.458   4.063
68939W        W33924  17.222  37.271   1.801
68940W        W33925  14.085  41.802  12.863
68941W        W33926  10.056  42.326  12.008
68942W        W33927  37.291  31.982   1.785
68943W        W33928  22.512   7.658  10.462
68944W        W33929  18.626  17.184  11.217
68945W        W33930  29.129  10.765  13.603
68946W        W33931   0.411  29.473   2.396
68947W        W33932  20.637  34.082   4.470
68948W        W33933  20.747  36.873   4.704
68949W        W33934  17.798  36.972   2.904
68950W        W33935  31.065  26.276  10.755
68951W        W33936   4.679  17.354  12.127
68952W        W33937  38.936   5.937   0.482
68953W        W33938   3.264  23.437  10.770
68954W        W33939   5.966  10.309  12.947
68955W        W33940   1.380  39.499   0.743
68956W        W33941  31.498  32.168   2.284
68957W        W33942  21.098   4.394  11.052
68958W        W33943  41.860  27.727   0.056
68959W        W33944   4.369  29.456  11.526
68960W        W33945  35.412  27.919   4.589
68961W        W33946  12.404  40.124   1.812
68962W        W33947  41.084  29.170   0.388
68963W        W33948   8.737  25.081   0.904
68964W        W33949  32.501  34.448   4.612
68965W        W33950  12.379  38.513  13.982
68966W        W33951  22.169  26.133   0.684
68967W        W33952  26.692   2.781  13.649
68968W        W33953  28.948  23.596   3.679
68969W        W33954   7.681  29.734   3.045
68970W        W33955  13.885   7.779  12.046
68971W        W33956  44.308  37.961   2.380
68972W        W33957  30.636  22.124  14.481
68973W        W33958  18.782  14.875  14.826
68974W        W33959  23.137  30.446   2.443
68975W        W33960  43.001  33.034   2.370
68976W        W33961  23.745  10.617   0.905
68977W        W33962  27.147  44.935  13.515
68978W        W33963  14.593  41.783   3.180
68979W        W33964  29.995  38.750  10.708
68980W        W33965  33.323   1.359  12.323
68981W        W33966  14.436  26.897   4.601
68982W        W33967  15.606  39.027   1.808
68983W        W33968  23.008  28.995   0.597
68984W        W33969  40.515  30.099   0.902
68985W        W33970  38.488  15.802   1.737
68986W        W33971  42.947   6.454   0.565
68987W        W33972  29.940  22.288   4.844
68988W        W33973  24.020   3.325   1.942
68989W        W33974  44.370  35.860   1.387
68990W        W33975   3.617  14.095  13.819
68991W        W33976   6.968  34.969  11.554
68992W        W33977   9.939  30.131  12.010
68993W        W33978  11.970  17.117   1.368
68994W        W33979  40.094  36.462  13.101
68995W        W33980  25.675  16.818  13.394
68996W        W33981  29.955  35.188  13.562
68997W        W33982  34.476  13.795  12.063
68998W        W33983  23.578  30.556  11.073
68999W        W33984  44.728  13.609  13.896
69000W        W33985   2.718  29.175   0.426
69001W        W33986  11.797   0.001  10.799
69002W        W33987   0.816   4.687  11.547
69003W        W33988  28.927  23.909   1.199
69004W        W33989   3.819   2.719  11.555
69005W        W33990  20.225   2.788   1.458
69006W        W33991  23.056  44.959   2.848
69007W        W33992  29.251   0.721   4.232
69008W        W33993  26.117  31.770   1.981
69009W        W33994  20.471  17.278   2.327
69010W        W33995  26.630  32.719   4.542
69011W        W33996  20.611  11.834   3.181
69012W        W33997  22.658  36.883   1.520
69013W        W33998  11.733  39.263   3.670
69014W        W33999  41.317  13.635   2.856
69015W        W34000  34.602  44.063   1.159
69016W        W34001  11.454  35.056   2.223
69017W        W34002  27.088  27.472  13.580
69018W        W34003  18.011  27.622   0.110
69019W        W34004  13.947  22.110   3.319
69020W        W34005   0.261  17.782  10.215
69021W        W34006   5.684  17.042  11.161
69022W        W34007  10.591   8.843  14.809
69023W        W34008  25.123  37.514  12.558
69024W        W34009  20.647  13.604  11.121
69025W        W34010  33.381  14.358  10.033
69026W        W34011  30.057  11.870  13.360
69027W        W34012  29.791  25.112   1.843
69028W        W34013  13.726  31.118  14.807
69029W        W34014  28.914  32.919  12.445
69030W        W34015  38.041  12.515  11.660
69031W        W34016  32.158  13.556  13.332
69032W        W34017  25.919  27.231   4.061
69033W        W34018   8.056   8.298   0.269
69034W        W34019  29.123  15.737   0.633
69035W        W34020  18.355   1.371  10.723
69036W        W34021   6.753   8.639   4.459
69037W        W34022  30.217  14.812   0.278
69038W        W34023   1.771  16.794   1.399
69039W        W34024  38.920  31.640  10.512
69040W        W34025  31.806  12.087  13.093
69041W        W34026  35.255  42.918   0.420
69042W        W34027  25.646  42.038  14.427
69043W        W34028  13.246  11.142   4.915
69044W        W34029   9.573   6.741  10.329
69045W        W34030  11.914  39.855  12.003
69046W        W34031  29.490  10.058   0.918
69047W        W34032  23.605  19.756   1.844
69048W        W34033  28.167  15.940  11.757
69049W        W34034  33.507  10.922   3.183
69050W        W34035  21.504   7.178  11.457
69051W        W34036   5.019  23.815   2.746
69052W        W34037  40.596  21.161  12.961
69053W        W34038  22.391  24.258   3.314
69054W        W34039   4.802  24.897   1.431
69055W        W34040  14.111  33.544  11.548
69056W        W34041  37.279   5.347  12.824
69057W        W34042  22.288  14.085  11.113
69058W        W34043   2.727   8.540   4.908
69059W        W34044  17.041  25.142   0.839
69060W        W34045  24.070   9.002   3.414
69061W        W34046  19.618  11.288  10.684
69062W        W34047  21.667   4.917  14.535
69063W        W34048  38.891   7.695   0.385
69064W        W34049  39.956  33.842   1.923
69065W        W34050  36.876  31.887  14.412
69066W        W34051   9.779  31.584   2.947
69067W        W34052   9.644  25.239   2.722
69068W        W34053  15.318  24.685  11.135
69069W        W34054  18.608  14.082   1.354
69070W        W34055   3.138   4.854   2.378
69071W        W34056  24.603   1.076  10.178
69072W        W34057  40.515  40.304   4.551
69073W        W34058   7.719  24.569  12.990
69074W        W34059   0.808  10.215  13.026
69075W        W34060  11.800   0.264  11.258
69076W        W34061   9.365  28.184   0.426
69077W        W34062  24.746  22.976   3.166
69078W        W34063  16.694   6.450  10.121
69079W        W34064   6.886  25.129   2.243
69080W        W34065  14.720  23.757   0.253
69081W        W34066  20.144  20.271  14.837
69082W        W34067   7.913  37.623   1.781
69083W        W34068  17.181  26.090  10.664
69084W        W34069  33.465  21.327   0.902
69085W        W34070  12.182  14.613  14.875
69086W        W34071  34.384  44.193   4.167
69087W        W34072  13.116   1.179   5.010
69088W        W34073  29.246  31.636   3.354
69089W        W34074  40.850  15.445   9.919
69090W        W34075  38.535  31.964  14.055
69091W        W34076   1.524  35.926  11.554
69092W        W34077  39.408  14.091  14.856
69093W        W34078  29.571  28.942   0.277
69094W        W34079  26.575  23.262  11.880
69095W        W34080  39.859   3.243  13.908
69096W        W34081  30.521  39.126  12.103
69097W        W34082  35.969   3.478   4.194
69098W        W34083  30.996  38.942  10.731
69099W        W34084  14.537   1.760   0.293
69100W        W34085  34.526  12.747   3.812
69101W        W34086  24.561  28.023   0.689
69102W        W34087  19.085   6.197   2.342
69103W        W34088   4.988   2.304   2.210
69104W        W34089  16.161  21.255  11.523
69105W        W34090  11.717  30.450  13.027
69106W        W34091   7.515  30.543  12.461
69107W        W34092   7.476   2.656  11.437
69108W        W34093  28.450  32.547  10.611
69109W        W34094  30.303  23.918  14.882
69110W        W34095  30.470  32.915   0.964
69111W        W34096  15.441  21.373   2.574
69112W        W34097  39.022   5.328  11.130
69113W        W34098  34.899  31.532  11.207
69114W        W34099  22.433  26.446   2.755
69115W        W34100   4.510  27.746   1.229
69116W        W34101  15.629   3.922   3.406
69117W        W34102   0.006  13.746   3.213
69118W        W34103  41.968  31.468   1.990
69119W        W34104  14.595  24.742   0.386
69120W        W34105  31.525   4.438   1.422
69121W        W34106  17.652   0.700   0.895
69122W        W34107  41.368  40.774   2.833
69123W        W34108  39.488   9.413   4.505
69124W        W34109  38.417  32.071   4.204
69125W        W34110  15.538  36.893   4.804
69126W        W34111  22.921  16.188  11.562
69127W        W34112   9.490  17.811  11.551
69128W        W34113   3.956   1.244  10.701
69129W        W34114  24.140  37.253   2.134
69130W        W34115  13.609  21.472   3.871
69131W        W34116  42.777  20.453  10.066
69132W        W34117  11.132  29.090   4.082
69133W        W34118  16.297  42.465  13.540
69134W        W34119  41.386  17.344   1.820
69135W        W34120  36.602  34.087  10.917
69136W        W34121  28.070  31.466  12.904
69137W        W34122  17.757  22.171   0.880
69138W        W34123  25.750  22.973  13.455
69139W        W34124   5.744  24.594  13.977
69140W        W34125  17.751  10.259  11.485
69141W        W34126   6.448  23.667  10.743
69142W        W34127  10.577   6.709   0.457
69143W        W34128  11.885  38.179  11.879
69144W        W34129  30.667  38.474   3.956
69145W        W34130   6.361  43.974   4.337
69146W        W34131  23.295  12.149   3.581
69147W        W34132   6.584  40.524  14.025
69148W        W34133  18.919  32.152   0.797
69149W        W34134  26.736  27.037  13.500
69150W        W34135  17.331   3.238   4.981
69151W        W34136  16.829  15.766   3.786
69152W        W34137  12.851   3.659  14.924
69153W        W34138  32.153   6.470   0.909
69154W        W34139   5.796   6.677   2.120
69155W        W34140  12.569  25.695   1.304
69156W        W34141  42.522  34.713   1.198
69157W        W34142  44.804  12.727  12.457
69158W        W34143  16.806  15.858  11.628
69159W        W34144  31.956   1.388   1.717
69160W        W34145  14.386   7.124   1.109
69161W        W34146  12.870  26.062   4.678
69162W        W34147  26.217  18.136   2.780
69163W        W34148   9.925  28.034  14.455
69164W        W34149  43.371  41.596   4.532
69165W        W34150  17.926  12.550  12.455
69166W        W34151  22.488   2.864   1.702
69167W        W34152   7.524  18.972   3.812
69168W        W34153  17.832   1.544  10.693
69169W        W34154  16.048  17.720  11.469
69170W        W34155  20.203  27.589  10.419
69171W        W34156  40.914  20.676   4.576
69172W        W34157  12.833  18.638   3.279
69173W        W34158   9.770  10.431   4.600
69174W        W34159   3.451  34.847  14.148
69175W        W34160  19.136  31.336   2.807
69176W        W34161  44.424  43.244   1.115
69177W        W34162  43.890  11.245   4.016
69178W        W34163  36.864  38.043   3.899
69179W        W34164  24.144  32.480   3.508
69180W        W34165  22.239  19.958   2.087
69181W        W34166  13.193  31.857  14.537
69182W        W34167  29.209  32.937   0.769
69183W        W34168   9.680  29.754  12.863
69184W        W34169  15.793  13.127  13.910
69185W        W34170  17.488   2.767   3.298
69186W        W34171  29.223  17.129   3.605
69187W        W34172   7.148   8.270  13.452
69188W        W34173   2.509  31.473  12.095
69189W        W34174  38.966  29.074  11.802
69190W        W34175  34.556  23.054   0.371
69191W        W34176  12.640  31.428   2.783
69192W        W34177  27.270  14.782   3.613
69193W        W34178  31.827  40.523   1.933
69194W        W34179  41.285  33.099   3.666
69195W        W34180  43.635   2.015  10.940
69196W        W34181  21.104   3.118   4.036
69197W        W34182  14.441  18.343   0.265
69198W        W34183  24.527  30.985  12.078
69199W        W34184   6.404   9.773   3.691
69200W        W34185  11.518  23.918   2.622
69201W        W34186   6.723  29.819   0.189
69202W        W34187  17.744  41.412   3.748
69203W        W34188  44.873  10.177  12.891
69204W        W34189  14.682   3.607   2.229
69205W        W34190  18.775  40.325   3.400
69206W        W34191  25.588  36.193  11.899
69207W        W34192   4.382  23.020   0.997
69208W        W34193  24.254  36.424  13.718
69209W        W34194  44.471   6.254   3.882
69210W        W34195  11.338   7.086  12.618
69211W        W34196  11.259  31.310  14.815
69212W        W34197  22.741  33.958   0.555
69213W        W34198   8.634  38.823   2.878
69214W        W34199  40.557  17.565   0.483
69215W        W34200   0.690   7.773   1.289
69216W        W34201  26.520  21.325   0.395
69217W        W34202  24.184   8.631  11.634
69218W        W34203  12.336   0.931  13.817
69219W        W34204  18.238   6.995   2.371
69220W        W34205   0.961  18.572  11.605
69221W        W34206  11.233  32.004   4.306
69222W        W34207  41.056  21.065  12.685
69223W        W34208   8.347   1.200  11.860
69224W        W34209   6.276   9.306  11.249
69225W        W34210  31.680  36.842  13.444
69226W        W34211  11.114  20.579  12.168
69227W        W34212  40.028  20.276   2.439
69228W        W34213  20.232  29.998   1.381
69229W        W34214  42.734  22.146   4.607
69230W        W34215  24.040  38.322  14.852
69231W        W34216  42.265  21.229   2.256
69232W        W34217  44.409   6.769   0.007
69233W        W34218   4.621   4.931  11.202
69234W        W34219  33.198  26.725   4.163
69235W        W34220  14.731  35.883  14.988
69236W        W34221  21.439   9.187  11.942
69237W        W34222   9.698   4.042   2.611
69238W        W34223  34.502  18.351  14.720
69239W        W34224  34.616  26.024  10.440
69240W        W34225  32.236  20.325   2.283
69241W        W34226  22.830  33.217  11.572
69242W        W34227  30.402  41.476  13.327
69243W        W34228  19.888  13.308  14.446
69244W        W34229  35.799  23.539  12.058
69245W        W34230  36.598  32.438   1.680
69246W        W34231  21.199  24.624   0.253
69247W        W34232  33.212  19.157   4.210
69248W        W34233  44.660   7.111  11.012
69249W        W34234  18.734  24.001   0.671
69250W        W34235  21.050  34.125   1.169
69251W        W34236  13.237   1.244   4.093
69252W        W34237  42.318  29.033   2.872
69253W        W34238   0.065  18.225  12.652
69254W        W34239  16.782   4.166   2.790
69255W        W34240  24.024  32.151  14.598
69256W        W34241  17.781   0.948  12.543
69257W        W34242  31.161   1.168   5.722
69258W        W34243  32.411  41.474  13.023
69259W        W34244  24.691  37.571   4.650
69260W        W34245  20.140  21.771   3.607
69261W        W34246  34.685  15.442  13.943
69262W        W34247  18.620  18.625  14.467
69263W        W34248  29.471  42.317  12.032
69264W        W34249  26.683  19.320  13.408
69265W        W34250  15.712   8.930  12.516
69266W        W34251   3.388  21.261   2.646
69267W        W34252   2.911  16.182   3.877
69268W        W34253  35.018  24.203   4.832
69269W        W34254   3.359  15.830   0.944
69270W        W34255  19.639  14.115  11.198
69271W        W34256  11.609  25.971   3.199
69272W        W34257  38.415  42.970   2.610
69273W        W34258   9.109  11.637  10.682
69274W        W34259  24.064  25.134   3.292
69275W        W34260  25.608  24.551   3.627
69276W        W34261  22.674  13.261  13.385
69277W        W34262  37.850  21.631  11.600
69278W        W34263  12.385  35.185  10.738
69279W        W34264   4.833  14.125  12.749
69280W        W34265  44.694  11.414  11.185
69281W        W34266   3.796  26.986  13.389
69282W        W34267  36.513  28.824   0.543
69283W        W34268  18.344  41.135   3.421
69284W        W34269  33.223   4.698  11.548
69285W        W34270  32.164  18.146   0.045
69286W        W34271  27.093  41.068  13.510
69287W        W34272  29.911   0.822  13.921
69288W        W34273   9.365   6.519  11.532
69289W        W34274   5.153  40.065  12.782
69290W        W34275  41.787  27.734  10.860
69291W        W34276  23.036  20.062  11.057
69292W        W34277  12.157   0.538   1.786
69293W        W34278  42.488  22.691   2.662
69294W        W34279  28.017   9.796   3.599
69295W        W34280  13.315  38.753  10.220
69296W        W34281   3.727   1.224  14.568
69297W        W34282   3.159  13.194   2.817
69298W        W34283  10.036  20.055  11.448
69299W        W34284   8.747  42.587  13.457
69300W        W34285  10.821  29.022  14.992
69301W        W34286   9.049  16.764  14.448
69302W        W34287  18.674  34.120  14.297
69303W        W34288  19.179  43.465  13.349
69304W        W34289  33.504  29.478   4.581
69305W        W34290  19.597   3.086  14.364
69306W        W34291  19.034  34.919   1.501
69307W        W34292  17.548  10.302   3.289
69308W        W34293  41.618   1.849   1.860
69309W        W34294  33.339   6.299   0.327
69310W        W34295  20.169  14.796   2.366
69311W        W34296  11.074  25.102  14.867
69312W        W34297  23.643   5.833   2.688
69313W        W34298   4.174  12.294   4.524
69314W        W34299  13.680  36.685   3.017
69315W        W34300  32.284  17.497  12.443
69316W        W34301   5.795   7.786   3.766
69317W        W34302  40.097   0.067  13.708
69318W        W34303   2.849  33.335   3.150
69319W        W34304  23.224  37.332   3.201
69320W        W34305  31.154   1.807  11.375
69321W        W34306  26.847  38.827   5.027
69322W        W34307  37.338  28.995   2.310
69323W        W34308  36.010  16.276   3.859
69324W        W34309  23.622  10.582  13.895
69325W        W34310  20.939  22.078  14.920
69326W        W34311   4.512   0.965   2.214
69327W        W34312   9.692  23.285  11.586
69328W        W34313  27.139  36.263  11.192
69329W        W34314  20.018  29.303  10.994
69330W        W34315  23.410  44.340   3.171
69331W        W34316  36.561  31.386   1.777
69332W        W34317  31.690  22.605   3.051
69333W        W34318  12.967   7.509   0.833
69334W        W34319   7.089   5.814   3.604
69335W        W34320  40.656  43.272  11.208
69336W        W34321  21.635  13.769  13.472
69337W        W34322  23.646  11.904   2.845
69338W        W34323  12.722  34.224  12.985
69339W        W34324  44.460  18.763  11.141
69340W        W34325  38.834  20.437   2.192
69341W        W34326   4.797   6.423  13.632
69342W        W34327  40.065   8.787  14.554
69343W        W34328  36.575   8.419   4.242
69344W        W34329  10.330  16.573  13.988
69345W        W34330  26.009  44.551  10.825
69346W        W34331   7.288  43.763  11.111
69347W        W34332  18.301  24.227   0.908
69348W        W34333  37.999  16.565   2.743
69349W        W34334  42.905   8.357   5.027
69350W        W34335  31.635  19.138  10.595
69351W        W34336  16.585  23.567  10.632
69352W        W34337   2.467  31.998  14.297
69353W        W34338  21.722  28.505   3.224
69354W        W34339  28.701  21.129   1.972
69355W        W34340  18.187   4.930  13.418
69356W        W34341  33.491  15.925   2.315
69357W        W34342  39.643  12.261   4.556
69358W        W34343  25.746  33.710   2.268
69359W        W34344   8.488  11.406  11.267
69360W        W34345  22.582  18.534  12.932
69361W        W34346   6.253  12.696  12.549
69362W        W34347  18.314  27.232  14.863
69363W        W34348   8.791  15.109   4.374
69364W        W34349  10.077   1.152  11.626
69365W        W34350  16.072  34.050  14.389
69366W        W34351  16.612  27.248   0.299
69367W        W34352  24.909  20.269  11.923
69368W        W34353  34.490  44.708   4.737
69369W        W34354  18.207   2.852  14.394
69370W        W34355   1.737  26.018   3.245
69371W        W34356  17.074  37.494   3.113
69372W        W34357   7.433  21.082   4.209
69373W        W34358  28.065   5.483   1.530
69374W        W34359  26.740  20.604   4.868
69375W        W34360  13.205  42.032  12.361
69376W        W34361  18.589  19.218   1.682
69377W        W34362   8.126  10.958  11.985
69378W        W34363   5.090  34.524  12.398
69379W        W34364  28.526  26.752   0.094
69380W        W34365  24.146  15.798  14.370
69381W        W34366  22.613   3.672   4.413
69382W        W34367  22.129  40.522   1.541
69383W        W34368   7.799  38.386   3.156
69384W        W34369  17.396  39.431  12.053
69385W        W34370   5.635  21.024   1.644
69386W        W34371  43.036  11.826   1.398
69387W        W34372  15.573  17.675   2.602
69388W        W34373  36.871  30.946   1.756
69389W        W34374  12.628  17.350   3.063
69390W        W34375   0.182  26.643   2.072
69391W        W34376  12.693  15.702  14.856
69392W        W34377  16.783  12.621  11.515
69393W        W34378   7.481  36.877   0.973
69394W        W34379  41.012  38.109  12.388
69395W        W34380   2.234  15.339   4.290
69396W        W34381  14.766  14.328   5.042
69397W        W34382  21.794   3.268   2.324
69398W        W34383  38.097  14.280   0.257
69399W        W34384   9.931  37.538   1.702
69400W        W34385  28.378  16.863   3.503
69401W        W34386  34.630  19.059  11.592
69402W        W34387   3.487   0.488  11.011
69403W        W34388   7.156  40.506  12.867
69404W        W34389  19.832  34.091   0.235
69405W        W34390  12.896   1.775  11.480
69406W        W34391   0.796  14.302  14.722
69407W        W34392  30.529  42.521  10.964
69408W        W34393  44.252  25.160  11.569
69409W        W34394  22.718  38.876  10.350
69410W        W34395   7.427  17.634   4.173
69411W        W34396  17.606  34.804   4.097
69412W        W34397  15.759  31.172  13.359
69413W        W34398   3.317  13.205   1.440
69414W        W34399  18.514  18.729   1.427
69415W        W34400   4.727  39.416   0.345
69416W        W34401  32.581  16.274   0.300
69417W        W34402  33.001  43.014   2.407
69418W        W34403  32.170  28.676   2.163
69419W        W34404   2.702  15.551   2.746
69420W        W34405   8.949  17.120   3.126
69421W        W34406   6.310  43.036   4.556
69422W        W34407  29.886   4.029   0.919
69423W        W34408   8.709  37.671   3.700
69424W        W34409  27.469  39.475   4.121
69425W        W34410  21.776   3.362  11.999
69426W        W34411  29.358  37.035   4.578
69427W        W34412   1.622  40.426  14.325
69428W        W34413  42.289   8.336   3.369
69429W        W34414  36.172  31.657  11.501
69430W        W34415  19.296   9.100  14.010
69431W        W34416  16.866  21.318  12.002
69432W        W34417  25.130  17.979  13.293
69433W        W34418   5.660  19.573  13.369
69434W        W34419  44.070  23.462  10.307
69435W        W34420  37.763  33.746  13.370
69436W        W34421   3.782  23.023  14.201
69437W        W34422  44.258   1.353   1.954
69438W        W34423   4.051   7.776  10.596
69439W        W34424  33.442  28.402  12.658
69440W        W34425  44.769  33.571   1.924
69441W        W34426  35.298  30.378   3.903
69442W        W34427  40.905  30.177  10.732
69443W        W34428   8.092  13.741  12.031
69444W        W34429  22.665  29.032  11.227
69445W        W34430   4.609  36.878  13.479
69446W        W34431  13.621  18.914  13.374
69447W        W34432  31.430   7.165  11.100
69448W        W34433  35.174   6.405  12.020
69449W        W34434  17.544  38.250  12.336
69450W        W34435  18.771  31.210   4.987
69451W        W34436  41.384  25.467  13.727
69452W        W34437  42.272  32.275   0.382
69453W        W34438  25.445  10.672  11.528
69454W        W34439  23.541  33.122  13.444
69455W        W34440   2.965   7.704   3.826
69456W        W34441  31.058   9.886  11.977
69457W        W34442   9.486  38.776   3.261
69458W        W34443  33.663  27.748   1.375
69459W        W34444  11.823  44.996   4.319
69460W        W34445   6.944  11.182   1.466
69461W        W34446  20.661  35.191  14.321
69462W        W34447  16.145  42.881  14.931
69463W        W34448  27.607  28.978   2.671
69464W        W34449  39.966  35.917  10.951
69465W        W34450  33.364   1.954   4.229
69466W        W34451  15.072  30.527  13.866
69467W        W34452  16.702  37.085  13.955
69468W        W34453   5.897  21.054  14.846
69469W        W34454   8.796  16.124   2.143
69470W        W34455  34.943  13.204  13.482
69471W        W34456  19.424  23.558  13.870
69472W        W34457   8.238  42.688  12.946
69473W        W34458  27.559  22.198   4.735
69474W        W34459   5.690   1.243  11.131
69475W        W34460  35.296   7.291  12.600
69476W        W34461   2.702  43.327   2.099
69477W        W34462  10.705  41.506   1.182
69478W        W34463  25.862  44.447  12.500
69479W        W34464  32.158  33.548   1.280
69480W        W34465  38.686  29.010   0.199
69481W        W34466   8.347   8.883  13.093
69482W        W34467  24.167  29.280  10.652
69483W        W34468  32.532  10.718  12.005
69484W        W34469   6.278  33.247  13.320
69485W        W34470   2.295   8.833  11.544
69486W        W34471  12.745  31.109   2.219
69487W        W34472  17.263  23.590   2.172
69488W        W34473  20.538  28.941  11.090
69489W        W34474  38.168   2.307   4.677
69490W        W34475  17.245  32.390  11.458
69491W        W34476  31.082  21.500  11.375
69492W        W34477  26.485  42.530  12.577
69493W        W34478  22.881  16.957   3.140
69494W        W34479  34.168  10.296   1.856
69495W        W34480  39.388  36.856   0.910
69496W        W34481  43.285  20.182  14.873
69497W        W34482  19.209   4.270   1.653
69498W        W34483  18.143   0.855  10.756
69499W        W34484  36.834   2.477  11.186
69500W        W34485  39.518  14.822   1.886
69501W        W34486   3.852  33.417  12.792
69502W        W34487  33.195  23.501  11.228
69503W        W34488  20.578  16.768   1.418
69504W        W34489   7.388   5.739   3.166
69505W        W34490   6.038  36.451   3.292
69506W        W34491  34.834   1.318   3.791
69507W        W34492   9.630   8.683  11.079
69508W        W34493   9.673  43.551   2.138
69509W        W34494  39.292   2.688   2.681
69510W        W34495  11.738  28.159   2.637
69511W        W34496  14.742  27.960  12.993
69512W        W34497  26.634  44.054   2.639
69513W        W34498  26.024  43.523  13.524
69514W        W34499  32.071  15.822   2.066
69515W        W34500  44.751   2.222   2.377
69516W        W34501   6.713  32.213   0.918
69517W        W34502  34.095  33.158  14.485
69518W        W34503  43.568  32.559   0.574
69519W        W34504   1.328  26.155  12.363
69520W        W34505  16.634  21.277   3.597
69521W        W34506   6.200  30.039   2.616
69522W        W34507  37.874  17.352   3.176
69523W        W34508  38.835  43.436   3.586
69524W        W34509   1.823  14.247   4.438
69525W        W34510  37.097  28.367  12.363
69526W        W34511   1.118   7.926  12.614
69527W        W34512  25.881  43.782  13.068
69528W        W34513  41.978  13.385   1.393
69529W        W34514  34.343   1.422   0.239
69530W        W34515  16.225  23.687   4.066
69531W        W34516  12.223  28.264  14.379
69532W        W34517  24.156  21.282   3.223
69533W        W34518  34.047  27.077  14.909
69534W        W34519  28.262  13.224   5.043
69535W        W34520  15.401  17.967  12.066
69536W        W34521   8.805   4.963   5.103
69537W        W34522  26.435  34.953  11.032
69538W        W34523  35.490  37.585   3.923
69539W        W34524  23.705  22.612  10.191
69540W        W34525  17.208  40.573   2.835
69541W        W34526  37.840   3.322   5.071
69542W        W34527  15.850  34.835  12.296
69543W        W34528  26.952  26.711  13.877
69544W        W34529  33.182  25.079   0.949
69545W        W34530  40.937  15.635  11.948
69546W        W34531  10.981  39.890  14.415
69547W        W34532  16.556   9.808   2.356
69548W        W34533  15.829  34.717  11.111
69549W        W34534   4.245   1.427  11.889
69550W        W34535  17.704  43.436   1.786
69551W        W34536  33.583  15.728   3.196
69552W        W34537  42.878  19.787  14.037
69553W        W34538  18.690  29.031   0.642
69554W        W34539  20.551  15.409  10.776
69555W        W34540  11.321  36.990  11.520
69556W        W34541  17.822  39.192   3.220
69557W        W34542  31.052  21.113  10.675
69558W        W34543  26.235  24.642  13.422
69559W        W34544  19.316  25.314   3.341
69560W        W34545  16.029  18.265   2.990
69561W        W34546  35.006  30.116   1.137
69562W        W34547  36.367  20.451   4.586
69563W        W34548  26.700   9.409  11.397
69564W        W34549  13.275  40.586  12.666
69565W        W34550   5.780  29.225   1.714
69566W        W34551  40.933  20.982  11.115
69567W        W34552  33.942  24.016  12.852
69568W        W34553  22.207   3.067   4.522
69569W        W34554  32.152  37.835   4.032
69570W        W34555  24.865  24.582   4.732
69571W        W34556  13.609  36.927  12.880
69572W        W34557  19.742   5.923  11.495
69573W        W34558  24.365  20.616  11.162
69574W        W34559  40.398  22.958  13.352
69575W        W34560  22.728  31.061  14.805
69576W        W34561  35.362  19.699   2.757
69577W        W34562  13.126  35.613  13.920
69578W        W34563   5.178   7.714  14.527
69579W        W34564  43.483   9.957   0.758
69580W        W34565  19.696  41.173  10.836
69581W        W34566  41.455  29.497   3.430
69582W        W34567  33.533  17.847   1.229
69583W        W34568   8.352  27.831  11.031
69584W        W34569  27.965   4.307   0.748
69585W        W34570  19.518   0.689   2.697
69586W        W34571   3.238  42.987  14.113
69587W        W34572  22.230  29.975  13.506
69588W        W34573  28.120  21.741   0.252
69589W        W34574  40.884  44.838  10.733
69590W        W34575  28.346  31.089  13.610
69591W        W34576  24.022  12.137   2.590
69592W        W34577  19.206  38.535   3.345
69593W        W34578  20.170  22.998  13.409
69594W        W34579  13.163   4.806   1.233
69595W        W34580  35.596  38.576  12.082
69596W        W34581   3.006  10.968   1.911
69597W        W34582  34.289  39.469  14.732
69598W        W34583   2.017  16.599  12.130
69599W        W34584  41.285  16.021   2.274
69600W        W34585  12.995   2.368   1.248
69601W        W34586  13.833  27.424  12.992
69602W        W34587   4.832   5.770   0.361
69603W        W34588  10.738  13.358  11.812
69604W        W34589   7.333  14.359  12.425
69605W        W34590   8.136  20.533  14.989
69606W        W34591  20.291  37.236  12.457
69607W        W34592  41.022  31.254  10.735
69608W        W34593   4.139   5.438  12.834
69609W        W34594  15.852  11.170  13.320
69610W        W34595  11.703  36.017   0.835
69611W        W34596  41.932  38.418  14.977
69612W        W34597  17.324  32.278  13.551
69613W        W34598   8.510   9.994  10.172
69614W        W34599  38.506  40.829   4.039
69615W        W34600  30.109   0.406   2.804
69616W        W34601  20.722  19.765   3.327
69617W        W34602  29.139  21.632   4.089
69618W        W34603   6.214  37.144  12.205
69619W        W34604  31.488  25.039  11.862
69620W        W34605   4.319  25.090   0.744
69621W        W34606  20.807  29.493  14.539
69622W        W34607  14.133  31.877  13.864
69623W        W34608  20.134   5.532   3.732
69624W        W34609  35.964  27.953  11.620
69625W        W34610  34.027  19.920  11.304
69626W        W34611  21.068   9.406  12.212
69627W        W34612  44.007  28.617  13.777
69628W        W34613  42.269  13.790   3.706
69629W        W34614  15.674   1.657   1.173
69630W        W34615  42.575  18.955   3.730
69631W        W34616  19.249   7.151   0.001
69632W        W34617   4.492  17.177  14.774
69633W        W34618  40.648  21.157  13.544
69634W        W34619  34.963  35.093   1.126
69635W        W34620  19.167   7.901   4.106
69636W        W34621  22.465  41.254   4.232
69637W        W34622  21.599  19.278   3.684
69638W        W34623   7.386   3.649   3.604
69639W        W34624  21.698  20.282  11.216
69640W        W34625  40.041  31.880   3.649
69641W        W34626  34.279  40.803   0.804
69642W        W34627  17.165  42.008   3.335
69643W        W34628  25.738  15.824  14.472
69644W        W34629  12.918  40.166   1.699
69645W        W34630  26.680   1.255   4.031
69646W        W34631  23.195  10.323  14.075
69647W        W34632  43.936  15.643   0.497
69648W        W34633  38.984   0.234   3.366
69649W        W34634  37.595  35.769  10.565
69650W        W34635  29.653   9.456  10.710
69651W        W34636  27.073  24.718  11.414
69652W        W34637  38.090  19.288  14.848
69653W        W34638  27.991  12.491  13.789
69654W        W34639  43.283  15.559   4.198
69655W        W34640   9.151  34.316  13.961
69656W        W34641  44.029  11.229   2.623
69657W        W34642   3.806  42.759  12.464
69658W        W34643  12.114  10.538   0.599
69659W        W34644  11.612  35.510  14.497
69660W        W34645  41.205  15.661   1.307
69661W        W34646   0.492  38.657   0.050
69662W        W34647  16.232  16.015  11.105
69663W        W34648   7.125  23.099  12.381
69664W        W34649  25.524  18.651   2.501
69665W        W34650  13.186   9.923  10.471
69666W        W34651  31.960  15.361   1.819
69667W        W34652  16.268   4.168   2.804
69668W        W34653  43.193   5.951   2.271
69669W        W34654  13.330  42.900  14.187
69670W        W34655  42.326  41.866  10.723
69671W        W34656  44.101  13.187  11.441
69672W        W34657  18.222   5.691  13.897
69673W        W34658  26.984  22.302  14.781
69674W        W34659   2.141  29.109   3.334
69675W        W34660  23.727  21.704  11.020
69676W        W34661   9.918  18.838  12.983
69677W        W34662   1.488  24.030  12.398
69678W        W34663  16.951   3.934   0.414
69679W        W34664  15.750  14.369  14.017
69680W        W34665  20.227   8.353  13.518
69681W        W34666   8.734  37.851   4.540
69682W        W34667   2.692  16.600  14.985
69683W        W34668  35.372  21.929   1.841
69684W        W34669  34.966  36.844  10.639
69685W        W34670  36.081  25.470   4.630
69686W        W34671   3.050  20.997   4.246
69687W        W34672  25.230  21.522   0.733
69688W        W34673  10.278   3.886   0.974
69689W        W34674  40.994   2.628   4.559
69690W        W34675  31.503  26.663   2.363
69691W        W34676  25.980  23.184   4.304
69692W        W34677  26.677  24.291   0.691
69693W        W34678  34.845  14.542   4.561
69694W        W34679  26.158  18.121   1.040
69695W        W34680   1.428   6.487  13.499
69696W        W34681  12.830   1.811   1.831
69697W        W34682  20.962  35.180  11.328
69698W        W34683   7.544  32.070  10.470
69699W        W34684   4.798  28.598  11.377
69700W        W34685  15.444   9.132  14.859
69701W        W34686  20.543  24.993  14.438
69702W        W34687  43.636  27.660   4.725
69703W        W34688  20.106  41.026   2.856
69704W        W34689  18.584  33.426   1.189
69705W        W34690  36.557   1.102   0.885
69706W        W34691  37.573   7.796  10.864
69707W        W34692  35.924  28.055   2.498
69708W        W34693  19.501  16.607   4.129
69709W        W34694  12.352   7.175  11.074
69710W        W34695  14.069   2.292  14.806
69711W        W34696  28.520  42.757  13.246
69712W        W34697   3.046  26.925   1.719
69713W        W34698  34.339  14.773   3.789
69714W        W34699  40.614  30.960   2.288
69715W        W34700  43.857  19.202   3.872
69716W        W34701  32.706  43.521   1.163
69717W        W34702  35.454  34.488   3.352
69718W        W34703   9.186   9.909   3.283
69719W        W34704   0.884  12.420  13.596
69720W        W34705  40.543   2.873   4.879
69721W        W34706  38.333  41.585  12.427
69722W        W34707  21.730  29.292   0.479
69723W        W34708  36.395   1.005  10.641
69724W        W34709  14.090  27.315   9.743
69725W        W34710  32.581  19.295  13.312
69726W        W34711  12.289  12.336  13.431
69727W        W34712  14.863  22.237  13.917
69728W        W34713  16.238  32.471  11.539
69729W        W34714  40.357   0.926   0.807
69730W        W34715  19.427  23.317   4.582
69731W        W34716   0.274   7.707   2.884
69732W        W34717  15.606  15.182   1.774
69733W        W34718  20.751  36.519  11.652
69734W        W34719  35.069  23.543  12.570
69735W        W34720  17.817  41.722   0.417
69736W        W34721  34.605  24.618  14.013
69737W        W34722  40.802  21.029   4.955
69738W        W34723  19.582  15.143   2.745
69739W        W34724   5.218  39.879  12.147
69740W        W34725  24.737  15.649  12.678
69741W        W34726  13.308  23.368   2.229
69742W        W34727  17.926  17.613  11.932
69743W        W34728  15.645  19.085  13.059
69744W        W34729   1.727  26.082  10.775
69745W        W34730   3.908   8.845  11.598
69746W        W34731  42.154  15.962   9.849
69747W        W34732  32.134  23.667  10.782
69748W        W34733  29.984  25.870  12.491
69749W        W34734  40.110  39.440  11.102
69750W        W34735   8.844   9.184   1.007
69751W        W34736  28.552  32.263  11.957
69752W        W34737   7.660  21.778   4.091
69753W        W34738  23.896   2.024   3.667
69754W        W34739  16.452  14.005   0.082
69755W        W34740  42.930  34.295   4.545
69756W        W34741   7.814  23.228   1.409
69757W        W34742  17.724  33.512   2.148
69758W        W34743   0.498   7.723   0.606
69759W        W34744  39.740  37.955  14.501
69760W        W34745  26.905  43.112  12.039
69761W        W34746  30.010  35.961   4.265
69762W        W34747  22.919  43.400  12.054
69763W        W34748  44.000  34.011  10.511
69764W        W34749   7.754  27.641   0.964
69765W        W34750  26.670  17.359   1.442
69766W        W34751  36.541  20.898   4.775
69767W        W34752  39.376   0.025   0.704
69768W        W34753  18.638  41.289  11.688
69769W        W34754   5.733  22.964  12.882
69770W        W34755  24.324   4.357   0.367
69771W        W34756  16.061  35.294  11.218
69772W        W34757   5.957  17.077   1.236
69773W        W34758  16.863  10.299   1.567
69774W        W34759  26.013  40.434   0.506
69775W        W34760   0.693  30.258   4.094
69776W        W34761  32.936  24.934  11.453
69777W        W34762  10.856  44.365   0.834
69778W        W34763  23.085  27.365   2.174
69779W        W34764  40.160  20.038  12.310
69780W        W34765  27.726  27.955   3.717
69781W        W34766  20.164   4.979   2.937
69782W        W34767   7.150  21.847  14.532
69783W        W34768   0.495  14.091   0.985
69784W        W34769   0.713  37.443  10.035
69785W        W34770  36.115  40.595   5.171
69786W        W34771   8.651  23.136   4.123
69787W        W34772   3.872  21.771   1.414
69788W        W34773  32.588   9.235  12.005
69789W        W34774  35.576  17.951  14.269
69790W        W34775  20.312  34.647   1.476
69791W        W34776  10.607   5.367   3.330
69792W        W34777  34.571  12.502   3.051
69793W        W34778  32.704   1.448   2.735
69794W        W34779  30.520  28.488  10.892
69795W        W34780  33.589   8.885   0.202
69796W        W34781  22.737  13.859   1.739
69797W        W34782   3.793  22.997  12.436
69798W        W34783  26.531  44.654   4.702
69799W        W34784  13.039  21.375  11.284
69800W        W34785  22.975  10.732  14.333
69801W        W34786  34.426  14.075   2.403
69802W        W34787  17.535   8.905  10.214
69803W        W34788  20.699   4.886  11.097
69804W        W34789  19.999  26.622   0.488
69805W        W34790  16.294   7.447  12.591
69806W        W34791  39.728   1.954  11.804
69807W        W34792  35.637  39.265   1.615
69808W        W34793   8.803   1.912  14.325
69809W        W34794  26.949  17.451   0.232
69810W        W34795  37.280  40.552   2.825
69811W        W34796  32.014  41.011  11.211
69812W        W34797  24.673  24.016   2.673
69813W        W34798  14.799  24.057   4.572
69814W        W34799   7.422  38.916   2.247
69815W        W34800  22.913   3.452  10.602
69816W        W34801  33.027  31.665  10.978
69817W        W34802  18.735  12.821  12.603
69818W        W34803  34.152  10.113   2.355
69819W        W34804  28.832   3.488   3.043
69820W        W34805  41.598  23.193  12.646
69821W        W34806  20.269   1.291   3.594
69822W        W34807   7.318  21.363   2.889
69823W        W34808  15.574  29.174  12.683
69824W        W34809   4.042   2.276  11.998
69825W        W34810   5.939   5.824   1.871
69826W        W34811  14.836   7.069  10.619
69827W        W34812  18.838  27.165  14.273
69828W        W34813   6.621  12.701   1.911
69829W        W34814  12.149  36.533  11.570
69830W        W34815  13.125   4.754   3.503
69831W        W34816   6.455  36.869   3.262
69832W        W34817  27.652   7.628   4.168
69833W        W34818  22.441  16.396  11.500
69834W        W34819  44.028  17.717  13.445
69835W        W34820   5.251  26.090   4.907
69836W        W34821  28.262  41.383   4.079
69837W        W34822  10.603  22.540  11.570
69838W        W34823  36.575  15.766   4.146
69839W        W34824  27.012  34.290  12.436
69840W        W34825  24.971  26.719  14.833
69841W        W34826  42.996  19.067   1.516
69842W        W34827  35.500  37.753   0.865
69843W        W34828  12.751  38.005   4.686
69844W        W34829  25.076  20.093   0.632
69845W        W34830   4.197   6.921   5.092
69846W        W34831  25.541   0.333  10.532
69847W        W34832  37.068  11.550  12.110
69848W        W34833  29.295   3.465   0.187
69849W        W34834  24.745  24.430   4.192
69850W        W34835  19.269  22.258  14.159
69851W        W34836  34.461  29.301  10.778
69852W        W34837  29.628  15.117  11.184
69853W        W34838  13.234  42.415   2.089
69854W        W34839  33.101  26.238   2.771
69855W        W34840  34.283  39.660   4.166
69856W        W34841  14.150  32.603   2.496
69857W        W34842  39.946  44.202   0.359
69858W        W34843  22.678  25.379  13.743
69859W        W34844  27.072   7.114   1.744
69860W        W34845   6.780   7.906  13.373
69861W        W34846  32.414  18.764  10.781
69862W        W34847  12.434  12.115  11.725
69863W        W34848  32.982  19.284   3.274
69864W        W34849  29.024  30.419   4.173
69865W        W34850  28.140   4.240   0.281
69866W        W34851  35.461  44.671   0.427
69867W        W34852   9.735   1.323  14.078
69868W        W34853  13.169  11.727  11.166
69869W        W34854  32.924   6.979  11.556
69870W        W34855  11.782  11.698   1.406
69871W        W34856  26.508  43.092  11.147
69872W        W34857   2.522  38.935  10.185
69873W        W34858  33.965  37.135  14.513
69874W        W34859  10.694   0.324   0.929
69875W        W34860   7.176  42.181  14.032
69876W        W34861  37.966   5.013  11.042
69877W        W34862  18.896  32.052   4.508
69878W        W34863   3.633  18.715  14.480
69879W        W34864  13.191  32.550   1.437
69880W        W34865  14.466  29.961  13.464
69881W        W34866  39.969  24.157  11.040
69882W        W34867  12.231  29.436  13.547
69883W        W34868   4.850   3.885   3.129
69884W        W34869   7.370  38.364   4.439
69885W        W34870  26.644  33.161  12.643
69886W        W34871  15.229  31.588   0.327
69887W        W34872  27.377   8.306  13.516
69888W        W34873  18.560  16.879   3.624
69889W        W34874  20.952   0.173  10.656
69890W        W34875  15.292  27.611   3.346
69891W        W34876  33.189   4.115   4.806
69892W        W34877  37.953  10.455  12.821
69893W        W34878  40.415  30.023  10.580
69894W        W34879  13.839  44.575   2.887
69895W        W34880  36.062  26.530   3.093
69896W        W34881  38.322  15.729  13.177
69897W        W34882   9.319   0.224  12.884
69898W        W34883  27.210  31.321   1.304
69899W        W34884  32.512  42.279   2.329
69900W        W34885  10.822  35.010   0.203
69901W        W34886   9.263   8.860   0.796
69902W        W34887  44.074   0.196  12.086
69903W        W34888  43.297   6.814  11.909
69904W        W34889   7.650  42.391   3.743
69905W        W34890   6.321  35.592  12.089
69906W        W34891  16.313   1.699   4.230
69907W        W34892  37.906  31.091  10.439
69908W        W34893  42.300  39.644   5.506
69909W        W34894  25.411  39.346   3.673
69910W        W34895  27.507  17.633  13.140
69911W        W34896  17.807  18.186  14.002
69912W        W34897  12.585   2.782   3.431
69913W        W34898  38.919  42.922  14.994
69914W        W34899  33.377  22.904   5.100
69915W        W34900  27.350  38.459  13.174
69916W        W34901  38.397  14.708  14.995
69917W        W34902  21.641   9.517   2.344
69918W        W34903  23.428   2.463   4.458
69919W        W34904   7.687  10.184  10.655
69920W        W34905  33.816  14.619   2.529
69921W        W34906  37.427   7.202   2.666
69922W        W34907  12.323  33.224   2.262
69923W        W34908   0.205  20.078  13.544
69924W        W34909  41.823  10.806  10.449
69925W        W34910   1.183  13.743  11.593
69926W        W34911   1.329  40.367   4.814
69927W        W34912   6.406  10.104  14.969
69928W        W34913   3.649  14.185   3.757
69929W        W34914  14.200  25.068   0.734
69930W        W34915  32.997  28.245   4.240
69931W        W34916  26.003  15.010   0.805
69932W        W34917  10.450   4.450   3.654
69933W        W34918   3.022  16.738   1.825
69934W        W34919   2.070  22.663  11.160
69935W        W34920   9.084   8.239  12.998
69936W        W34921  24.539  27.183   0.469
69937W        W34922  29.684  34.119   2.787
69938W        W34923  18.582  37.273  11.107
69939W        W34924  36.399  13.889  11.578
69940W        W34925  14.224   2.462  12.370
69941W        W34926  25.488  13.869  13.440
69942W        W34927  21.309  23.216   5.243
69943W        W34928   7.875   6.935  13.536
69944W        W34929   3.034  40.286   3.155
69945W        W34930  18.532   3.210   0.493
69946W        W34931  39.769  16.868   9.581
69947W        W34932   5.422  32.659   3.685
69948W        W34933  39.616  44.555   2.077
69949W        W34934   8.630  31.014  10.397
69950W        W34935  17.305  37.516   4.533
69951W        W34936  37.688   8.395   1.892
69952W        W34937  33.759  23.207   0.834
69953W        W34938  39.427  16.421  10.239
69954W        W34939  10.744  23.450   2.724
69955W        W34940  36.080  26.023   2.966
69956W        W34941  12.323  20.246   1.132
69957W        W34942   3.781  33.508   1.765
69958W        W34943   8.755   9.099  13.352
69959W        W34944   6.642  27.759   1.200
69960W        W34945  22.277  27.230  14.887
69961W        W34946  19.506  27.625   2.439
69962W        W34947  40.861  30.659   3.271
69963W        W34948  25.797  28.576   0.318
69964W        W34949   0.255  37.137  12.986
69965W        W34950  25.248  26.419  14.360
69966W        W34951  33.957  40.370  12.561
69967W        W34952  10.000  10.220   4.191
69968W        W34953  28.879  37.110  13.217
69969W        W34954  25.905  34.845   0.324
69970W        W34955  21.727  39.639  13.673
69971W        W34956   1.794   6.959  11.144
69972W        W34957  15.580  20.900  13.611
69973W        W34958   6.373   5.803   2.193
69974W        W34959  27.044   7.043   2.249
69975W        W34960  15.476  41.919   0.262
69976W        W34961  32.664  37.109   0.912
69977W        W34962   0.881   8.526  13.883
69978W        W34963  26.688  20.612  12.102
69979W        W34964  28.137  22.228  14.459
69980W        W34965  16.646  15.575   1.784
69981W        W34966  41.236  44.450  13.406
69982W        W34967   5.322  35.025  13.086
69983W        W34968  33.980  32.998   2.587
69984W        W34969  35.039  19.320   1.357
69985W        W34970  43.531  12.816  11.746
69986W        W34971  15.032  16.164  10.722
69987W        W34972  33.129  38.941   4.085
69988W        W34973  18.804  40.306   2.561
69989W        W34974   2.312   1.021  11.221
69990W        W34975  39.522  37.306   1.140
69991W        W34976  35.433  33.094   0.270
69992W        W34977   2.928  28.149  12.993
69993W        W34978  24.728  26.989  14.460
69994W        W34979  25.538   7.837  13.594
69995W        W34980   8.541  40.053   4.580
69996W        W34981  29.540  40.824   1.310
69997W        W34982  12.153  36.338   0.982
69998W        W34983  16.727  42.424  10.903
69999W        W34984  28.696   1.238  11.546
70000W        W34985  34.850  40.439  14.797
70001W        W34986   4.418  31.609  13.027
70002W        W34987  23.138  15.993  11.141
70003W        W34988   3.961  21.958   3.140
70004W        W34989  32.830  28.640  10.555
70005W        W34990  22.183  31.443  10.684
70006W        W34991  11.368   0.506  11.136
70007W        W34992  20.410  43.372   1.816
70008W        W34993  24.624  23.981   3.187
70009W        W34994  27.017  23.256   3.154
70010W        W34995  37.585  14.230   3.696
70011W        W34996  31.159  16.027  12.323
70012W        W34997  41.250   3.987   0.803
70013W        W34998  19.644  25.727   4.729
70014W        W34999  13.880  30.997   3.728
70015W        W35000  16.716  37.369   4.965
70016W        W35001   9.432  22.823   3.126
70017W        W35002  25.638  25.931   4.092
70018W        W35003  41.608  21.240   1.227
70019W        W35004  44.592  21.080  10.912
70020W        W35005  10.779   5.483  12.752
70021W        W35006   2.860  29.375   3.817
70022W        W35007   0.309   8.275   1.788
70023W        W35008   3.318  22.038   4.573
70024W        W35009  22.479  13.780  14.475
70025W        W35010  39.755   3.512   4.374
70026W        W35011  13.896  10.789   3.350
70027W        W35012  16.651  16.098   0.339
70028W        W35013  22.202   1.018   3.816
70029W        W35014   8.024   3.198   5.420
70030W        W35015   9.756  18.969   0.484
70031W        W35016  31.029  32.839  11.106
70032W        W35017  29.467   5.354   1.320
70033W        W35018  41.284  28.834   0.784
70034W        W35019  20.152   3.353  11.400
70035W        W35020  13.633  27.930  10.292
70036W        W35021  11.154  36.876   2.298
70037W        W35022  28.662  29.829  11.113
70038W        W35023  35.226  32.289  13.084
70039W        W35024   1.465  11.488  14.814
70040W        W35025   8.902  13.583   3.414
70041W        W35026   4.705   6.018  10.733
70042W        W35027   2.975  41.242  12.487
70043W        W35028  42.777   6.195   0.964
70044W        W35029  26.250  32.372  12.415
70045W        W35030  27.911  13.087  13.080
70046W        W35031  21.134  12.935   0.953
70047W        W35032  40.550  32.125  14.115
70048W        W35033  17.942   3.121   1.158
70049W        W35034  43.907  10.191   2.442
70050W        W35035   7.703   8.120  12.839
70051W        W35036   9.954  37.888   0.357
70052W        W35037  30.011  35.050   4.789
70053W        W35038  12.801  25.749  11.052
70054W        W35039   4.279   3.976   2.806
70055W        W35040  39.807  23.099   0.265
70056W        W35041   3.754  43.265   0.837
70057W        W35042  22.147  41.532  12.670
70058W        W35043  31.486   1.547   0.904
70059W        W35044  25.406  15.350   1.447
70060W        W35045  29.596  17.210   0.309
70061W        W35046  20.880  35.073   0.156
70062W        W35047  16.169  17.873  10.145
70063W        W35048  41.370   5.490   1.334
70064W        W35049  28.692  43.722  12.529
70065W        W35050  28.923   7.516  12.465
70066W        W35051   5.917  21.205  13.522
70067W        W35052  25.979   5.037   4.631
70068W        W35053  30.205  15.375   0.342
70069W        W35054  40.504  27.064   0.464
70070W        W35055  36.031  13.628   3.185
70071W        W35056  20.481  22.261  12.474
70072W        W35057  39.574  28.636  10.233
70073W        W35058  13.546   1.509   2.208
70074W        W35059   7.142  35.899  11.580
70075W        W35060  17.840  28.451   1.347
70076W        W35061  36.555   4.502  14.024
70077W        W35062  20.256   3.776  11.891
70078W        W35063  36.833  30.598  14.987
70079W        W35064   8.475  25.579   1.748
70080W        W35065  16.780  19.996  11.515
70081W        W35066   8.066  25.934   1.111
70082W        W35067  23.163  39.106  11.059
70083W        W35068  18.930   1.473  13.447
70084W        W35069   1.393  27.491  13.580
70085W        W35070  38.558   3.644  11.172
70086W        W35071  10.671  39.856  10.909
70087W        W35072   1.976  30.890  10.616
70088W        W35073  13.123   3.452   3.716
70089W        W35074  40.950   3.498  11.003
70090W        W35075  38.404   0.300  10.869
70091W        W35076  34.631  31.019   3.423
70092W        W35077  27.326  43.334   4.175
70093W        W35078  40.426  36.800   1.836
70094W        W35079   8.108  22.773  14.975
70095W        W35080  25.183  38.552  14.670
70096W        W35081  15.607   4.192  11.852
70097W        W35082  22.563  37.790   2.671
70098W        W35083  37.437   2.921   4.741
70099W        W35084  21.124   3.795  11.830
70100W        W35085  18.232  16.839  12.361
70101W        W35086  24.160   1.000   0.352
70102W        W35087  38.636   8.952  11.262
70103W        W35088  32.569  28.110   2.321
70104W        W35089  25.015  35.060  14.899
70105W        W35090  14.626  22.691  13.869
70106W        W35091  34.496  14.428  11.456
70107W        W35092  42.957   7.687   3.298
70108W        W35093  27.851  33.585  11.612
70109W        W35094  39.456  28.620  11.935
70110W        W35095   8.536   9.671   5.592
70111W        W35096  22.180  25.188  12.419
70112W        W35097   9.732  15.652  12.404
70113W        W35098  34.501  10.907   1.182
70114W        W35099  27.525  37.413   3.288
70115W        W35100  36.843  36.998   3.341
70116W        W35101  40.453  35.909  12.496
70117W        W35102   8.447  40.571   1.860
70118W        W35103  44.206  29.574   2.368
70119W        W35104  31.643  37.323  12.545
70120W        W35105  41.330  31.666   1.332
70121W        W35106  26.094   2.952  12.989
70122W        W35107  37.799  24.673   1.363
70123W        W35108  23.466  30.025   4.081
70124W        W35109  41.282  25.677   1.953
70125W        W35110  24.014  14.790  14.422
70126W        W35111  36.102  10.604  13.329
70127W        W35112   1.821  42.871   0.237
70128W        W35113  26.985  28.886   0.662
70129W        W35114  19.994  24.532   2.339
70130W        W35115  43.291  25.922   1.684
70131W        W35116   6.129  22.713  14.002
70132W        W35117  38.472  43.092   3.827
70133W        W35118  44.763  31.132  13.737
70134W        W35119  30.036   6.715  14.220
70135W        W35120  40.599   1.895   1.768
70136W        W35121  39.953  13.338   3.664
70137W        W35122  26.875  27.428  11.747
70138W        W35123  42.732   2.469  11.010
70139W        W35124  39.029   3.189  10.309
70140W        W35125  11.096  22.728  11.549
70141W        W35126  11.094  41.811  14.962
70142W        W35127  40.426  23.460   2.625
70143W        W35128   0.046  31.932  11.489
70144W        W35129  13.248  13.207   1.357
70145W        W35130  41.627  21.125  13.772
70146W        W35131   7.918  37.560   4.111
70147W        W35132  39.240  30.741   4.151
70148W        W35133   7.471   9.862  13.135
70149W        W35134   8.028  22.796   3.215
70150W        W35135  28.826  16.200   3.599
70151W        W35136  26.476  19.721   2.850
70152W        W35137  31.457  22.328  12.941
70153W        W35138   8.938  37.574   4.143
70154W        W35139  43.701  40.310  10.674
70155W        W35140   8.612  25.040  11.253
70156W        W35141  11.798  32.701   1.299
70157W        W35142  22.559  40.456   3.624
70158W        W35143  24.302  24.620  13.461
70159W        W35144  25.727  22.660  14.869
70160W        W35145  26.550  33.694  12.701
70161W        W35146  40.497  22.989   3.794
70162W        W35147   7.281  18.558  12.407
70163W        W35148  26.010   9.601  13.933
70164W        W35149   0.845  13.359   3.682
70165W        W35150  42.362  42.535  12.592
70166W        W35151  44.472  18.963  11.625
70167W        W35152  27.548  19.391   0.920
70168W        W35153  14.245   4.940   3.244
70169W        W35154  35.540   8.714  14.786
70170W        W35155  13.618  32.208  12.308
70171W        W35156  29.026  20.269  12.093
70172W        W35157  22.767  31.999  11.741
70173W        W35158  39.050  12.613  11.444
70174W        W35159  39.080   9.659   0.168
70175W        W35160  30.379  33.393  10.793
70176W        W35161  17.108  16.714   4.985
70177W        W35162  20.068  23.588  12.540
70178W        W35163  25.656   1.851  13.095
70179W        W35164  10.532  38.513   1.297
70180W        W35165  17.287  13.000  10.367
70181W        W35166  10.945  38.899   0.427
70182W        W35167  10.149  43.451   3.808
70183W        W35168  20.712  11.673   1.277
70184W        W35169  31.400  18.712  11.714
70185W        W35170  27.896  44.795  12.559
70186W        W35171  43.331  30.719  12.991
70187W        W35172  11.400  33.838   4.228
70188W        W35173   8.088   7.440   5.003
70189W        W35174  18.867  35.986  14.348
70190W        W35175  24.077  44.389   3.651
70191W        W35176  41.981  18.245   3.581
70192W        W35177  29.372  38.940  11.542
70193W        W35178   6.642  21.283  11.653
70194W        W35179  36.822  41.089   0.247
70195W        W35180  23.816  32.712   0.930
70196W        W35181  35.960  19.460  11.947
70197W        W35182  26.123   5.901   3.353
70198W        W35183  14.244   9.438  14.227
70199W        W35184  13.332  26.764   2.754
70200W        W35185   9.919  39.889   0.421
70201W        W35186  24.714  25.150  12.573
70202W        W35187  23.611  31.469   1.572
70203W        W35188   7.840  36.537  10.354
70204W        W35189   9.454  15.636  14.026
70205W        W35190  32.336  33.051  12.878
70206W        W35191  24.653  18.113  13.452
70207W        W35192  10.611  25.560   1.229
70208W        W35193  24.538  41.103   4.655
70209W        W35194  31.865  14.378   4.667
70210W        W35195  28.726  26.043   3.385
70211W        W35196   7.216  22.593  10.659
70212W        W35197  39.113  32.419  12.582
70213W        W35198   0.852  40.131   4.860
70214W        W35199   0.282  21.693   3.811
70215W        W35200  25.058  34.435   0.236
70216W        W35201  13.223  25.390  11.444
70217W        W35202  35.128  23.920  11.632
70218W        W35203  39.005  33.357  11.587
70219W        W35204   7.420  34.140   4.585
70220W        W35205  32.931  23.857   3.680
70221W        W35206  27.181  12.405  14.899
70222W        W35207  27.044  36.603  12.393
70223W        W35208  39.517  41.479  13.809
70224W        W35209  10.356  18.796  11.157
70225W        W35210  29.001  42.801   1.671
70226W        W35211  40.728  37.047   3.768
70227W        W35212  10.277  30.949   4.376
70228W        W35213  26.041  44.539   0.424
70229W        W35214   8.220   3.276   4.743
70230W        W35215   2.626  10.618   4.390
70231W        W35216  17.755  15.291  10.701
70232W        W35217  11.370  28.139  11.908
70233W        W35218  18.536   0.809   1.852
70234W        W35219  11.237  12.446   2.078
70235W        W35220  36.460  28.055  14.886
70236W        W35221   6.610  31.296  12.032
70237W        W35222  19.787  33.112   1.725
70238W        W35223  42.414  25.724   3.489
70239W        W35224  43.771   7.381   4.610
70240W        W35225  19.141  39.369  13.806
70241W        W35226  41.246  38.094   1.453
70242W        W35227   7.650   8.209  13.344
70243W        W35228  34.912   7.168   0.018
70244W        W35229  12.637   5.024  13.417
70245W        W35230  14.258  31.202  14.692
70246W        W35231   9.617  44.127  12.515
70247W        W35232  19.151  34.868   3.565
70248W        W35233  22.480  13.463  13.814
70249W        W35234  29.188   0.968   3.764
70250W        W35235  40.425   2.023   2.726
70251W        W35236  42.049  22.699  11.969
70252W        W35237  17.668   2.780   2.714
70253W        W35238  10.499  41.378   4.652
70254W        W35239  14.465  38.833   5.156
70255W        W35240  16.747  24.705   0.834
70256W        W35241   2.738  31.093  14.782
70257W        W35242  26.900   9.826  11.199
70258W        W35243  35.559   4.207   3.816
70259W        W35244  33.526  21.964  11.891
70260W        W35245  27.980  22.016  12.991
70261W        W35246  38.946  18.529  11.501
70262W        W35247  27.623  33.715   0.408
70263W        W35248  20.101   0.418  10.208
70264W        W35249  26.078  15.729   3.876
70265W        W35250  29.832  23.918  12.562
70266W        W35251  12.775   8.140  13.004
70267W        W35252  22.210   8.213   4.336
70268W        W35253  16.258  22.301   4.214
70269W        W35254   7.702  39.093   2.654
70270W        W35255  33.116  11.749   2.251
70271W        W35256  28.253  37.544   5.039
70272W        W35257  38.066  20.120   0.363
70273W        W35258   3.169   4.023   4.001
70274W        W35259  36.311   2.002   2.316
70275W        W35260   5.970  12.434   4.309
70276W        W35261  27.447  22.215   0.690
70277W        W35262  24.655  28.111   3.167
70278W        W35263   7.811   9.886   3.743
70279W        W35264  24.834  34.937   3.996
70280W        W35265  41.403  35.137   4.489
70281W        W35266  37.423  28.331  11.518
70282W        W35267   6.730   3.171   1.975
70283W        W35268  29.417  33.724  14.170
70284W        W35269  12.122  41.287   1.400
70285W        W35270  18.132  21.114  13.137
70286W        W35271  23.308  42.085  13.024
70287W        W35272  29.911  42.483   2.118
70288W        W35273   3.912  20.163   2.329
70289W        W35274   0.982  25.679  10.917
70290W        W35275  31.874   8.026   4.934
70291W        W35276  13.866   3.383  14.927
70292W        W35277  41.813  32.549  11.174
70293W        W35278  28.967  29.899  12.992
70294W        W35279  10.811  15.245  13.081
70295W        W35280  21.638  10.473   3.293
70296W        W35281  27.461   4.330   0.903
70297W        W35282  10.711  13.163  10.710
70298W        W35283  26.930  41.423   1.984
70299W        W35284  10.706  32.282   3.529
70300W        W35285  17.081  44.228  13.434
70301W        W35286  40.371  18.286   1.999
70302W        W35287  26.496  32.426  11.234
70303W        W35288  17.807  34.420   3.185
70304W        W35289  37.909   6.162  14.476
70305W        W35290  39.606   5.008  14.444
70306W        W35291   1.482  26.174  13.347
70307W        W35292  10.322   2.896  14.102
70308W        W35293  10.825  34.936  14.669
70309W        W35294  33.642  43.394   0.958
70310W        W35295  28.436  12.397   4.584
70311W        W35296  28.717  14.240   3.017
70312W        W35297  26.215   8.208   4.128
70313W        W35298  24.997  10.147  11.997
70314W        W35299  11.862   2.463  14.579
70315W        W35300   2.993  29.582   3.350
70316W        W35301  28.966  14.392  12.577
70317W        W35302  21.807  15.070   0.995
70318W        W35303  27.163   2.113  10.433
70319W        W35304  42.494  37.833   2.915
70320W        W35305   5.788  26.226  10.515
70321W        W35306  22.260  29.405   2.865
70322W        W35307  17.337   5.847   1.246
70323W        W35308  13.656  20.657   1.193
70324W        W35309   2.822  28.397   4.893
70325W        W35310   3.455  39.902  12.522
70326W        W35311  24.763  24.704   1.398
70327W        W35312  15.373  38.781  11.984
70328W        W35313  10.101  18.323   1.998
70329W        W35314  19.344  17.611   4.928
70330W        W35315  11.577  12.392  13.613
70331W        W35316  16.623  10.724  11.700
70332W        W35317  13.329  21.687   1.164
70333W        W35318  38.945   1.017   3.651
70334W        W35319  18.833  42.471  12.642
70335W        W35320  37.836   7.862  13.891
70336W        W35321  37.827  19.614   1.242
70337W        W35322  32.003  10.266   4.021
70338W        W35323  30.440  30.378  12.031
70339W        W35324   0.952  12.347   3.648
70340W        W35325   3.725  23.577  10.623
70341W        W35326  22.419  31.067  11.159
70342W        W35327  10.175  23.416   0.420
70343W        W35328  10.078  33.827  10.844
70344W        W35329  31.517  11.164   0.724
70345W        W35330  21.160  27.399  10.725
70346W        W35331   8.404  29.247   1.286
70347W        W35332  21.475   9.192   0.767
70348W        W35333  10.801  30.671   2.288
70349W        W35334  20.993  31.520  12.593
70350W        W35335  27.284  16.981  10.257
70351W        W35336  37.455   9.812   2.876
70352W        W35337  37.067  20.775  14.830
70353W        W35338   8.217  34.102  14.010
70354W        W35339  11.835  20.754  14.450
70355W        W35340  10.207   9.069   4.059
70356W        W35341  11.885   1.237   3.729
70357W        W35342  17.101  22.672  13.290
70358W        W35343  13.283  31.410  14.808
70359W        W35344  38.888  42.966  10.916
70360W        W35345   9.592  21.715   4.434
70361W        W35346  43.044  36.938   1.719
70362W        W35347  28.895  23.270  13.945
70363W        W35348   1.336  18.984   4.701
70364W        W35349  39.272  39.180  10.078
70365W        W35350  17.702  28.713   4.563
70366W        W35351  18.133  41.772  11.176
70367W        W35352  15.665   8.220   1.168
70368W        W35353  16.213  12.250  14.050
70369W        W35354  21.028   8.734   2.743
70370W        W35355  33.387  10.887   0.924
70371W        W35356   9.900  43.925  13.915
70372W        W35357  24.370  40.843  14.221
70373W        W35358  27.454  30.516  13.473
70374W        W35359  20.049  39.344  14.446
70375W        W35360   7.681  36.503  11.180
70376W        W35361  27.646  26.972   0.317
70377W        W35362  35.324  39.502   0.056
70378W        W35363  30.022  44.496   3.169
70379W        W35364  16.323   9.188  12.992
70380W        W35365  36.266  20.555   3.714
70381W        W35366  42.792  34.363  12.968
70382W        W35367  44.997  31.156  13.285
70383W        W35368  36.616  35.854  10.616
70384W        W35369   7.794  11.200  14.869
70385W        W35370  13.617  10.089   1.708
70386W        W35371  26.070  24.476  12.451
70387W        W35372  25.950  39.455  13.806
70388W        W35373  18.316  23.610   3.264
70389W        W35374  13.190  19.823   0.914
70390W        W35375  11.537  13.782   3.581
70391W        W35376   6.295  26.675   2.330
70392W        W35377  39.804   0.118   3.965
70393W        W35378  26.688   2.990   1.012
70394W        W35379  33.492  32.881  12.340
70395W        W35380  13.775  37.810  11.594
70396W        W35381  43.323  39.079  10.670
70397W        W35382   1.032   1.791  12.568
70398W        W35383  21.732  40.120   3.183
70399W        W35384  10.756  13.451  14.805
70400W        W35385  31.299  37.167   0.879
70401W        W35386  32.853  44.802   1.881
70402W        W35387   8.747  38.478   0.806
70403W        W35388   3.489  37.562  13.073
70404W        W35389  38.098  32.610  12.687
70405W        W35390  28.945  13.919   1.938
70406W        W35391  29.199   6.492  14.585
70407W        W35392  44.805  34.234   9.737
70408W        W35393  15.659   4.027   1.025
70409W        W35394  23.413  33.634   0.739
70410W        W35395  36.520  11.195   1.253
70411W        W35396  14.808   3.749   1.313
70412W        W35397  21.959  37.128   5.171
70413W        W35398  21.706  35.373  10.855
70414W        W35399  31.883  28.862  14.916
70415W        W35400  22.005   8.787  14.020
70416W        W35401  43.510  11.794  11.660
70417W        W35402  24.131  21.338  13.847
70418W        W35403   2.801  36.094  11.110
70419W        W35404  10.266  44.746   1.365
70420W        W35405  16.347  29.564   2.428
70421W        W35406  17.417   6.307   0.018
70422W        W35407   4.888   6.624   5.409
70423W        W35408  19.331  34.442  13.387
70424W        W35409  21.073  31.682   3.692
70425W        W35410  14.027  18.672  13.164
70426W        W35411  19.818  41.804  13.898
70427W        W35412  29.461  44.009   2.169
70428W        W35413  19.031  21.554  13.421
70429W        W35414  39.034   5.294  10.127
70430W        W35415  39.712  41.285  14.545
70431W        W35416  13.798  39.464   2.282
70432W        W35417  28.557  17.576  14.221
70433W        W35418  43.499   2.950  10.769
70434W        W35419   0.701  31.052   2.865
70435W        W35420  19.827  14.615   2.025
70436W        W35421  40.463  34.028   0.969
70437W        W35422   1.919  19.473   1.897
70438W        W35423  28.870  40.020   1.700
70439W        W35424  13.088  28.740  11.911
70440W        W35425  39.085   9.128  13.444
70441W        W35426  21.059  18.691  14.502
70442W        W35427  13.257  41.377  13.089
70443W        W35428  13.918  11.787  11.641
70444W        W35429  11.514  35.675   0.423
70445W        W35430   2.920  23.793   2.372
70446W        W35431  12.218  29.028  10.597
70447W        W35432  30.948  14.729   3.199
70448W        W35433  10.176  15.512   5.052
70449W        W35434  33.390  30.804   4.430
70450W        W35435  31.962  21.858  13.920
70451W        W35436   9.741  42.779   4.456
70452W        W35437  33.760  21.034  10.716
70453W        W35438   3.286  24.069   3.250
70454W        W35439  29.973   0.257   4.134
70455W        W35440  36.051   5.429   1.457
70456W        W35441  14.744  26.431   4.618
70457W        W35442  25.313  12.257   2.233
70458W        W35443  37.611  28.183  14.614
70459W        W35444  37.785  35.109  13.439
70460ION    NA+35445  35.878   5.572   3.506
70461ION    NA+35446  41.115  36.631  11.439
70462ION    NA+35447  36.085  43.022   0.320
70463ION    NA+35448  36.058  34.595  12.918
70464ION    NA+35449  33.341  41.011  10.317
70465ION    NA+35450  22.019  38.509  10.885
70466ION    NA+35451  36.581  17.000  11.931
70467ION    NA+35452  38.954  22.748  13.372
70468ION    NA+35453  11.092   9.317  14.891
70469ION    NA+35454  29.529  34.157   4.528
70470ION    NA+35455  36.619   6.203  13.863
70471ION    NA+35456  32.216  10.961  14.418
70472ION    NA+35457   7.256  35.616   1.877
70473ION    NA+35458  21.636  42.761  11.072
70474ION    NA+35459   3.506   3.827  13.756
70475ION    NA+35460  26.272  16.269   3.649
70476ION    NA+35461  17.825   0.637   2.485
70477ION    NA+35462  24.735  36.547   1.253
70478ION    NA+35463  21.827  37.294  13.278
70479ION    NA+35464  21.048  24.133   2.837
70480ION    NA+35465  37.005   6.861  14.925
70481ION    NA+35466  23.255  18.989  11.683
70482ION    NA+35467   7.225  29.513   3.140
70483ION    NA+35468   7.389  13.193   0.459
70484ION    NA+35469  14.514  34.559  14.880
70485ION    NA+35470   3.797   6.675   0.431
70486ION    NA+35471   9.749  32.973  13.654
70487ION    NA+35472  43.918  38.258  11.656
70488ION    NA+35473  40.992   6.773   1.713
70489ION    NA+35474   0.664  38.054  10.858
70490ION    NA+35475  36.207  42.817  11.207
70491ION    NA+35476  30.268  11.774  12.511
70492ION    NA+35477  19.655  24.351   2.997
70493ION    NA+35478  31.034   9.281   4.376
70494ION    NA+35479  18.203  10.365   2.761
70495ION    NA+35480  28.401  40.251  13.699
70496ION    NA+35481  30.329   2.936  14.549
70497ION    NA+35482  35.378  29.155   4.579
70498ION    NA+35483  25.824   9.015   3.680
70499ION    NA+35484  34.942  26.072   0.760
70500ION    NA+35485  41.462  43.367  14.922
70501ION    NA+35486  18.038  22.300  14.920
70502ION    NA+35487  34.573  43.496  12.667
70503ION    NA+35488  14.093  34.964   3.273
70504ION    NA+35489   1.749  36.852  11.116
70505ION    NA+35490  24.540   7.950   4.195
70506ION    NA+35491  20.453  12.656   2.536
70507ION    NA+35492  10.627  22.602   2.889
70508ION    NA+35493  22.548  16.152   2.714
70509ION    NA+35494  16.958   3.509   9.745
70510ION    NA+35495   3.817   9.312   0.951
70511ION    NA+35496  40.900  34.474  10.466
70512ION    NA+35497  42.783   3.542   3.264
70513ION    NA+35498  39.513  38.051  12.412
70514ION    NA+35499  17.123  25.683  11.608
70515ION    NA+35500  25.723  42.395  11.975
70516ION    NA+35501   8.195  35.324  12.434
70517ION    NA+35502  34.014   5.855   2.883
70518ION    NA+35503  29.672  13.569   2.349
70519ION    NA+35504  37.799  18.209   0.294
70520ION    NA+35505  26.193  21.592   4.051
70521ION    NA+35506  16.352  19.608   0.753
70522ION    NA+35507  11.710  13.757  11.428
70523ION    NA+35508  36.584  24.903  14.861
70524ION    NA+35509  34.747  27.348  14.197
70525ION    NA+35510  17.896   1.195  12.053
70526ION    NA+35511   6.524  14.375   4.526
70527ION    NA+35512  16.500  39.632  13.926
70528ION    NA+35513  34.431   8.772  14.831
70529ION    NA+35514   8.289  32.175   4.368
70530ION    NA+35515  20.024  39.280   4.302
70531ION    NA+35516  43.218   3.263  14.378
70532ION    NA+35517  39.283  36.015   0.869
70533ION    NA+35518  44.177  19.059  12.135
70534ION    NA+35519  13.117  33.815  11.555
70535ION    NA+35520  40.378  38.530   4.229
70536ION    NA+35521  29.094   6.524   4.066
70537ION    NA+35522  36.822  12.590   0.478
70538ION    NA+35523   8.607  12.937  11.005
70539ION    NA+35524  25.863  13.012  11.580
70540ION    NA+35525  29.188  32.514   0.271
70541ION    NA+35526  20.298  10.915   2.425
70542ION    NA+35527  14.095  43.038   2.883
70543ION    NA+35528  19.125  31.537   4.501
70544ION    NA+35529   9.126   7.680   2.644
70545ION    NA+35530  42.759  30.457   4.395
70546ION    NA+35531  18.796  13.179  12.229
70547ION    NA+35532  30.351   8.883   2.696
70548ION    NA+35533  12.104  11.475  13.462
70549ION    NA+35534  25.248  35.162   1.623
70550ION    NA+35535  37.039  39.943  14.831
70551ION    NA+35536   6.537  31.381   0.066
70552ION    NA+35537  12.662  36.552   1.682
70553ION    NA+35538  43.246  39.764   9.830
70554ION    NA+35539  40.689  44.596  14.776
70555ION    NA+35540   3.862  18.353  12.386
70556ION    NA+35541  13.302  12.558   1.662
70557ION    NA+35542  28.988  16.548   4.059
70558ION    NA+35543  34.670   8.937  10.839
70559ION    NA+35544  29.079   3.439   2.134
70560ION    NA+35545  34.086  30.660  14.823
70561ION    NA+35546  33.391  24.584  12.908
70562ION    NA+35547  37.800  28.597   1.124
70563ION    NA+35548  42.867  20.716   9.568
70564ION    NA+35549  42.096  34.306   1.057
70565ION    NA+35550  24.165   4.653   0.767
70566ION    NA+35551   6.043  39.033  14.261
70567ION    NA+35552  22.984  38.380  10.655
70568ION    NA+35553   1.907  39.605   4.675
70569ION    NA+35554   2.419   1.950   2.350
70570ION    NA+35555  14.945  21.171   1.223
70571ION    NA+35556  23.752  15.280  11.971
70572ION    NA+35557  26.917  40.619   1.522
70573ION    NA+35558  25.136   2.926  12.951
70574ION    NA+35559  16.048  21.514   4.633
70575ION    NA+35560  12.881  23.015  13.826
70576ION    NA+35561  27.408  39.542  14.232
70577ION    NA+35562  39.374  44.101   1.994
70578ION    NA+35563  28.241  39.529  11.359
70579ION    NA+35564  25.208  20.126  11.517
70580ION    NA+35565  37.686  27.972  11.774
70581ION    NA+35566   9.508  38.433  11.131
70582ION    NA+35567   4.109  43.575  14.891
70583ION    NA+35568  44.811  31.085  14.262
70584ION    NA+35569  37.348  37.988  11.695
70585ION    NA+35570  33.940  28.445  13.856
70586ION    NA+35571  41.836  12.797   4.272
70587ION    NA+35572  38.705  44.092  13.528
70588ION    NA+35573  18.720  12.957   2.233
70589ION    NA+35574  23.451  26.651   2.625
70590ION    NA+35575  27.982   5.329  12.115
70591ION    NA+35576  39.676  43.871  14.203
70592ION    NA+35577  16.435  16.736   2.016
70593ION    NA+35578  22.259  28.965   2.600
70594ION    NA+35579  13.344  32.846   0.426
70595ION    NA+35580  24.553  23.773  11.214
70596ION    NA+35581  32.433   2.264   1.465
70597ION    NA+35582  10.078  15.106  10.504
70598ION    NA+35583  35.886  21.665   3.862
70599ION    NA+35584  38.596  20.144   0.523
70600ION    NA+35585   4.429  14.828  11.121
70601ION    NA+35586  43.497  33.712  12.995
70602ION    NA+35587  19.537  23.981  13.524
70603ION    NA+35588  29.662  30.834  11.012
70604ION    NA+35589  33.715  31.178   3.661
70605ION    NA+35590   5.241  17.045   0.275
70606ION    NA+35591   6.296  20.158   0.842
70607ION    NA+35592  39.144  38.824   2.754
70608ION    NA+35593  22.142   9.659   0.095
70609ION    NA+35594  20.446  18.535   3.180
70610ION    NA+35595  14.005  21.188  10.395
70611ION    NA+35596   7.485  28.553   3.248
70612ION    NA+35597  41.506  19.142  14.804
70613ION    NA+35598   2.983  43.166   0.274
70614ION    NA+35599  40.924   1.548  11.064
70615ION    NA+35600  18.502  33.849  14.696
70616ION    NA+35601  19.153  17.416   2.252
70617ION    NA+35602  44.522  29.487  14.301
70618ION    NA+35603  40.238   0.089   0.392
70619ION    NA+35604  15.250  15.946   4.109
70620ION    NA+35605   6.527  26.298   0.211
70621ION    NA+35606  19.382  28.704   0.001
70622ION    NA+35607   5.884  32.220  11.134
70623ION    NA+35608  25.456  10.535   1.344
70624ION    NA+35609   6.213  17.703  11.927
70625ION    NA+35610  34.793  40.654   0.791
70626ION    NA+35611   0.830  19.465  10.398
70627ION    NA+35612  10.940  32.189   1.532
70628ION    NA+35613  17.803  39.631  13.396
70629ION    NA+35614   6.294  22.321   0.330
70630ION    NA+35615   0.720  18.548  11.137
70631ION    NA+35616  24.092  31.998   1.940
70632ION    NA+35617  19.001  21.257   1.633
70633ION    NA+35618  33.427  33.305   9.902
70634ION    NA+35619  29.803  27.890  13.703
70635ION    NA+35620  41.057  43.230  12.585
70636ION    NA+35621  10.845  21.481  11.114
70637ION    NA+35622   2.782  19.180  12.334
70638ION    NA+35623   2.449   0.286   0.212
70639ION    NA+35624  42.657  37.991   4.494
70640ION    NA+35625   3.770   1.977   2.802
70641ION    NA+35626   7.394   5.757   4.048
70642ION    NA+35627  27.500  17.895  10.320
70643ION    NA+35628  29.489  14.925   0.882
70644ION    NA+35629  18.274  10.627   0.469
70645ION    NA+35630  27.446  39.152   3.714
70646ION    NA+35631  10.513  14.613   9.777
70647ION    NA+35632   1.828  14.174  11.131
70648ION    NA+35633  34.472   6.531   3.257
70649ION    NA+35634  22.305  21.951  12.338
70650ION    NA+35635  26.861  14.932   0.873
70651ION    NA+35636  27.177  17.130  11.713
70652ION    NA+35637  36.266  26.135   4.266
70653ION    NA+35638  16.825  18.626  13.326
70654ION    NA+35639  25.500  44.169  11.953
70655ION    NA+35640  40.944   0.490   1.840
70656ION    NA+35641  11.853   9.675   1.205
70657ION    NA+35642  37.751  32.463   0.168
70658ION    NA+35643   3.630  41.495   2.192
70659ION    NA+35644  25.298   0.599  12.051
70660ION    NA+35645   0.994  33.386  13.861
70661ION    NA+35646  42.233  25.249   1.907
70662ION    NA+35647  20.110  15.686  12.388
70663ION    NA+35648  16.855  36.355   1.486
70664ION    NA+35649  30.956  39.544  10.994
70665ION    NA+35650   7.430  27.145  11.706
70666ION    NA+35651  40.583  15.807  10.316
70667ION    NA+35652  15.875  21.871  14.796
70668ION    NA+35653  21.444  36.992  11.590
70669ION    NA+35654   7.592  22.183  12.575
70670ION    NA+35655  34.887   2.581  13.515
70671ION    NA+35656  21.635  39.200   1.862
70672ION    NA+35657  27.256  34.783   2.885
70673ION    NA+35658  39.567   7.101   2.806
70674ION    NA+35659  42.398  19.095  14.336
70675ION    NA+35660  26.422  29.159  13.524
70676ION    NA+35661   6.680  12.370  12.721
70677ION    NA+35662  40.359   8.195   2.246
70678ION    NA+35663  27.740  30.888   0.403
70679ION    NA+35664  37.302   1.827   4.714
70680ION    NA+35665   9.905  34.109  11.266
70681ION    NA+35666  38.056  30.825  12.978
70682ION    NA+35667  10.514   4.524   5.463
70683ION    NA+35668   9.378  44.713  11.979
70684ION    NA+35669  37.795  27.787   4.831
70685ION    NA+35670  32.743  22.188  11.175
70686ION    NA+35671   1.877  40.035  13.378
70687ION    NA+35672  32.415  19.778   0.027
70688ION    NA+35673   7.618  26.463  12.432
70689ION    NA+35674  19.765  43.951  11.000
70690ION    NA+35675  27.322  25.071   2.202
70691ION    NA+35676  16.672  11.652  12.881
70692ION    NA+35677  39.251   0.302  12.511
70693ION    NA+35678  27.846  10.242  10.740
70694ION    NA+35679  23.280  37.264   2.205
70695ION    NA+35680  36.744   2.928  14.434
70696ION    NA+35681  35.410  19.743  10.668
70697ION    NA+35682  12.566  44.403   1.377
70698ION    NA+35683  41.801  38.467   4.292
70699ION    NA+35684  10.253  24.736  13.255
70700ION    NA+35685  22.159  35.644  12.355
70701ION    NA+35686  40.613  43.564  11.622
70702ION    NA+35687  34.603  25.304  12.349
70703ION    NA+35688  18.853   5.078   3.126
70704ION    NA+35689  41.059  13.152  13.347
70705ION    NA+35690  28.073  11.259   4.247
70706ION    NA+35691  22.233  38.425   4.655
70707ION    NA+35692  31.961   9.854   3.678
70708ION    NA+35693   3.283  41.016   4.297
70709ION    NA+35694   7.342  30.112  11.605
70710ION    NA+35695  22.550  43.526   1.408
70711ION    NA+35696  29.883  13.897  10.586
70712ION    NA+35697  11.903  27.659   2.699
70713ION    NA+35698  43.575  13.864   4.488
70714ION    NA+35699  30.210  26.576   0.450
70715ION    NA+35700  44.950  37.290   2.185
70716ION    NA+35701  17.501  29.631   0.715
70717ION    NA+35702   7.443  31.467   3.080
70718ION    NA+35703  17.143   1.694  12.232
70719ION    NA+35704  12.104  19.312   5.076
70720ION    NA+35705  20.928   3.855  14.485
70721ION    NA+35706  13.787  26.620   3.733
70722ION    NA+35707  20.146  10.601  14.922
70723ION    NA+35708   9.975  32.728  12.834
70724ION    NA+35709   6.142  25.231  10.668
70725ION    NA+35710  39.875  12.080  11.612
70726ION    NA+35711  24.372  34.937  12.526
70727ION    NA+35712   5.733   0.184  12.486
70728ION    NA+35713  37.074  34.607  10.994
70729ION    NA+35714  16.908  25.383   2.648
70730ION    NA+35715  17.223   1.361   3.469
70731ION    NA+35716  44.824  32.134   1.509
70732ION    NA+35717  28.113   0.325  11.637
70733ION    NA+35718  26.136  17.843   2.389
70734ION    NA+35719  25.033  27.249  14.780
70735ION    NA+35720  16.389  36.954  13.573
70736ION    NA+35721  16.706  20.563  11.334
70737ION    NA+35722   1.515  17.265  11.112
70738ION    NA+35723  36.824   0.814  12.374
70739ION    NA+35724  36.476  13.403  11.681
70740ION    NA+35725  42.097  13.902   1.456
70741ION    NA+35726   2.109   5.702  13.006
70742ION    NA+35727  16.295  28.728  11.046
70743ION    NA+35728  13.190  28.744   4.743
70744ION    NA+35729   9.347  43.733   0.701
70745ION    NA+35730   9.110  20.304   2.364
70746ION    NA+35731   7.900  35.309   2.416
70747ION    NA+35732  23.940   5.000  14.856
70748ION    NA+35733  16.545  21.875  11.178
70749ION    NA+35734   7.473  34.315   2.243
70750ION    NA+35735  33.587   8.291   0.776
70751ION    NA+35736  44.937  20.104   5.532
70752ION    NA+35737  38.643  42.743   1.205
70753ION    NA+35738  36.877  28.754  13.241
70754ION    NA+35739   0.229  41.035   3.184
70755ION    NA+35740  27.704  23.523   0.209
70756ION    NA+35741   8.213  15.965  12.238
70757ION    NA+35742  33.880  34.618  12.082
70758ION    NA+35743   1.779  27.493   3.304
70759ION    NA+35744   0.412  21.056  14.986
70760ION    NA+35745  40.901  34.424   3.343
70761ION    NA+35746  25.158  13.676  11.147
70762ION    NA+35747  13.831  14.790   3.722
70763ION    NA+35748  18.855  39.896   2.258
70764ION    NA+35749  20.076  27.372   1.669
70765ION    NA+35750  36.341  34.859   1.605
70766ION    NA+35751  32.067  12.438  14.434
70767ION    NA+35752  35.742  40.271  11.644
70768ION    NA+35753  35.610  29.584  12.819
70769ION    NA+35754  15.709   7.069   3.050
70770ION    NA+35755   9.894  32.030  14.892
70771ION    NA+35756  34.385  41.492   4.626
70772ION    NA+35757  36.969  18.336  12.424
70773ION    NA+35758   6.705  10.054   4.615
70774ION    NA+35759  32.984   5.003   4.333
70775ION    NA+35760   8.353   1.647  13.176
70776ION    NA+35761   9.449   6.534  13.770
70777ION    NA+35762  35.896  43.431   4.119
70778ION    NA+35763  22.517   7.899  12.451
70779ION    NA+35764  18.811  24.990   1.344
70780ION    NA+35765  35.536  36.949   1.378
70781ION    NA+35766   0.278  23.688  11.037
70782ION    NA+35767  18.536  16.102  14.383
70783ION    NA+35768  17.404   4.151   0.168
70784ION    NA+35769   2.290  19.714   2.565
70785ION    NA+35770  39.590  16.698  12.706
70786ION    NA+35771  29.969  34.479  11.705
70787ION    NA+35772   5.141  36.302   4.585
70788ION    NA+35773   0.527  38.276   3.680
70789ION    NA+35774  28.088  41.093  14.749
70790ION    NA+35775  11.810   3.410   1.801
70791ION    NA+35776  23.270   7.456   1.700
70792ION    NA+35777  23.149  11.254  13.629
70793ION    NA+35778  12.740   5.705  11.765
70794ION    NA+35779  44.609  23.397   0.930
70795ION    NA+35780  36.066  10.420   1.912
70796ION    NA+35781  11.570  36.197   0.370
70797ION    NA+35782  18.752   3.516   1.975
70798ION    NA+35783  42.878  12.677  11.135
70799ION    NA+35784  17.257  10.986   1.211
70800ION    NA+35785   7.508  31.711  14.830
70801ION    NA+35786  44.415  23.522   3.287
70802ION    NA+35787   1.626   9.862   2.892
70803ION    NA+35788  16.332  12.060   0.801
70804ION    NA+35789  30.619   3.617  12.624
70805ION    NA+35790   4.378   2.226   1.501
70806ION    NA+35791  30.615   7.218   2.384
70807ION    NA+35792  24.937  40.006  14.988
70808ION    NA+35793  21.528  40.877   0.298
70809ION    NA+35794  43.331   5.216  11.233
70810ION    NA+35795  23.957  38.117  12.862
70811ION    NA+35796  24.793  10.944   1.759
70812ION    NA+35797  17.081   2.661   1.937
70813ION    NA+35798   3.079  43.759  12.961
70814ION    NA+35799  36.488  14.659   3.408
70815ION    NA+35800  24.175  43.384   3.015
70816ION    NA+35801  44.019  32.890   3.455
70817ION    NA+35802  28.350  26.066  11.898
70818ION    NA+35803  26.584  28.985   0.974
70819ION    NA+35804  30.523  21.562  13.323
70820ION    NA+35805   0.863  17.766  13.759
70821ION    NA+35806   4.748  18.092   1.451
70822ION    NA+35807   6.274  36.628  12.128
70823ION    NA+35808  18.758  43.988  11.624
70824ION    NA+35809   7.122  31.339  12.055
70825ION    NA+35810  16.066   2.781  13.057
70826ION    NA+35811  10.233  20.903   1.480
70827ION    NA+35812  13.632  23.805  11.511
70828ION    NA+35813  43.557   3.384  11.499
70829ION    NA+35814  43.211  34.293   3.295
70830ION    NA+35815  17.651   9.415  13.158
70831ION    NA+35816  29.572  17.020  12.154
70832ION    NA+35817  12.506  10.573  13.298
70833ION    NA+35818  38.873  43.170  14.056
70834ION    NA+35819   4.427  23.575  13.478
70835ION    NA+35820  37.764  23.634  14.877
70836ION    NA+35821   6.399   7.910   2.924
70837ION    NA+35822  31.161  38.073  12.864
70838ION    NA+35823   8.148  30.176  14.662
70839ION    NA+35824  16.417  10.595   4.978
70840ION    NA+35825   7.938  30.205   2.405
70841ION    NA+35826  40.289  30.784  14.371
70842ION    NA+35827   8.307  11.083   0.592
70843ION    NA+35828   2.978  11.034  10.244
70844ION    NA+35829   8.708   9.744  11.028
70845ION    NA+35830  29.848   1.741   2.252
70846ION    NA+35831  24.365  36.552  11.948
70847ION    NA+35832  18.612  30.695   4.336
70848ION    NA+35833  21.571  34.198   4.326
70849ION    NA+35834  27.430  30.667   1.693
70850ION    NA+35835  15.604  18.942   2.229
70851ION    NA+35836  40.663  34.009   1.559
70852ION    NA+35837   0.062  34.654   4.454
70853ION    NA+35838  43.533  17.624  12.498
70854ION    NA+35839  31.413  11.650   4.491
70855ION    NA+35840  42.376  17.906   0.457
70856ION    NA+35841   1.675  36.471   0.070
70857ION    NA+35842  16.505  12.909  10.448
70858ION    NA+35843  23.340  19.390   3.468
70859ION    NA+35844  20.203  26.560   5.017
70860ION    NA+35845   1.734  35.506   0.431
70861ION    NA+35846  41.008   3.255  14.924
70862ION    NA+35847   8.930  42.721   1.974
70863ION    NA+35848   1.635  37.830  10.940
70864ION    NA+35849  24.471  29.666  12.994
70865ION    NA+35850  44.852   7.639  14.470
70866ION    NA+35851   5.305  38.058   1.539
70867ION    NA+35852   1.540   3.905   3.622
70868ION    NA+35853  17.330  35.031  11.084
70869ION    NA+35854  32.833  37.903   3.751
70870ION    NA+35855  34.018   7.602   4.583
70871ION    NA+35856  40.940  35.047   1.416
70872ION    NA+35857  21.816  10.230  11.551
70873ION    NA+35858  32.476  44.823   0.833
70874ION    NA+35859  22.251  12.341   2.359
70875ION    NA+35860   3.786  12.305   1.811
70876ION    NA+35861  41.888   7.046   2.707
70877ION    NA+35862   5.182   3.878   2.725
70878ION    NA+35863   7.436   7.720  12.661
70879ION    NA+35864  14.121   3.594   1.183
70880ION    NA+35865  25.045  15.246   0.327
70881ION    NA+35866  32.368  30.546   1.906
70882ION    NA+35867  23.020   4.900   4.242
70883ION    NA+35868   9.351   0.879  13.688
70884ION    NA+35869  18.389  20.515   3.017
70885ION    NA+35870   6.847  24.378   0.483
70886ION    NA+35871   7.701  21.545  11.812
70887ION    NA+35872  33.392  18.842  10.707
70888ION    NA+35873  17.412  33.114   0.964
70889ION    NA+35874   1.064  24.293   5.071
70890ION    NA+35875  21.675  13.662   1.086
70891ION    NA+35876   3.656   3.946  10.203
70892ION    NA+35877  14.266  16.636   3.449
70893ION    NA+35878   5.032   8.241   0.898
70894ION    NA+35879  40.217   3.699   4.575
70895ION    NA+35880  17.205   3.557   2.145
70896ION    NA+35881  15.316   3.248   1.029
70897ION    NA+35882   6.627  30.722   2.293
70898ION    NA+35883  35.849  18.499  10.343
70899ION    NA+35884   3.978  42.410  13.332
70900ION    NA+35885  37.068   0.961   0.213
70901ION    NA+35886   1.872  40.713  12.586
70902ION    NA+35887  23.665  38.175   1.311
70903ION    NA+35888  36.748  32.622   1.209
70904ION    NA+35889  12.654  20.755  13.975
70905ION    NA+35890  26.591  27.547  13.450
70906ION    NA+35891  38.790  17.242  12.449
70907ION    NA+35892  30.166  37.539   0.424
70908ION    NA+35893  10.912  28.522   0.169
70909ION    NA+35894   3.559   1.649  12.929
70910ION    NA+35895  13.889  32.234   1.183
70911ION    NA+35896   4.874  17.939   4.150
70912ION    NA+35897  32.277  14.270  11.739
70913ION    NA+35898  11.383  18.868  11.300
70914ION    NA+35899  30.607  40.868  14.984
70915ION    NA+35900  39.130   2.686   4.559
70916ION    NA+35901  29.358  38.040   3.840
70917ION    NA+35902   7.991  25.975  13.105
70918ION    NA+35903   3.454   7.768  10.638
70919ION    NA+35904  32.338  25.849   0.153
70920ION    NA+35905  23.723  24.151  12.391
70921ION    NA+35906  23.018  25.242   1.512
70922ION    NA+35907  22.484  16.203  12.861
70923ION    NA+35908   3.025  15.081  11.089
70924ION    NA+35909  38.400  11.372   4.060
70925ION    NA+35910  26.889  33.298  10.964
70926ION    NA+35911   1.900  44.033  12.552
70927ION    NA+35912   8.944   3.535   0.874
70928ION    NA+35913   0.023  38.989   3.557
70929ION    NA+35914  25.938  36.669   2.230
70930ION    NA+35915  10.289  34.398   3.398
70931ION    NA+35916  18.465  15.449   4.530
70932ION    NA+35917  16.999  14.597   1.910
70933ION    NA+35918  40.123   3.637  11.943
70934ION    NA+35919  28.064  17.573   1.767
70935ION    NA+35920  38.315  37.896   3.869
70936ION    NA+35921  43.550   9.561   3.329
70937ION    NA+35922  41.150  39.583  11.755
70938ION    NA+35923  36.043  22.580   0.771
70939ION    NA+35924  25.401  23.043   3.756
70940ION    NA+35925  13.103   8.763   1.604
70941ION    NA+35926  42.505  38.569   1.283
70942ION    NA+35927  41.183  20.445   5.318
70943ION    NA+35928  30.664   1.281  13.857
70944ION    NA+35929   7.370  29.688   1.228
70945ION    NA+35930  16.836  21.483   4.019
70946ION    NA+35931  25.044  36.737   0.318
70947ION    NA+35932  15.836  14.998   4.732
70948ION    NA+35933  26.082  27.006   4.492
70949ION    NA+35934   3.425  23.317  14.457
70950ION    NA+35935  40.197  31.423  10.617
70951ION    NA+35936   5.304  23.451   2.942
70952ION    NA+35937  24.040  26.160  11.100
70953ION    NA+35938  41.054  33.550  11.955
70954ION    NA+35939  26.534  10.625  14.501
70955ION    NA+35940  28.355  37.920   1.825
70956ION    NA+35941   0.776  41.168  11.306
70957ION    NA+35942  21.923   9.914   4.145
70958ION    NA+35943  14.163  28.360  12.415
70959ION    NA+35944  22.720  28.108   2.368
70960ION    NA+35945  31.781   7.137   3.124
70961ION    NA+35946  12.090  25.279   3.185
70962ION    NA+35947  14.237  39.739  11.634
70963ION    NA+35948   2.305  11.878  11.618
70964ION    NA+35949   9.704  41.188  14.881
70965ION    NA+35950  21.739  12.757  11.465
70966ION    NA+35951  34.430  21.963  11.846
70967ION    NA+35952   1.971  41.695  12.749
70968ION    NA+35953   5.438  20.954   2.101
70969ION    NA+35954  12.069  44.234   3.263
70970ION    NA+35955  13.163  33.355  14.584
70971ION    NA+35956  36.504   9.787  12.822
70972ION    NA+35957  41.396   7.794   2.261
70973ION    NA+35958  24.241  12.697  13.081
70974ION    NA+35959  15.971  21.949  11.878
70975ION    NA+35960  29.171  27.813  14.548
70976ION    NA+35961  38.135  20.050   4.950
70977ION    NA+35962  27.654  25.476   0.587
70978ION    NA+35963  18.871  37.862   0.302
70979ION    NA+35964   2.151  11.847  13.497
70980ION    NA+35965  15.915  25.520  14.348
70981ION    NA+35966  10.549   5.628  10.782
70982ION    NA+35967   2.909  10.734  14.404
70983ION    NA+35968  36.638  39.879  13.729
70984ION    NA+35969  26.298   5.333  13.019
70985ION    NA+35970  25.323  32.134  14.042
70986ION    NA+35971  28.494  27.142   4.267
70987ION    NA+35972  28.556   2.001  13.291
70988ION    NA+35973  10.054  42.719  12.360
70989ION    NA+35974  13.664   6.098  13.320
70990ION    NA+35975  41.554  12.335  12.057
70991ION    NA+35976  32.674   1.953   0.077
70992ION    NA+35977  34.421  14.826  12.690
70993ION    NA+35978  44.702   2.855   3.437
70994ION    NA+35979  43.795  20.382   9.710
70995ION    NA+35980  19.109  12.764  11.312
70996ION    NA+35981  37.204   0.408   3.347
70997ION    NA+35982  12.194   1.763   2.383
70998ION    NA+35983  22.641  16.639   3.457
70999ION    NA+35984   7.461   6.369  13.905
71000ION    NA+35985  37.520  16.773  13.044
71001ION    NA+35986  22.978  21.258  11.570
71002ION    NA+35987  38.902   3.773   1.296
71003ION    NA+35988  25.815  35.552  12.693
71004ION    NA+35989  29.862  19.379   4.201
71005ION    NA+35990   9.361   9.254  11.999
71006ION    NA+35991  14.156  29.187   1.666
71007ION    NA+35992  23.844  27.959  10.167
71008ION    NA+35993  31.910  36.665  10.867
71009ION    NA+35994  17.003  16.403   9.674
71010ION    NA+35995   1.976  15.819  10.285
71011ION    NA+35996  39.649  21.823   0.531
71012ION    NA+35997  26.800  30.923  13.046
71013ION    NA+35998   2.136  18.463   2.544
71014ION    NA+35999  43.783  25.348   0.588
71015ION    NA+36000  43.472  20.357  14.016
71016ION    NA+36001  33.601   1.021   2.832
71017ION    NA+36002   1.414  42.488  13.081
71018ION    NA+36003  32.290  28.294   2.827
71019ION    NA+36004  39.059  19.307   2.839
71020ION    NA+36005  25.741  35.353   2.802
71021ION    NA+36006  16.431  29.588   3.976
71022ION    NA+36007  34.556  44.502  12.911
71023ION    NA+36008  37.858  19.760  12.292
71024ION    NA+36009   2.990   3.569  12.456
71025ION    NA+36010  19.875   7.876  10.139
71026ION    NA+36011  12.345  32.119  14.822
71027ION    NA+36012   7.202  22.782   3.539
71028ION    NA+36013  24.180   8.631   2.510
71029ION    NA+36014  15.136  22.668   1.529
71030ION    NA+36015  42.912   0.886  10.920
71031ION    NA+36016  40.009  21.749  11.638
71032ION    NA+36017  27.927   6.690  12.946
71033ION    NA+36018  31.526  36.398   2.058
71034ION    NA+36019  31.345  29.150   4.174
71035ION    NA+36020  20.245  21.606   5.050
71036ION    NA+36021   4.474  34.898  13.032
71037ION    NA+36022  39.542  11.322  14.042
71038ION    NA+36023  20.301  38.957   2.676
71039ION    NA+36024  18.113  23.470   1.625
71040ION    NA+36025   0.406  35.601  10.893
71041ION    NA+36026   2.434   8.791  10.573
71042ION    NA+36027   6.232  18.820   0.353
71043ION    NA+36028   7.658  44.234   1.489
71044ION    NA+36029  39.306  25.780  13.377
71045ION    NA+36030   8.201  19.304   3.101
71046ION    NA+36031  28.448  36.436  14.717
71047ION    NA+36032   5.924  27.444   1.743
71048ION    NA+36033  24.383  35.665   1.617
71049ION    NA+36034   9.860  23.311  14.613
71050ION    NA+36035  43.788  23.062   2.313
71051ION    NA+36036   6.941   3.545   3.872
71052ION    NA+36037   0.632  10.104   0.571
71053ION    NA+36038   1.973  12.556   4.616
71054ION    NA+36039  27.903  40.296   4.118
71055ION    NA+36040  12.462  26.271   3.918
71056ION    NA+36041   7.879  20.597   2.790
71057ION    NA+36042  23.631  32.041  11.991
71058ION    NA+36043  22.117  23.398  10.820
71059ION    NA+36044  34.413  28.060  14.648
71060ION    NA+36045  28.594   8.453   0.457
71061ION    NA+36046  13.664   8.615  10.718
71062ION    NA+36047  27.341  22.572   4.441
71063ION    NA+36048  13.339   7.099  11.928
71064ION    NA+36049  34.106  30.114   3.586
71065ION    NA+36050   1.409  19.879   3.422
71066ION    NA+36051   7.830   0.543   3.060
71067ION    NA+36052   7.283  34.283  12.579
71068ION    NA+36053   1.619   4.581  14.951
71069ION    NA+36054  18.497  29.959   0.795
71070ION    NA+36055  41.341  39.254  10.494
71071ION    NA+36056  10.931  42.551   1.824
71072ION    NA+36057  17.224  32.559   0.154
71073ION    NA+36058  27.260  14.245  13.042
71074ION    NA+36059   7.525  28.113  13.383
71075ION    NA+36060  14.217   5.929  14.136
71076ION    NA+36061  22.503  26.707   2.287
71077ION    NA+36062  14.599   3.097  11.928
71078ION    NA+36063  26.942  19.793  13.007
71079ION    NA+36064   4.748   0.348  12.523
71080ION    NA+36065   2.210  43.205  13.020
71081ION    NA+36066  44.856  42.284   2.383
71082ION    NA+36067  11.994  40.033   5.185
71083ION    NA+36068  41.438  11.918  13.067
71084ION    NA+36069  21.581  21.533   2.368
71085ION    NA+36070  33.027   8.416  14.710
71086ION    NA+36071  14.809  22.796  12.492
71087ION    NA+36072   2.520  25.486  11.598
71088ION    NA+36073  41.808  34.918  12.474
71089ION    NA+36074  32.780   7.271   4.918
71090ION    NA+36075   3.612  26.961   1.689
71091ION    NA+36076   9.245  33.398   1.894
71092ION    NA+36077  32.441  27.275   1.721
71093ION    NA+36078   2.151  10.706  13.752
71094ION    NA+36079   4.274   7.923   2.594
71095ION    NA+36080  43.378   1.992  13.041
71096ION    NA+36081   3.700   9.720   2.807
71097ION    NA+36082   5.165  13.958   1.639
71098ION    NA+36083  27.690  10.109   1.581
71099ION    NA+36084   3.081  18.780  11.084
71100ION    NA+36085  34.460  24.707   2.609
71101ION    NA+36086  16.394  15.078   3.906
71102ION    NA+36087   0.186  18.991   1.065
71103ION    NA+36088  17.207   7.292  14.103
71104ION    NA+36089  11.547  29.592  14.998
71105ION    NA+36090  17.697  13.123   1.376
71106ION    NA+36091  22.036   5.645  12.405
71107ION    NA+36092   0.850  20.787   2.250
71108ION    NA+36093  19.152  37.408   3.439
71109ION    NA+36094   7.406  32.422   3.376
71110ION    NA+36095  10.001  32.149   3.284
71111ION    NA+36096   9.463  11.852   0.259
71112ION    NA+36097   4.679  41.747  14.006
71113ION    NA+36098  31.184  42.921   4.033
71114ION    NA+36099  26.702   2.950  12.033
71115ION    NA+36100  20.227   3.194   1.850
71116ION    NA+36101  26.280  31.864  12.515
71117ION    NA+36102  43.551   1.603   2.745
71118ION    NA+36103  30.136  42.210   3.659
71119ION    NA+36104  16.678   3.508  12.609
71120ION    NA+36105   2.268  21.024  12.104
71121ION    NA+36106  22.975  39.724  11.836
71122ION    NA+36107  10.138  35.530  14.303
71123ION    NA+36108  38.129  26.114   3.269
71124ION    NA+36109   7.953  41.439  13.990
71125ION    NA+36110  35.625   0.657   1.218
71126ION    NA+36111  38.625  18.600   5.623
71127ION    NA+36112  12.783  33.980  13.859
71128ION    NA+36113  15.607  22.655   5.566
71129ION    NA+36114  42.292  16.154  14.975
71130ION    NA+36115   2.393  24.816   0.609
71131ION    NA+36116  18.027   4.515   3.102
71132ION    NA+36117  43.581  34.176   0.684
71133ION    NA+36118  39.482  14.204  11.211
71134ION    NA+36119  27.915  41.994  11.161
71135ION    NA+36120   5.262  44.012   2.729
71136ION    NA+36121  40.621  35.325  14.191
71137ION    NA+36122  16.485   4.352   0.507
71138ION    NA+36123  25.178  30.791  13.253
71139ION    NA+36124  10.827   8.366  14.730
71140ION    NA+36125   9.621   9.604  14.684
71141ION    NA+36126  18.334   4.355  12.447
71142ION    NA+36127  44.395  34.454   3.678
71143ION    NA+36128  10.441  13.351   9.906
71144ION    NA+36129  24.487  26.813  12.069
71145ION    NA+36130  21.392  11.946  11.958
71146ION    NA+36131  11.915   2.469  11.529
71147ION    NA+36132  16.680  16.784  13.147
71148ION    NA+36133  40.651  21.919  10.616
71149ION    NA+36134  36.070  14.054   0.307
71150ION    NA+36135  24.691  16.315  12.166
71151ION    NA+36136  34.267  16.988   4.633
71152ION    NA+36137  20.066   3.749  12.811
71153ION    NA+36138  43.783  33.717   3.965
71154ION    NA+36139  28.764  19.468  13.984
71155ION    NA+36140  15.425  15.113  10.466
71156ION    NA+36141   8.943  11.745   2.170
71157ION    NA+36142  20.552  24.039   1.934
71158ION    NA+36143  37.730   9.425  12.963
71159ION    NA+36144  44.483  40.042  13.973
71160ION    NA+36145  38.476   1.032  14.368
71161ION    NA+36146   5.253   1.220  12.648
71162ION    NA+36147   9.749  20.904  13.929
71163ION    NA+36148   5.919  30.912  10.709
71164ION    NA+36149  22.951  22.657  10.581
71165ION    NA+36150   8.644  24.049   1.662
71166ION    NA+36151  11.260  23.583  12.621
71167ION    NA+36152  13.520  13.414   2.133
71168ION    NA+36153  10.939   2.044   1.988
71169ION    NA+36154  43.275  35.925  13.520
71170ION    NA+36155  16.381  40.809   2.395
71171ION    NA+36156  27.444   6.437   1.773
71172ION    NA+36157  32.044  30.856  10.768
71173ION    NA+36158  33.206  37.482   0.036
71174ION    NA+36159  41.284  33.776   0.811
71175ION    NA+36160  40.964   2.118   2.570
71176ION    NA+36161  18.560  14.648   1.940
71177ION    NA+36162  40.539  29.021  10.795
71178ION    NA+36163  28.898  31.887   2.549
71179ION    NA+36164  10.932   6.815   2.726
71180ION    NA+36165   8.428  12.810  12.420
71181ION    NA+36166  23.469  31.159   3.176
71182ION    NA+36167   1.822  33.128   2.676
71183ION    NA+36168  40.662   4.735   2.958
71184ION    NA+36169  34.851  10.330   4.540
71185ION    NA+36170  15.606   6.368  12.444
71186ION    NA+36171  18.642   0.992   3.552
71187ION    NA+36172  16.118  12.529  11.288
71188ION    NA+36173  12.091   8.316   2.381
71189ION    NA+36174  42.084  20.351  14.267
71190ION    NA+36175  17.601  19.909   3.188
71191ION    NA+36176   2.590   1.809   9.584
71192ION    NA+36177  18.236   4.410  13.470
71193ION    NA+36178  17.782  28.512  10.795
71194ION    NA+36179  43.477   5.697  14.322
71195ION    NA+36180  17.894  13.060   0.015
71196ION    NA+36181  30.657  11.114   0.962
71197ION    NA+36182  16.553  35.509  13.451
71198ION    NA+36183   7.386  10.864   1.951
71199ION    NA+36184  21.702  23.461   2.077
71200ION    NA+36185  33.120  37.817   1.241
71201ION    NA+36186  42.386  32.938   1.825
71202ION    NA+36187  31.533   7.153  14.587
71203ION    NA+36188  41.686  33.087   5.489
71204ION    NA+36189  16.159  16.290   0.224
71205ION    NA+36190  22.448  44.375  11.437
71206ION    NA+36191  27.574   0.530   1.731
71207ION    NA+36192   7.741  34.969   0.619
71208ION    NA+36193  40.562  11.564   1.290
71209ION    NA+36194   7.086  26.047   0.886
71210ION    NA+36195  26.701   7.290  10.915
71211ION    NA+36196  31.844  14.470   3.228
71212ION    NA+36197  38.942  33.439  12.102
71213ION    NA+36198  16.107  13.779  14.519
71214ION    NA+36199  17.384  25.639  10.848
71215ION    NA+36200  12.273  25.712  11.161
71216ION    NA+36201   4.963   9.962   3.804
71217ION    NA+36202  31.147  37.311  10.849
71218ION    NA+36203  18.440   6.951  13.524
71219ION    NA+36204  43.882  33.942  14.310
71220ION    NA+36205  22.300  27.950  13.925
71221ION    NA+36206  24.680  25.605   3.635
71222ION    NA+36207   3.868  34.251  11.933
71223ION    NA+36208  22.854  38.744   2.314
71224ION    NA+36209  28.091  40.765   2.786
71225ION    NA+36210  24.935   6.329  14.780
71226ION    NA+36211   7.870   7.418  13.918
71227ION    NA+36212  15.278  13.807   0.978
71228ION    NA+36213  31.932  18.666   2.364
71229ION    NA+36214  11.191  38.914  11.508
71230ION    NA+36215  17.103  20.551   3.771
71231ION    NA+36216  15.073  20.972   2.584
71232ION    NA+36217  26.306  26.003  10.846
71233ION    NA+36218  17.305  29.715   3.835
71234ION    NA+36219   1.060  21.544   1.177
71235ION    NA+36220  25.262  26.473   1.146
71236ION    NA+36221  30.531   2.708  11.031
71237ION    NA+36222  36.959  39.345   2.715
71238ION    NA+36223  21.719  38.986  13.507
71239ION    NA+36224  12.723   8.899  12.789
71240ION    NA+36225  23.750  14.448  12.596
71241ION    NA+36226   9.617  24.154   3.809
71242ION    NA+36227  18.258  42.087  12.081
71243ION    NA+36228  15.697  18.805   1.234
71244ION    NA+36229  40.491  17.753  12.161
71245ION    NA+36230   0.179  20.835  10.027
71246ION    NA+36231   5.599  11.799   2.078
71247ION    NA+36232  17.771  30.270  11.842
71248ION    NA+36233   7.749   8.376   0.700
71249ION    NA+36234  38.365  32.689   0.925
71250ION    NA+36235  35.723  15.854  12.815
71251ION    NA+36236  21.232   3.492   4.718
71252ION    NA+36237   3.209  16.843  12.150
71253ION    NA+36238  23.016  26.141  13.510
71254ION    NA+36239   2.149  18.909  13.059
71255ION    NA+36240   8.222  41.516   4.057
71256ION    NA+36241  23.163  36.723   4.505
71257ION    NA+36242  22.566  15.492  10.843
71258ION    NA+36243  18.681   7.336  10.672
71259ION    NA+36244  43.331  40.936  12.128
71260ION    NA+36245   7.616  17.237   0.267
71261ION    NA+36246  37.197  14.988  11.127
71262ION    NA+36247  19.540   7.644   1.193
71263ION    NA+36248   9.265  35.608   1.377
71264ION    NA+36249  11.875  25.146  10.186
71265ION    NA+36250  13.584  35.442  10.980
71266ION    NA+36251  13.484  40.621  14.884
71267ION    NA+36252  12.456  15.208  12.059
71268ION    NA+36253  21.337  35.438   0.853
71269ION    NA+36254  42.431  33.294   0.454
71270ION    NA+36255  20.252  15.072   0.726
71271ION    NA+36256  10.688  44.325   2.840
71272ION    NA+36257  21.494   9.162   3.644
71273ION    NA+36258   3.139  15.819   2.730
71274ION    NA+36259  40.429  39.102   0.087
71275ION    NA+36260   9.794  23.756   1.748
71276ION    NA+36261  41.241  23.482   0.699
71277ION    NA+36262  44.889  43.895   3.709
71278ION    NA+36263  33.838  14.710  11.886
71279ION    NA+36264  27.879   0.426  14.580
71280ION    NA+36265  44.182  42.229   0.774
71281ION    NA+36266  14.291  34.797  10.689
71282ION    NA+36267  29.076   3.923   0.408
71283ION    NA+36268  21.554  12.503  12.858
71284ION    NA+36269  15.345  37.791  13.927
71285ION    NA+36270  26.579   1.155   3.165
71286ION    NA+36271  44.013  38.861   0.534
71287ION    NA+36272  15.606  16.080  13.011
71288ION    NA+36273  10.163  10.136   3.330
71289ION    NA+36274   0.510  40.076   3.186
71290ION    NA+36275   7.810  40.717  14.501
71291ION    NA+36276  28.731  32.987  10.624
71292ION    NA+36277   6.240  43.267   2.565
71293ION    NA+36278  26.407  17.315  11.103
71294ION    NA+36279  39.773  24.728  13.621
71295ION    NA+36280   2.970  24.601   3.937
71296ION    NA+36281   9.355  21.759  11.009
71297ION    NA+36282  41.154  16.216  12.552
71298ION    NA+36283  30.493  27.921  12.344
71299ION    NA+36284  21.123   0.917  12.276
71300ION    NA+36285   5.704  26.016   0.910
71301ION    NA+36286  38.707  28.749   1.080
71302ION    NA+36287  18.284  13.309   3.062
71303ION    NA+36288  13.734  17.098   2.633
71304ION    NA+36289  34.994  15.846  13.875
71305ION    NA+36290   0.942  44.025   4.538
71306ION    NA+36291  29.330  22.600  12.013
71307ION    NA+36292  38.585   9.214   1.720
71308ION    NA+36293   4.081  15.213  12.518
71309ION    NA+36294  39.612   8.296  13.953
71310ION    NA+36295  30.418   3.625  13.766
71311ION    NA+36296  38.877  22.755   5.387
71312ION    NA+36297  14.023   1.127   0.077
71313ION    NA+36298   7.074  29.754   2.181
71314ION    NA+36299  27.445   3.779   2.523
71315ION    NA+36300  17.296  40.922  11.285
71316ION    NA+36301   7.793   3.958   0.334
71317ION    NA+36302  19.009  44.617   4.117
71318ION    NA+36303   6.926  43.730  14.231
71319ION    NA+36304  27.690  27.581   2.443
71320ION    NA+36305  40.301   9.217  12.031
71321ION    NA+36306  29.202  14.762   2.566
71322ION    NA+36307  43.597  22.800  11.878
71323ION    NA+36308  36.583  33.068  13.458
71324ION    NA+36309  17.887  19.238   2.241
71325ION    NA+36310  24.970   6.297  12.431
71326ION    NA+36311  19.216  25.418  11.455
71327ION    NA+36312  25.321  28.765  12.399
71328ION    NA+36313  17.620  26.910   9.746
71329ION    NA+36314  34.430   7.318   2.642
71330ION    NA+36315  14.303  12.357  14.350
71331ION    NA+36316  15.802  32.541  10.660
71332ION    NA+36317  17.709   7.681   2.447
71333ION    NA+36318  43.214  41.361  14.411
71334ION    NA+36319  41.322  28.432  12.455
71335ION    NA+36320  16.059  44.938   0.677
71336ION    NA+36321   7.884  31.044   4.272
71337ION    NA+36322  14.104  13.388  14.901
71338ION    NA+36323  29.955  36.327   3.873
71339ION    NA+36324  24.515  18.928   3.795
71340ION    NA+36325   5.482  42.560  13.014
71341ION    NA+36326  13.743  38.722   4.585
71342ION    NA+36327  41.114  19.660  13.808
71343ION    NA+36328   2.943  40.780  13.538
71344ION    NA+36329  41.876  42.532   0.794
71345ION    NA+36330  31.781  26.797   3.647
71346ION    NA+36331  12.604   1.506   0.876
71347ION    NA+36332  21.293  21.551  14.246
71348ION    NA+36333  11.472  27.040   1.459
71349ION    NA+36334  13.755  34.043   4.265
71350ION    NA+36335   8.634  18.714  12.526
71351ION    NA+36336  29.662   4.962  12.517
71352ION    NA+36337  20.300  41.447   4.895
71353ION    NA+36338  13.334  17.171  11.665
71354ION    NA+36339  21.055  19.324   3.263
71355ION    NA+36340  36.734  25.226  11.910
71356ION    NA+36341  17.693  37.110  14.814
71357ION    NA+36342  31.481  44.518  14.944
71358ION    NA+36343  19.016  44.441   1.280
71359ION    NA+36344   4.826  11.281  14.528
71360ION    NA+36345  30.758  38.004   4.679
71361ION    NA+36346  27.675  25.515  11.408
71362ION    NA+36347  13.828  29.561  14.339
71363ION    NA+36348  36.364  17.296  11.132
71364ION    NA+36349  15.888  10.608  12.466
71365ION    NA+36350   6.063   8.437  11.082
71366ION    NA+36351   7.834  28.677  11.994
71367ION    NA+36352  21.978  15.999  12.145
71368ION    NA+36353  41.079  36.945   3.389
71369ION    NA+36354  42.269  17.454  14.716
71370ION    NA+36355  21.393  31.023   3.676
71371ION    NA+36356  23.466  30.494   5.519
71372ION    NA+36357  24.626  11.374  10.723
71373ION    NA+36358  20.113   6.244  12.823
71374ION    NA+36359  34.038  27.511  13.511
71375ION    NA+36360  28.350  12.113  14.453
71376ION    NA+36361  29.510   6.808   1.884
71377ION    NA+36362  35.099  25.673   2.221
71378ION    NA+36363  41.185  26.618   3.883
71379ION    NA+36364  41.482  31.977  11.520
71380ION    NA+36365   0.728  19.570   4.224
71381ION    NA+36366   5.002   5.710   2.265
71382ION    NA+36367  39.343  10.575   2.472
71383ION    NA+36368  19.795  21.986   1.806
71384ION    NA+36369  28.694  23.163   2.835
71385ION    NA+36370  22.787  20.519   4.972
71386ION    NA+36371  20.552   0.348  11.852
71387ION    NA+36372  15.967  37.093   3.851
71388ION    NA+36373  19.204  36.044   2.703
71389ION    NA+36374   2.319  31.702   4.967
71390ION    NA+36375  14.390  32.002  10.280
71391ION    NA+36376  33.710  16.811  13.005
71392ION    NA+36377  11.895   2.173  12.380
71393ION    NA+36378  44.232  28.575  10.544
71394ION    NA+36379  21.048  31.128   0.367
71395ION    NA+36380  37.351  39.350   5.128
71396ION    NA+36381   9.324  33.481  12.184
71397ION    NA+36382  23.858  22.642  14.517
71398ION    NA+36383   0.139  31.188   0.836
71399ION    NA+36384   7.690  42.073  12.199
71400ION    NA+36385  33.089  42.962   0.576
71401ION    NA+36386  30.047  28.075   0.630
71402ION    NA+36387  15.388  44.635   2.494
71403ION    NA+36388  44.562  17.209   3.351
71404ION    NA+36389  19.465  34.942  12.232
71405ION    NA+36390   3.787  16.289  13.345
71406ION    NA+36391  13.879   6.549  12.391
71407ION    NA+36392   0.764  25.490   1.005
71408ION    NA+36393  25.508   1.540  11.785
71409ION    NA+36394  21.924   4.798  11.885
71410ION    NA+36395  36.825  16.186  13.488
71411ION    NA+36396  21.004  20.568  14.312
71412ION    NA+36397  24.184  14.482  14.810
71413ION    NA+36398  39.723  17.537  12.765
71414ION    NA+36399   5.447  36.242  12.649
71415ION    NA+36400  13.793  26.122  12.061
71416ION    NA+36401  17.247  28.986   4.578
71417ION    NA+36402  43.869   4.745   3.849
71418ION    NA+36403  11.934  38.112  11.381
71419ION    NA+36404   7.403  37.446  11.272
71420ION    NA+36405  34.797  11.895  12.904
71421ION    NA+36406  12.979   9.164  11.946
71422ION    NA+36407  43.638  23.562   0.753
71423ION    NA+36408   1.716  42.269   4.075
71424ION    NA+36409  37.834  39.983   3.306
71425ION    NA+36410   8.972   5.196   1.570
71426ION    NA+36411  16.263  18.030  12.642
71427ION    NA+36412   7.655  22.381  14.867
71428ION    NA+36413  29.319   9.981   3.267
71429ION    NA+36414  23.497  35.355   1.273
71430ION    NA+36415  18.457  17.842   3.596
71431ION    NA+36416  17.058  24.371   9.410
71432ION    NA+36417  11.837  34.449   0.298
71433ION    NA+36418   0.412  37.638   0.464
71434ION    NA+36419   2.712  15.275   4.103
71435ION    NA+36420  39.631  12.994   3.463
71436ION    NA+36421   9.263  43.155  11.977
71437ION    NA+36422  33.229  33.017   1.009
71438ION    NA+36423  16.865  15.754   4.485
71439ION    NA+36424  26.928  12.670   3.179
71440ION    NA+36425   5.209  22.953  11.922
71441ION    NA+36426  10.839  25.583  13.060
71442ION    NA+36427  21.504  26.080  13.494
71443ION    NA+36428  41.498  38.191  10.926
71444ION    NA+36429  10.377  24.612  10.742
71445ION    NA+36430  42.496   4.461   0.266
71446ION    NA+36431   5.743   0.911   1.165
71447ION    NA+36432  25.186  31.136   0.311
71448ION    NA+36433  11.501  26.571   3.008
71449ION    NA+36434  35.959  43.770  11.382
71450ION    NA+36435  15.665  11.074   4.053
71451ION    NA+36436  31.488  22.732  11.221
71452ION    NA+36437  36.745  17.717  13.036
71453ION    NA+36438   6.524  34.938   1.939
71454ION    NA+36439  34.445  33.709  14.863
71455ION    NA+36440  28.933  17.593   2.576
71456ION    NA+36441  42.046  42.973   3.665
71457ION    NA+36442  44.753  29.823   2.919
71458ION    NA+36443  24.892   8.841   3.181
71459ION    NA+36444   1.789  20.465   2.135
71460ION    NA+36445   5.965   3.064  10.688
71461ION    NA+36446  25.587   1.041  13.271
71462ION    NA+36447   9.351  14.755   1.333
71463ION    NA+36448  21.112  38.055   3.714
71464ION    NA+36449  15.629  11.087   5.120
71465ION    NA+36450  15.325  25.087   0.482
71466ION    NA+36451  23.375  30.035  14.130
71467ION    NA+36452   8.087  31.037  14.371
71468ION    NA+36453  15.715  19.946   1.914
71469ION    NA+36454  21.180   7.301   0.196
71470ION    NA+36455  24.225  36.076  10.679
71471ION    NA+36456  21.539   7.825  12.254
71472ION    NA+36457  44.477  20.804   0.539
71473ION    NA+36458  10.859   1.260   1.371
71474ION    NA+36459  43.889  15.191  11.064
71475ION    NA+36460  12.838  38.855   2.223
71476ION    NA+36461  41.456  27.055   1.408
71477ION    NA+36462  34.592  24.957   1.209
71478ION    NA+36463  42.272   8.222  11.340
71479ION    NA+36464  19.690   6.275   4.770
71480ION    NA+36465  38.527  33.159  14.972
71481ION    NA+36466   9.158  27.365   0.682
71482ION    NA+36467  19.862  35.364   2.679
71483ION    NA+36468  31.336  44.176  11.160
71484ION    NA+36469  26.878  11.376   1.392
71485ION    NA+36470  41.476  17.854  13.076
71486ION    NA+36471   3.328  38.092  13.391
71487ION    NA+36472  19.382  25.035  12.470
71488ION    NA+36473  18.028   3.640   3.586
71489ION    NA+36474  13.416  36.374  13.182
71490ION    NA+36475   4.437  17.672   3.219
71491ION    NA+36476  42.136  39.240  11.499
71492ION    NA+36477  42.874  35.515   3.141
71493ION    NA+36478   2.642  37.905  11.773
71494ION    NA+36479   2.779   7.405   2.166
71495ION    NA+36480   2.052  18.309  10.730
71496ION    NA+36481  10.880  29.950   1.913
71497ION    NA+36482  41.602  11.334   2.584
71498ION    NA+36483  15.479  41.241   2.370
71499ION    NA+36484   2.930  43.028   3.543
71500ION    NA+36485  32.978   9.202   9.352
71501ION    NA+36486  31.890  14.946   2.200
71502ION    NA+36487  14.030  44.243   2.013
71503ION    NA+36488   4.714  39.678   4.240
71504ION    NA+36489  44.142  12.602  13.067
71505ION    NA+36490  37.809  35.397   5.277
71506ION    NA+36491  42.321  10.216   0.842
71507ION    NA+36492  11.424  21.999  14.564
71508ION    NA+36493   3.670  15.967   3.441
71509ION    NA+36494  10.380  18.635  13.054
71510ION    NA+36495  32.046  35.133   2.030
71511ION    NA+36496  16.097   3.131   0.565
71512ION    NA+36497  12.380  14.744   3.851
71513ION    NA+36498  38.855  16.749  13.911
71514ION    NA+36499   0.496  27.272  13.996
71515ION    NA+36500  33.721  31.643  10.989
71516ION    NA+36501  35.143  43.099   2.720
71517ION    NA+36502  12.792  27.044   1.617
71518ION    NA+36503  10.368  17.093   1.803
71519ION    NA+36504  18.606  25.967   1.305
71520ION    NA+36505  15.988  40.135  11.988
71521ION    NA+36506  17.918  31.537   1.472
71522ION    NA+36507  26.750  36.673   4.110
71523ION    NA+36508  28.428  41.277  13.550
71524ION    NA+36509  13.435  44.567  14.170
71525ION    NA+36510  39.397  10.238  14.760
71526ION    NA+36511  26.627  26.209   2.332
71527ION    NA+36512  32.879  14.610  12.462
71528ION    NA+36513  39.480  44.448   0.241
71529ION    NA+36514  22.980  25.161   0.605
71530ION    NA+36515  13.501   8.635  12.169
71531ION    NA+36516  39.921  32.480  14.089
71532ION    NA+36517   0.018   7.752   4.585
71533ION    NA+36518  17.415  10.128  13.679
71534ION    NA+36519  22.160   9.491   5.019
71535ION    NA+36520  44.418  42.812  11.937
71536ION    NA+36521  19.701   2.293  11.883
71537ION    NA+36522  26.411   5.353   2.371
71538ION    NA+36523  17.139   8.235   1.840
71539ION    NA+36524  32.496  40.608  14.343
71540ION    NA+36525  17.077  10.672  12.911
71541ION    NA+36526   5.637  13.908   3.479
71542ION    NA+36527  17.765  37.225   3.360
71543ION    NA+36528  22.640  13.080  11.998
71544ION    NA+36529   1.082  37.618  13.384
71545ION    NA+36530  33.151   2.012  11.087
71546ION    NA+36531  23.616  44.613   1.146
71547ION    NA+36532  28.940  29.215   2.589
71548ION    NA+36533   5.493  12.088  14.356
71549ION    NA+36534  17.306   2.286   4.599
71550ION    NA+36535  36.687  39.126  14.563
71551ION    NA+36536  13.192  32.054  10.662
71552ION    NA+36537  43.349  18.330   0.349
71553ION    NA+36538   9.199  40.023   2.157
71554ION    NA+36539   5.766  10.899   4.088
71555ION    NA+36540  17.101  12.467  11.119
71556ION    NA+36541  10.939  11.589  14.713
71557ION    NA+36542  43.875   9.129   2.488
71558ION    NA+36543   9.866  29.581   4.014
71559ION    NA+36544  41.313   1.744  13.628
71560ION    NA+36545  34.436  34.593   0.076
71561ION    NA+36546  10.689  40.220   2.091
71562ION    NA+36547  42.329  28.865  10.685
71563ION    NA+36548  39.830   6.113  12.962
71564ION    NA+36549  20.761  17.542  11.705
71565ION    NA+36550  42.355   6.627   4.776
71566ION    NA+36551  17.639  13.271  10.645
71567ION    NA+36552  13.120   7.115  14.908
71568ION    NA+36553   8.420  32.299  11.946
71569ION    NA+36554  10.455  44.835   3.548
71570ION    NA+36555  29.248  44.257   1.751
71571ION    NA+36556  32.744  14.034   3.241
71572ION    NA+36557   9.530  44.153   1.510
71573ION    NA+36558   0.813  20.824   3.854
71574ION    NA+36559   7.633   3.946   3.928
71575ION    NA+36560   8.310  41.937   1.937
71576ION    NA+36561   4.913   6.494  11.002
71577ION    NA+36562  37.459  38.277   1.904
71578ION    NA+36563  35.627  32.841   1.049
71579ION    NA+36564   8.922  38.530  14.304
71580ION    NA+36565  34.395  36.503  11.162
71581ION    NA+36566   6.042  28.908  10.874
71582ION    NA+36567  20.466  37.992   0.861
71583ION    NA+36568  28.937  13.582  13.043
71584ION    NA+36569  31.613  44.253  13.989
71585ION    NA+36570   4.042   3.730   0.486
71586ION    NA+36571   3.509  13.279   2.441
71587ION    NA+36572   9.045  23.750   2.651
71588ION    NA+36573  12.707  14.785   0.233
71589ION    NA+36574  18.552  34.603   0.405
71590ION    NA+36575   7.966  37.416  10.194
71591ION    NA+36576  19.478  13.825  12.570
71592ION    NA+36577  17.766   5.148  12.666
71593ION    NA+36578   7.680  29.884  12.568
71594ION    NA+36579   4.685  27.938  12.492
71595ION    NA+36580  36.851  27.985  10.713
71596ION    NA+36581  11.541  29.218  11.183
71597ION    NA+36582   3.236   4.447   3.195
71598ION    NA+36583  14.658   4.858   1.851
71599ION    NA+36584  15.751  20.644   3.738
71600ION    NA+36585  41.290  14.325   1.409
71601ION    NA+36586  17.606  44.662   2.446
71602ION    NA+36587   3.921  38.958   2.276
71603ION    NA+36588  24.080   9.850   3.820
71604ION    NA+36589  43.875  29.045  12.034
71605ION    NA+36590  31.529  24.789  10.937
71606ION    NA+36591  31.635   0.690   4.649
71607ION    NA+36592  22.138  34.577  11.563
71608ION    NA+36593  42.881   7.458   4.596
71609ION    NA+36594   0.089  36.911  13.416
71610ION    NA+36595  21.446  42.008   1.081
71611ION    NA+36596  15.150   5.433   0.426
71612ION    NA+36597   7.238   2.790  10.497
71613ION    NA+36598  18.547  18.700  13.089
71614ION    NA+36599  25.262  32.141   2.944
71615ION    NA+36600   7.945  40.324   3.299
71616ION    NA+36601  37.121  39.755   0.896
71617ION    NA+36602  39.483   9.871  11.265
71618ION    NA+36603   0.800  43.005   4.490
71619ION    NA+36604  11.591  11.673  11.398
71620ION    NA+36605  32.070  43.214  11.521
71621ION    NA+36606  42.133  42.009   4.232
71622ION    NA+36607  22.741  17.288   0.860
71623ION    NA+36608  32.410  28.739   1.710
71624ION    NA+36609  34.298   5.417  10.322
71625ION    NA+36610   1.211  41.464   1.779
71626ION    NA+36611   3.215  33.568   5.106
71627ION    NA+36612  25.982  27.699   3.754
71628ION    NA+36613  14.618  24.133   0.812
71629ION    NA+36614  15.064  25.686   3.650
71630ION    NA+36615  33.947   2.908  14.117
71631ION    NA+36616  14.114  29.126  13.101
71632ION    NA+36617  31.559  26.492   0.746
71633ION    NA+36618   9.371  11.214  12.751
71634ION    NA+36619  32.627   9.112   3.597
71635ION    NA+36620  39.768  39.462   3.227
71636ION    NA+36621  29.862  42.973   5.162
71637ION    NA+36622  44.470  19.295  11.208
71638ION    NA+36623  11.610  34.648   4.691
71639ION    NA+36624   2.380  36.757  13.393
71640ION    NA+36625  16.796  26.431   1.195
71641ION    NA+36626  37.312  28.153   5.437
71642ION    NA+36627   0.721   0.447  12.020
71643ION    NA+36628  15.806  31.310  12.530
71644ION    NA+36629  39.608  36.000   2.205
71645ION    NA+36630  26.668  14.200  11.646
71646ION    NA+36631  12.718  16.749   0.883
71647ION    NA+36632  38.594  30.253  13.598
71648ION    NA+36633  38.667  13.495   3.540
71649ION    NA+36634  42.361  23.636   2.600
71650ION    NA+36635  17.044  13.474  14.689
71651ION    NA+36636   1.496   0.854   1.279
71652ION    NA+36637  41.487  40.238  10.397
71653ION    NA+36638  19.961  35.674  12.146
71654ION    NA+36639  19.517   9.361   0.706
71655ION    NA+36640  29.590  34.382  13.349
71656ION    NA+36641  11.828  39.172  13.563
71657ION    NA+36642   8.335   1.022  13.808
71658ION    NA+36643  28.008  35.365   4.800
71659ION    NA+36644  13.267  31.808   1.658
71660ION    NA+36645  28.620  38.943   3.193
71661ION    NA+36646   5.720  39.348  10.900
71662ION    NA+36647  40.682  21.370  12.451
71663ION    NA+36648  20.359  25.472   0.072
71664ION    NA+36649  43.349   4.223  10.987
71665ION    NA+36650  17.163   8.007   4.571
71666ION    NA+36651  22.568   6.679   3.174
71667ION    NA+36652   7.131   9.191   0.717
71668ION    NA+36653   0.130  41.523   4.142
71669ION    NA+36654  23.524  34.842   2.294
71670ION    NA+36655   4.342  28.431   0.694
71671ION    NA+36656  22.970   8.768   2.737
71672ION    NA+36657  29.860  33.458  10.816
71673ION    NA+36658  37.082  27.921   0.955
71674ION    NA+36659  44.040  14.330  12.878
71675ION    NA+36660   9.362  42.243  12.297
71676ION    NA+36661  18.183  16.312   4.817
71677ION    NA+36662  26.919  33.921   3.518
71678ION    NA+36663  10.262  36.189   2.917
71679ION    NA+36664  25.735  24.271  12.831
71680ION    NA+36665   9.762  40.084  10.733
71681ION    NA+36666  41.688  44.565   0.410
71682ION    NA+36667  31.450  31.435   2.132
71683ION    NA+36668  10.645  10.688   2.651
71684ION    NA+36669  33.833  23.436  14.300
71685ION    NA+36670  28.857  31.213  10.556
71686ION    NA+36671  14.293   3.697  12.967
71687ION    NA+36672  20.648  29.605  13.028
71688ION    NA+36673  30.359  37.918  10.662
71689ION    NA+36674  32.373  23.099   2.728
71690ION    NA+36675  44.279   7.804   5.315
71691ION    NA+36676  27.560  35.704   3.127
71692ION    NA+36677   9.671  16.741  10.813
71693ION    NA+36678  43.887  11.136  10.682
71694ION    NA+36679  12.823  10.814  14.415
71695ION    NA+36680  31.891  13.278   0.915
71696ION    NA+36681  36.401  15.099  10.887
71697ION    NA+36682  41.856  23.076   3.345
71698ION    NA+36683  42.825  21.691  12.844
71699ION    NA+36684  31.042  13.845   0.942
71700ION    NA+36685  38.040  10.356  13.739
71701ION    NA+36686  33.049  35.737   4.642
71702ION    NA+36687  11.411  36.453   4.182
71703ION    NA+36688  36.959   9.960   2.666
71704ION    NA+36689  35.270  14.803  11.203
71705ION    NA+36690  32.844  14.659   2.283
71706ION    NA+36691  20.654  27.850   0.982
71707ION    NA+36692   1.547   0.084  14.224
71708ION    NA+36693   2.807   3.991  11.367
71709ION    NA+36694  13.796  30.647  12.148
71710ION    NA+36695  34.050  19.774  14.481
71711ION    NA+36696   9.353  14.737  13.354
71712ION    NA+36697   6.607  44.930   4.565
71713ION    NA+36698  39.829  37.464   3.633
71714ION    NA+36699  36.825  43.233   2.143
71715ION    NA+36700  41.649  22.157   1.212
71716ION    NA+36701  33.008   9.592  10.329
71717ION    NA+36702  34.521  33.675  11.044
71718ION    NA+36703  22.685  26.649   3.268
71719ION    NA+36704  12.938  20.318   4.183
71720ION    NA+36705  40.531   9.822   0.233
71721ION    NA+36706  14.117  44.913  11.231
71722ION    NA+36707  43.701  35.453  12.749
71723ION    NA+36708  19.685  29.718   0.405
71724ION    NA+36709  24.707   9.874  13.471
71725ION    NA+36710  36.445  12.566   3.198
71726ION    NA+36711  21.955   2.459  12.119
71727ION    NA+36712  39.883   4.205  14.044
71728ION    NA+36713   0.869   0.234  11.054
71729ION    NA+36714  25.456  26.436  13.404
71730ION    NA+36715  27.091  22.795  14.852
71731ION    NA+36716   2.190  43.468   4.053
71732ION    NA+36717  41.511  44.047  12.941
71733ION    NA+36718  34.505  17.664  12.760
71734ION    NA+36719  27.784   5.114   4.598
71735ION    NA+36720   7.799  27.385   3.568
71736ION    NA+36721  43.307  15.545   3.316
71737ION    NA+36722  20.553  29.444  14.990
71738ION    NA+36723  12.392  28.162   3.843
71739ION    NA+36724  39.030  13.545   2.287
71740ION    NA+36725  39.284  10.096  13.380
71741ION    NA+36726  15.110  15.255  14.236
71742ION    NA+36727  42.034  37.460   3.918
71743ION    NA+36728  20.044  24.749   0.898
71744ION    NA+36729  13.917  23.196  14.781
71745ION    NA+36730  20.063  44.362  13.086
71746ION    NA+36731   7.235  44.052  12.429
71747ION    NA+36732  29.520   5.958   2.603
71748ION    NA+36733  29.413  36.392   3.258
71749ION    NA+36734   1.591  44.803   2.723
71750ION    NA+36735  40.118  13.155   1.718
71751ION    NA+36736   9.398   8.420  11.448
71752ION    NA+36737  29.779   4.182  13.132
71753ION    NA+36738  38.290  22.046  14.341
71754ION    NA+36739   7.532  10.731   2.965
71755ION    NA+36740  32.765  39.326  13.531
71756ION    NA+36741  43.670  29.476  12.928
71757ION    NA+36742  21.069  41.433   1.663
71758ION    NA+36743  37.130  21.880  13.236
71759ION    NA+36744  21.150   0.015  14.966
71760ION    NA+36745  18.891  40.235  13.640
71761ION    NA+36746  29.675   3.334  11.376
71762ION    NA+36747  29.753   7.747  11.025
71763ION    NA+36748   1.844   6.545  12.430
71764ION    NA+36749  16.014   4.262   3.816
71765ION    NA+36750  38.915  20.704  14.709
71766ION    NA+36751  44.983   8.649  11.614
71767ION    NA+36752  13.625   3.071  14.572
71768ION    NA+36753  11.726   5.469   2.458
71769ION    NA+36754  24.989  24.881  11.817
71770ION    NA+36755  30.399  10.140   1.750
71771ION    NA+36756  31.225  25.966  14.890
71772ION    NA+36757  11.919  25.930   0.192
71773ION    NA+36758  44.166  41.325   4.318
71774ION    NA+36759  26.232  38.054  14.992
71775ION    NA+36760  21.776  28.950  11.260
71776ION    NA+36761  38.342   2.787   4.760
71777ION    NA+36762  41.615  39.464   1.753
71778ION    NA+36763   9.223  38.847   0.913
71779ION    NA+36764  21.970  29.196   3.529
71780ION    NA+36765   6.827  16.447   0.206
71781ION    NA+36766  38.942   3.711  10.878
71782ION    NA+36767  18.303   0.906  13.946
71783ION    NA+36768  15.570  36.385  13.802
71784ION    NA+36769  26.429  14.168   2.487
71785ION    NA+36770   8.358  10.964   4.156
71786ION    NA+36771  11.623  17.546   4.138
71787ION    NA+36772  34.979  24.571   3.463
71788ION    NA+36773   3.322  42.479  11.118
71789ION    NA+36774   6.755  29.586  12.330
71790ION    NA+36775  41.018  10.161   1.825
71791ION    NA+36776   9.758  25.401   4.624
71792ION    NA+36777  39.968  26.596   2.265
71793ION    NA+36778  29.278  36.849  12.282
71794ION    NA+36779  21.479  39.052   4.457
71795ION    NA+36780  38.561   2.034   4.447
71796ION    NA+36781   3.102  17.804  13.166
71797ION    NA+36782  27.463  41.212   1.132
71798ION    NA+36783  22.915  24.190   3.310
71799ION    NA+36784  38.419  13.163   1.594
71800ION    NA+36785  21.434  39.449  14.616
71801ION    NA+36786  42.806   0.672  13.001
71802ION    NA+36787  41.889   5.969  11.117
71803ION    NA+36788  30.050  14.092  14.948
71804ION    NA+36789  21.320  28.385  11.807
71805ION    NA+36790  30.657   5.141   2.185
71806ION    NA+36791  37.120   1.449   1.321
71807ION    NA+36792   9.503  23.915   9.769
71808ION    NA+36793  43.609  22.095  10.598
71809ION    NA+36794  29.385   8.745   4.065
71810ION    NA+36795  32.175   7.798   1.910
71811ION    NA+36796  44.230  38.132   2.866
71812ION    NA+36797  41.076   7.574   3.249
71813ION    NA+36798  15.089  41.856  10.975
71814ION    NA+36799  18.049  40.656  12.679
71815ION    NA+36800  30.483  37.477  13.578
71816ION    NA+36801  10.986  39.517  13.586
71817ION    NA+36802  21.645  17.309  11.121
71818ION    NA+36803  12.232  21.999  12.921
71819ION    NA+36804   2.336   4.676  12.976
71820ION    NA+36805  33.399  26.590  12.436
71821ION    NA+36806  15.687  29.637   4.517
71822ION    NA+36807  41.379   5.748  11.723
71823ION    NA+36808  15.314   3.265  12.609
71824ION    NA+36809  43.009  36.190   4.601
71825ION    NA+36810  35.720  26.723  10.853
71826ION    NA+36811  31.386   8.037  14.434
71827ION    NA+36812  16.073  10.127   4.148
71828ION    NA+36813  22.125  38.125  11.992
71829ION    NA+36814  16.380  23.965  12.768
71830ION    NA+36815  23.495  18.090  10.489
71831ION    NA+36816   7.671  42.656  14.542
71832ION    NA+36817  10.173  22.726   0.378
71833ION    NA+36818  33.641  29.997   1.818
71834ION    NA+36819  27.621   7.846  13.497
71835ION    NA+36820  24.249  41.968  13.820
71836ION    NA+36821  10.534  34.092  11.868
71837ION    NA+36822   7.943   6.318  11.686
71838ION    NA+36823  39.545  43.559  13.427
71839ION    NA+36824  18.773  32.692  10.734
71840ION    NA+36825  20.817  39.597   1.340
71841ION    NA+36826  12.783  32.856   3.904
71842ION    NA+36827  28.691   2.618   9.934
71843ION    NA+36828  12.509  29.072   3.337
71844ION    NA+36829  10.898   6.219  14.380
71845ION    NA+36830  16.211  14.364  13.716
71846ION    NA+36831  22.564  14.667   4.209
71847ION    NA+36832  19.464   7.172  11.896
71848ION    NA+36833   5.190  18.846  14.492
71849ION    NA+36834  27.012   6.407   2.993
71850ION    NA+36835   9.438  23.997   0.384
71851ION    NA+36836  16.101  13.056  12.705
71852ION    NA+36837   7.460  23.270  14.801
71853ION    NA+36838   2.906   8.367   1.786
71854ION    NA+36839  44.102  23.024   4.233
71855ION    NA+36840  37.951  24.579   2.402
71856ION    NA+36841  43.738  35.040  13.557
71857ION    NA+36842  39.869   8.177   3.507
71858ION    NA+36843  41.876  20.781  12.086
71859ION    NA+36844   9.173  32.082  14.201
71860ION    NA+36845   4.335  40.724   2.534
71861ION    NA+36846  29.499  29.313  11.246
71862ION    NA+36847   0.202  17.597   2.333
71863ION    NA+36848  30.803   6.165   2.315
71864ION    NA+36849  34.808   3.972  10.718
71865ION    NA+36850  10.773  39.999   3.097
71866ION    NA+36851  23.538   2.189  13.810
71867ION    NA+36852   3.781   1.051   4.483
71868ION    NA+36853  30.475  14.991  14.381
71869ION    NA+36854   1.033  17.181   1.914
71870ION    NA+36855  36.334  36.911  10.586
71871ION    NA+36856   2.655   2.896  13.853
71872ION    NA+36857  35.035  39.045  13.906
71873ION    NA+36858   9.782  14.048   2.186
71874ION    NA+36859   5.692  31.309  14.845
71875ION    NA+36860  12.686  43.285  14.709
71876ION    NA+36861  44.296  27.258   4.509
71877ION    NA+36862   4.071  11.645  13.055
71878ION    NA+36863  24.814  15.292   2.292
71879ION    NA+36864  10.980   9.802   1.453
71880ION    NA+36865  25.257  37.816   0.087
71881ION    NA+36866  42.001   1.363  14.076
71882ION    NA+36867  12.523  27.039   4.558
71883ION    NA+36868  38.371  37.838   0.920
71884ION    NA+36869   0.163   8.527  14.131
71885ION    NA+36870   6.491   4.257  10.382
71886ION    NA+36871  12.847  18.378   4.222
71887ION    NA+36872  27.087  21.560  11.612
71888ION    NA+36873  15.928  26.461  11.605
71889ION    NA+36874   4.262  10.623  11.496
71890ION    NA+36875  29.997  41.286   4.015
71891ION    NA+36876  29.987  27.903   3.667
71892ION    NA+36877  32.084  33.673   4.089
71893ION    NA+36878  25.468  35.444  11.479
71894ION    NA+36879  41.385   7.753  11.168
71895ION    NA+36880  43.770  35.475  14.983
71896ION    NA+36881  21.327  39.998  12.870
71897ION    NA+36882  35.313  36.464  10.683
71898ION    NA+36883  40.240  30.583   1.867
71899ION    NA+36884   3.175  44.248   4.140
71900ION    NA+36885  30.031   6.259  12.441
71901ION    NA+36886  37.363  35.149  14.457
71902ION    NA+36887  30.318  17.409  11.614
71903ION    NA+36888  13.419  41.157   0.625
71904ION    NA+36889  43.477   2.705   1.872
71905ION    NA+36890  34.926   6.429  10.279
71906ION    NA+36891  26.535   9.549  12.721
71907ION    NA+36892  29.552  24.711   0.892
71908ION    NA+36893  19.033   4.256   2.586
71909ION    NA+36894  22.453  43.810  12.510
71910ION    NA+36895  26.661   0.660  10.226
71911ION    NA+36896  41.433  34.633   0.271
71912ION    NA+36897  37.269  33.936   1.693
71913ION    NA+36898  23.752   6.088  13.287
71914ION    NA+36899  17.305  16.546   1.244
71915ION    NA+36900  31.904  34.598   2.870
71916ION    NA+36901  19.461  23.553   2.284
71917ION    NA+36902  38.896  41.546   2.169
71918ION    NA+36903  17.801  26.095  11.419
71919ION    NA+36904  26.878  30.920   0.909
71920ION    NA+36905   7.730  35.158  13.828
71921ION    NA+36906   3.118  40.353  14.320
71922ION    NA+36907  35.622  10.236  12.964
71923ION    NA+36908  43.771  28.195  12.550
71924ION    NA+36909   5.362  37.610   3.302
71925ION    NA+36910  13.350  24.447   1.748
71926ION    NA+36911   1.759  41.844   0.320
71927ION    NA+36912  12.507   0.901   4.452
71928ION    NA+36913  37.326  31.561  12.881
71929ION    NA+36914  13.845   8.940   0.935
71930ION    NA+36915  14.425  13.219   2.148
71931ION    NA+36916  23.771  29.228   4.637
71932ION    NA+36917  34.207  41.128  10.803
71933ION    NA+36918  22.040  31.092   4.306
71934ION    NA+36919  21.212  37.340  10.028
71935ION    NA+36920  38.889   8.709  13.145
71936ION    NA+36921  41.483   9.882   2.545
71937ION    NA+36922  25.993  16.817  12.961
71938ION    NA+36923  28.722   8.469   1.969
71939ION    NA+36924  21.744  40.281   1.833
71940ION    NA+36925  33.316   1.626  14.577
71941ION    NA+36926  11.347   4.461   2.239
71942ION    NA+36927  29.101  34.857   2.199
71943ION    NA+36928  21.165  24.781   1.664
71944ION    NA+36929  32.652   3.877  12.065
71945ION    NA+36930  43.594  27.943  11.525
71946ION    NA+36931  13.950  22.472  12.619
71947ION    NA+36932   3.249   2.939   3.412
71948ION    NA+36933   7.230  19.278   1.434
71949ION    NA+36934  19.227  16.449  12.764
71950ION    NA+36935   7.319   3.489   4.567
71951ION    NA+36936  19.629  19.242  13.123
71952ION    NA+36937  19.291  28.466   4.089
71953ION    NA+36938  32.862  26.590   2.316
71954ION    NA+36939   9.098  25.462  11.559
71955ION    NA+36940  24.948   9.590  11.126
71956ION    NA+36941  13.129  29.665  11.663
71957ION    NA+36942   4.548  21.285   1.660
71958ION    NA+36943   7.955  12.725   2.146
71959ION    NA+36944  14.826  19.974   4.623
71960ION    NA+36945   2.493  25.213  14.697
71961ION    NA+36946  38.204  22.585  10.251
71962ION    NA+36947  30.068  12.755   2.869
71963ION    NA+36948  31.105  32.822   1.735
71964ION    NA+36949  23.788   3.824  11.527
71965ION    NA+36950  16.644  10.232  10.938
71966ION    NA+36951  23.859  18.640   3.058
71967ION    NA+36952   4.151  20.008  14.891
71968ION    NA+36953   7.556   4.603  12.309
71969ION    NA+36954   8.854  21.762  12.828
71970ION    NA+36955  15.850   3.836   4.706
71971ION    NA+36956  33.981  13.748   1.471
71972ION    NA+36957  13.370  35.836   1.878
71973ION    NA+36958   7.682  25.702  14.017
71974ION    NA+36959  36.659  22.716   1.417
71975ION    NA+36960   5.345  32.379  13.612
71976ION    NA+36961  31.546  29.215   0.875
71977ION    NA+36962  26.323  33.872   0.226
71978ION    NA+36963  15.002  18.334  12.101
71979ION    NA+36964  21.618  23.247  14.801
71980ION    NA+36965  41.754  36.020  10.953
71981ION    NA+36966  34.993  35.105   1.669
71982ION    NA+36967   0.243  20.257   1.658
71983ION    NA+36968   5.349  35.812  13.444
71984ION    NA+36969  28.742  20.567  14.110
71985ION    NA+36970  24.508   0.972  12.901
71986ION    NA+36971  18.950  42.556  11.480
71987ION    NA+36972  26.681  33.319   2.211
71988ION    NA+36973  27.880  26.529  13.398
71989ION    NA+36974  25.456  41.208  10.517
71990ION    NA+36975  23.974  11.991   1.801
71991ION    NA+36976  40.752  38.322  12.793
71992ION    NA+36977  33.065  33.187  13.506
71993ION    NA+36978  14.466  35.071  12.937
71994ION    NA+36979  11.012   0.833  12.635
71995ION    NA+36980  27.257  40.329  14.983
71996ION    NA+36981  27.706  18.643   0.409
71997ION    NA+36982  41.225  26.071  12.559
71998ION    NA+36983   6.553  35.468   1.187
71999ION    NA+36984  33.957  14.513   4.045
72000ION    NA+36985  16.754   3.835  14.032
72001ION    NA+36986  35.265  11.122   2.795
72002ION    NA+36987  37.014  13.839  13.010
72003ION    NA+36988  34.820  14.681   3.569
72004ION    NA+36989  19.994  40.157   4.546
72005ION    NA+36990  11.387  15.081   2.659
72006ION    NA+36991  21.972  12.616   1.406
72007ION    NA+36992  44.296   8.901   3.239
72008ION    NA+36993  40.109  19.275  12.914
72009ION    NA+36994  31.038  18.026   3.006
72010ION    NA+36995  44.848  10.736  10.802
72011ION    NA+36996  15.289  43.433   0.878
72012ION    NA+36997  16.407  26.820   1.894
72013ION    NA+36998   1.640  43.948   2.407
72014ION    NA+36999  23.723  44.049   3.451
72015ION    NA+37000  21.151  17.319   3.304
72016ION    NA+37001  35.175  32.455   0.401
72017ION    NA+37002  38.167   8.798  10.423
72018ION    NA+37003  34.533  41.769  14.599
72019ION    NA+37004  42.758  28.143  11.327
72020ION    NA+37005   1.647  30.286  14.111
72021ION    NA+37006  44.715  29.693  11.056
72022ION    NA+37007  14.841  43.878  12.227
72023ION    NA+37008  31.158  11.580   0.233
72024ION    NA+37009  26.944  34.622  14.903
72025ION    NA+37010  37.877  37.348  13.426
72026ION    NA+37011   8.700  21.724  13.721
72027ION    NA+37012  38.515   7.754  14.461
72028ION    NA+37013  14.621  38.924  10.690
72029ION    NA+37014   7.909   4.204  10.396
72030ION    NA+37015   2.743  27.955   1.526
72031ION    NA+37016  20.361  13.342  13.171
72032ION    NA+37017   0.471   9.881   1.877
72033ION    NA+37018   2.711   0.813  13.023
72034ION    NA+37019  30.037  31.228   5.042
72035ION    NA+37020  16.029   3.823   2.157
72036ION    NA+37021   4.191   3.484   2.644
72037ION    NA+37022  36.408  36.928  13.062
72038ION    NA+37023   4.443  16.186  12.534
72039ION    NA+37024  25.085  27.183  11.570
72040ION    NA+37025  24.091   0.525   3.221
72041ION    NA+37026  20.705  21.193   0.033
72042ION    NA+37027  40.401   8.529   1.304
72043ION    NA+37028   3.255  35.298   1.352
72044ION    NA+37029   6.462  40.999   1.252
72045ION    NA+37030  34.071  37.343  14.997
72046ION    NA+37031  25.282  14.624  13.640
72047ION    NA+37032  35.504  25.776  14.974
72048ION    NA+37033  43.949  27.044  14.236
72049ION    NA+37034  20.472  33.078  13.035
72050ION    NA+37035  31.150   8.304  10.759
72051ION    NA+37036  43.716  33.301   0.506
72052ION    NA+37037   2.872  36.850  12.455
72053ION    NA+37038  26.859  23.100   0.846
72054ION    NA+37039  12.952   3.943   0.853
72055ION    NA+37040  43.480   3.376   5.076
72056ION    NA+37041  44.603  30.816   0.205
72057ION    NA+37042  37.828  12.694   3.564
72058ION    NA+37043   8.344  17.080  13.479
72059ION    NA+37044  19.569  35.974   1.943
72060ION    NA+37045  34.714  17.033   2.128
72061ION    NA+37046  35.287  18.280   4.220
72062ION    NA+37047   5.840   8.801   4.246
72063ION    NA+37048   3.312  12.370   3.320
72064ION    NA+37049   4.142   1.269   0.950
72065ION    NA+37050  42.773  10.869   4.101
72066ION    NA+37051   9.581  23.320   4.410
72067ION    NA+37052   3.948  27.969   2.744
72068ION    NA+37053  10.528   0.834  13.410
72069ION    NA+37054   7.102  23.839  10.993
72070ION    NA+37055   0.016  26.980   0.022
72071ION    NA+37056   6.401  13.193  14.813
72072ION    NA+37057  33.430  15.567  14.933
72073ION    NA+37058   5.646   1.567  13.848
72074ION    NA+37059  39.559  18.103   0.994
72075ION    NA+37060  16.616  23.787  13.625
72076ION    NA+37061  34.856  27.440  12.905
72077ION    NA+37062  19.709  37.037  11.528
72078ION    NA+37063  20.512   8.731   2.816
72079ION    NA+37064   4.562   9.740   3.068
72080ION    NA+37065  13.694  23.069   1.447
72081ION    NA+37066  18.810   7.644  12.311
72082ION    NA+37067  13.869  29.357  11.064
72083ION    NA+37068  25.995  27.135   1.724
72084ION    NA+37069  44.566  43.051   0.648
72085ION    NA+37070  29.968  30.338  14.984
72086ION    NA+37071  14.559  34.594  13.873
72087ION    NA+37072  33.330  24.985   4.723
72088ION    NA+37073  19.844  23.067   0.481
72089ION    NA+37074  12.621   3.245   0.218
72090ION    NA+37075  44.528  26.709  10.667
72091ION    NA+37076  43.301  37.243   2.837
72092ION    NA+37077  24.594   7.962   2.808
72093ION    NA+37078   3.389   8.171   5.400
72094ION    NA+37079  21.737  44.795   2.032
72095ION    NA+37080  16.903  29.047   1.995
72096ION    NA+37081  35.569  36.933   4.609
72097ION    NA+37082  21.970  38.429   2.406
72098ION    NA+37083  23.193  40.611  11.832
72099ION    NA+37084  30.714  18.029   2.202
72100ION    NA+37085  36.727  15.339  11.601
72101ION    NA+37086   1.164  29.107  14.009
72102ION    NA+37087  36.943  16.893   1.807
72103ION    NA+37088  31.108  18.916  12.653
72104ION    NA+37089  24.534  32.354  13.463
72105ION    NA+37090   1.571  41.752  11.140
72106ION    NA+37091  10.635  37.908   4.163
72107ION    NA+37092  11.928  38.899  14.520
72108ION    NA+37093   4.531  23.567   3.420
72109ION    NA+37094   9.508   4.518   1.268
72110ION    NA+37095  21.092  14.862   2.206
72111ION    NA+37096   4.990  26.988  12.038
72112ION    NA+37097  44.207  11.844  11.126
72113ION    NA+37098  26.446  22.363  10.817
72114ION    NA+37099  38.435   3.093   2.922
72115ION    NA+37100  37.994   5.501   4.054
72116ION    NA+37101  37.592   3.407   1.388
72117ION    NA+37102   3.037  18.058   2.703
72118ION    NA+37103  12.759   1.278  10.765
72119ION    NA+37104  37.996  27.559  12.951
72120ION    NA+37105  27.979  14.140   0.348
72121ION    NA+37106  41.755   2.950  12.473
72122ION    NA+37107   5.209   5.127   5.232
72123ION    NA+37108  19.817  23.142   3.592
72124ION    NA+37109  37.607  23.274  12.106
72125ION    NA+37110  37.083  23.150   3.091
72126ION    NA+37111  13.398  35.190  12.415
72127ION    NA+37112  12.507   4.798   0.588
72128ION    NA+37113  43.260   7.711   0.292
72129ION    NA+37114  13.723   5.655   4.285
72130ION    NA+37115  20.383  24.583   4.638
72131ION    NA+37116  39.515  20.147   2.543
72132ION    NA+37117  42.584   5.783   1.206
72133ION    NA+37118  34.231  28.258  10.066
72134ION    NA+37119  38.522  14.375   3.344
72135ION    NA+37120  15.184   6.692  10.530
72136ION    NA+37121  25.241  36.328   4.883
72137ION    NA+37122  39.934  20.470  11.279
72138ION    NA+37123  40.710  29.501   0.253
72139ION    NA+37124  31.139   8.597   3.629
72140ION    NA+37125  35.489  38.613  10.675
72141ION    NA+37126   6.851   8.851  14.523
72142ION    NA+37127  17.630  12.474   2.690
72143ION    NA+37128  25.686  15.112  10.857
72144ION    NA+37129  29.179   2.879   0.912
72145ION    NA+37130  43.344  13.768   1.772
72146ION    NA+37131  38.034  36.821   1.315
72147ION    NA+37132   2.357   1.986   0.254
72148ION    NA+37133   6.411  40.553   2.172
72149ION    NA+37134  33.226  13.753   4.285
72150ION    NA+37135  34.663  22.049  12.816
72151ION    NA+37136  43.282  43.564   4.061
72152ION    NA+37137  30.461  35.489  14.786
72153ION    NA+37138  26.572  36.358  14.118
72154ION    NA+37139  44.674  35.437   0.067
72155ION    NA+37140  16.823  32.296   2.413
72156ION    NA+37141  11.277  37.513  12.658
72157ION    NA+37142   3.683  10.998  14.979
72158ION    NA+37143  19.429  34.528   4.040
72159ION    NA+37144  23.308  37.162   0.238
72160ION    NA+37145  40.580  27.275   3.959
72161ION    NA+37146   2.019  22.499   2.420
72162ION    NA+37147  22.093  25.960  10.651
72163ION    NA+37148   9.280  43.047   0.086
72164ION    NA+37149  31.582  27.680  11.669
72165ION    NA+37150  14.999  33.799  12.816
72166ION    NA+37151   9.994  11.198   4.075
72167ION    NA+37152  27.961  35.126  10.656
72168ION    NA+37153  27.202  17.343   1.620
72169ION    NA+37154   7.033  17.457  12.155
72170ION    NA+37155  10.900  41.139   4.384
72171ION    NA+37156  25.230  19.137   2.547
72172ION    NA+37157  43.515  24.085  10.597
72173ION    NA+37158  12.866  31.150  13.394
72174ION    NA+37159  43.030  43.895   2.392
72175ION    NA+37160  29.442  35.753   3.821
72176ION    NA+37161  34.410  13.640   2.646
72177ION    NA+37162  29.550  24.690   4.280
72178ION    NA+37163   5.451  12.902  10.925
72179ION    NA+37164  38.489  26.231   9.819
72180ION    NA+37165  30.012   6.377   1.134
72181ION    NA+37166  22.275  25.587  13.985
72182ION    NA+37167  40.565  42.194   3.808
72183ION    NA+37168  42.097  19.306   3.710
72184ION    NA+37169   8.390  22.989  14.566
72185ION    NA+37170  31.520  43.129   1.787
72186ION    NA+37171  29.759  38.169   2.933
72187ION    NA+37172   6.605   1.751   1.807
72188ION    NA+37173   0.582  32.212   1.031
72189ION    NA+37174  25.188  38.101   4.110
72190ION    NA+37175  32.779  18.461  13.495
72191ION    NA+37176  36.389  30.118   5.026
72192ION    NA+37177   2.876   6.671   2.932
72193ION    NA+37178   2.484   1.632  14.328
72194ION    NA+37179  15.687  44.186  13.308
72195ION    NA+37180  12.992  37.186  10.874
72196ION    NA+37181   5.890  22.256   1.662
72197ION    NA+37182  27.790  41.734  14.176
72198ION    NA+37183  40.792  14.235   5.523
72199ION    NA+37184  28.545  29.696   4.289
72200ION    NA+37185  30.294  23.541  12.997
72201ION    NA+37186  43.392  18.804   4.517
72202ION    NA+37187  28.196  25.904  14.897
72203ION    NA+37188   0.845  30.168  12.180
72204ION    NA+37189  28.920   7.786  12.963
72205ION    NA+37190  11.810  18.715   1.405
72206ION    NA+37191  43.932  25.689   1.516
72207ION    NA+37192  20.485  40.852   2.068
72208ION    NA+37193   3.742  22.420   3.186
72209ION    NA+37194  18.258  14.054  10.578
72210ION    NA+37195  30.958  12.945  14.017
72211ION    NA+37196  27.334  20.641   1.990
72212ION    NA+37197  24.237  19.735   5.198
72213ION    NA+37198  40.215   7.727   0.398
72214ION    NA+37199  34.137  18.546   0.905
72215ION    NA+37200  15.192  44.830  10.854
72216ION    NA+37201  44.711  37.367  14.802
72217ION    NA+37202  38.111   0.429   0.842
72218ION    NA+37203  18.382  14.842  11.182
72219ION    NA+37204  15.319  37.466   9.788
72220ION    NA+37205  34.277  20.665   0.795
72221ION    NA+37206  37.109  23.038  10.758
72222ION    NA+37207   2.447  23.552  14.013
72223ION    NA+37208  13.865  33.028   2.630
72224ION    NA+37209  40.257  43.780  13.612
72225ION    NA+37210   0.794  28.881   3.277
72226ION    NA+37211  13.311  18.633   3.483
72227ION    NA+37212  12.721  34.696  12.058
72228ION    NA+37213  32.666   3.272  10.750
72229ION    NA+37214   1.341  31.092   3.328
72230ION    NA+37215  14.336  43.768  13.509
72231ION    NA+37216  19.545  42.939   2.616
72232ION    NA+37217  40.522  13.929   0.419
72233ION    NA+37218  16.360  29.751  11.216
72234ION    NA+37219  13.383   0.558   2.702
72235ION    NA+37220  23.280  14.171   3.190
72236ION    NA+37221  12.314  22.177   2.321
72237ION    NA+37222  14.874  15.228   3.143
72238ION    NA+37223  40.463   0.523  11.657
72239ION    NA+37224   0.340  21.892  13.548
72240ION    NA+37225  19.233  20.288   2.826
72241ION    NA+37226  44.182  26.934   1.119
72242ION    NA+37227   7.895  39.905   1.960
72243ION    NA+37228  36.800   9.355  11.131
72244ION    NA+37229  10.631  34.520  10.715
72245ION    NA+37230  32.059   5.514  10.078
72246ION    NA+37231   4.579   0.418  14.041
72247ION    NA+37232  14.562  43.770   4.012
72248ION    NA+37233  12.180  31.577  10.688
72249ION    NA+37234  42.717  27.042  12.940
72250ION    NA+37235  14.046  30.821   1.425
72251ION    NA+37236  12.334   2.559   1.794
72252ION    NA+37237   0.965  39.572   0.416
72253ION    NA+37238  44.945  22.009   2.831
72254ION    NA+37239  22.631  37.458   4.572
72255ION    NA+37240   9.132  29.571   0.713
72256ION    NA+37241  42.303   5.505   4.436
72257ION    NA+37242   0.657   1.457  14.557
72258ION    NA+37243  37.895  26.498  12.014
72259ION    NA+37244  16.916  34.159   3.344
72260ION    NA+37245  19.484  25.205   0.167
72261ION    NA+37246  16.152   2.535  11.295
72262ION    NA+37247  40.574   9.714   2.602
72263ION    NA+37248   5.970  40.146  11.478
72264ION    NA+37249  39.186   7.257  11.184
72265ION    NA+37250  17.080  15.440   9.854
72266ION    NA+37251  33.491  37.938   2.942
72267ION    NA+37252  23.558  31.676  13.716
72268ION    NA+37253  40.485  16.993  13.041
72269ION    NA+37254  35.531  39.401   3.315
72270ION    NA+37255  36.523  12.222   1.257
72271ION    NA+37256   1.188   5.037   0.592
72272ION    NA+37257  19.287  13.769   4.081
72273ION    NA+37258  32.288  20.816   4.033
72274ION    NA+37259  43.911  37.872   0.695
72275ION    NA+37260   1.396  34.008   3.357
72276ION    NA+37261  15.745  38.387   3.162
72277ION    CL-37262  30.941  37.622   1.730
72278ION    CL-37263  29.405  27.930   4.932
72279ION    CL-37264  36.010  28.442   1.237
72280ION    CL-37265  40.537  18.710   1.767
72281ION    CL-37266  24.189  18.176  13.689
72282ION    CL-37267  26.033  30.965   1.779
72283ION    CL-37268  23.046  25.069  12.124
72284ION    CL-37269  39.520  29.848  10.980
72285ION    CL-37270  32.729  25.780  14.947
72286ION    CL-37271  11.017   6.163   4.276
72287ION    CL-37272  29.833  11.629  12.537
72288ION    CL-37273  15.227  43.758  12.420
72289ION    CL-37274  12.612  22.633   4.315
72290ION    CL-37275  21.507  20.099  13.343
72291ION    CL-37276  16.781  38.549   0.235
72292ION    CL-37277  13.016  40.258   2.819
72293ION    CL-37278  27.914  36.310  12.494
72294ION    CL-37279  25.096  30.714  12.812
72295ION    CL-37280  10.361   1.203  13.617
72296ION    CL-37281  16.153  27.695  13.112
72297ION    CL-37282  35.067  39.721  10.837
72298ION    CL-37283  32.096  34.899  11.095
72299ION    CL-37284  20.335  30.403  12.080
72300ION    CL-37285  44.203  22.653  13.582
72301ION    CL-37286  22.390  38.565   2.309
72302ION    CL-37287  19.165   9.717  11.662
72303ION    CL-37288   9.343  19.028   4.079
72304ION    CL-37289   4.229   0.579  11.561
72305ION    CL-37290  39.013   8.135   2.379
72306ION    CL-37291  37.758  36.417  12.617
72307ION    CL-37292   6.764  24.483   0.056
72308ION    CL-37293   4.213  11.661  12.622
72309ION    CL-37294   1.480  15.099  12.538
72310ION    CL-37295  12.693  19.001   0.451
72311ION    CL-37296  27.082  30.930   1.578
72312ION    CL-37297  10.814  31.554  10.384
72313ION    CL-37298  23.061  40.175  11.826
72314ION    CL-37299   1.256  17.525   1.739
72315ION    CL-37300   4.455  44.223   1.358
72316ION    CL-37301  33.906  26.599   3.147
72317ION    CL-37302   6.585  17.496  12.093
72318ION    CL-37303  29.159  32.884  13.863
72319ION    CL-37304  40.184  24.571  13.703
72320ION    CL-37305   9.612  35.822   1.559
72321ION    CL-37306  24.227  34.718  12.161
72322ION    CL-37307  44.616  28.751   5.153
72323ION    CL-37308  33.493  35.881  14.867
72324ION    CL-37309  12.648  39.031   3.555
72325ION    CL-37310  34.609  36.700  13.511
72326ION    CL-37311  39.919   3.826  14.294
72327ION    CL-37312   7.650  34.808   0.210
72328ION    CL-37313  21.631  19.318  12.215
72329ION    CL-37314  19.169  19.762  14.949
72330ION    CL-37315  26.993   0.942  11.130
72331ION    CL-37316  43.111  35.990  13.932
72332ION    CL-37317  22.067   0.068   3.685
72333ION    CL-37318   5.151  33.319  10.944
72334ION    CL-37319  28.348  15.887   4.625
72335ION    CL-37320  27.653  17.432   1.631
72336ION    CL-37321  39.773  39.557  13.917
72337ION    CL-37322  25.868  41.331  10.632
72338ION    CL-37323  13.982  44.192   1.571
72339ION    CL-37324  41.452   5.989  10.960
72340ION    CL-37325  44.100  15.777   4.468
72341ION    CL-37326   1.884  10.261  11.683
72342ION    CL-37327  27.732  15.790   2.441
72343ION    CL-37328   0.479  16.498  13.871
72344ION    CL-37329  27.645  37.126   4.101
72345ION    CL-37330  37.654  20.195   5.072
72346ION    CL-37331   4.866  15.237   9.826
72347ION    CL-37332  44.755  32.603  12.899
72348ION    CL-37333  15.802  27.813   0.483
72349ION    CL-37334  38.722   4.057  10.679
72350ION    CL-37335  39.107   8.687   4.075
72351ION    CL-37336  10.289  20.087   4.896
72352ION    CL-37337  24.783  20.425   1.638
72353ION    CL-37338   3.593  30.368   2.400
72354ION    CL-37339  22.388  28.163  13.530
72355ION    CL-37340  23.924  36.485  11.999
72356ION    CL-37341  33.443  24.592   4.529
72357ION    CL-37342  24.494  36.530  14.159
72358ION    CL-37343  33.688  26.959  11.264
72359ION    CL-37344  29.662   6.170  10.737
72360ION    CL-37345  25.513  10.095   1.240
72361ION    CL-37346  17.062  22.566   0.499
72362ION    CL-37347  41.189   2.304   4.890
72363ION    CL-37348  24.712  11.309   4.872
72364ION    CL-37349  19.943  40.497   5.015
72365ION    CL-37350   0.356  10.174   2.194
72366ION    CL-37351  31.853   9.399  12.633
72367ION    CL-37352   8.124  20.828   3.084
72368ION    CL-37353  40.828  16.674   1.447
72369ION    CL-37354   5.492   3.197  12.471
72370ION    CL-37355  31.464   7.592  14.496
72371ION    CL-37356  33.638  37.371   0.130
72372ION    CL-37357  18.430  25.140   3.672
72373ION    CL-37358  37.934  20.733  10.768
72374ION    CL-37359  22.716   7.504  14.540
72375ION    CL-37360  21.442  41.396   5.010
72376ION    CL-37361   5.611  21.273  11.034
72377ION    CL-37362  18.798  36.511  14.428
72378ION    CL-37363  11.762   1.491  14.398
72379ION    CL-37364  23.846   3.425  12.999
72380ION    CL-37365  14.805  39.305   3.244
72381ION    CL-37366  35.635  44.331   1.865
72382ION    CL-37367  42.220   8.968   4.021
72383ION    CL-37368  21.576  11.233   4.134
72384ION    CL-37369  28.577  25.787  14.646
72385ION    CL-37370   1.188   5.367   0.906
72386ION    CL-37371  18.034  44.755   1.245
72387ION    CL-37372   2.981  40.572  13.943
72388ION    CL-37373  31.190  44.859  14.968
72389ION    CL-37374   8.438  17.847   1.816
72390ION    CL-37375  28.747  11.448   1.700
72391ION    CL-37376  20.812  16.596  13.387
72392ION    CL-37377  34.802  13.185   3.804
72393ION    CL-37378  14.873  13.147   2.205
72394ION    CL-37379  17.426   3.950   2.219
72395ION    CL-37380   4.835  28.087  14.306
72396ION    CL-37381   4.215   9.807  11.264
72397ION    CL-37382  40.007  13.542  13.408
72398ION    CL-37383  35.287  22.835   1.535
72399ION    CL-37384   6.667   0.676  11.805
72400ION    CL-37385  11.813  15.554  13.532
72401ION    CL-37386  42.488  19.768   4.598
72402ION    CL-37387  11.322  40.984  11.208
72403ION    CL-37388  18.167   0.384  12.914
72404ION    CL-37389  10.327  26.712   0.875
72405ION    CL-37390  26.225  25.499  13.981
72406ION    CL-37391  20.561  36.882   2.449
72407ION    CL-37392  15.824  16.281   0.522
72408ION    CL-37393   8.904  31.588  12.664
72409ION    CL-37394  30.579  21.233  13.028
72410ION    CL-37395  36.368  17.080  11.532
72411ION    CL-37396  34.607  27.709  14.435
72412ION    CL-37397  13.288   8.793   3.323
72413ION    CL-37398  10.477   6.556   5.030
72414ION    CL-37399  34.485  43.997  10.090
72415ION    CL-37400  43.474  29.203  11.923
72416ION    CL-37401  23.747  33.228   0.884
72417ION    CL-37402  22.454  35.723  12.689
72418ION    CL-37403  41.487  20.878  13.347
72419ION    CL-37404  38.234  23.746  12.933
72420ION    CL-37405  14.303   6.960  14.428
72421ION    CL-37406   6.203  11.674   0.523
72422ION    CL-37407  31.181  33.070  10.666
72423ION    CL-37408  13.754  10.706  13.074
72424ION    CL-37409  34.085   3.696   3.141
72425ION    CL-37410  14.743  41.597  10.861
72426ION    CL-37411  16.145  27.390  14.065
72427ION    CL-37412  11.378  28.806  11.138
72428ION    CL-37413  18.924   8.248   2.132
72429ION    CL-37414  16.804  29.455   2.172
72430ION    CL-37415  18.827  20.383   3.008
72431ION    CL-37416  19.694  32.594   4.111
72432ION    CL-37417  21.650  16.213   0.272
72433ION    CL-37418  29.460   1.568   2.109
72434ION    CL-37419  28.636  18.680  12.125
72435ION    CL-37420   5.186  20.954   4.081
72436ION    CL-37421   6.431  31.571  13.451
72437ION    CL-37422   4.138   9.639   2.903
72438ION    CL-37423   7.385   5.434  11.118
72439ION    CL-37424  10.207   8.992  13.511
72440ION    CL-37425   4.353  13.862   3.112
72441ION    CL-37426  39.035   5.486   0.745
72442ION    CL-37427  12.245   9.442   1.178
72443ION    CL-37428  24.005  19.849  13.714
72444ION    CL-37429   0.769  30.608  12.184
72445ION    CL-37430  44.848   2.957   1.840
72446ION    CL-37431  10.022  26.642  12.516
72447ION    CL-37432  42.409   3.025  11.658
72448ION    CL-37433  39.892  22.904  11.988
72449ION    CL-37434   1.319   4.751   0.247
72450ION    CL-37435   2.977  26.545  14.057
72451ION    CL-37436  35.752  44.111  11.586
72452ION    CL-37437   8.110  15.827  11.828
72453ION    CL-37438  37.448   7.392   3.140
72454ION    CL-37439   1.644   6.179   0.541
72455ION    CL-37440   2.870  14.176  14.318
72456ION    CL-37441  12.631  43.118  14.297
72457ION    CL-37442  35.123   3.855   3.628
72458ION    CL-37443  21.391  40.520   0.527
72459ION    CL-37444  36.393  22.563   1.080
72460ION    CL-37445  37.869  27.246   1.901
72461ION    CL-37446  23.628  27.029  14.929
72462ION    CL-37447  41.210  21.923  11.036
72463ION    CL-37448  30.604  25.572  12.259
72464ION    CL-37449  44.032  11.538  10.838
72465ION    CL-37450  14.718  43.769  13.743
72466ION    CL-37451   9.836  17.062  12.049
72467ION    CL-37452  43.768  18.876  12.166
72468ION    CL-37453  19.415  37.173   3.760
72469ION    CL-37454  15.255  16.965  13.511
72470ION    CL-37455  10.008  41.133  13.481
72471ION    CL-37456  13.834  33.318   2.279
72472ION    CL-37457   5.287  28.979  14.312
72473ION    CL-37458  16.082   7.870   3.733
72474ION    CL-37459  21.620  14.285  13.670
72475ION    CL-37460   2.207  36.380   4.183
72476ION    CL-37461  16.912  25.623   3.024
72477ION    CL-37462  13.816  19.211   1.264
72478ION    CL-37463  27.000  35.423  11.552
72479ION    CL-37464   3.933  25.779  12.220
72480ION    CL-37465  15.711   3.174   0.821
72481ION    CL-37466  22.460   8.734   4.179
72482ION    CL-37467  35.470   0.487   0.825
72483ION    CL-37468  26.526   3.529   4.083
72484ION    CL-37469  25.730  39.979  10.704
72485ION    CL-37470  25.018  33.382  11.533
72486ION    CL-37471   2.990  44.096  11.420
72487ION    CL-37472  40.853  27.610  11.868
72488ION    CL-37473   0.531  10.501   0.766
72489ION    CL-37474  20.069  36.057  12.383
72490ION    CL-37475  33.682  38.920   3.135
72491ION    CL-37476  35.166  22.021   4.507
72492ION    CL-37477  33.379  10.365   0.850
72493ION    CL-37478  16.826  28.818   1.589
72494ION    CL-37479  33.906  43.310  10.921
72495ION    CL-37480  21.153  11.644  11.729
72496ION    CL-37481  25.839  16.206   3.735
72497ION    CL-37482  41.931   7.643  13.347
72498ION    CL-37483  14.661  25.792   3.806
72499ION    CL-37484  25.964  38.581  13.815
72500ION    CL-37485   0.077  21.526  13.620
72501ION    CL-37486  12.839  39.830  14.474
72502ION    CL-37487   9.228   4.834   1.436
72503ION    CL-37488  31.834  28.400  14.596
72504ION    CL-37489  17.094   3.105   2.052
72505ION    CL-37490   5.041   6.093   2.035
72506ION    CL-37491   9.158  26.919   0.594
72507ION    CL-37492  14.716  33.452  12.817
72508ION    CL-37493  23.090  31.012  12.811
72509ION    CL-37494  18.115  26.700  13.994
72510ION    CL-37495   3.353  12.374  10.795
72511ION    CL-37496  15.562  18.648  14.808
72512ION    CL-37497  15.555  14.187  11.067
72513ION    CL-37498  12.313  39.071  12.007
72514ION    CL-37499  36.667  12.420   0.870
72515ION    CL-37500  44.884  31.056   0.468
72516ION    CL-37501   5.173  41.244  12.023
72517ION    CL-37502  38.618   2.860  14.858
72518ION    CL-37503  20.929   8.777   1.393
72519ION    CL-37504   9.934  10.844  12.681
72520ION    CL-37505   0.717   7.287  13.528
72521ION    CL-37506  42.439  40.295   3.761
72522ION    CL-37507   4.646  19.968  11.081
72523ION    CL-37508  34.452  37.109   2.230
72524ION    CL-37509  20.466  10.785   2.023
72525ION    CL-37510  20.366   6.610  12.913
72526ION    CL-37511  20.163  38.577   2.467
72527ION    CL-37512  24.549  21.040  13.847
72528ION    CL-37513  22.664   0.304   2.890
72529ION    CL-37514  35.862  35.360  10.738
72530ION    CL-37515  17.846  33.039   0.895
72531ION    CL-37516   0.464   4.797  11.912
72532ION    CL-37517   7.737   4.195  10.808
72533ION    CL-37518  43.145  27.951  11.465
72534ION    CL-37519  25.095  35.296   0.358
72535ION    CL-37520   3.840  37.536  14.817
72536ION    CL-37521  44.498   6.646  11.183
72537ION    CL-37522  42.564  14.217   3.609
72538ION    CL-37523  18.574  40.968  11.037
72539ION    CL-37524  20.756   2.218  12.486
72540ION    CL-37525  30.323  12.788   3.238
72541ION    CL-37526  26.202  30.722  11.761
72542ION    CL-37527   9.852  24.895  13.134
72543ION    CL-37528  40.876  33.614  14.784
72544ION    CL-37529   5.863   8.837  11.047
72545ION    CL-37530  33.902  41.864  13.250
72546ION    CL-37531  17.036  31.049  11.921
72547ION    CL-37532  35.990  37.955   0.894
72548ION    CL-37533  28.989   9.215  10.664
72549ION    CL-37534  29.997  43.874  10.355
72550ION    CL-37535  27.667   7.371  10.401
72551ION    CL-37536  24.681  39.683   4.575
72552ION    CL-37537  12.194   9.542  14.470
72553ION    CL-37538   9.388  38.157  10.801
72554ION    CL-37539  42.313  36.936  13.132
72555ION    CL-37540   5.418  24.054   0.561
72556ION    CL-37541  28.597  18.867  10.429
72557ION    CL-37542   9.671  44.391   1.870
72558ION    CL-37543   4.969  13.635   1.381
72559ION    CL-37544  21.236   4.727   3.654
72560ION    CL-37545   8.162  10.251   1.003
72561ION    CL-37546  13.344  12.256   3.359
72562ION    CL-37547   0.508  43.009   4.153
72563ION    CL-37548  20.071  12.418  13.627
72564ION    CL-37549  17.223   3.028   9.782
72565ION    CL-37550  22.114   4.415   0.101
72566ION    CL-37551  16.066   7.556   1.664
72567ION    CL-37552  34.900   3.006  13.659
72568ION    CL-37553  27.017  32.788   5.209
72569ION    CL-37554   2.598   3.356  12.542
72570ION    CL-37555  20.309  39.332   2.933
72571ION    CL-37556  26.662  43.315  10.701
72572ION    CL-37557  13.943   2.725   4.278
72573ION    CL-37558   0.923  25.508  10.429
72574ION    CL-37559  17.523  11.092  11.950
72575ION    CL-37560  17.445  12.933   4.533
72576ION    CL-37561  32.057   3.701   3.917
72577ION    CL-37562  40.785  21.328  14.020
72578ION    CL-37563   6.938  31.477  12.435
72579ION    CL-37564   6.353  18.945   0.763
72580ION    CL-37565  37.464  42.254  14.001
72581ION    CL-37566  35.540  18.518  12.030
72582ION    CL-37567  32.920  18.192  13.823
72583ION    CL-37568  27.249  15.166   0.915
72584ION    CL-37569  36.083  18.530   1.567
72585ION    CL-37570   9.371  24.480  10.908
72586ION    CL-37571   0.604  41.258  10.904
72587ION    CL-37572  23.667   5.200   3.284
72588ION    CL-37573  37.246  32.436   3.643
72589ION    CL-37574  20.074  39.722   4.406
72590ION    CL-37575  29.114  32.002   2.163
72591ION    CL-37576  41.038   8.371  12.995
72592ION    CL-37577  39.311   0.721  14.927
72593ION    CL-37578  33.714  17.314   0.313
72594ION    CL-37579  21.104   6.125   2.192
72595ION    CL-37580  19.479  12.069  14.354
72596ION    CL-37581  11.281  11.971  11.262
72597ION    CL-37582   3.377  23.743   2.072
72598ION    CL-37583  37.421   3.691  14.951
72599ION    CL-37584  25.796  44.707   3.093
72600ION    CL-37585  42.266   8.158  11.781
72601ION    CL-37586  15.766  31.762  12.776
72602ION    CL-37587  27.390  16.123  13.569
72603ION    CL-37588  16.333  19.017  11.135
72604ION    CL-37589  18.654  10.202  12.432
72605ION    CL-37590  35.895  13.751   0.587
72606ION    CL-37591  42.740  18.418   2.806
72607ION    CL-37592   4.359  40.491  10.629
72608ION    CL-37593  11.644  14.799   2.427
72609ION    CL-37594   8.448  15.503  10.945
72610ION    CL-37595  33.542  31.591   3.705
72611ION    CL-37596  35.818  30.993  13.573
72612ION    CL-37597  26.450  14.730   0.839
72613ION    CL-37598  33.978  14.504   4.500
72614ION    CL-37599  34.259   7.130   9.765
72615ION    CL-37600  20.139  27.165   0.393
72616ION    CL-37601  31.469  26.984   4.601
72617ION    CL-37602   0.386  38.704   3.617
72618ION    CL-37603   0.355   0.688  12.104
72619ION    CL-37604  31.093  20.747   3.035
72620ION    CL-37605  15.174   2.726  14.704
72621ION    CL-37606  32.336  30.005  12.062
72622ION    CL-37607  12.674  18.336   4.700
72623ION    CL-37608  44.454  16.244   2.305
72624ION    CL-37609  33.545  26.883   0.008
72625ION    CL-37610  19.485  31.626   4.251
72626ION    CL-37611  14.943  21.376   2.726
72627ION    CL-37612  28.659  37.126   4.138
72628ION    CL-37613  23.251  40.482  13.233
72629ION    CL-37614  28.280  10.221  10.850
72630ION    CL-37615  26.013  12.258   1.921
72631ION    CL-37616  31.883   9.822   0.498
72632ION    CL-37617  34.466  34.149  14.984
72633ION    CL-37618  43.814  35.923   2.707
72634ION    CL-37619  19.302  28.264  14.989
72635ION    CL-37620  43.054  30.878   3.218
72636ION    CL-37621  18.314  15.901   4.611
72637ION    CL-37622   2.655  26.831  11.114
72638ION    CL-37623  34.612   6.760   0.851
72639ION    CL-37624  28.305   6.451  12.958
72640ION    CL-37625  23.243   7.007   1.575
72641ION    CL-37626  17.617  42.650  13.107
72642ION    CL-37627   6.721   9.308   0.848
72643ION    CL-37628  39.118  34.384  11.669
72644ION    CL-37629   5.523  10.206   0.039
72645ION    CL-37630   8.940   4.112   4.086
72646ION    CL-37631  40.193   9.473   2.524
72647ION    CL-37632  10.297  33.969  11.491
72648ION    CL-37633  39.071  42.836   1.115
72649ION    CL-37634   5.202  18.447  14.697
72650ION    CL-37635  24.399  17.877  11.679
72651ION    CL-37636  43.852   2.464   1.907
72652ION    CL-37637  10.439   8.336  11.228
72653ION    CL-37638  32.592   2.901   3.643
72654ION    CL-37639  33.574   9.758   2.380
72655ION    CL-37640  30.394  21.030  14.383
72656ION    CL-37641  23.530  11.210  13.860
72657ION    CL-37642  27.284   1.148  12.940
72658ION    CL-37643  23.286  32.690   2.168
72659ION    CL-37644  42.920  12.412   5.039
72660ION    CL-37645  12.366  22.738  11.599
72661ION    CL-37646   6.298  37.570   4.868
72662ION    CL-37647  30.720  39.371  10.658
72663ION    CL-37648  32.642  28.242   3.111
72664ION    CL-37649  11.386   8.416   1.152
72665ION    CL-37650  36.497   3.496   0.761
72666ION    CL-37651  38.500  15.482   3.286
72667ION    CL-37652  12.137  36.787  13.890
72668ION    CL-37653  16.252  21.822  11.543
72669ION    CL-37654  24.660  23.342  11.244
72670ION    CL-37655  13.529  21.283   5.091
72671ION    CL-37656  27.535   8.117  14.683
72672ION    CL-37657  28.537  44.875   0.373
72673ION    CL-37658  33.611  14.379  11.692
72674ION    CL-37659  37.793  19.717  11.849
72675ION    CL-37660  30.058  19.680  11.416
72676ION    CL-37661  11.829  26.933   1.215
72677ION    CL-37662  24.928  22.629   2.791
72678ION    CL-37663  24.595   9.852   1.730
72679ION    CL-37664  43.633  33.748   0.540
72680ION    CL-37665  12.096  38.211  10.977
72681ION    CL-37666   5.446  14.245   1.856
72682ION    CL-37667  16.496   7.412  14.837
72683ION    CL-37668   5.455  35.961  13.009
72684ION    CL-37669  24.471   3.722   1.492
72685ION    CL-37670  13.752  23.015   0.154
72686ION    CL-37671  24.114  37.211   5.184
72687ION    CL-37672  40.867  18.565   4.495
72688ION    CL-37673  21.412   4.892   5.007
72689ION    CL-37674  12.385  43.047   2.839
72690ION    CL-37675   7.732   9.554   3.201
72691ION    CL-37676  43.911  28.366   2.823
72692ION    CL-37677  42.683   4.869   0.270
72693ION    CL-37678  11.338  16.338  14.762
72694ION    CL-37679  17.079  34.377   3.696
72695ION    CL-37680  29.127  18.677   3.163
72696ION    CL-37681  43.892  13.822   4.808
72697ION    CL-37682  39.615  26.652   1.999
72698ION    CL-37683  25.346   0.408   2.540
72699ION    CL-37684  12.682  11.407   2.337
72700ION    CL-37685  35.484  43.390   2.706
72701ION    CL-37686  35.182  15.137  11.487
72702ION    CL-37687   1.994  11.371   2.132
72703ION    CL-37688  23.682   7.675   1.644
72704ION    CL-37689  39.095   8.377  12.929
72705ION    CL-37690  44.054   9.112   2.911
72706ION    CL-37691  27.753   4.088   2.425
72707ION    CL-37692  41.413  24.852   3.162
72708ION    CL-37693  32.987   4.763   4.717
72709ION    CL-37694   4.986  39.879   0.315
72710ION    CL-37695   9.313  43.381   0.393
72711ION    CL-37696   3.847   3.588   0.871
72712ION    CL-37697   0.018   1.314  13.387
72713ION    CL-37698  31.329  44.615  11.262
72714ION    CL-37699  39.123  14.127   0.296
72715ION    CL-37700  24.172   0.884  12.621
72716ION    CL-37701  16.482  32.581   2.312
72717ION    CL-37702  37.779   7.030  10.986
72718ION    CL-37703  13.467  33.784   4.504
72719ION    CL-37704  38.598   4.703   0.301
72720ION    CL-37705  15.332  42.512   4.529
72721ION    CL-37706  44.680  29.746  13.971
72722ION    CL-37707   2.189  40.960   4.609
72723ION    CL-37708   5.024  32.589   0.117
72724ION    CL-37709   5.609  36.029   1.937
72725ION    CL-37710   4.517  43.753  14.930
72726ION    CL-37711   3.292  32.732   0.812
72727ION    CL-37712  23.649  16.120  12.573
72728ION    CL-37713  37.698  33.471   0.793
72729ION    CL-37714   2.049  43.281   1.237
72730ION    CL-37715  42.944  39.236  12.592
72731ION    CL-37716  27.060  39.448  11.920
72732ION    CL-37717  20.654  26.067  11.940
72733ION    CL-37718  41.053   8.270  14.048
72734ION    CL-37719  15.984   1.825   0.784
72735ION    CL-37720  27.960  41.434  14.473
72736ION    CL-37721  26.305  21.675   4.496
72737ION    CL-37722  13.532   6.817  12.255
72738ION    CL-37723  37.019  22.113  12.860
72739ION    CL-37724  23.480   0.031   1.064
72740ION    CL-37725  39.964  29.108   3.436
72741ION    CL-37726  26.515  42.744   3.248
72742ION    CL-37727  25.206  15.748  12.920
72743ION    CL-37728  37.013  29.184  13.286
72744ION    CL-37729   0.827  13.600  11.952
72745ION    CL-37730  41.258   6.418   1.802
72746ION    CL-37731   3.756  31.866  14.814
72747ION    CL-37732  27.617  23.130  12.645
72748ION    CL-37733   5.763  42.340  13.282
72749ION    CL-37734  30.727  29.518   2.850
72750ION    CL-37735  15.598  26.157  11.680
72751ION    CL-37736  24.458   8.404   2.793
72752ION    CL-37737  25.945   1.014  13.537
72753ION    CL-37738  34.817  13.418  12.147
72754ION    CL-37739  10.833   7.847  12.461
72755ION    CL-37740  29.104  38.163  14.805
72756ION    CL-37741   1.951  43.623   3.710
72757ION    CL-37742  34.236   6.157   3.144
72758ION    CL-37743  30.258  41.114   0.121
72759ION    CL-37744  41.413  44.764   0.700
72760ION    CL-37745  16.561  28.471  10.795
72761ION    CL-37746  39.580  14.258   5.085
72762ION    CL-37747  26.000  15.568  13.781
72763ION    CL-37748  18.201  17.118   0.144
72764ION    CL-37749  34.374  21.092   0.709
72765ION    CL-37750   8.791   5.575   1.750
72766ION    CL-37751  33.076   3.240   2.836
72767ION    CL-37752   0.325  21.770   2.754
72768ION    CL-37753  42.401  36.036   2.398
72769ION    CL-37754   2.563  35.664  11.266
72770ION    CL-37755  43.246  17.012  14.005
72771ION    CL-37756  25.430  14.889  12.459
72772ION    CL-37757   8.173  41.820  13.884
72773ION    CL-37758  36.767  23.463   3.122
72774ION    CL-37759   7.575   6.100  14.243
72775ION    CL-37760  31.079  35.344   3.326
72776ION    CL-37761  37.248  28.007  11.872
72777ION    CL-37762  35.735   0.816   1.632
72778ION    CL-37763  26.109  22.074  10.724
72779ION    CL-37764   3.250  43.977  13.310
72780ION    CL-37765  29.826   9.844   0.513
72781ION    CL-37766  43.201  40.137   1.806
72782ION    CL-37767  28.622  14.042  11.936
72783ION    CL-37768  16.679  17.128   5.021
72784ION    CL-37769  35.341   9.286   0.504
72785ION    CL-37770   1.422  27.539   3.568
72786ION    CL-37771   3.301  39.513   3.383
72787ION    CL-37772  37.566   3.542  12.961
72788ION    CL-37773   7.638   5.043  12.253
72789ION    CL-37774  16.645   6.691   0.862
72790ION    CL-37775  37.270  21.691  13.630
72791ION    CL-37776  42.267   6.243  11.076
72792ION    CL-37777  19.683   8.965   0.829
72793ION    CL-37778  42.523  16.095  12.852
72794ION    CL-37779   7.687  19.990   3.728
72795ION    CL-37780  11.185  11.210  14.771
72796ION    CL-37781  23.203   1.273  11.659
72797ION    CL-37782  29.018  18.508   1.188
72798ION    CL-37783  25.137  10.846   1.481
72799ION    CL-37784  40.450   4.742  11.544
72800ION    CL-37785   2.415  12.642   4.549
72801ION    CL-37786   1.311  14.791  14.810
72802ION    CL-37787  20.635  19.521  13.030
72803ION    CL-37788  16.869  29.586   3.810
72804ION    CL-37789  29.055   6.100   3.926
72805ION    CL-37790  13.575  35.634  14.405
72806ION    CL-37791  13.457  40.899   0.248
72807ION    CL-37792   1.724  30.143   3.246
72808ION    CL-37793   8.193  19.495  11.432
72809ION    CL-37794  35.577  19.276   4.614
72810ION    CL-37795  19.578  20.616   3.790
72811ION    CL-37796  19.739  42.550  12.582
72812ION    CL-37797  43.431   6.089  14.527
72813ION    CL-37798   3.736  28.536  11.907
72814ION    CL-37799  22.075  15.380   0.666
72815ION    CL-37800  17.238  18.262  10.923
72816ION    CL-37801  34.118   8.102  11.668
72817ION    CL-37802   7.897  41.005  14.159
72818ION    CL-37803  24.100  12.663   4.437
72819ION    CL-37804  39.813  43.763  13.757
72820ION    CL-37805  28.844  36.777  12.366
72821ION    CL-37806  44.597   5.760   4.075
72822ION    CL-37807   6.721  38.492  12.583
72823ION    CL-37808  39.735  11.178  11.010
72824ION    CL-37809  11.395  39.314  13.594
72825ION    CL-37810  18.754  12.259   3.575
72826ION    CL-37811  24.021  17.545   4.223
72827ION    CL-37812   9.067   3.160   1.088
72828ION    CL-37813  36.612  38.695  14.432
72829ION    CL-37814  18.574  31.653   3.803
72830ION    CL-37815  29.460  39.259   2.426
72831ION    CL-37816  19.219  42.893   2.314
72832ION    CL-37817  38.194  36.730   2.943
72833ION    CL-37818  30.768  33.193  12.815
72834ION    CL-37819  22.787  23.058   0.348
72835ION    CL-37820  18.703  12.829   0.809
72836ION    CL-37821  26.156  32.143  12.851
72837ION    CL-37822  28.870  32.236   0.448
72838ION    CL-37823  30.313  30.136   0.180
72839ION    CL-37824  36.790  36.373   3.978
72840ION    CL-37825  16.702  22.851  14.519
72841ION    CL-37826  27.984  31.842   1.675
72842ION    CL-37827   9.098  27.814   0.675
72843ION    CL-37828  24.692  42.034  13.739
72844ION    CL-37829   2.463  10.279   0.741
72845ION    CL-37830  44.382  42.636   0.714
72846ION    CL-37831  13.510  12.664   5.270
72847ION    CL-37832   1.985   3.934   3.588
72848ION    CL-37833  21.402   8.136  12.559
72849ION    CL-37834  34.615   3.752   1.339
72850ION    CL-37835  32.951  16.769  10.780
72851ION    CL-37836  34.841   6.834  13.629
72852ION    CL-37837  40.891  26.946   3.984
72853ION    CL-37838  14.124  24.836  12.513
72854ION    CL-37839  29.600  31.384   5.130
72855ION    CL-37840   9.116   2.999  13.424
72856ION    CL-37841  20.344  37.052   3.409
72857ION    CL-37842  24.732  27.129  11.852
72858ION    CL-37843   2.533  39.038  12.363
72859ION    CL-37844  17.645  15.120  14.339
72860ION    CL-37845  28.587  18.048  12.929
72861ION    CL-37846  27.589  17.448  10.383
72862ION    CL-37847  14.075  14.259  10.386
72863ION    CL-37848   0.355  28.872   0.032
72864ION    CL-37849   8.646  42.364  12.988
72865ION    CL-37850  39.574  17.596  14.949
72866ION    CL-37851  27.673  38.730   1.959
72867ION    CL-37852  11.603  36.797   3.964
72868ION    CL-37853  22.863  37.061   4.626
72869ION    CL-37854  27.234  43.480  14.699
72870ION    CL-37855  15.872  12.912  13.060
72871ION    CL-37856  36.577  18.926  14.785
72872ION    CL-37857  29.223   4.085  10.639
72873ION    CL-37858  18.757  42.774  13.461
72874ION    CL-37859  36.091  33.309   3.246
72875ION    CL-37860  39.847   4.611  13.841
72876ION    CL-37861   7.952   3.900  13.532
72877ION    CL-37862  32.935   9.726   0.221
72878ION    CL-37863  31.440  26.334   1.146
72879ION    CL-37864   1.180   5.904  14.699
72880ION    CL-37865  29.097  27.412  14.729
72881ION    CL-37866  38.070  41.572   3.800
72882ION    CL-37867  23.267  44.996  13.804
72883ION    CL-37868  22.891   7.693   1.851
72884ION    CL-37869  36.952  27.135  13.684
72885ION    CL-37870  33.678  30.491  14.895
72886ION    CL-37871   6.972  18.659   2.819
72887ION    CL-37872  36.091  13.570  11.837
72888ION    CL-37873  37.704  36.520   1.350
72889ION    CL-37874  14.282  43.675  14.900
72890ION    CL-37875  36.417  41.983  12.508
72891ION    CL-37876   8.733  21.734  13.267
72892ION    CL-37877  26.094  27.491   1.981
72893ION    CL-37878  15.273  40.031  14.374
72894ION    CL-37879  34.107   1.501  13.929
72895ION    CL-37880   2.385  21.777   0.929
72896ION    CL-37881  40.646   7.058   1.625
72897ION    CL-37882  38.485  12.617  12.049
72898ION    CL-37883  16.337  22.842   4.245
72899ION    CL-37884   3.695   6.862   0.836
72900ION    CL-37885  31.788  35.440   0.917
72901ION    CL-37886  38.361  35.726   1.969
72902ION    CL-37887  28.510  31.906   2.789
72903ION    CL-37888  20.094  11.667  12.967
72904ION    CL-37889  30.313  23.517  13.451
72905ION    CL-37890  14.568  29.717   2.915
72906ION    CL-37891  14.623  29.128   1.700
72907ION    CL-37892  18.667   2.330   0.443
72908ION    CL-37893  25.675  17.654   3.778
72909ION    CL-37894  25.333  28.690  11.959
72910ION    CL-37895  11.418   9.813   1.322
72911ION    CL-37896  19.140   7.393  12.120
72912ION    CL-37897  40.091  28.620   0.640
72913ION    CL-37898  37.750   3.830  10.745
72914ION    CL-37899  25.136  34.195   0.688
72915ION    CL-37900   3.695  41.659   4.323
72916ION    CL-37901  43.274  23.579  13.029
72917ION    CL-37902  13.688   0.918  14.876
72918ION    CL-37903   8.122  18.537  13.437
72919ION    CL-37904  44.485  29.980   2.599
72920ION    CL-37905   7.179  11.260   1.975
72921ION    CL-37906   0.152  26.629  12.114
72922ION    CL-37907   6.239  38.729  13.998
72923ION    CL-37908  22.625  22.623   2.401
72924ION    CL-37909   6.115   2.962   1.468
72925ION    CL-37910  18.227   4.604  13.875
72926ION    CL-37911  11.675  16.749  11.165
72927ION    CL-37912  20.037  44.131  10.694
72928ION    CL-37913  25.922  19.339  12.056
72929ION    CL-37914  31.201  21.732   2.428
72930ION    CL-37915  26.921  20.792   2.127
72931ION    CL-37916   7.309   3.666   4.129
72932ION    CL-37917  40.577   3.859  11.049
72933ION    CL-37918  26.375  38.286  11.045
72934ION    CL-37919  25.681   3.807   3.619
72935ION    CL-37920  10.773  17.240  11.184
72936ION    CL-37921  27.239  34.363  10.030
72937ION    CL-37922  44.932  30.711  14.054
72938ION    CL-37923  37.854  42.207   0.299
72939ION    CL-37924   6.359  20.287   3.614
72940ION    CL-37925  31.909  28.517   2.708
72941ION    CL-37926  30.584  14.664  12.923
72942ION    CL-37927  18.045  34.099  10.409
72943ION    CL-37928  37.153  13.260   5.185
72944ION    CL-37929  14.727  34.358   5.046
72945ION    CL-37930  39.945  27.909   2.654
72946ION    CL-37931   5.473  12.215   2.192
72947ION    CL-37932  24.893  34.280   3.700
72948ION    CL-37933  21.926   5.524   2.145
72949ION    CL-37934  25.906  18.523  13.281
72950ION    CL-37935  36.549   0.135  14.910
72951ION    CL-37936   4.339  15.745   0.924
72952ION    CL-37937  35.304  27.869   3.316
72953ION    CL-37938   5.727  33.129   3.807
72954ION    CL-37939  30.933   6.403  13.759
72955ION    CL-37940  36.166  24.757  14.827
72956ION    CL-37941  26.762  12.475   3.547
72957ION    CL-37942   2.177  41.713  12.352
72958ION    CL-37943  38.243  28.681   1.048
72959ION    CL-37944  32.035  13.894  11.705
72960ION    CL-37945  17.803  20.993  11.982
72961ION    CL-37946  13.164  20.992  13.019
72962ION    CL-37947  23.031  43.097  11.091
72963ION    CL-37948   8.552  18.823   1.108
72964ION    CL-37949  20.782  41.142   1.889
72965ION    CL-37950  35.036  40.115   5.214
72966ION    CL-37951  25.971  23.756   1.712
72967ION    CL-37952  20.615  40.404  11.518
72968ION    CL-37953  20.859  22.713  11.154
72969ION    CL-37954  14.069  26.053   0.950
72970ION    CL-37955  26.331  39.643  12.576
72971ION    CL-37956  43.762   8.879  14.276
72972ION    CL-37957  15.705  42.866  10.651
72973ION    CL-37958  10.865  27.887   1.430
72974ION    CL-37959  43.080  36.479   4.935
72975ION    CL-37960  26.031  24.002  12.635
72976ION    CL-37961  35.660  18.866  13.884
72977ION    CL-37962  30.645  25.571   3.649
72978ION    CL-37963  23.136  39.986   3.667
72979ION    CL-37964  18.585  15.061   4.321
72980ION    CL-37965  19.601  35.365  12.134
72981ION    CL-37966   7.448   2.267   3.825
72982ION    CL-37967   6.897   0.847  14.903
72983ION    CL-37968  35.686  31.466   1.099
72984ION    CL-37969  34.546  16.181   0.509
72985ION    CL-37970  36.760  15.132  11.184
72986ION    CL-37971   0.628  22.098  13.262
72987ION    CL-37972   3.573  14.154  12.030
72988ION    CL-37973  32.258   2.122   0.008
72989ION    CL-37974  29.000  34.653   1.816
72990ION    CL-37975  29.587  36.159   3.630
72991ION    CL-37976   1.560  44.393   2.530
72992ION    CL-37977  19.365   2.108  11.653
72993ION    CL-37978  30.543  22.601  13.782
72994ION    CL-37979   0.475  36.065   1.825
72995ION    CL-37980  22.549  15.913  10.999
72996ION    CL-37981   4.369  16.856   1.633
72997ION    CL-37982  36.342  30.385  12.976
72998ION    CL-37983  19.067  29.957  11.607
72999ION    CL-37984  25.558   3.029   4.235
73000ION    CL-37985  15.519  38.197  13.845
73001ION    CL-37986   3.490  18.963  11.095
73002ION    CL-37987  39.980  20.599  13.109
73003ION    CL-37988  20.754  41.470   4.817
73004ION    CL-37989   9.120  12.075   2.416
73005ION    CL-37990  16.172  26.839  11.561
73006ION    CL-37991  25.903  35.102  12.660
73007ION    CL-37992   1.902   0.339  14.130
73008ION    CL-37993  20.778  25.645   0.032
73009ION    CL-37994  37.546  21.086   3.689
73010ION    CL-37995  10.723  32.964   1.894
73011ION    CL-37996  17.497  27.667  14.708
73012ION    CL-37997  31.332  24.629  13.108
73013ION    CL-37998   8.982  40.063   1.768
73014ION    CL-37999  35.665  22.776   0.611
73015ION    CL-38000   1.021  28.716  14.169
73016ION    CL-38001  41.101  40.341  13.855
73017ION    CL-38002  30.040  12.213  11.408
73018ION    CL-38003  12.207  25.407  13.745
73019ION    CL-38004  19.210  24.724  12.741
73020ION    CL-38005  21.884  20.820   0.421
73021ION    CL-38006  20.827  34.808  12.600
73022ION    CL-38007  27.339  25.305   0.870
73023ION    CL-38008  25.112  34.066  10.780
73024ION    CL-38009  40.054   8.266  14.003
73025ION    CL-38010  31.336   5.325  13.110
73026ION    CL-38011   9.637  10.901   1.311
73027ION    CL-38012  22.128  42.776  14.235
73028ION    CL-38013  27.697  34.699   2.940
73029ION    CL-38014  31.003   1.795  12.672
73030ION    CL-38015  35.829  12.252   4.980
73031ION    CL-38016  32.150  20.967   4.455
73032ION    CL-38017  17.740  15.004  12.014
73033ION    CL-38018  44.474  10.321  12.573
73034ION    CL-38019  38.893  20.376  10.611
73035ION    CL-38020  15.087  36.592   4.788
73036ION    CL-38021   3.413  15.830   3.094
73037ION    CL-38022  27.191  35.562   2.920
73038ION    CL-38023  14.374  22.671  12.562
73039ION    CL-38024  17.806   5.858   1.682
73040ION    CL-38025  15.541  18.450  10.908
73041ION    CL-38026  25.385  44.748   4.004
73042ION    CL-38027  14.994  25.230   2.366
73043ION    CL-38028  17.594  30.288  12.253
73044ION    CL-38029  14.136  21.601  13.899
73045ION    CL-38030  24.228  14.526   3.223
73046ION    CL-38031  36.787  43.298   1.691
73047ION    CL-38032  39.222  13.947   2.250
73048ION    CL-38033  13.604  37.974  11.138
73049ION    CL-38034  29.536  32.800   0.203
73050ION    CL-38035  30.857  23.115   1.253
73051ION    CL-38036  34.315  13.403  13.963
73052ION    CL-38037  40.667  26.685   0.155
73053ION    CL-38038  43.634   6.657  12.842
73054ION    CL-38039  30.282  31.108   2.746
73055ION    CL-38040  13.717   7.856  13.526
73056ION    CL-38041   6.434  42.474   0.081
73057ION    CL-38042  10.230  21.000   3.700
73058ION    CL-38043   9.650   6.151  13.580
73059ION    CL-38044  23.502   8.842  14.428
73060ION    CL-38045  20.814   3.656   4.869
73061ION    CL-38046  38.136  20.431   4.687
73062ION    CL-38047  31.969  22.613   4.352
73063ION    CL-38048   5.465  34.402   3.258
73064ION    CL-38049  18.729  37.556   3.590
73065ION    CL-38050   5.653  21.182   2.419
73066ION    CL-38051  41.927  40.442  13.301
73067ION    CL-38052   7.160   9.506  12.897
73068ION    CL-38053  13.921   1.187  13.941
73069ION    CL-38054  33.527  13.795  14.437
73070ION    CL-38055  12.148  19.645  13.987
73071ION    CL-38056   8.785  42.204   0.422
73072ION    CL-38057  29.243  34.065   4.873
73073ION    CL-38058  20.765  13.499   0.086
73074ION    CL-38059  27.582  33.139  12.032
73075ION    CL-38060  23.942   6.490  14.517
73076ION    CL-38061  32.307  14.638   0.115
73077ION    CL-38062  11.883  27.002  13.038
73078ION    CL-38063  42.258   0.491  11.842
73079ION    CL-38064   7.337   7.751   4.397
73080ION    CL-38065   7.604  19.066   1.312
73081ION    CL-38066  29.186  33.713  11.621
73082ION    CL-38067  14.150  19.969  13.046
73083ION    CL-38068  29.567   2.933  13.793
73084ION    CL-38069  21.598  11.494   5.099
73085ION    CL-38070   2.083  38.993   3.240
73086ION    CL-38071  29.385  24.591  14.871
73087ION    CL-38072  44.097  40.590   9.896
73088ION    CL-38073  11.315   8.746  11.484
73089ION    CL-38074  40.230  31.842  10.772
73090ION    CL-38075  40.480   5.470   0.634
73091ION    CL-38076  31.314  10.373  14.584
73092ION    CL-38077   0.298  27.480  12.618
73093ION    CL-38078   2.283  37.779  14.305
73094ION    CL-38079   3.271   8.600   1.678
73095ION    CL-38080  42.463  41.441   3.059
73096ION    CL-38081  26.903  21.460   5.050
73097ION    CL-38082  24.345  21.581   2.811
73098ION    CL-38083  33.373  27.010   4.807
73099ION    CL-38084  41.169  34.222  10.197
73100ION    CL-38085   4.445  34.703  10.385
73101ION    CL-38086  26.418  31.614  12.160
73102ION    CL-38087  21.250  19.505  14.896
73103ION    CL-38088  29.390   7.491  11.133
73104ION    CL-38089   4.420  44.762   2.612
73105ION    CL-38090  42.130  37.122   3.644
73106ION    CL-38091  23.498  31.794  12.339
73107ION    CL-38092   0.982  11.008  11.919
73108ION    CL-38093  15.394  31.854  13.793
73109ION    CL-38094  23.541  36.968   1.996
73110ION    CL-38095  43.317  38.811   3.008
73111ION    CL-38096  33.061   1.740  14.936
73112ION    CL-38097   0.909  25.596  13.591
73113ION    CL-38098  39.441  42.858  12.672
73114ION    CL-38099  33.111  44.831  14.499
73115ION    CL-38100   1.225  12.798  13.788
73116ION    CL-38101  42.987  11.526   2.743
73117ION    CL-38102  21.216  18.719  13.164
73118ION    CL-38103  30.102   7.992  10.865
73119ION    CL-38104  31.652  35.831  14.295
73120ION    CL-38105   6.432  20.607   2.670
73121ION    CL-38106  39.947  17.623   3.136
73122ION    CL-38107  21.728  24.932  12.387
73123ION    CL-38108  25.527  19.067  14.037
73124ION    CL-38109  33.549  25.471  14.233
73125ION    CL-38110  11.099  32.111   1.122
73126ION    CL-38111  19.488  39.907  12.040
73127ION    CL-38112   5.861  27.508  11.952
73128ION    CL-38113   2.025  32.053   3.343
73129ION    CL-38114  24.174  13.824   1.678
73130ION    CL-38115   4.503  21.197   4.937
73131ION    CL-38116  22.294   9.549   0.844
73132ION    CL-38117  42.548  18.863  12.060
73133ION    CL-38118  29.632  12.802  14.569
73134ION    CL-38119   3.860  14.923   0.024
73135ION    CL-38120   0.600  17.484  13.989
73136ION    CL-38121  30.995  21.814   0.245
73137ION    CL-38122  17.800  27.414  12.353
73138ION    CL-38123  19.714   3.767   0.975
73139ION    CL-38124  13.887  20.880  10.702
73140ION    CL-38125  16.584  26.541   1.581
73141ION    CL-38126  27.122  40.975   1.322
73142ION    CL-38127  39.890  33.796  11.426
73143ION    CL-38128   5.891   2.161   0.442
73144ION    CL-38129  39.450  26.103  13.101
73145ION    CL-38130  20.024  18.074  14.318
73146ION    CL-38131   8.127  39.548   1.826
73147ION    CL-38132  19.856  39.827  14.395
73148ION    CL-38133   5.223  42.787   2.242
73149ION    CL-38134  28.480  36.479   0.434
73150ION    CL-38135   5.693  25.568  14.982
73151ION    CL-38136   6.335   6.843  14.726
73152ION    CL-38137  29.383  29.176  11.654
73153ION    CL-38138  10.835  36.726   4.601
73154ION    CL-38139  22.179  17.950  13.995
73155ION    CL-38140  33.573  26.372   4.062
73156ION    CL-38141  11.377   6.597  13.519
73157ION    CL-38142   5.895  25.270  13.261
73158ION    CL-38143  17.653  39.832   0.334
73159ION    CL-38144  25.434  14.783   3.640
73160ION    CL-38145   8.608  23.844   2.681
73161ION    CL-38146  17.566  16.557  11.018
73162ION    CL-38147   3.396   3.775  12.426
73163ION    CL-38148  37.857  24.033   0.055
73164ION    CL-38149  43.389  24.633   2.843
73165ION    CL-38150  10.708   4.204  11.512
73166ION    CL-38151  36.544  11.246  13.982
73167ION    CL-38152  35.768  31.949   4.155
73168ION    CL-38153  14.140  14.086  12.574
73169ION    CL-38154   2.743  21.264   3.289
73170ION    CL-38155   9.010   9.823   0.690
73171ION    CL-38156  27.970  12.939   2.171
73172ION    CL-38157  42.780  30.580   4.823
73173ION    CL-38158  19.555  34.554   3.610
73174ION    CL-38159  22.403  30.640  10.243
73175ION    CL-38160   6.717  12.691   1.409
73176ION    CL-38161   4.903   9.893   3.347
73177ION    CL-38162  37.201  40.356  14.931
73178ION    CL-38163  39.009   6.398   3.753
73179ION    CL-38164  39.782  21.746   0.112
73180ION    CL-38165  36.120  23.616  13.453
73181ION    CL-38166  17.275  32.223   2.421
73182ION    CL-38167  28.599  22.825   3.110
73183ION    CL-38168  17.707  36.780   3.361
73184ION    CL-38169  26.621   1.538  12.301
73185ION    CL-38170  36.182   4.172   3.655
73186ION    CL-38171  23.180  31.012   2.858
73187ION    CL-38172  33.870  12.701  12.892
73188ION    CL-38173  21.658  13.674   0.638
73189ION    CL-38174  34.875  26.050   2.299
73190ION    CL-38175  28.205  19.827   3.173
73191ION    CL-38176   7.168   4.715   4.897
73192ION    CL-38177  11.048   8.828   4.080
73193ION    CL-38178  22.609  20.242   5.311
73194ION    CL-38179  38.084  41.427  13.815
73195ION    CL-38180  44.824  22.392   3.049
73196ION    CL-38181  24.232  26.173  14.227
73197ION    CL-38182  15.095  10.445   0.337
73198ION    CL-38183  10.027   3.420   1.186
73199ION    CL-38184  35.633  22.155   2.245
73200ION    CL-38185   8.844  30.920  11.923
73201ION    CL-38186  34.977  25.102   1.035
73202ION    CL-38187  27.947   6.676   0.216
73203ION    CL-38188  35.639  35.863  13.056
73204ION    CL-38189  28.241   8.189   0.392
73205ION    CL-38190  19.841   5.882  12.827
73206ION    CL-38191  28.397  39.386  11.761
73207ION    CL-38192  21.333  41.707   1.399
73208ION    CL-38193   7.653  27.799   0.473
73209ION    CL-38194   5.869  33.961  14.696
73210ION    CL-38195  31.357  43.529   1.908
73211ION    CL-38196  40.805  31.908  14.610
73212ION    CL-38197  40.480   5.093   2.759
73213ION    CL-38198  33.051  30.664  11.828
73214ION    CL-38199  12.420  44.191   3.540
73215ION    CL-38200  21.039  11.567  14.923
73216ION    CL-38201  13.273  24.493   5.014
73217ION    CL-38202  29.103  20.857  10.799
73218ION    CL-38203   6.168  22.490  14.937
73219ION    CL-38204  13.056  16.227  11.134
73220ION    CL-38205  12.027   7.885  14.880
73221ION    CL-38206   5.920  25.424  11.005
73222ION    CL-38207  24.094   1.770  11.455
73223ION    CL-38208   6.753   2.347   0.913
73224ION    CL-38209  20.024  38.523  13.684
73225ION    CL-38210   7.008  19.057   3.736
73226ION    CL-38211  16.116  21.972  14.432
73227ION    CL-38212  25.960  26.660  12.471
73228ION    CL-38213  26.743  20.188  13.083
73229ION    CL-38214   2.450   8.806  12.782
73230ION    CL-38215  37.330  19.408  13.415
73231ION    CL-38216  23.758  32.775  13.972
73232ION    CL-38217  11.594  22.354  14.774
73233ION    CL-38218  40.274  31.182  14.171
73234ION    CL-38219  20.225   4.339   9.693
73235ION    CL-38220  33.152  43.550   3.701
73236ION    CL-38221  10.940  34.000  13.531
73237ION    CL-38222  17.300  15.810   0.452
73238ION    CL-38223  42.805  12.638  11.572
73239ION    CL-38224  40.760  24.040  11.597
73240ION    CL-38225  27.747  26.276  14.571
73241ION    CL-38226  31.990  10.378  12.336
73242ION    CL-38227  24.992  12.061  11.563
73243ION    CL-38228  21.427  18.978   0.798
73244ION    CL-38229   1.239   9.404  10.400
73245ION    CL-38230  23.582  31.237  13.652
73246ION    CL-38231  21.966  27.747  14.167
73247ION    CL-38232  26.820  22.611  10.746
73248ION    CL-38233  20.047   2.231   3.636
73249ION    CL-38234   8.845  35.854   4.174
73250ION    CL-38235   8.327  32.237   4.823
73251ION    CL-38236  29.695  28.079   0.904
73252ION    CL-38237  13.897  28.815   1.535
73253ION    CL-38238  26.144   9.116   3.975
73254ION    CL-38239   7.633  35.449   2.076
73255ION    CL-38240  38.943  10.426   2.314
73256ION    CL-38241  28.441  25.982   2.937
73257ION    CL-38242   1.908  24.658   4.054
73258ION    CL-38243  32.038  38.343  13.766
73259ION    CL-38244  29.080   8.587   2.208
73260ION    CL-38245  26.042  23.309   4.800
73261ION    CL-38246  44.417  26.694   3.241
73262ION    CL-38247   8.811  44.798  13.422
73263ION    CL-38248  20.299  21.309   3.810
73264ION    CL-38249  38.924  35.559  13.828
73265ION    CL-38250  16.771  44.066   0.250
73266ION    CL-38251   8.170   2.889  14.977
73267ION    CL-38252  40.384  18.334  13.879
73268ION    CL-38253  13.952  29.595   1.763
73269ION    CL-38254  26.021  21.327   3.724
73270ION    CL-38255  33.029  28.922  10.056
73271ION    CL-38256   6.434  21.227   4.008
73272ION    CL-38257  23.514  18.864  12.025
73273ION    CL-38258  32.881   4.261  14.792
73274ION    CL-38259   0.336   8.916  11.567
73275ION    CL-38260  31.165  24.548  10.843
73276ION    CL-38261  35.011  26.474   0.580
73277ION    CL-38262  43.927   1.438  11.538
73278ION    CL-38263  43.371  44.567   0.917
73279ION    CL-38264   8.408   1.288  13.448
73280ION    CL-38265   8.360  42.960   3.001
73281ION    CL-38266  27.057  17.645  14.753
73282ION    CL-38267   8.332  25.105   5.130
73283ION    CL-38268  26.761  30.668   0.553
73284ION    CL-38269  32.337  23.713  11.489
73285ION    CL-38270  28.792  13.146  10.687
73286ION    CL-38271  43.220   9.681  14.592
73287ION    CL-38272  20.160  42.528  11.209
73288ION    CL-38273  36.355   9.141  14.110
73289ION    CL-38274  24.539  43.219   2.803
73290ION    CL-38275  42.022  10.150  14.492
73291ION    CL-38276  41.542  35.501   2.797
73292ION    CL-38277  24.277   7.739   4.487
73293ION    CL-38278  33.499  30.070   9.922
73294ION    CL-38279  18.530  11.497   4.182
73295ION    CL-38280   3.460  43.949   1.245
73296ION    CL-38281  19.146  31.381   1.899
73297ION    CL-38282  12.234  42.810  13.351
73298ION    CL-38283  13.940  32.753   2.989
73299ION    CL-38284  33.181  26.465   0.898
73300ION    CL-38285  12.580  22.133   1.159
73301ION    CL-38286  35.612   6.551  12.996
73302ION    CL-38287  42.716  19.184  14.033
73303ION    CL-38288  23.917  43.689   3.251
73304ION    CL-38289  21.649  27.009  12.430
73305ION    CL-38290  43.783  18.965   4.367
73306ION    CL-38291  20.060  16.376  14.824
73307ION    CL-38292   2.501  28.307  11.441
73308ION    CL-38293  42.019   2.555   3.264
73309ION    CL-38294  37.870  10.427   2.349
73310ION    CL-38295  30.682   3.961   0.274
73311ION    CL-38296  11.304  42.449  13.421
73312ION    CL-38297  30.842  17.803   1.830
73313ION    CL-38298  16.730   2.314  10.147
73314ION    CL-38299   4.701  20.093   1.229
73315ION    CL-38300  12.739  26.426   0.739
73316ION    CL-38301   1.786  43.520   2.470
73317ION    CL-38302  11.692   1.916  12.695
73318ION    CL-38303  10.585  26.663   4.673
73319ION    CL-38304  19.797  14.244  14.415
73320ION    CL-38305  37.589  15.762   4.098
73321ION    CL-38306   9.120  19.090   5.052
73322ION    CL-38307  36.613  28.735  11.573
73323ION    CL-38308   1.760  35.020  12.484
73324ION    CL-38309  34.430   9.305  10.913
73325ION    CL-38310  20.099  13.791   1.640
73326ION    CL-38311  17.373  36.110  11.632
73327ION    CL-38312  13.634  12.215   4.329
73328ION    CL-38313  29.625  19.712   4.024
73329ION    CL-38314   9.819  25.979   0.423
73330ION    CL-38315  20.634  19.556   1.862
73331ION    CL-38316  15.650  44.483  12.976
73332ION    CL-38317  39.146  28.870   1.097
73333ION    CL-38318   2.625   3.264   1.364
73334ION    CL-38319  24.695  43.008  11.588
73335ION    CL-38320  23.050   4.058   2.595
73336ION    CL-38321  19.915   5.331   1.484
73337ION    CL-38322   5.211  28.901  13.318
73338ION    CL-38323  38.799  37.097   2.196
73339ION    CL-38324   6.880   8.669   2.087
73340ION    CL-38325  20.973  44.326   5.064
73341ION    CL-38326  37.305  44.504  12.995
73342ION    CL-38327  21.562   7.499  11.933
73343ION    CL-38328  14.266  10.405  11.278
73344ION    CL-38329  40.735   1.771   2.406
73345ION    CL-38330  28.938   3.171  12.967
73346ION    CL-38331  34.079  10.838   1.460
73347ION    CL-38332  15.834  23.488   5.232
73348ION    CL-38333  17.791   9.246   3.946
73349ION    CL-38334   3.715  23.074  14.698
73350ION    CL-38335  39.782  10.679   2.530
73351ION    CL-38336  26.492  14.555   2.700
73352ION    CL-38337  12.010  42.981   9.666
73353ION    CL-38338  18.045  42.453  12.225
73354ION    CL-38339  39.106  34.257   3.874
73355ION    CL-38340  35.818  31.488  12.144
73356ION    CL-38341  20.640   6.169  14.517
73357ION    CL-38342  17.636  40.791  12.582
73358ION    CL-38343  16.527  23.898  13.191
73359ION    CL-38344  10.935  43.243   0.975
73360ION    CL-38345  20.345  12.772   2.119
73361ION    CL-38346  17.241   0.291  12.549
73362ION    CL-38347  32.548  40.778  12.080
73363ION    CL-38348   6.328  22.193   1.732
73364ION    CL-38349  13.195  15.237  11.170
73365ION    CL-38350   1.402  31.077   1.758
73366ION    CL-38351  30.861  18.184   2.619
73367ION    CL-38352   4.896  10.117   4.224
73368ION    CL-38353   8.550  27.718  12.736
73369ION    CL-38354  35.889  13.625   2.141
73370ION    CL-38355  13.544   8.355  12.526
73371ION    CL-38356  13.520  32.117   1.434
73372ION    CL-38357   4.415  41.215   0.329
73373ION    CL-38358  11.733  40.849  13.954
73374ION    CL-38359  40.142  25.717   0.422
73375ION    CL-38360  10.779  39.527   1.311
73376ION    CL-38361  24.059   4.099  13.742
73377ION    CL-38362  31.497  30.643  13.801
73378ION    CL-38363  42.906  14.285  13.822
73379ION    CL-38364   8.426  14.263  10.942
73380ION    CL-38365  24.099  22.689   1.395
73381ION    CL-38366  43.822  21.897  10.938
73382ION    CL-38367  37.449  12.841   3.375
73383ION    CL-38368  30.500   8.659   0.806
73384ION    CL-38369  38.929  42.932   3.563
73385ION    CL-38370  24.948  41.456  14.619
73386ION    CL-38371  41.422  10.012   1.703
73387ION    CL-38372  28.379   8.787   2.892
73388ION    CL-38373  44.356  15.134  13.421
73389ION    CL-38374  11.903   5.188  10.243
73390ION    CL-38375   8.437  15.582  14.014
73391ION    CL-38376  17.041  36.325   1.080
73392ION    CL-38377  20.115  15.562   3.392
73393ION    CL-38378   9.639  12.615  10.005
73394ION    CL-38379  24.918  19.848  14.612
73395ION    CL-38380   4.621   6.582   1.091
73396ION    CL-38381  19.149   4.668  12.961
73397ION    CL-38382  25.636  35.936  12.868
73398ION    CL-38383   2.525   6.898  14.780
73399ION    CL-38384  11.571  26.572   2.566
73400ION    CL-38385  19.939  34.922   2.706
73401ION    CL-38386  43.450   7.702  13.532
73402ION    CL-38387  30.874  20.154  14.601
73403ION    CL-38388   8.823  26.505   1.681
73404ION    CL-38389  34.016  12.330  14.364
73405ION    CL-38390  13.389  37.010  10.978
73406ION    CL-38391  22.022  30.560   0.427
73407ION    CL-38392  32.532  23.058  13.691
73408ION    CL-38393  27.870   4.216  14.853
73409ION    CL-38394  29.376   2.433   4.145
73410ION    CL-38395   1.250  10.703   2.114
73411ION    CL-38396  27.097  42.949   0.536
73412ION    CL-38397  31.163  18.482  12.749
73413ION    CL-38398  14.730  15.023  14.285
73414ION    CL-38399   3.571  26.411  11.140
73415ION    CL-38400  21.215  27.335  13.593
73416ION    CL-38401   7.174  27.997  13.131
73417ION    CL-38402  19.844  17.715  11.173
73418ION    CL-38403  20.119  11.096   2.803
73419ION    CL-38404   6.760  40.370   5.118
73420ION    CL-38405  19.149  41.203  14.424
73421ION    CL-38406  23.462   2.911   0.381
73422ION    CL-38407  43.943  35.643  12.411
73423ION    CL-38408  29.380  16.650   3.868
73424ION    CL-38409   1.815  26.886   5.038
73425ION    CL-38410   7.398  13.233   3.405
73426ION    CL-38411  23.427  32.080  10.718
73427ION    CL-38412   1.692  30.337  13.668
73428ION    CL-38413   9.915  31.437   1.018
73429ION    CL-38414  43.884  33.677   2.429
73430ION    CL-38415  26.084  28.653  12.618
73431ION    CL-38416  44.161  17.872   5.432
73432ION    CL-38417  22.259  43.519   3.701
73433ION    CL-38418  41.710  14.142   1.435
73434ION    CL-38419  26.380   1.552   1.809
73435ION    CL-38420  18.580  35.646   1.371
73436ION    CL-38421  44.622  39.198   3.576
73437ION    CL-38422  30.977  23.664   2.420
73438ION    CL-38423   2.986  32.454  11.544
73439ION    CL-38424   1.782  35.200   0.108
73440ION    CL-38425  20.749  26.196   1.912
73441ION    CL-38426  44.219   8.326  13.391
73442ION    CL-38427  23.580  21.428   4.903
73443ION    CL-38428  20.845   6.424   3.714
73444ION    CL-38429  44.494  30.062  10.903
73445ION    CL-38430  21.304   1.257   0.765
73446ION    CL-38431  15.324  32.050   0.800
73447ION    CL-38432  28.549  27.164   3.825
73448ION    CL-38433  35.862   1.041  14.912
73449ION    CL-38434  38.903  20.021  13.073
73450ION    CL-38435   1.007  41.629   1.420
73451ION    CL-38436  15.057  19.584  10.662
73452ION    CL-38437  37.695  35.457  14.394
73453ION    CL-38438  40.798  23.624  12.856
73454ION    CL-38439   9.273  27.394  13.346
73455ION    CL-38440  17.605   6.984   0.810
73456ION    CL-38441  41.078  33.820  11.601
73457ION    CL-38442  13.280  39.314  12.086
73458ION    CL-38443   5.571  32.219  13.962
73459ION    CL-38444  44.528  40.076   1.040
73460ION    CL-38445  14.544  10.743  12.177
73461ION    CL-38446   3.574   2.089  13.010
73462ION    CL-38447   0.088  31.166   1.287
73463ION    CL-38448   4.439   5.842  11.637
73464ION    CL-38449  13.068  42.399   4.102
73465ION    CL-38450   2.446  34.059   4.090
73466ION    CL-38451   7.923  35.339  12.789
73467ION    CL-38452  23.203  23.104   4.188
73468ION    CL-38453  33.859   2.185   3.191
73469ION    CL-38454   4.323   3.799   0.134
73470ION    CL-38455  42.017  37.478  13.983
73471ION    CL-38456  29.985  19.075  12.230
73472ION    CL-38457  26.505   9.341  13.910
73473ION    CL-38458  34.520  38.982   1.653
73474ION    CL-38459   2.968  29.110  12.412
73475ION    CL-38460   5.225  35.677  13.861
73476ION    CL-38461  10.204  34.444   1.239
73477ION    CL-38462  12.730  26.715   4.803
73478ION    CL-38463   4.167  31.783   1.905
73479ION    CL-38464  22.091   6.449  14.518
73480ION    CL-38465  28.515   4.182  13.637
73481ION    CL-38466  20.158  32.001  14.023
73482ION    CL-38467  10.676  43.163   4.630
73483ION    CL-38468  13.315   7.241  11.488
73484ION    CL-38469  43.470  25.515  13.079
73485ION    CL-38470  15.811   8.607   5.066
73486ION    CL-38471  33.414  10.115  12.470
73487ION    CL-38472  23.809  41.943  13.935
73488ION    CL-38473  19.974  37.596  14.054
73489ION    CL-38474  16.483   4.866   9.915
73490ION    CL-38475  15.372   0.057   2.340
73491ION    CL-38476  24.162   2.324   4.607
73492ION    CL-38477  40.313  42.584   3.724
73493ION    CL-38478  26.389   8.310  12.510
73494ION    CL-38479   9.180   6.541  14.158
73495ION    CL-38480  11.224  18.985   2.376
73496ION    CL-38481  38.061  11.326   0.924
73497ION    CL-38482   4.340   1.821  10.813
73498ION    CL-38483   3.104   5.272   1.184
73499ION    CL-38484  34.783  43.526  14.366
73500ION    CL-38485  12.076  19.635  14.984
73501ION    CL-38486  30.199  19.644   1.871
73502ION    CL-38487  37.917   7.952   1.757
73503ION    CL-38488   1.242  11.870  12.640
73504ION    CL-38489  12.198  11.277   1.134
73505ION    CL-38490   9.386  32.385  10.635
73506ION    CL-38491  12.465   7.036   2.840
73507ION    CL-38492  32.192  25.750   1.493
73508ION    CL-38493  44.118  16.452  10.086
73509ION    CL-38494  38.837  29.983  13.337
73510ION    CL-38495  33.884  10.126   3.256
73511ION    CL-38496  40.484  33.705   1.834
73512ION    CL-38497  20.095  12.836  14.536
73513ION    CL-38498  11.961  36.357   0.516
73514ION    CL-38499  11.279  28.268   0.166
73515ION    CL-38500  40.870  30.136  13.153
73516ION    CL-38501  25.003  27.395  13.472
73517ION    CL-38502  24.468   8.129  13.173
73518ION    CL-38503   8.638   4.492  13.026
73519ION    CL-38504  24.416  19.254   4.099
73520ION    CL-38505   6.597  16.094  11.051
73521ION    CL-38506  43.009   5.519  11.169
73522ION    CL-38507  23.311  13.999  11.226
73523ION    CL-38508  11.331  25.193   4.707
73524ION    CL-38509  13.727  26.684   0.254
73525ION    CL-38510   2.780  15.244  12.282
73526ION    CL-38511  29.195  40.353  10.533
73527ION    CL-38512   4.801  32.053   3.657
73528ION    CL-38513   0.541   8.380  14.317
73529ION    CL-38514  17.212  20.671   0.806
73530ION    CL-38515  13.688  36.150   3.351
73531ION    CL-38516  38.567  28.507   3.218
73532ION    CL-38517   8.223  23.991   3.865
73533ION    CL-38518  13.925  20.639   2.202
73534ION    CL-38519  15.517  32.273   2.223
73535ION    CL-38520  23.928   3.660   2.329
73536ION    CL-38521  37.531  19.769   0.822
73537ION    CL-38522  10.454  42.085  14.406
73538ION    CL-38523  35.927  25.356  13.366
73539ION    CL-38524  22.348  38.240  14.305
73540ION    CL-38525  43.011  23.442   5.226
73541ION    CL-38526  30.186  32.523  14.459
73542ION    CL-38527  15.421   8.430  13.885
73543ION    CL-38528  22.977  25.174   1.060
73544ION    CL-38529   3.689  20.611  11.115
73545ION    CL-38530  42.231  40.257  14.904
73546ION    CL-38531  24.772  16.573  11.814
73547ION    CL-38532   2.548  43.270   0.265
73548ION    CL-38533  42.558  31.491  11.181
73549ION    CL-38534  25.660  22.975  14.483
73550ION    CL-38535  42.247   5.520   1.046
73551ION    CL-38536  41.955   9.160  14.370
73552ION    CL-38537  19.668  18.589  11.627
73553ION    CL-38538  39.402  23.062  11.131
73554ION    CL-38539  13.768   1.216  11.420
73555ION    CL-38540   4.929   2.313   4.668
73556ION    CL-38541  39.920  29.480   1.474
73557ION    CL-38542   9.295   0.956   2.313
73558ION    CL-38543   5.224   9.617  12.142
73559ION    CL-38544   6.397  14.192  12.527
73560ION    CL-38545  20.643  33.970   1.434
73561ION    CL-38546   0.200   7.652   4.176
73562ION    CL-38547  35.901   5.634   3.065
73563ION    CL-38548  26.040  44.268  11.280
73564ION    CL-38549  20.723  16.429  10.678
73565ION    CL-38550   0.002  18.745   0.737
73566ION    CL-38551  35.164  40.819   0.596
73567ION    CL-38552  32.882  34.517  13.958
73568ION    CL-38553   9.796   8.853   4.590
73569ION    CL-38554  40.447  44.878   0.044
73570ION    CL-38555  40.443  41.767   3.653
73571ION    CL-38556  40.130   8.847  12.217
73572ION    CL-38557  36.975  15.717   2.334
73573ION    CL-38558  15.748   6.848   0.449
73574ION    CL-38559  20.446  40.472   0.204
73575ION    CL-38560  25.797  21.418  12.071
73576ION    CL-38561  18.242  31.847   1.501
73577ION    CL-38562  23.046  38.794   1.883
73578ION    CL-38563  16.792  17.125  13.418
73579ION    CL-38564  42.918  25.898  11.829
73580ION    CL-38565  35.022  28.473   2.296
73581ION    CL-38566  44.222  35.426   0.017
73582ION    CL-38567  27.636  15.200  14.507
73583ION    CL-38568   3.289  21.561   4.329
73584ION    CL-38569  22.159  37.031   2.247
73585ION    CL-38570  31.066  34.162   4.865
73586ION    CL-38571   5.779  27.580  13.949
73587ION    CL-38572  27.689  16.294   3.751
73588ION    CL-38573  36.111  40.460  11.815
73589ION    CL-38574   6.465  26.914  13.020
73590ION    CL-38575  32.805  20.396  12.199
73591ION    CL-38576   2.840  16.795  12.398
73592ION    CL-38577  33.342  26.389  13.895
73593ION    CL-38578  12.118  12.857  13.376
73594ION    CL-38579  36.890  39.540  14.640
73595ION    CL-38580   1.733  16.571  12.568
73596ION    CL-38581   8.876   6.550   1.959
73597ION    CL-38582  19.298  37.542   3.007
73598ION    CL-38583   8.333  19.634  13.379
73599ION    CL-38584  38.103  20.233   2.410
73600ION    CL-38585  24.475  35.064   3.174
73601ION    CL-38586   9.307  20.536  12.025
73602ION    CL-38587  40.370  12.780   1.795
73603ION    CL-38588  38.536  27.493   3.272
73604ION    CL-38589  10.149   9.986  13.416
73605ION    CL-38590  10.254   5.839  12.010
73606ION    CL-38591  32.373  35.878   0.234
73607ION    CL-38592  15.432   5.085  12.495
73608ION    CL-38593  23.460  36.739   0.215
73609ION    CL-38594  13.507  12.259  12.487
73610ION    CL-38595  38.943  15.634   4.468
73611ION    CL-38596  33.840  43.197  14.320
73612ION    CL-38597  33.559   2.197  11.066
73613ION    CL-38598  29.925  19.658  14.446
73614ION    CL-38599  23.154  10.256   9.867
73615ION    CL-38600   5.843   1.260   0.906
73616ION    CL-38601   3.144   6.808  11.077
73617ION    CL-38602  29.371   9.722   1.914
73618ION    CL-38603   1.093  37.182  13.489
73619ION    CL-38604   1.943  12.401   1.825
73620ION    CL-38605  15.607  26.851   0.292
73621ION    CL-38606  13.641  27.520  10.655
73622ION    CL-38607  43.628  16.192  12.739
73623ION    CL-38608  12.541  10.194  13.064
73624ION    CL-38609  41.636   1.550  13.883
73625ION    CL-38610   1.791  17.256  11.461
73626ION    CL-38611  14.770  39.836   1.569
73627ION    CL-38612  42.979   5.925   1.383
73628ION    CL-38613  17.425  25.829  11.277
73629ION    CL-38614  28.637  44.812   4.110
73630ION    CL-38615  21.631  12.941  12.861
73631ION    CL-38616  37.065  34.087   1.325
73632ION    CL-38617  14.317   0.530   4.006
73633ION    CL-38618   7.673  40.933  12.823
73634ION    CL-38619   7.531   9.048   4.760
73635ION    CL-38620  25.075  24.980  12.245
73636ION    CL-38621  36.152  35.938  12.153
73637ION    CL-38622  25.400  36.245   4.454
73638ION    CL-38623   9.628  42.609  12.204
73639ION    CL-38624  30.849   7.597   2.419
73640ION    CL-38625  18.750  31.155  13.809
73641ION    CL-38626   7.828  26.202  12.745
73642ION    CL-38627  38.043  43.388   0.024
73643ION    CL-38628  32.134  32.367  12.625
73644ION    CL-38629   7.627  22.839  14.821
73645ION    CL-38630  11.820  24.936   3.289
73646ION    CL-38631  27.556  43.696  13.778
73647ION    CL-38632  19.566  27.190  14.114
73648ION    CL-38633  33.832  39.509   4.001
73649ION    CL-38634  11.028  10.335  12.466
73650ION    CL-38635  22.488  17.086   1.171
73651ION    CL-38636  44.770  44.246   0.821
73652ION    CL-38637  36.967  34.919  14.458
73653ION    CL-38638  35.091   3.981   0.362
73654ION    CL-38639  39.898   4.651   0.708
73655ION    CL-38640  36.563   3.253  14.683
73656ION    CL-38641  26.696  11.749  12.576
73657ION    CL-38642  12.428  24.743  14.820
73658ION    CL-38643  32.338  29.014  13.457
73659ION    CL-38644  17.452  41.273  11.059
73660ION    CL-38645  35.921  27.111  10.947
73661ION    CL-38646  44.914  34.443  12.504
73662ION    CL-38647  19.903  25.372   0.112
73663ION    CL-38648  13.691  17.622   0.899
73664ION    CL-38649  13.379   8.956  11.851
73665ION    CL-38650  41.362  30.939  11.603
73666ION    CL-38651  29.958  23.166   0.819
73667ION    CL-38652  12.187  11.517   4.665
73668ION    CL-38653   1.989  31.316  13.448
73669ION    CL-38654  36.358  21.002   0.843
73670ION    CL-38655  13.870   1.538  12.361
73671ION    CL-38656  31.915  26.553   3.297
73672ION    CL-38657  14.727  28.544   0.705
73673ION    CL-38658  38.165   5.111   3.917
73674ION    CL-38659  33.689  14.014   1.675
73675ION    CL-38660  16.490   2.472  11.579
73676ION    CL-38661  41.244  14.989  12.546
73677ION    CL-38662  12.650  41.298  13.934
73678ION    CL-38663   0.775   6.586   2.735
73679ION    CL-38664  20.453  35.518  11.634
73680ION    CL-38665  23.144   3.039   2.355
73681ION    CL-38666  32.174  40.304  14.262
73682ION    CL-38667  13.406  25.119  13.831
73683ION    CL-38668  20.752   4.064  14.837
73684ION    CL-38669  30.074  22.000   1.401
73685ION    CL-38670  42.120  30.007  14.453
73686ION    CL-38671   5.839  34.910   0.184
73687ION    CL-38672   8.198   1.880  10.455
73688ION    CL-38673  36.027  27.390   2.741
73689ION    CL-38674  36.021   4.379   0.294
73690ION    CL-38675   7.247  18.807  13.839
73691ION    CL-38676  30.099  36.002   0.815
73692ION    CL-38677  31.184   9.603  13.756
73693ION    CL-38678  33.310   6.351   4.985
73694ION    CL-38679  25.499  13.670  14.319
73695ION    CL-38680  30.321  23.743  12.593
73696ION    CL-38681  15.010   5.042   0.589
73697ION    CL-38682  44.400   2.099  13.483
73698ION    CL-38683  10.803  12.024  14.662
73699ION    CL-38684  10.791  40.759   0.766
73700ION    CL-38685  26.460  12.363   0.836
73701ION    CL-38686  19.526  35.879   2.405
73702ION    CL-38687  26.715  27.692  13.047
73703ION    CL-38688  29.353   7.694  13.000
73704ION    CL-38689   4.501  41.339  13.978
73705ION    CL-38690   2.373  38.044   2.936
73706ION    CL-38691  18.045   9.915   9.610
73707ION    CL-38692  34.513   7.502   0.188
73708ION    CL-38693  43.373  44.282  14.490
73709ION    CL-38694   0.825  29.886   9.842
73710ION    CL-38695  16.317   5.939   4.280
73711ION    CL-38696   3.272  12.099   0.244
73712ION    CL-38697  35.003  23.155   2.876
73713ION    CL-38698  12.443  15.413   5.088
73714ION    CL-38699  36.812  18.076  12.761
73715ION    CL-38700  21.591  28.660  11.560
73716ION    CL-38701  42.998  41.414  14.021
73717ION    CL-38702  43.341  43.679  11.574
73718ION    CL-38703  25.272  30.849  13.697
73719ION    CL-38704  22.234  16.168  12.481
73720ION    CL-38705  40.486   3.877  12.045
73721ION    CL-38706  44.890  11.304   3.995
73722ION    CL-38707  34.314  16.904   1.968
73723ION    CL-38708  44.808  29.419  12.341
73724ION    CL-38709  27.203   6.686   1.491
73725ION    CL-38710  23.015  21.706   3.689
73726ION    CL-38711  39.363  16.359  12.498
73727ION    CL-38712  15.904  24.551   2.703
73728ION    CL-38713   9.751  16.573   4.376
73729ION    CL-38714   1.821  11.861  10.703
73730ION    CL-38715  38.327  16.435   4.147
73731ION    CL-38716  43.700  10.176  10.976
73732ION    CL-38717  15.751  37.803   1.367
73733ION    CL-38718  14.126  30.646   1.020
73734ION    CL-38719  22.695  14.326  11.943
73735ION    CL-38720  22.449  26.512  14.469
73736ION    CL-38721  12.392  14.649  13.445
73737ION    CL-38722  38.630  29.094  10.329
73738ION    CL-38723  20.120  14.612   3.972
73739ION    CL-38724   7.634   0.725  12.052
73740ION    CL-38725  20.539  21.753  12.417
73741ION    CL-38726  19.224  37.622   0.430
73742ION    CL-38727  42.231  44.726   9.987
73743ION    CL-38728  13.080  16.705   4.437
73744ION    CL-38729  28.638  28.343  11.195
73745ION    CL-38730   5.244  36.802   1.419
73746ION    CL-38731  16.327  13.160   1.817
73747ION    CL-38732   3.996  11.537  13.493
73748ION    CL-38733  40.240   4.997   9.897
73749ION    CL-38734  32.148  39.032   0.259
73750ION    CL-38735  37.062  43.066  10.230
73751ION    CL-38736  38.705   2.469   4.574
73752ION    CL-38737  16.757   1.906  12.361
73753ION    CL-38738  18.961  37.436  14.082
73754ION    CL-38739   4.965  39.804   9.854
73755ION    CL-38740   7.451  43.862   1.350
73756ION    CL-38741  44.875  29.362  11.329
73757ION    CL-38742   9.505  34.329  11.251
73758ION    CL-38743  24.325  29.101  14.529
73759ION    CL-38744   0.163  32.160   1.205
73760ION    CL-38745  23.596  31.532   3.397
73761ION    CL-38746   6.349  27.480  14.818
73762ION    CL-38747  23.058  38.908   2.709
73763ION    CL-38748  33.495  43.906  13.705
73764ION    CL-38749  34.188  41.489  14.539
73765ION    CL-38750  14.591   5.488  11.876
73766ION    CL-38751   1.587  22.534   2.532
73767ION    CL-38752  12.545   5.187   0.804
73768ION    CL-38753   6.655  39.844   4.067
73769ION    CL-38754  42.218  29.254   3.322
73770ION    CL-38755  39.869  17.098  12.800
73771ION    CL-38756  16.297  41.102   1.020
73772ION    CL-38757  14.437   1.491   3.757
73773ION    CL-38758  32.604  37.600   3.985
73774ION    CL-38759  13.514  30.652  14.872
73775ION    CL-38760  16.476   3.156   0.315
73776ION    CL-38761   1.269  39.336   2.771
73777ION    CL-38762   8.795  20.323   2.046
73778ION    CL-38763  27.948  25.688   0.285
73779ION    CL-38764  22.580  16.461   3.045
73780ION    CL-38765  23.713  41.243   2.681
73781ION    CL-38766   9.370   2.300   1.791
73782ION    CL-38767  39.100   3.427  11.197
73783ION    CL-38768  29.321  28.372  10.330
73784ION    CL-38769  38.246  33.758   3.634
73785ION    CL-38770   6.099  31.252   0.039
73786ION    CL-38771  32.960  13.653   3.163
73787ION    CL-38772   9.833  29.990   3.835
73788ION    CL-38773  38.336  38.595  10.921
73789ION    CL-38774  11.203  41.249   4.075
73790ION    CL-38775  13.694  36.675  13.363
73791ION    CL-38776   3.520  38.921  12.476
73792ION    CL-38777  34.706  17.713  13.155
73793ION    CL-38778   9.517  23.726   0.031
73794ION    CL-38779  41.664  24.184  10.333
73795ION    CL-38780  22.858   5.088   3.861
73796ION    CL-38781  20.096  23.036  14.455
73797ION    CL-38782  39.792  14.486  11.362
73798ION    CL-38783  17.105  14.620   0.379
73799ION    CL-38784  31.191  32.297  12.952
73800ION    CL-38785  25.921  12.355   4.478
73801ION    CL-38786  18.950  33.921   2.564
73802ION    CL-38787  41.983  33.046   1.665
73803ION    CL-38788  24.731  18.603   3.564
73804ION    CL-38789  27.357   1.977   4.060
73805ION    CL-38790   6.499  24.508  13.495
73806ION    CL-38791  39.043  17.354   2.242
73807ION    CL-38792  10.688  36.074   2.840
73808ION    CL-38793   3.635  42.184  11.247
73809ION    CL-38794  12.825   9.031  12.364
73810ION    CL-38795  27.459  21.162  13.771
73811ION    CL-38796   7.286  25.859   1.247
73812ION    CL-38797  37.841  27.428   4.553
73813ION    CL-38798   5.787  16.634  10.821
73814ION    CL-38799  33.518  31.848  11.331
73815ION    CL-38800  17.230  40.067   2.794
73816ION    CL-38801  12.173  21.101  10.897
73817ION    CL-38802  37.952   6.190  11.500
73818ION    CL-38803   1.707  27.681   4.516
73819ION    CL-38804   8.095  30.620  14.553
73820ION    CL-38805  29.362   5.084  12.209
73821ION    CL-38806  12.850  42.580  11.118
73822ION    CL-38807  26.156  24.268   3.123
73823ION    CL-38808  33.995   5.643  13.782
73824ION    CL-38809  40.772  24.125   4.158
73825ION    CL-38810   4.384  14.988  10.705
73826ION    CL-38811  23.903  37.682  12.764
73827ION    CL-38812  23.787  39.525   2.387
73828ION    CL-38813  24.748  24.295   0.858
73829ION    CL-38814  34.736   9.083  14.734
73830ION    CL-38815  15.440  35.101   1.447
73831ION    CL-38816   0.346  23.810  14.073
73832ION    CL-38817  15.884  38.976   9.874
73833ION    CL-38818   2.030   8.943   3.970
73834ION    CL-38819  20.147  10.752  11.252
73835ION    CL-38820  40.837  20.041   1.784
73836ION    CL-38821  18.598  30.651  14.659
73837ION    CL-38822  35.249  44.884  12.105
73838ION    CL-38823  35.053   5.572  11.354
73839ION    CL-38824  10.512  44.541   3.201
73840ION    CL-38825  31.320   4.461   3.206
73841ION    CL-38826   3.672  22.696   3.532
73842ION    CL-38827  17.539   9.757  13.440
73843ION    CL-38828   8.891  19.756   1.228
73844ION    CL-38829  10.773   0.770  13.015
73845ION    CL-38830   5.171  25.143   2.277
73846ION    CL-38831   8.770  17.711  12.563
73847ION    CL-38832  36.023  36.754   0.373
73848ION    CL-38833   6.558  33.880  10.503
73849ION    CL-38834  38.927   4.962   1.908
73850ION    CL-38835  40.841  12.106   0.218
73851ION    CL-38836  24.802  19.167   2.415
73852ION    CL-38837  13.213  44.943  14.070
73853ION    CL-38838  21.261  37.506   2.796
73854ION    CL-38839  11.700  34.705   0.639
73855ION    CL-38840   4.270  34.443  11.907
73856ION    CL-38841   9.944  32.935  13.240
73857ION    CL-38842  21.830  35.727  12.055
73858ION    CL-38843   6.165  26.450  14.979
73859ION    CL-38844  11.773  42.666  11.199
73860ION    CL-38845  15.727   1.694   5.015
73861ION    CL-38846   9.423  30.049  12.066
73862ION    CL-38847  25.546   3.213   1.518
73863ION    CL-38848  40.336  22.261  14.363
73864ION    CL-38849  21.275  16.533  14.329
73865ION    CL-38850   5.124   1.618  12.814
73866ION    CL-38851  27.952   5.034   5.026
73867ION    CL-38852   1.200  42.748   2.827
73868ION    CL-38853  11.593  10.823  11.556
73869ION    CL-38854   4.411  24.177   5.037
73870ION    CL-38855  10.236  10.584  11.572
73871ION    CL-38856  32.257  13.000  10.264
73872ION    CL-38857  20.911  42.827   3.182
73873ION    CL-38858  36.577  10.104  10.432
73874ION    CL-38859  26.516  40.278  13.578
73875ION    CL-38860   5.480   2.564  11.491
73876ION    CL-38861   4.115   6.551   0.129
73877ION    CL-38862   9.908  42.764  10.502
73878ION    CL-38863  10.382  42.062  13.408
73879ION    CL-38864  27.578   3.304   4.158
73880ION    CL-38865  36.923  32.306   0.944
73881ION    CL-38866  37.268  14.895   4.821
73882ION    CL-38867  21.595  32.942   0.461
73883ION    CL-38868  19.793  15.211  11.433
73884ION    CL-38869   0.553   9.777   0.265
73885ION    CL-38870  16.025  29.595   4.213
73886ION    CL-38871   9.094  31.394   4.091
73887ION    CL-38872  42.239  17.604   0.143
73888ION    CL-38873  39.966  13.580   1.655
73889ION    CL-38874  18.329  26.242  13.093
73890ION    CL-38875  38.865  13.064  10.710
73891ION    CL-38876  10.397  10.790   2.294
73892ION    CL-38877   6.939   1.073  12.681
73893ION    CL-38878  37.967  21.041   0.333
73894ION    CL-38879  18.213  13.418   3.491
73895ION    CL-38880  42.760   0.071  14.445
73896ION    CL-38881  44.973   2.533   3.284
73897ION    CL-38882   6.706  30.496   4.674
73898ION    CL-38883  36.253   2.548   0.557
73899ION    CL-38884  18.541  41.224   2.820
73900ION    CL-38885  31.441  29.566   4.041
73901ION    CL-38886  12.300  38.653  14.479
73902ION    CL-38887  28.979  10.040   4.310
73903ION    CL-38888  18.786  16.493  12.860
73904ION    CL-38889   7.732  28.053   5.096
73905ION    CL-38890  33.931  22.444   2.937
73906ION    CL-38891  32.439  20.672   3.625
73907ION    CL-38892  14.902  19.607  12.042
73908ION    CL-38893   0.940   9.505  13.856
73909ION    CL-38894  14.753  42.959   5.059
73910ION    CL-38895  32.526   7.580   3.758
73911ION    CL-38896  19.203   5.960   1.904
73912ION    CL-38897   2.661  37.917  12.220
73913ION    CL-38898  35.161  35.828   2.900
73914ION    CL-38899  23.950  14.074  12.457
73915ION    CL-38900  13.024  44.754   5.032
73916ION    CL-38901  12.190  37.590  14.484
73917ION    CL-38902   1.954  38.313  12.927
73918ION    CL-38903  21.553   4.901  11.660
73919ION    CL-38904  15.802  39.088  12.707
73920ION    CL-38905  31.562  27.388  14.895
73921ION    CL-38906  31.657   4.654  12.300
73922ION    CL-38907  28.820  14.991   2.511
73923ION    CL-38908  30.707  11.821  12.401
73924ION    CL-38909  30.054  35.088   2.549
73925ION    CL-38910  41.948  14.110  14.286
73926ION    CL-38911  31.292  13.117  14.262
73927ION    CL-38912  21.733  31.016   3.979
73928ION    CL-38913   9.687   1.715   5.136
73929ION    CL-38914  20.249  43.009  13.310
73930ION    CL-38915   0.926  39.127  12.065
73931ION    CL-38916  32.826  18.435   9.830
73932ION    CL-38917   3.539  12.190   5.016
73933ION    CL-38918  38.590  13.932   3.444
73934ION    CL-38919  22.271  15.077  14.733
73935ION    CL-38920  36.749  38.945  10.427
73936ION    CL-38921  44.998  11.222   5.256
73937ION    CL-38922  37.557  24.493   2.597
73938ION    CL-38923  20.040  43.936   2.864
73939ION    CL-38924   5.731  36.332  11.045
73940ION    CL-38925  20.095  23.990  14.770
73941ION    CL-38926   7.841  33.913  10.431
73942ION    CL-38927   2.212  30.206   2.376
73943ION    CL-38928  36.403  13.419   5.069
73944ION    CL-38929  26.792  29.593  11.946
73945ION    CL-38930  34.453  36.767  11.519
73946ION    CL-38931  26.598  25.789  10.582
73947ION    CL-38932   5.439   2.033   2.083
73948ION    CL-38933  16.183  35.847   5.219
73949ION    CL-38934  41.412  24.318  14.819
73950ION    CL-38935   8.094  39.482  11.142
73951ION    CL-38936  43.650  35.321  13.202
73952ION    CL-38937  12.362  41.218  12.980
73953ION    CL-38938  27.892  26.438   1.815
73954ION    CL-38939  26.223  29.430  13.231
73955ION    CL-38940  40.484  39.276  14.676
73956ION    CL-38941  29.468  42.084  12.497
73957ION    CL-38942  25.681  42.784   0.514
73958ION    CL-38943  37.655  32.753  11.981
73959ION    CL-38944  29.559  24.764   3.833
73960ION    CL-38945  36.722  28.349  13.101
73961ION    CL-38946  40.617  20.929  12.412
73962ION    CL-38947  18.345  32.456   3.226
73963ION    CL-38948  27.682  20.384   1.837
73964ION    CL-38949  23.087  11.819  12.449
73965ION    CL-38950  20.846   0.607  12.083
73966ION    CL-38951  13.442  18.038   9.837
73967ION    CL-38952  26.124  29.312   4.516
73968ION    CL-38953   7.216  14.583   2.118
73969ION    CL-38954  30.428   3.605  12.220
73970ION    CL-38955   1.793  10.280  10.687
73971ION    CL-38956  12.310  25.764   0.050
73972ION    CL-38957  41.021   9.883   2.591
73973ION    CL-38958   6.879  26.146   0.478
73974ION    CL-38959  44.016  35.014  11.571
73975ION    CL-38960  36.521  23.899   0.357
73976ION    CL-38961  38.934  42.387   4.402
73977ION    CL-38962  10.674   5.580  10.352
73978ION    CL-38963  29.403  24.606   4.696
73979ION    CL-38964  31.617  17.661  13.474
73980ION    CL-38965  15.619   1.004  12.901
73981ION    CL-38966  19.004  17.547  13.703
73982ION    CL-38967  20.881  10.390   2.919
73983ION    CL-38968  16.846  21.940  10.841
73984ION    CL-38969  26.483  19.549   2.329
73985ION    CL-38970  16.994  42.836  11.038
73986ION    CL-38971  27.686   9.203  13.045
73987ION    CL-38972  40.931  42.216   4.110
73988ION    CL-38973  28.351  19.292  14.002
73989ION    CL-38974   5.986  26.482  11.648
73990ION    CL-38975  22.081   8.281   5.000
73991ION    CL-38976   9.436   6.919  13.500
73992ION    CL-38977  40.607  30.436   3.792
73993ION    CL-38978   1.330  41.746   0.244
73994ION    CL-38979   5.761   3.870  14.504
73995ION    CL-38980  43.804   4.965  12.262
73996ION    CL-38981   7.873  27.075   3.880
73997ION    CL-38982  12.469  12.292  12.596
73998ION    CL-38983  20.645   3.356   1.862
73999ION    CL-38984  41.699  18.641  11.559
74000ION    CL-38985  35.353  23.347  12.208
74001ION    CL-38986  26.974  16.110  12.446
74002ION    CL-38987   5.080   9.994  13.064
74003ION    CL-38988  13.471   6.452  13.515
74004ION    CL-38989  17.369  41.683  13.052
74005ION    CL-38990  31.712   5.701  10.333
74006ION    CL-38991   8.544  42.567   1.799
74007ION    CL-38992  22.233  22.006  12.776
74008ION    CL-38993  10.174  37.594  14.435
74009ION    CL-38994  12.006   2.337  11.955
74010ION    CL-38995  25.598  28.185  14.481
74011ION    CL-38996  12.185  32.109   0.241
74012ION    CL-38997  37.989  35.455   3.317
74013ION    CL-38998  41.784   5.744  11.522
74014ION    CL-38999  18.964  17.605   4.557
74015ION    CL-39000   9.753  10.041   4.933
74016ION    CL-39001  23.811  30.850   5.527
74017ION    CL-39002  25.110  38.268   4.522
74018ION    CL-39003  20.907  35.531   0.770
74019ION    CL-39004  19.672  16.532  12.729
74020ION    CL-39005  12.790   2.894   2.954
74021ION    CL-39006  24.780  41.950   0.648
74022ION    CL-39007   8.629  41.620   1.822
74023ION    CL-39008  19.749  18.227   9.713
74024ION    CL-39009  13.194  43.722  11.904
74025ION    CL-39010  32.481  27.534   0.344
74026ION    CL-39011  29.488   2.989   1.218
74027ION    CL-39012  26.525   8.000   2.719
74028ION    CL-39013  37.913   8.809  10.794
74029ION    CL-39014  29.403  33.893   3.162
74030ION    CL-39015   8.817   9.306   1.524
74031ION    CL-39016   3.492   2.427  14.912
74032ION    CL-39017  26.171  11.152  11.533
74033ION    CL-39018  36.874  39.517  13.615
74034ION    CL-39019  11.442   5.410   2.798
74035ION    CL-39020   2.798  24.202   4.049
74036ION    CL-39021  16.266  28.595   4.916
74037ION    CL-39022  28.249  21.103  11.692
74038ION    CL-39023   3.723  44.894   1.518
74039ION    CL-39024  13.026  18.457   3.795
74040ION    CL-39025  17.549   1.490  12.095
74041ION    CL-39026  13.961   2.831  14.740
74042ION    CL-39027   3.094  38.426   3.871
74043ION    CL-39028  33.089  18.127   1.333
74044ION    CL-39029  32.582  44.780  11.981
74045ION    CL-39030   9.758  28.263   1.464
74046ION    CL-39031  13.030  18.531  13.938
74047ION    CL-39032  21.229   8.747  14.949
74048ION    CL-39033  26.033   6.945   2.245
74049ION    CL-39034  44.314  39.504  12.331
74050ION    CL-39035   6.650  35.842   0.944
74051ION    CL-39036  13.570  22.251  12.731
74052ION    CL-39037  26.027   3.841  10.869
74053ION    CL-39038  37.165  41.233   4.183
74054ION    CL-39039  13.965  13.320   2.141
74055ION    CL-39040  35.180   2.647  10.825
74056ION    CL-39041  31.458  36.921  11.736
74057ION    CL-39042  21.408  10.269  11.728
74058ION    CL-39043   8.406  44.181  12.085
74059ION    CL-39044  43.994  15.172   0.267
74060ION    CL-39045  33.372   3.986  13.082
74061ION    CL-39046  39.249  31.197   3.569
74062ION    CL-39047   9.420  43.997   1.081
74063ION    CL-39048  36.988  43.235   2.573
74064ION    CL-39049  21.155  28.407  13.398
74065ION    CL-39050  12.449  28.033   5.312
74066ION    CL-39051  42.561  26.856  13.315
74067ION    CL-39052  25.482  14.768  10.661
74068ION    CL-39053  34.645  10.279  13.874
74069ION    CL-39054   6.573  35.238   1.598
74070ION    CL-39055  26.107  13.660   4.142
74071ION    CL-39056  12.547  22.558   2.295
74072ION    CL-39057  27.144  10.294   4.264
74073ION    CL-39058  35.441  32.728   0.649
74074ION    CL-39059  25.784  43.672   4.859
74075ION    CL-39060  30.849  15.034  14.138
74076ION    CL-39061  29.025  19.991  12.536
74077ION    CL-39062  27.487   4.244  13.395
74078ION    CL-39063  36.551  14.190   5.037
74079ION    CL-39064   4.908  23.490   3.172
74080ION    CL-39065   0.919  25.709  12.117
74081ION    CL-39066  23.990  10.182  10.600
74082ION    CL-39067   2.697  28.151  12.492
74083ION    CL-39068  40.792  26.130  12.471
74084ION    CL-39069  24.737   4.941   4.568
74085ION    CL-39070  23.272   4.618   4.493
74086ION    CL-39071  28.214  13.711  13.881
74087ION    CL-39072  13.035  34.954  12.265
74088ION    CL-39073   6.295   4.668   1.452
74089ION    CL-39074   7.535  23.922  11.068
74090ION    CL-39075  21.043  15.717  11.687
74091ION    CL-39076  44.391  24.562   1.380
74092ION    CL-39077   7.881  41.884   2.107
74093ION    CL-39078  13.603  15.303   2.860
  45.00000  45.00000  15.00000
